Protein in INSANE! Membrane UpperLeaflet>POPC=1.0 LowerLeaflet>POPC=1.0
243957
    1AU     AUC    1  17.927  17.666   7.498
    1AU     AUC    2  18.220  17.667   7.329
    1AU     AUC    3  18.184  17.657   7.668
    1AU     AUC    4  17.652  17.654   7.337
    1AU     AUC    5  17.667  17.704   7.680
    1AU     AUC    6  17.758  17.941   7.495
    1AU     AUC    7  18.104  17.932   7.485
    1AU     AUC    8  17.738  17.397   7.501
    1AU     AUC    9  18.093  17.395   7.504
    1AU     AUC   10  17.932  17.493   7.765
    1AU     AUC   11  17.918  17.861   7.750
    1AU     AUC   12  17.928  17.503   7.230
    1AU     AUC   13  17.955  17.818   7.227
    1AU     AUC   14  18.556  17.666   7.179
    1AU     AUC   15  18.545  17.650   7.516
    1AU     AUC   16  18.478  17.636   7.869
    1AU     AUC   17  17.336  17.658   7.176
    1AU     AUC   18  17.320  17.698   7.537
    1AU     AUC   19  17.378  17.745   7.867
    1AU     AUC   20  17.599  18.263   7.462
    1AU     AUC   21  17.953  18.287   7.437
    1AU     AUC   22  18.277  18.225   7.471
    1AU     AUC   23  17.540  17.116   7.502
    1AU     AUC   24  17.867  17.057   7.472
    1AU     AUC   25  18.256  17.073   7.481
    1AU     AUC   26  17.917  17.319   8.063
    1AU     AUC   27  17.928  17.680   8.097
    1AU     AUC   28  17.951  18.040   8.043
    1AU     AUC   29  17.959  17.335   6.946
    1AU     AUC   30  17.947  17.645   6.889
    1AU     AUC   31  17.948  17.965   6.920
    1AU     AUC   32  18.200  17.434   7.989
    1AU     AUC   33  18.223  17.819   7.990
    1AU     AUC   34  18.276  17.489   7.018
    1AU     AUC   35  18.275  17.838   7.032
    1AU     AUC   36  17.634  17.560   8.019
    1AU     AUC   37  17.653  17.934   7.982
    1AU     AUC   38  17.627  17.485   7.044
    1AU     AUC   39  17.608  17.791   6.997
    1AU     AUC   40  18.465  17.949   7.329
    1AU     AUC   41  18.393  17.931   7.692
    1AU     AUC   42  17.433  17.965   7.336
    1AU     AUC   43  17.466  18.037   7.680
    1AU     AUC   44  18.431  17.353   7.345
    1AU     AUC   45  18.386  17.325   7.674
    1AU     AUC   46  17.394  17.371   7.372
    1AU     AUC   47  17.458  17.425   7.721
    1AU     AUC   48  17.787  18.214   7.745
    1AU     AUC   49  18.112  18.157   7.762
    1AU     AUC   50  17.735  17.205   7.795
    1AU     AUC   51  18.052  17.144   7.767
    1AU     AUC   52  17.753  18.092   7.182
    1AU     AUC   53  18.137  18.118   7.160
    1AU     AUC   54  17.716  17.186   7.211
    1AU     AUC   55  18.106  17.214   7.210
    1AU    AUSL   56  18.465  17.563   8.239
    1AU    AUSL   57  18.201  17.143   8.152
    1AU     AUL   58  18.494  17.164   8.355
    1AU       S   59  18.570  16.810   8.080
    1AU     LIG   60  18.449  16.657   8.465
    1AU     LIG   61  18.627  16.341   8.722
    1AU     LIG   62  18.882  16.056   8.975
    1AU     LIG   63  19.136  16.054   9.365
    1AU       S   64  18.690  17.572   8.358
    1AU     LIG   65  18.540  17.572   8.801
    1AU     LIG   66  18.678  17.617   9.233
    1AU     LIG   67  18.937  17.412   9.566
    1AU     LIG   68  19.308  17.413   9.857
    1AU    AUSL   69  18.055  17.472   8.408
    1AU    AUSL   70  17.803  17.872   8.436
    1AU     AUL   71  17.990  17.770   8.744
    1AU       S   72  18.150  17.393   8.549
    1AU     LIG   73  18.072  17.329   8.973
    1AU     LIG   74  18.339  17.233   9.340
    1AU     LIG   75  18.518  17.165   9.771
    1AU     LIG   76  18.520  17.085  10.242
    1AU       S   77  17.579  17.604   8.634
    1AU     LIG   78  17.641  17.626   9.112
    1AU     LIG   79  17.353  17.613   9.487
    1AU     LIG   80  17.073  17.684   9.860
    1AU     LIG   81  16.988  17.827  10.300
    1AU    AUSL   82  18.119  17.845   8.152
    1AU    AUSL   83  18.558  17.974   8.116
    1AU     AUL   84  18.349  17.866   8.446
    1AU       S   85  18.034  18.229   8.616
    1AU     LIG   86  18.384  18.075   8.898
    1AU     LIG   87  18.688  18.209   9.234
    1AU     LIG   88  18.717  18.342   9.687
    1AU     LIG   89  18.565  18.432  10.133
    1AU       S   90  18.706  18.121   8.281
    1AU     LIG   91  19.122  18.127   8.357
    1AU     LIG   92  19.351  18.329   8.701
    1AU     LIG   93  19.520  18.569   9.054
    1AU     LIG   94  19.699  18.876   9.338
    1AU    AUSL   95  18.464  17.708   6.885
    1AU    AUSL   96  18.354  18.142   6.819
    1AU     AUL   97  18.634  17.968   6.620
    1AU       S   98  18.289  17.881   6.348
    1AU     LIG   99  18.729  17.906   6.103
    1AU     LIG  100  18.874  17.615   5.782
    1AU     LIG  101  18.929  17.486   5.353
    1AU     LIG  102  19.077  17.351   4.939
    1AU       S  103  18.682  18.393   6.841
    1AU     LIG  104  18.824  18.576   6.465
    1AU     LIG  105  19.007  18.812   6.101
    1AU     LIG  106  19.227  19.150   5.862
    1AU     LIG  107  19.378  19.337   5.457
    1AU    AUSL  108  18.256  17.460   6.582
    1AU    AUSL  109  18.670  17.328   6.923
    1AU     AUL  110  18.635  17.498   6.647
    1AU       S  111  18.730  17.038   6.690
    1AU     LIG  112  18.837  16.737   6.333
    1AU     LIG  113  19.078  16.356   6.288
    1AU     LIG  114  19.363  16.076   6.083
    1AU     LIG  115  19.592  16.164   5.699
    1AU       S  116  18.364  17.688   6.321
    1AU     LIG  117  18.508  17.367   6.068
    1AU     LIG  118  18.561  17.218   5.619
    1AU     LIG  119  18.514  17.261   5.145
    1AU     LIG  120  18.627  17.280   4.684
    1AU    AUSL  121  18.059  17.822   6.760
    1AU    AUSL  122  17.834  17.434   6.698
    1AU     AUL  123  17.975  17.484   6.433
    1AU       S  124  17.520  17.491   6.292
    1AU     LIG  125  17.513  17.160   6.022
    1AU     LIG  126  17.301  17.108   5.617
    1AU     LIG  127  17.082  17.135   5.198
    1AU     LIG  128  17.089  16.930   4.764
    1AU       S  129  18.141  17.942   6.438
    1AU     LIG  130  18.148  17.804   5.891
    1AU     LIG  131  18.431  17.701   5.491
    1AU     LIG  132  18.610  17.758   5.041
    1AU     LIG  133  18.702  18.058   4.685
    1AU    AUSL  134  17.397  17.826   8.254
    1AU    AUSL  135  17.709  18.167   8.129
    1AU     AUL  136  17.568  18.103   8.465
    1AU       S  137  17.392  17.718   8.685
    1AU     LIG  138  17.156  17.469   8.979
    1AU     LIG  139  16.889  17.415   9.365
    1AU     LIG  140  16.640  17.428   9.762
    1AU     LIG  141  16.529  17.639  10.173
    1AU       S  142  17.313  18.400   8.208
    1AU     LIG  143  17.398  18.640   8.549
    1AU     LIG  144  17.216  18.711   8.964
    1AU     LIG  145  16.909  18.929   9.236
    1AU     LIG  146  16.560  19.208   9.394
    1AU    AUSL  147  17.708  17.534   8.158
    1AU    AUSL  148  17.285  17.396   8.158
    1AU     AUL  149  17.197  17.629   8.278
    1AU       S  150  17.205  17.177   8.421
    1AU     LIG  151  16.761  17.069   8.247
    1AU     LIG  152  16.528  16.676   8.368
    1AU     LIG  153  16.339  16.331   8.621
    1AU     LIG  154  16.124  16.254   9.025
    1AU       S  155  17.588  17.472   8.555
    1AU     LIG  156  17.567  17.168   8.917
    1AU     LIG  157  17.344  17.126   9.331
    1AU     LIG  158  17.120  17.177   9.757
    1AU     LIG  159  16.923  17.292  10.179
    1AU    AUSL  160  17.428  17.575   6.778
    1AU    AUSL  161  17.618  17.208   6.993
    1AU     AUL  162  17.603  17.203   6.637
    1AU       S  163  17.283  17.467   6.422
    1AU     LIG  164  17.021  17.289   6.085
    1AU     LIG  165  16.868  17.376   5.645
    1AU     LIG  166  16.626  17.415   5.242
    1AU     LIG  167  16.229  17.397   4.967
    1AU       S  168  17.190  17.077   6.786
    1AU     LIG  169  17.006  16.897   6.436
    1AU     LIG  170  16.827  16.497   6.280
    1AU     LIG  171  16.656  16.201   5.958
    1AU     LIG  172  16.558  16.122   5.498
    1AU    AUSL  173  17.690  17.861   6.547
    1AU    AUSL  174  17.193  17.918   6.919
    1AU     AUL  175  17.333  17.893   6.591
    1AU       S  176  16.935  18.084   6.753
    1AU     LIG  177  16.636  18.362   6.592
    1AU     LIG  178  16.635  18.562   6.179
    1AU     LIG  179  16.497  18.771   5.793
    1AU     LIG  180  16.189  18.759   5.442
    1AU       S  181  17.595  17.715   6.244
    1AU     LIG  182  17.333  17.617   5.839
    1AU     LIG  183  17.274  17.584   5.376
    1AU     LIG  184  17.415  17.696   4.933
    1AU     LIG  185  17.416  17.999   4.567
    1AU    AUSL  186  18.704  18.186   7.521
    1AU    AUSL  187  18.705  17.997   7.099
    1AU     AUL  188  18.980  18.324   7.358
    1AU       S  189  18.793  18.172   6.988
    1AU     LIG  190  19.113  18.185   6.674
    1AU     LIG  191  19.305  18.433   6.335
    1AU     LIG  192  19.509  18.720   6.038
    1AU     LIG  193  19.643  18.916   5.642
    1AU       S  194  19.107  18.066   7.731
    1AU     LIG  195  19.502  18.237   7.529
    1AU     LIG  196  19.977  18.371   7.472
    1AU     LIG  197  20.447  18.481   7.555
    1AU     LIG  198  20.650  18.731   7.887
    1AU    AUSL  199  18.920  17.781   7.405
    1AU    AUSL  200  18.861  17.446   7.721
    1AU     AUL  201  19.232  17.565   7.722
    1AU       S  202  19.043  17.872   7.455
    1AU     LIG  203  19.456  17.781   7.298
    1AU     LIG  204  19.881  17.956   7.186
    1AU     LIG  205  20.356  18.110   7.207
    1AU     LIG  206  20.776  18.358   7.158
    1AU       S  207  19.112  17.169   7.529
    1AU     LIG  208  19.518  17.065   7.699
    1AU     LIG  209  19.911  16.839   7.620
    1AU     LIG  210  20.354  16.779   7.757
    1AU     LIG  211  20.633  16.701   8.114
    1AU    AUSL  212  18.619  17.803   7.731
    1AU    AUSL  213  18.358  18.188   7.782
    1AU     AUL  214  18.691  18.248   7.827
    1AU       S  215  18.679  18.422   8.253
    1AU     LIG  216  19.034  18.641   8.419
    1AU     LIG  217  19.341  18.870   8.661
    1AU     LIG  218  19.534  19.269   8.773
    1AU     LIG  219  19.482  19.740   8.672
    1AU       S  220  18.955  17.883   7.886
    1AU     LIG  221  19.445  17.884   8.023
    1AU     LIG  222  19.823  17.916   7.763
    1AU     LIG  223  20.232  18.110   7.829
    1AU     LIG  224  20.641  18.223   8.011
    1AU    AUSL  225  17.272  18.260   7.503
    1AU    AUSL  226  17.362  18.039   7.885
    1AU     AUL  227  17.052  18.369   7.749
    1AU       S  228  17.191  18.225   8.165
    1AU     LIG  229  16.952  18.377   8.557
    1AU     LIG  230  16.725  18.537   8.937
    1AU     LIG  231  16.421  18.738   9.224
    1AU     LIG  232  16.111  18.947   9.513
    1AU       S  233  17.275  18.632   7.421
    1AU     LIG  234  16.793  18.596   7.330
    1AU     LIG  235  16.317  18.748   7.330
    1AU     LIG  236  15.911  19.029   7.274
    1AU     LIG  237  15.604  19.424   7.273
    1AU    AUSL  238  17.236  17.850   7.334
    1AU    AUSL  239  17.351  18.304   7.081
    1AU     AUL  240  17.053  18.191   7.197
    1AU       S  241  16.830  17.647   6.988
    1AU     LIG  242  16.539  18.036   7.073
    1AU     LIG  243  16.181  18.360   7.015
    1AU     LIG  244  15.739  18.590   6.991
    1AU     LIG  245  15.282  18.619   6.793
    1AU       S  246  17.182  18.548   6.900
    1AU     LIG  247  16.916  18.799   6.581
    1AU     LIG  248  16.807  19.046   6.167
    1AU     LIG  249  16.670  19.420   5.893
    1AU     LIG  250  16.504  19.880   5.952
    1AU    AUSL  251  16.996  17.914   7.707
    1AU    AUSL  252  16.956  17.535   7.424
    1AU     AUL  253  16.840  17.847   7.421
    1AU       S  254  16.763  17.464   7.701
    1AU     LIG  255  16.453  17.531   7.364
    1AU     LIG  256  16.026  17.355   7.313
    1AU     LIG  257  15.587  17.156   7.309
    1AU     LIG  258  15.168  16.937   7.301
    1AU       S  259  16.875  17.940   7.922
    1AU     LIG  260  16.442  17.914   7.732
    1AU     LIG  261  16.010  18.163   7.726
    1AU     LIG  262  15.558  18.356   7.824
    1AU     LIG  263  15.146  18.621   7.863
    1AU    AUSL  264  18.650  17.087   7.549
    1AU    AUSL  265  18.465  17.350   7.869
    1AU     AUL  266  18.792  17.250   7.945
    1AU       S  267  18.967  16.988   7.573
    1AU     LIG  268  19.286  16.691   7.411
    1AU     LIG  269  19.709  16.540   7.268
    1AU     LIG  270  20.138  16.409   7.449
    1AU     LIG  271  20.372  16.279   7.854
    1AU       S  272  18.682  16.808   7.952
    1AU     LIG  273  18.943  16.588   8.315
    1AU     LIG  274  19.152  16.375   8.669
    1AU     LIG  275  19.403  16.077   8.918
    1AU     LIG  276  19.661  16.043   9.308
    1AU    AUSL  277  18.637  17.468   7.325
    1AU    AUSL  278  18.510  16.973   7.150
    1AU     AUL  279  18.780  17.112   7.168
    1AU       S  280  19.122  17.355   7.318
    1AU     LIG  281  19.486  17.105   7.177
    1AU     LIG  282  19.927  17.002   7.145
    1AU     LIG  283  20.358  16.868   7.242
    1AU     LIG  284  20.811  16.899   7.243
    1AU       S  285  18.706  16.807   6.813
    1AU     LIG  286  18.755  16.359   6.704
    1AU     LIG  287  18.868  15.938   6.495
    1AU     LIG  288  19.136  15.632   6.247
    1AU     LIG  289  19.485  15.553   5.944
    1AU    AUSL  290  17.154  17.166   7.581
    1AU    AUSL  291  17.255  17.412   7.140
    1AU     AUL  292  16.912  17.243   7.294
    1AU       S  293  17.119  17.245   6.878
    1AU     LIG  294  16.684  17.110   6.804
    1AU     LIG  295  16.472  16.779   6.541
    1AU     LIG  296  16.303  16.452   6.244
    1AU     LIG  297  16.182  16.352   5.800
    1AU       S  298  16.740  17.222   7.739
    1AU     LIG  299  16.411  17.036   7.489
    1AU     LIG  300  15.981  16.845   7.449
    1AU     LIG  301  15.546  16.674   7.535
    1AU     LIG  302  15.132  16.434   7.486
    1AU    AUSL  303  17.238  17.563   7.767
    1AU    AUSL  304  17.497  17.182   7.844
    1AU     AUL  305  17.156  17.153   7.928
    1AU       S  306  17.230  16.956   8.342
    1AU     LIG  307  17.005  16.586   8.180
    1AU     LIG  308  16.697  16.207   8.210
    1AU     LIG  309  16.465  15.858   8.443
    1AU     LIG  310  16.158  15.794   8.790
    1AU       S  311  16.819  17.470   7.885
    1AU     LIG  312  16.283  17.410   7.840
    1AU     LIG  313  15.821  17.219   7.774
    1AU     LIG  314  15.330  17.089   7.766
    1AU     LIG  315  14.887  16.849   7.741
    1AU    AUSL  316  17.972  18.413   7.886
    1AU    AUSL  317  17.536  18.432   7.805
    1AU     AUL  318  17.773  18.489   8.178
    1AU       S  319  17.406  18.630   7.922
    1AU     LIG  320  17.032  18.794   8.179
    1AU     LIG  321  16.894  18.898   8.607
    1AU     LIG  322  16.617  19.150   8.877
    1AU     LIG  323  16.472  19.574   9.029
    1AU       S  324  17.972  18.823   7.929
    1AU     LIG  325  18.193  18.890   8.289
    1AU     LIG  326  18.296  19.302   8.452
    1AU     LIG  327  18.334  19.716   8.633
    1AU     LIG  328  18.273  20.027   8.967
    1AU    AUSL  329  17.807  18.632   7.532
    1AU    AUSL  330  18.095  18.556   7.171
    1AU     AUL  331  18.026  18.895   7.320
    1AU       S  332  17.818  18.869   7.750
    1AU     LIG  333  17.970  19.304   8.009
    1AU     LIG  334  18.141  19.722   8.147
    1AU     LIG  335  18.022  20.196   8.166
    1AU     LIG  336  17.736  20.587   8.014
    1AU       S  337  17.823  18.724   6.947
    1AU     LIG  338  18.245  18.981   6.892
    1AU     LIG  339  18.465  19.407   6.908
    1AU     LIG  340  18.555  19.864   6.824
    1AU     LIG  341  18.697  20.277   6.635
    1AU    AUSL  342  18.262  18.552   7.580
    1AU    AUSL  343  18.217  18.258   8.202
    1AU     AUL  344  18.323  18.519   7.965
    1AU       S  345  18.459  18.349   8.406
    1AU     LIG  346  18.806  18.312   8.738
    1AU     LIG  347  19.014  18.619   8.983
    1AU     LIG  348  19.218  19.014   9.145
    1AU     LIG  349  19.105  19.397   9.403
    1AU       S  350  18.189  18.908   7.754
    1AU     LIG  351  18.486  19.208   7.974
    1AU     LIG  352  18.657  19.588   8.203
    1AU     LIG  353  18.550  20.026   8.278
    1AU     LIG  354  18.799  20.398   8.253
    1AU    AUSL  355  17.875  16.957   7.926
    1AU    AUSL  356  18.285  16.967   7.749
    1AU     AUL  357  18.110  16.834   8.137
    1AU       S  358  17.840  16.486   7.996
    1AU     LIG  359  17.710  16.205   8.318
    1AU     LIG  360  17.631  15.751   8.348
    1AU     LIG  361  17.647  15.289   8.325
    1AU     LIG  362  17.776  14.859   8.417
    1AU       S  363  18.444  16.728   7.805
    1AU     LIG  364  18.548  16.315   8.079
    1AU     LIG  365  18.865  16.067   8.360
    1AU     LIG  366  19.110  15.745   8.621
    1AU     LIG  367  19.383  15.364   8.706
    1AU    AUSL  368  17.548  16.812   7.644
    1AU    AUSL  369  17.673  17.126   8.262
    1AU     AUL  370  17.535  16.848   8.012
    1AU       S  371  17.652  16.423   7.853
    1AU     LIG  372  17.479  15.995   7.903
    1AU     LIG  373  17.390  15.537   7.929
    1AU     LIG  374  17.349  15.084   7.967
    1AU     LIG  375  17.279  14.778   8.303
    1AU       S  376  17.483  17.006   8.459
    1AU     LIG  377  17.293  16.558   8.615
    1AU     LIG  378  16.866  16.329   8.679
    1AU     LIG  379  16.600  16.010   8.938
    1AU     LIG  380  16.308  15.847   9.287
    1AU    AUSL  381  17.986  16.697   7.593
    1AU    AUSL  382  17.729  16.831   7.244
    1AU     AUL  383  17.610  16.577   7.420
    1AU       S  384  17.961  16.543   7.122
    1AU     LIG  385  17.610  16.209   7.094
    1AU     LIG  386  17.459  15.752   7.085
    1AU     LIG  387  17.459  15.295   6.949
    1AU     LIG  388  17.284  14.869   6.825
    1AU       S  389  17.982  16.503   7.739
    1AU     LIG  390  17.978  16.025   7.781
    1AU     LIG  391  17.915  15.565   7.942
    1AU     LIG  392  18.086  15.125   8.081
    1AU     LIG  393  18.281  14.841   8.424
    1AU    AUSL  394  17.937  18.277   6.848
    1AU    AUSL  395  18.371  18.240   7.247
    1AU     AUL  396  18.229  18.466   6.866
    1AU       S  397  17.830  18.685   6.726
    1AU     LIG  398  17.907  19.123   6.549
    1AU     LIG  399  18.227  19.460   6.444
    1AU     LIG  400  18.288  19.856   6.196
    1AU     LIG  401  18.130  20.105   5.813
    1AU       S  402  18.597  18.480   7.143
    1AU     LIG  403  18.991  18.748   6.952
    1AU     LIG  404  19.232  18.907   6.558
    1AU     LIG  405  19.534  19.170   6.290
    1AU     LIG  406  20.008  19.267   6.214
    1AU    AUSL  407  17.737  18.319   7.251
    1AU    AUSL  408  17.634  17.987   6.952
    1AU     AUL  409  17.588  18.296   6.809
    1AU       S  410  17.640  18.690   7.080
    1AU     LIG  411  17.746  19.198   7.034
    1AU     LIG  412  17.973  19.595   6.867
    1AU     LIG  413  18.044  20.075   6.767
    1AU     LIG  414  17.900  20.561   6.817
    1AU       S  415  17.151  18.321   6.658
    1AU     LIG  416  17.151  18.505   6.234
    1AU     LIG  417  17.015  18.714   5.830
    1AU     LIG  418  16.847  19.033   5.518
    1AU     LIG  419  16.755  19.451   5.327
    1AU    AUSL  420  17.946  16.952   6.874
    1AU    AUSL  421  17.328  16.979   7.234
    1AU     AUL  422  17.581  16.820   6.939
    1AU       S  423  17.133  16.938   7.014
    1AU     LIG  424  16.859  16.604   6.836
    1AU     LIG  425  16.564  16.261   6.654
    1AU     LIG  426  16.400  15.916   6.347
    1AU     LIG  427  16.186  15.482   6.216
    1AU       S  428  17.978  16.536   6.889
    1AU     LIG  429  17.944  16.066   6.741
    1AU     LIG  430  17.713  15.636   6.634
    1AU     LIG  431  17.649  15.173   6.477
    1AU     LIG  432  17.753  14.832   6.147
    1AU    AUSL  433  18.121  16.989   7.307
    1AU    AUSL  434  18.225  17.269   6.962
    1AU     AUL  435  18.267  16.902   6.927
    1AU       S  436  18.195  16.547   7.209
    1AU     LIG  437  18.081  16.071   7.252
    1AU     LIG  438  17.959  15.629   7.086
    1AU     LIG  439  17.954  15.180   6.894
    1AU     LIG  440  18.184  14.800   6.729
    1AU       S  441  18.489  17.045   6.561
    1AU     LIG  442  18.354  16.614   6.493
    1AU     LIG  443  18.563  16.278   6.226
    1AU     LIG  444  18.858  16.000   5.968
    1AU     LIG  445  19.177  15.848   5.651
    2AU     AUC  446   6.330   3.916   7.499
    2AU     AUC  447   6.623   3.914   7.331
    2AU     AUC  448   6.587   3.906   7.670
    2AU     AUC  449   6.054   3.906   7.339
    2AU     AUC  450   6.069   3.957   7.681
    2AU     AUC  451   6.164   4.190   7.496
    2AU     AUC  452   6.511   4.181   7.485
    2AU     AUC  453   6.138   3.649   7.504
    2AU     AUC  454   6.494   3.643   7.506
    2AU     AUC  455   6.334   3.744   7.767
    2AU     AUC  456   6.324   4.112   7.750
    2AU     AUC  457   6.329   3.751   7.232
    2AU     AUC  458   6.360   4.065   7.228
    2AU     AUC  459   6.959   3.908   7.182
    2AU     AUC  460   6.948   3.895   7.520
    2AU     AUC  461   6.881   3.884   7.872
    2AU     AUC  462   5.738   3.912   7.178
    2AU     AUC  463   5.722   3.955   7.540
    2AU     AUC  464   5.781   4.002   7.869
    2AU     AUC  465   6.008   4.515   7.462
    2AU     AUC  466   6.362   4.536   7.434
    2AU     AUC  467   6.686   4.472   7.469
    2AU     AUC  468   5.938   3.369   7.505
    2AU     AUC  469   6.265   3.307   7.474
    2AU     AUC  470   6.655   3.320   7.486
    2AU     AUC  471   6.316   3.571   8.065
    2AU     AUC  472   6.331   3.932   8.098
    2AU     AUC  473   6.357   4.291   8.041
    2AU     AUC  474   6.359   3.582   6.948
    2AU     AUC  475   6.349   3.891   6.890
    2AU     AUC  476   6.353   4.210   6.921
    2AU     AUC  477   6.600   3.685   7.992
    2AU     AUC  478   6.628   4.070   7.990
    2AU     AUC  479   6.677   3.735   7.021
    2AU     AUC  480   6.679   4.083   7.033
    2AU     AUC  481   6.036   3.813   8.020
    2AU     AUC  482   6.058   4.187   7.982
    2AU     AUC  483   6.027   3.735   7.046
    2AU     AUC  484   6.010   4.041   6.999
    2AU     AUC  485   6.871   4.193   7.329
    2AU     AUC  486   6.799   4.178   7.692
    2AU     AUC  487   5.837   4.219   7.338
    2AU     AUC  488   5.872   4.292   7.681
    2AU     AUC  489   6.831   3.598   7.351
    2AU     AUC  490   6.785   3.572   7.680
    2AU     AUC  491   5.795   3.626   7.375
    2AU     AUC  492   5.858   3.680   7.723
    2AU     AUC  493   6.194   4.465   7.744
    2AU     AUC  494   6.520   4.407   7.760
    2AU     AUC  495   6.133   3.457   7.797
    2AU     AUC  496   6.450   3.393   7.770
    2AU     AUC  497   6.160   4.341   7.182
    2AU     AUC  498   6.546   4.364   7.159
    2AU     AUC  499   6.116   3.437   7.213
    2AU     AUC  500   6.505   3.463   7.214
    2AU    AUSL  501   6.868   3.814   8.241
    2AU    AUSL  502   6.596   3.392   8.157
    2AU     AUL  503   6.895   3.412   8.351
    2AU       S  504   6.960   3.048   8.085
    2AU     LIG  505   6.848   2.901   8.468
    2AU     LIG  506   7.031   2.568   8.701
    2AU     LIG  507   7.311   2.275   8.935
    2AU     LIG  508   7.502   2.262   9.364
    2AU       S  509   7.092   3.820   8.368
    2AU     LIG  510   6.949   3.832   8.814
    2AU     LIG  511   7.084   3.734   9.249
    2AU     LIG  512   7.374   3.575   9.589
    2AU     LIG  513   7.755   3.530   9.873
    2AU    AUSL  514   6.458   3.725   8.410
    2AU    AUSL  515   6.207   4.126   8.437
    2AU     AUL  516   6.393   4.024   8.743
    2AU       S  517   6.561   3.645   8.558
    2AU     LIG  518   6.487   3.587   8.979
    2AU     LIG  519   6.721   3.368   9.306
    2AU     LIG  520   6.965   3.256   9.684
    2AU     LIG  521   6.984   3.024  10.097
    2AU       S  522   5.978   3.863   8.637
    2AU     LIG  523   6.026   3.879   9.113
    2AU     LIG  524   5.733   3.921   9.482
    2AU     LIG  525   5.581   3.967   9.929
    2AU     LIG  526   5.541   4.163  10.352
    2AU    AUSL  527   6.523   4.097   8.153
    2AU    AUSL  528   6.964   4.224   8.116
    2AU     AUL  529   6.753   4.119   8.447
    2AU       S  530   6.439   4.484   8.612
    2AU     LIG  531   6.786   4.356   8.895
    2AU     LIG  532   7.020   4.566   9.260
    2AU     LIG  533   6.967   4.776   9.708
    2AU     LIG  534   6.961   4.897  10.181
    2AU       S  535   7.114   4.369   8.279
    2AU     LIG  536   7.542   4.419   8.306
    2AU     LIG  537   7.799   4.618   8.640
    2AU     LIG  538   8.020   4.842   8.992
    2AU     LIG  539   8.220   5.118   9.318
    2AU    AUSL  540   6.865   3.949   6.885
    2AU    AUSL  541   6.761   4.385   6.820
    2AU     AUL  542   7.037   4.206   6.619
    2AU       S  543   6.694   4.119   6.345
    2AU     LIG  544   7.127   4.131   6.088
    2AU     LIG  545   7.303   3.794   5.830
    2AU     LIG  546   7.363   3.661   5.405
    2AU     LIG  547   7.527   3.647   4.982
    2AU       S  548   7.084   4.628   6.838
    2AU     LIG  549   7.233   4.806   6.463
    2AU     LIG  550   7.380   4.991   6.066
    2AU     LIG  551   7.521   5.124   5.631
    2AU     LIG  552   7.730   5.311   5.238
    2AU    AUSL  553   6.654   3.700   6.583
    2AU    AUSL  554   7.074   3.572   6.929
    2AU     AUL  555   7.035   3.736   6.651
    2AU       S  556   7.138   3.278   6.702
    2AU     LIG  557   7.281   2.994   6.350
    2AU     LIG  558   7.570   2.638   6.269
    2AU     LIG  559   7.881   2.396   6.001
    2AU     LIG  560   8.146   2.220   5.640
    2AU       S  561   6.769   3.920   6.320
    2AU     LIG  562   6.854   3.609   6.015
    2AU     LIG  563   6.976   3.385   5.606
    2AU     LIG  564   7.073   3.319   5.136
    2AU     LIG  565   7.157   3.460   4.690
    2AU    AUSL  566   6.463   4.068   6.758
    2AU    AUSL  567   6.232   3.684   6.702
    2AU     AUL  568   6.372   3.731   6.432
    2AU       S  569   5.916   3.743   6.295
    2AU     LIG  570   5.963   3.430   6.006
    2AU     LIG  571   5.803   3.322   5.589
    2AU     LIG  572   5.567   3.314   5.178
    2AU     LIG  573   5.432   3.358   4.728
    2AU       S  574   6.545   4.184   6.439
    2AU     LIG  575   6.545   4.030   5.895
    2AU     LIG  576   6.872   3.890   5.545
    2AU     LIG  577   7.002   3.831   5.069
    2AU     LIG  578   6.898   3.898   4.594
    2AU    AUSL  579   5.801   4.082   8.254
    2AU    AUSL  580   6.117   4.421   8.128
    2AU     AUL  581   5.976   4.366   8.457
    2AU       S  582   5.793   3.991   8.685
    2AU     LIG  583   5.562   3.691   8.920
    2AU     LIG  584   5.319   3.650   9.320
    2AU     LIG  585   5.146   3.763   9.744
    2AU     LIG  586   4.893   3.813  10.136
    2AU       S  587   5.714   4.676   8.210
    2AU     LIG  588   5.880   4.926   8.533
    2AU     LIG  589   5.664   5.199   8.833
    2AU     LIG  590   5.414   5.222   9.231
    2AU     LIG  591   5.255   5.351   9.650
    2AU    AUSL  592   6.111   3.787   8.161
    2AU    AUSL  593   5.686   3.654   8.159
    2AU     AUL  594   5.600   3.885   8.280
    2AU       S  595   5.599   3.434   8.424
    2AU     LIG  596   5.154   3.300   8.252
    2AU     LIG  597   4.909   2.917   8.402
    2AU     LIG  598   4.665   2.614   8.687
    2AU     LIG  599   4.242   2.425   8.830
    2AU       S  600   5.989   3.728   8.554
    2AU     LIG  601   5.999   3.421   8.905
    2AU     LIG  602   5.802   3.429   9.316
    2AU     LIG  603   5.594   3.480   9.730
    2AU     LIG  604   5.387   3.511  10.147
    2AU    AUSL  605   5.825   3.825   6.780
    2AU    AUSL  606   6.014   3.457   6.993
    2AU     AUL  607   6.004   3.452   6.636
    2AU       S  608   5.686   3.722   6.429
    2AU     LIG  609   5.459   3.492   6.113
    2AU     LIG  610   5.339   3.529   5.654
    2AU     LIG  611   5.201   3.672   5.223
    2AU     LIG  612   4.823   3.869   5.023
    2AU       S  613   5.592   3.342   6.794
    2AU     LIG  614   5.615   2.993   6.550
    2AU     LIG  615   5.272   2.734   6.396
    2AU     LIG  616   4.918   2.484   6.223
    2AU     LIG  617   4.829   2.212   5.857
    2AU    AUSL  618   6.091   4.109   6.550
    2AU    AUSL  619   5.598   4.175   6.921
    2AU     AUL  620   5.731   4.148   6.596
    2AU       S  621   5.329   4.354   6.750
    2AU     LIG  622   5.146   4.621   6.393
    2AU     LIG  623   5.088   4.930   6.056
    2AU     LIG  624   4.796   5.011   5.686
    2AU     LIG  625   4.411   4.971   5.402
    2AU       S  626   5.993   3.967   6.250
    2AU     LIG  627   5.725   3.864   5.847
    2AU     LIG  628   5.694   3.790   5.387
    2AU     LIG  629   5.670   3.771   4.928
    2AU     LIG  630   5.850   3.862   4.499
    2AU    AUSL  631   7.115   4.426   7.519
    2AU    AUSL  632   7.110   4.233   7.100
    2AU     AUL  633   7.387   4.563   7.356
    2AU       S  634   7.204   4.407   6.985
    2AU     LIG  635   7.522   4.425   6.667
    2AU     LIG  636   7.703   4.640   6.297
    2AU     LIG  637   7.891   4.979   6.025
    2AU     LIG  638   8.040   5.050   5.580
    2AU       S  639   7.511   4.309   7.734
    2AU     LIG  640   7.944   4.493   7.636
    2AU     LIG  641   8.414   4.610   7.634
    2AU     LIG  642   8.769   4.821   7.872
    2AU     LIG  643   9.184   5.020   7.784
    2AU    AUSL  644   7.326   4.017   7.408
    2AU    AUSL  645   7.261   3.689   7.728
    2AU     AUL  646   7.619   3.799   7.742
    2AU       S  647   7.471   4.116   7.457
    2AU     LIG  648   7.957   4.026   7.436
    2AU     LIG  649   8.431   4.171   7.319
    2AU     LIG  650   8.818   4.340   7.063
    2AU     LIG  651   9.258   4.579   7.021
    2AU       S  652   7.519   3.395   7.552
    2AU     LIG  653   7.918   3.357   7.789
    2AU     LIG  654   8.350   3.157   7.729
    2AU     LIG  655   8.827   3.131   7.742
    2AU     LIG  656   9.279   3.025   7.949
    2AU    AUSL  657   7.024   4.049   7.732
    2AU    AUSL  658   6.767   4.438   7.780
    2AU     AUL  659   7.094   4.499   7.825
    2AU       S  660   7.086   4.673   8.249
    2AU     LIG  661   7.426   4.917   8.427
    2AU     LIG  662   7.734   5.144   8.683
    2AU     LIG  663   8.062   5.376   8.898
    2AU     LIG  664   8.436   5.659   8.847
    2AU       S  665   7.362   4.139   7.882
    2AU     LIG  666   7.874   4.128   8.004
    2AU     LIG  667   8.318   4.118   7.821
    2AU     LIG  668   8.773   4.243   7.722
    2AU     LIG  669   9.165   4.454   7.865
    2AU    AUSL  670   5.682   4.516   7.503
    2AU    AUSL  671   5.765   4.298   7.888
    2AU     AUL  672   5.462   4.629   7.744
    2AU       S  673   5.604   4.483   8.157
    2AU     LIG  674   5.520   4.491   8.633
    2AU     LIG  675   5.339   4.765   8.982
    2AU     LIG  676   5.016   4.877   9.333
    2AU     LIG  677   4.574   4.974   9.498
    2AU       S  678   5.697   4.893   7.423
    2AU     LIG  679   5.229   4.926   7.350
    2AU     LIG  680   4.815   5.224   7.379
    2AU     LIG  681   4.424   5.555   7.371
    2AU     LIG  682   3.937   5.620   7.340
    2AU    AUSL  683   5.641   4.107   7.336
    2AU    AUSL  684   5.762   4.559   7.082
    2AU     AUL  685   5.461   4.452   7.197
    2AU       S  686   5.234   3.907   6.988
    2AU     LIG  687   4.891   4.245   7.092
    2AU     LIG  688   4.423   4.387   7.201
    2AU     LIG  689   4.018   4.674   7.155
    2AU     LIG  690   3.561   4.816   7.005
    2AU       S  691   5.600   4.806   6.902
    2AU     LIG  692   5.355   5.062   6.584
    2AU     LIG  693   5.177   5.392   6.303
    2AU     LIG  694   4.954   5.818   6.286
    2AU     LIG  695   4.948   6.261   6.145
    2AU    AUSL  696   5.400   4.174   7.708
    2AU    AUSL  697   5.357   3.795   7.426
    2AU     AUL  698   5.245   4.110   7.421
    2AU       S  699   5.162   3.725   7.699
    2AU     LIG  700   4.856   3.798   7.353
    2AU     LIG  701   4.421   3.671   7.280
    2AU     LIG  702   4.012   3.410   7.232
    2AU     LIG  703   3.540   3.395   7.168
    2AU       S  704   5.280   4.198   7.921
    2AU     LIG  705   4.846   4.151   7.733
    2AU     LIG  706   4.394   4.328   7.720
    2AU     LIG  707   4.009   4.582   7.882
    2AU     LIG  708   3.619   4.702   8.171
    2AU    AUSL  709   7.051   3.330   7.559
    2AU    AUSL  710   6.863   3.597   7.874
    2AU     AUL  711   7.192   3.498   7.952
    2AU       S  712   7.356   3.223   7.585
    2AU     LIG  713   7.707   2.923   7.574
    2AU     LIG  714   8.128   2.762   7.483
    2AU     LIG  715   8.592   2.688   7.565
    2AU     LIG  716   9.019   2.463   7.478
    2AU       S  717   7.073   3.060   7.969
    2AU     LIG  718   7.354   2.877   8.329
    2AU     LIG  719   7.546   2.659   8.678
    2AU     LIG  720   7.810   2.463   8.997
    2AU     LIG  721   8.160   2.485   9.309
    2AU    AUSL  722   7.037   3.710   7.332
    2AU    AUSL  723   6.912   3.222   7.160
    2AU     AUL  724   7.187   3.367   7.177
    2AU       S  725   7.546   3.575   7.341
    2AU     LIG  726   7.984   3.287   7.295
    2AU     LIG  727   8.443   3.076   7.223
    2AU     LIG  728   8.832   2.804   7.127
    2AU     LIG  729   9.295   2.773   7.068
    2AU       S  730   7.114   3.053   6.828
    2AU     LIG  731   7.216   2.619   6.708
    2AU     LIG  732   7.365   2.225   6.498
    2AU     LIG  733   7.693   1.990   6.253
    2AU     LIG  734   8.113   1.878   6.049
    2AU    AUSL  735   5.552   3.424   7.583
    2AU    AUSL  736   5.658   3.667   7.147
    2AU     AUL  737   5.315   3.506   7.295
    2AU       S  738   5.504   3.492   6.869
    2AU     LIG  739   5.154   3.245   6.585
    2AU     LIG  740   4.793   2.919   6.492
    2AU     LIG  741   4.418   2.666   6.286
    2AU     LIG  742   4.178   2.462   5.921
    2AU       S  743   5.141   3.479   7.739
    2AU     LIG  744   4.861   3.303   7.438
    2AU     LIG  745   4.440   3.157   7.388
    2AU     LIG  746   4.102   2.967   7.629
    2AU     LIG  747   3.868   2.553   7.679
    2AU    AUSL  748   5.639   3.821   7.768
    2AU    AUSL  749   5.895   3.435   7.846
    2AU     AUL  750   5.554   3.413   7.931
    2AU       S  751   5.628   3.218   8.346
    2AU     LIG  752   5.441   2.862   8.151
    2AU     LIG  753   5.144   2.497   8.205
    2AU     LIG  754   4.887   2.192   8.471
    2AU     LIG  755   4.697   1.749   8.566
    2AU       S  756   5.214   3.728   7.883
    2AU     LIG  757   4.676   3.650   7.808
    2AU     LIG  758   4.213   3.489   7.715
    2AU     LIG  759   3.742   3.354   7.663
    2AU     LIG  760   3.376   3.314   7.928
    2AU    AUSL  761   6.380   4.662   7.881
    2AU    AUSL  762   5.943   4.690   7.807
    2AU     AUL  763   6.179   4.744   8.165
    2AU       S  764   5.799   4.910   7.940
    2AU     LIG  765   5.508   5.144   8.254
    2AU     LIG  766   5.417   5.547   8.496
    2AU     LIG  767   5.289   5.994   8.627
    2AU     LIG  768   4.913   6.308   8.711
    2AU       S  769   6.378   5.087   7.925
    2AU     LIG  770   6.393   5.156   8.332
    2AU     LIG  771   6.383   5.569   8.453
    2AU     LIG  772   6.303   5.944   8.678
    2AU     LIG  773   6.202   6.225   9.026
    2AU    AUSL  774   6.215   4.883   7.529
    2AU    AUSL  775   6.506   4.802   7.167
    2AU     AUL  776   6.434   5.146   7.313
    2AU       S  777   6.220   5.111   7.744
    2AU     LIG  778   6.302   5.587   7.910
    2AU     LIG  779   6.162   5.974   8.163
    2AU     LIG  780   6.051   6.466   8.180
    2AU     LIG  781   6.021   6.928   7.966
    2AU       S  782   6.223   4.963   6.950
    2AU     LIG  783   6.616   5.222   6.862
    2AU     LIG  784   6.657   5.667   6.814
    2AU     LIG  785   6.647   6.122   6.684
    2AU     LIG  786   6.580   6.596   6.736
    2AU    AUSL  787   6.670   4.802   7.577
    2AU    AUSL  788   6.625   4.510   8.199
    2AU     AUL  789   6.726   4.772   7.965
    2AU       S  790   6.869   4.600   8.405
    2AU     LIG  791   7.227   4.560   8.734
    2AU     LIG  792   7.480   4.828   9.000
    2AU     LIG  793   7.701   5.160   9.246
    2AU     LIG  794   7.865   5.239   9.690
    2AU       S  795   6.584   5.158   7.752
    2AU     LIG  796   6.753   5.432   8.084
    2AU     LIG  797   6.678   5.888   8.188
    2AU     LIG  798   6.558   6.349   8.161
    2AU     LIG  799   6.561   6.833   8.045
    2AU    AUSL  800   6.270   3.208   7.929
    2AU    AUSL  801   6.682   3.214   7.754
    2AU     AUL  802   6.502   3.083   8.140
    2AU       S  803   6.229   2.736   7.997
    2AU     LIG  804   6.080   2.476   8.331
    2AU     LIG  805   5.977   2.031   8.402
    2AU     LIG  806   5.996   1.570   8.415
    2AU     LIG  807   6.118   1.131   8.507
    2AU       S  808   6.842   2.968   7.814
    2AU     LIG  809   7.011   2.557   8.101
    2AU     LIG  810   7.315   2.281   8.387
    2AU     LIG  811   7.456   1.857   8.609
    2AU     LIG  812   7.656   1.404   8.640
    2AU    AUSL  813   5.944   3.065   7.646
    2AU    AUSL  814   6.070   3.379   8.264
    2AU     AUL  815   5.930   3.102   8.014
    2AU       S  816   6.034   2.671   7.856
    2AU     LIG  817   5.864   2.220   7.930
    2AU     LIG  818   5.739   1.746   8.003
    2AU     LIG  819   5.741   1.254   8.070
    2AU     LIG  820   5.709   0.873   8.350
    2AU       S  821   5.870   3.260   8.461
    2AU     LIG  822   5.617   2.843   8.648
    2AU     LIG  823   5.202   2.600   8.705
    2AU     LIG  824   4.979   2.290   8.981
    2AU     LIG  825   5.059   2.055   9.393
    2AU    AUSL  826   6.382   2.945   7.596
    2AU    AUSL  827   6.125   3.083   7.246
    2AU     AUL  828   6.008   2.827   7.422
    2AU       S  829   6.352   2.795   7.117
    2AU     LIG  830   5.970   2.537   7.025
    2AU     LIG  831   5.902   2.085   7.078
    2AU     LIG  832   5.886   1.623   6.956
    2AU     LIG  833   5.878   1.177   6.790
    2AU       S  834   6.373   2.751   7.746
    2AU     LIG  835   6.359   2.270   7.797
    2AU     LIG  836   6.247   1.828   7.991
    2AU     LIG  837   6.280   1.331   8.048
    2AU     LIG  838   6.538   0.959   8.256
    2AU    AUSL  839   6.344   4.523   6.846
    2AU    AUSL  840   6.783   4.487   7.246
    2AU     AUL  841   6.634   4.713   6.865
    2AU       S  842   6.233   4.930   6.717
    2AU     LIG  843   6.277   5.362   6.496
    2AU     LIG  844   6.448   5.772   6.342
    2AU     LIG  845   6.408   6.187   6.132
    2AU     LIG  846   6.379   6.449   5.728
    2AU       S  847   7.011   4.718   7.132
    2AU     LIG  848   7.467   4.901   6.933
    2AU     LIG  849   7.686   5.098   6.532
    2AU     LIG  850   8.048   5.390   6.358
    2AU     LIG  851   8.410   5.743   6.390
    2AU    AUSL  852   6.148   4.566   7.251
    2AU    AUSL  853   6.040   4.236   6.954
    2AU     AUL  854   5.996   4.542   6.808
    2AU       S  855   6.053   4.942   7.074
    2AU     LIG  856   6.150   5.443   6.977
    2AU     LIG  857   6.188   5.870   6.777
    2AU     LIG  858   6.181   6.306   6.580
    2AU     LIG  859   6.059   6.738   6.761
    2AU       S  860   5.558   4.579   6.666
    2AU     LIG  861   5.657   4.782   6.284
    2AU     LIG  862   5.559   5.150   6.015
    2AU     LIG  863   5.517   5.363   5.589
    2AU     LIG  864   5.278   5.622   5.268
    2AU    AUSL  865   6.346   3.205   6.877
    2AU    AUSL  866   5.725   3.232   7.238
    2AU     AUL  867   5.974   3.072   6.942
    2AU       S  868   5.528   3.193   7.020
    2AU     LIG  869   5.242   2.852   6.905
    2AU     LIG  870   4.960   2.502   6.749
    2AU     LIG  871   4.572   2.286   6.588
    2AU     LIG  872   4.192   2.156   6.344
    2AU       S  873   6.373   2.805   6.873
    2AU     LIG  874   6.367   2.369   6.742
    2AU     LIG  875   6.161   1.964   6.648
    2AU     LIG  876   6.177   1.518   6.537
    2AU     LIG  877   6.065   1.244   6.182
    2AU    AUSL  878   6.520   3.235   7.309
    2AU    AUSL  879   6.629   3.517   6.967
    2AU     AUL  880   6.675   3.150   6.938
    2AU       S  881   6.568   2.787   7.201
    2AU     LIG  882   6.385   2.309   7.255
    2AU     LIG  883   6.348   1.820   7.111
    2AU     LIG  884   6.332   1.321   7.019
    2AU     LIG  885   6.599   0.949   6.839
    2AU       S  886   6.894   3.285   6.568
    2AU     LIG  887   6.793   2.845   6.494
    2AU     LIG  888   7.037   2.533   6.229
    2AU     LIG  889   7.350   2.283   5.972
    2AU     LIG  890   7.618   2.208   5.593
    3AU     AUC  891   4.065  14.167   7.498
    3AU     AUC  892   4.358  14.169   7.330
    3AU     AUC  893   4.322  14.158   7.668
    3AU     AUC  894   3.789  14.156   7.337
    3AU     AUC  895   3.807  14.203   7.679
    3AU     AUC  896   3.897  14.442   7.495
    3AU     AUC  897   4.244  14.434   7.487
    3AU     AUC  898   3.876  13.898   7.498
    3AU     AUC  899   4.230  13.895   7.503
    3AU     AUC  900   4.070  13.992   7.764
    3AU     AUC  901   4.058  14.362   7.751
    3AU     AUC  902   4.067  14.004   7.229
    3AU     AUC  903   4.093  14.319   7.228
    3AU     AUC  904   4.695  14.168   7.181
    3AU     AUC  905   4.681  14.149   7.517
    3AU     AUC  906   4.614  14.135   7.870
    3AU     AUC  907   3.476  14.158   7.176
    3AU     AUC  908   3.458  14.197   7.538
    3AU     AUC  909   3.519  14.243   7.867
    3AU     AUC  910   3.737  14.761   7.464
    3AU     AUC  911   4.092  14.787   7.437
    3AU     AUC  912   4.419  14.726   7.473
    3AU     AUC  913   3.678  13.618   7.497
    3AU     AUC  914   4.004  13.558   7.470
    3AU     AUC  915   4.392  13.572   7.479
    3AU     AUC  916   4.052  13.817   8.062
    3AU     AUC  917   4.066  14.180   8.098
    3AU     AUC  918   4.090  14.540   8.044
    3AU     AUC  919   4.100  13.839   6.943
    3AU     AUC  920   4.087  14.147   6.888
    3AU     AUC  921   4.086  14.466   6.923
    3AU     AUC  922   4.335  13.935   7.989
    3AU     AUC  923   4.362  14.320   7.990
    3AU     AUC  924   4.415  13.993   7.019
    3AU     AUC  925   4.415  14.342   7.035
    3AU     AUC  926   3.773  14.059   8.018
    3AU     AUC  927   3.793  14.434   7.983
    3AU     AUC  928   3.768  13.987   7.039
    3AU     AUC  929   3.747  14.290   6.997
    3AU     AUC  930   4.607  14.452   7.330
    3AU     AUC  931   4.533  14.432   7.693
    3AU     AUC  932   3.571  14.463   7.338
    3AU     AUC  933   3.606  14.537   7.682
    3AU     AUC  934   4.567  13.853   7.346
    3AU     AUC  935   4.520  13.824   7.676
    3AU     AUC  936   3.534  13.872   7.367
    3AU     AUC  937   3.598  13.923   7.719
    3AU     AUC  938   3.927  14.714   7.746
    3AU     AUC  939   4.253  14.657   7.763
    3AU     AUC  940   3.873  13.702   7.793
    3AU     AUC  941   4.185  13.640   7.765
    3AU     AUC  942   3.890  14.593   7.182
    3AU     AUC  943   4.275  14.618   7.165
    3AU     AUC  944   3.856  13.689   7.206
    3AU     AUC  945   4.245  13.717   7.209
    3AU    AUSL  946   4.603  14.060   8.239
    3AU    AUSL  947   4.325  13.645   8.148
    3AU     AUL  948   4.629  13.653   8.329
    3AU       S  949   4.698  13.279   8.072
    3AU     LIG  950   4.616  13.019   8.383
    3AU     LIG  951   4.813  12.885   8.761
    3AU     LIG  952   5.079  12.615   9.012
    3AU     LIG  953   5.369  12.278   9.148
    3AU       S  954   4.824  14.060   8.397
    3AU     LIG  955   4.678  14.087   8.846
    3AU     LIG  956   4.843  14.070   9.282
    3AU     LIG  957   5.185  13.938   9.575
    3AU     LIG  958   5.455  13.855   9.946
    3AU    AUSL  959   4.193  13.971   8.411
    3AU    AUSL  960   3.940  14.370   8.437
    3AU     AUL  961   4.126  14.263   8.738
    3AU       S  962   4.316  13.884   8.570
    3AU     LIG  963   4.196  13.831   8.972
    3AU     LIG  964   4.430  13.763   9.340
    3AU     LIG  965   4.725  13.741   9.692
    3AU     LIG  966   4.869  13.711  10.133
    3AU       S  967   3.711  14.100   8.634
    3AU     LIG  968   3.761  14.111   9.111
    3AU     LIG  969   3.456  14.126   9.461
    3AU     LIG  970   3.168  14.173   9.826
    3AU     LIG  971   3.087  14.361  10.246
    3AU    AUSL  972   4.258  14.346   8.154
    3AU    AUSL  973   4.698  14.471   8.118
    3AU     AUL  974   4.487  14.366   8.447
    3AU       S  975   4.173  14.726   8.616
    3AU     LIG  976   4.514  14.578   8.902
    3AU     LIG  977   4.703  14.566   9.334
    3AU     LIG  978   4.664  14.633   9.809
    3AU     LIG  979   4.574  14.783  10.254
    3AU       S  980   4.849  14.615   8.283
    3AU     LIG  981   5.278  14.659   8.312
    3AU     LIG  982   5.554  14.856   8.635
    3AU     LIG  983   5.753  15.090   9.003
    3AU     LIG  984   5.835  15.292   9.426
    3AU    AUSL  985   4.605  14.213   6.893
    3AU    AUSL  986   4.492  14.645   6.827
    3AU     AUL  987   4.797  14.468   6.637
    3AU       S  988   4.443  14.408   6.367
    3AU     LIG  989   4.799  14.482   6.040
    3AU     LIG  990   4.987  14.192   5.742
    3AU     LIG  991   5.150  13.968   5.373
    3AU     LIG  992   5.442  13.955   5.015
    3AU       S  993   4.811  14.915   6.809
    3AU     LIG  994   4.954  15.118   6.444
    3AU     LIG  995   5.125  15.325   6.062
    3AU     LIG  996   5.335  15.499   5.675
    3AU     LIG  997   5.640  15.639   5.340
    3AU    AUSL  998   4.403  13.969   6.582
    3AU    AUSL  999   4.811  13.832   6.922
    3AU     AUL 1000   4.775  14.000   6.650
    3AU       S 1001   4.874  13.540   6.692
    3AU     LIG 1002   5.101  13.311   6.378
    3AU     LIG 1003   5.262  12.929   6.213
    3AU     LIG 1004   5.587  12.708   5.979
    3AU     LIG 1005   5.991  12.714   5.720
    3AU       S 1006   4.518  14.214   6.328
    3AU     LIG 1007   4.612  13.920   6.024
    3AU     LIG 1008   4.696  13.795   5.570
    3AU     LIG 1009   4.745  13.762   5.101
    3AU     LIG 1010   4.814  13.442   4.755
    3AU    AUSL 1011   4.200  14.325   6.763
    3AU    AUSL 1012   3.979  13.936   6.692
    3AU     AUL 1013   4.129  13.996   6.428
    3AU       S 1014   3.678  13.991   6.281
    3AU     LIG 1015   3.629  13.644   6.027
    3AU     LIG 1016   3.502  13.638   5.587
    3AU     LIG 1017   3.235  13.622   5.201
    3AU     LIG 1018   3.232  13.602   4.715
    3AU       S 1019   4.281  14.452   6.452
    3AU     LIG 1020   4.164  14.271   5.987
    3AU     LIG 1021   4.473  14.255   5.650
    3AU     LIG 1022   4.735  14.266   5.275
    3AU     LIG 1023   4.798  14.515   4.888
    3AU    AUSL 1024   3.535  14.325   8.253
    3AU    AUSL 1025   3.845  14.671   8.136
    3AU     AUL 1026   3.709  14.602   8.467
    3AU       S 1027   3.527  14.219   8.684
    3AU     LIG 1028   3.289  13.933   8.927
    3AU     LIG 1029   3.039  13.860   9.316
    3AU     LIG 1030   2.838  13.797   9.717
    3AU     LIG 1031   2.762  13.966  10.136
    3AU       S 1032   3.451  14.899   8.211
    3AU     LIG 1033   3.595  15.094   8.571
    3AU     LIG 1034   3.333  15.282   8.895
    3AU     LIG 1035   3.011  15.509   9.159
    3AU     LIG 1036   2.729  15.637   9.508
    3AU    AUSL 1037   3.848  14.033   8.159
    3AU    AUSL 1038   3.424  13.896   8.155
    3AU     AUL 1039   3.335  14.126   8.276
    3AU       S 1040   3.343  13.675   8.420
    3AU     LIG 1041   2.899  13.555   8.237
    3AU     LIG 1042   2.663  13.171   8.373
    3AU     LIG 1043   2.450  12.946   8.730
    3AU     LIG 1044   2.225  12.627   8.993
    3AU       S 1045   3.726  13.969   8.552
    3AU     LIG 1046   3.716  13.655   8.903
    3AU     LIG 1047   3.513  13.635   9.306
    3AU     LIG 1048   3.335  13.682   9.733
    3AU     LIG 1049   3.110  13.581  10.136
    3AU    AUSL 1050   3.571  14.072   6.769
    3AU    AUSL 1051   3.758  13.714   6.986
    3AU     AUL 1052   3.756  13.703   6.625
    3AU       S 1053   3.440  13.970   6.413
    3AU     LIG 1054   3.148  13.762   6.158
    3AU     LIG 1055   3.026  13.784   5.711
    3AU     LIG 1056   2.814  13.913   5.315
    3AU     LIG 1057   2.413  14.092   5.127
    3AU       S 1058   3.339  13.609   6.777
    3AU     LIG 1059   3.386  13.375   6.430
    3AU     LIG 1060   3.106  13.040   6.294
    3AU     LIG 1061   2.783  12.837   6.036
    3AU     LIG 1062   2.609  12.694   5.624
    3AU    AUSL 1063   3.832  14.364   6.547
    3AU    AUSL 1064   3.333  14.407   6.922
    3AU     AUL 1065   3.470  14.393   6.592
    3AU       S 1066   3.070  14.585   6.750
    3AU     LIG 1067   2.751  14.795   6.552
    3AU     LIG 1068   2.706  15.002   6.156
    3AU     LIG 1069   2.559  15.284   5.829
    3AU     LIG 1070   2.329  15.317   5.432
    3AU       S 1071   3.733  14.216   6.248
    3AU     LIG 1072   3.434  14.103   5.863
    3AU     LIG 1073   3.307  14.098   5.408
    3AU     LIG 1074   3.275  14.080   4.936
    3AU     LIG 1075   3.375  14.214   4.483
    3AU    AUSL 1076   4.852  14.685   7.524
    3AU    AUSL 1077   4.850  14.506   7.098
    3AU     AUL 1078   5.132  14.785   7.326
    3AU       S 1079   4.913  14.804   6.939
    3AU     LIG 1080   5.257  14.745   6.644
    3AU     LIG 1081   5.393  14.907   6.236
    3AU     LIG 1082   5.634  15.237   6.017
    3AU     LIG 1083   5.872  15.585   5.812
    3AU       S 1084   5.241  14.563   7.729
    3AU     LIG 1085   5.644  14.782   7.615
    3AU     LIG 1086   6.094  14.944   7.540
    3AU     LIG 1087   6.507  15.148   7.500
    3AU     LIG 1088   6.812  15.453   7.646
    3AU    AUSL 1089   5.056  14.274   7.403
    3AU    AUSL 1090   4.994  13.943   7.722
    3AU     AUL 1091   5.355  14.047   7.743
    3AU       S 1092   5.182  14.350   7.462
    3AU     LIG 1093   5.652  14.309   7.433
    3AU     LIG 1094   6.096  14.483   7.316
    3AU     LIG 1095   6.550  14.677   7.290
    3AU     LIG 1096   6.988  14.774   7.101
    3AU       S 1097   5.246  13.649   7.542
    3AU     LIG 1098   5.643  13.553   7.724
    3AU     LIG 1099   6.052  13.312   7.737
    3AU     LIG 1100   6.413  13.082   7.939
    3AU     LIG 1101   6.865  13.151   8.042
    3AU    AUSL 1102   4.757  14.303   7.731
    3AU    AUSL 1103   4.502  14.689   7.783
    3AU     AUL 1104   4.828  14.751   7.831
    3AU       S 1105   4.819  14.920   8.257
    3AU     LIG 1106   5.165  15.153   8.440
    3AU     LIG 1107   5.504  15.384   8.654
    3AU     LIG 1108   5.730  15.752   8.841
    3AU     LIG 1109   5.914  16.198   8.755
    3AU       S 1110   5.096  14.388   7.880
    3AU     LIG 1111   5.613  14.399   7.988
    3AU     LIG 1112   6.051  14.514   7.829
    3AU     LIG 1113   6.505  14.708   7.804
    3AU     LIG 1114   6.903  14.821   8.053
    3AU    AUSL 1115   3.409  14.762   7.507
    3AU    AUSL 1116   3.508  14.536   7.883
    3AU     AUL 1117   3.192  14.863   7.755
    3AU       S 1118   3.332  14.728   8.174
    3AU     LIG 1119   3.128  14.859   8.591
    3AU     LIG 1120   2.849  15.099   8.877
    3AU     LIG 1121   2.588  15.202   9.251
    3AU     LIG 1122   2.244  15.436   9.479
    3AU       S 1123   3.415  15.129   7.426
    3AU     LIG 1124   2.950  15.090   7.306
    3AU     LIG 1125   2.496  15.222   7.224
    3AU     LIG 1126   2.181  15.600   7.210
    3AU     LIG 1127   1.757  15.759   7.312
    3AU    AUSL 1128   3.369  14.353   7.341
    3AU    AUSL 1129   3.484  14.797   7.084
    3AU     AUL 1130   3.187  14.679   7.197
    3AU       S 1131   2.944  14.178   7.007
    3AU     LIG 1132   2.681  14.604   7.095
    3AU     LIG 1133   2.196  14.761   7.098
    3AU     LIG 1134   1.741  14.949   6.998
    3AU     LIG 1135   1.353  15.186   6.831
    3AU       S 1136   3.316  15.042   6.908
    3AU     LIG 1137   2.992  15.248   6.609
    3AU     LIG 1138   2.790  15.509   6.252
    3AU     LIG 1139   2.536  15.903   6.108
    3AU     LIG 1140   2.432  16.369   6.195
    3AU    AUSL 1141   3.135  14.410   7.721
    3AU    AUSL 1142   3.095  14.032   7.423
    3AU     AUL 1143   2.974  14.351   7.446
    3AU       S 1144   2.901  13.952   7.697
    3AU     LIG 1145   2.588  13.904   7.345
    3AU     LIG 1146   2.114  13.830   7.331
    3AU     LIG 1147   1.676  13.580   7.255
    3AU     LIG 1148   1.263  13.468   7.009
    3AU       S 1149   3.034  14.423   7.945
    3AU     LIG 1150   2.623  14.591   7.961
    3AU     LIG 1151   2.226  14.774   7.803
    3AU     LIG 1152   1.786  14.769   7.966
    3AU     LIG 1153   1.363  14.929   8.099
    3AU    AUSL 1154   4.783  13.584   7.552
    3AU    AUSL 1155   4.597  13.849   7.869
    3AU     AUL 1156   4.932  13.760   7.946
    3AU       S 1157   5.064  13.483   7.575
    3AU     LIG 1158   5.268  13.170   7.763
    3AU     LIG 1159   5.641  13.062   7.534
    3AU     LIG 1160   6.034  12.857   7.500
    3AU     LIG 1161   6.397  12.605   7.450
    3AU       S 1162   4.806  13.327   7.970
    3AU     LIG 1163   5.128  13.140   8.278
    3AU     LIG 1164   5.319  12.924   8.650
    3AU     LIG 1165   5.596  12.696   8.943
    3AU     LIG 1166   5.960  12.597   9.222
    3AU    AUSL 1167   4.771  13.964   7.326
    3AU    AUSL 1168   4.651  13.478   7.149
    3AU     AUL 1169   4.919  13.623   7.163
    3AU       S 1170   5.268  13.837   7.336
    3AU     LIG 1171   5.604  13.490   7.216
    3AU     LIG 1172   6.075  13.336   7.207
    3AU     LIG 1173   6.554  13.320   6.988
    3AU     LIG 1174   6.888  13.071   6.731
    3AU       S 1175   4.853  13.304   6.819
    3AU     LIG 1176   4.980  12.883   6.658
    3AU     LIG 1177   5.120  12.480   6.434
    3AU     LIG 1178   5.315  12.047   6.358
    3AU     LIG 1179   5.685  11.754   6.329
    3AU    AUSL 1180   3.297  13.662   7.576
    3AU    AUSL 1181   3.397  13.922   7.137
    3AU     AUL 1182   3.058  13.746   7.288
    3AU       S 1183   3.229  13.766   6.856
    3AU     LIG 1184   2.903  13.515   6.567
    3AU     LIG 1185   2.620  13.161   6.425
    3AU     LIG 1186   2.294  12.977   6.136
    3AU     LIG 1187   2.113  12.773   5.754
    3AU       S 1188   2.875  13.704   7.728
    3AU     LIG 1189   2.487  13.481   7.613
    3AU     LIG 1190   2.038  13.372   7.568
    3AU     LIG 1191   1.674  13.094   7.615
    3AU     LIG 1192   1.291  12.982   7.887
    3AU    AUSL 1193   3.380  14.059   7.762
    3AU    AUSL 1194   3.638  13.680   7.841
    3AU     AUL 1195   3.291  13.658   7.926
    3AU       S 1196   3.369  13.467   8.347
    3AU     LIG 1197   3.199  13.128   8.110
    3AU     LIG 1198   2.916  12.764   8.163
    3AU     LIG 1199   2.611  12.546   8.451
    3AU     LIG 1200   2.434  12.218   8.747
    3AU       S 1201   2.946  13.963   7.877
    3AU     LIG 1202   2.423  13.938   7.843
    3AU     LIG 1203   1.946  13.821   7.815
    3AU     LIG 1204   1.519  13.605   7.745
    3AU     LIG 1205   1.052  13.526   7.815
    3AU    AUSL 1206   4.111  14.906   7.885
    3AU    AUSL 1207   3.673  14.934   7.810
    3AU     AUL 1208   3.912  14.993   8.172
    3AU       S 1209   3.523  15.147   7.951
    3AU     LIG 1210   3.202  15.314   8.312
    3AU     LIG 1211   2.979  15.578   8.645
    3AU     LIG 1212   2.866  16.025   8.820
    3AU     LIG 1213   2.795  16.529   8.801
    3AU       S 1214   4.113  15.328   7.925
    3AU     LIG 1215   4.225  15.388   8.322
    3AU     LIG 1216   4.272  15.818   8.494
    3AU     LIG 1217   4.317  16.259   8.657
    3AU     LIG 1218   4.257  16.689   8.834
    3AU    AUSL 1219   3.944  15.129   7.534
    3AU    AUSL 1220   4.233  15.052   7.175
    3AU     AUL 1221   4.161  15.393   7.320
    3AU       S 1222   3.944  15.358   7.747
    3AU     LIG 1223   4.024  15.800   8.005
    3AU     LIG 1224   4.070  16.224   8.206
    3AU     LIG 1225   3.988  16.653   8.392
    3AU     LIG 1226   3.863  17.118   8.394
    3AU       S 1227   3.953  15.220   6.950
    3AU     LIG 1228   4.368  15.479   6.885
    3AU     LIG 1229   4.498  15.927   6.802
    3AU     LIG 1230   4.454  16.383   6.623
    3AU     LIG 1231   4.415  16.878   6.593
    3AU    AUSL 1232   4.400  15.054   7.584
    3AU    AUSL 1233   4.358  14.758   8.202
    3AU     AUL 1234   4.460  15.020   7.971
    3AU       S 1235   4.602  14.846   8.410
    3AU     LIG 1236   4.955  14.793   8.741
    3AU     LIG 1237   5.230  15.073   8.978
    3AU     LIG 1238   5.415  15.457   9.162
    3AU     LIG 1239   5.512  15.706   9.540
    3AU       S 1240   4.315  15.405   7.758
    3AU     LIG 1241   4.530  15.698   8.044
    3AU     LIG 1242   4.577  16.140   8.213
    3AU     LIG 1243   4.500  16.607   8.313
    3AU     LIG 1244   4.609  17.064   8.437
    3AU    AUSL 1245   4.006  13.441   7.926
    3AU    AUSL 1246   4.416  13.465   7.749
    3AU     AUL 1247   4.246  13.332   8.139
    3AU       S 1248   3.966  12.996   7.989
    3AU     LIG 1249   3.856  12.796   8.355
    3AU     LIG 1250   3.821  12.342   8.420
    3AU     LIG 1251   3.883  11.872   8.506
    3AU     LIG 1252   4.036  11.420   8.612
    3AU       S 1253   4.578  13.221   7.797
    3AU     LIG 1254   4.840  12.823   7.944
    3AU     LIG 1255   5.010  12.637   8.345
    3AU     LIG 1256   5.315  12.393   8.611
    3AU     LIG 1257   5.489  11.970   8.740
    3AU    AUSL 1258   3.681  13.312   7.635
    3AU    AUSL 1259   3.812  13.624   8.259
    3AU     AUL 1260   3.659  13.351   8.006
    3AU       S 1261   3.775  12.931   7.845
    3AU     LIG 1262   3.523  12.601   8.023
    3AU     LIG 1263   3.550  12.135   8.037
    3AU     LIG 1264   3.653  11.678   8.081
    3AU     LIG 1265   3.434  11.255   8.037
    3AU       S 1266   3.625  13.501   8.452
    3AU     LIG 1267   3.426  13.042   8.573
    3AU     LIG 1268   2.988  12.862   8.665
    3AU     LIG 1269   2.745  12.584   8.960
    3AU     LIG 1270   2.551  12.469   9.376
    3AU    AUSL 1271   4.121  13.195   7.584
    3AU    AUSL 1272   3.865  13.339   7.239
    3AU     AUL 1273   3.750  13.078   7.408
    3AU       S 1274   4.103  13.053   7.112
    3AU     LIG 1275   3.740  12.764   7.028
    3AU     LIG 1276   3.630  12.319   7.016
    3AU     LIG 1277   3.670  11.863   6.896
    3AU     LIG 1278   3.543  11.416   6.743
    3AU       S 1279   4.110  12.982   7.741
    3AU     LIG 1280   4.038  12.504   7.919
    3AU     LIG 1281   4.059  12.046   8.049
    3AU     LIG 1282   4.194  11.600   8.161
    3AU     LIG 1283   4.516  11.291   8.363
    3AU    AUSL 1284   4.074  14.778   6.848
    3AU    AUSL 1285   4.516  14.743   7.254
    3AU     AUL 1286   4.367  14.971   6.881
    3AU       S 1287   3.968  15.178   6.726
    3AU     LIG 1288   4.033  15.610   6.530
    3AU     LIG 1289   4.253  15.983   6.351
    3AU     LIG 1290   4.327  16.339   6.055
    3AU     LIG 1291   4.289  16.475   5.588
    3AU       S 1292   4.744  15.000   7.153
    3AU     LIG 1293   5.176  15.224   6.928
    3AU     LIG 1294   5.418  15.347   6.519
    3AU     LIG 1295   5.693  15.675   6.292
    3AU     LIG 1296   6.048  15.984   6.160
    3AU    AUSL 1297   3.871  14.820   7.249
    3AU    AUSL 1298   3.772  14.487   6.952
    3AU     AUL 1299   3.721  14.794   6.809
    3AU       S 1300   3.776  15.184   7.081
    3AU     LIG 1301   3.882  15.695   7.016
    3AU     LIG 1302   4.014  16.106   6.801
    3AU     LIG 1303   3.992  16.586   6.735
    3AU     LIG 1304   3.912  16.985   6.499
    3AU       S 1305   3.279  14.815   6.666
    3AU     LIG 1306   3.218  14.966   6.241
    3AU     LIG 1307   3.082  15.256   5.890
    3AU     LIG 1308   2.905  15.482   5.505
    3AU     LIG 1309   2.681  15.589   5.111
    3AU    AUSL 1310   4.088  13.457   6.871
    3AU    AUSL 1311   3.464  13.485   7.219
    3AU     AUL 1312   3.719  13.324   6.931
    3AU       S 1313   3.275  13.468   6.981
    3AU     LIG 1314   3.120  13.106   6.809
    3AU     LIG 1315   2.851  12.767   6.671
    3AU     LIG 1316   2.515  12.602   6.417
    3AU     LIG 1317   2.134  12.474   6.184
    3AU       S 1318   4.125  13.058   6.877
    3AU     LIG 1319   4.119  12.622   6.713
    3AU     LIG 1320   3.879  12.237   6.567
    3AU     LIG 1321   3.826  11.802   6.406
    3AU     LIG 1322   3.841  11.523   6.030
    3AU    AUSL 1323   4.261  13.490   7.303
    3AU    AUSL 1324   4.366  13.774   6.960
    3AU     AUL 1325   4.415  13.417   6.918
    3AU       S 1326   4.335  13.060   7.197
    3AU     LIG 1327   4.197  12.585   7.232
    3AU     LIG 1328   4.124  12.172   7.011
    3AU     LIG 1329   4.173  11.750   6.802
    3AU     LIG 1330   4.450  11.356   6.787
    3AU       S 1331   4.641  13.548   6.551
    3AU     LIG 1332   4.540  13.105   6.479
    3AU     LIG 1333   4.750  12.779   6.202
    3AU     LIG 1334   5.060  12.562   5.909
    3AU     LIG 1335   5.382  12.470   5.571
    4AU     AUC 1336   6.883  24.786   7.501
    4AU     AUC 1337   7.178  24.781   7.333
    4AU     AUC 1338   7.139  24.773   7.671
    4AU     AUC 1339   6.607  24.778   7.340
    4AU     AUC 1340   6.623  24.827   7.682
    4AU     AUC 1341   6.719  25.062   7.499
    4AU     AUC 1342   7.066  25.050   7.489
    4AU     AUC 1343   6.690  24.520   7.503
    4AU     AUC 1344   7.044  24.512   7.507
    4AU     AUC 1345   6.884  24.611   7.768
    4AU     AUC 1346   6.878  24.981   7.754
    4AU     AUC 1347   6.883  24.622   7.233
    4AU     AUC 1348   6.915  24.935   7.232
    4AU     AUC 1349   7.513  24.774   7.184
    4AU     AUC 1350   7.500  24.759   7.519
    4AU     AUC 1351   7.433  24.745   7.873
    4AU     AUC 1352   6.292  24.786   7.178
    4AU     AUC 1353   6.276  24.827   7.540
    4AU     AUC 1354   6.334  24.872   7.869
    4AU     AUC 1355   6.564  25.387   7.465
    4AU     AUC 1356   6.920  25.405   7.440
    4AU     AUC 1357   7.244  25.339   7.475
    4AU     AUC 1358   6.487  24.241   7.502
    4AU     AUC 1359   6.813  24.176   7.473
    4AU     AUC 1360   7.202  24.185   7.486
    4AU     AUC 1361   6.865  24.438   8.065
    4AU     AUC 1362   6.883  24.799   8.100
    4AU     AUC 1363   6.912  25.158   8.046
    4AU     AUC 1364   6.911  24.453   6.947
    4AU     AUC 1365   6.904  24.762   6.892
    4AU     AUC 1366   6.911  25.082   6.926
    4AU     AUC 1367   7.150  24.549   7.991
    4AU     AUC 1368   7.181  24.934   7.993
    4AU     AUC 1369   7.230  24.602   7.023
    4AU     AUC 1370   7.237  24.952   7.037
    4AU     AUC 1371   6.587  24.682   8.021
    4AU     AUC 1372   6.612  25.056   7.984
    4AU     AUC 1373   6.581  24.609   7.045
    4AU     AUC 1374   6.566  24.914   7.001
    4AU     AUC 1375   7.428  25.061   7.332
    4AU     AUC 1376   7.354  25.044   7.696
    4AU     AUC 1377   6.392  25.093   7.340
    4AU     AUC 1378   6.427  25.164   7.682
    4AU     AUC 1379   7.381  24.462   7.350
    4AU     AUC 1380   7.335  24.435   7.679
    4AU     AUC 1381   6.346  24.499   7.374
    4AU     AUC 1382   6.409  24.551   7.723
    4AU     AUC 1383   6.751  25.334   7.748
    4AU     AUC 1384   7.077  25.273   7.766
    4AU     AUC 1385   6.683  24.326   7.796
    4AU     AUC 1386   6.998  24.259   7.769
    4AU     AUC 1387   6.717  25.213   7.187
    4AU     AUC 1388   7.102  25.233   7.166
    4AU     AUC 1389   6.664  24.309   7.211
    4AU     AUC 1390   7.054  24.333   7.213
    4AU    AUSL 1391   7.419  24.670   8.241
    4AU    AUSL 1392   7.142  24.260   8.155
    4AU     AUL 1393   7.450  24.262   8.316
    4AU       S 1394   7.481  23.856   8.097
    4AU     LIG 1395   7.344  23.562   8.395
    4AU     LIG 1396   7.535  23.347   8.745
    4AU     LIG 1397   7.802  23.084   8.998
    4AU     LIG 1398   8.057  22.737   9.169
    4AU       S 1399   7.647  24.663   8.425
    4AU     LIG 1400   7.541  24.744   8.869
    4AU     LIG 1401   7.683  24.607   9.295
    4AU     LIG 1402   8.015  24.464   9.607
    4AU     LIG 1403   8.304  24.359   9.968
    4AU    AUSL 1404   7.008  24.586   8.414
    4AU    AUSL 1405   6.758  24.993   8.438
    4AU     AUL 1406   6.944  24.867   8.728
    4AU       S 1407   7.191  24.493   8.615
    4AU     LIG 1408   7.064  24.475   9.031
    4AU     LIG 1409   7.271  24.305   9.403
    4AU     LIG 1410   7.594  24.180   9.718
    4AU     LIG 1411   7.788  23.984  10.107
    4AU       S 1412   6.516  24.731   8.640
    4AU     LIG 1413   6.606  24.748   9.107
    4AU     LIG 1414   6.345  24.705   9.490
    4AU     LIG 1415   6.200  24.772   9.928
    4AU     LIG 1416   6.290  25.057  10.307
    4AU    AUSL 1417   7.077  24.960   8.158
    4AU    AUSL 1418   7.519  25.081   8.121
    4AU     AUL 1419   7.312  24.976   8.449
    4AU       S 1420   6.997  25.338   8.621
    4AU     LIG 1421   7.326  25.216   8.906
    4AU     LIG 1422   7.534  25.364   9.308
    4AU     LIG 1423   7.482  25.497   9.780
    4AU     LIG 1424   7.371  25.666  10.228
    4AU       S 1425   7.673  25.228   8.291
    4AU     LIG 1426   8.098  25.286   8.335
    4AU     LIG 1427   8.369  25.514   8.637
    4AU     LIG 1428   8.566  25.770   8.983
    4AU     LIG 1429   8.718  26.080   9.294
    4AU    AUSL 1430   7.425  24.815   6.893
    4AU    AUSL 1431   7.322  25.251   6.825
    4AU     AUL 1432   7.634  25.054   6.643
    4AU       S 1433   7.274  25.017   6.374
    4AU     LIG 1434   7.659  25.037   6.056
    4AU     LIG 1435   7.861  24.753   5.749
    4AU     LIG 1436   8.028  24.513   5.376
    4AU     LIG 1437   8.372  24.315   5.095
    4AU       S 1438   7.638  25.507   6.805
    4AU     LIG 1439   7.724  25.813   6.501
    4AU     LIG 1440   7.964  25.963   6.132
    4AU     LIG 1441   8.215  26.097   5.765
    4AU     LIG 1442   8.317  26.334   5.367
    4AU    AUSL 1443   7.211  24.576   6.586
    4AU    AUSL 1444   7.623  24.431   6.927
    4AU     AUL 1445   7.580  24.585   6.645
    4AU       S 1446   7.676  24.124   6.698
    4AU     LIG 1447   7.823  23.768   6.389
    4AU     LIG 1448   8.066  23.487   6.095
    4AU     LIG 1449   8.476  23.381   5.896
    4AU     LIG 1450   8.872  23.560   5.678
    4AU       S 1451   7.329  24.825   6.336
    4AU     LIG 1452   7.476  24.516   6.050
    4AU     LIG 1453   7.551  24.375   5.586
    4AU     LIG 1454   7.619  24.326   5.110
    4AU     LIG 1455   7.679  24.120   4.671
    4AU    AUSL 1456   7.021  24.938   6.767
    4AU    AUSL 1457   6.788  24.556   6.699
    4AU     AUL 1458   6.938  24.611   6.431
    4AU       S 1459   6.481  24.625   6.291
    4AU     LIG 1460   6.560  24.320   6.027
    4AU     LIG 1461   6.334  24.224   5.644
    4AU     LIG 1462   6.105  24.189   5.238
    4AU     LIG 1463   5.954  24.125   4.799
    4AU       S 1464   7.100  25.064   6.453
    4AU     LIG 1465   6.988  24.900   5.988
    4AU     LIG 1466   7.332  24.842   5.680
    4AU     LIG 1467   7.597  24.824   5.300
    4AU     LIG 1468   7.625  25.052   4.892
    4AU    AUSL 1469   6.353  24.951   8.253
    4AU    AUSL 1470   6.670  25.290   8.131
    4AU     AUL 1471   6.527  25.228   8.464
    4AU       S 1472   6.339  24.851   8.689
    4AU     LIG 1473   6.138  24.553   8.980
    4AU     LIG 1474   5.893  24.470   9.385
    4AU     LIG 1475   5.637  24.449   9.798
    4AU     LIG 1476   5.201  24.577   9.999
    4AU       S 1477   6.277  25.531   8.207
    4AU     LIG 1478   6.396  25.744   8.552
    4AU     LIG 1479   6.157  25.851   8.925
    4AU     LIG 1480   5.854  26.121   9.148
    4AU     LIG 1481   5.546  26.407   9.343
    4AU    AUSL 1482   6.662  24.655   8.162
    4AU    AUSL 1483   6.236  24.522   8.159
    4AU     AUL 1484   6.151  24.755   8.279
    4AU       S 1485   6.155  24.303   8.422
    4AU     LIG 1486   5.706  24.206   8.248
    4AU     LIG 1487   5.461  23.818   8.373
    4AU     LIG 1488   5.143  23.485   8.493
    4AU     LIG 1489   4.812  23.286   8.753
    4AU       S 1490   6.539  24.597   8.555
    4AU     LIG 1491   6.577  24.288   8.906
    4AU     LIG 1492   6.368  24.223   9.322
    4AU     LIG 1493   6.174  24.260   9.761
    4AU     LIG 1494   6.018  24.085  10.178
    4AU    AUSL 1495   6.382  24.700   6.778
    4AU    AUSL 1496   6.568  24.334   6.994
    4AU     AUL 1497   6.560  24.329   6.631
    4AU       S 1498   6.246  24.601   6.418
    4AU     LIG 1499   6.045  24.383   6.070
    4AU     LIG 1500   5.868  24.457   5.633
    4AU     LIG 1501   5.673  24.481   5.195
    4AU     LIG 1502   5.247  24.513   4.961
    4AU       S 1503   6.144  24.228   6.787
    4AU     LIG 1504   6.202  23.910   6.510
    4AU     LIG 1505   5.888  23.597   6.358
    4AU     LIG 1506   5.561  23.281   6.200
    4AU     LIG 1507   5.474  22.813   6.090
    4AU    AUSL 1508   6.651  24.985   6.553
    4AU    AUSL 1509   6.155  25.048   6.922
    4AU     AUL 1510   6.290  25.023   6.598
    4AU       S 1511   5.887  25.228   6.748
    4AU     LIG 1512   5.688  25.489   6.404
    4AU     LIG 1513   5.648  25.789   6.048
    4AU     LIG 1514   5.387  25.972   5.695
    4AU     LIG 1515   5.056  26.045   5.357
    4AU       S 1516   6.555  24.847   6.254
    4AU     LIG 1517   6.326  24.749   5.832
    4AU     LIG 1518   6.260  24.667   5.378
    4AU     LIG 1519   6.117  24.639   4.938
    4AU     LIG 1520   6.180  24.926   4.564
    4AU    AUSL 1521   7.672  25.292   7.525
    4AU    AUSL 1522   7.669  25.109   7.101
    4AU     AUL 1523   7.947  25.390   7.330
    4AU       S 1524   7.753  25.407   6.926
    4AU     LIG 1525   8.108  25.478   6.624
    4AU     LIG 1526   8.336  25.625   6.241
    4AU     LIG 1527   8.626  25.816   5.919
    4AU     LIG 1528   8.985  25.826   5.595
    4AU       S 1529   8.070  25.163   7.732
    4AU     LIG 1530   8.527  25.163   7.614
    4AU     LIG 1531   8.946  25.367   7.591
    4AU     LIG 1532   9.356  25.581   7.535
    4AU     LIG 1533   9.435  26.041   7.526
    4AU    AUSL 1534   7.875  24.880   7.406
    4AU    AUSL 1535   7.813  24.550   7.725
    4AU     AUL 1536   8.187  24.662   7.734
    4AU       S 1537   7.995  24.952   7.455
    4AU     LIG 1538   8.408  24.840   7.244
    4AU     LIG 1539   8.854  25.055   7.192
    4AU     LIG 1540   9.323  25.228   7.165
    4AU     LIG 1541   9.789  25.373   7.238
    4AU       S 1542   8.066  24.270   7.534
    4AU     LIG 1543   8.517  24.275   7.714
    4AU     LIG 1544   8.889  24.036   7.871
    4AU     LIG 1545   9.338  24.007   7.748
    4AU     LIG 1546   9.750  23.867   7.944
    4AU    AUSL 1547   7.577  24.911   7.735
    4AU    AUSL 1548   7.325  25.302   7.787
    4AU     AUL 1549   7.656  25.355   7.835
    4AU       S 1550   7.643  25.528   8.260
    4AU     LIG 1551   7.964  25.783   8.440
    4AU     LIG 1552   8.268  26.037   8.662
    4AU     LIG 1553   8.550  26.338   8.870
    4AU     LIG 1554   8.721  26.783   8.822
    4AU       S 1555   7.915  24.987   7.887
    4AU     LIG 1556   8.404  24.959   8.063
    4AU     LIG 1557   8.891  25.001   7.979
    4AU     LIG 1558   9.289  25.280   7.970
    4AU     LIG 1559   9.710  25.245   7.738
    4AU    AUSL 1560   6.232  25.391   7.506
    4AU    AUSL 1561   6.321  25.167   7.887
    4AU     AUL 1562   6.018  25.501   7.754
    4AU       S 1563   6.149  25.354   8.172
    4AU     LIG 1564   5.905  25.563   8.543
    4AU     LIG 1565   5.644  25.717   8.899
    4AU     LIG 1566   5.354  25.940   9.193
    4AU     LIG 1567   4.955  25.941   9.461
    4AU       S 1568   6.240  25.760   7.424
    4AU     LIG 1569   5.744  25.727   7.375
    4AU     LIG 1570   5.256  25.892   7.421
    4AU     LIG 1571   4.828  26.186   7.467
    4AU     LIG 1572   4.376  26.391   7.581
    4AU    AUSL 1573   6.194  24.981   7.338
    4AU    AUSL 1574   6.319  25.431   7.085
    4AU     AUL 1575   6.016  25.323   7.195
    4AU       S 1576   5.785  24.789   6.991
    4AU     LIG 1577   5.458  25.140   7.103
    4AU     LIG 1578   5.026  25.371   7.194
    4AU     LIG 1579   4.536  25.500   7.175
    4AU     LIG 1580   4.051  25.612   7.135
    4AU       S 1581   6.157  25.679   6.900
    4AU     LIG 1582   5.935  25.930   6.541
    4AU     LIG 1583   5.747  26.257   6.243
    4AU     LIG 1584   5.568  26.614   5.974
    4AU     LIG 1585   5.418  27.081   5.990
    4AU    AUSL 1586   5.954  25.047   7.710
    4AU    AUSL 1587   5.910  24.670   7.426
    4AU     AUL 1588   5.798  24.984   7.425
    4AU       S 1589   5.719  24.600   7.704
    4AU     LIG 1590   5.389  24.664   7.388
    4AU     LIG 1591   4.981  24.436   7.241
    4AU     LIG 1592   4.559  24.185   7.165
    4AU     LIG 1593   4.224  24.037   6.835
    4AU       S 1594   5.825  25.082   7.921
    4AU     LIG 1595   5.389  25.097   7.711
    4AU     LIG 1596   4.936  25.320   7.744
    4AU     LIG 1597   4.460  25.457   7.870
    4AU     LIG 1598   4.008  25.432   8.078
    4AU    AUSL 1599   7.600  24.191   7.558
    4AU    AUSL 1600   7.413  24.461   7.869
    4AU     AUL 1601   7.749  24.360   7.941
    4AU       S 1602   7.910  24.084   7.579
    4AU     LIG 1603   8.291  23.824   7.576
    4AU     LIG 1604   8.724  23.759   7.477
    4AU     LIG 1605   9.156  23.596   7.497
    4AU     LIG 1606   9.498  23.334   7.295
    4AU       S 1607   7.618  23.926   7.973
    4AU     LIG 1608   7.889  23.632   8.251
    4AU     LIG 1609   8.036  23.394   8.630
    4AU     LIG 1610   8.298  23.242   8.980
    4AU     LIG 1611   8.672  23.384   9.235
    4AU    AUSL 1612   7.588  24.570   7.330
    4AU    AUSL 1613   7.455  24.085   7.161
    4AU     AUL 1614   7.729  24.220   7.174
    4AU       S 1615   8.080  24.446   7.331
    4AU     LIG 1616   8.487  24.209   7.214
    4AU     LIG 1617   8.835  23.940   7.021
    4AU     LIG 1618   9.256  23.719   7.009
    4AU     LIG 1619   9.718  23.760   7.065
    4AU       S 1620   7.645  23.906   6.834
    4AU     LIG 1621   7.706  23.454   6.815
    4AU     LIG 1622   8.053  23.292   6.562
    4AU     LIG 1623   8.123  22.936   6.252
    4AU     LIG 1624   8.406  22.530   6.165
    4AU    AUSL 1625   6.102  24.297   7.581
    4AU    AUSL 1626   6.209  24.544   7.143
    4AU     AUL 1627   5.864  24.381   7.295
    4AU       S 1628   6.053  24.372   6.868
    4AU     LIG 1629   5.710  24.042   6.640
    4AU     LIG 1630   5.393  23.700   6.487
    4AU     LIG 1631   5.034  23.410   6.324
    4AU     LIG 1632   4.602  23.261   6.131
    4AU       S 1633   5.689  24.364   7.741
    4AU     LIG 1634   5.304  24.194   7.582
    4AU     LIG 1635   4.900  23.974   7.495
    4AU     LIG 1636   4.559  23.677   7.571
    4AU     LIG 1637   4.199  23.432   7.492
    4AU    AUSL 1638   6.192  24.693   7.768
    4AU    AUSL 1639   6.446  24.307   7.843
    4AU     AUL 1640   6.103  24.282   7.928
    4AU       S 1641   6.172  24.084   8.346
    4AU     LIG 1642   5.932  23.719   8.161
    4AU     LIG 1643   5.593  23.342   8.212
    4AU     LIG 1644   5.243  23.002   8.337
    4AU     LIG 1645   4.936  22.784   8.627
    4AU       S 1646   5.783  24.612   7.891
    4AU     LIG 1647   5.269  24.612   7.901
    4AU     LIG 1648   4.853  24.430   7.740
    4AU     LIG 1649   4.444  24.165   7.710
    4AU     LIG 1650   4.128  23.940   7.998
    4AU    AUSL 1651   6.939  25.530   7.889
    4AU    AUSL 1652   6.503  25.557   7.806
    4AU     AUL 1653   6.740  25.611   8.176
    4AU       S 1654   6.370  25.761   7.931
    4AU     LIG 1655   6.036  25.960   8.220
    4AU     LIG 1656   5.832  26.113   8.616
    4AU     LIG 1657   5.683  26.512   8.834
    4AU     LIG 1658   5.652  26.995   8.778
    4AU       S 1659   6.946  25.945   7.930
    4AU     LIG 1660   7.037  26.008   8.331
    4AU     LIG 1661   7.072  26.432   8.503
    4AU     LIG 1662   7.047  26.822   8.753
    4AU     LIG 1663   7.019  26.969   9.216
    4AU    AUSL 1664   6.777  25.753   7.534
    4AU    AUSL 1665   7.065  25.672   7.175
    4AU     AUL 1666   7.003  26.015   7.320
    4AU       S 1667   6.782  25.983   7.746
    4AU     LIG 1668   6.835  26.414   8.022
    4AU     LIG 1669   6.797  26.828   8.258
    4AU     LIG 1670   6.488  27.213   8.265
    4AU     LIG 1671   6.257  27.637   8.313
    4AU       S 1672   6.789  25.836   6.957
    4AU     LIG 1673   7.203  26.094   6.876
    4AU     LIG 1674   7.292  26.560   6.806
    4AU     LIG 1675   7.586  26.964   6.834
    4AU     LIG 1676   7.918  27.331   6.880
    4AU    AUSL 1677   7.231  25.666   7.584
    4AU    AUSL 1678   7.181  25.371   8.206
    4AU     AUL 1679   7.290  25.633   7.970
    4AU       S 1680   7.424  25.459   8.411
    4AU     LIG 1681   7.769  25.422   8.750
    4AU     LIG 1682   8.039  25.699   8.993
    4AU     LIG 1683   8.202  26.089   9.181
    4AU     LIG 1684   8.347  26.375   9.515
    4AU       S 1685   7.150  26.022   7.761
    4AU     LIG 1686   7.339  26.324   8.056
    4AU     LIG 1687   7.334  26.776   8.207
    4AU     LIG 1688   7.572  27.201   8.207
    4AU     LIG 1689   7.645  27.661   8.305
    4AU    AUSL 1690   6.817  24.074   7.927
    4AU    AUSL 1691   7.231  24.076   7.757
    4AU     AUL 1692   7.039  23.958   8.150
    4AU       S 1693   6.769  23.616   7.998
    4AU     LIG 1694   6.833  23.402   8.351
    4AU     LIG 1695   6.727  22.968   8.412
    4AU     LIG 1696   6.731  22.517   8.490
    4AU     LIG 1697   6.622  22.070   8.582
    4AU       S 1698   7.377  23.838   7.813
    4AU     LIG 1699   7.504  23.379   7.947
    4AU     LIG 1700   7.718  23.155   8.300
    4AU     LIG 1701   8.003  22.877   8.563
    4AU     LIG 1702   8.305  22.558   8.750
    4AU    AUSL 1703   6.491  23.937   7.642
    4AU    AUSL 1704   6.618  24.247   8.262
    4AU     AUL 1705   6.471  23.976   8.009
    4AU       S 1706   6.581  23.548   7.867
    4AU     LIG 1707   6.373  23.231   8.131
    4AU     LIG 1708   6.304  22.760   8.206
    4AU     LIG 1709   6.331  22.282   8.212
    4AU     LIG 1710   6.472  21.820   8.150
    4AU       S 1711   6.443  24.136   8.453
    4AU     LIG 1712   6.379  23.650   8.440
    4AU     LIG 1713   5.982  23.397   8.561
    4AU     LIG 1714   5.547  23.240   8.718
    4AU     LIG 1715   5.224  23.031   8.992
    4AU    AUSL 1716   6.928  23.812   7.593
    4AU    AUSL 1717   6.670  23.949   7.241
    4AU     AUL 1718   6.556  23.693   7.429
    4AU       S 1719   6.877  23.660   7.103
    4AU     LIG 1720   6.447  23.464   7.003
    4AU     LIG 1721   6.395  23.008   6.926
    4AU     LIG 1722   6.424  22.539   6.858
    4AU     LIG 1723   6.281  22.099   6.764
    4AU       S 1724   6.914  23.607   7.765
    4AU     LIG 1725   6.839  23.125   7.909
    4AU     LIG 1726   6.766  22.651   7.996
    4AU     LIG 1727   6.836  22.179   8.099
    4AU     LIG 1728   6.943  21.744   8.318
    4AU    AUSL 1729   6.906  25.393   6.853
    4AU    AUSL 1730   7.340  25.355   7.251
    4AU     AUL 1731   7.195  25.581   6.875
    4AU       S 1732   6.800  25.802   6.730
    4AU     LIG 1733   6.881  26.195   6.496
    4AU     LIG 1734   7.049  26.595   6.333
    4AU     LIG 1735   7.108  26.867   5.947
    4AU     LIG 1736   7.313  27.215   5.688
    4AU       S 1737   7.566  25.603   7.151
    4AU     LIG 1738   7.955  25.863   6.972
    4AU     LIG 1739   8.210  26.005   6.589
    4AU     LIG 1740   8.399  26.376   6.337
    4AU     LIG 1741   8.586  26.848   6.349
    4AU    AUSL 1742   6.705  25.439   7.255
    4AU    AUSL 1743   6.597  25.109   6.957
    4AU     AUL 1744   6.556  25.417   6.813
    4AU       S 1745   6.612  25.814   7.083
    4AU     LIG 1746   6.733  26.319   6.976
    4AU     LIG 1747   6.778  26.761   6.775
    4AU     LIG 1748   6.556  27.216   6.753
    4AU     LIG 1749   6.264  27.626   6.732
    4AU       S 1750   6.117  25.453   6.667
    4AU     LIG 1751   6.187  25.590   6.253
    4AU     LIG 1752   6.125  25.976   6.010
    4AU     LIG 1753   5.840  26.223   5.732
    4AU     LIG 1754   5.510  26.418   5.455
    4AU    AUSL 1755   6.892  24.073   6.874
    4AU    AUSL 1756   6.274  24.109   7.233
    4AU     AUL 1757   6.519  23.953   6.935
    4AU       S 1758   6.073  24.071   7.012
    4AU     LIG 1759   5.949  23.639   6.879
    4AU     LIG 1760   5.636  23.301   6.716
    4AU     LIG 1761   5.299  22.988   6.548
    4AU     LIG 1762   5.056  22.613   6.358
    4AU       S 1763   6.902  23.667   6.860
    4AU     LIG 1764   6.813  23.252   6.727
    4AU     LIG 1765   6.735  22.828   6.550
    4AU     LIG 1766   6.649  22.397   6.392
    4AU     LIG 1767   6.811  22.106   6.050
    4AU    AUSL 1768   7.062  24.105   7.311
    4AU    AUSL 1769   7.177  24.381   6.965
    4AU     AUL 1770   7.212  23.997   6.959
    4AU       S 1771   7.077  23.627   7.196
    4AU     LIG 1772   6.821  23.195   7.239
    4AU     LIG 1773   6.864  22.787   7.037
    4AU     LIG 1774   6.926  22.365   6.829
    4AU     LIG 1775   6.958  21.870   6.788
    4AU       S 1776   7.415  24.136   6.581
    4AU     LIG 1777   7.322  23.660   6.531
    4AU     LIG 1778   7.578  23.314   6.327
    4AU     LIG 1779   7.744  23.126   5.936
    4AU     LIG 1780   8.054  23.232   5.611
    5AU     AUC 1781  17.246  38.597   7.495
    5AU     AUC 1782  17.538  38.594   7.324
    5AU     AUC 1783  17.508  38.592   7.667
    5AU     AUC 1784  16.959  38.588   7.331
    5AU     AUC 1785  16.986  38.627   7.675
    5AU     AUC 1786  17.079  38.870   7.496
    5AU     AUC 1787  17.426  38.864   7.482
    5AU     AUC 1788  17.055  38.340   7.500
    5AU     AUC 1789  17.420  38.330   7.509
    5AU     AUC 1790  17.254  38.432   7.767
    5AU     AUC 1791  17.245  38.778   7.753
    5AU     AUC 1792  17.234  38.426   7.232
    5AU     AUC 1793  17.269  38.743   7.227
    5AU     AUC 1794  17.868  38.593   7.170
    5AU     AUC 1795  17.868  38.591   7.501
    5AU     AUC 1796  17.810  38.583   7.864
    5AU     AUC 1797  16.651  38.601   7.165
    5AU     AUC 1798  16.636  38.626   7.523
    5AU     AUC 1799  16.694  38.634   7.858
    5AU     AUC 1800  16.923  39.187   7.472
    5AU     AUC 1801  17.266  39.212   7.439
    5AU     AUC 1802  17.591  39.160   7.461
    5AU     AUC 1803  16.847  38.052   7.507
    5AU     AUC 1804  17.213  37.996   7.503
    5AU     AUC 1805  17.580  38.007   7.507
    5AU     AUC 1806  17.241  38.239   8.058
    5AU     AUC 1807  17.233  38.586   8.102
    5AU     AUC 1808  17.281  38.955   8.042
    5AU     AUC 1809  17.244  38.234   6.951
    5AU     AUC 1810  17.266  38.565   6.900
    5AU     AUC 1811  17.268  38.888   6.915
    5AU     AUC 1812  17.541  38.375   7.983
    5AU     AUC 1813  17.555  38.752   7.993
    5AU     AUC 1814  17.583  38.397   7.026
    5AU     AUC 1815  17.595  38.759   7.026
    5AU     AUC 1816  16.933  38.446   8.000
    5AU     AUC 1817  16.989  38.799   7.979
    5AU     AUC 1818  16.935  38.400   7.020
    5AU     AUC 1819  16.924  38.718   6.993
    5AU     AUC 1820  17.779  38.888   7.311
    5AU     AUC 1821  17.714  38.868   7.681
    5AU     AUC 1822  16.753  38.895   7.337
    5AU     AUC 1823  16.799  38.956   7.700
    5AU     AUC 1824  17.740  38.278   7.345
    5AU     AUC 1825  17.725  38.276   7.676
    5AU     AUC 1826  16.724  38.315   7.310
    5AU     AUC 1827  16.736  38.320   7.668
    5AU     AUC 1828  17.110  39.130   7.754
    5AU     AUC 1829  17.437  39.086   7.761
    5AU     AUC 1830  17.048  38.157   7.775
    5AU     AUC 1831  17.415  38.086   7.812
    5AU     AUC 1832  17.071  39.018   7.179
    5AU     AUC 1833  17.452  39.045   7.153
    5AU     AUC 1834  17.028  38.115   7.195
    5AU     AUC 1835  17.410  38.137   7.233
    5AU    AUSL 1836  17.777  38.499   8.272
    5AU    AUSL 1837  17.642  38.058   8.191
    5AU     AUL 1838  17.747  38.162   8.568
    5AU       S 1839  17.936  37.928   8.177
    5AU     LIG 1840  17.835  37.664   8.525
    5AU     LIG 1841  17.990  37.292   8.730
    5AU     LIG 1842  18.202  36.924   8.926
    5AU     LIG 1843  18.466  36.678   9.234
    5AU       S 1844  17.964  38.439   8.305
    5AU     LIG 1845  18.004  38.569   8.763
    5AU     LIG 1846  18.083  38.450   9.214
    5AU     LIG 1847  18.389  38.322   9.562
    5AU     LIG 1848  18.824  38.315   9.780
    5AU    AUSL 1849  17.345  38.367   8.249
    5AU    AUSL 1850  17.134  38.755   8.424
    5AU     AUL 1851  17.381  38.532   8.591
    5AU       S 1852  17.309  38.083   8.500
    5AU     LIG 1853  17.350  38.185   8.952
    5AU     LIG 1854  17.665  38.134   9.316
    5AU     LIG 1855  17.828  37.977   9.747
    5AU     LIG 1856  17.830  37.789  10.197
    5AU       S 1857  16.985  38.677   8.796
    5AU     LIG 1858  16.791  38.480   9.203
    5AU     LIG 1859  16.618  38.436   9.645
    5AU     LIG 1860  16.617  38.443  10.123
    5AU     LIG 1861  16.713  38.752  10.489
    5AU    AUSL 1862  17.457  38.792   8.152
    5AU    AUSL 1863  17.899  38.897   8.105
    5AU     AUL 1864  17.722  38.814   8.443
    5AU       S 1865  17.368  39.099   8.608
    5AU     LIG 1866  17.705  38.997   8.908
    5AU     LIG 1867  17.877  39.156   9.314
    5AU     LIG 1868  17.771  39.271   9.773
    5AU     LIG 1869  17.719  39.342  10.249
    5AU       S 1870  18.063  39.076   8.263
    5AU     LIG 1871  18.466  39.009   8.373
    5AU     LIG 1872  18.734  39.226   8.686
    5AU     LIG 1873  18.943  39.494   9.012
    5AU     LIG 1874  19.132  39.792   9.313
    5AU    AUSL 1875  17.800  38.621   6.879
    5AU    AUSL 1876  17.673  39.058   6.796
    5AU     AUL 1877  17.998  38.853   6.625
    5AU       S 1878  17.640  38.773   6.365
    5AU     LIG 1879  18.026  38.766   6.035
    5AU     LIG 1880  18.200  38.458   5.743
    5AU     LIG 1881  18.319  38.300   5.328
    5AU     LIG 1882  18.587  38.188   4.957
    5AU       S 1883  17.968  39.320   6.752
    5AU     LIG 1884  18.199  39.534   6.415
    5AU     LIG 1885  18.486  39.760   6.104
    5AU     LIG 1886  18.661  39.879   5.677
    5AU     LIG 1887  18.647  40.125   5.264
    5AU    AUSL 1888  17.566  38.359   6.607
    5AU    AUSL 1889  17.945  38.211   6.932
    5AU     AUL 1890  17.952  38.377   6.655
    5AU       S 1891  17.950  37.909   6.714
    5AU     LIG 1892  18.156  37.645   6.376
    5AU     LIG 1893  18.406  37.248   6.291
    5AU     LIG 1894  18.688  36.984   6.023
    5AU     LIG 1895  18.917  37.014   5.613
    5AU       S 1896  17.698  38.582   6.329
    5AU     LIG 1897  17.771  38.280   6.002
    5AU     LIG 1898  17.884  38.081   5.572
    5AU     LIG 1899  17.963  37.991   5.115
    5AU     LIG 1900  18.053  37.965   4.648
    5AU    AUSL 1901  17.387  38.734   6.771
    5AU    AUSL 1902  17.148  38.357   6.743
    5AU     AUL 1903  17.301  38.398   6.455
    5AU       S 1904  16.877  38.439   6.267
    5AU     LIG 1905  16.984  38.158   5.973
    5AU     LIG 1906  16.743  37.954   5.637
    5AU     LIG 1907  16.490  37.927   5.242
    5AU     LIG 1908  16.168  37.918   4.890
    5AU       S 1909  17.479  38.842   6.427
    5AU     LIG 1910  17.408  38.674   5.938
    5AU     LIG 1911  17.713  38.574   5.571
    5AU     LIG 1912  17.886  38.506   5.130
    5AU     LIG 1913  17.916  38.636   4.674
    5AU    AUSL 1914  16.771  38.685   8.177
    5AU    AUSL 1915  17.037  39.061   8.125
    5AU     AUL 1916  16.884  38.972   8.426
    5AU       S 1917  16.742  38.655   8.737
    5AU     LIG 1918  16.424  38.358   8.825
    5AU     LIG 1919  16.286  38.277   9.256
    5AU     LIG 1920  16.141  38.229   9.697
    5AU     LIG 1921  15.828  38.329  10.026
    5AU       S 1922  16.604  39.288   8.231
    5AU     LIG 1923  16.690  39.444   8.635
    5AU     LIG 1924  16.519  39.730   8.974
    5AU     LIG 1925  16.336  40.129   9.147
    5AU     LIG 1926  16.113  40.462   9.382
    5AU    AUSL 1927  16.939  38.355   8.412
    5AU    AUSL 1928  16.546  38.317   8.104
    5AU     AUL 1929  16.543  38.539   8.346
    5AU       S 1930  16.534  38.065   8.295
    5AU     LIG 1931  16.083  38.034   8.356
    5AU     LIG 1932  15.812  37.685   8.512
    5AU     LIG 1933  15.588  37.339   8.731
    5AU     LIG 1934  15.369  37.000   8.975
    5AU       S 1935  16.903  38.383   8.644
    5AU     LIG 1936  16.824  38.049   8.920
    5AU     LIG 1937  16.694  37.989   9.378
    5AU     LIG 1938  16.563  37.954   9.841
    5AU     LIG 1939  16.492  37.941  10.311
    5AU    AUSL 1940  16.739  38.508   6.731
    5AU    AUSL 1941  16.840  38.078   6.862
    5AU     AUL 1942  16.933  38.112   6.584
    5AU       S 1943  16.652  38.417   6.372
    5AU     LIG 1944  16.473  38.128   6.090
    5AU     LIG 1945  16.287  38.191   5.669
    5AU     LIG 1946  16.132  38.311   5.243
    5AU     LIG 1947  15.731  38.320   4.986
    5AU       S 1948  16.527  37.994   6.811
    5AU     LIG 1949  16.516  37.736   6.466
    5AU     LIG 1950  16.168  37.458   6.312
    5AU     LIG 1951  15.999  37.091   6.067
    5AU     LIG 1952  15.869  36.897   5.647
    5AU    AUSL 1953  17.030  38.792   6.544
    5AU    AUSL 1954  16.507  38.819   6.938
    5AU     AUL 1955  16.651  38.825   6.584
    5AU       S 1956  16.267  39.052   6.737
    5AU     LIG 1957  16.009  39.401   6.532
    5AU     LIG 1958  16.012  39.722   6.169
    5AU     LIG 1959  15.764  39.896   5.793
    5AU     LIG 1960  15.434  39.880   5.437
    5AU       S 1961  16.956  38.675   6.248
    5AU     LIG 1962  16.676  38.554   5.835
    5AU     LIG 1963  16.656  38.415   5.388
    5AU     LIG 1964  16.644  38.549   4.939
    5AU     LIG 1965  16.731  38.878   4.594
    5AU    AUSL 1966  18.011  39.136   7.495
    5AU    AUSL 1967  18.014  38.943   7.079
    5AU     AUL 1968  18.282  39.249   7.303
    5AU       S 1969  18.091  39.225   6.900
    5AU     LIG 1970  18.496  39.239   6.713
    5AU     LIG 1971  18.715  39.347   6.309
    5AU     LIG 1972  18.964  39.563   5.964
    5AU     LIG 1973  19.256  39.593   5.574
    5AU       S 1974  18.452  39.029   7.689
    5AU     LIG 1975  18.937  39.117   7.560
    5AU     LIG 1976  19.447  39.213   7.529
    5AU     LIG 1977  19.755  39.582   7.546
    5AU     LIG 1978  19.842  39.962   7.820
    5AU    AUSL 1979  18.239  38.734   7.381
    5AU    AUSL 1980  18.200  38.405   7.696
    5AU     AUL 1981  18.566  38.507   7.683
    5AU       S 1982  18.363  38.823   7.444
    5AU     LIG 1983  18.807  38.693   7.298
    5AU     LIG 1984  19.254  38.860   7.213
    5AU     LIG 1985  19.678  39.067   7.049
    5AU     LIG 1986  19.982  39.210   6.688
    5AU       S 1987  18.439  38.134   7.460
    5AU     LIG 1988  18.882  38.086   7.624
    5AU     LIG 1989  19.313  37.906   7.671
    5AU     LIG 1990  19.751  37.877   7.783
    5AU     LIG 1991  20.089  37.978   8.065
    5AU    AUSL 1992  17.942  38.750   7.708
    5AU    AUSL 1993  17.686  39.122   7.782
    5AU     AUL 1994  18.022  39.178   7.807
    5AU       S 1995  18.023  39.355   8.232
    5AU     LIG 1996  18.406  39.525   8.409
    5AU     LIG 1997  18.726  39.769   8.640
    5AU     LIG 1998  18.996  40.077   8.864
    5AU     LIG 1999  19.161  40.521   8.822
    5AU       S 2000  18.308  38.834   7.868
    5AU     LIG 2001  18.809  38.825   7.973
    5AU     LIG 2002  19.275  38.807   7.799
    5AU     LIG 2003  19.744  38.941   7.897
    5AU     LIG 2004  20.022  39.325   7.919
    5AU    AUSL 2005  16.629  39.234   7.507
    5AU    AUSL 2006  16.683  38.965   7.867
    5AU     AUL 2007  16.371  39.241   7.728
    5AU       S 2008  16.517  39.074   8.137
    5AU     LIG 2009  16.366  39.022   8.570
    5AU     LIG 2010  16.176  39.424   8.739
    5AU     LIG 2011  15.985  39.741   9.029
    5AU     LIG 2012  15.611  39.857   9.291
    5AU       S 2013  16.596  39.554   7.439
    5AU     LIG 2014  16.109  39.544   7.358
    5AU     LIG 2015  15.638  39.750   7.378
    5AU     LIG 2016  15.224  40.062   7.413
    5AU     LIG 2017  14.879  40.395   7.541
    5AU    AUSL 2018  16.541  38.829   7.365
    5AU    AUSL 2019  16.662  39.216   7.079
    5AU     AUL 2020  16.372  39.130   7.203
    5AU       S 2021  16.049  38.779   7.065
    5AU     LIG 2022  15.837  39.222   7.031
    5AU     LIG 2023  15.387  39.460   7.022
    5AU     LIG 2024  14.903  39.617   7.025
    5AU     LIG 2025  14.405  39.667   7.074
    5AU       S 2026  16.503  39.478   6.901
    5AU     LIG 2027  16.338  39.798   6.595
    5AU     LIG 2028  16.241  40.175   6.320
    5AU     LIG 2029  15.955  40.414   6.025
    5AU     LIG 2030  15.593  40.735   5.939
    5AU    AUSL 2031  16.316  38.775   7.780
    5AU    AUSL 2032  16.270  38.504   7.369
    5AU     AUL 2033  16.176  38.835   7.509
    5AU       S 2034  16.003  38.394   7.561
    5AU     LIG 2035  15.679  38.361   7.228
    5AU     LIG 2036  15.240  38.148   7.175
    5AU     LIG 2037  14.796  37.944   7.223
    5AU     LIG 2038  14.415  37.683   7.355
    5AU       S 2039  16.220  38.711   8.000
    5AU     LIG 2040  15.817  38.945   7.858
    5AU     LIG 2041  15.375  39.200   7.868
    5AU     LIG 2042  14.891  39.368   7.890
    5AU     LIG 2043  14.389  39.345   7.897
    5AU    AUSL 2044  17.985  38.043   7.552
    5AU    AUSL 2045  17.815  38.321   7.879
    5AU     AUL 2046  18.167  38.230   7.906
    5AU       S 2047  18.319  37.942   7.556
    5AU     LIG 2048  18.672  37.714   7.328
    5AU     LIG 2049  19.071  37.517   7.437
    5AU     LIG 2050  19.488  37.317   7.475
    5AU     LIG 2051  19.641  36.925   7.651
    5AU       S 2052  18.015  37.805   7.994
    5AU     LIG 2053  18.255  37.508   8.278
    5AU     LIG 2054  18.478  37.211   8.570
    5AU     LIG 2055  18.702  37.057   8.938
    5AU     LIG 2056  19.022  36.964   9.256
    5AU    AUSL 2057  17.965  38.411   7.308
    5AU    AUSL 2058  17.785  37.880   7.198
    5AU     AUL 2059  18.074  38.016   7.171
    5AU       S 2060  18.404  38.307   7.268
    5AU     LIG 2061  18.835  38.190   7.129
    5AU     LIG 2062  19.217  37.930   7.170
    5AU     LIG 2063  19.651  37.765   7.279
    5AU     LIG 2064  20.096  37.628   7.165
    5AU       S 2065  17.954  37.688   6.851
    5AU     LIG 2066  18.076  37.260   6.710
    5AU     LIG 2067  18.163  36.834   6.528
    5AU     LIG 2068  18.347  36.476   6.301
    5AU     LIG 2069  18.615  36.429   5.930
    5AU    AUSL 2070  16.407  38.098   7.474
    5AU    AUSL 2071  16.584  38.364   7.105
    5AU     AUL 2072  16.231  38.279   7.163
    5AU       S 2073  16.394  38.171   6.751
    5AU     LIG 2074  16.056  37.937   6.584
    5AU     LIG 2075  15.756  37.597   6.603
    5AU     LIG 2076  15.599  37.264   6.339
    5AU     LIG 2077  15.498  37.164   5.899
    5AU       S 2078  16.000  38.115   7.548
    5AU     LIG 2079  15.582  37.920   7.498
    5AU     LIG 2080  15.192  37.674   7.413
    5AU     LIG 2081  14.827  37.384   7.381
    5AU     LIG 2082  14.474  37.247   7.643
    5AU    AUSL 2083  16.571  38.445   7.698
    5AU    AUSL 2084  16.636  37.968   7.823
    5AU     AUL 2085  16.345  38.171   7.859
    5AU       S 2086  16.479  37.820   8.150
    5AU     LIG 2087  16.158  37.499   8.181
    5AU     LIG 2088  15.806  37.190   8.283
    5AU     LIG 2089  15.605  36.836   8.539
    5AU     LIG 2090  15.476  36.500   8.857
    5AU       S 2091  15.975  38.401   7.719
    5AU     LIG 2092  15.491  38.379   7.706
    5AU     LIG 2093  15.083  38.114   7.668
    5AU     LIG 2094  14.746  37.783   7.727
    5AU     LIG 2095  14.278  37.721   7.849
    5AU    AUSL 2096  17.293  39.327   7.895
    5AU    AUSL 2097  16.853  39.367   7.855
    5AU     AUL 2098  17.081  39.384   8.203
    5AU       S 2099  16.686  39.526   7.969
    5AU     LIG 2100  16.377  39.717   8.311
    5AU     LIG 2101  16.224  40.007   8.646
    5AU     LIG 2102  16.129  40.453   8.793
    5AU     LIG 2103  15.801  40.803   8.843
    5AU       S 2104  17.272  39.718   7.946
    5AU     LIG 2105  17.322  39.801   8.354
    5AU     LIG 2106  17.341  40.204   8.550
    5AU     LIG 2107  17.308  40.616   8.752
    5AU     LIG 2108  17.176  41.049   8.817
    5AU    AUSL 2109  17.106  39.538   7.544
    5AU    AUSL 2110  17.398  39.494   7.167
    5AU     AUL 2111  17.309  39.818   7.329
    5AU       S 2112  17.101  39.777   7.759
    5AU     LIG 2113  17.170  40.203   8.016
    5AU     LIG 2114  17.106  40.582   8.273
    5AU     LIG 2115  16.979  41.010   8.331
    5AU     LIG 2116  16.559  41.193   8.371
    5AU       S 2117  17.118  39.645   6.948
    5AU     LIG 2118  17.504  39.908   6.883
    5AU     LIG 2119  17.641  40.298   6.725
    5AU     LIG 2120  17.607  40.747   6.719
    5AU     LIG 2121  17.685  41.193   6.647
    5AU    AUSL 2122  17.564  39.475   7.574
    5AU    AUSL 2123  17.563  39.201   8.203
    5AU     AUL 2124  17.657  39.453   7.950
    5AU       S 2125  17.792  39.290   8.392
    5AU     LIG 2126  18.126  39.240   8.736
    5AU     LIG 2127  18.412  39.519   8.968
    5AU     LIG 2128  18.629  39.880   9.171
    5AU     LIG 2129  18.806  40.131   9.533
    5AU       S 2130  17.456  39.826   7.768
    5AU     LIG 2131  17.666  40.064   8.084
    5AU     LIG 2132  17.622  40.495   8.236
    5AU     LIG 2133  17.496  40.917   8.376
    5AU     LIG 2134  17.381  41.358   8.443
    5AU    AUSL 2135  17.257  37.876   8.049
    5AU    AUSL 2136  17.622  37.940   7.765
    5AU     AUL 2137  17.513  37.752   8.159
    5AU       S 2138  17.201  37.417   8.117
    5AU     LIG 2139  17.097  36.974   8.288
    5AU     LIG 2140  16.978  36.509   8.295
    5AU     LIG 2141  17.065  36.058   8.447
    5AU     LIG 2142  16.890  35.722   8.755
    5AU       S 2143  17.839  37.708   7.837
    5AU     LIG 2144  17.797  37.331   8.117
    5AU     LIG 2145  18.080  36.991   8.323
    5AU     LIG 2146  18.382  36.664   8.521
    5AU     LIG 2147  18.735  36.557   8.811
    5AU    AUSL 2148  17.026  37.903   7.665
    5AU    AUSL 2149  16.965  38.187   8.023
    5AU     AUL 2150  16.921  37.798   8.019
    5AU       S 2151  17.076  37.362   7.962
    5AU     LIG 2152  16.820  36.982   7.850
    5AU     LIG 2153  16.790  36.507   7.797
    5AU     LIG 2154  16.873  36.060   7.956
    5AU     LIG 2155  16.752  35.699   8.249
    5AU       S 2156  16.705  37.950   8.395
    5AU     LIG 2157  16.372  37.695   8.630
    5AU     LIG 2158  16.124  37.294   8.672
    5AU     LIG 2159  15.899  36.995   8.949
    5AU     LIG 2160  15.710  37.072   9.363
    5AU    AUSL 2161  17.355  37.618   7.676
    5AU    AUSL 2162  17.026  37.658   7.304
    5AU     AUL 2163  16.927  37.572   7.589
    5AU       S 2164  17.206  37.432   7.226
    5AU     LIG 2165  16.959  37.063   7.359
    5AU     LIG 2166  16.823  36.599   7.247
    5AU     LIG 2167  16.765  36.139   7.066
    5AU     LIG 2168  16.774  35.744   6.813
    5AU       S 2169  17.349  37.421   7.813
    5AU     LIG 2170  17.327  36.933   7.809
    5AU     LIG 2171  17.297  36.446   7.901
    5AU     LIG 2172  17.487  36.053   8.110
    5AU     LIG 2173  17.718  35.744   8.390
    5AU    AUSL 2174  17.257  39.196   6.847
    5AU    AUSL 2175  17.673  39.174   7.223
    5AU     AUL 2176  17.526  39.392   6.852
    5AU       S 2177  17.123  39.614   6.726
    5AU     LIG 2178  17.103  40.075   6.597
    5AU     LIG 2179  17.263  40.484   6.421
    5AU     LIG 2180  17.382  40.901   6.277
    5AU     LIG 2181  17.323  41.188   5.919
    5AU       S 2182  17.898  39.431   7.114
    5AU     LIG 2183  18.283  39.682   6.937
    5AU     LIG 2184  18.622  39.753   6.616
    5AU     LIG 2185  18.945  39.950   6.329
    5AU     LIG 2186  19.344  40.243   6.343
    5AU    AUSL 2187  17.051  39.242   7.242
    5AU    AUSL 2188  16.949  38.908   6.946
    5AU     AUL 2189  16.904  39.215   6.804
    5AU       S 2190  16.942  39.603   7.086
    5AU     LIG 2191  16.963  40.099   7.092
    5AU     LIG 2192  17.196  40.474   6.936
    5AU     LIG 2193  17.111  40.890   6.742
    5AU     LIG 2194  16.730  41.146   6.732
    5AU       S 2195  16.465  39.243   6.664
    5AU     LIG 2196  16.713  39.500   6.412
    5AU     LIG 2197  16.545  39.802   6.107
    5AU     LIG 2198  16.265  40.034   5.818
    5AU     LIG 2199  16.000  40.272   5.515
    5AU    AUSL 2200  17.205  37.859   6.945
    5AU    AUSL 2201  16.778  38.005   7.282
    5AU     AUL 2202  16.875  37.718   6.991
    5AU       S 2203  16.439  37.879   7.041
    5AU     LIG 2204  16.220  37.515   6.839
    5AU     LIG 2205  15.982  37.127   6.666
    5AU     LIG 2206  15.783  36.761   6.425
    5AU     LIG 2207  15.551  36.377   6.255
    5AU       S 2208  17.248  37.397   6.953
    5AU     LIG 2209  17.123  36.933   6.885
    5AU     LIG 2210  16.993  36.490   6.743
    5AU     LIG 2211  16.953  36.087   6.485
    5AU     LIG 2212  17.084  35.800   6.137
    5AU    AUSL 2213  17.391  37.903   7.353
    5AU    AUSL 2214  17.509  38.157   6.980
    5AU     AUL 2215  17.522  37.771   6.995
    5AU       S 2216  17.460  37.413   7.271
    5AU     LIG 2217  17.445  36.937   7.288
    5AU     LIG 2218  17.317  36.480   7.150
    5AU     LIG 2219  17.306  36.076   6.861
    5AU     LIG 2220  17.654  35.814   6.655
    5AU       S 2221  17.721  37.917   6.612
    5AU     LIG 2222  17.669  37.488   6.472
    5AU     LIG 2223  17.902  37.169   6.216
    5AU     LIG 2224  18.184  36.860   5.997
    5AU     LIG 2225  18.425  36.793   5.610
    6AU     AUC 2226  24.112  10.907   7.498
    6AU     AUC 2227  24.403  10.905   7.329
    6AU     AUC 2228  24.369  10.895   7.669
    6AU     AUC 2229  23.838  10.899   7.338
    6AU     AUC 2230  23.850  10.950   7.681
    6AU     AUC 2231  23.947  11.182   7.496
    6AU     AUC 2232  24.293  11.170   7.485
    6AU     AUC 2233  23.922  10.641   7.501
    6AU     AUC 2234  24.276  10.633   7.503
    6AU     AUC 2235  24.116  10.734   7.765
    6AU     AUC 2236  24.106  11.102   7.750
    6AU     AUC 2237  24.109  10.743   7.230
    6AU     AUC 2238  24.143  11.057   7.223
    6AU     AUC 2239  24.738  10.899   7.179
    6AU     AUC 2240  24.731  10.883   7.517
    6AU     AUC 2241  24.663  10.870   7.870
    6AU     AUC 2242  23.519  10.906   7.177
    6AU     AUC 2243  23.504  10.949   7.540
    6AU     AUC 2244  23.561  10.995   7.868
    6AU     AUC 2245  23.794  11.508   7.462
    6AU     AUC 2246  24.148  11.526   7.436
    6AU     AUC 2247  24.472  11.460   7.471
    6AU     AUC 2248  23.719  10.362   7.504
    6AU     AUC 2249  24.050  10.300   7.474
    6AU     AUC 2250  24.438  10.311   7.481
    6AU     AUC 2251  24.097  10.560   8.064
    6AU     AUC 2252  24.112  10.921   8.097
    6AU     AUC 2253  24.140  11.279   8.041
    6AU     AUC 2254  24.138  10.576   6.948
    6AU     AUC 2255  24.129  10.888   6.887
    6AU     AUC 2256  24.134  11.204   6.919
    6AU     AUC 2257  24.381  10.674   7.991
    6AU     AUC 2258  24.410  11.057   7.990
    6AU     AUC 2259  24.455  10.731   7.016
    6AU     AUC 2260  24.458  11.077   7.031
    6AU     AUC 2261  23.816  10.804   8.018
    6AU     AUC 2262  23.838  11.177   7.981
    6AU     AUC 2263  23.807  10.728   7.046
    6AU     AUC 2264  23.792  11.037   6.998
    6AU     AUC 2265  24.654  11.181   7.330
    6AU     AUC 2266  24.583  11.164   7.692
    6AU     AUC 2267  23.622  11.213   7.337
    6AU     AUC 2268  23.654  11.284   7.681
    6AU     AUC 2269  24.613  10.591   7.347
    6AU     AUC 2270  24.566  10.560   7.677
    6AU     AUC 2271  23.578  10.618   7.374
    6AU     AUC 2272  23.639  10.673   7.721
    6AU     AUC 2273  23.977  11.454   7.745
    6AU     AUC 2274  24.305  11.395   7.762
    6AU     AUC 2275  23.916  10.448   7.794
    6AU     AUC 2276  24.232  10.383   7.767
    6AU     AUC 2277  23.944  11.335   7.182
    6AU     AUC 2278  24.329  11.355   7.159
    6AU     AUC 2279  23.900  10.429   7.212
    6AU     AUC 2280  24.290  10.453   7.211
    6AU    AUSL 2281  24.646  10.798   8.241
    6AU    AUSL 2282  24.377  10.384   8.155
    6AU     AUL 2283  24.674  10.398   8.350
    6AU       S 2284  24.745  10.038   8.081
    6AU     LIG 2285  24.630   9.885   8.457
    6AU     LIG 2286  24.841   9.622   8.736
    6AU     LIG 2287  25.098   9.314   8.945
    6AU     LIG 2288  25.385   9.065   9.206
    6AU       S 2289  24.875  10.804   8.363
    6AU     LIG 2290  24.744  10.825   8.804
    6AU     LIG 2291  24.834  10.714   9.244
    6AU     LIG 2292  25.065  10.519   9.617
    6AU     LIG 2293  25.433  10.454   9.913
    6AU    AUSL 2294  24.236  10.713   8.412
    6AU    AUSL 2295  23.985  11.114   8.436
    6AU     AUL 2296  24.175  11.014   8.740
    6AU       S 2297  24.347  10.629   8.568
    6AU     LIG 2298  24.315  10.600   9.015
    6AU     LIG 2299  24.461  10.388   9.407
    6AU     LIG 2300  24.664  10.225   9.798
    6AU     LIG 2301  25.020  10.188  10.099
    6AU       S 2302  23.763  10.851   8.632
    6AU     LIG 2303  23.842  10.852   9.104
    6AU     LIG 2304  23.593  10.829   9.497
    6AU     LIG 2305  23.396  10.841   9.922
    6AU     LIG 2306  23.367  11.051  10.342
    6AU    AUSL 2307  24.304  11.086   8.155
    6AU    AUSL 2308  24.747  11.206   8.115
    6AU     AUL 2309  24.537  11.104   8.446
    6AU       S 2310  24.212  11.476   8.605
    6AU     LIG 2311  24.559  11.340   8.892
    6AU     LIG 2312  24.726  11.466   9.321
    6AU     LIG 2313  24.655  11.646   9.772
    6AU     LIG 2314  24.588  11.836  10.215
    6AU       S 2315  24.902  11.349   8.281
    6AU     LIG 2316  25.335  11.402   8.298
    6AU     LIG 2317  25.606  11.616   8.616
    6AU     LIG 2318  25.817  11.876   8.954
    6AU     LIG 2319  26.010  12.191   9.241
    6AU    AUSL 2320  24.636  10.944   6.882
    6AU    AUSL 2321  24.542  11.382   6.828
    6AU     AUL 2322  24.784  11.218   6.617
    6AU       S 2323  24.484  11.085   6.316
    6AU     LIG 2324  24.960  11.068   6.128
    6AU     LIG 2325  25.075  10.789   5.768
    6AU     LIG 2326  25.220  10.573   5.376
    6AU     LIG 2327  25.417  10.609   4.954
    6AU       S 2328  24.882  11.619   6.858
    6AU     LIG 2329  25.037  11.789   6.479
    6AU     LIG 2330  25.245  11.999   6.115
    6AU     LIG 2331  25.492  12.236   5.804
    6AU     LIG 2332  25.738  12.483   5.487
    6AU    AUSL 2333  24.430  10.690   6.579
    6AU    AUSL 2334  24.856  10.574   6.921
    6AU     AUL 2335  24.810  10.747   6.644
    6AU       S 2336  24.942  10.290   6.686
    6AU     LIG 2337  25.076   9.935   6.368
    6AU     LIG 2338  25.319   9.556   6.227
    6AU     LIG 2339  25.566   9.323   5.906
    6AU     LIG 2340  25.865   9.367   5.536
    6AU       S 2341  24.546  10.895   6.290
    6AU     LIG 2342  24.689  10.552   6.045
    6AU     LIG 2343  24.769  10.404   5.588
    6AU     LIG 2344  24.881  10.220   5.155
    6AU     LIG 2345  24.903  10.110   4.686
    6AU    AUSL 2346  24.245  11.071   6.739
    6AU    AUSL 2347  24.012  10.685   6.709
    6AU     AUL 2348  24.149  10.724   6.432
    6AU       S 2349  23.693  10.738   6.295
    6AU     LIG 2350  23.861  10.509   5.977
    6AU     LIG 2351  23.660  10.369   5.590
    6AU     LIG 2352  23.458  10.380   5.175
    6AU     LIG 2353  23.303  10.423   4.754
    6AU       S 2354  24.319  11.174   6.440
    6AU     LIG 2355  24.177  10.967   5.961
    6AU     LIG 2356  24.548  10.879   5.662
    6AU     LIG 2357  24.789  10.821   5.248
    6AU     LIG 2358  24.887  10.899   4.780
    6AU    AUSL 2359  23.581  11.068   8.250
    6AU    AUSL 2360  23.898  11.408   8.126
    6AU     AUL 2361  23.744  11.350   8.455
    6AU       S 2362  23.574  10.968   8.689
    6AU     LIG 2363  23.393  10.632   8.947
    6AU     LIG 2364  23.175  10.555   9.364
    6AU     LIG 2365  22.966  10.565   9.796
    6AU     LIG 2366  22.576  10.595  10.087
    6AU       S 2367  23.499  11.677   8.207
    6AU     LIG 2368  23.683  11.852   8.583
    6AU     LIG 2369  23.521  12.049   8.967
    6AU     LIG 2370  23.171  12.279   9.181
    6AU     LIG 2371  22.863  12.359   9.535
    6AU    AUSL 2372  23.892  10.777   8.157
    6AU    AUSL 2373  23.467  10.640   8.155
    6AU     AUL 2374  23.385  10.868   8.281
    6AU       S 2375  23.370  10.412   8.418
    6AU     LIG 2376  22.929  10.159   8.316
    6AU     LIG 2377  22.646   9.795   8.465
    6AU     LIG 2378  22.398   9.515   8.770
    6AU     LIG 2379  22.044   9.231   8.921
    6AU       S 2380  23.767  10.715   8.554
    6AU     LIG 2381  23.854  10.402   8.882
    6AU     LIG 2382  23.676  10.356   9.309
    6AU     LIG 2383  23.473  10.363   9.739
    6AU     LIG 2384  23.236  10.270  10.138
    6AU    AUSL 2385  23.600  10.819   6.783
    6AU    AUSL 2386  23.790  10.446   6.987
    6AU     AUL 2387  23.787  10.446   6.634
    6AU       S 2388  23.464  10.711   6.426
    6AU     LIG 2389  23.328  10.511   6.016
    6AU     LIG 2390  23.185  10.591   5.569
    6AU     LIG 2391  22.964  10.560   5.141
    6AU     LIG 2392  22.623  10.658   4.815
    6AU       S 2393  23.377  10.335   6.797
    6AU     LIG 2394  23.413  10.005   6.538
    6AU     LIG 2395  23.103   9.719   6.370
    6AU     LIG 2396  22.757   9.480   6.182
    6AU     LIG 2397  22.594   9.086   5.988
    6AU    AUSL 2398  23.862  11.102   6.550
    6AU    AUSL 2399  23.382  11.177   6.922
    6AU     AUL 2400  23.500  11.135   6.604
    6AU       S 2401  23.109  11.366   6.752
    6AU     LIG 2402  22.920  11.744   6.498
    6AU     LIG 2403  22.991  12.031   6.120
    6AU     LIG 2404  22.739  12.104   5.713
    6AU     LIG 2405  22.362  11.954   5.431
    6AU       S 2406  23.771  10.966   6.264
    6AU     LIG 2407  23.590  10.920   5.831
    6AU     LIG 2408  23.595  10.844   5.385
    6AU     LIG 2409  23.366  10.875   4.996
    6AU     LIG 2410  23.497  10.867   4.546
    6AU    AUSL 2411  24.905  11.411   7.522
    6AU    AUSL 2412  24.890  11.216   7.100
    6AU     AUL 2413  25.178  11.544   7.347
    6AU       S 2414  24.991  11.352   6.994
    6AU     LIG 2415  25.271  11.349   6.645
    6AU     LIG 2416  25.480  11.569   6.306
    6AU     LIG 2417  25.750  11.860   6.077
    6AU     LIG 2418  26.005  12.164   5.827
    6AU       S 2419  25.286  11.290   7.734
    6AU     LIG 2420  25.646  11.524   7.602
    6AU     LIG 2421  26.081  11.663   7.543
    6AU     LIG 2422  26.395  11.932   7.732
    6AU     LIG 2423  26.756  12.185   7.664
    6AU    AUSL 2424  25.110  11.002   7.406
    6AU    AUSL 2425  25.044  10.673   7.722
    6AU     AUL 2426  25.408  10.785   7.738
    6AU       S 2427  25.254  11.097   7.450
    6AU     LIG 2428  25.746  11.062   7.420
    6AU     LIG 2429  26.207  11.237   7.266
    6AU     LIG 2430  26.708  11.295   7.182
    6AU     LIG 2431  27.128  11.518   7.088
    6AU       S 2432  25.296  10.381   7.552
    6AU     LIG 2433  25.741  10.326   7.726
    6AU     LIG 2434  26.205  10.179   7.802
    6AU     LIG 2435  26.635   9.957   7.920
    6AU     LIG 2436  27.087   9.883   7.951
    6AU    AUSL 2437  24.808  11.033   7.731
    6AU    AUSL 2438  24.553  11.423   7.779
    6AU     AUL 2439  24.877  11.484   7.827
    6AU       S 2440  24.873  11.653   8.253
    6AU     LIG 2441  25.210  11.896   8.420
    6AU     LIG 2442  25.529  12.146   8.629
    6AU     LIG 2443  25.807  12.446   8.838
    6AU     LIG 2444  25.985  12.862   8.759
    6AU       S 2445  25.146  11.121   7.880
    6AU     LIG 2446  25.679  11.136   7.965
    6AU     LIG 2447  26.122  11.196   7.773
    6AU     LIG 2448  26.536  11.439   7.673
    6AU     LIG 2449  26.860  11.725   7.872
    6AU    AUSL 2450  23.471  11.507   7.500
    6AU    AUSL 2451  23.540  11.296   7.892
    6AU     AUL 2452  23.247  11.626   7.737
    6AU       S 2453  23.379  11.468   8.150
    6AU     LIG 2454  23.251  11.551   8.614
    6AU     LIG 2455  23.031  11.883   8.868
    6AU     LIG 2456  22.699  12.023   9.175
    6AU     LIG 2457  22.340  12.043   9.489
    6AU       S 2458  23.490  11.891   7.422
    6AU     LIG 2459  23.024  11.892   7.333
    6AU     LIG 2460  22.570  12.092   7.388
    6AU     LIG 2461  22.144  12.355   7.394
    6AU     LIG 2462  21.701  12.529   7.269
    6AU    AUSL 2463  23.425  11.097   7.334
    6AU    AUSL 2464  23.549  11.560   7.079
    6AU     AUL 2465  23.249  11.449   7.199
    6AU       S 2466  23.030  10.892   6.977
    6AU     LIG 2467  22.663  11.191   7.049
    6AU     LIG 2468  22.172  11.224   7.121
    6AU     LIG 2469  21.770  11.402   6.875
    6AU     LIG 2470  21.439  11.509   6.533
    6AU       S 2471  23.391  11.803   6.907
    6AU     LIG 2472  23.244  12.128   6.621
    6AU     LIG 2473  23.154  12.467   6.343
    6AU     LIG 2474  23.096  12.861   6.121
    6AU     LIG 2475  22.841  13.233   6.213
    6AU    AUSL 2476  23.181  11.170   7.701
    6AU    AUSL 2477  23.136  10.791   7.423
    6AU     AUL 2478  23.025  11.102   7.407
    6AU       S 2479  22.942  10.726   7.700
    6AU     LIG 2480  22.590  10.862   7.434
    6AU     LIG 2481  22.163  10.719   7.330
    6AU     LIG 2482  21.828  10.453   7.157
    6AU     LIG 2483  21.373  10.330   7.177
    6AU       S 2484  23.037  11.210   7.900
    6AU     LIG 2485  22.553  11.191   7.842
    6AU     LIG 2486  22.104  11.377   7.995
    6AU     LIG 2487  21.606  11.462   8.071
    6AU     LIG 2488  21.111  11.497   8.045
    6AU    AUSL 2489  24.827  10.319   7.549
    6AU    AUSL 2490  24.647  10.585   7.871
    6AU     AUL 2491  24.973  10.482   7.947
    6AU       S 2492  25.122  10.210   7.571
    6AU     LIG 2493  25.447   9.901   7.549
    6AU     LIG 2494  25.888   9.848   7.549
    6AU     LIG 2495  26.331   9.750   7.559
    6AU     LIG 2496  26.637   9.440   7.494
    6AU       S 2497  24.857  10.044   7.959
    6AU     LIG 2498  25.136   9.854   8.317
    6AU     LIG 2499  25.360   9.668   8.668
    6AU     LIG 2500  25.626   9.423   8.934
    6AU     LIG 2501  25.900   9.439   9.313
    6AU    AUSL 2502  24.816  10.701   7.327
    6AU    AUSL 2503  24.698  10.218   7.143
    6AU     AUL 2504  24.967  10.365   7.165
    6AU       S 2505  25.324  10.564   7.337
    6AU     LIG 2506  25.690  10.259   7.228
    6AU     LIG 2507  26.170  10.151   7.246
    6AU     LIG 2508  26.535   9.850   7.108
    6AU     LIG 2509  26.914   9.763   6.851
    6AU       S 2510  24.895  10.059   6.814
    6AU     LIG 2511  24.904   9.615   6.773
    6AU     LIG 2512  25.127   9.249   6.595
    6AU     LIG 2513  25.393   9.015   6.294
    6AU     LIG 2514  25.458   8.635   6.027
    6AU    AUSL 2515  23.332  10.420   7.582
    6AU    AUSL 2516  23.442  10.657   7.153
    6AU     AUL 2517  23.094  10.497   7.297
    6AU       S 2518  23.288  10.478   6.873
    6AU     LIG 2519  22.945  10.247   6.581
    6AU     LIG 2520  22.628   9.900   6.487
    6AU     LIG 2521  22.270   9.608   6.330
    6AU     LIG 2522  21.897   9.437   6.063
    6AU       S 2523  22.921  10.487   7.744
    6AU     LIG 2524  22.574  10.362   7.481
    6AU     LIG 2525  22.149  10.192   7.492
    6AU     LIG 2526  21.909   9.816   7.658
    6AU     LIG 2527  21.680   9.487   7.437
    6AU    AUSL 2528  23.419  10.816   7.767
    6AU    AUSL 2529  23.679  10.427   7.839
    6AU     AUL 2530  23.337  10.398   7.924
    6AU       S 2531  23.409  10.205   8.341
    6AU     LIG 2532  23.313   9.819   8.121
    6AU     LIG 2533  22.983   9.505   8.174
    6AU     LIG 2534  22.681   9.253   8.430
    6AU     LIG 2535  22.426   8.961   8.698
    6AU       S 2536  23.015  10.733   7.891
    6AU     LIG 2537  22.476  10.676   7.896
    6AU     LIG 2538  21.997  10.586   7.803
    6AU     LIG 2539  21.528  10.553   7.972
    6AU     LIG 2540  21.151  10.291   8.054
    6AU    AUSL 2541  24.166  11.649   7.884
    6AU    AUSL 2542  23.731  11.679   7.806
    6AU     AUL 2543  23.966  11.726   8.175
    6AU       S 2544  23.601  11.885   7.924
    6AU     LIG 2545  23.497  12.198   8.262
    6AU     LIG 2546  23.250  12.335   8.637
    6AU     LIG 2547  23.054  12.694   8.875
    6AU     LIG 2548  22.891  13.147   8.930
    6AU       S 2549  24.161  12.067   7.934
    6AU     LIG 2550  24.070  12.191   8.343
    6AU     LIG 2551  24.230  12.561   8.544
    6AU     LIG 2552  24.160  12.980   8.733
    6AU     LIG 2553  24.110  13.238   9.120
    6AU    AUSL 2554  24.005  11.875   7.531
    6AU    AUSL 2555  24.295  11.791   7.171
    6AU     AUL 2556  24.236  12.136   7.317
    6AU       S 2557  24.007  12.104   7.739
    6AU     LIG 2558  24.067  12.549   7.973
    6AU     LIG 2559  24.026  12.915   8.235
    6AU     LIG 2560  23.780  13.290   8.257
    6AU     LIG 2561  23.601  13.720   8.302
    6AU       S 2562  24.020  11.961   6.954
    6AU     LIG 2563  24.453  12.212   6.873
    6AU     LIG 2564  24.521  12.707   6.820
    6AU     LIG 2565  24.714  13.192   6.823
    6AU     LIG 2566  24.881  13.659   6.687
    6AU    AUSL 2567  24.458  11.791   7.582
    6AU    AUSL 2568  24.413  11.497   8.199
    6AU     AUL 2569  24.514  11.759   7.966
    6AU       S 2570  24.653  11.582   8.407
    6AU     LIG 2571  25.010  11.542   8.735
    6AU     LIG 2572  25.286  11.830   8.965
    6AU     LIG 2573  25.474  12.212   9.156
    6AU     LIG 2574  25.682  12.564   9.386
    6AU       S 2575  24.365  12.149   7.764
    6AU     LIG 2576  24.524  12.393   8.129
    6AU     LIG 2577  24.551  12.856   8.231
    6AU     LIG 2578  24.790  13.280   8.160
    6AU     LIG 2579  24.869  13.709   8.323
    6AU    AUSL 2580  24.052  10.198   7.928
    6AU    AUSL 2581  24.464  10.203   7.754
    6AU     AUL 2582  24.286  10.073   8.138
    6AU       S 2583  24.013   9.727   7.993
    6AU     LIG 2584  23.807   9.535   8.339
    6AU     LIG 2585  23.745   9.079   8.355
    6AU     LIG 2586  23.798   8.623   8.328
    6AU     LIG 2587  23.992   8.261   8.540
    6AU       S 2588  24.623   9.960   7.808
    6AU     LIG 2589  24.777   9.547   8.078
    6AU     LIG 2590  25.090   9.327   8.390
    6AU     LIG 2591  25.386   9.023   8.638
    6AU     LIG 2592  25.517   8.553   8.690
    6AU    AUSL 2593  23.724  10.052   7.648
    6AU    AUSL 2594  23.850  10.369   8.262
    6AU     AUL 2595  23.717  10.097   8.017
    6AU       S 2596  23.823   9.678   7.847
    6AU     LIG 2597  23.569   9.332   7.928
    6AU     LIG 2598  23.500   8.877   7.938
    6AU     LIG 2599  23.407   8.440   8.032
    6AU     LIG 2600  23.550   8.005   7.967
    6AU       S 2601  23.647  10.249   8.463
    6AU     LIG 2602  23.445   9.809   8.622
    6AU     LIG 2603  23.046   9.552   8.690
    6AU     LIG 2604  22.798   9.232   8.943
    6AU     LIG 2605  22.515   8.954   9.207
    6AU    AUSL 2606  24.163   9.938   7.593
    6AU    AUSL 2607  23.910  10.087   7.251
    6AU     AUL 2608  23.788   9.822   7.410
    6AU       S 2609  24.152   9.784   7.129
    6AU     LIG 2610  23.883   9.381   7.196
    6AU     LIG 2611  23.672   8.948   7.111
    6AU     LIG 2612  23.618   8.547   6.842
    6AU     LIG 2613  23.436   8.097   6.748
    6AU       S 2614  24.156   9.747   7.733
    6AU     LIG 2615  24.074   9.277   7.683
    6AU     LIG 2616  24.024   8.862   7.919
    6AU     LIG 2617  24.173   8.406   8.031
    6AU     LIG 2618  24.433   8.129   8.296
    6AU    AUSL 2619  24.127  11.520   6.846
    6AU    AUSL 2620  24.571  11.476   7.254
    6AU     AUL 2621  24.428  11.704   6.868
    6AU       S 2622  24.031  11.927   6.738
    6AU     LIG 2623  24.115  12.274   6.487
    6AU     LIG 2624  24.076  12.700   6.361
    6AU     LIG 2625  23.977  13.030   6.054
    6AU     LIG 2626  24.201  13.291   5.724
    6AU       S 2627  24.797  11.702   7.143
    6AU     LIG 2628  25.246  11.913   6.964
    6AU     LIG 2629  25.502  12.033   6.563
    6AU     LIG 2630  25.740  12.335   6.264
    6AU     LIG 2631  26.157  12.556   6.137
    6AU    AUSL 2632  23.933  11.560   7.253
    6AU    AUSL 2633  23.823  11.233   6.953
    6AU     AUL 2634  23.785  11.541   6.809
    6AU       S 2635  23.846  11.943   7.076
    6AU     LIG 2636  24.023  12.441   6.974
    6AU     LIG 2637  24.020  12.878   6.829
    6AU     LIG 2638  23.675  13.193   6.790
    6AU     LIG 2639  23.519  13.641   6.832
    6AU       S 2640  23.354  11.577   6.656
    6AU     LIG 2641  23.631  11.860   6.435
    6AU     LIG 2642  23.528  12.178   6.137
    6AU     LIG 2643  23.279  12.445   5.842
    6AU     LIG 2644  22.959  12.607   5.556
    6AU    AUSL 2645  24.128  10.197   6.879
    6AU    AUSL 2646  23.505  10.221   7.240
    6AU     AUL 2647  23.760  10.062   6.943
    6AU       S 2648  23.311  10.182   7.022
    6AU     LIG 2649  23.032   9.834   6.873
    6AU     LIG 2650  22.779   9.459   6.703
    6AU     LIG 2651  22.487   9.144   6.490
    6AU     LIG 2652  22.346   8.704   6.330
    6AU       S 2653  24.167   9.795   6.911
    6AU     LIG 2654  24.173   9.354   6.772
    6AU     LIG 2655  23.947   8.946   6.666
    6AU     LIG 2656  23.932   8.566   6.393
    6AU     LIG 2657  24.018   8.434   5.930
    6AU    AUSL 2658  24.311  10.224   7.306
    6AU    AUSL 2659  24.409  10.513   6.965
    6AU     AUL 2660  24.453  10.161   6.907
    6AU       S 2661  24.396   9.821   7.213
    6AU     LIG 2662  24.391   9.357   7.256
    6AU     LIG 2663  24.193   8.951   7.119
    6AU     LIG 2664  24.222   8.533   6.878
    6AU     LIG 2665  24.544   8.154   6.858
    6AU       S 2666  24.699  10.289   6.551
    6AU     LIG 2667  24.567   9.858   6.469
    6AU     LIG 2668  24.797   9.489   6.271
    6AU     LIG 2669  25.037   9.202   5.968
    6AU     LIG 2670  25.299   8.960   5.647
    7AU     AUC 2671  19.255  27.288   7.497
    7AU     AUC 2672  19.548  27.286   7.329
    7AU     AUC 2673  19.512  27.276   7.668
    7AU     AUC 2674  18.981  27.279   7.336
    7AU     AUC 2675  18.992  27.329   7.680
    7AU     AUC 2676  19.089  27.563   7.495
    7AU     AUC 2677  19.436  27.553   7.484
    7AU     AUC 2678  19.064  27.022   7.500
    7AU     AUC 2679  19.419  27.014   7.503
    7AU     AUC 2680  19.257  27.114   7.763
    7AU     AUC 2681  19.248  27.482   7.750
    7AU     AUC 2682  19.253  27.124   7.230
    7AU     AUC 2683  19.286  27.439   7.224
    7AU     AUC 2684  19.884  27.281   7.179
    7AU     AUC 2685  19.873  27.265   7.517
    7AU     AUC 2686  19.805  27.251   7.870
    7AU     AUC 2687  18.663  27.287   7.175
    7AU     AUC 2688  18.646  27.330   7.536
    7AU     AUC 2689  18.703  27.374   7.865
    7AU     AUC 2690  18.936  27.887   7.463
    7AU     AUC 2691  19.288  27.907   7.436
    7AU     AUC 2692  19.613  27.843   7.471
    7AU     AUC 2693  18.861  26.742   7.501
    7AU     AUC 2694  19.191  26.679   7.470
    7AU     AUC 2695  19.580  26.690   7.481
    7AU     AUC 2696  19.238  26.939   8.062
    7AU     AUC 2697  19.254  27.300   8.096
    7AU     AUC 2698  19.282  27.659   8.042
    7AU     AUC 2699  19.283  26.957   6.946
    7AU     AUC 2700  19.274  27.267   6.887
    7AU     AUC 2701  19.279  27.585   6.919
    7AU     AUC 2702  19.524  27.053   7.989
    7AU     AUC 2703  19.552  27.438   7.990
    7AU     AUC 2704  19.601  27.111   7.017
    7AU     AUC 2705  19.604  27.457   7.031
    7AU     AUC 2706  18.957  27.182   8.016
    7AU     AUC 2707  18.981  27.555   7.981
    7AU     AUC 2708  18.952  27.109   7.044
    7AU     AUC 2709  18.937  27.417   6.996
    7AU     AUC 2710  19.797  27.564   7.330
    7AU     AUC 2711  19.724  27.547   7.692
    7AU     AUC 2712  18.765  27.593   7.335
    7AU     AUC 2713  18.797  27.665   7.681
    7AU     AUC 2714  19.758  26.970   7.347
    7AU     AUC 2715  19.709  26.941   7.675
    7AU     AUC 2716  18.720  27.000   7.372
    7AU     AUC 2717  18.780  27.054   7.719
    7AU     AUC 2718  19.118  27.834   7.746
    7AU     AUC 2719  19.446  27.776   7.762
    7AU     AUC 2720  19.055  26.828   7.792
    7AU     AUC 2721  19.374  26.763   7.766
    7AU     AUC 2722  19.086  27.716   7.180
    7AU     AUC 2723  19.472  27.737   7.159
    7AU     AUC 2724  19.043  26.809   7.211
    7AU     AUC 2725  19.432  26.834   7.211
    7AU    AUSL 2726  19.791  27.179   8.239
    7AU    AUSL 2727  19.521  26.761   8.154
    7AU     AUL 2728  19.820  26.777   8.344
    7AU       S 2729  19.886  26.411   8.082
    7AU     LIG 2730  19.774  26.254   8.457
    7AU     LIG 2731  20.008  26.007   8.745
    7AU     LIG 2732  20.259  25.705   8.978
    7AU     LIG 2733  20.474  25.559   9.369
    7AU       S 2734  20.018  27.185   8.371
    7AU     LIG 2735  19.892  27.187   8.823
    7AU     LIG 2736  20.081  27.051   9.246
    7AU     LIG 2737  20.404  26.887   9.571
    7AU     LIG 2738  20.689  26.790   9.940
    7AU    AUSL 2739  19.380  27.091   8.408
    7AU    AUSL 2740  19.130  27.490   8.435
    7AU     AUL 2741  19.315  27.390   8.739
    7AU       S 2742  19.496  27.011   8.564
    7AU     LIG 2743  19.428  26.954   8.983
    7AU     LIG 2744  19.661  26.755   9.322
    7AU     LIG 2745  19.961  26.641   9.661
    7AU     LIG 2746  20.227  26.489  10.025
    7AU       S 2747  18.904  27.222   8.631
    7AU     LIG 2748  18.974  27.221   9.104
    7AU     LIG 2749  18.685  27.169   9.467
    7AU     LIG 2750  18.440  27.218   9.866
    7AU     LIG 2751  18.274  27.484  10.208
    7AU    AUSL 2752  19.447  27.465   8.153
    7AU    AUSL 2753  19.890  27.589   8.116
    7AU     AUL 2754  19.678  27.483   8.446
    7AU       S 2755  19.354  27.852   8.607
    7AU     LIG 2756  19.700  27.710   8.885
    7AU     LIG 2757  19.926  27.835   9.272
    7AU     LIG 2758  19.854  27.932   9.737
    7AU     LIG 2759  19.823  27.918  10.213
    7AU       S 2760  20.042  27.731   8.283
    7AU     LIG 2761  20.474  27.785   8.304
    7AU     LIG 2762  20.738  27.981   8.636
    7AU     LIG 2763  20.936  28.197   9.004
    7AU     LIG 2764  21.118  28.494   9.316
    7AU    AUSL 2765  19.788  27.324   6.882
    7AU    AUSL 2766  19.687  27.761   6.824
    7AU     AUL 2767  19.952  27.587   6.618
    7AU       S 2768  19.626  27.484   6.331
    7AU     LIG 2769  20.083  27.465   6.099
    7AU     LIG 2770  20.237  27.165   5.782
    7AU     LIG 2771  20.351  26.945   5.389
    7AU     LIG 2772  20.629  26.864   5.019
    7AU       S 2773  20.016  28.003   6.843
    7AU     LIG 2774  20.186  28.173   6.463
    7AU     LIG 2775  20.389  28.384   6.098
    7AU     LIG 2776  20.600  28.606   5.753
    7AU     LIG 2777  20.668  28.929   5.419
    7AU    AUSL 2778  19.578  27.074   6.580
    7AU    AUSL 2779  19.998  26.948   6.922
    7AU     AUL 2780  19.957  27.117   6.646
    7AU       S 2781  20.079  26.662   6.687
    7AU     LIG 2782  20.230  26.429   6.301
    7AU     LIG 2783  20.489  26.070   6.129
    7AU     LIG 2784  20.787  25.813   5.857
    7AU     LIG 2785  21.197  25.803   5.613
    7AU       S 2786  19.692  27.292   6.307
    7AU     LIG 2787  19.875  26.938   6.105
    7AU     LIG 2788  19.945  26.749   5.667
    7AU     LIG 2789  20.041  26.543   5.242
    7AU     LIG 2790  19.950  26.423   4.787
    7AU    AUSL 2791  19.390  27.447   6.749
    7AU    AUSL 2792  19.157  27.061   6.704
    7AU     AUL 2793  19.296  27.105   6.431
    7AU       S 2794  18.837  27.117   6.297
    7AU     LIG 2795  18.960  26.842   6.010
    7AU     LIG 2796  18.755  26.715   5.622
    7AU     LIG 2797  18.553  26.718   5.200
    7AU     LIG 2798  18.451  26.697   4.739
    7AU       S 2799  19.468  27.556   6.447
    7AU     LIG 2800  19.332  27.345   5.972
    7AU     LIG 2801  19.717  27.238   5.709
    7AU     LIG 2802  19.967  27.304   5.312
    7AU     LIG 2803  19.956  27.568   4.904
    7AU    AUSL 2804  18.726  27.447   8.251
    7AU    AUSL 2805  19.039  27.786   8.129
    7AU     AUL 2806  18.891  27.722   8.459
    7AU       S 2807  18.719  27.339   8.688
    7AU     LIG 2808  18.510  27.022   8.944
    7AU     LIG 2809  18.251  26.917   9.328
    7AU     LIG 2810  18.019  26.966   9.732
    7AU     LIG 2811  17.914  27.099  10.163
    7AU       S 2812  18.639  28.033   8.213
    7AU     LIG 2813  18.784  28.209   8.581
    7AU     LIG 2814  18.557  28.485   8.867
    7AU     LIG 2815  18.241  28.694   9.141
    7AU     LIG 2816  17.965  29.020   9.332
    7AU    AUSL 2817  19.034  27.153   8.156
    7AU    AUSL 2818  18.606  27.023   8.151
    7AU     AUL 2819  18.526  27.255   8.278
    7AU       S 2820  18.514  26.803   8.414
    7AU     LIG 2821  18.069  26.697   8.233
    7AU     LIG 2822  17.846  26.297   8.355
    7AU     LIG 2823  17.624  25.991   8.641
    7AU     LIG 2824  17.422  25.788   9.023
    7AU       S 2825  18.912  27.090   8.552
    7AU     LIG 2826  18.950  26.766   8.893
    7AU     LIG 2827  18.728  26.685   9.297
    7AU     LIG 2828  18.514  26.723   9.725
    7AU     LIG 2829  18.262  26.703  10.123
    7AU    AUSL 2830  18.749  27.200   6.781
    7AU    AUSL 2831  18.938  26.828   6.990
    7AU     AUL 2832  18.930  26.825   6.635
    7AU       S 2833  18.605  27.092   6.431
    7AU     LIG 2834  18.436  26.841   6.080
    7AU     LIG 2835  18.278  26.904   5.628
    7AU     LIG 2836  18.091  26.949   5.188
    7AU     LIG 2837  17.739  27.022   4.870
    7AU       S 2838  18.521  26.711   6.798
    7AU     LIG 2839  18.547  26.403   6.515
    7AU     LIG 2840  18.238  26.105   6.357
    7AU     LIG 2841  17.906  25.904   6.108
    7AU     LIG 2842  17.866  25.759   5.660
    7AU    AUSL 2843  19.013  27.482   6.547
    7AU    AUSL 2844  18.524  27.554   6.919
    7AU     AUL 2845  18.653  27.520   6.596
    7AU       S 2846  18.257  27.727   6.758
    7AU     LIG 2847  18.040  28.006   6.448
    7AU     LIG 2848  18.072  28.263   6.064
    7AU     LIG 2849  17.797  28.372   5.695
    7AU     LIG 2850  17.371  28.265   5.504
    7AU       S 2851  18.912  27.336   6.254
    7AU     LIG 2852  18.674  27.241   5.841
    7AU     LIG 2853  18.644  27.185   5.387
    7AU     LIG 2854  18.504  27.178   4.942
    7AU     LIG 2855  18.440  27.382   4.521
    7AU    AUSL 2856  20.044  27.796   7.522
    7AU    AUSL 2857  20.036  27.604   7.100
    7AU     AUL 2858  20.318  27.930   7.355
    7AU       S 2859  20.131  27.766   6.990
    7AU     LIG 2860  20.448  27.778   6.674
    7AU     LIG 2861  20.648  27.974   6.304
    7AU     LIG 2862  20.897  28.284   6.055
    7AU     LIG 2863  21.111  28.604   5.782
    7AU       S 2864  20.443  27.679   7.732
    7AU     LIG 2865  20.880  27.867   7.594
    7AU     LIG 2866  21.362  27.982   7.502
    7AU     LIG 2867  21.800  28.143   7.454
    7AU     LIG 2868  21.947  28.559   7.292
    7AU    AUSL 2869  20.252  27.388   7.408
    7AU    AUSL 2870  20.185  27.056   7.723
    7AU     AUL 2871  20.544  27.161   7.737
    7AU       S 2872  20.396  27.483   7.458
    7AU     LIG 2873  20.875  27.387   7.430
    7AU     LIG 2874  21.326  27.528   7.282
    7AU     LIG 2875  21.668  27.824   7.067
    7AU     LIG 2876  22.133  28.036   7.073
    7AU       S 2877  20.442  26.757   7.547
    7AU     LIG 2878  20.908  26.647   7.639
    7AU     LIG 2879  21.304  26.376   7.705
    7AU     LIG 2880  21.782  26.354   7.734
    7AU     LIG 2881  22.141  26.479   8.052
    7AU    AUSL 2882  19.949  27.417   7.732
    7AU    AUSL 2883  19.695  27.806   7.781
    7AU     AUL 2884  20.024  27.863   7.828
    7AU       S 2885  20.016  28.036   8.254
    7AU     LIG 2886  20.358  28.281   8.447
    7AU     LIG 2887  20.695  28.518   8.674
    7AU     LIG 2888  20.856  28.922   8.871
    7AU     LIG 2889  20.912  29.383   8.736
    7AU       S 2890  20.292  27.503   7.885
    7AU     LIG 2891  20.820  27.502   7.976
    7AU     LIG 2892  21.276  27.603   7.831
    7AU     LIG 2893  21.690  27.871   7.902
    7AU     LIG 2894  21.991  28.253   7.918
    7AU    AUSL 2895  18.618  27.889   7.501
    7AU    AUSL 2896  18.683  27.671   7.890
    7AU     AUL 2897  18.393  28.008   7.741
    7AU       S 2898  18.512  27.839   8.155
    7AU     LIG 2899  18.317  27.954   8.577
    7AU     LIG 2900  18.088  28.281   8.809
    7AU     LIG 2901  17.779  28.471   9.101
    7AU     LIG 2902  17.404  28.484   9.383
    7AU       S 2903  18.630  28.268   7.423
    7AU     LIG 2904  18.145  28.290   7.388
    7AU     LIG 2905  17.699  28.521   7.495
    7AU     LIG 2906  17.292  28.817   7.598
    7AU     LIG 2907  16.897  29.016   7.819
    7AU    AUSL 2908  18.570  27.480   7.332
    7AU    AUSL 2909  18.689  27.937   7.079
    7AU     AUL 2910  18.393  27.833   7.201
    7AU       S 2911  18.174  27.266   6.970
    7AU     LIG 2912  17.831  27.579   7.041
    7AU     LIG 2913  17.407  27.777   7.002
    7AU     LIG 2914  16.964  27.910   6.913
    7AU     LIG 2915  16.578  28.119   6.984
    7AU       S 2916  18.527  28.183   6.894
    7AU     LIG 2917  18.333  28.433   6.522
    7AU     LIG 2918  18.162  28.753   6.215
    7AU     LIG 2919  17.950  29.141   6.026
    7AU     LIG 2920  17.716  29.570   6.066
    7AU    AUSL 2921  18.323  27.554   7.695
    7AU    AUSL 2922  18.278  27.174   7.417
    7AU     AUL 2923  18.166  27.482   7.398
    7AU       S 2924  18.077  27.110   7.690
    7AU     LIG 2925  17.704  27.202   7.402
    7AU     LIG 2926  17.249  27.005   7.301
    7AU     LIG 2927  16.843  26.729   7.256
    7AU     LIG 2928  16.484  26.504   7.032
    7AU       S 2929  18.171  27.597   7.888
    7AU     LIG 2930  17.710  27.622   7.732
    7AU     LIG 2931  17.257  27.881   7.771
    7AU     LIG 2932  16.822  28.097   7.919
    7AU     LIG 2933  16.397  28.176   8.102
    7AU    AUSL 2934  19.971  26.700   7.549
    7AU    AUSL 2935  19.787  26.966   7.869
    7AU     AUL 2936  20.115  26.864   7.945
    7AU       S 2937  20.271  26.594   7.573
    7AU     LIG 2938  20.573  26.257   7.547
    7AU     LIG 2939  20.983  26.065   7.455
    7AU     LIG 2940  21.386  25.840   7.586
    7AU     LIG 2941  21.616  25.483   7.830
    7AU       S 2942  20.001  26.426   7.961
    7AU     LIG 2943  20.283  26.240   8.329
    7AU     LIG 2944  20.529  26.048   8.687
    7AU     LIG 2945  20.755  25.874   9.061
    7AU     LIG 2946  21.003  25.963   9.461
    7AU    AUSL 2947  19.962  27.082   7.326
    7AU    AUSL 2948  19.837  26.594   7.146
    7AU     AUL 2949  20.105  26.730   7.165
    7AU       S 2950  20.452  26.952   7.330
    7AU     LIG 2951  20.736  26.594   7.165
    7AU     LIG 2952  21.202  26.456   7.190
    7AU     LIG 2953  21.676  26.448   7.048
    7AU     LIG 2954  22.115  26.556   6.823
    7AU       S 2955  20.036  26.425   6.803
    7AU     LIG 2956  20.195  26.017   6.610
    7AU     LIG 2957  20.377  25.636   6.382
    7AU     LIG 2958  20.742  25.349   6.263
    7AU     LIG 2959  21.029  24.990   6.161
    7AU    AUSL 2960  18.470  26.803   7.577
    7AU    AUSL 2961  18.585  27.038   7.148
    7AU     AUL 2962  18.238  26.878   7.291
    7AU       S 2963  18.440  26.858   6.870
    7AU     LIG 2964  18.124  26.709   6.514
    7AU     LIG 2965  17.801  26.382   6.410
    7AU     LIG 2966  17.458  26.079   6.297
    7AU     LIG 2967  17.336  25.827   5.931
    7AU       S 2968  18.048  26.870   7.732
    7AU     LIG 2969  17.619  26.724   7.565
    7AU     LIG 2970  17.207  26.484   7.565
    7AU     LIG 2971  16.993  26.177   7.859
    7AU     LIG 2972  16.691  25.807   7.808
    7AU    AUSL 2973  18.558  27.198   7.764
    7AU    AUSL 2974  18.815  26.808   7.836
    7AU     AUL 2975  18.468  26.786   7.918
    7AU       S 2976  18.536  26.587   8.332
    7AU     LIG 2977  18.334  26.229   8.152
    7AU     LIG 2978  18.046  25.848   8.178
    7AU     LIG 2979  17.768  25.541   8.413
    7AU     LIG 2980  17.532  25.267   8.719
    7AU       S 2981  18.150  27.121   7.884
    7AU     LIG 2982  17.619  27.112   7.904
    7AU     LIG 2983  17.148  26.934   7.810
    7AU     LIG 2984  16.749  26.660   7.775
    7AU     LIG 2985  16.492  26.275   7.934
    7AU    AUSL 2986  19.306  28.027   7.884
    7AU    AUSL 2987  18.869  28.062   7.814
    7AU     AUL 2988  19.105  28.109   8.174
    7AU       S 2989  18.714  28.280   7.970
    7AU     LIG 2990  18.390  28.446   8.344
    7AU     LIG 2991  18.159  28.769   8.638
    7AU     LIG 2992  17.977  29.193   8.825
    7AU     LIG 2993  17.791  29.653   8.736
    7AU       S 2994  19.308  28.445   7.929
    7AU     LIG 2995  19.385  28.510   8.333
    7AU     LIG 2996  19.446  28.931   8.500
    7AU     LIG 2997  19.479  29.380   8.615
    7AU     LIG 2998  19.416  29.824   8.751
    7AU    AUSL 2999  19.141  28.251   7.533
    7AU    AUSL 3000  19.435  28.174   7.171
    7AU     AUL 3001  19.361  28.514   7.318
    7AU       S 3002  19.142  28.483   7.748
    7AU     LIG 3003  19.246  28.934   8.001
    7AU     LIG 3004  19.242  29.411   8.143
    7AU     LIG 3005  19.052  29.874   8.119
    7AU     LIG 3006  18.719  30.242   8.063
    7AU       S 3007  19.158  28.349   6.941
    7AU     LIG 3008  19.539  28.646   6.873
    7AU     LIG 3009  19.641  29.128   6.818
    7AU     LIG 3010  19.832  29.598   6.789
    7AU     LIG 3011  20.077  30.041   6.747
    7AU    AUSL 3012  19.596  28.171   7.582
    7AU    AUSL 3013  19.553  27.877   8.200
    7AU     AUL 3014  19.657  28.137   7.968
    7AU       S 3015  19.794  27.963   8.409
    7AU     LIG 3016  20.148  27.916   8.740
    7AU     LIG 3017  20.411  28.197   8.984
    7AU     LIG 3018  20.611  28.569   9.183
    7AU     LIG 3019  20.819  28.913   9.414
    7AU       S 3020  19.510  28.521   7.757
    7AU     LIG 3021  19.733  28.773   8.061
    7AU     LIG 3022  19.729  29.224   8.178
    7AU     LIG 3023  19.692  29.692   8.259
    7AU     LIG 3024  19.884  30.122   8.306
    7AU    AUSL 3025  19.194  26.585   7.923
    7AU    AUSL 3026  19.608  26.582   7.752
    7AU     AUL 3027  19.427  26.453   8.135
    7AU       S 3028  19.145  26.115   7.992
    7AU     LIG 3029  19.164  25.814   8.296
    7AU     LIG 3030  18.971  25.431   8.437
    7AU     LIG 3031  18.991  24.979   8.466
    7AU     LIG 3032  18.811  24.608   8.679
    7AU       S 3033  19.767  26.338   7.807
    7AU     LIG 3034  19.936  25.923   8.076
    7AU     LIG 3035  20.255  25.717   8.395
    7AU     LIG 3036  20.624  25.525   8.659
    7AU     LIG 3037  20.930  25.166   8.793
    7AU    AUSL 3038  18.868  26.434   7.643
    7AU    AUSL 3039  18.983  26.745   8.258
    7AU     AUL 3040  18.845  26.478   8.007
    7AU       S 3041  18.960  26.050   7.853
    7AU     LIG 3042  18.790  25.635   7.985
    7AU     LIG 3043  18.666  25.184   8.085
    7AU     LIG 3044  18.705  24.722   8.131
    7AU     LIG 3045  18.969  24.356   8.269
    7AU       S 3046  18.779  26.630   8.455
    7AU     LIG 3047  18.556  26.208   8.633
    7AU     LIG 3048  18.146  25.962   8.667
    7AU     LIG 3049  17.901  25.631   8.904
    7AU     LIG 3050  17.824  25.311   9.237
    7AU    AUSL 3051  19.305  26.318   7.593
    7AU    AUSL 3052  19.052  26.458   7.245
    7AU     AUL 3053  18.933  26.196   7.414
    7AU       S 3054  19.290  26.167   7.123
    7AU     LIG 3055  18.987  25.783   7.110
    7AU     LIG 3056  18.801  25.333   7.017
    7AU     LIG 3057  18.728  24.863   6.905
    7AU     LIG 3058  18.932  24.467   6.729
    7AU       S 3059  19.297  26.127   7.742
    7AU     LIG 3060  19.278  25.653   7.785
    7AU     LIG 3061  19.173  25.234   7.999
    7AU     LIG 3062  19.228  24.757   8.059
    7AU     LIG 3063  19.473  24.361   8.193
    7AU    AUSL 3064  19.271  27.901   6.845
    7AU    AUSL 3065  19.711  27.859   7.250
    7AU     AUL 3066  19.566  28.090   6.871
    7AU       S 3067  19.169  28.303   6.716
    7AU     LIG 3068  19.198  28.724   6.500
    7AU     LIG 3069  19.398  29.129   6.348
    7AU     LIG 3070  19.518  29.420   5.973
    7AU     LIG 3071  19.553  29.822   5.698
    7AU       S 3072  19.942  28.088   7.137
    7AU     LIG 3073  20.411  28.256   6.945
    7AU     LIG 3074  20.642  28.433   6.547
    7AU     LIG 3075  20.807  28.765   6.230
    7AU     LIG 3076  21.014  29.211   6.217
    7AU    AUSL 3077  19.075  27.940   7.249
    7AU    AUSL 3078  18.966  27.613   6.950
    7AU     AUL 3079  18.924  27.919   6.806
    7AU       S 3080  18.984  28.316   7.072
    7AU     LIG 3081  19.064  28.832   6.989
    7AU     LIG 3082  19.138  29.298   6.797
    7AU     LIG 3083  19.057  29.809   6.745
    7AU     LIG 3084  19.163  30.259   6.561
    7AU       S 3085  18.486  27.953   6.661
    7AU     LIG 3086  18.681  28.123   6.311
    7AU     LIG 3087  18.555  28.453   6.008
    7AU     LIG 3088  18.240  28.647   5.714
    7AU     LIG 3089  17.997  28.855   5.367
    7AU    AUSL 3090  19.272  26.577   6.876
    7AU    AUSL 3091  18.652  26.604   7.240
    7AU     AUL 3092  18.904  26.443   6.941
    7AU       S 3093  18.456  26.561   7.020
    7AU     LIG 3094  18.124  26.287   6.826
    7AU     LIG 3095  17.830  25.927   6.650
    7AU     LIG 3096  17.434  25.643   6.580
    7AU     LIG 3097  17.209  25.225   6.539
    7AU       S 3098  19.308  26.173   6.900
    7AU     LIG 3099  19.323  25.741   6.728
    7AU     LIG 3100  19.093  25.336   6.589
    7AU     LIG 3101  18.965  24.899   6.438
    7AU     LIG 3102  18.844  24.477   6.225
    7AU    AUSL 3103  19.449  26.606   7.307
    7AU    AUSL 3104  19.552  26.893   6.964
    7AU     AUL 3105  19.598  26.535   6.915
    7AU       S 3106  19.530  26.191   7.211
    7AU     LIG 3107  19.474  25.721   7.258
    7AU     LIG 3108  19.314  25.327   7.057
    7AU     LIG 3109  19.250  24.884   6.879
    7AU     LIG 3110  19.434  24.438   6.804
    7AU       S 3111  19.833  26.664   6.553
    7AU     LIG 3112  19.762  26.234   6.411
    7AU     LIG 3113  19.993  25.920   6.136
    7AU     LIG 3114  20.284  25.663   5.850
    7AU     LIG 3115  20.533  25.596   5.439
    8AU     AUC 3116  42.619  37.443   7.503
    8AU     AUC 3117  42.912  37.443   7.333
    8AU     AUC 3118  42.876  37.432   7.671
    8AU     AUC 3119  42.342  37.433   7.343
    8AU     AUC 3120  42.362  37.481   7.686
    8AU     AUC 3121  42.451  37.718   7.501
    8AU     AUC 3122  42.798  37.709   7.490
    8AU     AUC 3123  42.429  37.174   7.505
    8AU     AUC 3124  42.783  37.170   7.507
    8AU     AUC 3125  42.624  37.268   7.770
    8AU     AUC 3126  42.613  37.638   7.755
    8AU     AUC 3127  42.619  37.279   7.235
    8AU     AUC 3128  42.647  37.594   7.233
    8AU     AUC 3129  43.248  37.442   7.182
    8AU     AUC 3130  43.235  37.422   7.518
    8AU     AUC 3131  43.170  37.408   7.871
    8AU     AUC 3132  42.029  37.436   7.183
    8AU     AUC 3133  42.012  37.476   7.545
    8AU     AUC 3134  42.074  37.522   7.874
    8AU     AUC 3135  42.289  38.040   7.470
    8AU     AUC 3136  42.646  38.063   7.442
    8AU     AUC 3137  42.973  38.001   7.477
    8AU     AUC 3138  42.229  36.895   7.506
    8AU     AUC 3139  42.557  36.834   7.478
    8AU     AUC 3140  42.945  36.846   7.483
    8AU     AUC 3141  42.609  37.093   8.068
    8AU     AUC 3142  42.623  37.456   8.103
    8AU     AUC 3143  42.646  37.816   8.048
    8AU     AUC 3144  42.650  37.114   6.950
    8AU     AUC 3145  42.639  37.423   6.893
    8AU     AUC 3146  42.639  37.742   6.928
    8AU     AUC 3147  42.891  37.208   7.992
    8AU     AUC 3148  42.917  37.594   7.993
    8AU     AUC 3149  42.967  37.267   7.021
    8AU     AUC 3150  42.968  37.617   7.037
    8AU     AUC 3151  42.329  37.336   8.025
    8AU     AUC 3152  42.349  37.711   7.989
    8AU     AUC 3153  42.319  37.263   7.046
    8AU     AUC 3154  42.299  37.567   7.003
    8AU     AUC 3155  43.160  37.725   7.333
    8AU     AUC 3156  43.088  37.705   7.695
    8AU     AUC 3157  42.124  37.742   7.344
    8AU     AUC 3158  42.159  37.815   7.688
    8AU     AUC 3159  43.121  37.127   7.347
    8AU     AUC 3160  43.074  37.097   7.678
    8AU     AUC 3161  42.087  37.149   7.375
    8AU     AUC 3162  42.152  37.202   7.727
    8AU     AUC 3163  42.482  37.990   7.751
    8AU     AUC 3164  42.808  37.933   7.767
    8AU     AUC 3165  42.426  36.979   7.801
    8AU     AUC 3166  42.739  36.915   7.770
    8AU     AUC 3167  42.444  37.869   7.189
    8AU     AUC 3168  42.828  37.894   7.168
    8AU     AUC 3169  42.408  36.965   7.214
    8AU     AUC 3170  42.797  36.990   7.214
    8AU    AUSL 3171  43.160  37.334   8.240
    8AU    AUSL 3172  42.885  36.919   8.154
    8AU     AUL 3173  43.190  36.927   8.332
    8AU       S 3174  43.252  36.552   8.077
    8AU     LIG 3175  43.149  36.306   8.397
    8AU     LIG 3176  43.367  36.167   8.759
    8AU     LIG 3177  43.599  35.857   8.998
    8AU     LIG 3178  43.843  35.614   9.312
    8AU       S 3179  43.385  37.336   8.373
    8AU     LIG 3180  43.261  37.364   8.813
    8AU     LIG 3181  43.378  37.399   9.238
    8AU     LIG 3182  43.634  37.236   9.584
    8AU     LIG 3183  44.025  37.242   9.844
    8AU    AUSL 3184  42.751  37.246   8.415
    8AU    AUSL 3185  42.500  37.649   8.442
    8AU     AUL 3186  42.686  37.534   8.742
    8AU       S 3187  42.880  37.155   8.577
    8AU     LIG 3188  42.805  37.129   9.013
    8AU     LIG 3189  43.070  37.011   9.375
    8AU     LIG 3190  43.300  36.863   9.760
    8AU     LIG 3191  43.365  36.577  10.144
    8AU       S 3192  42.266  37.382   8.645
    8AU     LIG 3193  42.307  37.399   9.128
    8AU     LIG 3194  41.992  37.401   9.491
    8AU     LIG 3195  41.866  37.409   9.954
    8AU     LIG 3196  41.980  37.511  10.413
    8AU    AUSL 3197  42.815  37.619   8.157
    8AU    AUSL 3198  43.253  37.747   8.119
    8AU     AUL 3199  43.047  37.638   8.449
    8AU       S 3200  42.741  37.996   8.626
    8AU     LIG 3201  43.082  37.843   8.914
    8AU     LIG 3202  43.252  37.885   9.355
    8AU     LIG 3203  43.193  37.934   9.834
    8AU     LIG 3204  43.058  37.985  10.301
    8AU       S 3205  43.407  37.889   8.283
    8AU     LIG 3206  43.834  37.961   8.292
    8AU     LIG 3207  44.112  38.154   8.613
    8AU     LIG 3208  44.302  38.369   8.990
    8AU     LIG 3209  44.442  38.691   9.301
    8AU    AUSL 3210  43.158  37.488   6.895
    8AU    AUSL 3211  43.045  37.920   6.828
    8AU     AUL 3212  43.354  37.743   6.640
    8AU       S 3213  43.000  37.680   6.368
    8AU     LIG 3214  43.381  37.670   6.034
    8AU     LIG 3215  43.552  37.343   5.755
    8AU     LIG 3216  43.645  37.126   5.353
    8AU     LIG 3217  43.894  36.933   4.995
    8AU       S 3218  43.366  38.190   6.810
    8AU     LIG 3219  43.547  38.339   6.436
    8AU     LIG 3220  43.728  38.552   6.068
    8AU     LIG 3221  43.902  38.766   5.692
    8AU     LIG 3222  43.791  39.062   5.326
    8AU    AUSL 3223  42.953  37.243   6.587
    8AU    AUSL 3224  43.360  37.106   6.921
    8AU     AUL 3225  43.328  37.273   6.652
    8AU       S 3226  43.434  36.812   6.687
    8AU     LIG 3227  43.581  36.509   6.343
    8AU     LIG 3228  43.861  36.168   6.172
    8AU     LIG 3229  44.135  35.959   5.840
    8AU     LIG 3230  44.544  35.910   5.579
    8AU       S 3231  43.063  37.491   6.343
    8AU     LIG 3232  43.152  37.156   6.067
    8AU     LIG 3233  43.231  36.950   5.632
    8AU     LIG 3234  43.234  36.858   5.161
    8AU     LIG 3235  43.259  36.690   4.714
    8AU    AUSL 3236  42.752  37.601   6.767
    8AU    AUSL 3237  42.530  37.212   6.700
    8AU     AUL 3238  42.678  37.267   6.435
    8AU       S 3239  42.227  37.269   6.289
    8AU     LIG 3240  42.181  36.933   6.013
    8AU     LIG 3241  42.026  36.862   5.580
    8AU     LIG 3242  41.864  36.911   5.135
    8AU     LIG 3243  41.772  36.964   4.669
    8AU       S 3244  42.831  37.724   6.454
    8AU     LIG 3245  42.734  37.519   5.981
    8AU     LIG 3246  43.052  37.437   5.632
    8AU     LIG 3247  43.220  37.383   5.187
    8AU     LIG 3248  43.200  37.444   4.706
    8AU    AUSL 3249  42.094  37.603   8.262
    8AU    AUSL 3250  42.404  37.947   8.138
    8AU     AUL 3251  42.270  37.882   8.472
    8AU       S 3252  42.085  37.501   8.690
    8AU     LIG 3253  41.858  37.194   8.935
    8AU     LIG 3254  41.597  37.110   9.320
    8AU     LIG 3255  41.411  37.241   9.731
    8AU     LIG 3256  41.030  37.239  10.018
    8AU       S 3257  42.012  38.188   8.224
    8AU     LIG 3258  41.831  38.298   8.623
    8AU     LIG 3259  41.665  38.515   9.004
    8AU     LIG 3260  41.442  38.832   9.274
    8AU     LIG 3261  41.278  38.961   9.707
    8AU    AUSL 3262  42.404  37.311   8.165
    8AU    AUSL 3263  41.980  37.175   8.163
    8AU     AUL 3264  41.891  37.407   8.283
    8AU       S 3265  41.900  36.957   8.429
    8AU     LIG 3266  41.455  36.858   8.252
    8AU     LIG 3267  41.204  36.475   8.354
    8AU     LIG 3268  40.985  36.261   8.712
    8AU     LIG 3269  40.784  36.008   9.049
    8AU       S 3270  42.284  37.250   8.558
    8AU     LIG 3271  42.316  36.946   8.911
    8AU     LIG 3272  42.099  36.923   9.320
    8AU     LIG 3273  41.861  36.940   9.730
    8AU     LIG 3274  41.610  36.964  10.130
    8AU    AUSL 3275  42.121  37.349   6.776
    8AU    AUSL 3276  42.307  36.989   6.993
    8AU     AUL 3277  42.305  36.977   6.633
    8AU       S 3278  41.993  37.250   6.421
    8AU     LIG 3279  41.704  37.076   6.132
    8AU     LIG 3280  41.601  37.137   5.676
    8AU     LIG 3281  41.482  37.250   5.231
    8AU     LIG 3282  41.131  37.183   4.914
    8AU       S 3283  41.886  36.886   6.785
    8AU     LIG 3284  41.920  36.605   6.476
    8AU     LIG 3285  41.613  36.297   6.320
    8AU     LIG 3286  41.267  36.083   6.090
    8AU     LIG 3287  41.123  35.937   5.661
    8AU    AUSL 3288  42.382  37.640   6.554
    8AU    AUSL 3289  41.886  37.687   6.927
    8AU     AUL 3290  42.020  37.673   6.599
    8AU       S 3291  41.615  37.867   6.748
    8AU     LIG 3292  41.358  38.140   6.473
    8AU     LIG 3293  41.234  38.273   6.051
    8AU     LIG 3294  40.865  38.277   5.750
    8AU     LIG 3295  40.534  38.488   5.470
    8AU       S 3296  42.293  37.501   6.259
    8AU     LIG 3297  42.025  37.409   5.856
    8AU     LIG 3298  41.979  37.350   5.393
    8AU     LIG 3299  41.930  37.402   4.930
    8AU     LIG 3300  42.073  37.709   4.589
    8AU    AUSL 3301  43.405  37.957   7.526
    8AU    AUSL 3302  43.403  37.782   7.100
    8AU     AUL 3303  43.687  38.061   7.335
    8AU       S 3304  43.464  38.075   6.949
    8AU     LIG 3305  43.831  37.998   6.701
    8AU     LIG 3306  44.030  38.175   6.317
    8AU     LIG 3307  44.232  38.477   6.019
    8AU     LIG 3308  44.416  38.637   5.613
    8AU       S 3309  43.781  37.823   7.738
    8AU     LIG 3310  44.098  38.104   7.697
    8AU     LIG 3311  44.443  38.151   7.406
    8AU     LIG 3312  44.879  38.235   7.306
    8AU     LIG 3313   0.203  38.466   7.514
    8AU    AUSL 3314  43.608  37.546   7.401
    8AU    AUSL 3315  43.548  37.215   7.721
    8AU     AUL 3316  43.915  37.326   7.737
    8AU       S 3317  43.733  37.621   7.455
    8AU     LIG 3318  44.217  37.661   7.462
    8AU     LIG 3319  44.709  37.714   7.356
    8AU     LIG 3320   0.185  37.813   7.286
    8AU     LIG 3321   0.525  38.135   7.278
    8AU       S 3322  43.797  36.925   7.549
    8AU     LIG 3323  44.186  36.797   7.748
    8AU     LIG 3324  44.559  36.509   7.769
    8AU     LIG 3325   0.018  36.410   7.731
    8AU     LIG 3326   0.441  36.228   7.861
    8AU    AUSL 3327  43.312  37.576   7.734
    8AU    AUSL 3328  43.055  37.964   7.786
    8AU     AUL 3329  43.380  38.027   7.832
    8AU       S 3330  43.375  38.197   8.258
    8AU     LIG 3331  43.719  38.450   8.446
    8AU     LIG 3332  44.059  38.701   8.672
    8AU     LIG 3333  44.231  39.094   8.910
    8AU     LIG 3334  44.310  39.587   8.993
    8AU       S 3335  43.644  37.658   7.878
    8AU     LIG 3336  44.156  37.674   8.002
    8AU     LIG 3337  44.555  37.857   7.829
    8AU     LIG 3338   0.007  37.980   7.735
    8AU     LIG 3339   0.486  37.963   7.761
    8AU    AUSL 3340  41.955  38.040   7.515
    8AU    AUSL 3341  42.059  37.816   7.893
    8AU     AUL 3342  41.738  38.143   7.765
    8AU       S 3343  41.905  38.005   8.167
    8AU     LIG 3344  41.485  38.075   8.305
    8AU     LIG 3345  41.308  38.217   8.703
    8AU     LIG 3346  41.163  38.425   9.084
    8AU     LIG 3347  40.952  38.692   9.401
    8AU       S 3348  41.944  38.400   7.427
    8AU     LIG 3349  41.431  38.301   7.384
    8AU     LIG 3350  40.931  38.415   7.363
    8AU     LIG 3351  40.553  38.736   7.281
    8AU     LIG 3352  40.303  39.160   7.229
    8AU    AUSL 3353  41.923  37.631   7.346
    8AU    AUSL 3354  42.038  38.073   7.093
    8AU     AUL 3355  41.738  37.955   7.200
    8AU       S 3356  41.504  37.449   7.012
    8AU     LIG 3357  41.245  37.846   7.107
    8AU     LIG 3358  40.838  38.029   7.028
    8AU     LIG 3359  40.447  38.303   7.008
    8AU     LIG 3360  40.055  38.575   6.964
    8AU       S 3361  41.871  38.320   6.912
    8AU     LIG 3362  41.622  38.579   6.581
    8AU     LIG 3363  41.391  38.925   6.321
    8AU     LIG 3364  41.152  39.356   6.232
    8AU     LIG 3365  40.865  39.752   6.187
    8AU    AUSL 3366  41.689  37.688   7.726
    8AU    AUSL 3367  41.649  37.311   7.433
    8AU     AUL 3368  41.524  37.628   7.452
    8AU       S 3369  41.461  37.232   7.716
    8AU     LIG 3370  41.163  37.249   7.365
    8AU     LIG 3371  40.768  37.065   7.242
    8AU     LIG 3372  40.339  36.878   7.259
    8AU     LIG 3373  39.927  36.935   7.141
    8AU       S 3374  41.579  37.711   7.952
    8AU     LIG 3375  41.125  37.742   8.049
    8AU     LIG 3376  40.776  38.065   8.055
    8AU     LIG 3377  40.314  38.121   7.942
    8AU     LIG 3378  39.906  38.195   8.201
    8AU    AUSL 3379  43.335  36.856   7.551
    8AU    AUSL 3380  43.152  37.122   7.870
    8AU     AUL 3381  43.485  37.027   7.943
    8AU       S 3382  43.629  36.752   7.572
    8AU     LIG 3383  43.877  36.401   7.618
    8AU     LIG 3384  44.263  36.234   7.440
    8AU     LIG 3385  44.709  36.088   7.471
    8AU     LIG 3386  44.958  35.875   7.819
    8AU       S 3387  43.367  36.591   7.965
    8AU     LIG 3388  43.663  36.401   8.309
    8AU     LIG 3389  43.878  36.169   8.668
    8AU     LIG 3390  44.119  35.905   8.980
    8AU     LIG 3391  44.424  35.787   9.315
    8AU    AUSL 3392  43.323  37.235   7.327
    8AU    AUSL 3393  43.203  36.751   7.147
    8AU     AUL 3394  43.471  36.895   7.163
    8AU       S 3395  43.822  37.104   7.337
    8AU     LIG 3396  44.138  36.724   7.243
    8AU     LIG 3397  44.601  36.574   7.259
    8AU     LIG 3398   0.045  36.435   7.174
    8AU     LIG 3399   0.483  36.479   6.971
    8AU       S 3400  43.402  36.579   6.815
    8AU     LIG 3401  43.474  36.134   6.693
    8AU     LIG 3402  43.663  35.780   6.444
    8AU     LIG 3403  43.965  35.572   6.155
    8AU     LIG 3404  44.180  35.171   5.994
    8AU    AUSL 3405  41.850  36.941   7.586
    8AU    AUSL 3406  41.948  37.199   7.144
    8AU     AUL 3407  41.608  37.024   7.301
    8AU       S 3408  41.780  37.041   6.867
    8AU     LIG 3409  41.452  36.821   6.548
    8AU     LIG 3410  41.129  36.469   6.420
    8AU     LIG 3411  40.760  36.178   6.238
    8AU     LIG 3412  40.325  35.971   6.091
    8AU       S 3413  41.431  36.994   7.745
    8AU     LIG 3414  41.054  36.801   7.606
    8AU     LIG 3415  40.685  36.561   7.453
    8AU     LIG 3416  40.235  36.413   7.512
    8AU     LIG 3417  39.932  36.148   7.792
    8AU    AUSL 3418  41.935  37.339   7.771
    8AU    AUSL 3419  42.192  36.958   7.850
    8AU     AUL 3420  41.848  36.933   7.935
    8AU       S 3421  41.923  36.748   8.358
    8AU     LIG 3422  41.740  36.442   8.092
    8AU     LIG 3423  41.451  36.087   8.107
    8AU     LIG 3424  41.120  35.901   8.374
    8AU     LIG 3425  40.850  35.657   8.674
    8AU       S 3426  41.509  37.247   7.893
    8AU     LIG 3427  40.979  37.260   7.845
    8AU     LIG 3428  40.576  36.995   7.717
    8AU     LIG 3429  40.074  36.891   7.706
    8AU     LIG 3430  39.672  36.769   7.959
    8AU    AUSL 3431  42.667  38.186   7.889
    8AU    AUSL 3432  42.229  38.209   7.811
    8AU     AUL 3433  42.471  38.272   8.173
    8AU       S 3434  42.095  38.410   7.925
    8AU     LIG 3435  41.680  38.539   8.154
    8AU     LIG 3436  41.480  38.695   8.559
    8AU     LIG 3437  41.313  39.071   8.809
    8AU     LIG 3438  41.095  39.509   8.736
    8AU       S 3439  42.673  38.611   7.928
    8AU     LIG 3440  42.784  38.661   8.327
    8AU     LIG 3441  42.811  39.086   8.503
    8AU     LIG 3442  42.845  39.509   8.690
    8AU     LIG 3443  42.743  39.761   9.073
    8AU    AUSL 3444  42.501  38.408   7.539
    8AU    AUSL 3445  42.788  38.329   7.179
    8AU     AUL 3446  42.719  38.670   7.323
    8AU       S 3447  42.509  38.642   7.753
    8AU     LIG 3448  42.574  39.086   8.025
    8AU     LIG 3449  42.551  39.524   8.257
    8AU     LIG 3450  42.338  39.974   8.378
    8AU     LIG 3451  42.052  40.390   8.372
    8AU       S 3452  42.506  38.496   6.956
    8AU     LIG 3453  42.910  38.768   6.883
    8AU     LIG 3454  42.998  39.235   6.808
    8AU     LIG 3455  43.170  39.699   6.770
    8AU     LIG 3456  43.203  40.171   6.661
    8AU    AUSL 3457  42.957  38.330   7.587
    8AU    AUSL 3458  42.913  38.032   8.206
    8AU     AUL 3459  43.013  38.296   7.975
    8AU       S 3460  43.162  38.121   8.411
    8AU     LIG 3461  43.514  38.071   8.737
    8AU     LIG 3462  43.784  38.353   8.968
    8AU     LIG 3463  43.946  38.730   9.176
    8AU     LIG 3464  44.055  39.126   9.399
    8AU       S 3465  42.880  38.682   7.758
    8AU     LIG 3466  43.078  38.980   8.052
    8AU     LIG 3467  43.092  39.422   8.220
    8AU     LIG 3468  43.381  39.804   8.282
    8AU     LIG 3469  43.478  40.261   8.312
    8AU    AUSL 3470  42.561  36.721   7.933
    8AU    AUSL 3471  42.972  36.737   7.755
    8AU     AUL 3472  42.799  36.607   8.144
    8AU       S 3473  42.522  36.267   7.994
    8AU     LIG 3474  42.408  36.068   8.358
    8AU     LIG 3475  42.265  35.648   8.475
    8AU     LIG 3476  42.287  35.183   8.510
    8AU     LIG 3477  42.370  34.719   8.579
    8AU       S 3478  43.130  36.496   7.802
    8AU     LIG 3479  43.342  36.079   7.966
    8AU     LIG 3480  43.548  35.899   8.353
    8AU     LIG 3481  43.859  35.649   8.605
    8AU     LIG 3482  44.091  35.372   8.909
    8AU    AUSL 3483  42.231  36.587   7.648
    8AU    AUSL 3484  42.368  36.902   8.268
    8AU     AUL 3485  42.219  36.628   8.021
    8AU       S 3486  42.326  36.207   7.850
    8AU     LIG 3487  42.120  35.824   8.005
    8AU     LIG 3488  42.004  35.368   8.102
    8AU     LIG 3489  42.028  34.892   8.169
    8AU     LIG 3490  42.240  34.478   8.140
    8AU       S 3491  42.178  36.780   8.468
    8AU     LIG 3492  41.978  36.308   8.542
    8AU     LIG 3493  41.533  36.152   8.614
    8AU     LIG 3494  41.275  35.868   8.880
    8AU     LIG 3495  41.092  35.631   9.238
    8AU    AUSL 3496  42.671  36.472   7.591
    8AU    AUSL 3497  42.414  36.621   7.252
    8AU     AUL 3498  42.297  36.353   7.411
    8AU       S 3499  42.657  36.317   7.126
    8AU     LIG 3500  42.391  35.908   7.060
    8AU     LIG 3501  42.208  35.442   6.997
    8AU     LIG 3502  42.089  34.965   6.906
    8AU     LIG 3503  41.928  34.510   6.796
    8AU       S 3504  42.663  36.273   7.738
    8AU     LIG 3505  42.628  35.798   7.839
    8AU     LIG 3506  42.516  35.404   8.078
    8AU     LIG 3507  42.552  34.929   8.140
    8AU     LIG 3508  42.744  34.504   8.239
    8AU    AUSL 3509  42.627  38.054   6.854
    8AU    AUSL 3510  43.069  38.017   7.257
    8AU     AUL 3511  42.922  38.248   6.886
    8AU       S 3512  42.521  38.456   6.733
    8AU     LIG 3513  42.563  38.894   6.539
    8AU     LIG 3514  42.762  39.271   6.340
    8AU     LIG 3515  42.833  39.491   5.918
    8AU     LIG 3516  42.754  39.849   5.620
    8AU       S 3517  43.301  38.274   7.156
    8AU     LIG 3518  43.739  38.490   6.926
    8AU     LIG 3519  43.971  38.650   6.517
    8AU     LIG 3520  44.164  38.967   6.189
    8AU     LIG 3521  44.408  39.401   6.100
    8AU    AUSL 3522  42.427  38.097   7.257
    8AU    AUSL 3523  42.326  37.763   6.959
    8AU     AUL 3524  42.275  38.071   6.816
    8AU       S 3525  42.328  38.461   7.091
    8AU     LIG 3526  42.429  38.971   7.029
    8AU     LIG 3527  42.493  39.396   6.809
    8AU     LIG 3528  42.305  39.856   6.826
    8AU     LIG 3529  42.071  40.286   6.841
    8AU       S 3530  41.834  38.095   6.677
    8AU     LIG 3531  41.825  38.231   6.259
    8AU     LIG 3532  41.658  38.581   6.013
    8AU     LIG 3533  41.608  38.765   5.578
    8AU     LIG 3534  41.650  39.039   5.188
    8AU    AUSL 3535  42.637  36.729   6.882
    8AU    AUSL 3536  42.012  36.762   7.228
    8AU     AUL 3537  42.265  36.601   6.942
    8AU       S 3538  41.818  36.739   6.991
    8AU     LIG 3539  41.559  36.404   6.828
    8AU     LIG 3540  41.302  36.045   6.658
    8AU     LIG 3541  41.007  35.768   6.427
    8AU     LIG 3542  40.584  35.583   6.318
    8AU       S 3543  42.673  36.340   6.910
    8AU     LIG 3544  42.724  35.995   6.661
    8AU     LIG 3545  42.413  35.682   6.573
    8AU     LIG 3546  42.354  35.240   6.537
    8AU     LIG 3547  42.509  34.858   6.338
    8AU    AUSL 3548  42.815  36.763   7.309
    8AU    AUSL 3549  42.915  37.048   6.964
    8AU     AUL 3550  42.965  36.697   6.914
    8AU       S 3551  42.899  36.349   7.209
    8AU     LIG 3552  42.900  35.873   7.132
    8AU     LIG 3553  42.717  35.470   6.933
    8AU     LIG 3554  42.636  34.986   6.885
    8AU     LIG 3555  42.781  34.516   6.908
    8AU       S 3556  43.193  36.824   6.548
    8AU     LIG 3557  43.080  36.383   6.469
    8AU     LIG 3558  43.322  36.074   6.191
    8AU     LIG 3559  43.603  35.833   5.878
    8AU     LIG 3560  43.890  35.538   5.638
    9AU     AUC 3561  14.959   6.600   7.498
    9AU     AUC 3562  15.252   6.600   7.329
    9AU     AUC 3563  15.216   6.588   7.668
    9AU     AUC 3564  14.682   6.591   7.339
    9AU     AUC 3565  14.700   6.639   7.681
    9AU     AUC 3566  14.791   6.876   7.497
    9AU     AUC 3567  15.138   6.865   7.487
    9AU     AUC 3568  14.768   6.333   7.500
    9AU     AUC 3569  15.123   6.327   7.502
    9AU     AUC 3570  14.964   6.425   7.764
    9AU     AUC 3571  14.953   6.795   7.751
    9AU     AUC 3572  14.959   6.438   7.230
    9AU     AUC 3573  14.988   6.752   7.229
    9AU     AUC 3574  15.588   6.598   7.179
    9AU     AUC 3575  15.575   6.578   7.515
    9AU     AUC 3576  15.510   6.563   7.868
    9AU     AUC 3577  14.368   6.596   7.178
    9AU     AUC 3578  14.352   6.635   7.541
    9AU     AUC 3579  14.412   6.680   7.870
    9AU     AUC 3580  14.633   7.198   7.467
    9AU     AUC 3581  14.988   7.220   7.439
    9AU     AUC 3582  15.314   7.157   7.474
    9AU     AUC 3583  14.567   6.054   7.500
    9AU     AUC 3584  14.895   5.993   7.470
    9AU     AUC 3585  15.284   6.003   7.478
    9AU     AUC 3586  14.948   6.250   8.062
    9AU     AUC 3587  14.961   6.611   8.098
    9AU     AUC 3588  14.986   6.971   8.045
    9AU     AUC 3589  14.989   6.273   6.944
    9AU     AUC 3590  14.978   6.582   6.888
    9AU     AUC 3591  14.980   6.900   6.924
    9AU     AUC 3592  15.230   6.364   7.988
    9AU     AUC 3593  15.257   6.750   7.990
    9AU     AUC 3594  15.306   6.425   7.018
    9AU     AUC 3595  15.308   6.774   7.034
    9AU     AUC 3596  14.667   6.493   8.020
    9AU     AUC 3597  14.688   6.868   7.985
    9AU     AUC 3598  14.658   6.423   7.041
    9AU     AUC 3599  14.639   6.727   6.999
    9AU     AUC 3600  15.501   6.881   7.329
    9AU     AUC 3601  15.428   6.861   7.692
    9AU     AUC 3602  14.465   6.901   7.341
    9AU     AUC 3603  14.500   6.973   7.685
    9AU     AUC 3604  15.461   6.284   7.344
    9AU     AUC 3605  15.413   6.253   7.673
    9AU     AUC 3606  14.424   6.309   7.370
    9AU     AUC 3607  14.489   6.361   7.721
    9AU     AUC 3608  14.822   7.147   7.748
    9AU     AUC 3609  15.149   7.088   7.764
    9AU     AUC 3610  14.764   6.138   7.793
    9AU     AUC 3611  15.079   6.073   7.764
    9AU     AUC 3612  14.786   7.028   7.186
    9AU     AUC 3613  15.170   7.051   7.164
    9AU     AUC 3614  14.746   6.125   7.208
    9AU     AUC 3615  15.136   6.148   7.209
    9AU    AUSL 3616  15.499   6.490   8.237
    9AU    AUSL 3617  15.226   6.071   8.150
    9AU     AUL 3618  15.524   6.087   8.345
    9AU       S 3619  15.595   5.728   8.074
    9AU     LIG 3620  15.492   5.564   8.450
    9AU     LIG 3621  15.699   5.222   8.658
    9AU     LIG 3622  15.965   4.905   8.880
    9AU     LIG 3623  16.255   4.711   9.200
    9AU       S 3624  15.723   6.494   8.358
    9AU     LIG 3625  15.579   6.503   8.802
    9AU     LIG 3626  15.697   6.567   9.235
    9AU     LIG 3627  15.961   6.374   9.572
    9AU     LIG 3628  16.364   6.346   9.823
    9AU    AUSL 3629  15.089   6.401   8.408
    9AU    AUSL 3630  14.840   6.802   8.438
    9AU     AUL 3631  15.027   6.695   8.744
    9AU       S 3632  15.190   6.318   8.553
    9AU     LIG 3633  15.130   6.265   8.985
    9AU     LIG 3634  15.390   6.171   9.358
    9AU     LIG 3635  15.597   6.034   9.759
    9AU     LIG 3636  15.611   5.778  10.168
    9AU       S 3637  14.615   6.534   8.634
    9AU     LIG 3638  14.684   6.549   9.107
    9AU     LIG 3639  14.400   6.550   9.472
    9AU     LIG 3640  14.192   6.626   9.883
    9AU     LIG 3641  14.066   6.952  10.201
    9AU    AUSL 3642  15.154   6.775   8.153
    9AU    AUSL 3643  15.594   6.901   8.115
    9AU     AUL 3644  15.386   6.793   8.446
    9AU       S 3645  15.078   7.153   8.620
    9AU     LIG 3646  15.422   6.996   8.919
    9AU     LIG 3647  15.561   7.055   9.382
    9AU     LIG 3648  15.530   7.277   9.823
    9AU     LIG 3649  15.392   7.434  10.267
    9AU       S 3650  15.746   7.043   8.279
    9AU     LIG 3651  16.176   7.085   8.298
    9AU     LIG 3652  16.452   7.296   8.610
    9AU     LIG 3653  16.655   7.567   8.950
    9AU     LIG 3654  16.808   7.883   9.273
    9AU    AUSL 3655  15.497   6.643   6.889
    9AU    AUSL 3656  15.387   7.077   6.825
    9AU     AUL 3657  15.693   6.898   6.636
    9AU       S 3658  15.343   6.832   6.363
    9AU     LIG 3659  15.736   6.827   6.034
    9AU     LIG 3660  15.925   6.496   5.755
    9AU     LIG 3661  16.058   6.236   5.386
    9AU     LIG 3662  16.059   6.244   4.920
    9AU       S 3663  15.710   7.347   6.812
    9AU     LIG 3664  15.856   7.476   6.414
    9AU     LIG 3665  16.088   7.694   6.073
    9AU     LIG 3666  16.321   7.941   5.749
    9AU     LIG 3667  16.359   8.153   5.335
    9AU    AUSL 3668  15.290   6.398   6.581
    9AU    AUSL 3669  15.702   6.262   6.919
    9AU     AUL 3670  15.663   6.428   6.647
    9AU       S 3671  15.784   5.968   6.684
    9AU     LIG 3672  15.949   5.629   6.369
    9AU     LIG 3673  16.187   5.230   6.265
    9AU     LIG 3674  16.504   5.000   6.007
    9AU     LIG 3675  16.970   4.942   5.931
    9AU       S 3676  15.406   6.641   6.326
    9AU     LIG 3677  15.513   6.311   6.039
    9AU     LIG 3678  15.588   6.133   5.587
    9AU     LIG 3679  15.640   6.013   5.121
    9AU     LIG 3680  15.593   5.774   4.699
    9AU    AUSL 3681  15.093   6.759   6.761
    9AU    AUSL 3682  14.867   6.372   6.695
    9AU     AUL 3683  15.015   6.430   6.429
    9AU       S 3684  14.563   6.434   6.284
    9AU     LIG 3685  14.542   6.121   5.991
    9AU     LIG 3686  14.269   6.040   5.630
    9AU     LIG 3687  14.090   6.068   5.191
    9AU     LIG 3688  13.971   6.146   4.734
    9AU       S 3689  15.173   6.885   6.449
    9AU     LIG 3690  15.083   6.730   5.961
    9AU     LIG 3691  15.427   6.639   5.641
    9AU     LIG 3692  15.666   6.540   5.246
    9AU     LIG 3693  15.789   6.679   4.815
    9AU    AUSL 3694  14.433   6.759   8.257
    9AU    AUSL 3695  14.744   7.103   8.136
    9AU     AUL 3696  14.608   7.037   8.469
    9AU       S 3697  14.429   6.652   8.687
    9AU     LIG 3698  14.208   6.369   8.952
    9AU     LIG 3699  13.953   6.319   9.343
    9AU     LIG 3700  13.752   6.375   9.767
    9AU     LIG 3701  13.504   6.285  10.158
    9AU       S 3702  14.351   7.339   8.217
    9AU     LIG 3703  14.377   7.551   8.594
    9AU     LIG 3704  14.225   7.750   8.972
    9AU     LIG 3705  13.898   7.964   9.203
    9AU     LIG 3706  13.806   8.103   9.643
    9AU    AUSL 3707  14.742   6.466   8.159
    9AU    AUSL 3708  14.318   6.331   8.158
    9AU     AUL 3709  14.231   6.562   8.280
    9AU       S 3710  14.232   6.109   8.419
    9AU     LIG 3711  13.797   5.949   8.229
    9AU     LIG 3712  13.601   5.535   8.357
    9AU     LIG 3713  13.360   5.287   8.684
    9AU     LIG 3714  13.172   5.122   9.080
    9AU       S 3715  14.621   6.402   8.554
    9AU     LIG 3716  14.639   6.091   8.905
    9AU     LIG 3717  14.427   6.060   9.316
    9AU     LIG 3718  14.220   6.122   9.738
    9AU     LIG 3719  13.982   6.076  10.138
    9AU    AUSL 3720  14.459   6.512   6.772
    9AU    AUSL 3721  14.645   6.149   6.987
    9AU     AUL 3722  14.642   6.141   6.627
    9AU       S 3723  14.327   6.410   6.411
    9AU     LIG 3724  14.048   6.232   6.095
    9AU     LIG 3725  13.868   6.358   5.672
    9AU     LIG 3726  13.693   6.385   5.229
    9AU     LIG 3727  13.464   6.304   4.826
    9AU       S 3728  14.227   6.041   6.782
    9AU     LIG 3729  14.274   5.700   6.520
    9AU     LIG 3730  14.043   5.322   6.391
    9AU     LIG 3731  13.750   5.091   6.116
    9AU     LIG 3732  13.402   4.913   5.853
    9AU    AUSL 3733  14.722   6.801   6.550
    9AU    AUSL 3734  14.226   6.851   6.924
    9AU     AUL 3735  14.360   6.831   6.596
    9AU       S 3736  13.959   7.031   6.753
    9AU     LIG 3737  13.711   7.339   6.520
    9AU     LIG 3738  13.734   7.585   6.139
    9AU     LIG 3739  13.552   7.722   5.734
    9AU     LIG 3740  13.247   7.990   5.509
    9AU       S 3741  14.632   6.666   6.250
    9AU     LIG 3742  14.347   6.586   5.857
    9AU     LIG 3743  14.278   6.510   5.401
    9AU     LIG 3744  14.107   6.579   4.978
    9AU     LIG 3745  14.013   6.824   4.583
    9AU    AUSL 3746  15.746   7.113   7.522
    9AU    AUSL 3747  15.742   6.934   7.097
    9AU     AUL 3748  16.026   7.214   7.327
    9AU       S 3749  15.806   7.230   6.941
    9AU     LIG 3750  16.177   7.179   6.689
    9AU     LIG 3751  16.339   7.283   6.264
    9AU     LIG 3752  16.578   7.537   5.948
    9AU     LIG 3753  16.780   7.744   5.570
    9AU       S 3754  16.139   6.990   7.729
    9AU     LIG 3755  16.574   7.166   7.613
    9AU     LIG 3756  17.043   7.258   7.533
    9AU     LIG 3757  17.472   7.447   7.532
    9AU     LIG 3758  17.782   7.789   7.645
    9AU    AUSL 3759  15.950   6.702   7.402
    9AU    AUSL 3760  15.888   6.369   7.719
    9AU     AUL 3761  16.244   6.472   7.744
    9AU       S 3762  16.078   6.778   7.461
    9AU     LIG 3763  16.539   6.698   7.415
    9AU     LIG 3764  16.967   6.837   7.256
    9AU     LIG 3765  17.391   7.069   7.163
    9AU     LIG 3766  17.788   7.362   7.124
    9AU       S 3767  16.137   6.087   7.523
    9AU     LIG 3768  16.447   6.016   7.828
    9AU     LIG 3769  16.843   5.791   7.790
    9AU     LIG 3770  17.303   5.717   7.746
    9AU     LIG 3771  17.680   5.932   7.989
    9AU    AUSL 3772  15.652   6.731   7.730
    9AU    AUSL 3773  15.397   7.119   7.782
    9AU     AUL 3774  15.724   7.180   7.827
    9AU       S 3775  15.715   7.348   8.254
    9AU     LIG 3776  16.057   7.580   8.405
    9AU     LIG 3777  16.388   7.822   8.590
    9AU     LIG 3778  16.648   8.097   8.832
    9AU     LIG 3779  16.894   8.463   8.968
    9AU       S 3780  15.990   6.816   7.878
    9AU     LIG 3781  16.512   6.804   7.982
    9AU     LIG 3782  16.962   6.813   7.790
    9AU     LIG 3783  17.392   7.015   7.848
    9AU     LIG 3784  17.761   7.298   7.939
    9AU    AUSL 3785  14.303   7.199   7.510
    9AU    AUSL 3786  14.398   6.974   7.889
    9AU     AUL 3787  14.087   7.305   7.757
    9AU       S 3788  14.233   7.160   8.168
    9AU     LIG 3789  13.936   7.287   8.510
    9AU     LIG 3790  13.774   7.506   8.896
    9AU     LIG 3791  13.458   7.691   9.198
    9AU     LIG 3792  13.112   7.660   9.537
    9AU       S 3793  14.310   7.567   7.428
    9AU     LIG 3794  13.827   7.511   7.367
    9AU     LIG 3795  13.368   7.649   7.431
    9AU     LIG 3796  12.917   7.855   7.462
    9AU     LIG 3797  12.654   8.272   7.507
    9AU    AUSL 3798  14.265   6.791   7.341
    9AU    AUSL 3799  14.382   7.238   7.088
    9AU     AUL 3800  14.083   7.123   7.200
    9AU       S 3801  13.844   6.611   7.004
    9AU     LIG 3802  13.549   7.020   7.130
    9AU     LIG 3803  13.102   7.288   7.172
    9AU     LIG 3804  12.632   7.520   7.162
    9AU     LIG 3805  12.141   7.561   7.034
    9AU       S 3806  14.216   7.485   6.908
    9AU     LIG 3807  14.012   7.765   6.567
    9AU     LIG 3808  13.805   8.090   6.275
    9AU     LIG 3809  13.632   8.535   6.193
    9AU     LIG 3810  13.316   8.909   6.174
    9AU    AUSL 3811  14.029   6.850   7.718
    9AU    AUSL 3812  13.987   6.474   7.427
    9AU     AUL 3813  13.870   6.790   7.440
    9AU       S 3814  13.793   6.397   7.703
    9AU     LIG 3815  13.466   6.488   7.370
    9AU     LIG 3816  13.018   6.310   7.258
    9AU     LIG 3817  12.587   6.046   7.227
    9AU     LIG 3818  12.155   5.805   7.307
    9AU       S 3819  13.908   6.877   7.934
    9AU     LIG 3820  13.586   7.138   7.672
    9AU     LIG 3821  13.124   7.282   7.692
    9AU     LIG 3822  12.682   7.464   7.717
    9AU     LIG 3823  12.252   7.595   7.861
    9AU    AUSL 3824  15.675   6.012   7.546
    9AU    AUSL 3825  15.492   6.277   7.867
    9AU     AUL 3826  15.820   6.173   7.940
    9AU       S 3827  15.989   5.908   7.567
    9AU     LIG 3828  16.352   5.606   7.532
    9AU     LIG 3829  16.735   5.339   7.583
    9AU     LIG 3830  17.112   5.215   7.828
    9AU     LIG 3831  17.344   4.793   7.802
    9AU       S 3832  15.707   5.733   7.947
    9AU     LIG 3833  15.989   5.521   8.288
    9AU     LIG 3834  16.212   5.231   8.556
    9AU     LIG 3835  16.482   5.033   8.866
    9AU     LIG 3836  16.694   5.023   9.278
    9AU    AUSL 3837  15.664   6.394   7.324
    9AU    AUSL 3838  15.542   5.908   7.142
    9AU     AUL 3839  15.811   6.050   7.162
    9AU       S 3840  16.164   6.270   7.327
    9AU     LIG 3841  16.607   6.015   7.333
    9AU     LIG 3842  16.995   5.701   7.307
    9AU     LIG 3843  17.448   5.570   7.200
    9AU     LIG 3844  17.768   5.457   6.839
    9AU       S 3845  15.739   5.735   6.813
    9AU     LIG 3846  15.783   5.277   6.724
    9AU     LIG 3847  15.948   4.870   6.547
    9AU     LIG 3848  16.296   4.660   6.329
    9AU     LIG 3849  16.358   4.366   5.975
    9AU    AUSL 3850  14.186   6.103   7.579
    9AU    AUSL 3851  14.285   6.358   7.139
    9AU     AUL 3852  13.943   6.189   7.291
    9AU       S 3853  14.124   6.197   6.862
    9AU     LIG 3854  13.819   5.972   6.527
    9AU     LIG 3855  13.592   5.577   6.401
    9AU     LIG 3856  13.284   5.256   6.250
    9AU     LIG 3857  12.969   5.217   5.897
    9AU       S 3858  13.773   6.152   7.736
    9AU     LIG 3859  13.448   5.988   7.463
    9AU     LIG 3860  13.008   5.831   7.459
    9AU     LIG 3861  12.589   5.656   7.572
    9AU     LIG 3862  12.214   5.370   7.571
    9AU    AUSL 3863  14.271   6.498   7.767
    9AU    AUSL 3864  14.529   6.116   7.843
    9AU     AUL 3865  14.189   6.087   7.927
    9AU       S 3866  14.264   5.895   8.345
    9AU     LIG 3867  14.146   5.523   8.118
    9AU     LIG 3868  13.901   5.136   8.175
    9AU     LIG 3869  13.564   4.895   8.410
    9AU     LIG 3870  13.186   4.789   8.678
    9AU       S 3871  13.851   6.404   7.887
    9AU     LIG 3872  13.310   6.329   7.835
    9AU     LIG 3873  12.819   6.239   7.724
    9AU     LIG 3874  12.363   6.105   7.684
    9AU     LIG 3875  11.916   6.019   7.766
    9AU    AUSL 3876  15.008   7.340   7.887
    9AU    AUSL 3877  14.571   7.368   7.811
    9AU     AUL 3878  14.812   7.427   8.173
    9AU       S 3879  14.431   7.575   7.939
    9AU     LIG 3880  14.050   7.726   8.216
    9AU     LIG 3881  13.885   7.924   8.620
    9AU     LIG 3882  13.578   8.212   8.858
    9AU     LIG 3883  13.238   8.579   8.849
    9AU       S 3884  15.015   7.772   7.937
    9AU     LIG 3885  14.978   7.984   8.329
    9AU     LIG 3886  14.945   8.444   8.449
    9AU     LIG 3887  15.037   8.915   8.520
    9AU     LIG 3888  15.092   9.240   8.857
    9AU    AUSL 3889  14.843   7.566   7.538
    9AU    AUSL 3890  15.131   7.487   7.176
    9AU     AUL 3891  15.063   7.829   7.318
    9AU       S 3892  14.847   7.789   7.744
    9AU     LIG 3893  14.889   8.265   7.905
    9AU     LIG 3894  14.923   8.728   8.016
    9AU     LIG 3895  14.847   9.167   8.096
    9AU     LIG 3896  14.713   9.631   8.117
    9AU       S 3897  14.849   7.655   6.953
    9AU     LIG 3898  15.246   7.927   6.875
    9AU     LIG 3899  15.282   8.400   6.849
    9AU     LIG 3900  15.268   8.867   6.697
    9AU     LIG 3901  15.421   9.316   6.571
    9AU    AUSL 3902  15.298   7.486   7.585
    9AU    AUSL 3903  15.255   7.187   8.203
    9AU     AUL 3904  15.356   7.451   7.970
    9AU       S 3905  15.501   7.274   8.407
    9AU     LIG 3906  15.854   7.232   8.733
    9AU     LIG 3907  16.128   7.531   8.937
    9AU     LIG 3908  16.299   7.890   9.158
    9AU     LIG 3909  16.361   8.134   9.548
    9AU       S 3910  15.216   7.838   7.756
    9AU     LIG 3911  15.377   8.158   8.050
    9AU     LIG 3912  15.376   8.604   8.211
    9AU     LIG 3913  15.361   9.083   8.157
    9AU     LIG 3914  15.596   9.500   8.259
    9AU    AUSL 3915  14.901   5.884   7.924
    9AU    AUSL 3916  15.311   5.893   7.748
    9AU     AUL 3917  15.136   5.761   8.134
    9AU       S 3918  14.865   5.417   7.983
    9AU     LIG 3919  14.649   5.282   8.344
    9AU     LIG 3920  14.612   4.823   8.422
    9AU     LIG 3921  14.790   4.386   8.468
    9AU     LIG 3922  15.051   4.005   8.616
    9AU       S 3923  15.470   5.651   7.801
    9AU     LIG 3924  15.610   5.229   8.061
    9AU     LIG 3925  15.894   4.903   8.298
    9AU     LIG 3926  16.270   4.709   8.512
    9AU     LIG 3927  16.520   4.428   8.788
    9AU    AUSL 3928  14.570   5.745   7.641
    9AU    AUSL 3929  14.705   6.058   8.261
    9AU     AUL 3930  14.566   5.783   8.013
    9AU       S 3931  14.671   5.364   7.836
    9AU     LIG 3932  14.408   5.026   7.971
    9AU     LIG 3933  14.400   4.563   8.024
    9AU     LIG 3934  14.359   4.176   8.264
    9AU     LIG 3935  14.101   3.792   8.307
    9AU       S 3936  14.505   5.934   8.461
    9AU     LIG 3937  14.267   5.500   8.625
    9AU     LIG 3938  13.882   5.225   8.686
    9AU     LIG 3939  13.634   4.901   8.933
    9AU     LIG 3940  13.439   4.749   9.331
    9AU    AUSL 3941  15.009   5.630   7.584
    9AU    AUSL 3942  14.753   5.782   7.245
    9AU     AUL 3943  14.633   5.516   7.402
    9AU       S 3944  14.997   5.482   7.120
    9AU     LIG 3945  14.688   5.121   7.083
    9AU     LIG 3946  14.529   4.666   7.114
    9AU     LIG 3947  14.278   4.305   6.929
    9AU     LIG 3948  14.020   4.010   6.666
    9AU       S 3949  15.004   5.443   7.722
    9AU     LIG 3950  14.991   4.976   7.731
    9AU     LIG 3951  14.942   4.607   8.019
    9AU     LIG 3952  15.177   4.208   8.161
    9AU     LIG 3953  15.369   3.766   8.250
    9AU    AUSL 3954  14.970   7.213   6.851
    9AU    AUSL 3955  15.410   7.174   7.253
    9AU     AUL 3956  15.264   7.404   6.881
    9AU       S 3957  14.865   7.612   6.728
    9AU     LIG 3958  14.934   7.996   6.479
    9AU     LIG 3959  15.066   8.434   6.384
    9AU     LIG 3960  14.932   8.875   6.307
    9AU     LIG 3961  14.966   9.341   6.327
    9AU       S 3962  15.636   7.427   7.160
    9AU     LIG 3963  16.068   7.642   6.991
    9AU     LIG 3964  16.299   7.692   6.583
    9AU     LIG 3965  16.497   7.953   6.253
    9AU     LIG 3966  16.741   8.326   6.128
    9AU    AUSL 3967  14.770   7.255   7.255
    9AU    AUSL 3968  14.667   6.923   6.955
    9AU     AUL 3969  14.619   7.230   6.814
    9AU       S 3970  14.675   7.625   7.083
    9AU     LIG 3971  14.775   8.140   6.955
    9AU     LIG 3972  14.807   8.615   6.794
    9AU     LIG 3973  14.785   9.099   6.763
    9AU     LIG 3974  14.592   9.521   6.734
    9AU       S 3975  14.181   7.258   6.669
    9AU     LIG 3976  14.236   7.425   6.262
    9AU     LIG 3977  14.172   7.820   6.017
    9AU     LIG 3978  13.897   8.098   5.751
    9AU     LIG 3979  13.692   8.192   5.329
    9AU    AUSL 3980  14.975   5.891   6.874
    9AU    AUSL 3981  14.351   5.921   7.224
    9AU     AUL 3982  14.605   5.762   6.936
    9AU       S 3983  14.157   5.892   6.996
    9AU     LIG 3984  13.884   5.555   6.842
    9AU     LIG 3985  13.651   5.159   6.694
    9AU     LIG 3986  13.510   4.783   6.453
    9AU     LIG 3987  13.350   4.462   6.162
    9AU       S 3988  15.010   5.500   6.901
    9AU     LIG 3989  15.064   5.119   6.714
    9AU     LIG 3990  14.771   4.780   6.676
    9AU     LIG 3991  14.751   4.330   6.666
    9AU     LIG 3992  14.857   4.026   6.324
    9AU    AUSL 3993  15.154   5.921   7.302
    9AU    AUSL 3994  15.256   6.207   6.960
    9AU     AUL 3995  15.303   5.856   6.908
    9AU       S 3996  15.235   5.505   7.200
    9AU     LIG 3997  15.170   5.015   7.217
    9AU     LIG 3998  15.093   4.567   7.028
    9AU     LIG 3999  15.282   4.108   6.939
    9AU     LIG 4000  15.383   3.618   6.874
    9AU       S 4001  15.539   5.978   6.545
    9AU     LIG 4002  15.439   5.537   6.442
    9AU     LIG 4003  15.671   5.174   6.222
    9AU     LIG 4004  15.950   4.843   6.000
    9AU     LIG 4005  16.235   4.738   5.639
   10AU     AUC 4006  26.542  44.090   7.495
   10AU     AUC 4007  26.832  44.092   7.319
   10AU     AUC 4008  26.787  44.072   7.663
   10AU     AUC 4009  26.266  44.084   7.341
   10AU     AUC 4010  26.282  44.129   7.682
   10AU     AUC 4011  26.382  44.367   7.503
   10AU     AUC 4012  26.733  44.362   7.487
   10AU     AUC 4013  26.348  43.822   7.498
   10AU     AUC 4014  26.704  43.814   7.495
   10AU     AUC 4015  26.544  43.909   7.760
   10AU     AUC 4016  26.539  44.274   7.756
   10AU     AUC 4017  26.537  43.927   7.224
   10AU     AUC 4018  26.570  44.243   7.226
   10AU     AUC 4019  27.160  44.085   7.167
   10AU     AUC 4020  27.153  44.072   7.510
   10AU     AUC 4021  27.084  44.046   7.867
   10AU     AUC 4022  25.943  44.099   7.187
   10AU     AUC 4023  25.937  44.138   7.548
   10AU     AUC 4024  25.994  44.174   7.873
   10AU     AUC 4025  26.232  44.693   7.481
   10AU     AUC 4026  26.585  44.705   7.437
   10AU     AUC 4027  26.912  44.643   7.469
   10AU     AUC 4028  26.146  43.542   7.497
   10AU     AUC 4029  26.478  43.480   7.456
   10AU     AUC 4030  26.871  43.501   7.473
   10AU     AUC 4031  26.525  43.725   8.053
   10AU     AUC 4032  26.540  44.083   8.097
   10AU     AUC 4033  26.578  44.439   8.054
   10AU     AUC 4034  26.560  43.762   6.940
   10AU     AUC 4035  26.547  44.070   6.886
   10AU     AUC 4036  26.556  44.392   6.918
   10AU     AUC 4037  26.806  43.834   7.988
   10AU     AUC 4038  26.846  44.230   7.988
   10AU     AUC 4039  26.885  43.917   7.009
   10AU     AUC 4040  26.881  44.256   7.015
   10AU     AUC 4041  26.245  43.971   8.016
   10AU     AUC 4042  26.276  44.353   7.996
   10AU     AUC 4043  26.228  43.918   7.047
   10AU     AUC 4044  26.214  44.227   7.006
   10AU     AUC 4045  27.072  44.376   7.302
   10AU     AUC 4046  27.004  44.358   7.681
   10AU     AUC 4047  26.052  44.404   7.352
   10AU     AUC 4048  26.094  44.468   7.696
   10AU     AUC 4049  27.044  43.778   7.345
   10AU     AUC 4050  26.997  43.746   7.674
   10AU     AUC 4051  26.003  43.807   7.376
   10AU     AUC 4052  26.065  43.851   7.719
   10AU     AUC 4053  26.420  44.625   7.760
   10AU     AUC 4054  26.759  44.558   7.767
   10AU     AUC 4055  26.343  43.624   7.782
   10AU     AUC 4056  26.664  43.559   7.753
   10AU     AUC 4057  26.373  44.522   7.193
   10AU     AUC 4058  26.755  44.545   7.151
   10AU     AUC 4059  26.325  43.616   7.207
   10AU     AUC 4060  26.716  43.644   7.202
   10AU    AUSL 4061  27.062  43.929   8.268
   10AU    AUSL 4062  26.824  43.535   8.146
   10AU     AUL 4063  27.047  43.513   8.440
   10AU       S 4064  27.184  43.270   8.076
   10AU     LIG 4065  27.097  42.959   8.363
   10AU     LIG 4066  27.270  42.756   8.728
   10AU     LIG 4067  27.535  42.550   9.042
   10AU     LIG 4068  27.502  42.295   9.441
   10AU       S 4069  27.255  43.906   8.367
   10AU     LIG 4070  27.250  44.016   8.796
   10AU     LIG 4071  27.488  43.932   9.177
   10AU     LIG 4072  27.761  43.843   9.544
   10AU     LIG 4073  27.841  43.946   9.995
   10AU    AUSL 4074  26.645  43.854   8.401
   10AU    AUSL 4075  26.416  44.264   8.439
   10AU     AUL 4076  26.601  44.157   8.751
   10AU       S 4077  26.685  43.775   8.526
   10AU     LIG 4078  26.790  43.740   8.954
   10AU     LIG 4079  27.059  43.671   9.327
   10AU     LIG 4080  27.193  43.500   9.749
   10AU     LIG 4081  27.338  43.354  10.175
   10AU       S 4082  26.191  43.999   8.628
   10AU     LIG 4083  26.265  44.013   9.104
   10AU     LIG 4084  26.019  43.997   9.500
   10AU     LIG 4085  25.867  44.115   9.924
   10AU     LIG 4086  25.934  44.448  10.271
   10AU    AUSL 4087  26.737  44.240   8.160
   10AU    AUSL 4088  27.187  44.317   8.113
   10AU     AUL 4089  26.956  44.237   8.452
   10AU       S 4090  26.658  44.615   8.619
   10AU     LIG 4091  27.012  44.489   8.895
   10AU     LIG 4092  27.194  44.668   9.299
   10AU     LIG 4093  27.102  44.824   9.758
   10AU     LIG 4094  27.118  44.928  10.233
   10AU       S 4095  27.343  44.466   8.329
   10AU     LIG 4096  27.776  44.479   8.367
   10AU     LIG 4097  28.030  44.713   8.680
   10AU     LIG 4098  28.244  44.995   8.993
   10AU     LIG 4099  28.414   0.278   9.319
   10AU    AUSL 4100  27.063  44.127   6.837
   10AU    AUSL 4101  26.961  44.562   6.791
   10AU     AUL 4102  27.223  44.401   6.557
   10AU       S 4103  26.865  44.271   6.326
   10AU     LIG 4104  27.324  44.260   6.066
   10AU     LIG 4105  27.559  43.906   5.858
   10AU     LIG 4106  27.669  43.690   5.466
   10AU     LIG 4107  27.765  43.689   5.021
   10AU       S 4108  27.283  44.786   6.823
   10AU     LIG 4109  27.447  44.916   6.415
   10AU     LIG 4110  27.648   0.145   6.053
   10AU     LIG 4111  27.880   0.508   5.867
   10AU     LIG 4112  27.953   0.846   5.542
   10AU    AUSL 4113  26.831  43.866   6.567
   10AU    AUSL 4114  27.292  43.771   6.927
   10AU     AUL 4115  27.221  43.926   6.617
   10AU       S 4116  27.363  43.488   6.722
   10AU     LIG 4117  27.620  43.334   6.393
   10AU     LIG 4118  27.759  42.959   6.167
   10AU     LIG 4119  28.036  42.725   5.878
   10AU     LIG 4120  28.393  42.637   5.593
   10AU       S 4121  26.939  44.088   6.285
   10AU     LIG 4122  27.103  43.758   6.056
   10AU     LIG 4123  27.194  43.569   5.627
   10AU     LIG 4124  27.294  43.463   5.168
   10AU     LIG 4125  27.412  43.489   4.711
   10AU    AUSL 4126  26.656  44.248   6.751
   10AU    AUSL 4127  26.417  43.873   6.701
   10AU     AUL 4128  26.545  43.915   6.427
   10AU       S 4129  26.082  43.942   6.310
   10AU     LIG 4130  26.212  43.586   6.106
   10AU     LIG 4131  26.073  43.445   5.678
   10AU     LIG 4132  25.860  43.433   5.246
   10AU     LIG 4133  25.686  43.575   4.827
   10AU       S 4134  26.729  44.367   6.418
   10AU     LIG 4135  26.830  44.337   5.859
   10AU     LIG 4136  27.140  44.083   5.601
   10AU     LIG 4137  27.332  43.983   5.180
   10AU     LIG 4138  27.314  44.126   4.724
   10AU    AUSL 4139  26.007  44.235   8.261
   10AU    AUSL 4140  26.335  44.597   8.167
   10AU     AUL 4141  26.187  44.496   8.487
   10AU       S 4142  25.995  44.105   8.685
   10AU     LIG 4143  25.821  43.784   8.957
   10AU     LIG 4144  25.614  43.701   9.380
   10AU     LIG 4145  25.417  43.678   9.815
   10AU     LIG 4146  25.043  43.708  10.122
   10AU       S 4147  25.992  44.853   8.247
   10AU     LIG 4148  26.042   0.217   8.496
   10AU     LIG 4149  25.838   0.318   8.896
   10AU     LIG 4150  25.584   0.511   9.230
   10AU     LIG 4151  25.528   0.907   9.465
   10AU    AUSL 4152  26.310  43.941   8.148
   10AU    AUSL 4153  25.888  43.807   8.151
   10AU     AUL 4154  25.801  44.039   8.273
   10AU       S 4155  25.805  43.581   8.404
   10AU     LIG 4156  25.361  43.492   8.225
   10AU     LIG 4157  25.115  43.103   8.298
   10AU     LIG 4158  25.007  42.789   8.609
   10AU     LIG 4159  24.744  42.557   8.901
   10AU       S 4160  26.180  43.873   8.547
   10AU     LIG 4161  26.290  43.565   8.875
   10AU     LIG 4162  26.118  43.527   9.313
   10AU     LIG 4163  25.935  43.519   9.753
   10AU     LIG 4164  25.875  43.208  10.114
   10AU    AUSL 4165  26.015  44.016   6.793
   10AU    AUSL 4166  26.211  43.636   6.990
   10AU     AUL 4167  26.189  43.641   6.637
   10AU       S 4168  25.861  43.914   6.448
   10AU     LIG 4169  25.705  43.650   6.097
   10AU     LIG 4170  25.616  43.688   5.635
   10AU     LIG 4171  25.377  43.688   5.225
   10AU     LIG 4172  24.949  43.673   4.990
   10AU       S 4173  25.785  43.525   6.811
   10AU     LIG 4174  25.847  43.283   6.469
   10AU     LIG 4175  25.577  42.929   6.330
   10AU     LIG 4176  25.264  42.603   6.179
   10AU     LIG 4177  24.949  42.303   5.987
   10AU    AUSL 4178  26.279  44.300   6.557
   10AU    AUSL 4179  25.802  44.373   6.937
   10AU     AUL 4180  25.925  44.341   6.612
   10AU       S 4181  25.537  44.557   6.782
   10AU     LIG 4182  25.338  44.794   6.434
   10AU     LIG 4183  25.323   0.104   6.104
   10AU     LIG 4184  25.114   0.308   5.748
   10AU     LIG 4185  24.721   0.282   5.491
   10AU       S 4186  26.169  44.158   6.255
   10AU     LIG 4187  26.013  43.984   5.824
   10AU     LIG 4188  26.031  43.892   5.381
   10AU     LIG 4189  26.015  43.955   4.925
   10AU     LIG 4190  26.084  44.234   4.552
   10AU    AUSL 4191  27.327  44.615   7.491
   10AU    AUSL 4192  27.306  44.391   7.075
   10AU     AUL 4193  27.605  44.740   7.231
   10AU       S 4194  27.406  44.462   6.959
   10AU     LIG 4195  27.762  44.639   6.729
   10AU     LIG 4196  27.950  44.806   6.327
   10AU     LIG 4197  28.161   0.090   6.010
   10AU     LIG 4198  28.334   0.373   5.663
   10AU       S 4199  27.719  44.746   7.673
   10AU     LIG 4200  28.095  44.911   7.525
   10AU     LIG 4201  28.519  44.820   7.631
   10AU     LIG 4202  28.878   0.098   7.695
   10AU     LIG 4203  29.281   0.343   7.715
   10AU    AUSL 4204  27.534  44.213   7.397
   10AU    AUSL 4205  27.464  43.886   7.745
   10AU     AUL 4206  27.684  44.109   7.804
   10AU       S 4207  27.789  44.356   7.417
   10AU     LIG 4208  28.238  44.495   7.271
   10AU     LIG 4209  28.729  44.599   7.224
   10AU     LIG 4210  29.200  44.604   7.051
   10AU     LIG 4211  29.574  44.718   6.754
   10AU       S 4212  27.742  43.676   7.613
   10AU     LIG 4213  28.162  43.515   7.587
   10AU     LIG 4214  28.512  43.461   7.850
   10AU     LIG 4215  28.961  43.377   7.931
   10AU     LIG 4216  29.431  43.254   7.870
   10AU    AUSL 4217  27.212  44.226   7.692
   10AU    AUSL 4218  27.048  44.617   7.821
   10AU     AUL 4219  27.392  44.491   7.864
   10AU       S 4220  27.350  44.769   8.233
   10AU     LIG 4221  27.695  44.997   8.401
   10AU     LIG 4222  27.954   0.264   8.668
   10AU     LIG 4223  28.264   0.537   8.889
   10AU     LIG 4224  28.443   0.952   9.027
   10AU       S 4225  27.787  44.528   7.634
   10AU     LIG 4226  28.174  44.417   7.781
   10AU     LIG 4227  28.612  44.319   7.813
   10AU     LIG 4228  28.966  44.564   7.763
   10AU     LIG 4229  29.234  44.874   8.005
   10AU    AUSL 4230  25.906  44.700   7.528
   10AU    AUSL 4231  25.992  44.473   7.908
   10AU     AUL 4232  25.700  44.812   7.793
   10AU       S 4233  25.827  44.662   8.208
   10AU     LIG 4234  25.597  44.950   8.542
   10AU     LIG 4235  25.342   0.205   8.864
   10AU     LIG 4236  25.092   0.231   9.272
   10AU     LIG 4237  24.675   0.131   9.510
   10AU       S 4238  25.903   0.068   7.454
   10AU     LIG 4239  25.395   0.038   7.468
   10AU     LIG 4240  24.916   0.193   7.592
   10AU     LIG 4241  24.517   0.491   7.735
   10AU     LIG 4242  24.286   0.941   7.836
   10AU    AUSL 4243  25.859  44.294   7.349
   10AU    AUSL 4244  25.976  44.747   7.104
   10AU     AUL 4245  25.679  44.649   7.225
   10AU       S 4246  25.445  44.095   6.994
   10AU     LIG 4247  25.117  44.450   7.117
   10AU     LIG 4248  24.717  44.740   7.179
   10AU     LIG 4249  24.254  44.944   7.172
   10AU     LIG 4250  23.772  44.955   7.083
   10AU       S 4251  25.815   0.001   6.922
   10AU     LIG 4252  25.581   0.251   6.573
   10AU     LIG 4253  25.545   0.562   6.202
   10AU     LIG 4254  25.380   0.987   6.045
   10AU     LIG 4255  25.138   1.397   6.199
   10AU    AUSL 4256  25.624  44.362   7.723
   10AU    AUSL 4257  25.563  43.991   7.432
   10AU     AUL 4258  25.462  44.299   7.432
   10AU       S 4259  25.377  43.919   7.712
   10AU     LIG 4260  25.043  43.973   7.390
   10AU     LIG 4261  24.605  43.773   7.267
   10AU     LIG 4262  24.125  43.631   7.288
   10AU     LIG 4263  23.707  43.417   7.136
   10AU       S 4264  25.497  44.393   7.936
   10AU     LIG 4265  25.076  44.464   7.701
   10AU     LIG 4266  24.659  44.735   7.692
   10AU     LIG 4267  24.189  44.879   7.755
   10AU     LIG 4268  23.748  44.804   7.967
   10AU    AUSL 4269  27.284  43.520   7.565
   10AU    AUSL 4270  27.064  43.777   7.868
   10AU     AUL 4271  27.399  43.684   7.965
   10AU       S 4272  27.590  43.439   7.600
   10AU     LIG 4273  27.830  43.148   7.775
   10AU     LIG 4274  28.249  43.017   7.633
   10AU     LIG 4275  28.691  43.098   7.539
   10AU     LIG 4276  29.087  42.917   7.663
   10AU       S 4277  27.282  43.246   7.959
   10AU     LIG 4278  27.609  43.080   8.264
   10AU     LIG 4279  27.769  42.873   8.660
   10AU     LIG 4280  28.032  42.731   9.018
   10AU     LIG 4281  28.320  42.912   9.365
   10AU    AUSL 4282  27.251  43.897   7.334
   10AU    AUSL 4283  27.136  43.425   7.167
   10AU     AUL 4284  27.433  43.584   7.189
   10AU       S 4285  27.772  43.796   7.398
   10AU     LIG 4286  27.885  43.350   7.200
   10AU     LIG 4287  28.341  43.194   7.142
   10AU     LIG 4288  28.834  43.214   7.055
   10AU     LIG 4289  29.322  43.226   7.005
   10AU       S 4290  27.346  43.263   6.846
   10AU     LIG 4291  27.541  42.886   6.646
   10AU     LIG 4292  27.705  42.494   6.404
   10AU     LIG 4293  27.944  42.074   6.327
   10AU     LIG 4294  28.251  41.709   6.445
   10AU    AUSL 4295  25.748  43.610   7.579
   10AU    AUSL 4296  25.865  43.847   7.162
   10AU     AUL 4297  25.515  43.696   7.302
   10AU       S 4298  25.707  43.670   6.881
   10AU     LIG 4299  25.359  43.362   6.641
   10AU     LIG 4300  25.076  43.035   6.429
   10AU     LIG 4301  24.762  42.739   6.218
   10AU     LIG 4302  24.479  42.509   5.911
   10AU       S 4303  25.335  43.685   7.746
   10AU     LIG 4304  24.911  43.523   7.624
   10AU     LIG 4305  24.472  43.327   7.526
   10AU     LIG 4306  24.013  43.137   7.459
   10AU     LIG 4307  23.710  42.759   7.353
   10AU    AUSL 4308  25.852  43.999   7.770
   10AU    AUSL 4309  26.099  43.599   7.830
   10AU     AUL 4310  25.757  43.576   7.912
   10AU       S 4311  25.825  43.357   8.318
   10AU     LIG 4312  25.591  42.964   8.163
   10AU     LIG 4313  25.292  42.560   8.243
   10AU     LIG 4314  24.955  42.279   8.488
   10AU     LIG 4315  24.742  41.889   8.674
   10AU       S 4316  25.448  43.923   7.897
   10AU     LIG 4317  24.930  43.976   7.900
   10AU     LIG 4318  24.497  43.808   7.767
   10AU     LIG 4319  24.097  43.557   7.800
   10AU     LIG 4320  23.672  43.393   7.764
   10AU    AUSL 4321  26.622  44.765   7.886
   10AU    AUSL 4322  26.185  44.855   7.828
   10AU     AUL 4323  26.456  44.915   8.168
   10AU       S 4324  26.076   0.062   7.939
   10AU     LIG 4325  25.700   0.237   8.089
   10AU     LIG 4326  25.571   0.460   8.456
   10AU     LIG 4327  25.449   0.729   8.791
   10AU     LIG 4328  25.353   1.124   9.016
   10AU       S 4329  26.685   0.252   7.929
   10AU     LIG 4330  26.463   0.424   8.258
   10AU     LIG 4331  26.433   0.805   8.487
   10AU     LIG 4332  26.613   1.184   8.621
   10AU     LIG 4333  26.483   1.489   8.939
   10AU    AUSL 4334  26.461   0.049   7.562
   10AU    AUSL 4335  26.722  44.990   7.179
   10AU     AUL 4336  26.646   0.338   7.334
   10AU       S 4337  26.524   0.220   7.768
   10AU     LIG 4338  26.341   0.620   7.792
   10AU     LIG 4339  26.339   1.007   8.034
   10AU     LIG 4340  26.328   1.414   8.262
   10AU     LIG 4341  26.087   1.796   8.122
   10AU       S 4342  26.434   0.152   6.974
   10AU     LIG 4343  26.828   0.406   6.884
   10AU     LIG 4344  26.894   0.846   6.851
   10AU     LIG 4345  26.833   1.280   6.703
   10AU     LIG 4346  26.756   1.721   6.602
   10AU    AUSL 4347  26.899  44.936   7.579
   10AU    AUSL 4348  26.866  44.643   8.220
   10AU     AUL 4349  26.975  44.901   7.991
   10AU       S 4350  27.116  44.700   8.416
   10AU     LIG 4351  27.464  44.694   8.754
   10AU     LIG 4352  27.716  44.957   9.018
   10AU     LIG 4353  27.900   0.339   9.196
   10AU     LIG 4354  28.091   0.636   9.501
   10AU       S 4355  26.920   0.236   7.687
   10AU     LIG 4356  26.854   0.697   7.798
   10AU     LIG 4357  26.825   1.000   8.159
   10AU     LIG 4358  26.846   1.467   8.232
   10AU     LIG 4359  27.051   1.914   8.198
   10AU    AUSL 4360  26.488  43.388   7.907
   10AU    AUSL 4361  26.901  43.392   7.726
   10AU     AUL 4362  26.722  43.236   8.108
   10AU       S 4363  26.432  42.905   7.975
   10AU     LIG 4364  26.395  42.612   8.303
   10AU     LIG 4365  26.321  42.156   8.273
   10AU     LIG 4366  26.522  41.732   8.400
   10AU     LIG 4367  26.553  41.326   8.647
   10AU       S 4368  27.068  43.152   7.786
   10AU     LIG 4369  27.324  42.759   7.941
   10AU     LIG 4370  27.527  42.564   8.322
   10AU     LIG 4371  27.817  42.346   8.646
   10AU     LIG 4372  28.082  41.945   8.765
   10AU    AUSL 4373  26.164  43.230   7.632
   10AU    AUSL 4374  26.275  43.531   8.248
   10AU     AUL 4375  26.139  43.269   7.993
   10AU       S 4376  26.257  42.842   7.840
   10AU     LIG 4377  25.947  42.579   8.060
   10AU     LIG 4378  25.795  42.134   8.048
   10AU     LIG 4379  25.742  41.664   8.056
   10AU     LIG 4380  25.695  41.232   8.249
   10AU       S 4381  26.088  43.411   8.444
   10AU     LIG 4382  25.993  42.926   8.484
   10AU     LIG 4383  25.572  42.728   8.632
   10AU     LIG 4384  25.276  42.424   8.857
   10AU     LIG 4385  24.965  42.139   9.086
   10AU    AUSL 4386  26.601  43.118   7.577
   10AU    AUSL 4387  26.335  43.258   7.228
   10AU     AUL 4388  26.234  42.994   7.404
   10AU       S 4389  26.543  42.965   7.064
   10AU     LIG 4390  26.187  42.662   7.006
   10AU     LIG 4391  26.117  42.168   7.041
   10AU     LIG 4392  25.938  41.699   6.970
   10AU     LIG 4393  25.791  41.297   6.718
   10AU       S 4394  26.593  42.915   7.735
   10AU     LIG 4395  26.582  42.430   7.849
   10AU     LIG 4396  26.696  41.961   7.948
   10AU     LIG 4397  26.825  41.507   8.038
   10AU     LIG 4398  26.952  41.194   8.363
   10AU    AUSL 4399  26.552  44.708   6.862
   10AU    AUSL 4400  26.990  44.660   7.217
   10AU     AUL 4401  26.828  44.892   6.844
   10AU       S 4402  26.424   0.132   6.758
   10AU     LIG 4403  26.433   0.563   6.596
   10AU     LIG 4404  26.650   0.913   6.397
   10AU     LIG 4405  26.561   1.331   6.227
   10AU     LIG 4406  26.534   1.507   5.793
   10AU       S 4407  27.199  44.877   7.102
   10AU     LIG 4408  27.619   0.132   6.867
   10AU     LIG 4409  27.906   0.297   6.479
   10AU     LIG 4410  28.281   0.538   6.242
   10AU     LIG 4411  28.742   0.751   6.227
   10AU    AUSL 4412  26.365  44.751   7.269
   10AU    AUSL 4413  26.246  44.423   6.964
   10AU     AUL 4414  26.207  44.733   6.826
   10AU       S 4415  26.265   0.119   7.119
   10AU     LIG 4416  26.297   0.618   7.100
   10AU     LIG 4417  26.400   1.006   6.857
   10AU     LIG 4418  26.335   1.420   6.684
   10AU     LIG 4419  26.234   1.855   6.606
   10AU       S 4420  25.774  44.780   6.681
   10AU     LIG 4421  25.816  44.944   6.240
   10AU     LIG 4422  25.753   0.228   5.857
   10AU     LIG 4423  25.542   0.604   5.666
   10AU     LIG 4424  25.505   0.923   5.318
   10AU    AUSL 4425  26.551  43.400   6.861
   10AU    AUSL 4426  25.935  43.410   7.247
   10AU     AUL 4427  26.172  43.257   6.933
   10AU       S 4428  25.732  43.374   7.040
   10AU     LIG 4429  25.633  42.968   6.848
   10AU     LIG 4430  25.292  42.649   6.696
   10AU     LIG 4431  24.938  42.349   6.516
   10AU     LIG 4432  24.555  42.148   6.301
   10AU       S 4433  26.567  43.010   6.820
   10AU     LIG 4434  26.562  42.584   6.651
   10AU     LIG 4435  26.405  42.133   6.618
   10AU     LIG 4436  26.340  41.649   6.596
   10AU     LIG 4437  26.402  41.242   6.323
   10AU    AUSL 4438  26.732  43.406   7.286
   10AU    AUSL 4439  26.846  43.700   6.958
   10AU     AUL 4440  26.893  43.316   6.946
   10AU       S 4441  26.734  42.942   7.164
   10AU     LIG 4442  26.630  42.440   7.142
   10AU     LIG 4443  26.627  41.937   7.042
   10AU     LIG 4444  26.782  41.464   6.933
   10AU     LIG 4445  26.789  40.994   6.760
   10AU       S 4446  27.115  43.467   6.583
   10AU     LIG 4447  27.042  43.024   6.518
   10AU     LIG 4448  27.270  42.733   6.231
   10AU     LIG 4449  27.547  42.548   5.898
   10AU     LIG 4450  27.736  42.598   5.467
   11POPC   NC3 4451  12.034  13.466   9.793
   11POPC   PO4 4452  11.877  13.946   9.422
   11POPC   GL1 4453  12.029  13.592   9.177
   11POPC   GL2 4454  12.168  13.867   8.983
   11POPC   C1A 4455  12.241  13.392   8.823
   11POPC   D2A 4456  12.291  13.694   8.520
   11POPC   C3A 4457  12.190  13.713   8.113
   11POPC   C4A 4458  12.002  13.508   7.786
   11POPC   C1B 4459  11.798  13.761   8.763
   11POPC   C2B 4460  11.751  13.743   8.357
   11POPC   C3B 4461  11.799  13.966   7.925
   11POPC   C4B 4462  11.796  13.843   7.465
   12POPC   NC3 4463  22.389  13.667   9.633
   12POPC   PO4 4464  21.888  13.352   9.604
   12POPC   GL1 4465  22.022  13.662   9.249
   12POPC   GL2 4466  22.384  13.724   9.142
   12POPC   C1A 4467  21.991  13.841   8.818
   12POPC   D2A 4468  21.881  13.964   8.389
   12POPC   C3A 4469  21.954  13.733   7.975
   12POPC   C4A 4470  22.236  13.801   7.627
   12POPC   C1B 4471  22.502  13.734   8.723
   12POPC   C2B 4472  22.345  13.688   8.305
   12POPC   C3B 4473  22.533  13.513   7.933
   12POPC   C4B 4474  22.596  13.416   7.496
   13POPC   NC3 4475  38.268  18.197   9.465
   13POPC   PO4 4476  38.996  18.160   9.522
   13POPC   GL1 4477  38.756  18.316   9.181
   13POPC   GL2 4478  38.577  18.621   9.082
   13POPC   C1A 4479  38.556  18.211   8.800
   13POPC   D2A 4480  38.538  18.438   8.451
   13POPC   C3A 4481  38.549  18.144   8.156
   13POPC   C4A 4482  38.609  18.207   7.772
   13POPC   C1B 4483  38.184  18.646   8.775
   13POPC   C2B 4484  38.162  18.753   8.299
   13POPC   C3B 4485  38.197  18.456   7.938
   13POPC   C4B 4486  38.155  18.001   7.760
   14POPC   NC3 4487  32.847  39.148   9.715
   14POPC   PO4 4488  33.365  39.531   9.583
   14POPC   GL1 4489  32.992  39.380   9.236
   14POPC   GL2 4490  33.035  39.042   9.077
   14POPC   C1A 4491  32.771  39.347   8.819
   14POPC   D2A 4492  32.845  39.490   8.436
   14POPC   C3A 4493  32.982  39.341   8.057
   14POPC   C4A 4494  33.160  39.631   7.821
   14POPC   C1B 4495  33.196  38.958   8.717
   14POPC   C2B 4496  32.915  38.979   8.455
   14POPC   C3B 4497  32.760  38.893   8.124
   14POPC   C4B 4498  32.897  38.924   7.751
   15POPC   NC3 4499  29.308   1.572   9.442
   15POPC   PO4 4500  28.686   1.404   9.546
   15POPC   GL1 4501  28.955   1.407   9.111
   15POPC   GL2 4502  29.243   1.174   9.144
   15POPC   C1A 4503  29.313   1.518   8.757
   15POPC   D2A 4504  29.431   1.283   8.351
   15POPC   C3A 4505  29.211   1.303   7.943
   15POPC   C4A 4506  29.302   1.382   7.503
   15POPC   C1B 4507  29.523   1.024   8.848
   15POPC   C2B 4508  29.525   0.760   8.476
   15POPC   C3B 4509  29.530   0.761   8.046
   15POPC   C4B 4510  29.645   1.080   7.788
   16POPC   NC3 4511  12.842  38.870   9.436
   16POPC   PO4 4512  13.117  38.311   9.608
   16POPC   GL1 4513  12.844  38.279   9.197
   16POPC   GL2 4514  12.814  38.606   9.004
   16POPC   C1A 4515  12.672  38.196   8.751
   16POPC   D2A 4516  12.789  38.543   8.447
   16POPC   C3A 4517  12.793  38.547   8.020
   16POPC   C4A 4518  12.985  38.907   7.859
   16POPC   C1B 4519  13.133  38.365   8.761
   16POPC   C2B 4520  13.365  38.367   8.382
   16POPC   C3B 4521  13.300  38.393   7.938
   16POPC   C4B 4522  13.149  37.972   7.881
   17POPC   NC3 4523  16.240  42.450   9.329
   17POPC   PO4 4524  16.897  42.455   9.409
   17POPC   GL1 4525  16.841  42.532   9.006
   17POPC   GL2 4526  16.547  42.336   8.948
   17POPC   C1A 4527  16.850  42.474   8.569
   17POPC   D2A 4528  16.869  42.187   8.234
   17POPC   C3A 4529  17.096  42.304   7.883
   17POPC   C4A 4530  16.969  42.361   7.493
   17POPC   C1B 4531  16.333  42.451   8.562
   17POPC   C2B 4532  16.523  42.586   8.180
   17POPC   C3B 4533  16.567  42.362   7.816
   17POPC   C4B 4534  16.778  41.941   7.706
   18POPC   NC3 4535  31.390  40.208   9.426
   18POPC   PO4 4536  31.929  39.756   9.448
   18POPC   GL1 4537  31.721  39.951   9.120
   18POPC   GL2 4538  31.399  39.807   9.101
   18POPC   C1A 4539  31.587  40.165   8.747
   18POPC   D2A 4540  31.589  40.481   8.426
   18POPC   C3A 4541  31.506  40.272   8.018
   18POPC   C4A 4542  31.696  39.901   7.848
   18POPC   C1B 4543  31.145  39.902   8.757
   18POPC   C2B 4544  31.321  39.899   8.354
   18POPC   C3B 4545  31.175  39.844   7.954
   18POPC   C4B 4546  31.274  39.635   7.577
   19POPC   NC3 4547  26.935  23.130   9.477
   19POPC   PO4 4548  26.940  22.451   9.434
   19POPC   GL1 4549  26.794  22.750   9.115
   19POPC   GL2 4550  27.019  23.040   8.989
   19POPC   C1A 4551  26.755  22.781   8.659
   19POPC   D2A 4552  27.004  23.053   8.429
   19POPC   C3A 4553  27.135  23.023   8.012
   19POPC   C4A 4554  26.891  22.968   7.634
   19POPC   C1B 4555  26.701  23.320   8.754
   19POPC   C2B 4556  26.560  23.528   8.371
   19POPC   C3B 4557  26.728  23.348   7.989
   19POPC   C4B 4558  26.656  23.494   7.589
   20POPC   NC3 4559  10.632  26.696   9.982
   20POPC   PO4 4560  10.631  27.147   9.434
   20POPC   GL1 4561  10.473  26.966   9.095
   20POPC   GL2 4562  10.554  26.660   9.266
   20POPC   C1A 4563  10.331  26.895   8.671
   20POPC   D2A 4564  10.644  26.878   8.318
   20POPC   C3A 4565  10.482  27.008   7.929
   20POPC   C4A 4566  10.322  26.999   7.475
   20POPC   C1B 4567  10.660  26.564   8.826
   20POPC   C2B 4568  10.554  26.368   8.393
   20POPC   C3B 4569  10.574  26.496   7.956
   20POPC   C4B 4570  10.764  26.748   7.602
   21POPC   NC3 4571  22.280  41.403   9.416
   21POPC   PO4 4572  22.015  41.962   9.252
   21POPC   GL1 4573  22.068  41.682   9.000
   21POPC   GL2 4574  22.394  41.697   8.983
   21POPC   C1A 4575  22.063  41.702   8.579
   21POPC   D2A 4576  22.106  41.516   8.211
   21POPC   C3A 4577  22.053  41.819   7.937
   21POPC   C4A 4578  21.961  41.874   7.489
   21POPC   C1B 4579  22.288  41.281   8.759
   21POPC   C2B 4580  22.477  41.165   8.373
   21POPC   C3B 4581  22.469  41.286   7.938
   21POPC   C4B 4582  22.119  41.391   7.678
   22POPC   NC3 4583  24.872  31.363   9.195
   22POPC   PO4 4584  24.303  31.326   9.578
   22POPC   GL1 4585  24.354  31.325   9.151
   22POPC   GL2 4586  24.437  31.693   9.211
   22POPC   C1A 4587  24.381  31.187   8.703
   22POPC   D2A 4588  24.730  31.059   8.398
   22POPC   C3A 4589  24.768  31.254   7.963
   22POPC   C4A 4590  24.473  31.281   7.620
   22POPC   C1B 4591  24.174  31.706   8.861
   22POPC   C2B 4592  24.278  31.781   8.451
   22POPC   C3B 4593  24.315  31.626   8.039
   22POPC   C4B 4594  24.603  31.778   7.763
   23POPC   NC3 4595   2.501  21.023   9.316
   23POPC   PO4 4596   2.917  21.512   9.584
   23POPC   GL1 4597   2.964  21.396   9.187
   23POPC   GL2 4598   3.051  21.034   9.147
   23POPC   C1A 4599   2.696  21.566   8.840
   23POPC   D2A 4600   2.475  21.369   8.471
   23POPC   C3A 4601   2.544  21.559   8.063
   23POPC   C4A 4602   2.775  21.508   7.687
   23POPC   C1B 4603   2.787  21.063   8.749
   23POPC   C2B 4604   2.784  20.981   8.310
   23POPC   C3B 4605   2.616  21.072   7.915
   23POPC   C4B 4606   2.759  21.047   7.508
   24POPC   NC3 4607  35.707   6.803   9.433
   24POPC   PO4 4608  35.180   6.320   9.261
   24POPC   GL1 4609  35.394   6.667   9.049
   24POPC   GL2 4610  35.090   6.820   8.976
   24POPC   C1A 4611  35.511   6.859   8.640
   24POPC   D2A 4612  35.513   7.101   8.248
   24POPC   C3A 4613  35.442   6.901   7.854
   24POPC   C4A 4614  35.546   6.588   7.551
   24POPC   C1B 4615  35.154   6.490   8.633
   24POPC   C2B 4616  35.322   6.348   8.251
   24POPC   C3B 4617  35.179   6.445   7.858
   24POPC   C4B 4618  35.144   6.302   7.413
   25POPC   NC3 4619  21.151  17.504   9.464
   25POPC   PO4 4620  21.469  18.021   9.663
   25POPC   GL1 4621  21.352  17.894   9.206
   25POPC   GL2 4622  21.689  17.845   9.104
   25POPC   C1A 4623  21.283  17.710   8.756
   25POPC   D2A 4624  21.098  17.373   8.457
   25POPC   C3A 4625  21.217  17.295   8.016
   25POPC   C4A 4626  21.088  17.529   7.665
   25POPC   C1B 4627  21.802  17.689   8.680
   25POPC   C2B 4628  21.566  17.580   8.310
   25POPC   C3B 4629  21.514  17.700   7.881
   25POPC   C4B 4630  21.559  17.392   7.531
   26POPC   NC3 4631  12.190  10.332   9.590
   26POPC   PO4 4632  11.803  10.769   9.469
   26POPC   GL1 4633  11.985  10.555   9.149
   26POPC   GL2 4634  11.825  10.232   9.224
   26POPC   C1A 4635  12.065  10.700   8.702
   26POPC   D2A 4636  12.291  10.650   8.295
   26POPC   C3A 4637  12.244  10.681   7.842
   26POPC   C4A 4638  12.065  10.445   7.515
   26POPC   C1B 4639  11.660  10.108   8.835
   26POPC   C2B 4640  11.725  10.342   8.452
   26POPC   C3B 4641  11.873  10.315   8.048
   26POPC   C4B 4642  11.794  10.036   7.723
   27POPC   NC3 4643   4.078  20.959   9.716
   27POPC   PO4 4644   4.408  20.401   9.486
   27POPC   GL1 4645   4.267  20.591   9.160
   27POPC   GL2 4646   4.465  20.868   9.105
   27POPC   C1A 4647   4.190  20.450   8.768
   27POPC   D2A 4648   4.341  20.622   8.408
   27POPC   C3A 4649   4.303  20.407   8.033
   27POPC   C4A 4650   3.987  20.546   7.749
   27POPC   C1B 4651   4.699  20.885   8.707
   27POPC   C2B 4652   4.672  21.013   8.268
   27POPC   C3B 4653   4.376  20.884   7.960
   27POPC   C4B 4654   4.448  20.698   7.553
   28POPC   NC3 4655  16.606  34.799   9.416
   28POPC   PO4 4656  16.672  34.124   9.338
   28POPC   GL1 4657  16.761  34.459   9.055
   28POPC   GL2 4658  16.435  34.622   8.975
   28POPC   C1A 4659  16.874  34.595   8.647
   28POPC   D2A 4660  16.669  34.651   8.251
   28POPC   C3A 4661  16.903  34.712   7.873
   28POPC   C4A 4662  17.186  34.984   7.667
   28POPC   C1B 4663  16.414  34.258   8.709
   28POPC   C2B 4664  16.442  34.160   8.277
   28POPC   C3B 4665  16.616  34.283   7.893
   28POPC   C4B 4666  16.531  34.471   7.464
   29POPC   NC3 4667  22.430  42.132   9.372
   29POPC   PO4 4668  21.853  42.465   9.622
   29POPC   GL1 4669  21.936  42.490   9.172
   29POPC   GL2 4670  22.296  42.520   9.070
   29POPC   C1A 4671  21.954  42.446   8.716
   29POPC   D2A 4672  22.276  42.662   8.433
   29POPC   C3A 4673  22.133  42.653   7.996
   29POPC   C4A 4674  21.983  42.302   7.749
   29POPC   C1B 4675  22.375  42.171   8.722
   29POPC   C2B 4676  22.154  42.156   8.333
   29POPC   C3B 4677  22.410  42.209   8.000
   29POPC   C4B 4678  22.425  41.973   7.649
   30POPC   NC3 4679  40.654  27.824   9.803
   30POPC   PO4 4680  40.521  27.751   9.162
   30POPC   GL1 4681  40.809  27.532   8.919
   30POPC   GL2 4682  41.075  27.782   8.802
   30POPC   C1A 4683  40.801  27.539   8.486
   30POPC   D2A 4684  40.472  27.620   8.302
   30POPC   C3A 4685  40.674  27.662   7.947
   30POPC   C4A 4686  40.591  27.446   7.625
   30POPC   C1B 4687  41.237  27.327   8.697
   30POPC   C2B 4688  41.464  27.239   8.350
   30POPC   C3B 4689  41.200  27.447   8.062
   30POPC   C4B 4690  41.199  27.838   7.862
   31POPC   NC3 4691   3.124   0.222   9.430
   31POPC   PO4 4692   2.563   0.643   9.667
   31POPC   GL1 4693   2.783   0.534   9.221
   31POPC   GL2 4694   2.776   0.132   9.073
   31POPC   C1A 4695   2.912   0.513   8.775
   31POPC   D2A 4696   2.732   0.560   8.376
   31POPC   C3A 4697   2.910   0.482   8.010
   31POPC   C4A 4698   2.654   0.648   7.728
   31POPC   C1B 4699   2.542   0.169   8.654
   31POPC   C2B 4700   2.620   0.026   8.251
   31POPC   C3B 4701   2.472   0.037   7.839
   31POPC   C4B 4702   2.436   0.290   7.458
   32POPC   NC3 4703  26.914   4.041   9.481
   32POPC   PO4 4704  26.891   4.730   9.442
   32POPC   GL1 4705  26.859   4.457   9.107
   32POPC   GL2 4706  26.552   4.273   9.204
   32POPC   C1A 4707  27.011   4.447   8.669
   32POPC   D2A 4708  26.984   4.662   8.246
   32POPC   C3A 4709  27.198   4.523   7.843
   32POPC   C4A 4710  27.239   4.342   7.389
   32POPC   C1B 4711  26.530   4.241   8.772
   32POPC   C2B 4712  26.648   4.238   8.363
   32POPC   C3B 4713  26.515   4.377   7.973
   32POPC   C4B 4714  26.811   4.199   7.699
   33POPC   NC3 4715  41.078  26.480   9.384
   33POPC   PO4 4716  41.661  26.871   9.493
   33POPC   GL1 4717  41.457  26.779   9.129
   33POPC   GL2 4718  41.532  26.422   9.109
   33POPC   C1A 4719  41.632  26.921   8.726
   33POPC   D2A 4720  41.882  26.697   8.417
   33POPC   C3A 4721  41.764  26.737   7.990
   33POPC   C4A 4722  41.515  27.078   7.869
   33POPC   C1B 4723  41.350  26.496   8.713
   33POPC   C2B 4724  41.323  26.721   8.311
   33POPC   C3B 4725  41.294  26.621   7.860
   33POPC   C4B 4726  41.225  26.881   7.506
   34POPC   NC3 4727  25.710  29.117   9.415
   34POPC   PO4 4728  26.255  28.837   9.513
   34POPC   GL1 4729  26.150  29.080   9.135
   34POPC   GL2 4730  26.203  29.431   9.052
   34POPC   C1A 4731  26.038  28.937   8.742
   34POPC   D2A 4732  26.275  28.832   8.391
   34POPC   C3A 4733  26.074  29.026   8.056
   34POPC   C4A 4734  26.203  28.894   7.685
   34POPC   C1B 4735  25.870  29.426   8.784
   34POPC   C2B 4736  25.701  29.486   8.387
   34POPC   C3B 4737  25.703  29.394   7.964
   34POPC   C4B 4738  25.949  29.323   7.630
   35POPC   NC3 4739  34.737  36.395   9.495
   35POPC   PO4 4740  34.567  37.006   9.544
   35POPC   GL1 4741  34.754  36.816   9.192
   35POPC   GL2 4742  34.435  36.631   9.140
   35POPC   C1A 4743  34.744  36.690   8.758
   35POPC   D2A 4744  34.674  36.986   8.441
   35POPC   C3A 4745  34.667  36.961   8.032
   35POPC   C4A 4746  34.491  37.303   7.778
   35POPC   C1B 4747  34.274  36.916   8.770
   35POPC   C2B 4748  34.160  36.980   8.302
   35POPC   C3B 4749  34.183  36.882   7.846
   35POPC   C4B 4750  34.134  36.607   7.477
   36POPC   NC3 4751  22.947   3.277   9.483
   36POPC   PO4 4752  22.521   3.791   9.637
   36POPC   GL1 4753  22.813   3.720   9.246
   36POPC   GL2 4754  22.831   3.411   9.024
   36POPC   C1A 4755  22.961   3.828   8.803
   36POPC   D2A 4756  22.973   3.584   8.411
   36POPC   C3A 4757  22.902   3.830   8.030
   36POPC   C4A 4758  22.908   3.744   7.579
   36POPC   C1B 4759  22.560   3.238   8.737
   36POPC   C2B 4760  22.653   3.170   8.320
   36POPC   C3B 4761  22.917   3.045   8.001
   36POPC   C4B 4762  22.672   3.135   7.660
   37POPC   NC3 4763  34.325  16.689   9.464
   37POPC   PO4 4764  34.948  16.459   9.446
   37POPC   GL1 4765  34.654  16.550   9.083
   37POPC   GL2 4766  34.524  16.905   9.034
   37POPC   C1A 4767  34.452  16.553   8.662
   37POPC   D2A 4768  34.407  16.861   8.312
   37POPC   C3A 4769  34.583  16.753   7.890
   37POPC   C4A 4770  34.436  16.584   7.507
   37POPC   C1B 4771  34.842  16.896   8.679
   37POPC   C2B 4772  34.908  17.005   8.226
   37POPC   C3B 4773  34.917  17.136   7.791
   37POPC   C4B 4774  34.603  17.205   7.457
   38POPC   NC3 4775   5.226  43.939   9.558
   38POPC   PO4 4776   5.364  43.420   9.228
   38POPC   GL1 4777   5.191  43.820   9.055
   38POPC   GL2 4778   4.852  43.983   9.168
   38POPC   C1A 4779   5.164  43.774   8.616
   38POPC   D2A 4780   4.814  43.619   8.365
   38POPC   C3A 4781   4.968  43.623   7.948
   38POPC   C4A 4782   5.335  43.781   7.698
   38POPC   C1B 4783   4.894  44.190   8.755
   38POPC   C2B 4784   4.941  44.117   8.301
   38POPC   C3B 4785   4.835  44.105   7.875
   38POPC   C4B 4786   4.937  43.932   7.443
   39POPC   NC3 4787  27.705  36.186   9.543
   39POPC   PO4 4788  27.151  36.458   9.338
   39POPC   GL1 4789  27.391  36.160   9.104
   39POPC   GL2 4790  27.688  36.372   9.081
   39POPC   C1A 4791  27.494  36.109   8.664
   39POPC   D2A 4792  27.582  36.211   8.249
   39POPC   C3A 4793  27.305  36.056   7.947
   39POPC   C4A 4794  27.255  35.636   7.797
   39POPC   C1B 4795  27.934  36.425   8.736
   39POPC   C2B 4796  28.096  36.373   8.323
   39POPC   C3B 4797  27.891  36.454   7.926
   39POPC   C4B 4798  27.556  36.379   7.666
   40POPC   NC3 4799  36.601  30.558   9.377
   40POPC   PO4 4800  37.049  30.990   9.609
   40POPC   GL1 4801  36.909  30.951   9.197
   40POPC   GL2 4802  37.004  30.619   9.077
   40POPC   C1A 4803  36.787  31.057   8.811
   40POPC   D2A 4804  36.703  31.026   8.409
   40POPC   C3A 4805  37.024  30.955   8.118
   40POPC   C4A 4806  36.961  30.860   7.692
   40POPC   C1B 4807  36.984  30.621   8.644
   40POPC   C2B 4808  36.733  30.498   8.334
   40POPC   C3B 4809  36.913  30.431   7.954
   40POPC   C4B 4810  36.776  30.360   7.518
   41POPC   NC3 4811  37.222  43.171   9.342
   41POPC   PO4 4812  37.914  43.454   9.527
   41POPC   GL1 4813  37.731  43.178   9.202
   41POPC   GL2 4814  37.583  43.448   9.058
   41POPC   C1A 4815  37.592  42.962   8.799
   41POPC   D2A 4816  37.665  43.121   8.387
   41POPC   C3A 4817  37.796  42.833   8.076
   41POPC   C4A 4818  37.697  42.967   7.666
   41POPC   C1B 4819  37.301  43.392   8.725
   41POPC   C2B 4820  37.316  43.511   8.297
   41POPC   C3B 4821  37.489  43.408   7.881
   41POPC   C4B 4822  37.442  43.343   7.419
   42POPC   NC3 4823  21.672  28.098   9.818
   42POPC   PO4 4824  22.206  27.722   9.688
   42POPC   GL1 4825  22.353  27.453   9.315
   42POPC   GL2 4826  22.014  27.419   9.218
   42POPC   C1A 4827  22.560  27.531   8.873
   42POPC   D2A 4828  22.475  27.765   8.487
   42POPC   C3A 4829  22.458  27.703   8.042
   42POPC   C4A 4830  22.206  27.855   7.684
   42POPC   C1B 4831  22.101  27.335   8.784
   42POPC   C2B 4832  22.291  27.304   8.353
   42POPC   C3B 4833  22.090  27.362   7.920
   42POPC   C4B 4834  22.126  27.186   7.521
   43POPC   NC3 4835  30.606  35.060   9.665
   43POPC   PO4 4836  30.932  35.634   9.440
   43POPC   GL1 4837  30.732  35.400   9.084
   43POPC   GL2 4838  30.556  35.043   9.151
   43POPC   C1A 4839  30.809  35.438   8.593
   43POPC   D2A 4840  31.102  35.299   8.230
   43POPC   C3A 4841  31.070  35.408   7.772
   43POPC   C4A 4842  31.071  35.231   7.316
   43POPC   C1B 4843  30.360  35.244   8.792
   43POPC   C2B 4844  30.436  35.115   8.371
   43POPC   C3B 4845  30.650  35.127   7.977
   43POPC   C4B 4846  30.580  35.337   7.590
   44POPC   NC3 4847  42.165  17.562   9.513
   44POPC   PO4 4848  42.794  17.398   9.309
   44POPC   GL1 4849  42.386  17.392   9.073
   44POPC   GL2 4850  42.126  17.134   9.167
   44POPC   C1A 4851  42.158  17.655   8.731
   44POPC   D2A 4852  42.155  17.541   8.267
   44POPC   C3A 4853  42.394  17.800   7.963
   44POPC   C4A 4854  42.714  17.709   7.663
   44POPC   C1B 4855  42.069  17.158   8.708
   44POPC   C2B 4856  41.878  17.013   8.307
   44POPC   C3B 4857  41.984  17.200   7.909
   44POPC   C4B 4858  42.450  17.295   7.867
   45POPC   NC3 4859  34.296  25.363   9.367
   45POPC   PO4 4860  33.671  25.359   9.603
   45POPC   GL1 4861  33.835  25.230   9.162
   45POPC   GL2 4862  34.000  24.924   9.100
   45POPC   C1A 4863  33.680  25.155   8.710
   45POPC   D2A 4864  33.836  25.156   8.297
   45POPC   C3A 4865  33.611  25.372   7.989
   45POPC   C4A 4866  33.332  25.149   7.778
   45POPC   C1B 4867  34.184  25.111   8.733
   45POPC   C2B 4868  34.345  25.165   8.317
   45POPC   C3B 4869  34.177  24.932   7.963
   45POPC   C4B 4870  33.806  24.986   7.715
   46POPC   NC3 4871   4.685  40.139   9.475
   46POPC   PO4 4872   4.062  39.871   9.601
   46POPC   GL1 4873   4.127  39.852   9.189
   46POPC   GL2 4874   3.886  40.133   9.074
   46POPC   C1A 4875   4.390  39.806   8.783
   46POPC   D2A 4876   4.533  40.038   8.380
   46POPC   C3A 4877   4.295  40.069   7.974
   46POPC   C4A 4878   4.402  39.886   7.606
   46POPC   C1B 4879   3.890  39.804   8.762
   46POPC   C2B 4880   4.032  39.948   8.411
   46POPC   C3B 4881   3.945  39.717   8.086
   46POPC   C4B 4882   3.822  39.837   7.726
   47POPC   NC3 4883  30.932   7.801   9.457
   47POPC   PO4 4884  30.461   8.160   9.288
   47POPC   GL1 4885  30.560   8.006   8.908
   47POPC   GL2 4886  30.905   7.878   8.951
   47POPC   C1A 4887  30.555   8.263   8.547
   47POPC   D2A 4888  30.913   8.441   8.301
   47POPC   C3A 4889  30.748   8.509   7.899
   47POPC   C4A 4890  30.347   8.556   7.855
   47POPC   C1B 4891  30.873   7.873   8.500
   47POPC   C2B 4892  30.571   7.904   8.177
   47POPC   C3B 4893  30.460   8.055   7.802
   47POPC   C4B 4894  30.816   8.107   7.554
   48POPC   NC3 4895  26.186  32.619   9.356
   48POPC   PO4 4896  25.961  33.217   9.428
   48POPC   GL1 4897  26.111  33.117   9.033
   48POPC   GL2 4898  26.413  32.938   9.022
   48POPC   C1A 4899  26.054  33.037   8.593
   48POPC   D2A 4900  26.029  32.793   8.229
   48POPC   C3A 4901  25.934  33.047   7.877
   48POPC   C4A 4902  26.011  33.018   7.448
   48POPC   C1B 4903  26.557  33.011   8.577
   48POPC   C2B 4904  26.419  33.134   8.164
   48POPC   C3B 4905  26.412  32.901   7.766
   48POPC   C4B 4906  26.623  32.819   7.364
   49POPC   NC3 4907  28.897  15.051   9.342
   49POPC   PO4 4908  28.370  15.240   9.798
   49POPC   GL1 4909  28.522  15.386   9.314
   49POPC   GL2 4910  28.789  15.501   9.129
   49POPC   C1A 4911  28.307  15.386   8.856
   49POPC   D2A 4912  28.010  15.344   8.500
   49POPC   C3A 4913  28.124  15.335   8.053
   49POPC   C4A 4914  28.271  14.986   7.784
   49POPC   C1B 4915  28.777  15.327   8.709
   49POPC   C2B 4916  28.499  15.128   8.403
   49POPC   C3B 4917  28.650  15.250   7.992
   49POPC   C4B 4918  28.486  15.631   7.832
   50POPC   NC3 4919  21.478  40.110   9.475
   50POPC   PO4 4920  21.055  39.612   9.530
   50POPC   GL1 4921  21.149  39.871   9.160
   50POPC   GL2 4922  21.180  40.246   9.080
   50POPC   C1A 4923  21.346  39.882   8.761
   50POPC   D2A 4924  21.300  39.580   8.463
   50POPC   C3A 4925  21.196  39.640   8.034
   50POPC   C4A 4926  21.459  39.782   7.693
   50POPC   C1B 4927  21.470  40.391   8.738
   50POPC   C2B 4928  21.531  40.178   8.352
   50POPC   C3B 4929  21.421  40.258   7.920
   50POPC   C4B 4930  21.366  40.628   7.651
   51POPC   NC3 4931  42.339   7.632   9.430
   51POPC   PO4 4932  42.623   7.021   9.490
   51POPC   GL1 4933  42.462   7.183   9.089
   51POPC   GL2 4934  42.609   7.512   9.024
   51POPC   C1A 4935  42.131   7.275   8.763
   51POPC   D2A 4936  42.165   7.400   8.332
   51POPC   C3A 4937  42.223   7.337   7.908
   51POPC   C4A 4938  42.581   7.127   7.710
   51POPC   C1B 4939  42.289   7.742   8.767
   51POPC   C2B 4940  42.088   7.882   8.433
   51POPC   C3B 4941  42.269   7.823   8.046
   51POPC   C4B 4942  42.060   7.817   7.650
   52POPC   NC3 4943  26.965  37.936   9.371
   52POPC   PO4 4944  26.870  37.292   9.296
   52POPC   GL1 4945  26.609  37.506   9.055
   52POPC   GL2 4946  26.645  37.829   8.999
   52POPC   C1A 4947  26.702  37.435   8.656
   52POPC   D2A 4948  26.547  37.521   8.303
   52POPC   C3A 4949  26.804  37.503   7.949
   52POPC   C4A 4950  26.643  37.698   7.597
   52POPC   C1B 4951  26.837  37.922   8.597
   52POPC   C2B 4952  27.045  38.087   8.256
   52POPC   C3B 4953  27.034  37.957   7.856
   52POPC   C4B 4954  26.898  38.092   7.434
   53POPC   NC3 4955  43.480  11.260   9.502
   53POPC   PO4 4956  44.041  11.002   9.301
   53POPC   GL1 4957  43.971  11.311   9.013
   53POPC   GL2 4958  43.606  11.453   9.046
   53POPC   C1A 4959  44.134  11.215   8.599
   53POPC   D2A 4960  44.046  10.970   8.225
   53POPC   C3A 4961  44.005  11.239   7.871
   53POPC   C4A 4962  43.790  11.288   7.479
   53POPC   C1B 4963  43.734  11.536   8.652
   53POPC   C2B 4964  43.872  11.591   8.249
   53POPC   C3B 4965  43.572  11.513   7.948
   53POPC   C4B 4966  43.474  11.654   7.580
   54POPC   NC3 4967  41.349   6.919   9.466
   54POPC   PO4 4968  41.826   6.539   9.574
   54POPC   GL1 4969  41.684   6.543   9.148
   54POPC   GL2 4970  41.395   6.720   9.011
   54POPC   C1A 4971  41.892   6.341   8.795
   54POPC   D2A 4972  42.074   6.526   8.410
   54POPC   C3A 4973  41.793   6.791   8.158
   54POPC   C4A 4974  41.665   6.673   7.754
   54POPC   C1B 4975  41.600   6.737   8.643
   54POPC   C2B 4976  41.340   6.584   8.341
   54POPC   C3B 4977  41.212   6.550   7.931
   54POPC   C4B 4978  41.262   6.557   7.457
   55POPC   NC3 4979  28.562   1.824   9.438
   55POPC   PO4 4980  28.173   2.311   9.608
   55POPC   GL1 4981  28.274   2.183   9.183
   55POPC   GL2 4982  28.130   1.859   9.135
   55POPC   C1A 4983  28.519   2.008   8.824
   55POPC   D2A 4984  28.464   2.142   8.421
   55POPC   C3A 4985  28.653   1.925   8.095
   55POPC   C4A 4986  28.429   1.991   7.717
   55POPC   C1B 4987  28.046   1.914   8.666
   55POPC   C2B 4988  28.143   1.799   8.206
   55POPC   C3B 4989  28.028   1.691   7.765
   55POPC   C4B 4990  28.005   1.885   7.345
   56POPC   NC3 4991  32.385   2.315   9.505
   56POPC   PO4 4992  31.972   1.768   9.578
   56POPC   GL1 4993  32.248   1.870   9.206
   56POPC   GL2 4994  32.184   2.188   9.076
   56POPC   C1A 4995  32.091   1.861   8.745
   56POPC   D2A 4996  31.989   2.079   8.395
   56POPC   C3A 4997  32.052   1.847   8.060
   56POPC   C4A 4998  31.903   1.941   7.679
   56POPC   C1B 4999  32.307   2.376   8.649
   56POPC   C2B 5000  32.363   2.396   8.176
   56POPC   C3B 5001  32.328   2.205   7.741
   56POPC   C4B 5002  32.452   2.337   7.298
   57POPC   NC3 5003   4.497   7.101   9.400
   57POPC   PO4 5004   4.443   7.778   9.479
   57POPC   GL1 5005   4.333   7.516   9.124
   57POPC   GL2 5006   4.001   7.335   9.081
   57POPC   C1A 5007   4.226   7.661   8.733
   57POPC   D2A 5008   4.000   7.539   8.420
   57POPC   C3A 5009   4.163   7.713   8.076
   57POPC   C4A 5010   4.059   7.531   7.727
   57POPC   C1B 5011   4.218   7.146   8.765
   57POPC   C2B 5012   4.422   7.252   8.401
   57POPC   C3B 5013   4.280   7.148   8.002
   57POPC   C4B 5014   4.052   6.916   7.673
   58POPC   NC3 5015   2.645  19.493   9.466
   58POPC   PO4 5016   3.011  18.994   9.415
   58POPC   GL1 5017   2.828  18.920   9.041
   58POPC   GL2 5018   2.568  19.146   9.084
   58POPC   C1A 5019   2.954  19.081   8.643
   58POPC   D2A 5020   3.113  19.217   8.230
   58POPC   C3A 5021   2.879  18.963   7.904
   58POPC   C4A 5022   2.802  18.908   7.452
   58POPC   C1B 5023   2.470  19.333   8.687
   58POPC   C2B 5024   2.601  19.256   8.298
   58POPC   C3B 5025   2.418  19.422   7.982
   58POPC   C4B 5026   2.542  19.304   7.614
   59POPC   NC3 5027  35.680  20.280   9.233
   59POPC   PO4 5028  35.210  19.855   9.487
   59POPC   GL1 5029  35.330  19.782   9.077
   59POPC   GL2 5030  35.679  19.823   8.983
   59POPC   C1A 5031  35.191  19.710   8.678
   59POPC   D2A 5032  35.027  19.958   8.343
   59POPC   C3A 5033  35.298  19.899   7.983
   59POPC   C4A 5034  35.365  19.805   7.556
   59POPC   C1B 5035  35.481  20.119   8.663
   59POPC   C2B 5036  35.423  20.311   8.299
   59POPC   C3B 5037  35.572  20.354   7.903
   59POPC   C4B 5038  35.760  20.096   7.663
   60POPC   NC3 5039  24.835  36.200   9.502
   60POPC   PO4 5040  24.273  35.814   9.476
   60POPC   GL1 5041  24.509  36.015   9.141
   60POPC   GL2 5042  24.431  36.369   9.229
   60POPC   C1A 5043  24.730  36.002   8.734
   60POPC   D2A 5044  24.583  35.944   8.336
   60POPC   C3A 5045  24.837  35.990   7.991
   60POPC   C4A 5046  24.822  36.397   7.925
   60POPC   C1B 5047  24.374  36.422   8.804
   60POPC   C2B 5048  24.479  36.461   8.379
   60POPC   C3B 5049  24.316  36.263   8.039
   60POPC   C4B 5050  24.367  35.922   7.845
   61POPC   NC3 5051  32.539   9.161   9.942
   61POPC   PO4 5052  31.957   9.039   9.564
   61POPC   GL1 5053  32.080   9.221   9.164
   61POPC   GL2 5054  32.080   8.903   9.019
   61POPC   C1A 5055  32.261   9.208   8.704
   61POPC   D2A 5056  32.386   8.969   8.372
   61POPC   C3A 5057  32.676   9.098   8.109
   61POPC   C4A 5058  32.517   8.946   7.734
   61POPC   C1B 5059  31.804   8.754   8.709
   61POPC   C2B 5060  31.947   8.744   8.299
   61POPC   C3B 5061  32.057   8.991   7.930
   61POPC   C4B 5062  31.971   8.794   7.508
   62POPC   NC3 5063  34.222  27.157   9.565
   62POPC   PO4 5064  34.715  26.692   9.681
   62POPC   GL1 5065  34.627  26.898   9.288
   62POPC   GL2 5066  34.387  26.643   9.175
   62POPC   C1A 5067  34.631  26.922   8.823
   62POPC   D2A 5068  34.544  26.832   8.366
   62POPC   C3A 5069  34.511  27.041   7.943
   62POPC   C4A 5070  34.531  26.772   7.569
   62POPC   C1B 5071  34.267  26.530   8.733
   62POPC   C2B 5072  34.289  26.397   8.288
   62POPC   C3B 5073  34.165  26.649   7.955
   62POPC   C4B 5074  34.085  26.493   7.571
   63POPC   NC3 5075  30.371  37.934   9.359
   63POPC   PO4 5076  30.836  37.443   9.392
   63POPC   GL1 5077  30.604  37.472   9.019
   63POPC   GL2 5078  30.562  37.820   8.919
   63POPC   C1A 5079  30.682  37.513   8.558
   63POPC   D2A 5080  31.010  37.709   8.316
   63POPC   C3A 5081  30.979  37.570   7.891
   63POPC   C4A 5082  30.879  37.690   7.494
   63POPC   C1B 5083  30.522  38.081   8.572
   63POPC   C2B 5084  30.479  37.894   8.173
   63POPC   C3B 5085  30.524  37.992   7.730
   63POPC   C4B 5086  30.432  37.880   7.288
   64POPC   NC3 5087  17.543  13.074   9.521
   64POPC   PO4 5088  17.442  12.422   9.513
   64POPC   GL1 5089  17.372  12.705   9.144
   64POPC   GL2 5090  17.645  12.932   9.036
   64POPC   C1A 5091  17.438  12.636   8.692
   64POPC   D2A 5092  17.492  12.875   8.359
   64POPC   C3A 5093  17.365  12.585   8.074
   64POPC   C4A 5094  17.665  12.658   7.790
   64POPC   C1B 5095  17.244  13.089   8.783
   64POPC   C2B 5096  17.103  13.193   8.325
   64POPC   C3B 5097  17.326  13.084   7.910
   64POPC   C4B 5098  17.759  13.181   7.826
   65POPC   NC3 5099  41.941  28.992   9.525
   65POPC   PO4 5100  42.624  29.162   9.514
   65POPC   GL1 5101  42.346  28.965   9.205
   65POPC   GL2 5102  42.270  29.269   9.104
   65POPC   C1A 5103  42.147  28.853   8.796
   65POPC   D2A 5104  42.126  29.134   8.435
   65POPC   C3A 5105  42.132  29.058   8.006
   65POPC   C4A 5106  42.268  29.251   7.615
   65POPC   C1B 5107  42.573  29.147   8.751
   65POPC   C2B 5108  42.542  28.901   8.338
   65POPC   C3B 5109  42.629  28.936   7.912
   65POPC   C4B 5110  42.649  28.960   7.471
   66POPC   NC3 5111   5.456   9.518   9.737
   66POPC   PO4 5112   5.502   8.958   9.407
   66POPC   GL1 5113   5.360   9.127   9.063
   66POPC   GL2 5114   5.046   9.093   9.106
   66POPC   C1A 5115   5.216   8.938   8.660
   66POPC   D2A 5116   5.427   8.908   8.301
   66POPC   C3A 5117   5.314   9.118   7.966
   66POPC   C4A 5118   5.357   8.810   7.718
   66POPC   C1B 5119   4.782   9.205   8.777
   66POPC   C2B 5120   4.722   9.020   8.380
   66POPC   C3B 5121   4.895   8.848   8.012
   66POPC   C4B 5122   4.914   9.078   7.612
   67POPC   NC3 5123   2.377   3.450   9.583
   67POPC   PO4 5124   2.976   3.235   9.843
   67POPC   GL1 5125   2.867   3.255   9.345
   67POPC   GL2 5126   2.716   3.562   9.247
   67POPC   C1A 5127   2.989   3.413   8.872
   67POPC   D2A 5128   2.795   3.612   8.497
   67POPC   C3A 5129   2.960   3.583   8.068
   67POPC   C4A 5130   2.895   3.303   7.746
   67POPC   C1B 5131   2.458   3.389   8.903
   67POPC   C2B 5132   2.340   3.387   8.452
   67POPC   C3B 5133   2.500   3.338   8.078
   67POPC   C4B 5134   2.406   3.393   7.683
   68POPC   NC3 5135  33.628  18.231   9.642
   68POPC   PO4 5136  34.082  18.719   9.388
   68POPC   GL1 5137  33.934  18.486   8.987
   68POPC   GL2 5138  33.695  18.187   9.040
   68POPC   C1A 5139  33.822  18.449   8.604
   68POPC   D2A 5140  33.701  18.111   8.420
   68POPC   C3A 5141  33.538  18.353   8.112
   68POPC   C4A 5142  33.619  18.237   7.732
   68POPC   C1B 5143  34.091  18.043   8.782
   68POPC   C2B 5144  34.263  18.210   8.416
   68POPC   C3B 5145  34.086  18.157   8.017
   68POPC   C4B 5146  34.270  17.938   7.663
   69POPC   NC3 5147  38.913  17.817   9.223
   69POPC   PO4 5148  39.291  17.339   9.561
   69POPC   GL1 5149  39.321  17.451   9.144
   69POPC   GL2 5150  39.495  17.741   9.160
   69POPC   C1A 5151  39.158  17.514   8.720
   69POPC   D2A 5152  39.159  17.298   8.378
   69POPC   C3A 5153  39.090  17.443   7.991
   69POPC   C4A 5154  38.871  17.224   7.775
   69POPC   C1B 5155  39.559  17.834   8.721
   69POPC   C2B 5156  39.402  17.732   8.302
   69POPC   C3B 5157  39.584  17.401   8.066
   69POPC   C4B 5158  39.496  17.341   7.649
   70POPC   NC3 5159  42.787  23.421   9.551
   70POPC   PO4 5160  43.056  22.776   9.420
   70POPC   GL1 5161  42.941  23.070   9.117
   70POPC   GL2 5162  42.628  23.283   9.096
   70POPC   C1A 5163  43.124  22.956   8.730
   70POPC   D2A 5164  43.429  22.788   8.452
   70POPC   C3A 5165  43.220  22.848   8.067
   70POPC   C4A 5166  43.080  22.757   7.650
   70POPC   C1B 5167  42.621  23.102   8.673
   70POPC   C2B 5168  42.758  23.130   8.251
   70POPC   C3B 5169  42.899  23.206   7.846
   70POPC   C4B 5170  42.906  23.185   7.396
   71POPC   NC3 5171  36.668  17.116   9.499
   71POPC   PO4 5172  36.680  16.414   9.383
   71POPC   GL1 5173  36.773  16.757   9.147
   71POPC   GL2 5174  37.072  16.937   9.149
   71POPC   C1A 5175  36.810  16.752   8.740
   71POPC   D2A 5176  36.983  16.564   8.402
   71POPC   C3A 5177  36.861  16.744   7.998
   71POPC   C4A 5178  36.587  16.542   7.683
   71POPC   C1B 5179  37.191  17.081   8.736
   71POPC   C2B 5180  37.362  16.889   8.349
   71POPC   C3B 5181  37.343  16.937   7.884
   71POPC   C4B 5182  37.055  16.816   7.504
   72POPC   NC3 5183  31.017  29.866   9.294
   72POPC   PO4 5184  30.624  30.344   9.498
   72POPC   GL1 5185  30.581  30.027   9.121
   72POPC   GL2 5186  30.746  30.307   8.981
   72POPC   C1A 5187  30.802  29.885   8.695
   72POPC   D2A 5188  30.893  30.105   8.338
   72POPC   C3A 5189  30.975  29.880   7.970
   72POPC   C4A 5190  30.601  29.694   7.775
   72POPC   C1B 5191  30.366  30.286   8.767
   72POPC   C2B 5192  30.341  30.124   8.420
   72POPC   C3B 5193  30.448  30.138   8.025
   72POPC   C4B 5194  30.210  30.028   7.675
   73POPC   NC3 5195  20.673  40.665   9.683
   73POPC   PO4 5196  20.882  41.241   9.532
   73POPC   GL1 5197  20.750  40.974   9.190
   73POPC   GL2 5198  20.828  40.633   9.188
   73POPC   C1A 5199  20.681  41.045   8.736
   73POPC   D2A 5200  20.714  41.023   8.298
   73POPC   C3A 5201  20.535  41.010   7.864
   73POPC   C4A 5202  20.368  40.878   7.461
   73POPC   C1B 5203  20.638  40.475   8.805
   73POPC   C2B 5204  20.670  40.525   8.349
   73POPC   C3B 5205  20.690  40.468   7.892
   73POPC   C4B 5206  21.001  40.280   7.630
   74POPC   NC3 5207  10.496  22.351   9.565
   74POPC   PO4 5208  10.452  22.985   9.731
   74POPC   GL1 5209  10.602  22.957   9.269
   74POPC   GL2 5210  10.502  22.692   9.030
   74POPC   C1A 5211  10.814  23.062   8.846
   74POPC   D2A 5212  10.588  22.930   8.467
   74POPC   C3A 5213  10.558  23.114   8.040
   74POPC   C4A 5214  10.259  23.157   7.687
   74POPC   C1B 5215  10.789  22.493   8.704
   74POPC   C2B 5216  10.736  22.486   8.286
   74POPC   C3B 5217  10.848  22.664   7.927
   74POPC   C4B 5218  10.649  22.834   7.605
   75POPC   NC3 5219  36.402  26.271   9.436
   75POPC   PO4 5220  36.080  25.701   9.341
   75POPC   GL1 5221  36.122  26.037   9.039
   75POPC   GL2 5222  35.812  26.215   9.007
   75POPC   C1A 5223  36.286  26.009   8.589
   75POPC   D2A 5224  36.067  26.054   8.164
   75POPC   C3A 5225  36.127  26.036   7.703
   75POPC   C4A 5226  36.389  26.130   7.333
   75POPC   C1B 5227  35.823  26.244   8.580
   75POPC   C2B 5228  35.824  26.482   8.179
   75POPC   C3B 5229  35.808  26.451   7.756
   75POPC   C4B 5230  35.526  26.248   7.506
   76POPC   NC3 5231  44.266  41.023   9.429
   76POPC   PO4 5232  44.923  40.958   9.373
   76POPC   GL1 5233  44.691  40.811   9.071
   76POPC   GL2 5234  44.361  40.660   9.112
   76POPC   C1A 5235  44.839  40.832   8.677
   76POPC   D2A 5236  44.667  41.043   8.322
   76POPC   C3A 5237  44.858  40.922   7.949
   76POPC   C4A 5238   0.009  41.210   7.635
   76POPC   C1B 5239  44.338  40.826   8.696
   76POPC   C2B 5240  44.413  40.615   8.299
   76POPC   C3B 5241  44.331  40.717   7.876
   76POPC   C4B 5242  44.310  41.093   7.623
   77POPC   NC3 5243  44.764  24.108   9.604
   77POPC   PO4 5244  44.406  23.515   9.711
   77POPC   GL1 5245  44.555  23.630   9.279
   77POPC   GL2 5246  44.351  23.899   9.118
   77POPC   C1A 5247  44.802  23.525   8.876
   77POPC   D2A 5248  44.899  23.719   8.441
   77POPC   C3A 5249  44.812  23.498   8.042
   77POPC   C4A 5250   0.007  23.483   7.620
   77POPC   C1B 5251  44.441  23.835   8.673
   77POPC   C2B 5252  44.392  23.783   8.236
   77POPC   C3B 5253  44.425  23.777   7.785
   77POPC   C4B 5254  44.344  24.020   7.383
   78POPC   NC3 5255  26.242  15.033   9.349
   78POPC   PO4 5256  25.609  15.347   9.459
   78POPC   GL1 5257  25.892  15.359   9.085
   78POPC   GL2 5258  26.264  15.499   9.085
   78POPC   C1A 5259  25.912  15.078   8.707
   78POPC   D2A 5260  25.979  15.181   8.265
   78POPC   C3A 5261  26.014  14.945   7.910
   78POPC   C4A 5262  25.721  14.874   7.550
   78POPC   C1B 5263  26.257  15.443   8.616
   78POPC   C2B 5264  26.211  15.608   8.188
   78POPC   C3B 5265  26.271  15.498   7.732
   78POPC   C4B 5266  26.442  15.466   7.266
   79POPC   NC3 5267  24.834  23.100   9.418
   79POPC   PO4 5268  25.486  23.143   9.495
   79POPC   GL1 5269  25.468  22.912   9.125
   79POPC   GL2 5270  25.112  22.791   9.098
   79POPC   C1A 5271  25.449  22.867   8.712
   79POPC   D2A 5272  25.094  22.685   8.577
   79POPC   C3A 5273  25.132  22.770   8.171
   79POPC   C4A 5274  25.506  22.864   7.868
   79POPC   C1B 5275  25.085  23.183   8.813
   79POPC   C2B 5276  25.108  23.259   8.352
   79POPC   C3B 5277  25.110  23.204   7.876
   79POPC   C4B 5278  24.991  22.807   7.687
   80POPC   NC3 5279   2.860   0.974   9.799
   80POPC   PO4 5280   2.527   1.503   9.461
   80POPC   GL1 5281   2.747   1.508   9.080
   80POPC   GL2 5282   2.496   1.306   8.964
   80POPC   C1A 5283   2.863   1.531   8.644
   80POPC   D2A 5284   3.049   1.218   8.385
   80POPC   C3A 5285   2.921   1.032   7.984
   80POPC   C4A 5286   2.892   1.357   7.715
   80POPC   C1B 5287   2.730   1.013   8.744
   80POPC   C2B 5288   2.581   1.045   8.365
   80POPC   C3B 5289   2.349   0.871   8.080
   80POPC   C4B 5290   2.422   1.100   7.717
   81POPC   NC3 5291   3.825  32.399   9.489
   81POPC   PO4 5292   3.219  32.192   9.182
   81POPC   GL1 5293   3.638  32.250   9.041
   81POPC   GL2 5294   3.804  31.979   9.166
   81POPC   C1A 5295   3.839  32.468   8.715
   81POPC   D2A 5296   3.490  32.592   8.483
   81POPC   C3A 5297   3.379  32.563   8.046
   81POPC   C4A 5298   3.309  32.285   7.710
   81POPC   C1B 5299   4.001  31.976   8.742
   81POPC   C2B 5300   3.912  32.021   8.301
   81POPC   C3B 5301   3.826  32.048   7.854
   81POPC   C4B 5302   3.835  32.472   7.798
   82POPC   NC3 5303  38.558  23.505   9.561
   82POPC   PO4 5304  38.261  24.032   9.867
   82POPC   GL1 5305  38.454  23.989   9.343
   82POPC   GL2 5306  38.158  23.985   9.078
   82POPC   C1A 5307  38.577  23.745   8.894
   82POPC   D2A 5308  38.820  23.666   8.472
   82POPC   C3A 5309  38.614  23.703   8.065
   82POPC   C4A 5310  38.714  24.056   7.794
   82POPC   C1B 5311  38.055  23.739   8.731
   82POPC   C2B 5312  38.229  23.548   8.380
   82POPC   C3B 5313  38.094  23.494   7.967
   82POPC   C4B 5314  38.059  23.751   7.615
   83POPC   NC3 5315  14.539  43.567   9.520
   83POPC   PO4 5316  14.135  44.022   9.572
   83POPC   GL1 5317  14.343  43.889   9.185
   83POPC   GL2 5318  14.608  44.124   9.227
   83POPC   C1A 5319  14.284  43.717   8.764
   83POPC   D2A 5320  14.201  43.938   8.362
   83POPC   C3A 5321  14.329  43.764   7.941
   83POPC   C4A 5322  14.354  43.447   7.587
   83POPC   C1B 5323  14.399  44.217   8.802
   83POPC   C2B 5324  14.451  44.368   8.359
   83POPC   C3B 5325  14.427  44.273   7.907
   83POPC   C4B 5326  14.545  44.270   7.445
   84POPC   NC3 5327  36.622  40.913   9.550
   84POPC   PO4 5328  37.033  40.333   9.505
   84POPC   GL1 5329  36.967  40.631   9.192
   84POPC   GL2 5330  36.619  40.573   9.186
   84POPC   C1A 5331  36.972  40.814   8.770
   84POPC   D2A 5332  36.859  40.947   8.339
   84POPC   C3A 5333  36.895  40.854   7.895
   84POPC   C4A 5334  37.114  40.887   7.499
   84POPC   C1B 5335  36.526  40.447   8.813
   84POPC   C2B 5336  36.819  40.394   8.539
   84POPC   C3B 5337  36.840  40.394   8.159
   84POPC   C4B 5338  36.507  40.504   7.936
   85POPC   NC3 5339  20.078   4.196   9.310
   85POPC   PO4 5340  20.742   4.252   9.463
   85POPC   GL1 5341  20.634   4.354   9.033
   85POPC   GL2 5342  20.436   4.612   9.058
   85POPC   C1A 5343  20.415   4.214   8.647
   85POPC   D2A 5344  20.386   4.234   8.177
   85POPC   C3A 5345  20.753   4.135   7.955
   85POPC   C4A 5346  20.920   3.920   7.566
   85POPC   C1B 5347  20.676   4.715   8.658
   85POPC   C2B 5348  20.708   4.625   8.200
   85POPC   C3B 5349  20.498   4.584   7.801
   85POPC   C4B 5350  20.505   4.613   7.339
   86POPC   NC3 5351  22.301  43.539   9.427
   86POPC   PO4 5352  22.077  44.185   9.271
   86POPC   GL1 5353  21.943  43.813   9.083
   86POPC   GL2 5354  21.838  44.033   8.799
   86POPC   C1A 5355  21.953  43.551   8.733
   86POPC   D2A 5356  21.866  43.615   8.310
   86POPC   C3A 5357  22.229  43.674   8.063
   86POPC   C4A 5358  22.052  43.558   7.729
   86POPC   C1B 5359  22.254  43.931   8.559
   86POPC   C2B 5360  22.590  43.980   8.242
   86POPC   C3B 5361  22.503  44.149   7.876
   86POPC   C4B 5362  22.063  44.124   7.813
   87POPC   NC3 5363   1.989   9.379   9.487
   87POPC   PO4 5364   2.025  10.074   9.479
   87POPC   GL1 5365   1.918   9.790   9.169
   87POPC   GL2 5366   2.267   9.691   9.179
   87POPC   C1A 5367   1.724   9.727   8.750
   87POPC   D2A 5368   1.576   9.502   8.386
   87POPC   C3A 5369   1.749   9.685   8.017
   87POPC   C4A 5370   1.970   9.488   7.677
   87POPC   C1B 5371   2.168   9.503   8.800
   87POPC   C2B 5372   2.092   9.628   8.397
   87POPC   C3B 5373   2.334   9.748   8.049
   87POPC   C4B 5374   2.479   9.546   7.686
   88POPC   NC3 5375  13.728  12.315   9.556
   88POPC   PO4 5376  13.292  11.834   9.347
   88POPC   GL1 5377  13.500  12.117   9.120
   88POPC   GL2 5378  13.855  12.128   9.096
   88POPC   C1A 5379  13.508  12.009   8.696
   88POPC   D2A 5380  13.362  11.702   8.410
   88POPC   C3A 5381  13.546  11.904   8.072
   88POPC   C4A 5382  13.885  11.838   7.787
   88POPC   C1B 5383  13.952  12.287   8.739
   88POPC   C2B 5384  13.906  12.081   8.380
   88POPC   C3B 5385  13.905  12.284   8.024
   88POPC   C4B 5386  14.152  12.253   7.674
   89POPC   NC3 5387  29.134   7.197   9.476
   89POPC   PO4 5388  29.508   7.785   9.360
   89POPC   GL1 5389  29.246   7.546   9.086
   89POPC   GL2 5390  28.882   7.578   9.127
   89POPC   C1A 5391  29.179   7.564   8.640
   89POPC   D2A 5392  29.220   7.411   8.238
   89POPC   C3A 5393  29.420   7.592   7.896
   89POPC   C4A 5394  29.387   7.193   7.742
   89POPC   C1B 5395  28.694   7.719   8.731
   89POPC   C2B 5396  28.736   7.572   8.326
   89POPC   C3B 5397  28.917   7.707   7.933
   89POPC   C4B 5398  29.024   8.079   7.753
   90POPC   NC3 5399  10.257  28.298   9.531
   90POPC   PO4 5400   9.676  28.717   9.501
   90POPC   GL1 5401   9.869  28.448   9.212
   90POPC   GL2 5402  10.196  28.599   9.108
   90POPC   C1A 5403   9.669  28.364   8.820
   90POPC   D2A 5404   9.455  28.155   8.481
   90POPC   C3A 5405   9.631  28.317   8.090
   90POPC   C4A 5406   9.788  28.589   7.797
   90POPC   C1B 5407  10.176  28.223   8.856
   90POPC   C2B 5408   9.995  28.149   8.449
   90POPC   C3B 5409  10.174  28.026   8.069
   90POPC   C4B 5410   9.911  28.063   7.732
   91POPC   NC3 5411  36.457  19.785   9.496
   91POPC   PO4 5412  37.052  19.943   9.459
   91POPC   GL1 5413  37.046  19.572   9.217
   91POPC   GL2 5414  36.702  19.479   9.130
   91POPC   C1A 5415  37.075  19.548   8.773
   91POPC   D2A 5416  37.236  19.754   8.412
   91POPC   C3A 5417  36.984  19.789   8.035
   91POPC   C4A 5418  37.090  19.980   7.644
   91POPC   C1B 5419  36.674  19.864   8.848
   91POPC   C2B 5420  36.701  20.013   8.398
   91POPC   C3B 5421  36.731  20.227   7.939
   91POPC   C4B 5422  36.650  20.184   7.459
   92POPC   NC3 5423  13.690  21.020   9.422
   92POPC   PO4 5424  13.727  21.775   9.468
   92POPC   GL1 5425  13.720  21.537   9.118
   92POPC   GL2 5426  13.458  21.330   9.110
   92POPC   C1A 5427  13.637  21.668   8.715
   92POPC   D2A 5428  13.855  21.664   8.353
   92POPC   C3A 5429  13.656  21.774   8.011
   92POPC   C4A 5430  13.549  21.461   7.786
   92POPC   C1B 5431  13.691  21.138   8.744
   92POPC   C2B 5432  13.911  21.126   8.335
   92POPC   C3B 5433  13.810  21.043   7.902
   92POPC   C4B 5434  13.445  20.965   7.642
   93POPC   NC3 5435  28.407  11.164   9.651
   93POPC   PO4 5436  28.658  11.691   9.326
   93POPC   GL1 5437  28.489  11.356   9.160
   93POPC   GL2 5438  28.743  11.101   9.268
   93POPC   C1A 5439  28.365  11.368   8.732
   93POPC   D2A 5440  28.400  11.611   8.356
   93POPC   C3A 5441  28.288  11.307   8.107
   93POPC   C4A 5442  28.386  11.128   7.723
   93POPC   C1B 5443  28.777  11.081   8.824
   93POPC   C2B 5444  28.740  11.157   8.401
   93POPC   C3B 5445  28.729  10.923   8.032
   93POPC   C4B 5446  28.788  10.822   7.573
   94POPC   NC3 5447   1.796  18.830   9.529
   94POPC   PO4 5448   2.314  19.196   9.564
   94POPC   GL1 5449   2.072  19.152   9.168
   94POPC   GL2 5450   1.758  19.038   9.081
   94POPC   C1A 5451   2.116  18.975   8.731
   94POPC   D2A 5452   2.113  19.113   8.285
   94POPC   C3A 5453   2.156  19.019   7.824
   94POPC   C4A 5454   2.062  19.354   7.463
   94POPC   C1B 5455   1.692  18.668   8.823
   94POPC   C2B 5456   1.793  18.708   8.405
   94POPC   C3B 5457   1.705  18.859   8.029
   94POPC   C4B 5458   1.666  19.071   7.667
   95POPC   NC3 5459  22.421  18.866   9.970
   95POPC   PO4 5460  22.162  19.323   9.511
   95POPC   GL1 5461  22.302  19.235   9.068
   95POPC   GL2 5462  21.956  19.191   9.048
   95POPC   C1A 5463  22.430  19.007   8.705
   95POPC   D2A 5464  22.629  18.912   8.299
   95POPC   C3A 5465  22.368  19.085   7.988
   95POPC   C4A 5466  22.165  18.932   7.639
   95POPC   C1B 5467  21.929  18.858   8.759
   95POPC   C2B 5468  22.083  18.843   8.352
   95POPC   C3B 5469  21.831  18.844   8.002
   95POPC   C4B 5470  21.755  18.639   7.604
   96POPC   NC3 5471  34.000   3.677   9.810
   96POPC   PO4 5472  34.642   3.608   9.502
   96POPC   GL1 5473  34.442   3.610   9.108
   96POPC   GL2 5474  34.424   3.280   9.119
   96POPC   C1A 5475  34.523   3.668   8.639
   96POPC   D2A 5476  34.670   3.622   8.179
   96POPC   C3A 5477  34.471   3.830   7.838
   96POPC   C4A 5478  34.087   3.855   7.667
   96POPC   C1B 5479  34.696   3.212   8.813
   96POPC   C2B 5480  34.704   3.194   8.433
   96POPC   C3B 5481  34.803   3.171   8.012
   96POPC   C4B 5482  34.811   3.494   7.679
   97POPC   NC3 5483  44.802  14.852   9.426
   97POPC   PO4 5484  44.413  14.289   9.486
   97POPC   GL1 5485  44.516  14.421   9.120
   97POPC   GL2 5486  44.418  14.755   9.052
   97POPC   C1A 5487  44.492  14.279   8.715
   97POPC   D2A 5488  44.571  14.505   8.360
   97POPC   C3A 5489  44.548  14.275   7.960
   97POPC   C4A 5490  44.447  14.314   7.493
   97POPC   C1B 5491  44.785  14.836   8.769
   97POPC   C2B 5492  44.972  14.902   8.364
   97POPC   C3B 5493  44.888  14.668   8.011
   97POPC   C4B 5494  44.913  14.428   7.640
   98POPC   NC3 5495  39.080  30.446   9.775
   98POPC   PO4 5496  39.442  31.008   9.637
   98POPC   GL1 5497  39.548  30.950   9.145
   98POPC   GL2 5498  39.198  30.951   8.948
   98POPC   C1A 5499  39.665  30.764   8.687
   98POPC   D2A 5500  39.290  30.836   8.458
   98POPC   C3A 5501  39.242  30.768   8.066
   98POPC   C4A 5502  39.013  30.908   7.749
   98POPC   C1B 5503  38.882  30.638   8.705
   98POPC   C2B 5504  38.913  30.413   8.316
   98POPC   C3B 5505  39.140  30.271   7.952
   98POPC   C4B 5506  39.576  30.307   7.841
   99POPC   NC3 5507   7.035  43.847   9.253
   99POPC   PO4 5508   6.318  44.021   9.422
   99POPC   GL1 5509   6.537  43.864   9.099
   99POPC   GL2 5510   6.403  44.112   8.895
   99POPC   C1A 5511   6.696  43.669   8.723
   99POPC   D2A 5512   6.826  43.767   8.296
   99POPC   C3A 5513   6.713  43.490   7.965
   99POPC   C4A 5514   6.851  43.818   7.750
   99POPC   C1B 5515   6.749  44.171   8.609
   99POPC   C2B 5516   7.043  44.312   8.271
   99POPC   C3B 5517   6.964  44.316   7.853
   99POPC   C4B 5518   6.559  44.245   7.758
  100POPC   NC3 5519  11.301  40.437   9.684
  100POPC   PO4 5520  11.141  41.095   9.599
  100POPC   GL1 5521  11.337  40.960   9.209
  100POPC   GL2 5522  11.461  40.602   9.132
  100POPC   C1A 5523  11.200  40.939   8.790
  100POPC   D2A 5524  11.292  40.712   8.422
  100POPC   C3A 5525  11.110  40.883   8.055
  100POPC   C4A 5526  11.245  40.824   7.671
  100POPC   C1B 5527  11.097  40.440   8.826
  100POPC   C2B 5528  11.056  40.248   8.422
  100POPC   C3B 5529  11.217  40.389   8.032
  100POPC   C4B 5530  11.232  40.296   7.649
  101POPC   NC3 5531  37.446  19.815   9.638
  101POPC   PO4 5532  38.052  19.581   9.674
  101POPC   GL1 5533  37.784  19.691   9.231
  101POPC   GL2 5534  37.472  19.890   9.135
  101POPC   C1A 5535  37.622  19.585   8.775
  101POPC   D2A 5536  37.703  19.509   8.350
  101POPC   C3A 5537  37.939  19.754   8.062
  101POPC   C4A 5538  37.986  19.827   7.623
  101POPC   C1B 5539  37.717  20.081   8.792
  101POPC   C2B 5540  37.644  20.063   8.353
  101POPC   C3B 5541  37.508  19.998   7.930
  101POPC   C4B 5542  37.602  20.201   7.504
  102POPC   NC3 5543  39.947  43.440   9.558
  102POPC   PO4 5544  40.124  44.118   9.528
  102POPC   GL1 5545  39.970  43.864   9.180
  102POPC   GL2 5546  39.603  43.919   9.237
  102POPC   C1A 5547  40.132  43.912   8.742
  102POPC   D2A 5548  40.293  44.194   8.406
  102POPC   C3A 5549  40.208  44.030   7.989
  102POPC   C4A 5550  40.035  44.256   7.621
  102POPC   C1B 5551  39.620  44.081   8.814
  102POPC   C2B 5552  39.763  44.021   8.389
  102POPC   C3B 5553  39.685  44.071   7.957
  102POPC   C4B 5554  39.672  43.926   7.500
  103POPC   NC3 5555  41.278  34.081   9.431
  103POPC   PO4 5556  41.764  33.671   9.688
  103POPC   GL1 5557  41.527  33.646   9.300
  103POPC   GL2 5558  41.687  33.903   9.086
  103POPC   C1A 5559  41.339  33.591   8.873
  103POPC   D2A 5560  41.535  33.669   8.476
  103POPC   C3A 5561  41.338  33.677   8.108
  103POPC   C4A 5562  41.402  33.617   7.714
  103POPC   C1B 5563  41.562  34.109   8.702
  103POPC   C2B 5564  41.342  34.158   8.302
  103POPC   C3B 5565  41.544  34.104   7.920
  103POPC   C4B 5566  41.485  34.093   7.514
  104POPC   NC3 5567   0.958  41.016   9.549
  104POPC   PO4 5568   1.267  40.469   9.639
  104POPC   GL1 5569   1.306  40.686   9.202
  104POPC   GL2 5570   1.163  41.024   9.088
  104POPC   C1A 5571   1.333  40.678   8.719
  104POPC   D2A 5572   1.232  40.965   8.348
  104POPC   C3A 5573   1.355  40.866   7.888
  104POPC   C4A 5574   1.510  41.012   7.480
  104POPC   C1B 5575   0.867  40.903   8.758
  104POPC   C2B 5576   0.711  40.978   8.363
  104POPC   C3B 5577   0.859  40.906   7.967
  104POPC   C4B 5578   0.948  40.814   7.509
  105POPC   NC3 5579  23.095  32.476  10.039
  105POPC   PO4 5580  22.845  32.174   9.438
  105POPC   GL1 5581  22.986  32.158   9.033
  105POPC   GL2 5582  23.211  31.883   9.040
  105POPC   C1A 5583  22.934  32.393   8.637
  105POPC   D2A 5584  22.585  32.574   8.375
  105POPC   C3A 5585  22.734  32.590   7.941
  105POPC   C4A 5586  23.135  32.695   7.803
  105POPC   C1B 5587  23.066  31.845   8.637
  105POPC   C2B 5588  23.023  32.053   8.243
  105POPC   C3B 5589  23.042  32.140   7.809
  105POPC   C4B 5590  23.242  31.896   7.430
  106POPC   NC3 5591  14.424  24.051   9.378
  106POPC   PO4 5592  14.592  23.378   9.551
  106POPC   GL1 5593  14.561  23.552   9.141
  106POPC   GL2 5594  14.195  23.603   9.202
  106POPC   C1A 5595  14.717  23.525   8.677
  106POPC   D2A 5596  14.873  23.649   8.236
  106POPC   C3A 5597  14.531  23.754   7.929
  106POPC   C4A 5598  14.287  24.035   7.641
  106POPC   C1B 5599  14.199  23.740   8.777
  106POPC   C2B 5600  14.251  23.536   8.385
  106POPC   C3B 5601  14.095  23.318   8.009
  106POPC   C4B 5602  14.125  23.536   7.649
  107POPC   NC3 5603  24.711  21.581   9.369
  107POPC   PO4 5604  24.068  21.535   9.418
  107POPC   GL1 5605  24.315  21.249   9.146
  107POPC   GL2 5606  24.661  21.094   9.203
  107POPC   C1A 5607  24.405  21.443   8.758
  107POPC   D2A 5608  24.175  21.596   8.402
  107POPC   C3A 5609  24.475  21.535   8.089
  107POPC   C4A 5610  24.698  21.685   7.715
  107POPC   C1B 5611  24.638  20.979   8.754
  107POPC   C2B 5612  24.392  21.086   8.381
  107POPC   C3B 5613  24.550  21.045   7.998
  107POPC   C4B 5614  24.494  21.241   7.658
  108POPC   NC3 5615   7.613  28.180   9.522
  108POPC   PO4 5616   8.245  27.976   9.508
  108POPC   GL1 5617   8.474  27.923   9.125
  108POPC   GL2 5618   8.387  27.605   9.063
  108POPC   C1A 5619   8.574  27.881   8.651
  108POPC   D2A 5620   8.320  27.833   8.241
  108POPC   C3A 5621   8.442  27.513   7.938
  108POPC   C4A 5622   8.533  27.424   7.522
  108POPC   C1B 5623   8.139  27.597   8.674
  108POPC   C2B 5624   8.080  27.376   8.292
  108POPC   C3B 5625   7.922  27.468   7.893
  108POPC   C4B 5626   7.724  27.635   7.527
  109POPC   NC3 5627   2.245  34.162   9.350
  109POPC   PO4 5628   1.766  33.626   9.537
  109POPC   GL1 5629   1.721  33.634   9.103
  109POPC   GL2 5630   1.944  33.899   9.010
  109POPC   C1A 5631   1.579  33.733   8.656
  109POPC   D2A 5632   1.861  33.846   8.315
  109POPC   C3A 5633   1.930  33.623   7.942
  109POPC   C4A 5634   1.699  33.761   7.604
  109POPC   C1B 5635   2.261  34.022   8.656
  109POPC   C2B 5636   2.462  33.917   8.264
  109POPC   C3B 5637   2.391  33.848   7.841
  109POPC   C4B 5638   2.156  33.907   7.493
  110POPC   NC3 5639  27.343   5.249   9.725
  110POPC   PO4 5640  27.805   4.794   9.762
  110POPC   GL1 5641  27.774   5.244   9.348
  110POPC   GL2 5642  27.511   5.362   9.207
  110POPC   C1A 5643  27.676   5.176   8.771
  110POPC   D2A 5644  27.495   4.915   8.393
  110POPC   C3A 5645  27.668   4.912   7.956
  110POPC   C4A 5646  27.652   4.988   7.473
  110POPC   C1B 5647  27.490   5.631   8.859
  110POPC   C2B 5648  27.740   5.625   8.490
  110POPC   C3B 5649  27.560   5.386   8.171
  110POPC   C4B 5650  27.552   5.377   7.751
  111POPC   NC3 5651  22.921  27.070   9.523
  111POPC   PO4 5652  22.989  26.430   9.598
  111POPC   GL1 5653  23.119  26.666   9.208
  111POPC   GL2 5654  22.787  26.789   9.132
  111POPC   C1A 5655  23.236  26.821   8.751
  111POPC   D2A 5656  23.369  26.855   8.289
  111POPC   C3A 5657  23.060  26.875   7.933
  111POPC   C4A 5658  23.119  26.918   7.489
  111POPC   C1B 5659  22.786  26.574   8.761
  111POPC   C2B 5660  22.907  26.612   8.345
  111POPC   C3B 5661  22.680  26.502   7.968
  111POPC   C4B 5662  22.793  26.521   7.536
  112POPC   NC3 5663  37.276  41.478   9.347
  112POPC   PO4 5664  37.769  41.761   9.390
  112POPC   GL1 5665  37.749  41.523   9.075
  112POPC   GL2 5666  37.466  41.635   8.895
  112POPC   C1A 5667  38.064  41.421   8.787
  112POPC   D2A 5668  38.239  41.605   8.439
  112POPC   C3A 5669  38.054  41.325   8.129
  112POPC   C4A 5670  37.793  41.425   7.773
  112POPC   C1B 5671  37.595  41.243   8.667
  112POPC   C2B 5672  37.619  40.980   8.299
  112POPC   C3B 5673  37.288  41.133   8.052
  112POPC   C4B 5674  37.285  41.351   7.686
  113POPC   NC3 5675  13.242  29.793   9.431
  113POPC   PO4 5676  12.593  30.005   9.507
  113POPC   GL1 5677  12.838  29.900   9.131
  113POPC   GL2 5678  12.647  29.603   8.961
  113POPC   C1A 5679  12.962  30.169   8.781
  113POPC   D2A 5680  12.877  30.359   8.363
  113POPC   C3A 5681  12.744  30.071   8.042
  113POPC   C4A 5682  12.617  29.689   7.788
  113POPC   C1B 5683  12.982  29.660   8.650
  113POPC   C2B 5684  13.027  29.653   8.177
  113POPC   C3B 5685  13.128  29.839   7.768
  113POPC   C4B 5686  13.293  29.892   7.332
  114POPC   NC3 5687  20.406  34.691   9.276
  114POPC   PO4 5688  20.654  35.344   9.505
  114POPC   GL1 5689  20.569  35.192   9.124
  114POPC   GL2 5690  20.819  34.960   9.066
  114POPC   C1A 5691  20.543  35.386   8.721
  114POPC   D2A 5692  20.291  35.481   8.355
  114POPC   C3A 5693  20.405  35.232   8.026
  114POPC   C4A 5694  20.792  35.443   7.866
  114POPC   C1B 5695  20.706  34.872   8.673
  114POPC   C2B 5696  20.785  35.056   8.304
  114POPC   C3B 5697  20.788  34.941   7.883
  114POPC   C4B 5698  20.401  34.887   7.641
  115POPC   NC3 5699   0.240  23.339   9.502
  115POPC   PO4 5700   0.940  23.237   9.572
  115POPC   GL1 5701   0.768  22.943   9.268
  115POPC   GL2 5702   0.417  22.988   9.187
  115POPC   C1A 5703   0.783  22.850   8.849
  115POPC   D2A 5704   0.737  23.099   8.498
  115POPC   C3A 5705   0.727  22.883   8.107
  115POPC   C4A 5706   0.745  23.164   7.781
  115POPC   C1B 5707   0.213  22.859   8.814
  115POPC   C2B 5708   0.279  22.865   8.378
  115POPC   C3B 5709   0.206  22.695   7.984
  115POPC   C4B 5710   0.032  22.813   7.595
  116POPC   NC3 5711  38.102  20.789   9.544
  116POPC   PO4 5712  37.719  20.171   9.489
  116POPC   GL1 5713  37.741  20.472   9.124
  116POPC   GL2 5714  37.814  20.839   9.119
  116POPC   C1A 5715  37.572  20.575   8.704
  116POPC   D2A 5716  37.518  20.562   8.272
  116POPC   C3A 5717  37.735  20.471   7.939
  116POPC   C4A 5718  37.576  20.714   7.587
  116POPC   C1B 5719  38.055  20.731   8.764
  116POPC   C2B 5720  37.929  20.831   8.354
  116POPC   C3B 5721  37.865  20.962   7.951
  116POPC   C4B 5722  38.085  20.832   7.615
  117POPC   NC3 5723  20.820  30.002   9.677
  117POPC   PO4 5724  21.091  29.543   9.367
  117POPC   GL1 5725  20.754  29.711   9.109
  117POPC   GL2 5726  20.570  30.013   9.183
  117POPC   C1A 5727  20.544  29.771   8.701
  117POPC   D2A 5728  20.412  30.043   8.356
  117POPC   C3A 5729  20.514  29.870   7.950
  117POPC   C4A 5730  20.307  29.715   7.572
  117POPC   C1B 5731  20.688  30.258   8.779
  117POPC   C2B 5732  20.656  30.483   8.383
  117POPC   C3B 5733  20.727  30.353   7.967
  117POPC   C4B 5734  20.669  30.151   7.560
  118POPC   NC3 5735  31.101  31.829   9.453
  118POPC   PO4 5736  31.742  31.576   9.554
  118POPC   GL1 5737  31.405  31.412   9.235
  118POPC   GL2 5738  31.372  31.626   9.050
  118POPC   C1A 5739  31.415  31.214   8.777
  118POPC   D2A 5740  31.334  31.377   8.298
  118POPC   C3A 5741  31.396  31.256   7.819
  118POPC   C4A 5742  31.644  31.141   7.389
  118POPC   C1B 5743  31.615  31.664   8.648
  118POPC   C2B 5744  31.657  31.811   8.217
  118POPC   C3B 5745  31.427  31.771   7.838
  118POPC   C4B 5746  31.261  32.018   7.510
  119POPC   NC3 5747   6.450  41.745   9.599
  119POPC   PO4 5748   6.766  41.300   9.328
  119POPC   GL1 5749   6.595  41.514   9.030
  119POPC   GL2 5750   6.658  41.853   9.124
  119POPC   C1A 5751   6.608  41.496   8.589
  119POPC   D2A 5752   6.866  41.654   8.271
  119POPC   C3A 5753   6.812  41.380   7.936
  119POPC   C4A 5754   6.453  41.112   7.931
  119POPC   C1B 5755   6.770  41.987   8.701
  119POPC   C2B 5756   6.880  42.184   8.280
  119POPC   C3B 5757   6.683  42.002   7.938
  119POPC   C4B 5758   6.380  41.648   8.028
  120POPC   NC3 5759  26.341  19.594   9.382
  120POPC   PO4 5760  25.892  20.127   9.382
  120POPC   GL1 5761  25.727  19.769   9.157
  120POPC   GL2 5762  25.969  19.505   9.017
  120POPC   C1A 5763  25.641  19.782   8.726
  120POPC   D2A 5764  25.887  19.852   8.374
  120POPC   C3A 5765  25.955  19.574   8.081
  120POPC   C4A 5766  25.887  19.869   7.773
  120POPC   C1B 5767  26.174  19.883   8.810
  120POPC   C2B 5768  26.384  19.998   8.414
  120POPC   C3B 5769  26.358  19.908   7.972
  120POPC   C4B 5770  26.319  19.494   7.741
  121POPC   NC3 5771  14.506  26.425   9.517
  121POPC   PO4 5772  14.723  25.706   9.505
  121POPC   GL1 5773  14.466  25.957   9.166
  121POPC   GL2 5774  14.626  26.261   9.069
  121POPC   C1A 5775  14.297  26.062   8.752
  121POPC   D2A 5776  14.448  26.003   8.316
  121POPC   C3A 5777  14.278  26.192   7.929
  121POPC   C4A 5778  14.193  26.273   7.477
  121POPC   C1B 5779  14.901  26.353   8.774
  121POPC   C2B 5780  14.917  26.266   8.384
  121POPC   C3B 5781  14.816  26.178   7.988
  121POPC   C4B 5782  14.675  26.021   7.628
  122POPC   NC3 5783  31.637  13.020   9.582
  122POPC   PO4 5784  31.398  13.710   9.552
  122POPC   GL1 5785  31.535  13.635   9.146
  122POPC   GL2 5786  31.565  13.290   9.164
  122POPC   C1A 5787  31.594  13.878   8.763
  122POPC   D2A 5788  31.500  13.644   8.379
  122POPC   C3A 5789  31.511  13.875   7.984
  122POPC   C4A 5790  31.498  13.888   7.525
  122POPC   C1B 5791  31.360  13.292   8.780
  122POPC   C2B 5792  31.457  13.112   8.402
  122POPC   C3B 5793  31.653  13.266   8.055
  122POPC   C4B 5794  31.400  13.429   7.738
  123POPC   NC3 5795   1.016  30.828   9.703
  123POPC   PO4 5796   1.498  30.475   9.664
  123POPC   GL1 5797   1.300  30.562   9.261
  123POPC   GL2 5798   1.202  30.923   9.210
  123POPC   C1A 5799   1.406  30.575   8.805
  123POPC   D2A 5800   1.166  30.560   8.404
  123POPC   C3A 5801   1.344  30.562   7.995
  123POPC   C4A 5802   1.240  30.952   7.824
  123POPC   C1B 5803   0.978  30.888   8.795
  123POPC   C2B 5804   1.009  31.078   8.353
  123POPC   C3B 5805   0.787  31.094   7.947
  123POPC   C4B 5806   0.879  31.067   7.471
  124POPC   NC3 5807  11.471  17.509   9.651
  124POPC   PO4 5808  10.927  17.395   9.317
  124POPC   GL1 5809  11.311  17.531   9.155
  124POPC   GL2 5810  11.473  17.229   9.228
  124POPC   C1A 5811  11.402  17.746   8.774
  124POPC   D2A 5812  11.236  17.820   8.364
  124POPC   C3A 5813  11.467  17.689   7.988
  124POPC   C4A 5814  11.331  17.480   7.597
  124POPC   C1B 5815  11.358  17.138   8.804
  124POPC   C2B 5816  11.265  17.295   8.401
  124POPC   C3B 5817  11.397  17.176   8.016
  124POPC   C4B 5818  11.771  17.311   7.809
  125POPC   NC3 5819  22.510  15.606   9.572
  125POPC   PO4 5820  22.111  14.991   9.505
  125POPC   GL1 5821  22.196  15.109   9.079
  125POPC   GL2 5822  22.414  15.385   9.131
  125POPC   C1A 5823  22.163  14.883   8.673
  125POPC   D2A 5824  21.832  14.961   8.331
  125POPC   C3A 5825  22.033  15.001   7.940
  125POPC   C4A 5826  22.175  15.138   7.558
  125POPC   C1B 5827  22.380  15.496   8.711
  125POPC   C2B 5828  22.246  15.319   8.320
  125POPC   C3B 5829  22.365  15.453   7.919
  125POPC   C4B 5830  22.179  15.689   7.620
  126POPC   NC3 5831  44.137  13.884   9.569
  126POPC   PO4 5832  43.642  13.261   9.522
  126POPC   GL1 5833  43.732  13.506   9.144
  126POPC   GL2 5834  44.081  13.674   9.116
  126POPC   C1A 5835  43.876  13.473   8.718
  126POPC   D2A 5836  43.868  13.688   8.310
  126POPC   C3A 5837  43.841  13.499   7.908
  126POPC   C4A 5838  43.766  13.790   7.581
  126POPC   C1B 5839  44.031  13.972   8.724
  126POPC   C2B 5840  44.168  14.120   8.292
  126POPC   C3B 5841  44.114  14.066   7.809
  126POPC   C4B 5842  44.199  13.891   7.341
  127POPC   NC3 5843  24.553  40.554   9.548
  127POPC   PO4 5844  24.339  41.257   9.451
  127POPC   GL1 5845  24.398  40.970   9.086
  127POPC   GL2 5846  24.358  40.636   9.065
  127POPC   C1A 5847  24.673  40.903   8.729
  127POPC   D2A 5848  24.757  40.749   8.330
  127POPC   C3A 5849  24.683  41.049   8.048
  127POPC   C4A 5850  24.528  41.064   7.641
  127POPC   C1B 5851  24.496  40.428   8.687
  127POPC   C2B 5852  24.356  40.452   8.260
  127POPC   C3B 5853  24.496  40.584   7.881
  127POPC   C4B 5854  24.322  40.600   7.500
  128POPC   NC3 5855   1.462   1.478   9.607
  128POPC   PO4 5856   0.950   1.037   9.446
  128POPC   GL1 5857   1.097   1.208   9.100
  128POPC   GL2 5858   1.436   1.268   9.143
  128POPC   C1A 5859   1.223   1.147   8.692
  128POPC   D2A 5860   1.387   1.017   8.339
  128POPC   C3A 5861   1.248   1.202   7.984
  128POPC   C4A 5862   1.079   1.023   7.606
  128POPC   C1B 5863   1.560   1.527   8.814
  128POPC   C2B 5864   1.701   1.484   8.383
  128POPC   C3B 5865   1.517   1.657   8.008
  128POPC   C4B 5866   1.343   1.528   7.612
  129POPC   NC3 5867  28.557  30.525   9.338
  129POPC   PO4 5868  28.348  30.966   9.761
  129POPC   GL1 5869  28.352  31.015   9.276
  129POPC   GL2 5870  28.114  30.762   9.219
  129POPC   C1A 5871  28.452  30.853   8.796
  129POPC   D2A 5872  28.649  30.678   8.398
  129POPC   C3A 5873  28.375  30.648   8.060
  129POPC   C4A 5874  28.256  30.730   7.648
  129POPC   C1B 5875  27.959  30.953   8.826
  129POPC   C2B 5876  27.930  30.735   8.435
  129POPC   C3B 5877  27.920  30.883   8.026
  129POPC   C4B 5878  27.824  30.983   7.609
  130POPC   NC3 5879   1.045  29.238   9.392
  130POPC   PO4 5880   1.657  28.933   9.332
  130POPC   GL1 5881   1.440  29.169   9.069
  130POPC   GL2 5882   1.127  28.932   8.977
  130POPC   C1A 5883   1.312  29.313   8.702
  130POPC   D2A 5884   1.188  29.095   8.373
  130POPC   C3A 5885   1.334  29.241   8.020
  130POPC   C4A 5886   1.166  29.269   7.610
  130POPC   C1B 5887   1.335  28.672   8.639
  130POPC   C2B 5888   1.527  28.748   8.203
  130POPC   C3B 5889   1.355  28.803   7.770
  130POPC   C4B 5890   1.417  28.859   7.310
  131POPC   NC3 5891   9.526  21.993   9.469
  131POPC   PO4 5892  10.134  22.064   9.486
  131POPC   GL1 5893   9.905  21.966   9.095
  131POPC   GL2 5894   9.586  21.783   9.004
  131POPC   C1A 5895   9.836  22.108   8.664
  131POPC   D2A 5896   9.745  21.977   8.252
  131POPC   C3A 5897   9.955  22.095   7.915
  131POPC   C4A 5898   9.810  22.479   7.743
  131POPC   C1B 5899   9.779  21.599   8.639
  131POPC   C2B 5900   9.573  21.512   8.247
  131POPC   C3B 5901   9.490  21.762   7.876
  131POPC   C4B 5902   9.552  22.063   7.594
  132POPC   NC3 5903  26.392  14.149   9.470
  132POPC   PO4 5904  25.959  14.669   9.269
  132POPC   GL1 5905  26.144  14.324   9.014
  132POPC   GL2 5906  26.497  14.259   8.988
  132POPC   C1A 5907  26.104  14.306   8.565
  132POPC   D2A 5908  25.902  14.659   8.372
  132POPC   C3A 5909  25.706  14.557   8.010
  132POPC   C4A 5910  25.967  14.469   7.700
  132POPC   C1B 5911  26.440  13.933   8.682
  132POPC   C2B 5912  26.551  14.031   8.288
  132POPC   C3B 5913  26.300  14.283   8.038
  132POPC   C4B 5914  26.257  14.063   7.676
  133POPC   NC3 5915  38.669   3.832   9.541
  133POPC   PO4 5916  38.218   3.267   9.433
  133POPC   GL1 5917  38.352   3.605   9.180
  133POPC   GL2 5918  38.721   3.548   9.128
  133POPC   C1A 5919  38.366   3.508   8.762
  133POPC   D2A 5920  38.246   3.232   8.457
  133POPC   C3A 5921  38.196   3.439   8.074
  133POPC   C4A 5922  38.283   3.351   7.671
  133POPC   C1B 5923  38.853   3.656   8.706
  133POPC   C2B 5924  38.606   3.665   8.315
  133POPC   C3B 5925  38.701   3.603   7.889
  133POPC   C4B 5926  38.769   3.863   7.529
  134POPC   NC3 5927  12.849  22.537   9.797
  134POPC   PO4 5928  13.015  23.147   9.511
  134POPC   GL1 5929  12.806  22.869   9.225
  134POPC   GL2 5930  13.047  22.892   9.013
  134POPC   C1A 5931  12.584  22.937   8.819
  134POPC   D2A 5932  12.798  23.153   8.484
  134POPC   C3A 5933  12.807  22.925   8.100
  134POPC   C4A 5934  12.634  22.920   7.695
  134POPC   C1B 5935  13.261  23.268   8.869
  134POPC   C2B 5936  13.331  23.387   8.459
  134POPC   C3B 5937  13.083  23.388   8.120
  134POPC   C4B 5938  13.162  23.128   7.763
  135POPC   NC3 5939  34.425  41.163   9.444
  135POPC   PO4 5940  34.621  40.579   9.231
  135POPC   GL1 5941  34.666  40.984   9.032
  135POPC   GL2 5942  34.340  41.107   8.941
  135POPC   C1A 5943  34.882  41.004   8.672
  135POPC   D2A 5944  34.766  40.695   8.400
  135POPC   C3A 5945  34.637  40.937   8.068
  135POPC   C4A 5946  34.722  41.273   7.785
  135POPC   C1B 5947  34.343  40.743   8.656
  135POPC   C2B 5948  34.262  40.592   8.226
  135POPC   C3B 5949  34.182  40.841   7.845
  135POPC   C4B 5950  34.085  40.708   7.430
  136POPC   NC3 5951  24.997  36.827   9.330
  136POPC   PO4 5952  24.375  36.804   9.514
  136POPC   GL1 5953  24.521  36.908   9.120
  136POPC   GL2 5954  24.661  37.239   9.151
  136POPC   C1A 5955  24.385  36.933   8.696
  136POPC   D2A 5956  24.156  36.885   8.320
  136POPC   C3A 5957  24.395  36.756   7.937
  136POPC   C4A 5958  24.745  36.768   7.619
  136POPC   C1B 5959  24.264  37.370   8.931
  136POPC   C2B 5960  24.178  37.409   8.463
  136POPC   C3B 5961  24.196  37.297   8.016
  136POPC   C4B 5962  24.448  37.182   7.663
  137POPC   NC3 5963  32.813  22.412   9.429
  137POPC   PO4 5964  33.387  22.075   9.745
  137POPC   GL1 5965  33.288  22.145   9.274
  137POPC   GL2 5966  32.980  21.948   9.217
  137POPC   C1A 5967  33.114  22.323   8.846
  137POPC   D2A 5968  33.211  22.450   8.392
  137POPC   C3A 5969  32.945  22.252   8.091
  137POPC   C4A 5970  32.982  22.011   7.738
  137POPC   C1B 5971  33.149  21.797   8.806
  137POPC   C2B 5972  33.250  21.930   8.373
  137POPC   C3B 5973  33.430  22.067   7.990
  137POPC   C4B 5974  33.455  21.753   7.678
  138POPC   NC3 5975   4.437  31.610   9.527
  138POPC   PO4 5976   4.074  31.147   9.291
  138POPC   GL1 5977   4.399  31.380   9.085
  138POPC   GL2 5978   4.176  31.645   9.092
  138POPC   C1A 5979   4.726  31.367   8.763
  138POPC   D2A 5980   4.548  31.424   8.346
  138POPC   C3A 5981   4.631  31.580   7.933
  138POPC   C4A 5982   4.460  31.434   7.514
  138POPC   C1B 5983   4.094  31.449   8.679
  138POPC   C2B 5984   4.070  31.540   8.254
  138POPC   C3B 5985   4.097  31.579   7.846
  138POPC   C4B 5986   4.040  31.735   7.441
  139POPC   NC3 5987  11.556   2.873   9.578
  139POPC   PO4 5988  10.922   2.882   9.312
  139POPC   GL1 5989  11.252   2.930   9.082
  139POPC   GL2 5990  11.364   2.634   9.161
  139POPC   C1A 5991  11.200   2.790   8.651
  139POPC   D2A 5992  11.058   2.619   8.257
  139POPC   C3A 5993  11.337   2.809   7.959
  139POPC   C4A 5994  11.381   3.005   7.543
  139POPC   C1B 5995  11.589   2.528   8.818
  139POPC   C2B 5996  11.553   2.534   8.370
  139POPC   C3B 5997  11.771   2.545   7.991
  139POPC   C4B 5998  11.716   2.617   7.566
  140POPC   NC3 5999  32.445  31.077   9.549
  140POPC   PO4 6000  32.271  30.474   9.557
  140POPC   GL1 6001  32.014  30.653   9.239
  140POPC   GL2 6002  32.205  30.965   9.116
  140POPC   C1A 6003  31.994  30.655   8.791
  140POPC   D2A 6004  32.213  30.789   8.450
  140POPC   C3A 6005  32.036  30.702   8.070
  140POPC   C4A 6006  31.938  30.964   7.753
  140POPC   C1B 6007  32.505  30.671   8.873
  140POPC   C2B 6008  32.685  30.560   8.453
  140POPC   C3B 6009  32.553  30.724   8.039
  140POPC   C4B 6010  32.422  30.862   7.615
  141POPC   NC3 6011  30.908  23.385   9.446
  141POPC   PO4 6012  30.498  22.882   9.527
  141POPC   GL1 6013  30.739  22.972   9.183
  141POPC   GL2 6014  30.852  22.641   9.062
  141POPC   C1A 6015  30.823  23.141   8.783
  141POPC   D2A 6016  30.892  22.875   8.439
  141POPC   C3A 6017  30.808  23.068   8.077
  141POPC   C4A 6018  30.959  23.158   7.694
  141POPC   C1B 6019  30.464  22.736   8.817
  141POPC   C2B 6020  30.277  22.603   8.450
  141POPC   C3B 6021  30.509  22.647   8.098
  141POPC   C4B 6022  30.486  22.522   7.704
  142POPC   NC3 6023  12.372  15.923   9.648
  142POPC   PO4 6024  13.039  15.723   9.691
  142POPC   GL1 6025  12.886  15.902   9.318
  142POPC   GL2 6026  12.762  15.613   9.162
  142POPC   C1A 6027  12.859  16.060   8.872
  142POPC   D2A 6028  13.031  16.234   8.478
  142POPC   C3A 6029  12.857  16.181   8.084
  142POPC   C4A 6030  12.739  16.126   7.671
  142POPC   C1B 6031  12.899  15.563   8.730
  142POPC   C2B 6032  12.790  15.750   8.359
  142POPC   C3B 6033  12.668  15.701   7.948
  142POPC   C4B 6034  12.824  15.665   7.535
  143POPC   NC3 6035  23.247  44.452   9.667
  143POPC   PO4 6036  23.426   0.025   9.490
  143POPC   GL1 6037  23.133  44.930   9.113
  143POPC   GL2 6038  22.791  44.808   9.179
  143POPC   C1A 6039  23.019  44.903   8.647
  143POPC   D2A 6040  23.313  44.861   8.298
  143POPC   C3A 6041  23.215  44.759   7.874
  143POPC   C4A 6042  22.937  44.966   7.565
  143POPC   C1B 6043  22.910  44.466   8.877
  143POPC   C2B 6044  22.899  44.413   8.412
  143POPC   C3B 6045  22.760  44.586   8.012
  143POPC   C4B 6046  22.898  44.464   7.610
  144POPC   NC3 6047  16.204  12.565   9.463
  144POPC   PO4 6048  15.804  13.079   9.502
  144POPC   GL1 6049  15.899  12.823   9.159
  144POPC   GL2 6050  16.273  12.876   9.075
  144POPC   C1A 6051  15.930  12.645   8.757
  144POPC   D2A 6052  15.734  12.759   8.405
  144POPC   C3A 6053  15.920  12.724   8.086
  144POPC   C4A 6054  16.035  12.776   7.699
  144POPC   C1B 6055  16.055  13.148   8.800
  144POPC   C2B 6056  16.038  13.166   8.368
  144POPC   C3B 6057  16.202  13.183   7.955
  144POPC   C4B 6058  16.002  13.251   7.545
  145POPC   NC3 6059  33.308  33.495   9.548
  145POPC   PO4 6060  33.069  34.190   9.597
  145POPC   GL1 6061  33.250  34.065   9.191
  145POPC   GL2 6062  33.210  33.715   9.054
  145POPC   C1A 6063  33.120  34.164   8.772
  145POPC   D2A 6064  33.041  34.340   8.385
  145POPC   C3A 6065  32.979  34.038   8.082
  145POPC   C4A 6066  32.939  33.815   7.699
  145POPC   C1B 6067  33.289  33.514   8.616
  145POPC   C2B 6068  33.231  33.594   8.127
  145POPC   C3B 6069  33.374  33.572   7.680
  145POPC   C4B 6070  33.266  33.386   7.222
  146POPC   NC3 6071   2.592  41.536   9.548
  146POPC   PO4 6072   3.016  42.028   9.479
  146POPC   GL1 6073   2.734  41.950   9.111
  146POPC   GL2 6074   2.435  41.762   9.124
  146POPC   C1A 6075   2.616  41.810   8.674
  146POPC   D2A 6076   2.732  41.661   8.323
  146POPC   C3A 6077   2.524  41.754   8.015
  146POPC   C4A 6078   2.849  41.692   7.770
  146POPC   C1B 6079   2.621  41.367   8.905
  146POPC   C2B 6080   2.597  41.211   8.465
  146POPC   C3B 6081   2.678  41.254   7.989
  146POPC   C4B 6082   2.596  41.330   7.520
  147POPC   NC3 6083   6.048  38.673   9.476
  147POPC   PO4 6084   5.792  38.015   9.406
  147POPC   GL1 6085   5.851  38.232   9.035
  147POPC   GL2 6086   5.765  38.569   9.061
  147POPC   C1A 6087   5.725  38.304   8.619
  147POPC   D2A 6088   5.865  38.504   8.276
  147POPC   C3A 6089   5.928  38.202   8.001
  147POPC   C4A 6090   6.185  38.022   7.690
  147POPC   C1B 6091   5.814  38.832   8.689
  147POPC   C2B 6092   5.774  39.069   8.353
  147POPC   C3B 6093   5.578  38.949   8.017
  147POPC   C4B 6094   5.731  38.726   7.715
  148POPC   NC3 6095  38.246  36.532   9.482
  148POPC   PO4 6096  38.366  35.856   9.418
  148POPC   GL1 6097  38.491  36.208   9.156
  148POPC   GL2 6098  38.704  35.984   9.029
  148POPC   C1A 6099  38.509  36.352   8.711
  148POPC   D2A 6100  38.486  36.118   8.318
  148POPC   C3A 6101  38.417  36.286   7.899
  148POPC   C4A 6102  38.517  36.224   7.416
  148POPC   C1B 6103  38.436  35.754   8.767
  148POPC   C2B 6104  38.509  35.588   8.396
  148POPC   C3B 6105  38.695  35.733   8.039
  148POPC   C4B 6106  38.571  35.793   7.641
  149POPC   NC3 6107  37.217  11.586   9.285
  149POPC   PO4 6108  36.757  11.230   9.655
  149POPC   GL1 6109  36.764  11.269   9.218
  149POPC   GL2 6110  36.678  11.584   9.176
  149POPC   C1A 6111  36.964  11.196   8.806
  149POPC   D2A 6112  37.234  11.242   8.448
  149POPC   C3A 6113  37.008  11.263   8.077
  149POPC   C4A 6114  37.182  11.143   7.712
  149POPC   C1B 6115  36.713  11.669   8.767
  149POPC   C2B 6116  36.959  11.702   8.410
  149POPC   C3B 6117  37.049  11.791   7.985
  149POPC   C4B 6118  36.874  11.553   7.659
  150POPC   NC3 6119   8.019  18.768   9.523
  150POPC   PO4 6120   8.176  19.397   9.334
  150POPC   GL1 6121   8.324  19.220   9.066
  150POPC   GL2 6122   8.173  18.928   9.053
  150POPC   C1A 6123   8.194  19.290   8.666
  150POPC   D2A 6124   8.104  19.109   8.297
  150POPC   C3A 6125   8.146  19.428   8.016
  150POPC   C4A 6126   8.468  19.465   7.733
  150POPC   C1B 6127   8.295  18.771   8.669
  150POPC   C2B 6128   8.006  18.604   8.360
  150POPC   C3B 6129   8.086  18.738   7.951
  150POPC   C4B 6130   8.257  18.999   7.691
  151POPC   NC3 6131  41.758  40.616   9.693
  151POPC   PO4 6132  42.394  40.784   9.700
  151POPC   GL1 6133  42.378  40.803   9.202
  151POPC   GL2 6134  42.012  40.824   9.137
  151POPC   C1A 6135  42.345  40.704   8.744
  151POPC   D2A 6136  42.582  40.795   8.364
  151POPC   C3A 6137  42.363  40.623   8.015
  151POPC   C4A 6138  42.344  40.357   7.635
  151POPC   C1B 6139  42.027  41.100   8.794
  151POPC   C2B 6140  42.084  40.976   8.357
  151POPC   C3B 6141  41.980  41.099   7.942
  151POPC   C4B 6142  42.062  40.795   7.651
  152POPC   NC3 6143  28.063  15.300   9.458
  152POPC   PO4 6144  27.437  15.106   9.465
  152POPC   GL1 6145  27.655  15.308   9.131
  152POPC   GL2 6146  27.913  15.104   9.024
  152POPC   C1A 6147  27.540  15.294   8.693
  152POPC   D2A 6148  27.479  14.999   8.314
  152POPC   C3A 6149  27.625  15.202   7.928
  152POPC   C4A 6150  27.680  15.587   7.725
  152POPC   C1B 6151  27.841  14.865   8.676
  152POPC   C2B 6152  27.998  14.868   8.256
  152POPC   C3B 6153  27.814  14.734   7.901
  152POPC   C4B 6154  27.850  14.954   7.509
  153POPC   NC3 6155  21.959  33.781   9.594
  153POPC   PO4 6156  22.512  33.428   9.734
  153POPC   GL1 6157  22.401  33.647   9.272
  153POPC   GL2 6158  22.140  33.934   9.151
  153POPC   C1A 6159  22.341  33.655   8.775
  153POPC   D2A 6160  22.242  33.467   8.353
  153POPC   C3A 6161  21.985  33.680   8.022
  153POPC   C4A 6162  22.214  33.671   7.653
  153POPC   C1B 6163  22.107  34.224   8.806
  153POPC   C2B 6164  22.169  34.119   8.392
  153POPC   C3B 6165  22.323  34.047   7.998
  153POPC   C4B 6166  22.151  34.237   7.659
  154POPC   NC3 6167  21.613  40.958   9.861
  154POPC   PO4 6168  22.245  40.845   9.570
  154POPC   GL1 6169  22.249  40.911   9.155
  154POPC   GL2 6170  21.924  40.762   9.083
  154POPC   C1A 6171  22.357  40.756   8.768
  154POPC   D2A 6172  22.264  40.701   8.349
  154POPC   C3A 6173  22.042  41.011   8.115
  154POPC   C4A 6174  22.176  40.895   7.716
  154POPC   C1B 6175  21.887  40.929   8.654
  154POPC   C2B 6176  21.738  40.654   8.343
  154POPC   C3B 6177  21.833  40.561   7.908
  154POPC   C4B 6178  21.818  40.594   7.418
  155POPC   NC3 6179  23.940  36.646   9.505
  155POPC   PO4 6180  23.732  37.201   9.750
  155POPC   GL1 6181  23.853  37.080   9.269
  155POPC   GL2 6182  23.625  36.801   9.149
  155POPC   C1A 6183  23.856  37.032   8.766
  155POPC   D2A 6184  23.644  36.834   8.386
  155POPC   C3A 6185  23.719  37.050   7.994
  155POPC   C4A 6186  23.973  36.917   7.654
  155POPC   C1B 6187  23.844  36.507   8.853
  155POPC   C2B 6188  23.959  36.385   8.442
  155POPC   C3B 6189  23.894  36.545   8.048
  155POPC   C4B 6190  23.594  36.573   7.762
  156POPC   NC3 6191  43.320  12.792   9.523
  156POPC   PO4 6192  42.799  12.848   9.179
  156POPC   GL1 6193  43.196  12.757   9.039
  156POPC   GL2 6194  43.316  13.140   9.137
  156POPC   C1A 6195  43.460  12.535   8.734
  156POPC   D2A 6196  43.591  12.704   8.322
  156POPC   C3A 6197  43.354  12.866   7.962
  156POPC   C4A 6198  42.966  12.693   7.761
  156POPC   C1B 6199  43.129  13.144   8.736
  156POPC   C2B 6200  43.080  12.843   8.433
  156POPC   C3B 6201  42.887  13.062   8.108
  156POPC   C4B 6202  42.992  13.215   7.726
  157POPC   NC3 6203  40.429  34.507   9.454
  157POPC   PO4 6204  41.078  34.519   9.452
  157POPC   GL1 6205  40.846  34.689   9.090
  157POPC   GL2 6206  40.498  34.563   8.959
  157POPC   C1A 6207  40.877  34.615   8.648
  157POPC   D2A 6208  40.827  34.426   8.279
  157POPC   C3A 6209  40.742  34.718   7.979
  157POPC   C4A 6210  40.807  34.638   7.544
  157POPC   C1B 6211  40.519  34.205   8.654
  157POPC   C2B 6212  40.412  34.119   8.217
  157POPC   C3B 6213  40.603  34.250   7.824
  157POPC   C4B 6214  40.418  34.319   7.419
  158POPC   NC3 6215  27.288  10.364   9.850
  158POPC   PO4 6216  27.800  10.011   9.518
  158POPC   GL1 6217  27.707   9.724   9.210
  158POPC   GL2 6218  27.373   9.639   9.332
  158POPC   C1A 6219  27.809   9.627   8.771
  158POPC   D2A 6220  27.581   9.793   8.412
  158POPC   C3A 6221  27.692   9.813   7.974
  158POPC   C4A 6222  27.471   9.839   7.610
  158POPC   C1B 6223  27.295   9.691   8.866
  158POPC   C2B 6224  27.110   9.647   8.442
  158POPC   C3B 6225  27.332   9.459   8.089
  158POPC   C4B 6226  27.106   9.427   7.728
  159POPC   NC3 6227  30.531  43.838   9.634
  159POPC   PO4 6228  30.497  44.499   9.627
  159POPC   GL1 6229  30.591  44.199   9.260
  159POPC   GL2 6230  30.908  43.975   9.251
  159POPC   C1A 6231  30.712  44.090   8.810
  159POPC   D2A 6232  30.659  43.812   8.434
  159POPC   C3A 6233  30.687  43.984   8.037
  159POPC   C4A 6234  30.496  44.188   7.672
  159POPC   C1B 6235  31.068  43.741   8.848
  159POPC   C2B 6236  31.149  43.666   8.387
  159POPC   C3B 6237  31.038  43.629   7.922
  159POPC   C4B 6238  30.949  44.000   7.602
  160POPC   NC3 6239  27.171  25.911   9.590
  160POPC   PO4 6240  27.844  26.138   9.768
  160POPC   GL1 6241  27.553  26.179   9.374
  160POPC   GL2 6242  27.607  25.872   9.214
  160POPC   C1A 6243  27.344  26.231   8.933
  160POPC   D2A 6244  27.619  26.309   8.550
  160POPC   C3A 6245  27.603  26.058   8.177
  160POPC   C4A 6246  27.671  26.107   7.736
  160POPC   C1B 6247  27.502  25.758   8.780
  160POPC   C2B 6248  27.787  25.596   8.477
  160POPC   C3B 6249  27.982  25.730   8.125
  160POPC   C4B 6250  27.816  25.623   7.731
  161POPC   NC3 6251  25.078  37.990   9.529
  161POPC   PO4 6252  24.968  37.286   9.586
  161POPC   GL1 6253  25.126  37.478   9.190
  161POPC   GL2 6254  25.343  37.760   9.147
  161POPC   C1A 6255  25.242  37.465   8.734
  161POPC   D2A 6256  25.104  37.766   8.432
  161POPC   C3A 6257  25.140  37.640   8.009
  161POPC   C4A 6258  25.000  37.945   7.665
  161POPC   C1B 6259  25.629  37.796   8.781
  161POPC   C2B 6260  25.614  37.730   8.317
  161POPC   C3B 6261  25.676  37.813   7.882
  161POPC   C4B 6262  25.400  37.640   7.573
  162POPC   NC3 6263  12.499   8.042   9.527
  162POPC   PO4 6264  11.869   8.178   9.553
  162POPC   GL1 6265  11.846   8.378   9.159
  162POPC   GL2 6266  12.207   8.451   9.079
  162POPC   C1A 6267  11.895   8.223   8.745
  162POPC   D2A 6268  12.151   8.370   8.380
  162POPC   C3A 6269  11.924   8.522   8.026
  162POPC   C4A 6270  11.732   8.165   7.826
  162POPC   C1B 6271  12.409   8.685   8.748
  162POPC   C2B 6272  12.622   8.599   8.365
  162POPC   C3B 6273  12.497   8.458   7.982
  162POPC   C4B 6274  12.242   8.136   7.787
  163POPC   NC3 6275   0.747  34.635   9.501
  163POPC   PO4 6276   1.362  34.315   9.466
  163POPC   GL1 6277   1.209  34.448   9.081
  163POPC   GL2 6278   1.104  34.761   9.060
  163POPC   C1A 6279   1.402  34.555   8.686
  163POPC   D2A 6280   1.268  34.721   8.279
  163POPC   C3A 6281   1.493  34.550   7.927
  163POPC   C4A 6282   1.380  34.703   7.553
  163POPC   C1B 6283   0.945  34.819   8.666
  163POPC   C2B 6284   0.735  34.907   8.265
  163POPC   C3B 6285   0.941  34.855   7.885
  163POPC   C4B 6286   1.010  34.418   7.770
  164POPC   NC3 6287  31.063  20.391   9.382
  164POPC   PO4 6288  31.620  20.643   9.683
  164POPC   GL1 6289  31.555  20.505   9.222
  164POPC   GL2 6290  31.265  20.657   9.007
  164POPC   C1A 6291  31.673  20.485   8.761
  164POPC   D2A 6292  31.487  20.733   8.408
  164POPC   C3A 6293  31.593  20.651   7.993
  164POPC   C4A 6294  31.809  20.851   7.675
  164POPC   C1B 6295  31.167  20.403   8.638
  164POPC   C2B 6296  31.191  20.316   8.186
  164POPC   C3B 6297  30.996  20.545   7.836
  164POPC   C4B 6298  30.970  20.469   7.347
  165POPC   NC3 6299   9.000  41.429   9.416
  165POPC   PO4 6300   8.890  42.106   9.379
  165POPC   GL1 6301   9.155  41.837   9.093
  165POPC   GL2 6302   9.180  41.457   8.961
  165POPC   C1A 6303   9.044  41.833   8.677
  165POPC   D2A 6304   8.813  41.660   8.387
  165POPC   C3A 6305   9.027  41.608   8.056
  165POPC   C4A 6306   8.859  41.605   7.673
  165POPC   C1B 6307   8.787  41.294   8.770
  165POPC   C2B 6308   8.561  41.209   8.377
  165POPC   C3B 6309   8.743  41.165   7.971
  165POPC   C4B 6310   9.176  41.215   7.761
  166POPC   NC3 6311  21.314   2.248   9.467
  166POPC   PO4 6312  21.600   1.670   9.711
  166POPC   GL1 6313  21.351   1.768   9.299
  166POPC   GL2 6314  21.536   2.005   9.093
  166POPC   C1A 6315  21.041   1.755   8.929
  166POPC   D2A 6316  21.058   1.530   8.533
  166POPC   C3A 6317  21.084   1.741   8.124
  166POPC   C4A 6318  21.200   1.990   7.770
  166POPC   C1B 6319  21.342   2.103   8.699
  166POPC   C2B 6320  21.300   2.197   8.252
  166POPC   C3B 6321  21.594   2.256   7.904
  166POPC   C4B 6322  21.757   2.088   7.558
  167POPC   NC3 6323  28.991  40.950   9.527
  167POPC   PO4 6324  29.418  40.447   9.532
  167POPC   GL1 6325  29.131  40.564   9.206
  167POPC   GL2 6326  29.379  40.759   9.117
  167POPC   C1A 6327  29.017  40.637   8.770
  167POPC   D2A 6328  28.939  40.654   8.343
  167POPC   C3A 6329  29.080  40.996   8.054
  167POPC   C4A 6330  29.150  40.953   7.593
  167POPC   C1B 6331  29.492  40.503   8.792
  167POPC   C2B 6332  29.461  40.661   8.363
  167POPC   C3B 6333  29.461  40.689   7.927
  167POPC   C4B 6334  29.428  40.521   7.477
  168POPC   NC3 6335  24.169  12.786   9.713
  168POPC   PO4 6336  23.807  12.558   9.509
  168POPC   GL1 6337  23.844  12.750   9.081
  168POPC   GL2 6338  23.644  13.056   9.006
  168POPC   C1A 6339  23.730  12.688   8.625
  168POPC   D2A 6340  23.535  12.747   8.213
  168POPC   C3A 6341  23.590  12.466   7.837
  168POPC   C4A 6342  23.842  12.500   7.455
  168POPC   C1B 6343  23.480  13.362   8.694
  168POPC   C2B 6344  23.262  13.336   8.292
  168POPC   C3B 6345  23.423  13.147   7.907
  168POPC   C4B 6346  23.798  12.940   7.774
  169POPC   NC3 6347  35.271   5.904   9.468
  169POPC   PO4 6348  35.167   5.246   9.276
  169POPC   GL1 6349  35.369   5.611   9.054
  169POPC   GL2 6350  35.087   5.859   9.001
  169POPC   C1A 6351  35.491   5.928   8.728
  169POPC   D2A 6352  35.380   5.823   8.319
  169POPC   C3A 6353  35.687   5.797   8.004
  169POPC   C4A 6354  35.653   6.190   7.833
  169POPC   C1B 6355  34.862   6.057   8.657
  169POPC   C2B 6356  34.794   6.195   8.219
  169POPC   C3B 6357  35.025   5.969   7.889
  169POPC   C4B 6358  35.214   5.554   7.922
  170POPC   NC3 6359   0.785  20.573   9.247
  170POPC   PO4 6360   1.327  20.491   9.646
  170POPC   GL1 6361   1.308  20.305   9.193
  170POPC   GL2 6362   0.989  20.135   9.094
  170POPC   C1A 6363   1.589  20.349   8.811
  170POPC   D2A 6364   1.471  20.318   8.401
  170POPC   C3A 6365   1.409  20.613   8.112
  170POPC   C4A 6366   1.436  20.470   7.737
  170POPC   C1B 6367   1.084  20.249   8.713
  170POPC   C2B 6368   0.950  20.382   8.306
  170POPC   C3B 6369   0.923  20.573   7.909
  170POPC   C4B 6370   0.912  20.985   7.738
  171POPC   NC3 6371  27.324   7.589   9.444
  171POPC   PO4 6372  27.843   7.205   9.470
  171POPC   GL1 6373  27.620   7.285   9.130
  171POPC   GL2 6374  27.807   7.613   9.115
  171POPC   C1A 6375  27.634   7.026   8.756
  171POPC   D2A 6376  27.802   7.030   8.334
  171POPC   C3A 6377  27.647   7.335   8.053
  171POPC   C4A 6378  27.791   7.241   7.682
  171POPC   C1B 6379  27.820   7.930   8.797
  171POPC   C2B 6380  27.768   7.722   8.383
  171POPC   C3B 6381  27.922   7.784   7.950
  171POPC   C4B 6382  27.717   7.724   7.565
  172POPC   NC3 6383  18.601   2.222   9.509
  172POPC   PO4 6384  18.040   1.767   9.525
  172POPC   GL1 6385  18.190   2.101   9.210
  172POPC   GL2 6386  18.454   1.973   9.039
  172POPC   C1A 6387  18.113   2.208   8.778
  172POPC   D2A 6388  18.282   1.936   8.485
  172POPC   C3A 6389  18.180   2.124   8.131
  172POPC   C4A 6390  18.210   2.159   7.710
  172POPC   C1B 6391  18.716   1.750   8.721
  172POPC   C2B 6392  18.626   1.533   8.351
  172POPC   C3B 6393  18.414   1.675   8.003
  172POPC   C4B 6394  18.534   1.781   7.628
  173POPC   NC3 6395  41.543  30.055   9.547
  173POPC   PO4 6396  41.890  29.479   9.445
  173POPC   GL1 6397  41.748  29.766   9.075
  173POPC   GL2 6398  41.432  30.008   9.063
  173POPC   C1A 6399  41.453  29.698   8.682
  173POPC   D2A 6400  41.405  29.957   8.346
  173POPC   C3A 6401  41.710  29.962   7.975
  173POPC   C4A 6402  41.879  30.007   7.522
  173POPC   C1B 6403  41.758  30.138   8.726
  173POPC   C2B 6404  41.711  30.391   8.332
  173POPC   C3B 6405  41.352  30.345   8.032
  173POPC   C4B 6406  41.403  30.160   7.606
  174POPC   NC3 6407  16.463  44.426   9.417
  174POPC   PO4 6408  17.144  44.362   9.576
  174POPC   GL1 6409  16.946  44.421   9.174
  174POPC   GL2 6410  16.893  44.777   9.160
  174POPC   C1A 6411  16.786  44.478   8.740
  174POPC   D2A 6412  16.556  44.461   8.348
  174POPC   C3A 6413  16.750  44.151   8.093
  174POPC   C4A 6414  16.941  44.175   7.712
  174POPC   C1B 6415  16.930  44.990   8.734
  174POPC   C2B 6416  16.870  44.884   8.268
  174POPC   C3B 6417  16.720  44.642   7.871
  174POPC   C4B 6418  16.563  44.625   7.434
  175POPC   NC3 6419   7.676  41.482   9.308
  175POPC   PO4 6420   7.235  41.866   9.540
  175POPC   GL1 6421   7.225  41.826   9.114
  175POPC   GL2 6422   7.538  41.901   9.026
  175POPC   C1A 6423   7.071  41.589   8.792
  175POPC   D2A 6424   7.184  41.301   8.477
  175POPC   C3A 6425   7.365  41.507   8.140
  175POPC   C4A 6426   7.166  41.726   7.792
  175POPC   C1B 6427   7.571  41.580   8.671
  175POPC   C2B 6428   7.794  41.297   8.386
  175POPC   C3B 6429   7.743  41.128   7.973
  175POPC   C4B 6430   7.560  41.381   7.678
  176POPC   NC3 6431   5.912  28.232   9.542
  176POPC   PO4 6432   5.546  28.813   9.480
  176POPC   GL1 6433   5.860  28.591   9.168
  176POPC   GL2 6434   5.753  28.321   9.062
  176POPC   C1A 6435   6.115  28.502   8.778
  176POPC   D2A 6436   6.007  28.646   8.361
  176POPC   C3A 6437   5.674  28.615   8.021
  176POPC   C4A 6438   5.980  28.653   7.696
  176POPC   C1B 6439   5.634  28.407   8.644
  176POPC   C2B 6440   5.626  28.191   8.293
  176POPC   C3B 6441   5.801  28.177   7.873
  176POPC   C4B 6442   5.581  28.317   7.509
  177POPC   NC3 6443   9.263  17.374   9.347
  177POPC   PO4 6444   8.590  17.579   9.513
  177POPC   GL1 6445   8.783  17.430   9.156
  177POPC   GL2 6446   8.920  17.782   9.146
  177POPC   C1A 6447   8.869  17.192   8.767
  177POPC   D2A 6448   9.132  17.359   8.407
  177POPC   C3A 6449   8.993  17.315   7.964
  177POPC   C4A 6450   8.564  17.325   7.734
  177POPC   C1B 6451   9.139  17.865   8.763
  177POPC   C2B 6452   8.936  17.868   8.392
  177POPC   C3B 6453   8.859  17.798   7.999
  177POPC   C4B 6454   9.149  17.778   7.699
  178POPC   NC3 6455  11.753  40.088   9.442
  178POPC   PO4 6456  12.352  39.904   9.505
  178POPC   GL1 6457  12.210  40.050   9.119
  178POPC   GL2 6458  11.986  39.779   9.077
  178POPC   C1A 6459  12.255  40.034   8.662
  178POPC   D2A 6460  12.456  39.995   8.273
  178POPC   C3A 6461  12.183  40.142   7.944
  178POPC   C4A 6462  12.142  40.019   7.523
  178POPC   C1B 6463  11.956  39.599   8.666
  178POPC   C2B 6464  11.939  39.808   8.270
  178POPC   C3B 6465  11.905  39.707   7.844
  178POPC   C4B 6466  11.905  39.590   7.369
  179POPC   NC3 6467  29.317  17.978   9.768
  179POPC   PO4 6468  29.362  18.472   9.235
  179POPC   GL1 6469  29.103  18.296   8.963
  179POPC   GL2 6470  29.169  18.564   8.765
  179POPC   C1A 6471  29.203  18.110   8.581
  179POPC   D2A 6472  29.086  18.400   8.261
  179POPC   C3A 6473  29.011  18.273   7.881
  179POPC   C4A 6474  29.290  18.156   7.567
  179POPC   C1B 6475  28.901  18.858   8.666
  179POPC   C2B 6476  28.783  19.028   8.298
  179POPC   C3B 6477  28.977  18.824   7.980
  179POPC   C4B 6478  28.820  18.657   7.598
  180POPC   NC3 6479  38.259  19.938  10.046
  180POPC   PO4 6480  38.582  19.666   9.461
  180POPC   GL1 6481  38.489  19.888   9.061
  180POPC   GL2 6482  38.724  20.169   9.111
  180POPC   C1A 6483  38.135  19.742   8.771
  180POPC   D2A 6484  38.306  19.876   8.392
  180POPC   C3A 6485  38.426  19.910   7.958
  180POPC   C4A 6486  38.657  20.239   7.750
  180POPC   C1B 6487  38.874  19.864   8.769
  180POPC   C2B 6488  38.835  19.918   8.346
  180POPC   C3B 6489  38.973  19.908   7.951
  180POPC   C4B 6490  38.802  19.645   7.706
  181POPC   NC3 6491  19.488  23.886   9.411
  181POPC   PO4 6492  19.959  23.506   9.605
  181POPC   GL1 6493  19.885  23.560   9.164
  181POPC   GL2 6494  19.939  23.905   9.057
  181POPC   C1A 6495  20.094  23.506   8.750
  181POPC   D2A 6496  20.277  23.667   8.348
  181POPC   C3A 6497  19.957  23.790   8.039
  181POPC   C4A 6498  19.934  24.011   7.613
  181POPC   C1B 6499  19.615  23.730   8.743
  181POPC   C2B 6500  19.449  23.831   8.322
  181POPC   C3B 6501  19.501  23.948   7.882
  181POPC   C4B 6502  19.457  23.786   7.484
  182POPC   NC3 6503  36.843   8.479   9.544
  182POPC   PO4 6504  37.291   7.894   9.772
  182POPC   GL1 6505  37.146   8.094   9.359
  182POPC   GL2 6506  36.878   7.875   9.206
  182POPC   C1A 6507  37.224   8.317   8.934
  182POPC   D2A 6508  37.377   8.288   8.475
  182POPC   C3A 6509  37.081   8.359   8.097
  182POPC   C4A 6510  36.676   8.422   7.846
  182POPC   C1B 6511  37.016   7.727   8.793
  182POPC   C2B 6512  36.823   7.732   8.391
  182POPC   C3B 6513  36.558   8.036   8.204
  182POPC   C4B 6514  36.503   7.951   7.782
  183POPC   NC3 6515   7.330  14.001   9.750
  183POPC   PO4 6516   7.500  14.583   9.507
  183POPC   GL1 6517   7.489  14.450   9.121
  183POPC   GL2 6518   7.467  14.106   9.191
  183POPC   C1A 6519   7.418  14.469   8.672
  183POPC   D2A 6520   7.477  14.397   8.226
  183POPC   C3A 6521   7.379  14.710   7.887
  183POPC   C4A 6522   7.063  14.466   7.626
  183POPC   C1B 6523   7.816  14.171   8.862
  183POPC   C2B 6524   7.950  14.299   8.457
  183POPC   C3B 6525   7.875  14.141   8.046
  183POPC   C4B 6526   7.622  14.295   7.734
  184POPC   NC3 6527  21.328  38.560   9.512
  184POPC   PO4 6528  21.809  38.240   9.598
  184POPC   GL1 6529  21.611  38.346   9.148
  184POPC   GL2 6530  21.202  38.367   9.068
  184POPC   C1A 6531  21.557  38.606   8.761
  184POPC   D2A 6532  21.390  38.735   8.364
  184POPC   C3A 6533  21.677  38.644   8.060
  184POPC   C4A 6534  21.735  38.351   7.745
  184POPC   C1B 6535  21.169  38.339   8.633
  184POPC   C2B 6536  21.398  38.210   8.314
  184POPC   C3B 6537  21.286  38.336   7.965
  184POPC   C4B 6538  20.956  38.315   7.748
  185POPC   NC3 6539   5.831   7.546   9.614
  185POPC   PO4 6540   5.415   7.965   9.340
  185POPC   GL1 6541   5.765   7.662   9.138
  185POPC   GL2 6542   5.679   7.343   9.094
  185POPC   C1A 6543   6.020   7.569   8.703
  185POPC   D2A 6544   6.149   7.418   8.251
  185POPC   C3A 6545   6.013   7.503   7.803
  185POPC   C4A 6546   6.006   7.182   7.460
  185POPC   C1B 6547   5.514   7.629   8.722
  185POPC   C2B 6548   5.664   7.692   8.303
  185POPC   C3B 6549   5.649   7.305   8.078
  185POPC   C4B 6550   5.523   7.158   7.693
  186POPC   NC3 6551   6.754  42.919   9.422
  186POPC   PO4 6552   6.766  43.590   9.531
  186POPC   GL1 6553   6.694  43.362   9.158
  186POPC   GL2 6554   7.036  43.326   9.072
  186POPC   C1A 6555   6.528  43.187   8.756
  186POPC   D2A 6556   6.380  43.307   8.329
  186POPC   C3A 6557   6.471  43.026   7.958
  186POPC   C4A 6558   6.500  43.181   7.530
  186POPC   C1B 6559   7.001  42.973   8.775
  186POPC   C2B 6560   6.860  43.007   8.325
  186POPC   C3B 6561   6.960  43.001   7.878
  186POPC   C4B 6562   6.974  43.041   7.423
  187POPC   NC3 6563  23.434  13.602   9.354
  187POPC   PO4 6564  22.846  13.636   9.562
  187POPC   GL1 6565  22.914  13.659   9.130
  187POPC   GL2 6566  23.135  13.909   9.074
  187POPC   C1A 6567  23.010  13.589   8.687
  187POPC   D2A 6568  22.858  13.726   8.292
  187POPC   C3A 6569  23.071  13.601   7.894
  187POPC   C4A 6570  23.496  13.620   7.723
  187POPC   C1B 6571  23.390  13.935   8.739
  187POPC   C2B 6572  23.308  14.135   8.371
  187POPC   C3B 6573  23.048  14.110   8.027
  187POPC   C4B 6574  23.215  14.044   7.649
  188POPC   NC3 6575  22.676  23.951   9.425
  188POPC   PO4 6576  23.107  23.373   9.458
  188POPC   GL1 6577  22.937  23.632   9.138
  188POPC   GL2 6578  22.560  23.550   9.138
  188POPC   C1A 6579  22.999  23.907   8.767
  188POPC   D2A 6580  23.299  23.877   8.417
  188POPC   C3A 6581  23.135  23.847   7.998
  188POPC   C4A 6582  23.159  23.570   7.698
  188POPC   C1B 6583  22.486  23.753   8.762
  188POPC   C2B 6584  22.715  23.791   8.361
  188POPC   C3B 6585  22.599  23.856   7.944
  188POPC   C4B 6586  22.393  23.540   7.702
  189POPC   NC3 6587  37.344  36.481   9.752
  189POPC   PO4 6588  36.768  36.264   9.411
  189POPC   GL1 6589  36.940  36.248   9.040
  189POPC   GL2 6590  36.636  36.396   8.908
  189POPC   C1A 6591  37.095  36.138   8.637
  189POPC   D2A 6592  37.056  36.277   8.204
  189POPC   C3A 6593  37.162  36.290   7.744
  189POPC   C4A 6594  37.218  36.309   7.275
  189POPC   C1B 6595  36.630  35.967   8.734
  189POPC   C2B 6596  36.771  35.842   8.338
  189POPC   C3B 6597  36.686  36.038   7.928
  189POPC   C4B 6598  36.456  35.794   7.657
  190POPC   NC3 6599  29.749  31.146   9.870
  190POPC   PO4 6600  29.728  31.581   9.357
  190POPC   GL1 6601  30.025  31.464   9.067
  190POPC   GL2 6602  30.324  31.648   9.187
  190POPC   C1A 6603  29.919  31.448   8.611
  190POPC   D2A 6604  29.691  31.666   8.267
  190POPC   C3A 6605  29.643  31.337   7.963
  190POPC   C4A 6606  29.986  31.284   7.675
  190POPC   C1B 6607  30.226  31.830   8.786
  190POPC   C2B 6608  30.253  31.772   8.353
  190POPC   C3B 6609  30.106  31.790   7.926
  190POPC   C4B 6610  29.718  31.762   7.723
  191POPC   NC3 6611  23.296  22.934   9.540
  191POPC   PO4 6612  22.619  22.832   9.679
  191POPC   GL1 6613  22.824  22.821   9.269
  191POPC   GL2 6614  22.865  23.124   9.087
  191POPC   C1A 6615  22.731  22.719   8.817
  191POPC   D2A 6616  22.737  22.986   8.429
  191POPC   C3A 6617  22.887  22.853   8.029
  191POPC   C4A 6618  23.120  22.752   7.629
  191POPC   C1B 6619  22.878  23.403   8.706
  191POPC   C2B 6620  23.076  23.408   8.330
  191POPC   C3B 6621  22.815  23.388   8.026
  191POPC   C4B 6622  22.789  23.200   7.654
  192POPC   NC3 6623  20.434   3.940   9.635
  192POPC   PO4 6624  20.483   3.314   9.691
  192POPC   GL1 6625  20.701   3.572   9.270
  192POPC   GL2 6626  20.546   3.874   9.144
  192POPC   C1A 6627  20.830   3.761   8.768
  192POPC   D2A 6628  20.586   3.782   8.355
  192POPC   C3A 6629  20.759   3.629   7.968
  192POPC   C4A 6630  20.690   3.450   7.559
  192POPC   C1B 6631  20.345   3.658   8.785
  192POPC   C2B 6632  20.286   3.324   8.496
  192POPC   C3B 6633  20.139   3.390   8.075
  192POPC   C4B 6634  20.263   3.804   7.931
  193POPC   NC3 6635   3.549  38.234   9.494
  193POPC   PO4 6636   3.055  38.762   9.388
  193POPC   GL1 6637   3.527  38.641   9.120
  193POPC   GL2 6638   3.682  38.256   9.024
  193POPC   C1A 6639   3.870  38.606   8.746
  193POPC   D2A 6640   3.859  38.306   8.351
  193POPC   C3A 6641   3.607  38.414   8.013
  193POPC   C4A 6642   3.684  38.612   7.646
  193POPC   C1B 6643   3.444  38.313   8.655
  193POPC   C2B 6644   3.374  38.061   8.310
  193POPC   C3B 6645   3.242  38.039   7.901
  193POPC   C4B 6646   3.493  38.119   7.548
  194POPC   NC3 6647  44.320   6.771   9.238
  194POPC   PO4 6648  44.894   6.836   9.518
  194POPC   GL1 6649  44.853   6.485   9.148
  194POPC   GL2 6650  44.541   6.387   9.013
  194POPC   C1A 6651  44.874   6.373   8.648
  194POPC   D2A 6652  44.686   6.652   8.297
  194POPC   C3A 6653  44.922   6.674   7.954
  194POPC   C4A 6654   0.012   6.318   7.729
  194POPC   C1B 6655  44.707   6.826   8.772
  194POPC   C2B 6656  44.536   7.151   8.519
  194POPC   C3B 6657  44.425   7.165   8.092
  194POPC   C4B 6658  44.538   6.917   7.707
  195POPC   NC3 6659  43.113  17.669   9.494
  195POPC   PO4 6660  43.128  18.334   9.424
  195POPC   GL1 6661  43.250  18.073   9.131
  195POPC   GL2 6662  43.526  17.859   9.239
  195POPC   C1A 6663  43.215  18.283   8.743
  195POPC   D2A 6664  43.073  18.602   8.481
  195POPC   C3A 6665  43.059  18.465   8.076
  195POPC   C4A 6666  43.024  18.744   7.756
  195POPC   C1B 6667  43.642  18.002   8.809
  195POPC   C2B 6668  43.459  17.993   8.388
  195POPC   C3B 6669  43.443  18.130   7.968
  195POPC   C4B 6670  43.230  18.279   7.603
  196POPC   NC3 6671  36.113  28.795   9.552
  196POPC   PO4 6672  36.246  29.498   9.494
  196POPC   GL1 6673  36.071  29.157   9.182
  196POPC   GL2 6674  36.319  28.886   9.101
  196POPC   C1A 6675  35.868  28.825   8.859
  196POPC   D2A 6676  35.944  28.715   8.430
  196POPC   C3A 6677  35.948  29.075   8.183
  196POPC   C4A 6678  35.982  29.338   7.837
  196POPC   C1B 6679  36.261  29.123   8.697
  196POPC   C2B 6680  36.443  29.227   8.298
  196POPC   C3B 6681  36.394  29.009   7.931
  196POPC   C4B 6682  36.485  28.800   7.564
  197POPC   NC3 6683  14.255   2.345   9.411
  197POPC   PO4 6684  14.498   1.765   9.286
  197POPC   GL1 6685  14.232   2.002   9.038
  197POPC   GL2 6686  14.424   2.303   8.931
  197POPC   C1A 6687  14.106   2.023   8.643
  197POPC   D2A 6688  14.325   2.159   8.292
  197POPC   C3A 6689  14.171   1.968   7.963
  197POPC   C4A 6690  14.294   1.910   7.571
  197POPC   C1B 6691  14.680   2.060   8.662
  197POPC   C2B 6692  14.825   1.987   8.240
  197POPC   C3B 6693  14.649   2.139   7.857
  197POPC   C4B 6694  14.364   2.425   7.618
  198POPC   NC3 6695  25.613  15.801   9.387
  198POPC   PO4 6696  26.200  16.166   9.402
  198POPC   GL1 6697  25.979  15.985   9.112
  198POPC   GL2 6698  25.690  16.244   9.147
  198POPC   C1A 6699  25.922  15.788   8.754
  198POPC   D2A 6700  26.239  16.027   8.552
  198POPC   C3A 6701  26.246  16.092   8.127
  198POPC   C4A 6702  26.340  16.009   7.745
  198POPC   C1B 6703  25.761  16.271   8.719
  198POPC   C2B 6704  25.868  16.384   8.317
  198POPC   C3B 6705  25.765  16.180   7.954
  198POPC   C4B 6706  25.843  15.795   7.831
  199POPC   NC3 6707  36.714  39.138   9.506
  199POPC   PO4 6708  37.359  39.191   9.360
  199POPC   GL1 6709  37.006  39.119   9.062
  199POPC   GL2 6710  36.661  38.957   9.034
  199POPC   C1A 6711  36.995  38.995   8.644
  199POPC   D2A 6712  37.180  39.233   8.329
  199POPC   C3A 6713  36.923  39.372   7.991
  199POPC   C4A 6714  36.972  39.230   7.596
  199POPC   C1B 6715  36.516  39.150   8.669
  199POPC   C2B 6716  36.547  39.073   8.223
  199POPC   C3B 6717  36.701  38.884   7.838
  199POPC   C4B 6718  36.630  38.984   7.331
  200POPC   NC3 6719  41.545  27.409   9.590
  200POPC   PO4 6720  40.894  27.507   9.575
  200POPC   GL1 6721  41.255  27.441   9.177
  200POPC   GL2 6722  41.607  27.269   9.119
  200POPC   C1A 6723  41.562  27.692   8.841
  200POPC   D2A 6724  41.433  27.775   8.416
  200POPC   C3A 6725  41.678  27.653   8.080
  200POPC   C4A 6726  41.582  27.540   7.699
  200POPC   C1B 6727  41.945  27.363   8.824
  200POPC   C2B 6728  41.990  27.460   8.438
  200POPC   C3B 6729  41.984  27.193   8.121
  200POPC   C4B 6730  41.990  27.271   7.714
  201POPC   NC3 6731  32.603  36.045   9.472
  201POPC   PO4 6732  33.208  36.081   9.594
  201POPC   GL1 6733  33.217  36.176   9.161
  201POPC   GL2 6734  32.874  36.168   9.068
  201POPC   C1A 6735  33.251  36.210   8.725
  201POPC   D2A 6736  32.952  36.147   8.397
  201POPC   C3A 6737  33.141  36.213   7.998
  201POPC   C4A 6738  33.245  36.526   7.717
  201POPC   C1B 6739  32.570  35.988   8.790
  201POPC   C2B 6740  32.421  35.939   8.378
  201POPC   C3B 6741  32.596  36.062   8.006
  201POPC   C4B 6742  32.771  36.311   7.658
  202POPC   NC3 6743  33.190  40.014   9.548
  202POPC   PO4 6744  33.644  40.379   9.179
  202POPC   GL1 6745  33.284  40.175   9.013
  202POPC   GL2 6746  33.175  39.839   9.085
  202POPC   C1A 6747  33.221  40.075   8.598
  202POPC   D2A 6748  33.101  39.882   8.255
  202POPC   C3A 6749  33.046  40.130   7.897
  202POPC   C4A 6750  33.407  40.050   7.713
  202POPC   C1B 6751  32.823  39.860   8.796
  202POPC   C2B 6752  32.616  39.947   8.371
  202POPC   C3B 6753  32.679  39.778   7.937
  202POPC   C4B 6754  32.885  39.855   7.474
  203POPC   NC3 6755  43.646   2.839   9.945
  203POPC   PO4 6756  44.200   2.738   9.578
  203POPC   GL1 6757  43.884   2.781   9.287
  203POPC   GL2 6758  43.803   3.152   9.373
  203POPC   C1A 6759  43.838   2.685   8.838
  203POPC   D2A 6760  43.991   2.498   8.425
  203POPC   C3A 6761  43.825   2.681   8.008
  203POPC   C4A 6762  43.772   2.664   7.525
  203POPC   C1B 6763  44.072   3.137   8.984
  203POPC   C2B 6764  43.939   3.098   8.524
  203POPC   C3B 6765  43.787   3.207   8.105
  203POPC   C4B 6766  43.966   3.112   7.711
  204POPC   NC3 6767  29.552  19.586   9.508
  204POPC   PO4 6768  30.145  19.859   9.395
  204POPC   GL1 6769  29.855  19.768   9.094
  204POPC   GL2 6770  29.547  19.956   9.114
  204POPC   C1A 6771  30.003  19.785   8.690
  204POPC   D2A 6772  30.145  19.591   8.340
  204POPC   C3A 6773  30.010  19.763   7.966
  204POPC   C4A 6774  29.955  19.676   7.529
  204POPC   C1B 6775  29.654  20.150   8.701
  204POPC   C2B 6776  29.660  20.068   8.230
  204POPC   C3B 6777  29.651  20.325   7.855
  204POPC   C4B 6778  29.637  20.263   7.386
  205POPC   NC3 6779  23.761  37.656   9.594
  205POPC   PO4 6780  23.350  37.250   9.251
  205POPC   GL1 6781  23.633  37.488   9.091
  205POPC   GL2 6782  23.903  37.698   9.124
  205POPC   C1A 6783  23.737  37.526   8.693
  205POPC   D2A 6784  23.550  37.340   8.395
  205POPC   C3A 6785  23.765  37.570   8.143
  205POPC   C4A 6786  23.746  37.673   7.762
  205POPC   C1B 6787  23.480  37.911   8.906
  205POPC   C2B 6788  23.416  37.862   8.444
  205POPC   C3B 6789  23.482  38.033   8.009
  205POPC   C4B 6790  23.528  38.054   7.543
  206POPC   NC3 6791  30.394  10.498  10.064
  206POPC   PO4 6792  29.781  10.398   9.753
  206POPC   GL1 6793  29.859  10.375   9.233
  206POPC   GL2 6794  30.221  10.217   9.237
  206POPC   C1A 6795  29.671  10.357   8.756
  206POPC   D2A 6796  29.475  10.489   8.317
  206POPC   C3A 6797  29.737  10.404   7.945
  206POPC   C4A 6798  30.156  10.596   7.858
  206POPC   C1B 6799  30.127  10.153   8.794
  206POPC   C2B 6800  29.986  10.119   8.358
  206POPC   C3B 6801  30.143  10.076   7.933
  206POPC   C4B 6802  30.531  10.286   7.703
  207POPC   NC3 6803   1.930  42.692   9.623
  207POPC   PO4 6804   2.030  43.386   9.603
  207POPC   GL1 6805   1.964  43.077   9.251
  207POPC   GL2 6806   1.858  43.368   9.115
  207POPC   C1A 6807   1.942  42.968   8.801
  207POPC   D2A 6808   2.229  42.988   8.490
  207POPC   C3A 6809   2.048  42.924   8.103
  207POPC   C4A 6810   2.315  42.863   7.783
  207POPC   C1B 6811   2.087  43.454   8.763
  207POPC   C2B 6812   1.945  43.396   8.367
  207POPC   C3B 6813   2.110  43.395   7.962
  207POPC   C4B 6814   1.881  43.266   7.595
  208POPC   NC3 6815   9.973  32.880   9.385
  208POPC   PO4 6816   9.377  33.141   9.224
  208POPC   GL1 6817   9.752  33.088   8.985
  208POPC   GL2 6818   9.883  32.736   8.905
  208POPC   C1A 6819   9.821  33.109   8.567
  208POPC   D2A 6820   9.722  32.893   8.216
  208POPC   C3A 6821   9.812  33.203   7.933
  208POPC   C4A 6822  10.030  32.966   7.716
  208POPC   C1B 6823   9.447  32.686   8.746
  208POPC   C2B 6824   9.252  32.405   8.435
  208POPC   C3B 6825   9.301  32.558   8.010
  208POPC   C4B 6826   9.551  32.807   7.718
  209POPC   NC3 6827   3.535  26.690   9.749
  209POPC   PO4 6828   3.091  27.238   9.591
  209POPC   GL1 6829   3.374  26.983   9.321
  209POPC   GL2 6830   3.340  26.625   9.238
  209POPC   C1A 6831   3.590  26.944   8.904
  209POPC   D2A 6832   3.516  27.158   8.495
  209POPC   C3A 6833   3.830  27.219   8.148
  209POPC   C4A 6834   3.864  27.078   7.706
  209POPC   C1B 6835   3.259  26.450   8.839
  209POPC   C2B 6836   3.352  26.648   8.442
  209POPC   C3B 6837   3.439  26.513   8.007
  209POPC   C4B 6838   3.793  26.508   7.704
  210POPC   NC3 6839  29.706   5.794   9.309
  210POPC   PO4 6840  30.213   6.390   9.118
  210POPC   GL1 6841  29.937   6.130   9.020
  210POPC   GL2 6842  30.054   5.799   8.923
  210POPC   C1A 6843  29.622   6.057   8.743
  210POPC   D2A 6844  29.793   5.793   8.458
  210POPC   C3A 6845  29.946   5.946   8.085
  210POPC   C4A 6846  29.836   5.957   7.673
  210POPC   C1B 6847  30.105   5.417   8.672
  210POPC   C2B 6848  30.132   5.489   8.224
  210POPC   C3B 6849  30.094   5.527   7.789
  210POPC   C4B 6850  29.986   5.608   7.344
  211POPC   NC3 6851   7.481  32.496   9.879
  211POPC   PO4 6852   7.363  31.830   9.583
  211POPC   GL1 6853   7.474  32.119   9.220
  211POPC   GL2 6854   7.287  32.435   9.169
  211POPC   C1A 6855   7.359  32.087   8.784
  211POPC   D2A 6856   7.088  32.177   8.461
  211POPC   C3A 6857   7.320  32.168   8.055
  211POPC   C4A 6858   7.368  32.182   7.612
  211POPC   C1B 6859   7.265  32.594   8.743
  211POPC   C2B 6860   7.227  32.654   8.299
  211POPC   C3B 6861   7.492  32.642   7.903
  211POPC   C4B 6862   7.449  32.679   7.423
  212POPC   NC3 6863  12.355  14.004   9.431
  212POPC   PO4 6864  12.019  14.562   9.724
  212POPC   GL1 6865  11.998  14.423   9.248
  212POPC   GL2 6866  11.881  14.710   9.046
  212POPC   C1A 6867  12.207  14.374   8.829
  212POPC   D2A 6868  12.068  14.143   8.472
  212POPC   C3A 6869  12.210  14.236   8.054
  212POPC   C4A 6870  12.277  13.984   7.674
  212POPC   C1B 6871  11.725  14.778   8.650
  212POPC   C2B 6872  11.895  14.612   8.298
  212POPC   C3B 6873  11.924  14.631   7.876
  212POPC   C4B 6874  11.848  14.845   7.466
  213POPC   NC3 6875   1.453   8.041   9.443
  213POPC   PO4 6876   0.895   8.492   9.630
  213POPC   GL1 6877   0.879   8.349   9.160
  213POPC   GL2 6878   1.065   8.034   9.111
  213POPC   C1A 6879   1.095   8.389   8.718
  213POPC   D2A 6880   1.318   8.444   8.336
  213POPC   C3A 6881   1.115   8.394   7.955
  213POPC   C4A 6882   1.169   8.257   7.528
  213POPC   C1B 6883   1.187   7.889   8.725
  213POPC   C2B 6884   1.032   8.023   8.302
  213POPC   C3B 6885   1.227   7.894   7.888
  213POPC   C4B 6886   0.989   7.666   7.573
  214POPC   NC3 6887  18.619  42.728   9.632
  214POPC   PO4 6888  19.073  43.214   9.637
  214POPC   GL1 6889  18.971  43.147   9.221
  214POPC   GL2 6890  18.896  42.800   9.206
  214POPC   C1A 6891  18.859  43.132   8.788
  214POPC   D2A 6892  18.981  43.182   8.358
  214POPC   C3A 6893  18.985  43.530   8.113
  214POPC   C4A 6894  18.968  43.329   7.744
  214POPC   C1B 6895  19.192  42.747   8.882
  214POPC   C2B 6896  19.251  42.736   8.438
  214POPC   C3B 6897  19.218  42.864   8.013
  214POPC   C4B 6898  19.411  42.596   7.759
  215POPC   NC3 6899  35.272  21.748   9.621
  215POPC   PO4 6900  35.102  22.325   9.423
  215POPC   GL1 6901  35.353  22.093   9.158
  215POPC   GL2 6902  35.691  22.256   9.179
  215POPC   C1A 6903  35.266  22.209   8.726
  215POPC   D2A 6904  35.128  22.008   8.363
  215POPC   C3A 6905  35.309  22.145   7.997
  215POPC   C4A 6906  35.220  22.454   7.722
  215POPC   C1B 6907  35.734  22.007   8.796
  215POPC   C2B 6908  35.671  22.175   8.388
  215POPC   C3B 6909  35.784  21.987   8.005
  215POPC   C4B 6910  35.722  22.268   7.661
  216POPC   NC3 6911  33.500  14.320   9.457
  216POPC   PO4 6912  33.873  14.808   9.530
  216POPC   GL1 6913  33.890  14.541   9.176
  216POPC   GL2 6914  33.955  14.175   9.259
  216POPC   C1A 6915  33.861  14.608   8.745
  216POPC   D2A 6916  34.124  14.648   8.363
  216POPC   C3A 6917  33.938  14.571   7.964
  216POPC   C4A 6918  33.522  14.389   7.957
  216POPC   C1B 6919  34.003  14.125   8.811
  216POPC   C2B 6920  33.809  14.236   8.390
  216POPC   C3B 6921  33.920  14.056   7.992
  216POPC   C4B 6922  34.015  13.995   7.544
  217POPC   NC3 6923  39.136  17.782   9.738
  217POPC   PO4 6924  39.526  18.314   9.437
  217POPC   GL1 6925  39.279  18.491   9.104
  217POPC   GL2 6926  39.229  18.163   9.028
  217POPC   C1A 6927  38.990  18.514   8.726
  217POPC   D2A 6928  39.023  18.339   8.252
  217POPC   C3A 6929  39.043  18.465   7.799
  217POPC   C4A 6930  38.719  18.552   7.437
  217POPC   C1B 6931  39.088  18.020   8.638
  217POPC   C2B 6932  38.883  17.782   8.340
  217POPC   C3B 6933  38.987  17.923   7.938
  217POPC   C4B 6934  39.340  17.834   7.708
  218POPC   NC3 6935  31.456  28.710   9.537
  218POPC   PO4 6936  31.581  28.047   9.534
  218POPC   GL1 6937  31.554  28.366   9.155
  218POPC   GL2 6938  31.399  28.734   9.040
  218POPC   C1A 6939  31.448  28.348   8.720
  218POPC   D2A 6940  31.628  28.272   8.348
  218POPC   C3A 6941  31.316  28.091   8.099
  218POPC   C4A 6942  31.525  27.980   7.748
  218POPC   C1B 6943  31.316  28.860   8.596
  218POPC   C2B 6944  31.243  28.597   8.217
  218POPC   C3B 6945  31.286  28.462   7.760
  218POPC   C4B 6946  31.180  28.576   7.324
  219POPC   NC3 6947  20.157  34.692   9.747
  219POPC   PO4 6948  20.478  34.234   9.405
  219POPC   GL1 6949  20.563  34.322   8.989
  219POPC   GL2 6950  20.822  34.452   8.979
  219POPC   C1A 6951  20.395  34.485   8.591
  219POPC   D2A 6952  20.452  34.665   8.172
  219POPC   C3A 6953  20.236  34.431   7.828
  219POPC   C4A 6954  20.277  34.469   7.358
  219POPC   C1B 6955  20.927  34.342   8.597
  219POPC   C2B 6956  20.954  34.557   8.223
  219POPC   C3B 6957  20.778  34.455   7.830
  219POPC   C4B 6958  20.781  34.605   7.423
  220POPC   NC3 6959  19.873  23.048   9.614
  220POPC   PO4 6960  19.159  23.007   9.483
  220POPC   GL1 6961  19.544  22.882   9.173
  220POPC   GL2 6962  19.916  23.042   9.111
  220POPC   C1A 6963  19.622  22.930   8.711
  220POPC   D2A 6964  19.661  23.305   8.417
  220POPC   C3A 6965  19.738  23.168   7.984
  220POPC   C4A 6966  19.599  22.802   7.740
  220POPC   C1B 6967  20.080  22.707   8.838
  220POPC   C2B 6968  20.278  22.709   8.410
  220POPC   C3B 6969  20.086  22.782   7.981
  220POPC   C4B 6970  20.033  23.009   7.552
  221POPC   NC3 6971   8.823  36.728   9.535
  221POPC   PO4 6972   9.381  37.179   9.514
  221POPC   GL1 6973   9.085  36.984   9.184
  221POPC   GL2 6974   9.136  36.604   9.121
  221POPC   C1A 6975   8.889  36.848   8.775
  221POPC   D2A 6976   8.739  36.724   8.398
  221POPC   C3A 6977   8.901  36.902   8.003
  221POPC   C4A 6978   8.720  37.095   7.623
  221POPC   C1B 6979   9.382  36.502   8.740
  221POPC   C2B 6980   9.388  36.387   8.294
  221POPC   C3B 6981   9.340  36.568   7.861
  221POPC   C4B 6982   9.155  36.821   7.533
  222POPC   NC3 6983  23.083  39.767   9.459
  222POPC   PO4 6984  22.448  40.166   9.490
  222POPC   GL1 6985  22.734  40.038   9.169
  222POPC   GL2 6986  23.055  40.237   9.211
  222POPC   C1A 6987  22.856  39.748   8.817
  222POPC   D2A 6988  22.712  39.577   8.421
  222POPC   C3A 6989  22.839  39.747   8.063
  222POPC   C4A 6990  22.806  39.879   7.655
  222POPC   C1B 6991  22.992  40.242   8.760
  222POPC   C2B 6992  23.190  39.986   8.430
  222POPC   C3B 6993  23.192  40.118   8.004
  222POPC   C4B 6994  22.826  40.380   7.810
  223POPC   NC3 6995   6.584  18.175   9.601
  223POPC   PO4 6996   6.877  18.688   9.468
  223POPC   GL1 6997   6.628  18.396   9.141
  223POPC   GL2 6998   6.401  18.074   9.148
  223POPC   C1A 6999   6.563  18.333   8.704
  223POPC   D2A 7000   6.652  18.545   8.375
  223POPC   C3A 7001   6.477  18.405   8.032
  223POPC   C4A 7002   6.688  18.335   7.672
  223POPC   C1B 7003   6.819  17.975   8.939
  223POPC   C2B 7004   6.746  17.842   8.534
  223POPC   C3B 7005   6.736  17.795   8.142
  223POPC   C4B 7006   6.487  17.910   7.835
  224POPC   NC3 7007  15.346  27.543   9.408
  224POPC   PO4 7008  15.987  27.709   9.678
  224POPC   GL1 7009  15.961  27.736   9.226
  224POPC   GL2 7010  15.840  27.412   9.168
  224POPC   C1A 7011  16.053  27.685   8.767
  224POPC   D2A 7012  16.085  27.500   8.342
  224POPC   C3A 7013  16.037  27.740   7.967
  224POPC   C4A 7014  16.349  27.893   7.674
  224POPC   C1B 7015  15.806  27.204   8.758
  224POPC   C2B 7016  15.623  27.315   8.349
  224POPC   C3B 7017  15.785  27.255   7.906
  224POPC   C4B 7018  15.721  27.253   7.432
  225POPC   NC3 7019  18.164  23.123   9.329
  225POPC   PO4 7020  18.314  23.724   9.477
  225POPC   GL1 7021  18.298  23.640   9.082
  225POPC   GL2 7022  17.997  23.561   8.993
  225POPC   C1A 7023  18.241  23.847   8.638
  225POPC   D2A 7024  18.109  23.998   8.244
  225POPC   C3A 7025  18.196  23.719   7.908
  225POPC   C4A 7026  18.020  23.377   7.745
  225POPC   C1B 7027  18.260  23.360   8.688
  225POPC   C2B 7028  18.361  23.456   8.299
  225POPC   C3B 7029  18.668  23.448   8.012
  225POPC   C4B 7030  18.653  23.286   7.622
  226POPC   NC3 7031  15.637  43.134   9.344
  226POPC   PO4 7032  14.938  43.342   9.551
  226POPC   GL1 7033  15.159  43.215   9.206
  226POPC   GL2 7034  15.383  43.467   9.106
  226POPC   C1A 7035  15.135  43.153   8.772
  226POPC   D2A 7036  15.068  43.322   8.352
  226POPC   C3A 7037  15.024  42.991   8.028
  226POPC   C4A 7038  15.227  42.894   7.579
  226POPC   C1B 7039  15.619  43.382   8.711
  226POPC   C2B 7040  15.641  43.391   8.256
  226POPC   C3B 7041  15.450  43.244   7.883
  226POPC   C4B 7042  15.461  43.341   7.435
  227POPC   NC3 7043  31.309  25.610   9.496
  227POPC   PO4 7044  31.833  25.175   9.469
  227POPC   GL1 7045  31.597  25.378   9.144
  227POPC   GL2 7046  31.239  25.223   9.160
  227POPC   C1A 7047  31.511  25.233   8.738
  227POPC   D2A 7048  31.268  25.318   8.398
  227POPC   C3A 7049  31.399  25.189   8.003
  227POPC   C4A 7050  31.201  24.998   7.671
  227POPC   C1B 7051  31.022  25.490   8.842
  227POPC   C2B 7052  30.861  25.611   8.422
  227POPC   C3B 7053  30.993  25.493   7.976
  227POPC   C4B 7054  31.027  25.451   7.498
  228POPC   NC3 7055   8.419  42.142   9.460
  228POPC   PO4 7056   8.095  41.555   9.473
  228POPC   GL1 7057   8.280  41.757   9.165
  228POPC   GL2 7058   8.012  41.991   9.172
  228POPC   C1A 7059   8.491  41.736   8.782
  228POPC   D2A 7060   8.259  41.646   8.389
  228POPC   C3A 7061   8.456  41.670   8.000
  228POPC   C4A 7062   8.228  41.355   7.796
  228POPC   C1B 7063   7.979  41.866   8.763
  228POPC   C2B 7064   7.808  41.946   8.380
  228POPC   C3B 7065   7.826  41.695   8.029
  228POPC   C4B 7066   8.042  41.836   7.718
  229POPC   NC3 7067  34.782  15.952   9.518
  229POPC   PO4 7068  34.121  16.261   9.535
  229POPC   GL1 7069  34.390  16.103   9.227
  229POPC   GL2 7070  34.371  15.758   9.125
  229POPC   C1A 7071  34.607  16.090   8.832
  229POPC   D2A 7072  34.410  16.040   8.451
  229POPC   C3A 7073  34.476  16.229   8.051
  229POPC   C4A 7074  34.411  16.084   7.655
  229POPC   C1B 7075  34.279  15.550   8.755
  229POPC   C2B 7076  34.177  15.616   8.348
  229POPC   C3B 7077  34.422  15.697   8.016
  229POPC   C4B 7078  34.245  15.606   7.647
  230POPC   NC3 7079  26.991  30.293   9.268
  230POPC   PO4 7080  26.761  29.698   9.479
  230POPC   GL1 7081  26.900  29.812   9.089
  230POPC   GL2 7082  26.614  30.020   9.063
  230POPC   C1A 7083  26.986  29.948   8.665
  230POPC   D2A 7084  27.132  29.747   8.293
  230POPC   C3A 7085  27.124  30.008   7.955
  230POPC   C4A 7086  26.745  30.206   7.771
  230POPC   C1B 7087  26.535  29.695   8.737
  230POPC   C2B 7088  26.605  29.788   8.298
  230POPC   C3B 7089  26.701  29.708   7.858
  230POPC   C4B 7090  26.383  29.617   7.554
  231POPC   NC3 7091   0.604   6.319   9.504
  231POPC   PO4 7092   0.612   6.979   9.446
  231POPC   GL1 7093   0.311   6.722   9.227
  231POPC   GL2 7094   0.350   6.354   9.070
  231POPC   C1A 7095   0.213   6.755   8.806
  231POPC   D2A 7096   0.354   6.482   8.507
  231POPC   C3A 7097   0.425   6.699   8.175
  231POPC   C4A 7098   0.402   6.654   7.763
  231POPC   C1B 7099   0.666   6.174   8.796
  231POPC   C2B 7100   0.673   6.103   8.367
  231POPC   C3B 7101   0.463   6.207   7.997
  231POPC   C4B 7102   0.704   6.179   7.620
  232POPC   NC3 7103  31.333  43.739   9.455
  232POPC   PO4 7104  31.486  44.387   9.531
  232POPC   GL1 7105  31.550  44.155   9.129
  232POPC   GL2 7106  31.765  43.845   9.067
  232POPC   C1A 7107  31.467  44.010   8.699
  232POPC   D2A 7108  31.633  43.906   8.315
  232POPC   C3A 7109  31.345  44.016   8.024
  232POPC   C4A 7110  31.431  43.950   7.623
  232POPC   C1B 7111  31.696  43.547   8.710
  232POPC   C2B 7112  31.579  43.397   8.306
  232POPC   C3B 7113  31.553  43.552   7.905
  232POPC   C4B 7114  31.588  43.491   7.426
  233POPC   NC3 7115  21.645  15.683   9.772
  233POPC   PO4 7116  21.661  16.413   9.603
  233POPC   GL1 7117  21.569  16.187   9.243
  233POPC   GL2 7118  21.708  15.834   9.203
  233POPC   C1A 7119  21.590  16.175   8.797
  233POPC   D2A 7120  21.687  16.325   8.371
  233POPC   C3A 7121  21.353  16.300   8.057
  233POPC   C4A 7122  21.111  16.157   7.697
  233POPC   C1B 7123  21.525  15.655   8.816
  233POPC   C2B 7124  21.440  15.859   8.413
  233POPC   C3B 7125  21.408  15.764   7.986
  233POPC   C4B 7126  21.321  15.646   7.582
  234POPC   NC3 7127  25.261   3.860   9.746
  234POPC   PO4 7128  25.463   3.546   9.183
  234POPC   GL1 7129  25.158   3.510   8.897
  234POPC   GL2 7130  24.984   3.251   9.056
  234POPC   C1A 7131  25.142   3.781   8.550
  234POPC   D2A 7132  25.354   3.609   8.186
  234POPC   C3A 7133  25.131   3.695   7.850
  234POPC   C4A 7134  25.021   3.914   7.509
  234POPC   C1B 7135  25.035   3.110   8.631
  234POPC   C2B 7136  24.923   3.032   8.254
  234POPC   C3B 7137  25.048   3.181   7.921
  234POPC   C4B 7138  25.388   3.278   7.733
  235POPC   NC3 7139  44.523  10.187   9.703
  235POPC   PO4 7140  44.853   9.636   9.634
  235POPC   GL1 7141  44.770   9.617   9.203
  235POPC   GL2 7142  44.979   9.333   9.153
  235POPC   C1A 7143  44.570   9.831   8.802
  235POPC   D2A 7144  44.464  10.016   8.375
  235POPC   C3A 7145  44.588   9.864   7.974
  235POPC   C4A 7146  44.338   9.598   7.705
  235POPC   C1B 7147  44.716   9.346   8.787
  235POPC   C2B 7148  44.680   9.510   8.391
  235POPC   C3B 7149  44.865   9.439   8.009
  235POPC   C4B 7150  44.832   9.474   7.562
  236POPC   NC3 7151  11.703  15.738   9.463
  236POPC   PO4 7152  12.064  16.278   9.601
  236POPC   GL1 7153  12.018  16.081   9.198
  236POPC   GL2 7154  12.002  16.445   9.098
  236POPC   C1A 7155  12.059  15.905   8.751
  236POPC   D2A 7156  11.943  16.067   8.332
  236POPC   C3A 7157  11.890  15.826   7.948
  236POPC   C4A 7158  11.799  15.967   7.525
  236POPC   C1B 7159  12.375  16.288   8.884
  236POPC   C2B 7160  12.486  16.157   8.468
  236POPC   C3B 7161  12.356  16.093   8.038
  236POPC   C4B 7162  12.294  15.874   7.634
  237POPC   NC3 7163  21.622  44.272   9.379
  237POPC   PO4 7164  21.237  43.838   9.688
  237POPC   GL1 7165  21.464  43.754   9.301
  237POPC   GL2 7166  21.243  43.997   9.158
  237POPC   C1A 7167  21.457  43.667   8.850
  237POPC   D2A 7168  21.145  43.559   8.528
  237POPC   C3A 7169  21.290  43.692   8.120
  237POPC   C4A 7170  21.631  43.819   7.850
  237POPC   C1B 7171  21.138  44.109   8.727
  237POPC   C2B 7172  20.929  44.059   8.322
  237POPC   C3B 7173  20.901  43.961   7.912
  237POPC   C4B 7174  21.199  44.052   7.657
  238POPC   NC3 7175  44.695  33.213   9.687
  238POPC   PO4 7176  44.551  32.589   9.475
  238POPC   GL1 7177  44.635  32.897   9.136
  238POPC   GL2 7178  44.812  33.211   9.062
  238POPC   C1A 7179  44.456  32.961   8.728
  238POPC   D2A 7180  44.585  32.971   8.316
  238POPC   C3A 7181  44.567  32.798   7.912
  238POPC   C4A 7182  44.790  33.112   7.703
  238POPC   C1B 7183  44.689  33.414   8.655
  238POPC   C2B 7184  44.288  33.382   8.376
  238POPC   C3B 7185  44.288  33.241   7.937
  238POPC   C4B 7186  44.365  33.355   7.503
  239POPC   NC3 7187  10.407  38.221   9.432
  239POPC   PO4 7188  10.853  38.684   9.559
  239POPC   GL1 7189  10.854  38.368   9.191
  239POPC   GL2 7190  10.539  38.511   9.036
  239POPC   C1A 7191  10.819  38.261   8.708
  239POPC   D2A 7192  10.538  38.527   8.403
  239POPC   C3A 7193  10.617  38.537   7.931
  239POPC   C4A 7194  10.610  38.436   7.477
  239POPC   C1B 7195  10.290  38.249   8.758
  239POPC   C2B 7196  10.064  38.157   8.401
  239POPC   C3B 7197  10.230  38.150   7.977
  239POPC   C4B 7198  10.200  38.127   7.518
  240POPC   NC3 7199  33.595  21.289   9.569
  240POPC   PO4 7200  34.106  20.933   9.711
  240POPC   GL1 7201  34.010  21.219   9.264
  240POPC   GL2 7202  33.615  21.251   9.071
  240POPC   C1A 7203  34.021  21.491   8.863
  240POPC   D2A 7204  33.962  21.652   8.420
  240POPC   C3A 7205  33.956  21.392   8.021
  240POPC   C4A 7206  33.846  21.441   7.589
  240POPC   C1B 7207  33.540  21.417   8.639
  240POPC   C2B 7208  33.488  21.305   8.189
  240POPC   C3B 7209  33.521  20.937   7.907
  240POPC   C4B 7210  33.460  20.902   7.417
  241POPC   NC3 7211  14.964  31.838   9.593
  241POPC   PO4 7212  15.505  31.408   9.567
  241POPC   GL1 7213  15.251  31.286   9.203
  241POPC   GL2 7214  15.502  31.023   9.058
  241POPC   C1A 7215  14.993  31.530   8.870
  241POPC   D2A 7216  14.829  31.588   8.446
  241POPC   C3A 7217  15.035  31.539   8.044
  241POPC   C4A 7218  15.109  31.634   7.607
  241POPC   C1B 7219  15.489  31.357   8.763
  241POPC   C2B 7220  15.285  31.301   8.421
  241POPC   C3B 7221  15.335  31.114   8.025
  241POPC   C4B 7222  15.024  31.132   7.714
  242POPC   NC3 7223  12.903  44.124   9.402
  242POPC   PO4 7224  12.571  43.510   9.441
  242POPC   GL1 7225  12.755  43.732   9.042
  242POPC   GL2 7226  13.007  44.048   8.923
  242POPC   C1A 7227  12.727  43.809   8.591
  242POPC   D2A 7228  12.737  44.029   8.238
  242POPC   C3A 7229  12.879  43.725   7.958
  242POPC   C4A 7230  12.903  43.579   7.555
  242POPC   C1B 7231  12.594  44.272   8.781
  242POPC   C2B 7232  12.331  44.343   8.385
  242POPC   C3B 7233  12.556  44.414   7.960
  242POPC   C4B 7234  12.966  44.206   7.792
  243POPC   NC3 7235  37.882   5.340   9.716
  243POPC   PO4 7236  37.589   4.798   9.618
  243POPC   GL1 7237  37.633   5.123   9.316
  243POPC   GL2 7238  37.983   5.012   9.295
  243POPC   C1A 7239  37.419   5.299   8.942
  243POPC   D2A 7240  37.332   5.055   8.568
  243POPC   C3A 7241  37.465   5.168   8.154
  243POPC   C4A 7242  37.323   5.264   7.728
  243POPC   C1B 7243  37.910   5.212   8.878
  243POPC   C2B 7244  37.918   5.118   8.453
  243POPC   C3B 7245  37.913   4.932   8.066
  243POPC   C4B 7246  37.837   5.182   7.773
  244POPC   NC3 7247  24.491  14.803   9.450
  244POPC   PO4 7248  24.625  15.424   9.616
  244POPC   GL1 7249  24.671  15.225   9.225
  244POPC   GL2 7250  24.313  15.177   9.133
  244POPC   C1A 7251  24.673  15.051   8.802
  244POPC   D2A 7252  24.423  14.894   8.463
  244POPC   C3A 7253  24.659  15.020   8.118
  244POPC   C4A 7254  24.525  15.285   7.797
  244POPC   C1B 7255  24.420  15.582   8.950
  244POPC   C2B 7256  24.346  15.731   8.554
  244POPC   C3B 7257  24.257  15.659   8.115
  244POPC   C4B 7258  24.047  15.417   7.743
  245POPC   NC3 7259  41.181  23.663   9.619
  245POPC   PO4 7260  40.844  24.062   9.262
  245POPC   GL1 7261  40.828  23.644   9.204
  245POPC   GL2 7262  40.507  23.586   9.070
  245POPC   C1A 7263  40.940  23.410   8.849
  245POPC   D2A 7264  40.818  23.463   8.419
  245POPC   C3A 7265  41.114  23.594   8.146
  245POPC   C4A 7266  41.120  23.364   7.813
  245POPC   C1B 7267  40.684  23.853   8.705
  245POPC   C2B 7268  40.828  23.967   8.291
  245POPC   C3B 7269  40.702  23.703   7.888
  245POPC   C4B 7270  40.617  23.932   7.523
  246POPC   NC3 7271  11.392  26.576   9.426
  246POPC   PO4 7272  11.230  25.951   9.440
  246POPC   GL1 7273  11.267  26.130   9.081
  246POPC   GL2 7274  11.005  26.366   9.175
  246POPC   C1A 7275  11.363  26.083   8.628
  246POPC   D2A 7276  11.183  26.131   8.220
  246POPC   C3A 7277  11.203  25.846   7.890
  246POPC   C4A 7278  11.132  25.739   7.450
  246POPC   C1B 7279  11.167  26.530   8.801
  246POPC   C2B 7280  11.010  26.548   8.446
  246POPC   C3B 7281  11.061  26.582   8.031
  246POPC   C4B 7282  10.985  26.297   7.698
  247POPC   NC3 7283  27.986  21.758   9.395
  247POPC   PO4 7284  27.468  21.466   9.494
  247POPC   GL1 7285  27.658  21.205   9.138
  247POPC   GL2 7286  27.936  21.433   9.007
  247POPC   C1A 7287  27.538  20.940   8.747
  247POPC   D2A 7288  27.314  21.115   8.386
  247POPC   C3A 7289  27.404  20.978   8.035
  247POPC   C4A 7290  27.710  21.039   7.781
  247POPC   C1B 7291  27.696  21.387   8.627
  247POPC   C2B 7292  27.710  21.369   8.190
  247POPC   C3B 7293  27.988  21.530   7.948
  247POPC   C4B 7294  28.218  21.542   7.611
  248POPC   NC3 7295  20.549  37.597   9.554
  248POPC   PO4 7296  21.076  38.165   9.533
  248POPC   GL1 7297  20.813  37.943   9.244
  248POPC   GL2 7298  20.932  37.593   9.246
  248POPC   C1A 7299  20.577  37.812   8.858
  248POPC   D2A 7300  20.430  37.907   8.427
  248POPC   C3A 7301  20.598  37.766   8.000
  248POPC   C4A 7302  20.737  37.900   7.567
  248POPC   C1B 7303  20.926  37.411   8.873
  248POPC   C2B 7304  20.824  37.513   8.472
  248POPC   C3B 7305  20.966  37.403   8.077
  248POPC   C4B 7306  20.928  37.148   7.709
  249POPC   NC3 7307   5.566  37.604   9.419
  249POPC   PO4 7308   6.128  37.500   9.735
  249POPC   GL1 7309   6.041  37.557   9.246
  249POPC   GL2 7310   5.762  37.384   9.015
  249POPC   C1A 7311   6.154  37.643   8.812
  249POPC   D2A 7312   6.144  38.001   8.543
  249POPC   C3A 7313   6.256  37.820   8.151
  249POPC   C4A 7314   6.027  37.544   7.857
  249POPC   C1B 7315   5.668  37.793   8.760
  249POPC   C2B 7316   5.707  37.848   8.299
  249POPC   C3B 7317   5.585  37.828   7.855
  249POPC   C4B 7318   5.448  37.489   7.564
  250POPC   NC3 7319  44.879  17.226   9.661
  250POPC   PO4 7320  44.337  17.578   9.535
  250POPC   GL1 7321  44.667  17.503   9.217
  250POPC   GL2 7322  44.848  17.193   9.175
  250POPC   C1A 7323  44.812  17.657   8.799
  250POPC   D2A 7324  44.670  17.811   8.370
  250POPC   C3A 7325  44.853  17.639   7.992
  250POPC   C4A 7326  44.603  17.438   7.683
  250POPC   C1B 7327  44.709  17.154   8.794
  250POPC   C2B 7328  44.755  17.290   8.400
  250POPC   C3B 7329  44.670  17.088   8.048
  250POPC   C4B 7330  44.935  17.058   7.737
  251POPC   NC3 7331  26.445   4.922   9.431
  251POPC   PO4 7332  25.744   5.207   9.348
  251POPC   GL1 7333  25.994   4.986   9.078
  251POPC   GL2 7334  26.304   5.146   8.980
  251POPC   C1A 7335  25.971   5.005   8.617
  251POPC   D2A 7336  26.078   5.248   8.265
  251POPC   C3A 7337  25.847   5.253   7.936
  251POPC   C4A 7338  25.481   5.110   7.806
  251POPC   C1B 7339  26.348   4.718   8.792
  251POPC   C2B 7340  26.233   4.615   8.357
  251POPC   C3B 7341  26.268   4.867   7.966
  251POPC   C4B 7342  26.250   5.189   7.641
  252POPC   NC3 7343  16.854  13.324   9.422
  252POPC   PO4 7344  16.361  13.803   9.410
  252POPC   GL1 7345  16.606  13.662   9.107
  252POPC   GL2 7346  16.482  13.339   9.068
  252POPC   C1A 7347  16.812  13.748   8.744
  252POPC   D2A 7348  16.897  13.656   8.314
  252POPC   C3A 7349  16.858  13.965   8.000
  252POPC   C4A 7350  16.652  13.901   7.607
  252POPC   C1B 7351  16.430  13.437   8.623
  252POPC   C2B 7352  16.594  13.205   8.292
  252POPC   C3B 7353  16.791  13.303   7.920
  252POPC   C4B 7354  16.551  13.273   7.594
  253POPC   NC3 7355  16.289  43.456   9.497
  253POPC   PO4 7356  15.985  42.839   9.262
  253POPC   GL1 7357  16.110  43.192   9.089
  253POPC   GL2 7358  16.448  43.323   9.046
  253POPC   C1A 7359  16.085  43.148   8.680
  253POPC   D2A 7360  16.147  42.885   8.351
  253POPC   C3A 7361  15.834  42.926   8.070
  253POPC   C4A 7362  15.892  43.072   7.685
  253POPC   C1B 7363  16.372  43.621   8.785
  253POPC   C2B 7364  16.108  43.560   8.422
  253POPC   C3B 7365  16.135  43.330   8.059
  253POPC   C4B 7366  16.296  43.396   7.644
  254POPC   NC3 7367  34.918   9.899   9.491
  254POPC   PO4 7368  34.369   9.510   9.605
  254POPC   GL1 7369  34.491   9.742   9.207
  254POPC   GL2 7370  34.830   9.618   9.084
  254POPC   C1A 7371  34.516   9.910   8.764
  254POPC   D2A 7372  34.839   9.931   8.387
  254POPC   C3A 7373  34.660   9.935   7.935
  254POPC   C4A 7374  34.258   9.729   7.797
  254POPC   C1B 7375  34.792   9.511   8.666
  254POPC   C2B 7376  34.478   9.581   8.339
  254POPC   C3B 7377  34.805   9.485   8.094
  254POPC   C4B 7378  35.080   9.507   7.780
  255POPC   NC3 7379   6.775  29.573   9.300
  255POPC   PO4 7380   6.943  30.091   9.654
  255POPC   GL1 7381   6.585  30.078   9.300
  255POPC   GL2 7382   6.636  30.289   9.002
  255POPC   C1A 7383   6.339  29.892   8.915
  255POPC   D2A 7384   6.223  29.887   8.459
  255POPC   C3A 7385   6.476  29.882   8.048
  255POPC   C4A 7386   6.872  29.727   7.843
  255POPC   C1B 7387   6.631  30.200   8.595
  255POPC   C2B 7388   6.911  30.056   8.285
  255POPC   C3B 7389   6.899  30.236   7.910
  255POPC   C4B 7390   6.645  30.104   7.580
  256POPC   NC3 7391  32.598  21.218   9.568
  256POPC   PO4 7392  31.964  21.479   9.468
  256POPC   GL1 7393  32.204  21.450   9.127
  256POPC   GL2 7394  32.275  21.101   9.187
  256POPC   C1A 7395  32.254  21.635   8.718
  256POPC   D2A 7396  32.148  21.836   8.338
  256POPC   C3A 7397  32.178  21.567   7.989
  256POPC   C4A 7398  32.233  21.184   7.754
  256POPC   C1B 7399  32.393  21.099   8.772
  256POPC   C2B 7400  32.329  21.237   8.366
  256POPC   C3B 7401  32.626  21.336   8.100
  256POPC   C4B 7402  32.739  21.270   7.679
  257POPC   NC3 7403  13.031  14.588   9.640
  257POPC   PO4 7404  13.742  14.425   9.576
  257POPC   GL1 7405  13.480  14.446   9.194
  257POPC   GL2 7406  13.739  14.357   9.052
  257POPC   C1A 7407  13.462  14.584   8.704
  257POPC   D2A 7408  13.656  14.652   8.324
  257POPC   C3A 7409  13.412  14.578   7.978
  257POPC   C4A 7410  13.466  14.405   7.614
  257POPC   C1B 7411  13.893  14.330   8.670
  257POPC   C2B 7412  13.938  14.152   8.307
  257POPC   C3B 7413  13.834  14.315   7.967
  257POPC   C4B 7414  13.950  14.381   7.589
  258POPC   NC3 7415  36.713  27.234   9.438
  258POPC   PO4 7416  36.971  27.890   9.487
  258POPC   GL1 7417  37.042  27.687   9.088
  258POPC   GL2 7418  37.146  27.341   9.095
  258POPC   C1A 7419  36.892  27.520   8.685
  258POPC   D2A 7420  36.901  27.245   8.324
  258POPC   C3A 7421  36.663  27.354   7.946
  258POPC   C4A 7422  36.730  27.752   7.741
  258POPC   C1B 7423  37.396  27.303   8.728
  258POPC   C2B 7424  37.414  27.413   8.284
  258POPC   C3B 7425  37.167  27.552   7.937
  258POPC   C4B 7426  37.036  27.323   7.559
  259POPC   NC3 7427   1.944   0.603   9.645
  259POPC   PO4 7428   2.329   0.324   9.231
  259POPC   GL1 7429   2.159   0.639   9.008
  259POPC   GL2 7430   1.816   0.664   9.156
  259POPC   C1A 7431   2.282   0.675   8.585
  259POPC   D2A 7432   2.220   0.358   8.247
  259POPC   C3A 7433   2.143   0.482   7.821
  259POPC   C4A 7434   1.960   0.843   7.621
  259POPC   C1B 7435   1.779   0.342   8.841
  259POPC   C2B 7436   1.582   0.275   8.453
  259POPC   C3B 7437   1.714   0.403   8.071
  259POPC   C4B 7438   1.597   0.256   7.655
  260POPC   NC3 7439  40.597  29.587   9.490
  260POPC   PO4 7440  41.084  30.067   9.527
  260POPC   GL1 7441  40.905  29.895   9.168
  260POPC   GL2 7442  40.579  30.041   9.226
  260POPC   C1A 7443  41.006  29.989   8.747
  260POPC   D2A 7444  40.969  30.271   8.411
  260POPC   C3A 7445  40.972  30.011   8.049
  260POPC   C4A 7446  41.260  29.709   7.915
  260POPC   C1B 7447  40.480  29.880   8.827
  260POPC   C2B 7448  40.618  29.867   8.422
  260POPC   C3B 7449  40.392  29.855   8.074
  260POPC   C4B 7450  40.595  29.990   7.712
  261POPC   NC3 7451  29.935  12.234   9.314
  261POPC   PO4 7452  30.180  11.671   9.605
  261POPC   GL1 7453  30.312  11.912   9.205
  261POPC   GL2 7454  30.006  11.930   8.935
  261POPC   C1A 7455  30.415  12.171   8.814
  261POPC   D2A 7456  30.282  11.956   8.444
  261POPC   C3A 7457  30.066  12.177   8.092
  261POPC   C4A 7458  29.968  12.174   7.695
  261POPC   C1B 7459  29.701  12.151   8.683
  261POPC   C2B 7460  29.605  12.331   8.299
  261POPC   C3B 7461  29.521  12.150   7.918
  261POPC   C4B 7462  29.638  11.746   7.772
  262POPC   NC3 7463  41.711  39.918   9.543
  262POPC   PO4 7464  41.343  39.535   9.353
  262POPC   GL1 7465  41.427  39.802   9.010
  262POPC   GL2 7466  41.567  40.103   9.078
  262POPC   C1A 7467  41.354  39.948   8.609
  262POPC   D2A 7468  41.532  40.264   8.388
  262POPC   C3A 7469  41.457  40.234   7.980
  262POPC   C4A 7470  41.826  40.153   7.736
  262POPC   C1B 7471  41.858  40.028   8.713
  262POPC   C2B 7472  41.843  39.898   8.255
  262POPC   C3B 7473  41.598  39.731   7.906
  262POPC   C4B 7474  41.602  39.751   7.438
  263POPC   NC3 7475   4.498   1.119   9.519
  263POPC   PO4 7476   3.904   1.220   9.367
  263POPC   GL1 7477   4.230   1.201   9.050
  263POPC   GL2 7478   4.456   0.943   9.055
  263POPC   C1A 7479   4.374   1.291   8.601
  263POPC   D2A 7480   4.355   1.230   8.146
  263POPC   C3A 7481   4.202   1.496   7.786
  263POPC   C4A 7482   4.066   1.666   7.373
  263POPC   C1B 7483   4.260   0.807   8.725
  263POPC   C2B 7484   4.023   0.918   8.417
  263POPC   C3B 7485   4.178   0.748   8.068
  263POPC   C4B 7486   4.283   0.986   7.718
  264POPC   NC3 7487  43.791  40.974   9.823
  264POPC   PO4 7488  44.105  40.453   9.539
  264POPC   GL1 7489  43.860  40.745   9.241
  264POPC   GL2 7490  43.647  40.543   9.059
  264POPC   C1A 7491  43.814  40.974   8.801
  264POPC   D2A 7492  43.984  40.931   8.352
  264POPC   C3A 7493  43.697  40.997   8.001
  264POPC   C4A 7494  43.873  40.812   7.647
  264POPC   C1B 7495  43.983  40.490   8.805
  264POPC   C2B 7496  43.980  40.396   8.414
  264POPC   C3B 7497  43.836  40.517   8.054
  264POPC   C4B 7498  43.543  40.437   7.724
  265POPC   NC3 7499  25.939  32.314   9.817
  265POPC   PO4 7500  26.303  32.191   9.243
  265POPC   GL1 7501  25.954  32.315   8.980
  265POPC   GL2 7502  25.903  32.659   8.920
  265POPC   C1A 7503  25.920  32.282   8.546
  265POPC   D2A 7504  25.738  32.380   8.196
  265POPC   C3A 7505  25.827  32.043   8.009
  265POPC   C4A 7506  25.961  32.042   7.625
  265POPC   C1B 7507  26.292  32.592   8.670
  265POPC   C2B 7508  26.498  32.583   8.257
  265POPC   C3B 7509  26.263  32.397   7.901
  265POPC   C4B 7510  26.137  32.513   7.474
  266POPC   NC3 7511   1.496  34.776   9.454
  266POPC   PO4 7512   2.194  34.663   9.325
  266POPC   GL1 7513   1.862  34.760   9.100
  266POPC   GL2 7514   1.723  34.416   9.084
  266POPC   C1A 7515   1.945  34.702   8.686
  266POPC   D2A 7516   1.768  34.673   8.339
  266POPC   C3A 7517   2.042  34.775   8.038
  266POPC   C4A 7518   1.927  34.688   7.647
  266POPC   C1B 7519   1.796  34.229   8.658
  266POPC   C2B 7520   2.076  34.293   8.265
  266POPC   C3B 7521   1.907  34.192   7.854
  266POPC   C4B 7522   1.636  34.269   7.485
  267POPC   NC3 7523  44.584   6.103   9.535
  267POPC   PO4 7524  43.901   5.722   9.567
  267POPC   GL1 7525  43.925   5.909   9.184
  267POPC   GL2 7526  44.283   5.922   9.172
  267POPC   C1A 7527  43.778   5.856   8.753
  267POPC   D2A 7528  43.903   6.059   8.352
  267POPC   C3A 7529  43.839   5.777   8.059
  267POPC   C4A 7530  43.558   5.658   7.746
  267POPC   C1B 7531  44.214   6.085   8.781
  267POPC   C2B 7532  44.366   6.290   8.452
  267POPC   C3B 7533  44.254   6.368   8.018
  267POPC   C4B 7534  43.985   6.128   7.724
  268POPC   NC3 7535  33.484   3.768   9.485
  268POPC   PO4 7536  33.805   3.266   9.735
  268POPC   GL1 7537  33.939   3.240   9.264
  268POPC   GL2 7538  33.909   3.582   9.214
  268POPC   C1A 7539  34.056   3.380   8.783
  268POPC   D2A 7540  33.746   3.389   8.429
  268POPC   C3A 7541  33.774   3.266   7.994
  268POPC   C4A 7542  33.842   3.406   7.566
  268POPC   C1B 7543  33.607   3.630   8.855
  268POPC   C2B 7544  33.588   3.875   8.456
  268POPC   C3B 7545  33.659   3.789   7.997
  268POPC   C4B 7546  33.594   3.870   7.557
  269POPC   NC3 7547   6.805  38.787   9.506
  269POPC   PO4 7548   6.428  38.347   9.501
  269POPC   GL1 7549   6.701  38.427   9.144
  269POPC   GL2 7550   6.513  38.700   9.095
  269POPC   C1A 7551   6.743  38.494   8.681
  269POPC   D2A 7552   6.488  38.320   8.327
  269POPC   C3A 7553   6.626  38.302   7.896
  269POPC   C4A 7554   6.670  38.595   7.553
  269POPC   C1B 7555   6.257  38.604   8.724
  269POPC   C2B 7556   6.257  38.795   8.293
  269POPC   C3B 7557   6.207  38.597   7.841
  269POPC   C4B 7558   6.219  38.444   7.379
  270POPC   NC3 7559  17.773   2.181   9.477
  270POPC   PO4 7560  17.162   1.806   9.512
  270POPC   GL1 7561  17.411   1.969   9.158
  270POPC   GL2 7562  17.648   1.707   9.205
  270POPC   C1A 7563  17.602   2.195   8.752
  270POPC   D2A 7564  17.763   2.381   8.310
  270POPC   C3A 7565  17.518   2.236   7.931
  270POPC   C4A 7566  17.142   2.238   7.635
  270POPC   C1B 7567  17.857   1.745   8.788
  270POPC   C2B 7568  17.763   1.880   8.352
  270POPC   C3B 7569  17.870   1.787   7.911
  270POPC   C4B 7570  18.044   1.434   7.705
  271POPC   NC3 7571  32.019  24.767   9.303
  271POPC   PO4 7572  32.351  24.184   9.466
  271POPC   GL1 7573  32.204  24.319   9.079
  271POPC   GL2 7574  32.567  24.329   8.993
  271POPC   C1A 7575  31.928  24.449   8.737
  271POPC   D2A 7576  32.076  24.785   8.475
  271POPC   C3A 7577  32.033  24.555   8.115
  271POPC   C4A 7578  31.963  24.475   7.702
  271POPC   C1B 7579  32.436  24.358   8.569
  271POPC   C2B 7580  32.547  24.656   8.237
  271POPC   C3B 7581  32.429  24.692   7.798
  271POPC   C4B 7582  32.466  24.272   7.586
  272POPC   NC3 7583  39.568  26.161   9.473
  272POPC   PO4 7584  38.946  25.917   9.464
  272POPC   GL1 7585  38.956  25.891   9.017
  272POPC   GL2 7586  39.268  26.086   9.054
  272POPC   C1A 7587  39.092  26.058   8.580
  272POPC   D2A 7588  39.291  26.429   8.357
  272POPC   C3A 7589  39.338  26.324   7.931
  272POPC   C4A 7590  39.126  25.966   7.750
  272POPC   C1B 7591  39.567  25.906   8.757
  272POPC   C2B 7592  39.579  25.981   8.297
  272POPC   C3B 7593  39.590  25.809   7.874
  272POPC   C4B 7594  39.530  25.798   7.407
  273POPC   NC3 7595  37.640   1.522   9.569
  273POPC   PO4 7596  37.688   0.851   9.419
  273POPC   GL1 7597  37.779   1.233   9.143
  273POPC   GL2 7598  37.470   1.467   9.080
  273POPC   C1A 7599  38.015   1.223   8.744
  273POPC   D2A 7600  37.842   0.993   8.404
  273POPC   C3A 7601  37.876   1.243   8.058
  273POPC   C4A 7602  37.945   1.058   7.685
  273POPC   C1B 7603  37.523   1.335   8.658
  273POPC   C2B 7604  37.374   1.270   8.265
  273POPC   C3B 7605  37.420   1.122   7.876
  273POPC   C4B 7606  37.562   1.356   7.570
  274POPC   NC3 7607   8.480   0.989   9.468
  274POPC   PO4 7608   7.889   0.837   9.746
  274POPC   GL1 7609   7.929   1.132   9.317
  274POPC   GL2 7610   8.216   1.378   9.277
  274POPC   C1A 7611   8.071   1.139   8.834
  274POPC   D2A 7612   7.997   1.072   8.369
  274POPC   C3A 7613   8.243   0.929   7.978
  274POPC   C4A 7614   8.101   1.026   7.534
  274POPC   C1B 7615   8.497   1.394   8.899
  274POPC   C2B 7616   8.467   1.289   8.435
  274POPC   C3B 7617   8.225   1.429   8.038
  274POPC   C4B 7618   8.290   1.495   7.579
  275POPC   NC3 7619  15.931   0.869   9.497
  275POPC   PO4 7620  16.214   1.499   9.421
  275POPC   GL1 7621  16.218   1.162   9.129
  275POPC   GL2 7622  15.897   1.115   9.048
  275POPC   C1A 7623  16.247   1.222   8.677
  275POPC   D2A 7624  16.056   1.038   8.327
  275POPC   C3A 7625  15.859   1.230   8.009
  275POPC   C4A 7626  16.171   1.121   7.728
  275POPC   C1B 7627  15.675   1.021   8.651
  275POPC   C2B 7628  15.599   0.821   8.222
  275POPC   C3B 7629  15.817   0.744   7.812
  275POPC   C4B 7630  15.764   0.961   7.395
  276POPC   NC3 7631   4.892  21.522   9.604
  276POPC   PO4 7632   5.265  20.913   9.432
  276POPC   GL1 7633   5.216  21.281   9.189
  276POPC   GL2 7634   4.904  21.440   9.096
  276POPC   C1A 7635   5.202  21.227   8.762
  276POPC   D2A 7636   4.935  21.391   8.485
  276POPC   C3A 7637   5.187  21.330   8.163
  276POPC   C4A 7638   5.134  20.994   7.892
  276POPC   C1B 7639   4.785  21.765   8.799
  276POPC   C2B 7640   4.515  21.711   8.409
  276POPC   C3B 7641   4.625  21.682   7.985
  276POPC   C4B 7642   4.975  21.507   7.744
  277POPC   NC3 7643  22.211  18.858   9.385
  277POPC   PO4 7644  22.356  18.303   9.717
  277POPC   GL1 7645  22.265  18.196   9.259
  277POPC   GL2 7646  22.062  18.464   9.106
  277POPC   C1A 7647  22.147  18.021   8.865
  277POPC   D2A 7648  22.020  18.124   8.453
  277POPC   C3A 7649  21.966  17.844   8.130
  277POPC   C4A 7650  21.916  17.925   7.674
  277POPC   C1B 7651  22.315  18.504   8.769
  277POPC   C2B 7652  22.408  18.452   8.367
  277POPC   C3B 7653  22.335  18.572   7.969
  277POPC   C4B 7654  22.174  18.362   7.634
  278POPC   NC3 7655  32.205  40.148   9.438
  278POPC   PO4 7656  32.650  39.553   9.571
  278POPC   GL1 7657  32.490  39.782   9.177
  278POPC   GL2 7658  32.165  39.691   9.021
  278POPC   C1A 7659  32.379  40.115   8.822
  278POPC   D2A 7660  32.050  39.996   8.536
  278POPC   C3A 7661  32.149  40.068   8.116
  278POPC   C4A 7662  32.089  40.326   7.774
  278POPC   C1B 7663  32.387  39.621   8.676
  278POPC   C2B 7664  32.373  39.419   8.306
  278POPC   C3B 7665  32.192  39.587   7.973
  278POPC   C4B 7666  32.369  39.642   7.560
  279POPC   NC3 7667  16.153  27.284   9.565
  279POPC   PO4 7668  16.712  27.081   9.408
  279POPC   GL1 7669  16.405  27.360   9.117
  279POPC   GL2 7670  16.466  27.735   9.038
  279POPC   C1A 7671  16.454  27.355   8.661
  279POPC   D2A 7672  16.747  27.246   8.310
  279POPC   C3A 7673  16.591  27.155   7.892
  279POPC   C4A 7674  16.773  27.172   7.493
  279POPC   C1B 7675  16.472  27.857   8.547
  279POPC   C2B 7676  16.531  27.668   8.114
  279POPC   C3B 7677  16.788  27.627   7.732
  279POPC   C4B 7678  16.867  27.981   7.420
  280POPC   NC3 7679  38.015   4.497   9.503
  280POPC   PO4 7680  37.595   4.047   9.362
  280POPC   GL1 7681  37.770   4.294   9.043
  280POPC   GL2 7682  37.674   4.617   9.140
  280POPC   C1A 7683  37.730   4.225   8.567
  280POPC   D2A 7684  37.461   4.139   8.175
  280POPC   C3A 7685  37.676   4.203   7.773
  280POPC   C4A 7686  37.893   4.117   7.391
  280POPC   C1B 7687  37.696   4.733   8.727
  280POPC   C2B 7688  37.538   4.659   8.289
  280POPC   C3B 7689  37.521   4.705   7.813
  280POPC   C4B 7690  37.569   4.517   7.360
  281POPC   NC3 7691  42.151   3.313   9.424
  281POPC   PO4 7692  42.814   3.434   9.303
  281POPC   GL1 7693  42.451   3.441   9.038
  281POPC   GL2 7694  42.257   3.741   9.032
  281POPC   C1A 7695  42.136   3.341   8.723
  281POPC   D2A 7696  42.215   3.095   8.360
  281POPC   C3A 7697  42.419   3.299   8.014
  281POPC   C4A 7698  42.775   3.229   7.745
  281POPC   C1B 7699  42.560   3.800   8.678
  281POPC   C2B 7700  42.675   3.697   8.240
  281POPC   C3B 7701  42.582   3.775   7.817
  281POPC   C4B 7702  42.170   3.923   7.763
  282POPC   NC3 7703  24.603  25.336   9.541
  282POPC   PO4 7704  24.042  25.299   9.343
  282POPC   GL1 7705  24.436  25.328   9.058
  282POPC   GL2 7706  24.704  25.036   9.115
  282POPC   C1A 7707  24.610  25.262   8.623
  282POPC   D2A 7708  24.559  25.473   8.215
  282POPC   C3A 7709  24.459  25.327   7.774
  282POPC   C4A 7710  24.334  25.483   7.326
  282POPC   C1B 7711  24.332  24.868   8.868
  282POPC   C2B 7712  24.158  24.877   8.450
  282POPC   C3B 7713  24.467  24.977   8.156
  282POPC   C4B 7714  24.655  24.855   7.768
  283POPC   NC3 7715  10.940  33.119   9.339
  283POPC   PO4 7716  11.596  33.273   9.506
  283POPC   GL1 7717  11.467  33.123   9.137
  283POPC   GL2 7718  11.433  33.392   8.932
  283POPC   C1A 7719  11.664  33.003   8.746
  283POPC   D2A 7720  11.542  33.215   8.380
  283POPC   C3A 7721  11.697  33.060   8.005
  283POPC   C4A 7722  11.602  32.725   7.762
  283POPC   C1B 7723  11.126  33.103   8.704
  283POPC   C2B 7724  11.014  32.857   8.321
  283POPC   C3B 7725  11.080  32.931   7.875
  283POPC   C4B 7726  11.304  33.321   7.780
  284POPC   NC3 7727  37.887  26.860   9.606
  284POPC   PO4 7728  37.211  27.027   9.477
  284POPC   GL1 7729  37.588  26.982   9.189
  284POPC   GL2 7730  37.785  26.653   9.160
  284POPC   C1A 7731  37.780  26.954   8.770
  284POPC   D2A 7732  37.820  27.119   8.391
  284POPC   C3A 7733  37.678  26.903   8.056
  284POPC   C4A 7734  37.631  26.775   7.658
  284POPC   C1B 7735  37.981  26.471   8.818
  284POPC   C2B 7736  38.081  26.668   8.412
  284POPC   C3B 7737  38.011  26.503   8.002
  284POPC   C4B 7738  38.101  26.619   7.573
  285POPC   NC3 7739  42.473  20.875   9.438
  285POPC   PO4 7740  41.923  20.501   9.427
  285POPC   GL1 7741  42.138  20.552   9.084
  285POPC   GL2 7742  42.449  20.406   9.160
  285POPC   C1A 7743  42.020  20.661   8.688
  285POPC   D2A 7744  41.975  20.748   8.260
  285POPC   C3A 7745  42.277  20.723   7.922
  285POPC   C4A 7746  42.296  20.916   7.516
  285POPC   C1B 7747  42.579  20.611   8.806
  285POPC   C2B 7748  42.657  20.548   8.394
  285POPC   C3B 7749  42.742  20.841   8.104
  285POPC   C4B 7750  42.746  20.751   7.682
  286POPC   NC3 7751  20.845  20.820   9.673
  286POPC   PO4 7752  20.381  20.300   9.561
  286POPC   GL1 7753  20.436  20.692   9.262
  286POPC   GL2 7754  20.766  20.853   9.173
  286POPC   C1A 7755  20.464  20.741   8.782
  286POPC   D2A 7756  20.566  20.493   8.452
  286POPC   C3A 7757  20.636  20.582   8.008
  286POPC   C4A 7758  20.439  20.904   7.732
  286POPC   C1B 7759  20.954  20.801   8.755
  286POPC   C2B 7760  20.784  20.939   8.365
  286POPC   C3B 7761  20.907  21.009   7.932
  286POPC   C4B 7762  20.895  21.012   7.487
  287POPC   NC3 7763   5.855  35.700   9.326
  287POPC   PO4 7764   5.659  35.014   9.454
  287POPC   GL1 7765   5.678  35.299   9.081
  287POPC   GL2 7766   5.408  35.553   9.079
  287POPC   C1A 7767   5.926  35.296   8.696
  287POPC   D2A 7768   5.893  34.966   8.395
  287POPC   C3A 7769   5.627  35.044   8.074
  287POPC   C4A 7770   5.843  35.247   7.746
  287POPC   C1B 7771   5.544  35.646   8.674
  287POPC   C2B 7772   5.776  35.581   8.270
  287POPC   C3B 7773   5.870  35.762   7.854
  287POPC   C4B 7774   5.739  35.633   7.431
  288POPC   NC3 7775   3.255  10.814   9.416
  288POPC   PO4 7776   3.665  10.309   9.573
  288POPC   GL1 7777   3.466  10.332   9.168
  288POPC   GL2 7778   3.707  10.483   8.955
  288POPC   C1A 7779   3.293  10.217   8.751
  288POPC   D2A 7780   3.233  10.054   8.315
  288POPC   C3A 7781   3.367  10.275   7.907
  288POPC   C4A 7782   3.370  10.423   7.466
  288POPC   C1B 7783   4.029  10.364   8.623
  288POPC   C2B 7784   3.995  10.472   8.171
  288POPC   C3B 7785   3.781  10.636   7.771
  288POPC   C4B 7786   3.612  10.866   7.372
  289POPC   NC3 7787  10.323  12.162   9.791
  289POPC   PO4 7788  10.795  11.890   9.449
  289POPC   GL1 7789  10.463  12.156   9.261
  289POPC   GL2 7790  10.254  11.957   9.086
  289POPC   C1A 7791  10.482  12.360   8.841
  289POPC   D2A 7792  10.731  12.309   8.454
  289POPC   C3A 7793  10.560  12.069   8.106
  289POPC   C4A 7794  10.572  12.291   7.715
  289POPC   C1B 7795  10.323  11.784   8.644
  289POPC   C2B 7796  10.119  11.797   8.212
  289POPC   C3B 7797  10.036  11.820   7.740
  289POPC   C4B 7798  10.347  11.903   7.456
  290POPC   NC3 7799  37.131  26.631   9.756
  290POPC   PO4 7800  37.001  26.073   9.459
  290POPC   GL1 7801  36.929  25.911   9.090
  290POPC   GL2 7802  37.125  26.186   8.971
  290POPC   C1A 7803  36.882  25.897   8.636
  290POPC   D2A 7804  36.740  26.183   8.367
  290POPC   C3A 7805  36.546  26.004   8.060
  290POPC   C4A 7806  36.593  25.813   7.694
  290POPC   C1B 7807  37.166  26.382   8.582
  290POPC   C2B 7808  37.261  26.057   8.311
  290POPC   C3B 7809  37.053  25.989   7.944
  290POPC   C4B 7810  37.207  26.196   7.600
  291POPC   NC3 7811  30.472  41.663   9.701
  291POPC   PO4 7812  30.974  42.010   9.516
  291POPC   GL1 7813  30.772  41.681   9.273
  291POPC   GL2 7814  30.457  41.760   9.143
  291POPC   C1A 7815  30.780  41.486   8.855
  291POPC   D2A 7816  30.892  41.646   8.448
  291POPC   C3A 7817  30.902  41.291   8.152
  291POPC   C4A 7818  30.950  41.332   7.692
  291POPC   C1B 7819  30.289  41.579   8.736
  291POPC   C2B 7820  30.451  41.415   8.362
  291POPC   C3B 7821  30.561  41.614   7.917
  291POPC   C4B 7822  30.597  41.825   7.470
  292POPC   NC3 7823  41.774   2.064   9.650
  292POPC   PO4 7824  41.225   2.358   9.446
  292POPC   GL1 7825  41.500   2.128   9.117
  292POPC   GL2 7826  41.855   2.112   9.144
  292POPC   C1A 7827  41.457   2.033   8.671
  292POPC   D2A 7828  41.237   1.882   8.351
  292POPC   C3A 7829  41.520   1.895   8.059
  292POPC   C4A 7830  41.567   2.081   7.705
  292POPC   C1B 7831  41.810   1.755   8.866
  292POPC   C2B 7832  41.713   1.577   8.457
  292POPC   C3B 7833  41.763   1.443   8.055
  292POPC   C4B 7834  41.839   1.653   7.665
  293POPC   NC3 7835  32.600   6.169   9.734
  293POPC   PO4 7836  33.183   5.767   9.520
  293POPC   GL1 7837  33.068   5.642   9.107
  293POPC   GL2 7838  32.778   5.795   8.993
  293POPC   C1A 7839  33.196   5.648   8.694
  293POPC   D2A 7840  33.184   5.599   8.263
  293POPC   C3A 7841  33.247   5.825   7.906
  293POPC   C4A 7842  33.313   6.245   7.812
  293POPC   C1B 7843  32.669   5.509   8.794
  293POPC   C2B 7844  32.736   5.722   8.456
  293POPC   C3B 7845  32.700   5.582   8.076
  293POPC   C4B 7846  32.616   5.737   7.703
  294POPC   NC3 7847  12.145  37.441   9.485
  294POPC   PO4 7848  12.487  38.037   9.480
  294POPC   GL1 7849  12.202  37.871   9.165
  294POPC   GL2 7850  11.821  37.912   9.168
  294POPC   C1A 7851  12.195  37.968   8.744
  294POPC   D2A 7852  12.385  38.068   8.341
  294POPC   C3A 7853  12.223  37.845   7.987
  294POPC   C4A 7854  12.108  37.441   7.777
  294POPC   C1B 7855  11.850  37.583   8.801
  294POPC   C2B 7856  11.939  37.546   8.350
  294POPC   C3B 7857  11.731  37.720   8.008
  294POPC   C4B 7858  11.573  37.549   7.698
  295POPC   NC3 7859  14.216  34.895   9.466
  295POPC   PO4 7860  14.547  34.332   9.590
  295POPC   GL1 7861  14.541  34.575   9.201
  295POPC   GL2 7862  14.842  34.632   9.051
  295POPC   C1A 7863  14.404  34.730   8.767
  295POPC   D2A 7864  14.149  34.677   8.380
  295POPC   C3A 7865  14.395  34.737   8.017
  295POPC   C4A 7866  14.306  34.611   7.591
  295POPC   C1B 7867  14.713  34.321   8.732
  295POPC   C2B 7868  14.544  34.364   8.354
  295POPC   C3B 7869  14.670  34.311   7.973
  295POPC   C4B 7870  14.659  34.188   7.568
  296POPC   NC3 7871  17.250   6.237   9.346
  296POPC   PO4 7872  17.834   6.107   9.537
  296POPC   GL1 7873  17.877   6.337   9.120
  296POPC   GL2 7874  17.775   6.672   9.176
  296POPC   C1A 7875  17.591   6.454   8.725
  296POPC   D2A 7876  17.434   6.705   8.321
  296POPC   C3A 7877  17.482   6.507   7.898
  296POPC   C4A 7878  17.395   6.650   7.471
  296POPC   C1B 7879  18.003   6.741   8.766
  296POPC   C2B 7880  17.927   6.602   8.342
  296POPC   C3B 7881  17.913   6.790   7.936
  296POPC   C4B 7882  17.890   6.552   7.552
  297POPC   NC3 7883  20.990   4.606   9.314
  297POPC   PO4 7884  21.639   4.337   9.547
  297POPC   GL1 7885  21.427   4.343   9.140
  297POPC   GL2 7886  21.111   4.141   9.111
  297POPC   C1A 7887  21.598   4.349   8.711
  297POPC   D2A 7888  21.641   4.625   8.336
  297POPC   C3A 7889  21.653   4.339   7.984
  297POPC   C4A 7890  21.434   4.121   7.664
  297POPC   C1B 7891  21.065   4.362   8.712
  297POPC   C2B 7892  21.216   4.296   8.307
  297POPC   C3B 7893  21.143   4.467   7.934
  297POPC   C4B 7894  20.920   4.436   7.565
  298POPC   NC3 7895  28.214  18.354   9.425
  298POPC   PO4 7896  28.937  18.174   9.466
  298POPC   GL1 7897  28.615  18.242   9.119
  298POPC   GL2 7898  28.589  18.575   8.939
  298POPC   C1A 7899  28.305  18.156   8.795
  298POPC   D2A 7900  28.017  18.288   8.501
  298POPC   C3A 7901  28.074  18.367   8.086
  298POPC   C4A 7902  28.020  18.096   7.746
  298POPC   C1B 7903  28.736  18.359   8.616
  298POPC   C2B 7904  28.506  18.161   8.301
  298POPC   C3B 7905  28.514  18.127   7.860
  298POPC   C4B 7906  28.357  18.435   7.545
  299POPC   NC3 7907  34.095  40.364   9.298
  299POPC   PO4 7908  34.310  39.838   9.693
  299POPC   GL1 7909  33.882  39.859   9.241
  299POPC   GL2 7910  33.969  39.574   8.933
  299POPC   C1A 7911  33.600  39.838   8.804
  299POPC   D2A 7912  33.625  39.863   8.333
  299POPC   C3A 7913  33.817  40.223   8.093
  299POPC   C4A 7914  33.778  40.372   7.676
  299POPC   C1B 7915  34.076  39.967   8.720
  299POPC   C2B 7916  34.175  39.932   8.327
  299POPC   C3B 7917  34.003  39.744   7.990
  299POPC   C4B 7918  34.055  39.896   7.593
  300POPC   NC3 7919  23.497  17.903   9.349
  300POPC   PO4 7920  23.957  18.354   9.570
  300POPC   GL1 7921  23.842  18.624   9.179
  300POPC   GL2 7922  23.532  18.597   8.996
  300POPC   C1A 7923  23.952  18.432   8.772
  300POPC   D2A 7924  23.775  18.091   8.514
  300POPC   C3A 7925  23.781  18.274   8.094
  300POPC   C4A 7926  23.985  18.491   7.764
  300POPC   C1B 7927  23.341  18.376   8.647
  300POPC   C2B 7928  23.326  18.107   8.276
  300POPC   C3B 7929  23.340  18.111   7.860
  300POPC   C4B 7930  23.535  18.376   7.550
  301POPC   NC3 7931  15.621  11.181   9.479
  301POPC   PO4 7932  16.302  11.370   9.513
  301POPC   GL1 7933  16.043  11.301   9.173
  301POPC   GL2 7934  15.734  11.456   9.077
  301POPC   C1A 7935  16.117  11.416   8.760
  301POPC   D2A 7936  16.135  11.251   8.387
  301POPC   C3A 7937  16.002  11.429   8.065
  301POPC   C4A 7938  16.083  11.284   7.682
  301POPC   C1B 7939  15.610  11.343   8.650
  301POPC   C2B 7940  15.593  11.157   8.241
  301POPC   C3B 7941  15.607  11.203   7.804
  301POPC   C4B 7942  15.710  11.623   7.688
  302POPC   NC3 7943  32.423   1.585   9.620
  302POPC   PO4 7944  32.316   0.917   9.487
  302POPC   GL1 7945  32.206   1.059   9.107
  302POPC   GL2 7946  32.129   1.376   9.251
  302POPC   C1A 7947  32.145   1.090   8.645
  302POPC   D2A 7948  32.449   1.053   8.297
  302POPC   C3A 7949  32.274   1.041   7.896
  302POPC   C4A 7950  31.980   1.090   7.572
  302POPC   C1B 7951  32.403   1.478   8.890
  302POPC   C2B 7952  32.340   1.550   8.444
  302POPC   C3B 7953  32.471   1.513   8.036
  302POPC   C4B 7954  32.212   1.514   7.701
  303POPC   NC3 7955  12.359  12.980   9.376
  303POPC   PO4 7956  11.732  13.159   9.643
  303POPC   GL1 7957  11.729  13.091   9.186
  303POPC   GL2 7958  11.922  12.805   9.082
  303POPC   C1A 7959  11.785  13.203   8.736
  303POPC   D2A 7960  12.021  13.252   8.317
  303POPC   C3A 7961  11.834  13.049   7.907
  303POPC   C4A 7962  11.819  12.848   7.477
  303POPC   C1B 7963  12.186  12.865   8.696
  303POPC   C2B 7964  12.240  12.726   8.271
  303POPC   C3B 7965  12.161  12.656   7.844
  303POPC   C4B 7966  11.945  12.363   7.606
  304POPC   NC3 7967  38.401  44.966   9.631
  304POPC   PO4 7968  38.471  44.347   9.712
  304POPC   GL1 7969  38.579  44.525   9.297
  304POPC   GL2 7970  38.433  44.803   9.132
  304POPC   C1A 7971  38.577  44.443   8.822
  304POPC   D2A 7972  38.341  44.485   8.416
  304POPC   C3A 7973  38.562  44.523   8.021
  304POPC   C4A 7974  38.934  44.693   7.803
  304POPC   C1B 7975  38.447  44.957   8.680
  304POPC   C2B 7976  38.468   0.070   8.210
  304POPC   C3B 7977  38.425  44.951   7.764
  304POPC   C4B 7978  38.211  44.639   7.485
  305POPC   NC3 7979  19.136  42.021   9.602
  305POPC   PO4 7980  18.545  42.322   9.882
  305POPC   GL1 7981  18.753  42.320   9.359
  305POPC   GL2 7982  19.106  42.256   9.134
  305POPC   C1A 7983  18.724  42.437   8.868
  305POPC   D2A 7984  18.839  42.172   8.479
  305POPC   C3A 7985  19.001  42.385   8.108
  305POPC   C4A 7986  18.895  42.548   7.712
  305POPC   C1B 7987  19.290  42.280   8.677
  305POPC   C2B 7988  19.452  42.197   8.214
  305POPC   C3B 7989  19.267  42.112   7.745
  305POPC   C4B 7990  19.441  42.140   7.299
  306POPC   NC3 7991  24.787  29.489   9.518
  306POPC   PO4 7992  24.534  28.863   9.526
  306POPC   GL1 7993  24.485  29.153   9.161
  306POPC   GL2 7994  24.625  29.482   9.051
  306POPC   C1A 7995  24.467  29.161   8.704
  306POPC   D2A 7996  24.315  29.356   8.334
  306POPC   C3A 7997  24.546  29.217   7.982
  306POPC   C4A 7998  24.459  28.994   7.622
  306POPC   C1B 7999  24.851  29.700   8.734
  306POPC   C2B 8000  24.817  29.543   8.319
  306POPC   C3B 8001  24.850  29.673   7.885
  306POPC   C4B 8002  24.755  29.442   7.536
  307POPC   NC3 8003  31.740  12.381   9.485
  307POPC   PO4 8004  31.241  12.931   9.363
  307POPC   GL1 8005  31.354  12.791   9.034
  307POPC   GL2 8006  31.670  12.687   9.092
  307POPC   C1A 8007  31.318  12.649   8.651
  307POPC   D2A 8008  31.586  12.609   8.305
  307POPC   C3A 8009  31.382  12.817   7.965
  307POPC   C4A 8010  31.204  12.645   7.629
  307POPC   C1B 8011  31.803  12.934   8.748
  307POPC   C2B 8012  31.996  12.931   8.333
  307POPC   C3B 8013  31.878  12.809   7.906
  307POPC   C4B 8014  31.774  13.104   7.583
  308POPC   NC3 8015  18.796   5.612   9.549
  308POPC   PO4 8016  19.302   6.083   9.592
  308POPC   GL1 8017  19.151   6.189   9.176
  308POPC   GL2 8018  18.812   6.081   9.187
  308POPC   C1A 8019  19.147   6.015   8.748
  308POPC   D2A 8020  18.941   5.622   8.542
  308POPC   C3A 8021  19.017   5.690   8.090
  308POPC   C4A 8022  19.295   5.988   7.833
  308POPC   C1B 8023  18.646   5.956   8.801
  308POPC   C2B 8024  18.780   6.080   8.381
  308POPC   C3B 8025  18.782   6.154   7.934
  308POPC   C4B 8026  18.760   5.775   7.660
  309POPC   NC3 8027  37.934   3.727   9.467
  309POPC   PO4 8028  37.405   3.293   9.479
  309POPC   GL1 8029  37.654   3.502   9.108
  309POPC   GL2 8030  37.576   3.827   8.922
  309POPC   C1A 8031  37.821   3.436   8.707
  309POPC   D2A 8032  37.602   3.699   8.425
  309POPC   C3A 8033  37.635   3.536   8.057
  309POPC   C4A 8034  37.840   3.630   7.685
  309POPC   C1B 8035  38.021   3.890   8.840
  309POPC   C2B 8036  38.108   3.804   8.437
  309POPC   C3B 8037  38.034   3.947   8.049
  309POPC   C4B 8038  38.286   3.851   7.706
  310POPC   NC3 8039   8.249  29.891   9.545
  310POPC   PO4 8040   7.783  30.439   9.568
  310POPC   GL1 8041   7.990  30.139   9.176
  310POPC   GL2 8042   8.401  30.005   9.086
  310POPC   C1A 8043   8.056  29.896   8.765
  310POPC   D2A 8044   8.343  30.010   8.416
  310POPC   C3A 8045   8.182  29.957   7.991
  310POPC   C4A 8046   7.848  30.133   7.761
  310POPC   C1B 8047   8.486  29.615   8.790
  310POPC   C2B 8048   8.630  29.565   8.364
  310POPC   C3B 8049   8.449  29.529   7.950
  310POPC   C4B 8050   8.385  29.733   7.562
  311POPC   NC3 8051   1.088   7.110   9.458
  311POPC   PO4 8052   1.212   7.739   9.697
  311POPC   GL1 8053   1.334   7.540   9.216
  311POPC   GL2 8054   1.089   7.300   9.006
  311POPC   C1A 8055   1.460   7.452   8.733
  311POPC   D2A 8056   1.325   7.613   8.322
  311POPC   C3A 8057   1.076   7.413   8.004
  311POPC   C4A 8058   1.369   7.353   7.645
  311POPC   C1B 8059   1.214   6.997   8.700
  311POPC   C2B 8060   1.372   7.105   8.279
  311POPC   C3B 8061   1.238   6.909   7.866
  311POPC   C4B 8062   1.294   6.902   7.399
  312POPC   NC3 8063  28.114  31.416   9.585
  312POPC   PO4 8064  28.797  31.314   9.399
  312POPC   GL1 8065  28.498  31.511   9.101
  312POPC   GL2 8066  28.169  31.687   9.181
  312POPC   C1A 8067  28.370  31.375   8.684
  312POPC   D2A 8068  28.316  31.073   8.345
  312POPC   C3A 8069  28.325  31.177   7.909
  312POPC   C4A 8070  28.438  31.203   7.456
  312POPC   C1B 8071  28.169  31.933   8.847
  312POPC   C2B 8072  28.231  31.831   8.455
  312POPC   C3B 8073  28.171  31.655   8.088
  312POPC   C4B 8074  28.430  31.676   7.761
  313POPC   NC3 8075  31.760  33.745   9.527
  313POPC   PO4 8076  31.075  33.721   9.401
  313POPC   GL1 8077  31.413  33.682   9.138
  313POPC   GL2 8078  31.620  33.969   9.111
  313POPC   C1A 8079  31.544  33.628   8.728
  313POPC   D2A 8080  31.319  33.701   8.359
  313POPC   C3A 8081  31.500  33.505   8.018
  313POPC   C4A 8082  31.363  33.700   7.696
  313POPC   C1B 8083  31.836  34.115   8.805
  313POPC   C2B 8084  31.840  33.918   8.413
  313POPC   C3B 8085  31.638  34.003   8.068
  313POPC   C4B 8086  31.722  34.182   7.704
  314POPC   NC3 8087  28.952   5.284   9.724
  314POPC   PO4 8088  29.169   5.830   9.350
  314POPC   GL1 8089  29.027   5.986   9.007
  314POPC   GL2 8090  28.953   5.693   8.857
  314POPC   C1A 8091  29.137   6.069   8.580
  314POPC   D2A 8092  29.439   6.236   8.304
  314POPC   C3A 8093  29.408   6.068   7.910
  314POPC   C4A 8094  29.118   6.001   7.605
  314POPC   C1B 8095  29.352   5.612   8.691
  314POPC   C2B 8096  29.338   5.714   8.277
  314POPC   C3B 8097  29.121   5.636   7.947
  314POPC   C4B 8098  28.957   5.483   7.575
  315POPC   NC3 8099   1.461  21.201   9.302
  315POPC   PO4 8100   2.076  21.040   9.483
  315POPC   GL1 8101   1.958  21.316   9.129
  315POPC   GL2 8102   2.016  21.687   9.214
  315POPC   C1A 8103   1.710  21.417   8.739
  315POPC   D2A 8104   1.501  21.355   8.334
  315POPC   C3A 8105   1.743  21.427   7.941
  315POPC   C4A 8106   2.159  21.298   7.733
  315POPC   C1B 8107   2.156  21.668   8.767
  315POPC   C2B 8108   2.057  21.617   8.313
  315POPC   C3B 8109   2.089  21.795   7.898
  315POPC   C4B 8110   2.383  21.773   7.583
  316POPC   NC3 8111  29.737  25.419   9.731
  316POPC   PO4 8112  29.212  25.099   9.443
  316POPC   GL1 8113  29.200  25.055   9.033
  316POPC   GL2 8114  29.065  25.355   9.004
  316POPC   C1A 8115  29.411  25.196   8.646
  316POPC   D2A 8116  29.436  25.380   8.230
  316POPC   C3A 8117  29.424  25.028   7.949
  316POPC   C4A 8118  29.170  24.955   7.602
  316POPC   C1B 8119  28.908  25.264   8.603
  316POPC   C2B 8120  28.870  25.419   8.217
  316POPC   C3B 8121  28.962  25.397   7.794
  316POPC   C4B 8122  29.043  25.531   7.365
  317POPC   NC3 8123  14.820  44.546   9.451
  317POPC   PO4 8124  15.462  44.711   9.398
  317POPC   GL1 8125  15.380  44.676   9.006
  317POPC   GL2 8126  15.149  44.396   9.058
  317POPC   C1A 8127  15.372  44.907   8.628
  317POPC   D2A 8128  15.195  44.746   8.250
  317POPC   C3A 8129  15.375  44.721   7.898
  317POPC   C4A 8130  15.772  44.724   7.818
  317POPC   C1B 8131  14.862  44.494   8.737
  317POPC   C2B 8132  14.949  44.332   8.359
  317POPC   C3B 8133  15.138  44.262   7.988
  317POPC   C4B 8134  14.956  44.495   7.672
  318POPC   NC3 8135  30.620  38.718   9.492
  318POPC   PO4 8136  30.782  38.145   9.215
  318POPC   GL1 8137  30.584  38.427   9.019
  318POPC   GL2 8138  30.822  38.654   9.020
  318POPC   C1A 8139  30.356  38.561   8.679
  318POPC   D2A 8140  30.238  38.721   8.293
  318POPC   C3A 8141  30.492  38.413   8.066
  318POPC   C4A 8142  30.679  38.500   7.680
  318POPC   C1B 8143  31.003  38.411   8.687
  318POPC   C2B 8144  30.938  38.242   8.305
  318POPC   C3B 8145  31.058  38.516   8.005
  318POPC   C4B 8146  31.198  38.427   7.614
  319POPC   NC3 8147   2.900  23.387   9.483
  319POPC   PO4 8148   2.506  23.980   9.522
  319POPC   GL1 8149   2.769  23.875   9.164
  319POPC   GL2 8150   2.770  23.541   9.025
  319POPC   C1A 8151   2.780  23.936   8.717
  319POPC   D2A 8152   2.775  23.681   8.349
  319POPC   C3A 8153   2.914  23.898   7.989
  319POPC   C4A 8154   2.816  23.988   7.582
  319POPC   C1B 8155   3.080  23.231   8.831
  319POPC   C2B 8156   3.110  23.280   8.389
  319POPC   C3B 8157   3.054  23.210   7.957
  319POPC   C4B 8158   3.134  23.145   7.468
  320POPC   NC3 8159  29.365  34.360   9.578
  320POPC   PO4 8160  28.721  34.669   9.472
  320POPC   GL1 8161  28.967  34.390   9.190
  320POPC   GL2 8162  29.280  34.541   9.074
  320POPC   C1A 8163  28.981  34.287   8.750
  320POPC   D2A 8164  29.145  34.533   8.397
  320POPC   C3A 8165  28.973  34.760   8.073
  320POPC   C4A 8166  28.939  34.574   7.695
  320POPC   C1B 8167  29.526  34.682   8.672
  320POPC   C2B 8168  29.627  34.452   8.310
  320POPC   C3B 8169  29.422  34.533   7.913
  320POPC   C4B 8170  29.425  34.606   7.467
  321POPC   NC3 8171   0.911   3.957   9.301
  321POPC   PO4 8172   1.269   4.431   9.655
  321POPC   GL1 8173   1.265   4.379   9.200
  321POPC   GL2 8174   0.926   4.471   9.140
  321POPC   C1A 8175   1.275   4.220   8.745
  321POPC   D2A 8176   0.987   4.129   8.391
  321POPC   C3A 8177   1.134   3.970   7.982
  321POPC   C4A 8178   1.317   4.156   7.610
  321POPC   C1B 8179   1.018   4.680   8.737
  321POPC   C2B 8180   1.238   4.584   8.359
  321POPC   C3B 8181   1.104   4.475   7.975
  321POPC   C4B 8182   1.003   4.689   7.651
  322POPC   NC3 8183  43.639  28.752   9.358
  322POPC   PO4 8184  43.909  29.352   9.600
  322POPC   GL1 8185  43.839  29.184   9.178
  322POPC   GL2 8186  43.480  29.240   9.131
  322POPC   C1A 8187  43.799  29.013   8.755
  322POPC   D2A 8188  43.873  29.181   8.339
  322POPC   C3A 8189  43.808  28.924   7.984
  322POPC   C4A 8190  44.117  28.843   7.671
  322POPC   C1B 8191  43.570  29.475   8.734
  322POPC   C2B 8192  43.423  29.410   8.325
  322POPC   C3B 8193  43.557  29.366   7.883
  322POPC   C4B 8194  43.540  29.174   7.463
  323POPC   NC3 8195  36.438   6.854   9.648
  323POPC   PO4 8196  36.990   6.418   9.497
  323POPC   GL1 8197  36.883   6.687   9.190
  323POPC   GL2 8198  36.558   6.475   9.216
  323POPC   C1A 8199  36.986   6.832   8.744
  323POPC   D2A 8200  36.720   6.682   8.371
  323POPC   C3A 8201  36.884   6.760   7.941
  323POPC   C4A 8202  37.309   6.620   7.835
  323POPC   C1B 8203  36.738   6.390   8.792
  323POPC   C2B 8204  36.981   6.140   8.485
  323POPC   C3B 8205  37.176   6.153   8.090
  323POPC   C4B 8206  37.021   6.247   7.679
  324POPC   NC3 8207   0.654  21.791   9.311
  324POPC   PO4 8208   1.155  22.261   9.613
  324POPC   GL1 8209   1.147  22.049   9.193
  324POPC   GL2 8210   0.891  22.236   9.138
  324POPC   C1A 8211   1.305  22.200   8.768
  324POPC   D2A 8212   1.542  22.351   8.422
  324POPC   C3A 8213   1.313  22.379   8.051
  324POPC   C4A 8214   1.425  22.361   7.638
  324POPC   C1B 8215   0.818  22.075   8.748
  324POPC   C2B 8216   0.939  22.225   8.389
  324POPC   C3B 8217   0.924  22.035   8.023
  324POPC   C4B 8218   0.936  22.305   7.665
  325POPC   NC3 8219  35.816  29.654   9.429
  325POPC   PO4 8220  35.106  29.674   9.521
  325POPC   GL1 8221  35.263  29.793   9.112
  325POPC   GL2 8222  35.568  29.964   9.117
  325POPC   C1A 8223  35.202  29.941   8.730
  325POPC   D2A 8224  35.261  29.853   8.334
  325POPC   C3A 8225  34.989  30.037   8.062
  325POPC   C4A 8226  35.222  29.978   7.674
  325POPC   C1B 8227  35.661  29.656   8.806
  325POPC   C2B 8228  35.921  29.526   8.474
  325POPC   C3B 8229  35.645  29.506   8.159
  325POPC   C4B 8230  35.559  29.605   7.741
  326POPC   NC3 8231  21.291   5.547   9.463
  326POPC   PO4 8232  21.604   6.044   9.655
  326POPC   GL1 8233  21.535   6.119   9.225
  326POPC   GL2 8234  21.217   6.004   9.160
  326POPC   C1A 8235  21.643   5.911   8.850
  326POPC   D2A 8236  21.351   5.716   8.615
  326POPC   C3A 8237  21.347   5.755   8.159
  326POPC   C4A 8238  21.279   5.668   7.739
  326POPC   C1B 8239  21.252   6.252   8.789
  326POPC   C2B 8240  21.482   6.197   8.419
  326POPC   C3B 8241  21.460   6.239   7.988
  326POPC   C4B 8242  21.092   6.146   7.769
  327POPC   NC3 8243  11.623   7.560   9.572
  327POPC   PO4 8244  11.147   7.130   9.425
  327POPC   GL1 8245  11.322   7.376   9.128
  327POPC   GL2 8246  11.241   7.709   9.159
  327POPC   C1A 8247  11.451   7.372   8.707
  327POPC   D2A 8248  11.230   7.181   8.356
  327POPC   C3A 8249  11.348   7.364   7.955
  327POPC   C4A 8250  11.393   7.236   7.526
  327POPC   C1B 8251  11.464   7.888   8.827
  327POPC   C2B 8252  11.482   7.801   8.389
  327POPC   C3B 8253  11.335   7.899   7.973
  327POPC   C4B 8254  11.472   7.752   7.564
  328POPC   NC3 8255  44.007  15.451   9.440
  328POPC   PO4 8256  43.515  15.027   9.532
  328POPC   GL1 8257  43.867  14.981   9.226
  328POPC   GL2 8258  43.717  14.661   9.183
  328POPC   C1A 8259  44.108  15.099   8.840
  328POPC   D2A 8260  44.086  15.413   8.487
  328POPC   C3A 8261  44.238  15.379   8.081
  328POPC   C4A 8262  44.089  15.075   7.773
  328POPC   C1B 8263  43.649  14.845   8.784
  328POPC   C2B 8264  43.669  15.008   8.366
  328POPC   C3B 8265  43.663  14.824   7.964
  328POPC   C4B 8266  43.414  14.750   7.594
  329POPC   NC3 8267  44.942  25.808   9.587
  329POPC   PO4 8268  44.369  26.204   9.581
  329POPC   GL1 8269  44.632  26.093   9.225
  329POPC   GL2 8270  44.961  26.237   9.293
  329POPC   C1A 8271  44.476  26.012   8.810
  329POPC   D2A 8272  44.326  26.105   8.380
  329POPC   C3A 8273  44.580  26.282   8.081
  329POPC   C4A 8274  44.394  26.121   7.703
  329POPC   C1B 8275  44.967  26.143   8.821
  329POPC   C2B 8276  44.810  25.896   8.434
  329POPC   C3B 8277  44.771  25.834   7.971
  329POPC   C4B 8278  44.940  26.149   7.715
  330POPC   NC3 8279  23.772  21.843   9.590
  330POPC   PO4 8280  23.509  22.459   9.417
  330POPC   GL1 8281  23.640  22.133   9.166
  330POPC   GL2 8282  23.943  21.951   9.129
  330POPC   C1A 8283  23.440  22.094   8.786
  330POPC   D2A 8284  23.546  22.344   8.421
  330POPC   C3A 8285  23.593  22.117   8.013
  330POPC   C4A 8286  23.619  22.390   7.670
  330POPC   C1B 8287  23.940  22.220   8.768
  330POPC   C2B 8288  24.019  22.106   8.358
  330POPC   C3B 8289  24.054  21.890   7.979
  330POPC   C4B 8290  24.199  21.659   7.683
  331POPC   NC3 8291  24.010  34.748   9.481
  331POPC   PO4 8292  23.318  34.773   9.288
  331POPC   GL1 8293  23.690  34.853   9.108
  331POPC   GL2 8294  23.808  34.528   9.028
  331POPC   C1A 8295  23.797  34.998   8.728
  331POPC   D2A 8296  23.600  34.930   8.343
  331POPC   C3A 8297  23.868  34.817   8.038
  331POPC   C4A 8298  23.596  34.706   7.726
  331POPC   C1B 8299  23.543  34.489   8.646
  331POPC   C2B 8300  23.629  34.361   8.198
  331POPC   C3B 8301  23.955  34.338   7.868
  331POPC   C4B 8302  23.836  34.403   7.401
  332POPC   NC3 8303  33.349  35.389   9.582
  332POPC   PO4 8304  32.758  35.140   9.577
  332POPC   GL1 8305  32.898  35.343   9.182
  332POPC   GL2 8306  32.995  35.697   9.279
  332POPC   C1A 8307  33.023  35.227   8.739
  332POPC   D2A 8308  33.237  35.359   8.340
  332POPC   C3A 8309  33.013  35.248   7.961
  332POPC   C4A 8310  33.346  35.062   7.811
  332POPC   C1B 8311  33.002  35.734   8.824
  332POPC   C2B 8312  32.844  35.653   8.401
  332POPC   C3B 8313  32.980  35.739   7.990
  332POPC   C4B 8314  32.787  35.820   7.592
  333POPC   NC3 8315  32.044  41.656   9.412
  333POPC   PO4 8316  32.448  41.200   9.595
  333POPC   GL1 8317  32.403  41.402   9.118
  333POPC   GL2 8318  32.335  41.753   9.013
  333POPC   C1A 8319  32.459  41.520   8.620
  333POPC   D2A 8320  32.616  41.851   8.357
  333POPC   C3A 8321  32.508  41.594   8.005
  333POPC   C4A 8322  32.249  41.262   7.830
  333POPC   C1B 8323  32.094  41.886   8.698
  333POPC   C2B 8324  31.908  41.606   8.439
  333POPC   C3B 8325  31.847  41.584   8.038
  333POPC   C4B 8326  32.092  41.754   7.724
  334POPC   NC3 8327  24.236   4.349   9.419
  334POPC   PO4 8328  24.753   3.959   9.553
  334POPC   GL1 8329  24.662   4.176   9.215
  334POPC   GL2 8330  24.382   4.008   9.083
  334POPC   C1A 8331  24.560   4.462   8.857
  334POPC   D2A 8332  24.766   4.400   8.468
  334POPC   C3A 8333  24.543   4.405   8.088
  334POPC   C4A 8334  24.486   4.627   7.710
  334POPC   C1B 8335  24.647   3.971   8.762
  334POPC   C2B 8336  24.541   3.936   8.387
  334POPC   C3B 8337  24.737   3.942   8.017
  334POPC   C4B 8338  24.604   4.122   7.658
  335POPC   NC3 8339  27.295  34.494   9.504
  335POPC   PO4 8340  27.748  34.954   9.645
  335POPC   GL1 8341  27.757  34.746   9.271
  335POPC   GL2 8342  27.772  34.392   9.326
  335POPC   C1A 8343  27.513  34.719   8.885
  335POPC   D2A 8344  27.655  34.637   8.488
  335POPC   C3A 8345  27.619  34.797   8.098
  335POPC   C4A 8346  27.733  34.580   7.722
  335POPC   C1B 8347  27.900  34.360   8.889
  335POPC   C2B 8348  27.924  34.218   8.467
  335POPC   C3B 8349  28.023  34.305   8.051
  335POPC   C4B 8350  27.858  34.098   7.653
  336POPC   NC3 8351  22.910   1.700   9.534
  336POPC   PO4 8352  22.783   2.381   9.509
  336POPC   GL1 8353  22.933   2.087   9.179
  336POPC   GL2 8354  23.297   2.044   9.257
  336POPC   C1A 8355  22.777   2.020   8.732
  336POPC   D2A 8356  22.735   2.282   8.338
  336POPC   C3A 8357  22.955   2.167   7.923
  336POPC   C4A 8358  22.933   1.782   7.666
  336POPC   C1B 8359  23.282   2.018   8.811
  336POPC   C2B 8360  23.161   2.004   8.390
  336POPC   C3B 8361  23.233   1.768   8.062
  336POPC   C4B 8362  23.443   1.894   7.635
  337POPC   NC3 8363  12.258  19.793   9.478
  337POPC   PO4 8364  11.575  20.019   9.616
  337POPC   GL1 8365  11.793  19.840   9.205
  337POPC   GL2 8366  12.115  19.774   9.001
  337POPC   C1A 8367  11.694  19.822   8.752
  337POPC   D2A 8368  11.962  19.884   8.463
  337POPC   C3A 8369  11.981  19.568   8.171
  337POPC   C4A 8370  12.066  19.738   7.801
  337POPC   C1B 8371  12.384  19.624   8.663
  337POPC   C2B 8372  12.416  19.812   8.260
  337POPC   C3B 8373  12.227  20.161   8.050
  337POPC   C4B 8374  12.168  20.192   7.603
  338POPC   NC3 8375   0.922  23.733   9.538
  338POPC   PO4 8376   0.249  23.879   9.513
  338POPC   GL1 8377   0.437  23.741   9.118
  338POPC   GL2 8378   0.646  23.453   9.180
  338POPC   C1A 8379   0.432  23.867   8.652
  338POPC   D2A 8380   0.357  24.147   8.269
  338POPC   C3A 8381   0.191  23.856   7.969
  338POPC   C4A 8382   0.510  23.613   7.820
  338POPC   C1B 8383   0.372  23.352   8.787
  338POPC   C2B 8384   0.300  23.399   8.321
  338POPC   C3B 8385   0.255  23.183   7.928
  338POPC   C4B 8386   0.361  23.148   7.444
  339POPC   NC3 8387  44.115  43.998   9.619
  339POPC   PO4 8388  44.345  43.376   9.335
  339POPC   GL1 8389  44.087  43.740   9.170
  339POPC   GL2 8390  43.731  43.851   9.202
  339POPC   C1A 8391  44.149  43.960   8.800
  339POPC   D2A 8392  44.298  43.684   8.460
  339POPC   C3A 8393  44.202  43.803   8.046
  339POPC   C4A 8394  44.147  43.646   7.644
  339POPC   C1B 8395  43.652  43.717   8.767
  339POPC   C2B 8396  43.529  43.452   8.402
  339POPC   C3B 8397  43.502  43.538   7.965
  339POPC   C4B 8398  43.700  43.932   7.800
  340POPC   NC3 8399  31.967  26.277   9.547
  340POPC   PO4 8400  32.536  25.882   9.555
  340POPC   GL1 8401  32.334  25.800   9.134
  340POPC   GL2 8402  31.956  25.829   9.154
  340POPC   C1A 8403  32.243  25.960   8.708
  340POPC   D2A 8404  32.224  26.308   8.425
  340POPC   C3A 8405  32.426  26.226   8.014
  340POPC   C4A 8406  32.316  25.932   7.718
  340POPC   C1B 8407  31.790  26.135   8.837
  340POPC   C2B 8408  31.813  25.959   8.419
  340POPC   C3B 8409  32.013  25.785   8.092
  340POPC   C4B 8410  31.814  25.872   7.702
  341POPC   NC3 8411  18.880   3.358   9.434
  341POPC   PO4 8412  19.181   3.965   9.404
  341POPC   GL1 8413  19.052   3.709   9.074
  341POPC   GL2 8414  19.078   3.357   8.994
  341POPC   C1A 8415  19.266   3.749   8.700
  341POPC   D2A 8416  19.061   3.869   8.344
  341POPC   C3A 8417  19.126   3.585   8.002
  341POPC   C4A 8418  19.020   3.660   7.573
  341POPC   C1B 8419  19.006   3.076   8.655
  341POPC   C2B 8420  18.955   3.150   8.228
  341POPC   C3B 8421  18.858   3.189   7.794
  341POPC   C4B 8422  18.963   3.183   7.363
  342POPC   NC3 8423  18.576  24.129   9.466
  342POPC   PO4 8424  18.185  24.690   9.512
  342POPC   GL1 8425  18.242  24.457   9.123
  342POPC   GL2 8426  18.159  24.111   9.138
  342POPC   C1A 8427  18.057  24.339   8.699
  342POPC   D2A 8428  17.870  24.458   8.331
  342POPC   C3A 8429  18.089  24.443   7.971
  342POPC   C4A 8430  18.171  24.157   7.676
  342POPC   C1B 8431  18.544  24.185   8.820
  342POPC   C2B 8432  18.469  24.321   8.384
  342POPC   C3B 8433  18.577  24.266   7.950
  342POPC   C4B 8434  18.927  24.475   7.717
  343POPC   NC3 8435  34.750  27.817   9.338
  343POPC   PO4 8436  35.395  27.984   9.361
  343POPC   GL1 8437  35.352  27.756   9.020
  343POPC   GL2 8438  35.147  27.461   9.091
  343POPC   C1A 8439  35.447  27.545   8.667
  343POPC   D2A 8440  35.307  27.490   8.280
  343POPC   C3A 8441  35.448  27.740   7.968
  343POPC   C4A 8442  35.448  27.671   7.548
  343POPC   C1B 8443  35.048  27.211   8.680
  343POPC   C2B 8444  34.931  27.157   8.234
  343POPC   C3B 8445  35.152  27.269   7.840
  343POPC   C4B 8446  35.002  27.446   7.427
  344POPC   NC3 8447  39.072  27.864   9.756
  344POPC   PO4 8448  39.321  27.262   9.544
  344POPC   GL1 8449  39.306  27.487   9.099
  344POPC   GL2 8450  39.040  27.721   9.133
  344POPC   C1A 8451  39.262  27.271   8.650
  344POPC   D2A 8452  39.231  27.279   8.171
  344POPC   C3A 8453  39.308  27.679   8.058
  344POPC   C4A 8454  39.503  27.887   7.774
  344POPC   C1B 8455  38.840  27.858   8.723
  344POPC   C2B 8456  38.948  27.922   8.297
  344POPC   C3B 8457  38.803  27.691   7.922
  344POPC   C4B 8458  38.740  27.698   7.449
  345POPC   NC3 8459  40.504  27.299   9.372
  345POPC   PO4 8460  40.614  26.582   9.424
  345POPC   GL1 8461  40.728  26.846   9.133
  345POPC   GL2 8462  40.408  26.837   8.965
  345POPC   C1A 8463  40.882  26.703   8.751
  345POPC   D2A 8464  40.630  26.664   8.418
  345POPC   C3A 8465  40.860  26.612   8.091
  345POPC   C4A 8466  40.819  26.606   7.645
  345POPC   C1B 8467  40.598  27.119   8.684
  345POPC   C2B 8468  40.936  27.074   8.339
  345POPC   C3B 8469  40.901  27.074   7.875
  345POPC   C4B 8470  40.768  27.041   7.412
  346POPC   NC3 8471  19.587  10.512   9.491
  346POPC   PO4 8472  20.167  10.921   9.441
  346POPC   GL1 8473  19.881  10.801   9.136
  346POPC   GL2 8474  19.806  10.435   9.043
  346POPC   C1A 8475  19.992  10.809   8.721
  346POPC   D2A 8476  20.176  10.878   8.329
  346POPC   C3A 8477  19.887  10.712   8.030
  346POPC   C4A 8478  19.968  10.844   7.603
  346POPC   C1B 8479  19.585  10.209   8.754
  346POPC   C2B 8480  19.736  10.089   8.351
  346POPC   C3B 8481  19.904  10.198   7.958
  346POPC   C4B 8482  19.628  10.106   7.609
  347POPC   NC3 8483  21.443  37.933   9.701
  347POPC   PO4 8484  21.753  37.440   9.422
  347POPC   GL1 8485  21.433  37.530   9.189
  347POPC   GL2 8486  21.335  37.884   9.186
  347POPC   C1A 8487  21.423  37.528   8.784
  347POPC   D2A 8488  21.319  37.680   8.400
  347POPC   C3A 8489  21.539  37.445   8.112
  347POPC   C4A 8490  21.345  37.463   7.741
  347POPC   C1B 8491  21.068  37.893   8.801
  347POPC   C2B 8492  20.925  38.005   8.345
  347POPC   C3B 8493  21.110  37.868   7.954
  347POPC   C4B 8494  21.252  37.951   7.531
  348POPC   NC3 8495   9.120  44.940   9.733
  348POPC   PO4 8496   9.400  44.431   9.422
  348POPC   GL1 8497   9.132  44.750   9.180
  348POPC   GL2 8498   8.871  44.522   9.042
  348POPC   C1A 8499   8.916  44.948   8.786
  348POPC   D2A 8500   8.721  44.636   8.471
  348POPC   C3A 8501   8.914  44.475   8.080
  348POPC   C4A 8502   8.868  44.700   7.675
  348POPC   C1B 8503   9.219  44.562   8.671
  348POPC   C2B 8504   9.451  44.580   8.260
  348POPC   C3B 8505   9.341  44.764   7.858
  348POPC   C4B 8506   9.251  44.724   7.359
  349POPC   NC3 8507  44.819  13.155   9.512
  349POPC   PO4 8508  44.404  12.618   9.441
  349POPC   GL1 8509  44.523  12.840   9.107
  349POPC   GL2 8510  44.414  13.203   9.163
  349POPC   C1A 8511  44.515  12.660   8.686
  349POPC   D2A 8512  44.537  12.493   8.253
  349POPC   C3A 8513  44.569  12.810   7.934
  349POPC   C4A 8514  44.948  12.820   7.710
  349POPC   C1B 8515  44.611  13.206   8.755
  349POPC   C2B 8516  44.792  12.992   8.406
  349POPC   C3B 8517  44.832  13.279   8.089
  349POPC   C4B 8518  44.735  13.283   7.698
  350POPC   NC3 8519  23.180  21.049   9.454
  350POPC   PO4 8520  22.993  21.637   9.175
  350POPC   GL1 8521  23.112  21.283   8.983
  350POPC   GL2 8522  22.819  21.094   9.057
  350POPC   C1A 8523  23.365  21.308   8.593
  350POPC   D2A 8524  23.135  21.537   8.265
  350POPC   C3A 8525  23.218  21.750   7.867
  350POPC   C4A 8526  23.212  21.560   7.434
  350POPC   C1B 8527  22.941  20.946   8.643
  350POPC   C2B 8528  22.901  21.059   8.217
  350POPC   C3B 8529  23.000  21.280   7.841
  350POPC   C4B 8530  22.737  21.423   7.527
  351POPC   NC3 8531  21.746  21.864   9.571
  351POPC   PO4 8532  21.111  22.247   9.530
  351POPC   GL1 8533  21.316  22.116   9.124
  351POPC   GL2 8534  21.682  22.048   9.115
  351POPC   C1A 8535  21.491  22.241   8.701
  351POPC   D2A 8536  21.477  22.117   8.301
  351POPC   C3A 8537  21.414  22.369   7.886
  351POPC   C4A 8538  21.162  22.290   7.494
  351POPC   C1B 8539  21.714  21.699   8.816
  351POPC   C2B 8540  21.545  21.555   8.416
  351POPC   C3B 8541  21.307  21.726   8.073
  351POPC   C4B 8542  21.362  21.886   7.720
  352POPC   NC3 8543  35.657   0.171   9.484
  352POPC   PO4 8544  35.615   0.867   9.432
  352POPC   GL1 8545  35.383   0.622   9.090
  352POPC   GL2 8546  35.405   0.276   9.061
  352POPC   C1A 8547  35.466   0.519   8.607
  352POPC   D2A 8548  35.363   0.798   8.264
  352POPC   C3A 8549  35.228   0.647   7.891
  352POPC   C4A 8550  34.975   0.303   7.854
  352POPC   C1B 8551  35.748   0.138   8.809
  352POPC   C2B 8552  35.787   0.179   8.357
  352POPC   C3B 8553  35.641   0.267   7.928
  352POPC   C4B 8554  35.779   0.142   7.501
  353POPC   NC3 8555  41.331  24.088   9.255
  353POPC   PO4 8556  41.593  23.461   9.540
  353POPC   GL1 8557  41.668  23.713   9.204
  353POPC   GL2 8558  41.333  23.608   9.096
  353POPC   C1A 8559  41.892  23.861   8.815
  353POPC   D2A 8560  41.922  23.692   8.382
  353POPC   C3A 8561  41.945  23.922   7.986
  353POPC   C4A 8562  41.798  23.754   7.579
  353POPC   C1B 8563  41.231  23.786   8.672
  353POPC   C2B 8564  41.475  23.950   8.351
  353POPC   C3B 8565  41.455  24.040   7.929
  353POPC   C4B 8566  41.285  23.800   7.588
  354POPC   NC3 8567   4.734  37.820   9.810
  354POPC   PO4 8568   5.131  37.439   9.419
  354POPC   GL1 8569   5.264  37.591   9.019
  354POPC   GL2 8570   5.314  37.968   9.139
  354POPC   C1A 8571   5.251  37.548   8.563
  354POPC   D2A 8572   4.942  37.714   8.270
  354POPC   C3A 8573   5.076  37.579   7.889
  354POPC   C4A 8574   4.990  37.661   7.434
  354POPC   C1B 8575   5.085  37.992   8.755
  354POPC   C2B 8576   5.274  38.110   8.369
  354POPC   C3B 8577   5.136  38.074   7.928
  354POPC   C4B 8578   4.735  37.950   7.778
  355POPC   NC3 8579  10.286   1.653   9.718
  355POPC   PO4 8580  10.719   2.024   9.438
  355POPC   GL1 8581  10.479   2.076   9.115
  355POPC   GL2 8582  10.359   1.765   9.091
  355POPC   C1A 8583  10.513   2.274   8.729
  355POPC   D2A 8584  10.367   2.073   8.374
  355POPC   C3A 8585  10.612   2.150   8.018
  355POPC   C4A 8586  10.685   1.846   7.783
  355POPC   C1B 8587  10.672   1.790   8.743
  355POPC   C2B 8588  10.636   1.630   8.322
  355POPC   C3B 8589  10.366   1.525   7.992
  355POPC   C4B 8590  10.324   1.555   7.554
  356POPC   NC3 8591  14.164  23.189   9.525
  356POPC   PO4 8592  14.385  22.528   9.479
  356POPC   GL1 8593  14.459  22.915   9.216
  356POPC   GL2 8594  14.296  22.714   8.997
  356POPC   C1A 8595  14.329  23.192   8.837
  356POPC   D2A 8596  14.311  23.020   8.402
  356POPC   C3A 8597  14.581  23.252   8.113
  356POPC   C4A 8598  14.558  23.222   7.654
  356POPC   C1B 8599  14.648  22.745   8.705
  356POPC   C2B 8600  14.742  22.753   8.252
  356POPC   C3B 8601  14.448  22.817   7.912
  356POPC   C4B 8602  14.398  22.745   7.440
  357POPC   NC3 8603  19.173  11.335   9.514
  357POPC   PO4 8604  18.508  11.233   9.627
  357POPC   GL1 8605  18.746  11.319   9.195
  357POPC   GL2 8606  19.004  11.544   9.092
  357POPC   C1A 8607  18.738  11.343   8.706
  357POPC   D2A 8608  18.982  11.509   8.337
  357POPC   C3A 8609  18.920  11.367   7.886
  357POPC   C4A 8610  19.066  11.574   7.510
  357POPC   C1B 8611  19.228  11.279   8.826
  357POPC   C2B 8612  19.205  11.042   8.461
  357POPC   C3B 8613  19.351  11.248   8.087
  357POPC   C4B 8614  19.381  11.101   7.671
  358POPC   NC3 8615  20.793  15.254   9.472
  358POPC   PO4 8616  20.483  14.768   9.600
  358POPC   GL1 8617  20.532  14.882   9.166
  358POPC   GL2 8618  20.853  14.807   9.163
  358POPC   C1A 8619  20.492  14.972   8.687
  358POPC   D2A 8620  20.457  14.975   8.222
  358POPC   C3A 8621  20.602  14.979   7.782
  358POPC   C4A 8622  20.602  15.332   7.448
  358POPC   C1B 8623  20.953  15.088   8.846
  358POPC   C2B 8624  20.937  15.101   8.432
  358POPC   C3B 8625  20.826  15.321   8.109
  358POPC   C4B 8626  21.001  15.323   7.756
  359POPC   NC3 8627  41.785  14.245   9.281
  359POPC   PO4 8628  41.705  13.671   9.653
  359POPC   GL1 8629  41.703  13.718   9.146
  359POPC   GL2 8630  41.380  13.561   8.983
  359POPC   C1A 8631  41.703  13.707   8.650
  359POPC   D2A 8632  41.592  13.542   8.253
  359POPC   C3A 8633  41.789  13.664   7.854
  359POPC   C4A 8634  41.703  13.478   7.447
  359POPC   C1B 8635  41.192  13.752   8.593
  359POPC   C2B 8636  41.091  13.610   8.169
  359POPC   C3B 8637  41.295  13.549   7.787
  359POPC   C4B 8638  41.336  13.878   7.520
  360POPC   NC3 8639  34.533  18.663   9.473
  360POPC   PO4 8640  34.028  18.182   9.419
  360POPC   GL1 8641  34.375  18.329   9.115
  360POPC   GL2 8642  34.725  18.337   9.123
  360POPC   C1A 8643  34.469  18.568   8.756
  360POPC   D2A 8644  34.562  18.732   8.376
  360POPC   C3A 8645  34.548  18.462   8.057
  360POPC   C4A 8646  34.353  18.429   7.676
  360POPC   C1B 8647  34.649  18.088   8.769
  360POPC   C2B 8648  34.840  17.913   8.449
  360POPC   C3B 8649  34.619  17.956   8.092
  360POPC   C4B 8650  34.789  18.134   7.724
  361POPC   NC3 8651  10.230  31.468   9.485
  361POPC   PO4 8652  10.835  31.737   9.495
  361POPC   GL1 8653  10.483  31.805   9.185
  361POPC   GL2 8654  10.438  31.452   9.027
  361POPC   C1A 8655  10.429  31.863   8.740
  361POPC   D2A 8656  10.493  31.473   8.507
  361POPC   C3A 8657  10.541  31.495   8.086
  361POPC   C4A 8658  10.333  31.596   7.720
  361POPC   C1B 8659  10.238  31.122   8.778
  361POPC   C2B 8660  10.175  31.003   8.347
  361POPC   C3B 8661  10.296  31.086   7.913
  361POPC   C4B 8662  10.300  31.132   7.444
  362POPC   NC3 8663  25.759  36.584   9.498
  362POPC   PO4 8664  25.867  36.014   9.561
  362POPC   GL1 8665  25.998  36.229   9.207
  362POPC   GL2 8666  25.683  36.281   9.067
  362POPC   C1A 8667  26.108  36.273   8.779
  362POPC   D2A 8668  26.106  35.997   8.438
  362POPC   C3A 8669  26.218  36.137   8.045
  362POPC   C4A 8670  26.428  36.082   7.699
  362POPC   C1B 8671  25.761  35.900   8.813
  362POPC   C2B 8672  25.624  35.730   8.411
  362POPC   C3B 8673  25.747  35.961   8.055
  362POPC   C4B 8674  25.794  36.311   7.775
  363POPC   NC3 8675  41.347   7.597   9.672
  363POPC   PO4 8676  41.959   7.556   9.676
  363POPC   GL1 8677  41.689   7.600   9.280
  363POPC   GL2 8678  41.340   7.597   9.140
  363POPC   C1A 8679  41.742   7.678   8.819
  363POPC   D2A 8680  41.668   7.447   8.444
  363POPC   C3A 8681  41.778   7.623   8.039
  363POPC   C4A 8682  41.750   7.407   7.631
  363POPC   C1B 8683  41.198   7.324   8.773
  363POPC   C2B 8684  41.288   7.089   8.376
  363POPC   C3B 8685  41.376   7.059   7.922
  363POPC   C4B 8686  41.195   7.169   7.511
  364POPC   NC3 8687  29.622  29.421   9.400
  364POPC   PO4 8688  30.014  28.834   9.470
  364POPC   GL1 8689  29.978  29.140   9.167
  364POPC   GL2 8690  29.672  29.097   9.008
  364POPC   C1A 8691  30.016  29.326   8.729
  364POPC   D2A 8692  30.191  29.181   8.338
  364POPC   C3A 8693  29.953  29.085   7.952
  364POPC   C4A 8694  30.087  29.038   7.528
  364POPC   C1B 8695  29.989  28.821   8.778
  364POPC   C2B 8696  29.868  28.772   8.367
  364POPC   C3B 8697  29.593  28.740   8.018
  364POPC   C4B 8698  29.621  28.808   7.568
  365POPC   NC3 8699  23.573  23.525   9.385
  365POPC   PO4 8700  24.031  24.048   9.347
  365POPC   GL1 8701  23.769  23.861   9.053
  365POPC   GL2 8702  23.420  23.875   9.046
  365POPC   C1A 8703  23.769  23.791   8.635
  365POPC   D2A 8704  23.803  23.941   8.235
  365POPC   C3A 8705  24.062  23.631   8.057
  365POPC   C4A 8706  24.210  23.607   7.668
  365POPC   C1B 8707  23.357  23.528   8.787
  365POPC   C2B 8708  23.567  23.355   8.464
  365POPC   C3B 8709  23.542  23.544   8.062
  365POPC   C4B 8710  23.714  23.799   7.717
  366POPC   NC3 8711  10.020   0.287   9.572
  366POPC   PO4 8712   9.500   0.628   9.396
  366POPC   GL1 8713   9.906   0.636   9.190
  366POPC   GL2 8714   9.875   0.285   9.074
  366POPC   C1A 8715   9.944   0.631   8.735
  366POPC   D2A 8716   9.778   0.348   8.403
  366POPC   C3A 8717   9.901   0.456   7.989
  366POPC   C4A 8718   9.847   0.750   7.665
  366POPC   C1B 8719   9.558   0.054   8.770
  366POPC   C2B 8720   9.306   0.051   8.407
  366POPC   C3B 8721   9.427   0.231   8.026
  366POPC   C4B 8722   9.599   0.269   7.633
  367POPC   NC3 8723  11.872  16.702   9.674
  367POPC   PO4 8724  12.330  17.143   9.654
  367POPC   GL1 8725  12.229  17.029   9.233
  367POPC   GL2 8726  11.900  16.948   9.214
  367POPC   C1A 8727  12.298  16.800   8.832
  367POPC   D2A 8728  12.106  16.540   8.494
  367POPC   C3A 8729  12.251  16.614   8.058
  367POPC   C4A 8730  12.165  16.382   7.673
  367POPC   C1B 8731  11.763  16.810   8.811
  367POPC   C2B 8732  11.685  16.960   8.398
  367POPC   C3B 8733  11.741  16.801   7.979
  367POPC   C4B 8734  12.003  16.854   7.650
  368POPC   NC3 8735  41.398   9.351   9.405
  368POPC   PO4 8736  41.787   8.770   9.561
  368POPC   GL1 8737  41.653   8.955   9.199
  368POPC   GL2 8738  41.303   8.881   9.174
  368POPC   C1A 8739  41.771   9.076   8.804
  368POPC   D2A 8740  41.806   8.863   8.423
  368POPC   C3A 8741  41.734   9.030   8.055
  368POPC   C4A 8742  41.725   8.883   7.656
  368POPC   C1B 8743  41.262   8.999   8.758
  368POPC   C2B 8744  41.317   9.007   8.337
  368POPC   C3B 8745  41.255   8.877   7.910
  368POPC   C4B 8746  41.249   8.882   7.442
  369POPC   NC3 8747  25.259  38.674   9.556
  369POPC   PO4 8748  25.549  38.052   9.554
  369POPC   GL1 8749  25.333  38.278   9.192
  369POPC   GL2 8750  25.170  38.592   9.056
  369POPC   C1A 8751  25.200  38.142   8.795
  369POPC   D2A 8752  25.364  38.331   8.435
  369POPC   C3A 8753  25.318  38.113   8.072
  369POPC   C4A 8754  25.445  38.194   7.633
  369POPC   C1B 8755  25.589  38.614   8.817
  369POPC   C2B 8756  25.751  38.681   8.376
  369POPC   C3B 8757  25.492  38.602   7.993
  369POPC   C4B 8758  25.058  38.466   7.822
  370POPC   NC3 8759   6.209  33.818   9.452
  370POPC   PO4 8760   6.848  33.459   9.591
  370POPC   GL1 8761   6.730  33.481   9.192
  370POPC   GL2 8762   6.638  33.835   9.139
  370POPC   C1A 8763   6.621  33.411   8.774
  370POPC   D2A 8764   6.498  33.653   8.419
  370POPC   C3A 8765   6.535  33.463   8.003
  370POPC   C4A 8766   6.510  33.789   7.699
  370POPC   C1B 8767   7.007  33.749   8.860
  370POPC   C2B 8768   7.134  33.848   8.441
  370POPC   C3B 8769   6.904  33.828   8.087
  370POPC   C4B 8770   7.016  33.773   7.670
  371POPC   NC3 8771  32.356   6.900   9.525
  371POPC   PO4 8772  32.156   6.233   9.580
  371POPC   GL1 8773  32.170   6.516   9.257
  371POPC   GL2 8774  32.484   6.460   9.219
  371POPC   C1A 8775  32.028   6.614   8.854
  371POPC   D2A 8776  32.215   6.552   8.442
  371POPC   C3A 8777  32.150   6.749   8.042
  371POPC   C4A 8778  32.010   6.569   7.628
  371POPC   C1B 8779  32.544   6.658   8.829
  371POPC   C2B 8780  32.755   6.533   8.476
  371POPC   C3B 8781  32.634   6.576   8.081
  371POPC   C4B 8782  32.516   6.633   7.682
  372POPC   NC3 8783  37.178  14.179   9.801
  372POPC   PO4 8784  36.712  14.521   9.522
  372POPC   GL1 8785  36.840  14.353   9.147
  372POPC   GL2 8786  37.185  14.388   9.114
  372POPC   C1A 8787  36.887  14.211   8.725
  372POPC   D2A 8788  36.932  14.509   8.390
  372POPC   C3A 8789  36.776  14.306   8.035
  372POPC   C4A 8790  36.906  14.387   7.629
  372POPC   C1B 8791  37.397  14.177   8.738
  372POPC   C2B 8792  37.245  14.118   8.359
  372POPC   C3B 8793  37.277  14.282   7.972
  372POPC   C4B 8794  37.294  14.020   7.624
  373POPC   NC3 8795  13.820  39.070   9.500
  373POPC   PO4 8796  13.653  39.695   9.471
  373POPC   GL1 8797  13.424  39.540   9.036
  373POPC   GL2 8798  13.200  39.229   9.033
  373POPC   C1A 8799  13.485  39.312   8.580
  373POPC   D2A 8800  13.790  39.214   8.197
  373POPC   C3A 8801  13.708  39.375   7.778
  373POPC   C4A 8802  13.587  39.490   7.349
  373POPC   C1B 8803  13.156  38.896   8.730
  373POPC   C2B 8804  13.231  38.834   8.307
  373POPC   C3B 8805  13.495  38.887   7.949
  373POPC   C4B 8806  13.468  38.943   7.518
  374POPC   NC3 8807  31.003  12.533   9.469
  374POPC   PO4 8808  30.337  12.452   9.441
  374POPC   GL1 8809  30.615  12.707   9.159
  374POPC   GL2 8810  30.731  13.063   9.295
  374POPC   C1A 8811  30.679  12.707   8.702
  374POPC   D2A 8812  30.397  12.875   8.366
  374POPC   C3A 8813  30.473  12.695   7.953
  374POPC   C4A 8814  30.359  12.491   7.576
  374POPC   C1B 8815  30.863  13.171   8.858
  374POPC   C2B 8816  30.861  13.118   8.406
  374POPC   C3B 8817  30.669  13.178   7.999
  374POPC   C4B 8818  31.011  13.134   7.744
  375POPC   NC3 8819  12.124  43.523   9.580
  375POPC   PO4 8820  11.731  44.050   9.489
  375POPC   GL1 8821  11.983  43.843   9.185
  375POPC   GL2 8822  11.760  43.542   9.193
  375POPC   C1A 8823  12.235  43.899   8.788
  375POPC   D2A 8824  12.014  43.928   8.368
  375POPC   C3A 8825  12.274  43.991   8.002
  375POPC   C4A 8826  12.541  44.005   7.650
  375POPC   C1B 8827  11.829  43.609   8.747
  375POPC   C2B 8828  11.777  43.462   8.323
  375POPC   C3B 8829  11.934  43.614   7.935
  375POPC   C4B 8830  12.045  43.834   7.537
  376POPC   NC3 8831  18.360  12.613   9.473
  376POPC   PO4 8832  18.681  13.171   9.382
  376POPC   GL1 8833  18.448  12.907   9.107
  376POPC   GL2 8834  18.598  12.633   8.964
  376POPC   C1A 8835  18.114  12.771   8.823
  376POPC   D2A 8836  18.272  12.631   8.433
  376POPC   C3A 8837  18.151  12.729   7.989
  376POPC   C4A 8838  18.459  12.700   7.685
  376POPC   C1B 8839  18.533  13.007   8.643
  376POPC   C2B 8840  18.371  13.106   8.224
  376POPC   C3B 8841  18.326  13.199   7.779
  376POPC   C4B 8842  18.412  13.159   7.340
  377POPC   NC3 8843  34.743   3.133   9.491
  377POPC   PO4 8844  34.272   2.622   9.551
  377POPC   GL1 8845  34.629   2.574   9.243
  377POPC   GL2 8846  34.487   2.781   9.019
  377POPC   C1A 8847  34.887   2.503   8.840
  377POPC   D2A 8848  34.932   2.756   8.490
  377POPC   C3A 8849  34.569   2.750   8.223
  377POPC   C4A 8850  34.556   2.763   7.780
  377POPC   C1B 8851  34.282   2.945   8.632
  377POPC   C2B 8852  34.232   3.275   8.294
  377POPC   C3B 8853  34.312   3.287   7.847
  377POPC   C4B 8854  34.147   3.014   7.496
  378POPC   NC3 8855  13.771  37.286   9.576
  378POPC   PO4 8856  13.463  37.834   9.563
  378POPC   GL1 8857  13.521  37.668   9.168
  378POPC   GL2 8858  13.850  37.554   9.120
  378POPC   C1A 8859  13.477  37.575   8.741
  378POPC   D2A 8860  13.257  37.775   8.423
  378POPC   C3A 8861  13.482  37.596   8.103
  378POPC   C4A 8862  13.453  37.617   7.677
  378POPC   C1B 8863  13.881  37.247   8.774
  378POPC   C2B 8864  13.810  37.222   8.315
  378POPC   C3B 8865  13.881  37.363   7.846
  378POPC   C4B 8866  13.909  37.655   7.456
  379POPC   NC3 8867  17.334  33.290   9.589
  379POPC   PO4 8868  17.759  32.852   9.330
  379POPC   GL1 8869  17.582  33.194   9.151
  379POPC   GL2 8870  17.229  33.067   9.163
  379POPC   C1A 8871  17.442  33.265   8.733
  379POPC   D2A 8872  17.477  33.368   8.307
  379POPC   C3A 8873  17.640  33.091   8.050
  379POPC   C4A 8874  17.576  33.080   7.648
  379POPC   C1B 8875  17.092  32.855   8.798
  379POPC   C2B 8876  17.217  32.910   8.398
  379POPC   C3B 8877  17.137  33.058   8.003
  379POPC   C4B 8878  17.236  32.690   7.800
  380POPC   NC3 8879  40.668   7.017   9.363
  380POPC   PO4 8880  41.129   6.520   9.404
  380POPC   GL1 8881  40.887   6.624   9.104
  380POPC   GL2 8882  40.538   6.529   9.235
  380POPC   C1A 8883  40.918   6.842   8.715
  380POPC   D2A 8884  40.573   6.863   8.422
  380POPC   C3A 8885  40.675   6.647   8.036
  380POPC   C4A 8886  40.873   6.822   7.682
  380POPC   C1B 8887  40.510   6.493   8.784
  380POPC   C2B 8888  40.553   6.273   8.403
  380POPC   C3B 8889  40.355   6.230   8.034
  380POPC   C4B 8890  40.263   6.490   7.701
  381POPC   NC3 8891   2.715   5.398   9.464
  381POPC   PO4 8892   2.891   4.708   9.431
  381POPC   GL1 8893   2.614   4.897   9.111
  381POPC   GL2 8894   2.552   5.258   8.997
  381POPC   C1A 8895   2.545   4.863   8.677
  381POPC   D2A 8896   2.722   5.151   8.358
  381POPC   C3A 8897   2.810   4.883   8.020
  381POPC   C4A 8898   2.533   4.757   7.711
  381POPC   C1B 8899   2.735   5.566   8.692
  381POPC   C2B 8900   3.016   5.617   8.325
  381POPC   C3B 8901   3.028   5.373   7.937
  381POPC   C4B 8902   2.659   5.284   7.752
  382POPC   NC3 8903  31.910  44.162   9.530
  382POPC   PO4 8904  32.401  43.762   9.743
  382POPC   GL1 8905  32.323  43.861   9.242
  382POPC   GL2 8906  32.150  44.178   9.081
  382POPC   C1A 8907  32.554  44.022   8.825
  382POPC   D2A 8908  32.466  44.279   8.427
  382POPC   C3A 8909  32.314  44.041   8.077
  382POPC   C4A 8910  32.454  43.964   7.683
  382POPC   C1B 8911  31.983  44.109   8.657
  382POPC   C2B 8912  31.944  44.321   8.260
  382POPC   C3B 8913  31.857  44.154   7.861
  382POPC   C4B 8914  31.960  43.782   7.689
  383POPC   NC3 8915  15.211  25.723   9.464
  383POPC   PO4 8916  15.089  26.388   9.458
  383POPC   GL1 8917  15.230  26.113   9.103
  383POPC   GL2 8918  14.963  25.882   9.069
  383POPC   C1A 8919  15.350  26.109   8.645
  383POPC   D2A 8920  15.451  26.423   8.291
  383POPC   C3A 8921  15.393  26.319   7.817
  383POPC   C4A 8922  15.071  26.289   7.470
  383POPC   C1B 8923  14.764  25.840   8.723
  383POPC   C2B 8924  14.994  25.743   8.388
  383POPC   C3B 8925  15.251  25.953   8.147
  383POPC   C4B 8926  15.148  25.869   7.756
  384POPC   NC3 8927  27.113   3.462   9.614
  384POPC   PO4 8928  26.476   3.822   9.493
  384POPC   GL1 8929  26.692   3.764   9.130
  384POPC   GL2 8930  26.848   3.493   9.153
  384POPC   C1A 8931  26.856   3.862   8.739
  384POPC   D2A 8932  27.014   3.697   8.342
  384POPC   C3A 8933  26.716   3.446   8.058
  384POPC   C4A 8934  26.745   3.668   7.692
  384POPC   C1B 8935  26.726   3.372   8.726
  384POPC   C2B 8936  26.994   3.198   8.409
  384POPC   C3B 8937  27.184   3.286   8.007
  384POPC   C4B 8938  27.114   3.332   7.589
  385POPC   NC3 8939  16.525   3.340   9.484
  385POPC   PO4 8940  17.215   3.592   9.465
  385POPC   GL1 8941  17.030   3.409   9.081
  385POPC   GL2 8942  16.664   3.271   8.996
  385POPC   C1A 8943  17.159   3.496   8.661
  385POPC   D2A 8944  17.118   3.690   8.259
  385POPC   C3A 8945  16.749   3.642   8.059
  385POPC   C4A 8946  16.767   3.418   7.713
  385POPC   C1B 8947  16.650   3.711   8.829
  385POPC   C2B 8948  16.660   4.007   8.473
  385POPC   C3B 8949  16.452   4.065   8.056
  385POPC   C4B 8950  16.536   3.898   7.631
  386POPC   NC3 8951  14.860  42.878   9.535
  386POPC   PO4 8952  14.184  43.104   9.427
  386POPC   GL1 8953  14.323  43.304   9.085
  386POPC   GL2 8954  14.660  43.202   9.123
  386POPC   C1A 8955  14.329  43.130   8.665
  386POPC   D2A 8956  14.554  42.960   8.314
  386POPC   C3A 8957  14.322  43.066   7.948
  386POPC   C4A 8958  14.296  42.844   7.549
  386POPC   C1B 8959  14.725  43.462   8.754
  386POPC   C2B 8960  14.544  43.479   8.340
  386POPC   C3B 8961  14.720  43.409   7.957
  386POPC   C4B 8962  14.736  43.087   7.629
  387POPC   NC3 8963  32.220  42.390   9.538
  387POPC   PO4 8964  32.494  41.811   9.470
  387POPC   GL1 8965  32.531  42.178   9.186
  387POPC   GL2 8966  32.176  42.249   9.056
  387POPC   C1A 8967  32.549  42.261   8.728
  387POPC   D2A 8968  32.233  42.293   8.429
  387POPC   C3A 8969  32.191  42.015   8.136
  387POPC   C4A 8970  32.526  42.070   7.823
  387POPC   C1B 8971  32.149  42.641   8.798
  387POPC   C2B 8972  32.068  42.762   8.344
  387POPC   C3B 8973  32.174  42.507   7.960
  387POPC   C4B 8974  32.090  42.250   7.592
  388POPC   NC3 8975  34.659  39.559   9.522
  388POPC   PO4 8976  34.697  38.923   9.584
  388POPC   GL1 8977  34.429  39.121   9.258
  388POPC   GL2 8978  34.681  39.334   9.062
  388POPC   C1A 8979  34.243  39.150   8.824
  388POPC   D2A 8980  34.392  39.527   8.588
  388POPC   C3A 8981  34.430  39.494   8.118
  388POPC   C4A 8982  34.269  39.428   7.670
  388POPC   C1B 8983  34.712  38.937   8.865
  388POPC   C2B 8984  34.477  38.742   8.530
  388POPC   C3B 8985  34.440  38.914   8.101
  388POPC   C4B 8986  34.733  39.165   7.840
  389POPC   NC3 8987  28.258  22.081   9.830
  389POPC   PO4 8988  28.759  22.437   9.540
  389POPC   GL1 8989  28.509  22.162   9.261
  389POPC   GL2 8990  28.594  22.308   8.951
  389POPC   C1A 8991  28.407  21.848   8.893
  389POPC   D2A 8992  28.465  21.815   8.451
  389POPC   C3A 8993  28.246  21.988   8.066
  389POPC   C4A 8994  28.420  22.325   7.801
  389POPC   C1B 8995  28.122  22.270   8.930
  389POPC   C2B 8996  28.037  22.257   8.509
  389POPC   C3B 8997  28.103  22.503   8.179
  389POPC   C4B 8998  27.896  22.446   7.804
  390POPC   NC3 8999  39.639  27.042   9.804
  390POPC   PO4 9000  40.100  27.002   9.338
  390POPC   GL1 9001  39.903  26.922   8.974
  390POPC   GL2 9002  40.044  27.234   8.881
  390POPC   C1A 9003  39.962  26.642   8.657
  390POPC   D2A 9004  40.150  26.671   8.278
  390POPC   C3A 9005  39.981  26.992   7.999
  390POPC   C4A 9006  39.895  26.617   7.818
  390POPC   C1B 9007  40.116  27.168   8.474
  390POPC   C2B 9008  40.446  27.120   8.190
  390POPC   C3B 9009  40.452  26.838   7.900
  390POPC   C4B 9010  40.291  26.904   7.539
  391POPC   NC3 9011  18.125   0.440   9.563
  391POPC   PO4 9012  18.775   0.526   9.660
  391POPC   GL1 9013  18.512   0.404   9.219
  391POPC   GL2 9014  18.193   0.260   9.109
  391POPC   C1A 9015  18.520   0.454   8.751
  391POPC   D2A 9016  18.777   0.484   8.345
  391POPC   C3A 9017  18.533   0.406   7.947
  391POPC   C4A 9018  18.561   0.518   7.497
  391POPC   C1B 9019  17.959   0.347   8.773
  391POPC   C2B 9020  17.862   0.518   8.399
  391POPC   C3B 9021  18.050   0.693   8.059
  391POPC   C4B 9022  18.076   0.504   7.681
  392POPC   NC3 9023  24.109  41.691   9.436
  392POPC   PO4 9024  23.466  41.650   9.471
  392POPC   GL1 9025  23.689  41.440   9.187
  392POPC   GL2 9026  23.637  41.089   9.150
  392POPC   C1A 9027  23.727  41.590   8.798
  392POPC   D2A 9028  23.684  41.508   8.381
  392POPC   C3A 9029  23.748  41.805   8.048
  392POPC   C4A 9030  23.839  41.715   7.640
  392POPC   C1B 9031  23.496  41.116   8.725
  392POPC   C2B 9032  23.671  41.006   8.296
  392POPC   C3B 9033  23.731  41.264   7.918
  392POPC   C4B 9034  23.456  41.389   7.579
  393POPC   NC3 9035   1.884  30.740   9.636
  393POPC   PO4 9036   2.462  30.436   9.405
  393POPC   GL1 9037   2.123  30.680   9.151
  393POPC   GL2 9038   1.762  30.844   9.158
  393POPC   C1A 9039   1.963  30.505   8.745
  393POPC   D2A 9040   2.222  30.485   8.379
  393POPC   C3A 9041   2.085  30.552   7.980
  393POPC   C4A 9042   1.777  30.426   7.728
  393POPC   C1B 9043   1.820  30.987   8.736
  393POPC   C2B 9044   1.731  30.758   8.335
  393POPC   C3B 9045   1.737  30.921   7.921
  393POPC   C4B 9046   2.050  31.184   7.833
  394POPC   NC3 9047   4.273  44.219   9.660
  394POPC   PO4 9048   4.512  44.847   9.516
  394POPC   GL1 9049   4.326  44.623   9.202
  394POPC   GL2 9050   3.986  44.684   9.180
  394POPC   C1A 9051   4.468  44.478   8.793
  394POPC   D2A 9052   4.436  44.191   8.471
  394POPC   C3A 9053   4.537  44.435   8.143
  394POPC   C4A 9054   4.519  44.522   7.716
  394POPC   C1B 9055   4.170  44.899   8.806
  394POPC   C2B 9056   4.114  44.682   8.439
  394POPC   C3B 9057   4.191  44.816   8.055
  394POPC   C4B 9058   4.022  44.659   7.719
  395POPC   NC3 9059  43.454  32.930   9.539
  395POPC   PO4 9060  42.849  33.100   9.302
  395POPC   GL1 9061  43.183  33.127   9.077
  395POPC   GL2 9062  42.907  33.188   8.802
  395POPC   C1A 9063  43.412  33.088   8.706
  395POPC   D2A 9064  43.218  33.296   8.383
  395POPC   C3A 9065  43.402  33.315   7.996
  395POPC   C4A 9066  43.420  33.006   7.631
  395POPC   C1B 9067  42.991  32.757   8.772
  395POPC   C2B 9068  43.169  32.653   8.435
  395POPC   C3B 9069  43.260  32.849   8.102
  395POPC   C4B 9070  42.946  32.937   7.800
  396POPC   NC3 9071  40.462   2.641   9.277
  396POPC   PO4 9072  40.716   3.145   9.627
  396POPC   GL1 9073  40.866   2.933   9.144
  396POPC   GL2 9074  40.598   2.878   8.847
  396POPC   C1A 9075  41.037   2.763   8.694
  396POPC   D2A 9076  41.008   2.824   8.203
  396POPC   C3A 9077  40.645   3.046   8.015
  396POPC   C4A 9078  40.541   3.179   7.602
  396POPC   C1B 9079  40.590   2.436   8.675
  396POPC   C2B 9080  40.334   2.288   8.345
  396POPC   C3B 9081  40.648   2.446   8.060
  396POPC   C4B 9082  40.678   2.657   7.683
  397POPC   NC3 9083  11.137  39.722   9.354
  397POPC   PO4 9084  11.518  39.248   9.763
  397POPC   GL1 9085  11.366  39.201   9.250
  397POPC   GL2 9086  11.076  39.293   9.102
  397POPC   C1A 9087  11.293  39.041   8.741
  397POPC   D2A 9088  11.189  39.249   8.340
  397POPC   C3A 9089  11.459  39.144   8.021
  397POPC   C4A 9090  11.485  38.875   7.687
  397POPC   C1B 9091  11.485  39.478   8.843
  397POPC   C2B 9092  11.478  39.673   8.460
  397POPC   C3B 9093  11.407  39.690   8.040
  397POPC   C4B 9094  11.506  39.501   7.666
  398POPC   NC3 9095   9.815  19.445   9.414
  398POPC   PO4 9096   9.749  18.748   9.495
  398POPC   GL1 9097   9.608  18.935   9.132
  398POPC   GL2 9098   9.946  19.077   9.088
  398POPC   C1A 9099   9.570  19.232   8.767
  398POPC   D2A 9100   9.564  19.364   8.337
  398POPC   C3A 9101   9.687  19.160   7.928
  398POPC   C4A 9102   9.630  19.116   7.463
  398POPC   C1B 9103  10.044  19.431   8.807
  398POPC   C2B 9104  10.159  19.388   8.392
  398POPC   C3B 9105  10.201  19.180   7.996
  398POPC   C4B 9106  10.105  19.272   7.571
  399POPC   NC3 9107  27.120  21.201   9.360
  399POPC   PO4 9108  26.691  20.712   9.523
  399POPC   GL1 9109  26.744  20.411   9.161
  399POPC   GL2 9110  26.962  20.600   9.040
  399POPC   C1A 9111  26.807  20.246   8.712
  399POPC   D2A 9112  27.003  20.384   8.337
  399POPC   C3A 9113  26.849  20.229   7.940
  399POPC   C4A 9114  27.120  20.275   7.593
  399POPC   C1B 9115  27.041  20.829   8.697
  399POPC   C2B 9116  26.871  20.883   8.301
  399POPC   C3B 9117  26.961  20.743   7.923
  399POPC   C4B 9118  26.733  20.602   7.615
  400POPC   NC3 9119  15.209  14.077   9.569
  400POPC   PO4 9120  14.969  13.359   9.456
  400POPC   GL1 9121  15.134  13.698   9.184
  400POPC   GL2 9122  14.868  13.771   8.924
  400POPC   C1A 9123  15.358  13.885   8.825
  400POPC   D2A 9124  15.390  13.739   8.397
  400POPC   C3A 9125  14.989  13.802   8.197
  400POPC   C4A 9126  15.006  13.841   7.760
  400POPC   C1B 9127  15.058  13.431   8.646
  400POPC   C2B 9128  14.977  13.143   8.278
  400POPC   C3B 9129  14.924  13.348   7.934
  400POPC   C4B 9130  15.312  13.491   7.936
  401POPC   NC3 9131  23.093  31.119   9.422
  401POPC   PO4 9132  23.055  30.568   9.911
  401POPC   GL1 9133  22.959  30.622   9.376
  401POPC   GL2 9134  22.720  30.440   9.154
  401POPC   C1A 9135  23.185  30.753   8.901
  401POPC   D2A 9136  23.134  30.960   8.457
  401POPC   C3A 9137  23.175  30.788   8.006
  401POPC   C4A 9138  23.138  31.029   7.584
  401POPC   C1B 9139  22.714  30.648   8.740
  401POPC   C2B 9140  22.701  30.735   8.303
  401POPC   C3B 9141  22.700  30.428   8.015
  401POPC   C4B 9142  22.942  30.318   7.690
  402POPC   NC3 9143  34.252  23.964   9.544
  402POPC   PO4 9144  33.758  23.514   9.357
  402POPC   GL1 9145  33.799  23.730   9.014
  402POPC   GL2 9146  34.030  24.004   9.079
  402POPC   C1A 9147  33.837  23.573   8.576
  402POPC   D2A 9148  33.706  23.740   8.231
  402POPC   C3A 9149  33.784  23.510   7.907
  402POPC   C4A 9150  33.617  23.425   7.530
  402POPC   C1B 9151  33.870  24.075   8.654
  402POPC   C2B 9152  34.072  24.067   8.284
  402POPC   C3B 9153  34.017  24.023   7.862
  402POPC   C4B 9154  33.916  23.820   7.480
  403POPC   NC3 9155  26.374  21.098   9.463
  403POPC   PO4 9156  25.811  21.365   9.634
  403POPC   GL1 9157  25.997  21.272   9.179
  403POPC   GL2 9158  26.296  21.420   9.087
  403POPC   C1A 9159  26.111  21.098   8.741
  403POPC   D2A 9160  25.860  21.213   8.366
  403POPC   C3A 9161  26.043  21.277   7.951
  403POPC   C4A 9162  25.854  21.159   7.559
  403POPC   C1B 9163  26.431  21.631   8.736
  403POPC   C2B 9164  26.359  21.573   8.299
  403POPC   C3B 9165  26.514  21.510   7.875
  403POPC   C4B 9166  26.319  21.399   7.478
  404POPC   NC3 9167  27.648  12.321   9.558
  404POPC   PO4 9168  27.440  11.749   9.470
  404POPC   GL1 9169  27.625  11.996   9.149
  404POPC   GL2 9170  27.369  12.252   9.112
  404POPC   C1A 9171  27.827  12.144   8.779
  404POPC   D2A 9172  27.720  12.362   8.384
  404POPC   C3A 9173  27.750  12.193   7.945
  404POPC   C4A 9174  27.846  12.410   7.542
  404POPC   C1B 9175  27.337  12.106   8.663
  404POPC   C2B 9176  27.318  12.103   8.207
  404POPC   C3B 9177  27.264  12.162   7.776
  404POPC   C4B 9178  27.140  11.872   7.475
  405POPC   NC3 9179  12.733  12.396   9.492
  405POPC   PO4 9180  12.681  11.814   9.689
  405POPC   GL1 9181  12.812  11.952   9.232
  405POPC   GL2 9182  12.557  12.119   9.091
  405POPC   C1A 9183  12.998  12.078   8.792
  405POPC   D2A 9184  13.121  12.165   8.343
  405POPC   C3A 9185  13.047  11.842   8.013
  405POPC   C4A 9186  13.030  11.707   7.592
  405POPC   C1B 9187  12.518  12.284   8.684
  405POPC   C2B 9188  12.608  12.343   8.264
  405POPC   C3B 9189  12.633  12.108   7.909
  405POPC   C4B 9190  12.471  12.334   7.607
  406POPC   NC3 9191   1.834  27.627   9.509
  406POPC   PO4 9192   2.446  27.991   9.458
  406POPC   GL1 9193   2.186  27.814   9.142
  406POPC   GL2 9194   1.831  27.753   9.011
  406POPC   C1A 9195   2.247  27.575   8.770
  406POPC   D2A 9196   1.959  27.520   8.415
  406POPC   C3A 9197   2.050  27.340   8.010
  406POPC   C4A 9198   1.808  27.384   7.621
  406POPC   C1B 9199   1.994  28.017   8.703
  406POPC   C2B 9200   1.859  28.015   8.289
  406POPC   C3B 9201   1.833  27.808   7.944
  406POPC   C4B 9202   1.608  27.864   7.616
  407POPC   NC3 9203  41.397   0.937   9.389
  407POPC   PO4 9204  41.577   1.685   9.478
  407POPC   GL1 9205  41.640   1.373   9.211
  407POPC   GL2 9206  41.294   1.340   9.107
  407POPC   C1A 9207  41.771   1.223   8.837
  407POPC   D2A 9208  41.539   1.083   8.485
  407POPC   C3A 9209  41.639   0.957   8.055
  407POPC   C4A 9210  41.633   1.176   7.641
  407POPC   C1B 9211  41.304   1.506   8.721
  407POPC   C2B 9212  41.201   1.386   8.273
  407POPC   C3B 9213  41.260   1.475   7.852
  407POPC   C4B 9214  41.117   1.857   7.671
  408POPC   NC3 9215  14.069  22.194   9.480
  408POPC   PO4 9216  14.685  21.942   9.543
  408POPC   GL1 9217  14.484  21.946   9.181
  408POPC   GL2 9218  14.170  21.792   9.152
  408POPC   C1A 9219  14.476  22.251   8.883
  408POPC   D2A 9220  14.196  22.463   8.571
  408POPC   C3A 9221  14.269  22.424   8.150
  408POPC   C4A 9222  14.395  22.336   7.741
  408POPC   C1B 9223  14.082  21.961   8.751
  408POPC   C2B 9224  14.259  21.958   8.325
  408POPC   C3B 9225  14.112  21.947   7.876
  408POPC   C4B 9226  14.354  21.894   7.470
  409POPC   NC3 9227   8.250  32.713   9.972
  409POPC   PO4 9228   7.839  33.064   9.487
  409POPC   GL1 9229   8.097  33.045   9.075
  409POPC   GL2 9230   8.449  32.817   9.078
  409POPC   C1A 9231   8.027  33.289   8.708
  409POPC   D2A 9232   7.900  33.278   8.296
  409POPC   C3A 9233   8.247  33.269   8.059
  409POPC   C4A 9234   8.365  33.028   7.721
  409POPC   C1B 9235   8.221  32.612   8.783
  409POPC   C2B 9236   8.023  32.790   8.430
  409POPC   C3B 9237   8.021  32.741   7.990
  409POPC   C4B 9238   8.307  32.516   7.713
  410POPC   NC3 9239  38.609   8.471   9.905
  410POPC   PO4 9240  38.246   8.073   9.457
  410POPC   GL1 9241  38.465   8.103   9.011
  410POPC   GL2 9242  38.815   8.041   8.965
  410POPC   C1A 9243  38.525   8.201   8.531
  410POPC   D2A 9244  38.285   8.247   8.138
  410POPC   C3A 9245  38.445   8.062   7.728
  410POPC   C4A 9246  38.147   8.021   7.344
  410POPC   C1B 9247  38.764   8.521   8.830
  410POPC   C2B 9248  38.824   8.710   8.440
  410POPC   C3B 9249  38.670   8.581   8.058
  410POPC   C4B 9250  38.707   8.544   7.635
  411POPC   NC3 9251   3.297  44.008   9.706
  411POPC   PO4 9252   3.746  43.522   9.518
  411POPC   GL1 9253   3.544  43.607   9.117
  411POPC   GL2 9254   3.324  43.883   9.068
  411POPC   C1A 9255   3.719  43.787   8.718
  411POPC   D2A 9256   3.677  43.599   8.362
  411POPC   C3A 9257   3.828  43.786   8.045
  411POPC   C4A 9258   3.997  43.748   7.694
  411POPC   C1B 9259   3.220  43.818   8.601
  411POPC   C2B 9260   3.412  44.022   8.227
  411POPC   C3B 9261   3.469  43.967   7.745
  411POPC   C4B 9262   3.229  44.204   7.340
  412POPC   NC3 9263  33.655   8.542   9.748
  412POPC   PO4 9264  33.894   7.967   9.491
  412POPC   GL1 9265  33.609   8.219   9.242
  412POPC   GL2 9266  33.696   8.544   9.226
  412POPC   C1A 9267  33.593   8.280   8.796
  412POPC   D2A 9268  33.631   7.964   8.468
  412POPC   C3A 9269  33.884   8.049   8.104
  412POPC   C4A 9270  33.637   8.146   7.738
  412POPC   C1B 9271  34.053   8.398   8.986
  412POPC   C2B 9272  34.150   8.321   8.541
  412POPC   C3B 9273  34.234   8.567   8.192
  412POPC   C4B 9274  33.967   8.511   7.851
  413POPC   NC3 9275  40.551  25.466   9.537
  413POPC   PO4 9276  41.001  25.018   9.510
  413POPC   GL1 9277  40.703  25.105   9.203
  413POPC   GL2 9278  40.929  25.325   9.128
  413POPC   C1A 9279  40.464  25.237   8.834
  413POPC   D2A 9280  40.601  25.131   8.408
  413POPC   C3A 9281  40.396  25.207   8.025
  413POPC   C4A 9282  40.548  25.400   7.611
  413POPC   C1B 9283  40.935  25.391   8.729
  413POPC   C2B 9284  41.134  25.351   8.365
  413POPC   C3B 9285  40.907  25.424   8.001
  413POPC   C4B 9286  41.007  25.691   7.660
  414POPC   NC3 9287   5.553  20.433   9.507
  414POPC   PO4 9288   6.167  20.131   9.359
  414POPC   GL1 9289   6.097  20.474   9.125
  414POPC   GL2 9290   5.739  20.516   9.049
  414POPC   C1A 9291   6.090  20.602   8.685
  414POPC   D2A 9292   6.041  20.310   8.337
  414POPC   C3A 9293   5.997  20.511   7.938
  414POPC   C4A 9294   6.155  20.925   7.829
  414POPC   C1B 9295   5.590  20.483   8.616
  414POPC   C2B 9296   5.739  20.780   8.304
  414POPC   C3B 9297   5.642  20.894   7.886
  414POPC   C4B 9298   5.822  20.747   7.498
  415POPC   NC3 9299  11.548  41.330   9.512
  415POPC   PO4 9300  10.971  41.671   9.514
  415POPC   GL1 9301  11.271  41.812   9.169
  415POPC   GL2 9302  11.592  41.654   9.129
  415POPC   C1A 9303  11.415  41.936   8.744
  415POPC   D2A 9304  11.225  41.746   8.418
  415POPC   C3A 9305  11.323  41.617   8.013
  415POPC   C4A 9306  11.048  41.329   7.808
  415POPC   C1B 9307  11.437  41.406   8.785
  415POPC   C2B 9308  11.322  41.229   8.366
  415POPC   C3B 9309  11.561  41.149   7.971
  415POPC   C4B 9310  11.677  41.092   7.540
  416POPC   NC3 9311  20.794  23.372   9.399
  416POPC   PO4 9312  20.338  23.013   9.674
  416POPC   GL1 9313  20.491  22.926   9.232
  416POPC   GL2 9314  20.775  23.070   9.003
  416POPC   C1A 9315  20.579  22.616   8.887
  416POPC   D2A 9316  20.812  22.797   8.568
  416POPC   C3A 9317  20.719  22.752   8.144
  416POPC   C4A 9318  20.517  22.966   7.810
  416POPC   C1B 9319  20.392  23.086   8.742
  416POPC   C2B 9320  20.158  23.181   8.346
  416POPC   C3B 9321  20.218  23.353   7.944
  416POPC   C4B 9322  20.397  23.396   7.547
  417POPC   NC3 9323  32.294  35.162   9.548
  417POPC   PO4 9324  32.210  35.828   9.509
  417POPC   GL1 9325  32.444  35.615   9.188
  417POPC   GL2 9326  32.221  35.338   9.095
  417POPC   C1A 9327  32.557  35.468   8.766
  417POPC   D2A 9328  32.308  35.408   8.392
  417POPC   C3A 9329  32.516  35.496   8.023
  417POPC   C4A 9330  32.575  35.344   7.611
  417POPC   C1B 9331  32.070  35.124   8.750
  417POPC   C2B 9332  32.175  34.873   8.379
  417POPC   C3B 9333  32.022  34.933   7.974
  417POPC   C4B 9334  32.027  35.342   7.805
  418POPC   NC3 9335  12.525  34.403   9.483
  418POPC   PO4 9336  11.911  34.863   9.541
  418POPC   GL1 9337  12.141  34.698   9.203
  418POPC   GL2 9338  12.105  34.358   9.180
  418POPC   C1A 9339  12.384  34.685   8.831
  418POPC   D2A 9340  12.470  34.518   8.403
  418POPC   C3A 9341  12.215  34.610   8.027
  418POPC   C4A 9342  12.326  34.548   7.596
  418POPC   C1B 9343  12.155  34.250   8.745
  418POPC   C2B 9344  12.147  34.099   8.335
  418POPC   C3B 9345  11.865  34.192   8.039
  418POPC   C4B 9346  11.860  34.381   7.634
  419POPC   NC3 9347  27.504  40.243   9.428
  419POPC   PO4 9348  27.707  39.692   9.515
  419POPC   GL1 9349  27.817  39.885   9.102
  419POPC   GL2 9350  28.007  40.195   9.096
  419POPC   C1A 9351  27.656  40.164   8.746
  419POPC   D2A 9352  27.439  40.300   8.362
  419POPC   C3A 9353  27.361  39.968   8.076
  419POPC   C4A 9354  27.582  39.889   7.692
  419POPC   C1B 9355  28.124  40.424   8.712
  419POPC   C2B 9356  27.936  40.469   8.310
  419POPC   C3B 9357  27.838  40.182   8.008
  419POPC   C4B 9358  28.080  40.040   7.635
  420POPC   NC3 9359  11.181  18.592   9.424
  420POPC   PO4 9360  11.400  17.938   9.478
  420POPC   GL1 9361  11.263  18.185   9.115
  420POPC   GL2 9362  11.359  18.549   8.971
  420POPC   C1A 9363  11.100  18.209   8.707
  420POPC   D2A 9364  11.339  18.344   8.362
  420POPC   C3A 9365  11.230  18.139   7.967
  420POPC   C4A 9366  11.279  17.973   7.513
  420POPC   C1B 9367  11.714  18.676   8.772
  420POPC   C2B 9368  11.809  18.559   8.385
  420POPC   C3B 9369  11.638  18.630   7.975
  420POPC   C4B 9370  11.400  18.464   7.628
  421POPC   NC3 9371  38.114   6.854   9.477
  421POPC   PO4 9372  38.758   6.490   9.510
  421POPC   GL1 9373  38.583   6.547   9.122
  421POPC   GL2 9374  38.381   6.822   9.052
  421POPC   C1A 9375  38.681   6.607   8.701
  421POPC   D2A 9376  38.451   6.574   8.368
  421POPC   C3A 9377  38.679   6.613   8.011
  421POPC   C4A 9378  38.507   6.470   7.621
  421POPC   C1B 9379  38.317   7.017   8.641
  421POPC   C2B 9380  38.060   6.878   8.260
  421POPC   C3B 9381  38.178   6.740   7.883
  421POPC   C4B 9382  38.520   6.987   7.722
  422POPC   NC3 9383  42.212   6.803   9.581
  422POPC   PO4 9384  42.342   6.160   9.417
  422POPC   GL1 9385  42.189   6.464   9.186
  422POPC   GL2 9386  42.490   6.644   9.169
  422POPC   C1A 9387  42.124   6.786   8.854
  422POPC   D2A 9388  42.415   6.932   8.491
  422POPC   C3A 9389  42.293   6.834   8.034
  422POPC   C4A 9390  42.056   6.956   7.627
  422POPC   C1B 9391  42.487   6.435   8.761
  422POPC   C2B 9392  42.593   6.455   8.337
  422POPC   C3B 9393  42.464   6.346   7.936
  422POPC   C4B 9394  42.273   6.506   7.558
  423POPC   NC3 9395  16.666  11.691   9.425
  423POPC   PO4 9396  16.836  11.014   9.497
  423POPC   GL1 9397  16.728  11.264   9.132
  423POPC   GL2 9398  17.026  11.469   9.066
  423POPC   C1A 9399  16.548  11.138   8.720
  423POPC   D2A 9400  16.729  11.113   8.318
  423POPC   C3A 9401  16.449  11.139   7.970
  423POPC   C4A 9402  16.426  10.965   7.519
  423POPC   C1B 9403  16.816  11.567   8.651
  423POPC   C2B 9404  16.533  11.587   8.282
  423POPC   C3B 9405  16.796  11.519   7.917
  423POPC   C4B 9406  17.024  11.600   7.516
  424POPC   NC3 9407   6.435  37.231   9.507
  424POPC   PO4 9408   6.763  36.658   9.647
  424POPC   GL1 9409   6.625  36.665   9.236
  424POPC   GL2 9410   6.898  36.466   9.140
  424POPC   C1A 9411   6.667  36.932   8.888
  424POPC   D2A 9412   6.956  37.059   8.571
  424POPC   C3A 9413   6.778  36.952   8.191
  424POPC   C4A 9414   6.394  37.122   7.933
  424POPC   C1B 9415   7.004  36.541   8.728
  424POPC   C2B 9416   6.853  36.421   8.321
  424POPC   C3B 9417   6.987  36.546   7.911
  424POPC   C4B 9418   6.819  36.906   7.684
  425POPC   NC3 9419   4.613  33.599   9.525
  425POPC   PO4 9420   4.876  34.259   9.523
  425POPC   GL1 9421   4.977  33.834   9.302
  425POPC   GL2 9422   5.250  33.683   9.236
  425POPC   C1A 9423   4.920  33.645   8.871
  425POPC   D2A 9424   5.082  33.849   8.512
  425POPC   C3A 9425   4.917  33.695   8.152
  425POPC   C4A 9426   5.115  33.704   7.771
  425POPC   C1B 9427   5.442  33.779   8.861
  425POPC   C2B 9428   5.414  33.460   8.560
  425POPC   C3B 9429   5.373  33.446   8.126
  425POPC   C4B 9430   5.619  33.536   7.758
  426POPC   NC3 9431  43.487  43.221   9.633
  426POPC   PO4 9432  43.083  42.710   9.470
  426POPC   GL1 9433  43.014  42.976   9.145
  426POPC   GL2 9434  43.378  43.030   9.176
  426POPC   C1A 9435  42.862  43.004   8.722
  426POPC   D2A 9436  42.752  42.766   8.341
  426POPC   C3A 9437  42.903  43.058   8.048
  426POPC   C4A 9438  42.935  43.379   7.735
  426POPC   C1B 9439  43.372  42.835   8.800
  426POPC   C2B 9440  43.272  42.994   8.429
  426POPC   C3B 9441  43.431  42.904   8.077
  426POPC   C4B 9442  43.323  43.057   7.703
  427POPC   NC3 9443  37.771  24.070   9.766
  427POPC   PO4 9444  38.127  23.617   9.396
  427POPC   GL1 9445  37.733  23.702   9.160
  427POPC   GL2 9446  37.495  23.454   9.178
  427POPC   C1A 9447  37.520  23.730   8.726
  427POPC   D2A 9448  37.720  23.646   8.324
  427POPC   C3A 9449  37.653  23.807   7.907
  427POPC   C4A 9450  37.588  23.820   7.410
  427POPC   C1B 9451  37.790  23.298   8.836
  427POPC   C2B 9452  37.876  23.173   8.407
  427POPC   C3B 9453  37.633  23.239   8.020
  427POPC   C4B 9454  37.737  23.365   7.607
  428POPC   NC3 9455  39.493  28.663   9.327
  428POPC   PO4 9456  39.027  28.301   9.574
  428POPC   GL1 9457  39.193  28.222   9.164
  428POPC   GL2 9458  39.112  28.531   9.001
  428POPC   C1A 9459  39.259  28.136   8.715
  428POPC   D2A 9460  39.141  28.421   8.374
  428POPC   C3A 9461  39.202  28.270   7.970
  428POPC   C4A 9462  39.027  28.069   7.629
  428POPC   C1B 9463  39.492  28.597   8.705
  428POPC   C2B 9464  39.621  28.664   8.301
  428POPC   C3B 9465  39.309  28.823   8.039
  428POPC   C4B 9466  39.281  28.663   7.652
  429POPC   NC3 9467  13.654   4.126   9.549
  429POPC   PO4 9468  14.053   4.487   9.468
  429POPC   GL1 9469  13.739   4.380   9.102
  429POPC   GL2 9470  13.548   4.035   9.058
  429POPC   C1A 9471  13.558   4.440   8.678
  429POPC   D2A 9472  13.308   4.256   8.323
  429POPC   C3A 9473  13.478   4.087   7.911
  429POPC   C4A 9474  13.663   4.281   7.545
  429POPC   C1B 9475  13.837   4.025   8.699
  429POPC   C2B 9476  13.838   4.232   8.274
  429POPC   C3B 9477  14.028   4.120   7.865
  429POPC   C4B 9478  14.119   4.087   7.391
  430POPC   NC3 9479   9.858  37.091   9.607
  430POPC   PO4 9480   9.970  37.822   9.493
  430POPC   GL1 9481   9.816  37.637   9.131
  430POPC   GL2 9482   9.753  37.324   9.178
  430POPC   C1A 9483   9.591  37.600   8.751
  430POPC   D2A 9484   9.513  37.861   8.398
  430POPC   C3A 9485   9.541  37.688   7.962
  430POPC   C4A 9486   9.704  37.931   7.608
  430POPC   C1B 9487   9.901  37.158   8.806
  430POPC   C2B 9488   9.710  37.235   8.396
  430POPC   C3B 9489   9.852  37.274   7.967
  430POPC   C4B 9490   9.766  37.412   7.533
  431POPC   NC3 9491  24.251  17.187   9.368
  431POPC   PO4 9492  24.676  17.666   9.468
  431POPC   GL1 9493  24.610  17.459   9.077
  431POPC   GL2 9494  24.279  17.579   9.052
  431POPC   C1A 9495  24.607  17.624   8.634
  431POPC   D2A 9496  24.702  17.911   8.278
  431POPC   C3A 9497  24.631  17.718   7.884
  431POPC   C4A 9498  24.220  17.593   7.815
  431POPC   C1B 9499  24.257  17.246   8.714
  431POPC   C2B 9500  24.238  17.201   8.262
  431POPC   C3B 9501  23.890  17.229   7.948
  431POPC   C4B 9502  23.955  17.301   7.509
  432POPC   NC3 9503  34.913  30.734   9.487
  432POPC   PO4 9504  34.318  30.290   9.505
  432POPC   GL1 9505  34.463  30.341   9.077
  432POPC   GL2 9506  34.641  30.705   9.027
  432POPC   C1A 9507  34.368  30.444   8.687
  432POPC   D2A 9508  34.481  30.804   8.412
  432POPC   C3A 9509  34.537  30.794   7.954
  432POPC   C4A 9510  34.744  31.039   7.620
  432POPC   C1B 9511  34.883  30.576   8.637
  432POPC   C2B 9512  34.932  30.556   8.169
  432POPC   C3B 9513  34.990  30.443   7.731
  432POPC   C4B 9514  34.970  30.666   7.343
  433POPC   NC3 9515  29.034  36.645   9.395
  433POPC   PO4 9516  29.160  37.239   9.626
  433POPC   GL1 9517  29.303  37.038   9.189
  433POPC   GL2 9518  29.023  37.086   9.090
  433POPC   C1A 9519  29.228  36.771   8.766
  433POPC   D2A 9520  29.133  36.500   8.443
  433POPC   C3A 9521  29.175  36.737   8.057
  433POPC   C4A 9522  29.093  36.764   7.629
  433POPC   C1B 9523  29.222  37.283   8.725
  433POPC   C2B 9524  29.092  37.207   8.300
  433POPC   C3B 9525  29.149  37.265   7.865
  433POPC   C4B 9526  28.881  37.203   7.489
  434POPC   NC3 9527   4.855  18.360   9.491
  434POPC   PO4 9528   5.554  18.146   9.499
  434POPC   GL1 9529   5.276  18.156   9.135
  434POPC   GL2 9530   4.920  18.064   9.110
  434POPC   C1A 9531   5.155  18.268   8.707
  434POPC   D2A 9532   5.334  18.547   8.408
  434POPC   C3A 9533   5.231  18.323   8.068
  434POPC   C4A 9534   5.200  18.383   7.639
  434POPC   C1B 9535   4.620  18.038   8.767
  434POPC   C2B 9536   4.719  17.984   8.362
  434POPC   C3B 9537   4.552  17.983   7.964
  434POPC   C4B 9538   4.839  18.012   7.604
  435POPC   NC3 9539   0.125   4.667   9.609
  435POPC   PO4 9540   0.475   4.140   9.343
  435POPC   GL1 9541   0.415   4.514   9.140
  435POPC   GL2 9542   0.094   4.442   9.133
  435POPC   C1A 9543   0.541   4.485   8.705
  435POPC   D2A 9544   0.683   4.545   8.285
  435POPC   C3A 9545   0.656   4.198   7.998
  435POPC   C4A 9546   0.793   4.216   7.597
  435POPC   C1B 9547   0.012   4.341   8.695
  435POPC   C2B 9548   0.217   4.224   8.281
  435POPC   C3B 9549   0.186   4.304   7.814
  435POPC   C4B 9550   0.141   4.656   7.474
  436POPC   NC3 9551  15.476  31.753   9.269
  436POPC   PO4 9552  15.988  32.032   9.586
  436POPC   GL1 9553  15.998  31.748   9.195
  436POPC   GL2 9554  15.869  31.377   9.186
  436POPC   C1A 9555  15.994  31.613   8.730
  436POPC   D2A 9556  16.119  31.794   8.300
  436POPC   C3A 9557  16.029  31.573   7.905
  436POPC   C4A 9558  16.065  31.695   7.483
  436POPC   C1B 9559  15.934  31.114   8.781
  436POPC   C2B 9560  15.805  31.294   8.350
  436POPC   C3B 9561  15.559  31.590   8.084
  436POPC   C4B 9562  15.595  31.475   7.633
  437POPC   NC3 9563  29.788  28.188   9.370
  437POPC   PO4 9564  29.198  28.190   9.622
  437POPC   GL1 9565  29.305  28.412   9.228
  437POPC   GL2 9566  29.620  28.613   9.150
  437POPC   C1A 9567  29.107  28.375   8.819
  437POPC   D2A 9568  28.877  28.284   8.448
  437POPC   C3A 9569  29.110  28.052   8.152
  437POPC   C4A 9570  29.041  28.102   7.728
  437POPC   C1B 9571  29.488  28.709   8.736
  437POPC   C2B 9572  29.197  28.708   8.403
  437POPC   C3B 9573  29.129  28.532   8.009
  437POPC   C4B 9574  29.485  28.280   7.830
  438POPC   NC3 9575  37.184  25.653   9.513
  438POPC   PO4 9576  36.771  25.101   9.511
  438POPC   GL1 9577  36.999  25.256   9.172
  438POPC   GL2 9578  37.335  25.257   9.178
  438POPC   C1A 9579  36.885  25.401   8.780
  438POPC   D2A 9580  36.946  25.269   8.361
  438POPC   C3A 9581  36.798  25.515   8.056
  438POPC   C4A 9582  36.670  25.312   7.669
  438POPC   C1B 9583  37.288  25.100   8.728
  438POPC   C2B 9584  37.429  25.099   8.269
  438POPC   C3B 9585  37.138  25.132   7.910
  438POPC   C4B 9586  36.878  24.820   7.778
  439POPC   NC3 9587  32.782  43.878   9.489
  439POPC   PO4 9588  33.448  43.683   9.405
  439POPC   GL1 9589  33.198  43.927   9.062
  439POPC   GL2 9590  32.938  43.711   9.017
  439POPC   C1A 9591  33.050  43.905   8.578
  439POPC   D2A 9592  33.142  43.551   8.257
  439POPC   C3A 9593  33.320  43.734   7.866
  439POPC   C4A 9594  33.066  44.059   7.661
  439POPC   C1B 9595  32.695  43.496   8.692
  439POPC   C2B 9596  32.577  43.731   8.383
  439POPC   C3B 9597  32.809  43.909   8.082
  439POPC   C4B 9598  32.846  43.619   7.763
  440POPC   NC3 9599  40.489  21.299   9.523
  440POPC   PO4 9600  41.043  21.582   9.758
  440POPC   GL1 9601  40.878  21.500   9.287
  440POPC   GL2 9602  40.722  21.809   9.205
  440POPC   C1A 9603  40.674  21.419   8.855
  440POPC   D2A 9604  40.700  21.620   8.407
  440POPC   C3A 9605  40.556  21.433   8.019
  440POPC   C4A 9606  40.567  21.189   7.618
  440POPC   C1B 9607  40.933  21.862   8.810
  440POPC   C2B 9608  41.036  22.002   8.365
  440POPC   C3B 9609  41.172  21.787   7.976
  440POPC   C4B 9610  40.928  21.559   7.676
  441POPC   NC3 9611  17.067   2.262   9.423
  441POPC   PO4 9612  16.479   2.051   9.525
  441POPC   GL1 9613  16.500   1.869   9.136
  441POPC   GL2 9614  16.867   1.865   9.079
  441POPC   C1A 9615  16.405   1.716   8.740
  441POPC   D2A 9616  16.690   1.833   8.418
  441POPC   C3A 9617  16.509   2.027   8.087
  441POPC   C4A 9618  16.392   1.974   7.694
  441POPC   C1B 9619  17.087   2.137   8.778
  441POPC   C2B 9620  17.250   2.274   8.381
  441POPC   C3B 9621  17.048   2.036   8.082
  441POPC   C4B 9622  16.873   1.804   7.765
  442POPC   NC3 9623   1.608  18.118   9.394
  442POPC   PO4 9624   2.136  18.511   9.447
  442POPC   GL1 9625   2.019  18.323   9.085
  442POPC   GL2 9626   2.061  17.955   9.189
  442POPC   C1A 9627   2.154  18.469   8.670
  442POPC   D2A 9628   2.267  18.625   8.215
  442POPC   C3A 9629   2.000  18.482   7.845
  442POPC   C4A 9630   1.971  18.346   7.391
  442POPC   C1B 9631   1.811  17.954   8.811
  442POPC   C2B 9632   1.723  18.202   8.490
  442POPC   C3B 9633   1.708  18.096   8.081
  442POPC   C4B 9634   1.939  17.979   7.756
  443POPC   NC3 9635  44.873  21.841   9.604
  443POPC   PO4 9636  44.596  21.271   9.662
  443POPC   GL1 9637  44.441  21.382   9.258
  443POPC   GL2 9638  44.675  21.633   9.180
  443POPC   C1A 9639  44.453  21.291   8.813
  443POPC   D2A 9640  44.535  21.487   8.412
  443POPC   C3A 9641  44.434  21.226   7.996
  443POPC   C4A 9642  44.573  21.104   7.527
  443POPC   C1B 9643  44.585  21.873   8.808
  443POPC   C2B 9644  44.850  21.964   8.465
  443POPC   C3B 9645  44.783  21.771   8.079
  443POPC   C4B 9646  44.754  21.526   7.732
  444POPC   NC3 9647   2.174  26.700   9.668
  444POPC   PO4 9648   1.649  26.486   9.323
  444POPC   GL1 9649   1.823  26.769   9.046
  444POPC   GL2 9650   2.190  26.853   9.111
  444POPC   C1A 9651   1.902  26.582   8.657
  444POPC   D2A 9652   1.935  26.320   8.330
  444POPC   C3A 9653   2.114  26.514   7.992
  444POPC   C4A 9654   2.040  26.510   7.562
  444POPC   C1B 9655   2.092  27.062   8.678
  444POPC   C2B 9656   1.884  26.915   8.273
  444POPC   C3B 9657   1.839  26.920   7.829
  444POPC   C4B 9658   2.209  27.004   7.579
  445POPC   NC3 9659  22.611  28.741   9.827
  445POPC   PO4 9660  22.849  28.131   9.651
  445POPC   GL1 9661  23.011  28.374   9.312
  445POPC   GL2 9662  22.728  28.328   9.147
  445POPC   C1A 9663  23.165  28.394   8.871
  445POPC   D2A 9664  23.162  28.181   8.474
  445POPC   C3A 9665  23.066  28.420   8.094
  445POPC   C4A 9666  23.165  28.242   7.703
  445POPC   C1B 9667  22.764  28.064   8.793
  445POPC   C2B 9668  22.656  28.229   8.399
  445POPC   C3B 9669  22.517  28.282   7.992
  445POPC   C4B 9670  22.713  28.600   7.741
  446POPC   NC3 9671   0.766  11.833   9.413
  446POPC   PO4 9672   0.278  12.360   9.426
  446POPC   GL1 9673   0.321  12.225   9.034
  446POPC   GL2 9674   0.672  12.198   9.042
  446POPC   C1A 9675   0.300  12.265   8.588
  446POPC   D2A 9676   0.222  12.031   8.211
  446POPC   C3A 9677   0.358  12.179   7.824
  446POPC   C4A 9678   0.158  12.408   7.525
  446POPC   C1B 9679   0.578  11.846   8.746
  446POPC   C2B 9680   0.778  11.768   8.346
  446POPC   C3B 9681   0.583  11.750   7.967
  446POPC   C4B 9682   0.710  11.870   7.527
  447POPC   NC3 9683  26.473  40.802   9.363
  447POPC   PO4 9684  25.904  40.640   9.626
  447POPC   GL1 9685  26.038  40.572   9.215
  447POPC   GL2 9686  25.790  40.805   9.121
  447POPC   C1A 9687  26.183  40.658   8.773
  447POPC   D2A 9688  26.101  40.852   8.358
  447POPC   C3A 9689  26.065  40.633   7.946
  447POPC   C4A 9690  26.286  40.895   7.653
  447POPC   C1B 9691  25.687  40.424   8.900
  447POPC   C2B 9692  25.766  40.461   8.490
  447POPC   C3B 9693  25.636  40.725   8.195
  447POPC   C4B 9694  25.510  40.602   7.811
  448POPC   NC3 9695   8.690  35.533   9.524
  448POPC   PO4 9696   9.379  35.411   9.434
  448POPC   GL1 9697   9.104  35.426   9.134
  448POPC   GL2 9698   8.860  35.202   9.084
  448POPC   C1A 9699   8.891  35.688   8.880
  448POPC   D2A 9700   8.769  35.691   8.490
  448POPC   C3A 9701   8.944  35.422   8.185
  448POPC   C4A 9702   9.045  35.621   7.774
  448POPC   C1B 9703   8.837  35.182   8.674
  448POPC   C2B 9704   9.069  34.932   8.401
  448POPC   C3B 9705   8.865  34.925   8.024
  448POPC   C4B 9706   8.586  35.005   7.689
  449POPC   NC3 9707  25.658   7.323   9.410
  449POPC   PO4 9708  24.995   7.600   9.510
  449POPC   GL1 9709  25.222   7.417   9.159
  449POPC   GL2 9710  25.031   7.115   9.163
  449POPC   C1A 9711  25.459   7.205   8.790
  449POPC   D2A 9712  25.490   7.384   8.365
  449POPC   C3A 9713  25.496   7.209   7.990
  449POPC   C4A 9714  25.363   7.413   7.602
  449POPC   C1B 9715  24.948   7.292   8.750
  449POPC   C2B 9716  24.880   7.211   8.343
  449POPC   C3B 9717  24.993   7.363   7.942
  449POPC   C4B 9718  24.890   7.093   7.589
  450POPC   NC3 9719  10.494  29.920   9.471
  450POPC   PO4 9720  11.066  30.070   9.736
  450POPC   GL1 9721  10.927  29.842   9.258
  450POPC   GL2 9722  10.751  29.490   9.222
  450POPC   C1A 9723  10.591  29.973   8.835
  450POPC   D2A 9724  10.198  30.005   8.522
  450POPC   C3A 9725  10.290  30.093   8.059
  450POPC   C4A 9726  10.245  29.839   7.694
  450POPC   C1B 9727  10.817  29.524   8.783
  450POPC   C2B 9728  10.638  29.764   8.379
  450POPC   C3B 9729  10.619  29.650   7.950
  450POPC   C4B 9730  10.441  29.362   7.595
  451POPC   NC3 9731  32.792  26.276   9.650
  451POPC   PO4 9732  33.437  26.030   9.540
  451POPC   GL1 9733  33.241  25.896   9.158
  451POPC   GL2 9734  32.885  25.780   9.194
  451POPC   C1A 9735  33.273  25.996   8.737
  451POPC   D2A 9736  33.074  25.916   8.367
  451POPC   C3A 9737  33.020  26.256   8.103
  451POPC   C4A 9738  33.169  26.184   7.707
  451POPC   C1B 9739  32.746  25.907   8.760
  451POPC   C2B 9740  32.583  25.836   8.293
  451POPC   C3B 9741  32.790  25.854   7.836
  451POPC   C4B 9742  32.592  25.663   7.406
  452POPC   NC3 9743   1.635  37.120   9.603
  452POPC   PO4 9744   1.065  36.758   9.676
  452POPC   GL1 9745   1.304  36.892   9.290
  452POPC   GL2 9746   1.306  37.282   9.253
  452POPC   C1A 9747   1.386  36.812   8.843
  452POPC   D2A 9748   1.114  36.698   8.461
  452POPC   C3A 9749   1.160  36.916   8.052
  452POPC   C4A 9750   0.965  36.868   7.641
  452POPC   C1B 9751   1.656  37.281   8.959
  452POPC   C2B 9752   1.672  37.330   8.522
  452POPC   C3B 9753   1.652  37.276   8.071
  452POPC   C4B 9754   1.341  37.299   7.744
  453POPC   NC3 9755  41.424  11.665   9.370
  453POPC   PO4 9756  41.367  11.053   9.521
  453POPC   GL1 9757  41.398  11.120   9.123
  453POPC   GL2 9758  41.103  10.880   9.074
  453POPC   C1A 9759  41.596  11.400   8.759
  453POPC   D2A 9760  41.548  11.647   8.351
  453POPC   C3A 9761  41.591  11.470   7.882
  453POPC   C4A 9762  41.694  11.462   7.388
  453POPC   C1B 9763  41.164  11.140   8.695
  453POPC   C2B 9764  41.309  11.162   8.247
  453POPC   C3B 9765  41.237  11.041   7.791
  453POPC   C4B 9766  41.155  11.262   7.384
  454POPC   NC3 9767  27.351  40.944   9.464
  454POPC   PO4 9768  27.910  40.535   9.472
  454POPC   GL1 9769  27.682  40.659   9.127
  454POPC   GL2 9770  27.327  40.565   9.095
  454POPC   C1A 9771  27.665  40.654   8.703
  454POPC   D2A 9772  27.731  40.914   8.412
  454POPC   C3A 9773  27.589  40.724   8.039
  454POPC   C4A 9774  27.792  40.602   7.710
  454POPC   C1B 9775  27.249  40.882   8.801
  454POPC   C2B 9776  27.209  40.754   8.413
  454POPC   C3B 9777  27.083  40.748   8.012
  454POPC   C4B 9778  27.091  41.144   7.769
  455POPC   NC3 9779  16.678  24.989   9.426
  455POPC   PO4 9780  16.701  25.608   9.396
  455POPC   GL1 9781  16.479  25.345   9.060
  455POPC   GL2 9782  16.430  24.973   8.984
  455POPC   C1A 9783  16.348  25.338   8.636
  455POPC   D2A 9784  16.435  25.520   8.204
  455POPC   C3A 9785  16.694  25.257   7.963
  455POPC   C4A 9786  16.587  24.980   7.645
  455POPC   C1B 9787  16.816  25.133   8.719
  455POPC   C2B 9788  17.147  24.977   8.407
  455POPC   C3B 9789  17.258  24.870   7.950
  455POPC   C4B 9790  17.081  24.913   7.528
  456POPC   NC3 9791   3.330  21.751   9.482
  456POPC   PO4 9792   3.793  22.207   9.563
  456POPC   GL1 9793   3.594  22.143   9.185
  456POPC   GL2 9794   3.766  21.870   9.137
  456POPC   C1A 9795   3.367  22.148   8.785
  456POPC   D2A 9796   3.317  21.960   8.389
  456POPC   C3A 9797   3.296  22.267   8.089
  456POPC   C4A 9798   3.308  22.158   7.651
  456POPC   C1B 9799   3.869  22.090   8.746
  456POPC   C2B 9800   3.733  22.318   8.389
  456POPC   C3B 9801   3.765  22.120   7.983
  456POPC   C4B 9802   3.751  21.960   7.570
  457POPC   NC3 9803  10.027  10.624   9.414
  457POPC   PO4 9804   9.657  10.176   9.525
  457POPC   GL1 9805   9.846  10.218   9.120
  457POPC   GL2 9806   9.650  10.537   9.093
  457POPC   C1A 9807  10.006  10.393   8.728
  457POPC   D2A 9808   9.929  10.856   8.567
  457POPC   C3A 9809   9.908  10.929   8.094
  457POPC   C4A 9810   9.953  10.761   7.695
  457POPC   C1B 9811   9.526  10.525   8.693
  457POPC   C2B 9812   9.678  10.513   8.294
  457POPC   C3B 9813   9.515  10.544   7.906
  457POPC   C4B 9814   9.556  10.177   7.701
  458POPC   NC3 9815  34.874  13.252   9.244
  458POPC   PO4 9816  34.493  13.767   9.461
  458POPC   GL1 9817  34.414  13.518   9.103
  458POPC   GL2 9818  34.203  13.186   9.126
  458POPC   C1A 9819  34.373  13.747   8.741
  458POPC   D2A 9820  34.131  13.831   8.407
  458POPC   C3A 9821  34.409  13.871   8.127
  458POPC   C4A 9822  34.624  13.860   7.784
  458POPC   C1B 9823  34.425  13.178   8.729
  458POPC   C2B 9824  34.718  13.437   8.514
  458POPC   C3B 9825  34.760  13.473   8.100
  458POPC   C4B 9826  34.465  13.261   7.810
  459POPC   NC3 9827  30.129  32.924   9.443
  459POPC   PO4 9828  30.545  33.449   9.214
  459POPC   GL1 9829  30.067  33.314   9.104
  459POPC   GL2 9830  29.760  32.999   9.105
  459POPC   C1A 9831  29.938  33.210   8.689
  459POPC   D2A 9832  29.742  33.217   8.323
  459POPC   C3A 9833  29.960  33.180   7.961
  459POPC   C4A 9834  29.615  33.325   7.722
  459POPC   C1B 9835  29.841  32.690   8.805
  459POPC   C2B 9836  30.001  32.726   8.432
  459POPC   C3B 9837  29.756  32.720   8.115
  459POPC   C4B 9838  29.718  32.785   7.729
  460POPC   NC3 9839   9.666  16.678   9.442
  460POPC   PO4 9840  10.093  17.109   9.358
  460POPC   GL1 9841   9.962  16.815   9.042
  460POPC   GL2 9842  10.001  16.456   9.114
  460POPC   C1A 9843   9.653  16.809   8.689
  460POPC   D2A 9844   9.738  16.997   8.272
  460POPC   C3A 9845   9.531  16.920   7.870
  460POPC   C4A 9846   9.727  17.010   7.438
  460POPC   C1B 9847   9.800  16.303   8.752
  460POPC   C2B 9848   9.518  16.378   8.410
  460POPC   C3B 9849   9.492  16.408   7.968
  460POPC   C4B 9850   9.768  16.529   7.623
  461POPC   NC3 9851   9.294  42.384   9.438
  461POPC   PO4 9852   8.828  42.899   9.515
  461POPC   GL1 9853   8.959  42.644   9.151
  461POPC   GL2 9854   8.644  42.487   9.103
  461POPC   C1A 9855   9.288  42.555   8.796
  461POPC   D2A 9856   9.359  42.713   8.357
  461POPC   C3A 9857   9.089  42.587   8.004
  461POPC   C4A 9858   9.065  42.484   7.546
  461POPC   C1B 9859   8.840  42.315   8.721
  461POPC   C2B 9860   9.024  42.175   8.303
  461POPC   C3B 9861   8.988  42.077   7.840
  461POPC   C4B 9862   8.889  42.024   7.372
  462POPC   NC3 9863  23.967   2.764   9.591
  462POPC   PO4 9864  23.386   3.174   9.561
  462POPC   GL1 9865  23.517   2.889   9.222
  462POPC   GL2 9866  23.858   2.800   9.121
  462POPC   C1A 9867  23.496   2.898   8.786
  462POPC   D2A 9868  23.408   2.941   8.370
  462POPC   C3A 9869  23.670   2.724   8.079
  462POPC   C4A 9870  23.717   2.897   7.681
  462POPC   C1B 9871  24.064   2.975   8.816
  462POPC   C2B 9872  23.921   3.027   8.420
  462POPC   C3B 9873  24.060   3.136   8.025
  462POPC   C4B 9874  24.218   2.914   7.673
  463POPC   NC3 9875  38.712  28.051   9.338
  463POPC   PO4 9876  38.172  28.291   9.405
  463POPC   GL1 9877  38.273  28.180   9.012
  463POPC   GL2 9878  38.632  28.295   8.917
  463POPC   C1A 9879  38.261  28.299   8.590
  463POPC   D2A 9880  38.633  28.322   8.352
  463POPC   C3A 9881  38.616  28.165   7.945
  463POPC   C4A 9882  38.343  28.372   7.695
  463POPC   C1B 9883  38.728  28.667   8.713
  463POPC   C2B 9884  38.815  28.829   8.346
  463POPC   C3B 9885  38.828  28.634   7.966
  463POPC   C4B 9886  38.806  28.552   7.551
  464POPC   NC3 9887  31.091  37.849   9.334
  464POPC   PO4 9888  31.580  37.487   9.485
  464POPC   GL1 9889  31.459  37.523   9.078
  464POPC   GL2 9890  31.145  37.420   8.991
  464POPC   C1A 9891  31.385  37.781   8.685
  464POPC   D2A 9892  31.541  37.866   8.253
  464POPC   C3A 9893  31.234  38.008   7.944
  464POPC   C4A 9894  31.291  37.950   7.501
  464POPC   C1B 9895  31.397  37.271   8.633
  464POPC   C2B 9896  31.465  37.361   8.197
  464POPC   C3B 9897  31.513  37.576   7.810
  464POPC   C4B 9898  31.307  37.430   7.454
  465POPC   NC3 9899   9.788  15.670   9.566
  465POPC   PO4 9900   9.544  16.263   9.556
  465POPC   GL1 9901   9.628  16.042   9.173
  465POPC   GL2 9902   9.929  15.849   9.114
  465POPC   C1A 9903   9.565  15.836   8.771
  465POPC   D2A 9904   9.518  15.596   8.408
  465POPC   C3A 9905   9.472  15.865   8.040
  465POPC   C4A 9906   9.631  15.723   7.662
  465POPC   C1B 9907  10.071  15.865   8.685
  465POPC   C2B 9908   9.893  16.012   8.309
  465POPC   C3B 9909   9.908  16.113   7.875
  465POPC   C4B 9910   9.974  16.063   7.411
  466POPC   NC3 9911  10.246  33.835   9.413
  466POPC   PO4 9912  10.711  33.442   9.567
  466POPC   GL1 9913  10.664  33.764   9.162
  466POPC   GL2 9914  10.343  33.696   8.955
  466POPC   C1A 9915  10.657  34.021   8.761
  466POPC   D2A 9916  10.346  33.907   8.408
  466POPC   C3A 9917  10.494  33.821   7.962
  466POPC   C4A 9918  10.467  33.728   7.479
  466POPC   C1B 9919  10.153  33.482   8.660
  466POPC   C2B 9920  10.219  33.308   8.256
  466POPC   C3B 9921  10.311  33.361   7.821
  466POPC   C4B 9922  10.033  33.439   7.477
  467POPC   NC3 9923  19.535  44.535   9.377
  467POPC   PO4 9924  20.033  44.904   9.302
  467POPC   GL1 9925  19.917  44.614   9.039
  467POPC   GL2 9926  19.993  44.296   9.201
  467POPC   C1A 9927  19.745  44.668   8.655
  467POPC   D2A 9928  19.455  44.817   8.371
  467POPC   C3A 9929  19.610  44.893   7.970
  467POPC   C4A 9930  19.636  44.665   7.628
  467POPC   C1B 9931  20.101  44.252   8.740
  467POPC   C2B 9932  20.193  44.568   8.440
  467POPC   C3B 9933  20.091  44.636   8.007
  467POPC   C4B 9934  20.090  44.865   7.617
  468POPC   NC3 9935  34.949   8.319   9.448
  468POPC   PO4 9936  35.543   8.009   9.490
  468POPC   GL1 9937  35.418   8.312   9.180
  468POPC   GL2 9938  35.693   8.169   9.007
  468POPC   C1A 9939  35.298   8.476   8.771
  468POPC   D2A 9940  35.196   8.301   8.365
  468POPC   C3A 9941  35.271   8.554   7.985
  468POPC   C4A 9942  35.204   8.468   7.551
  468POPC   C1B 9943  35.652   8.147   8.567
  468POPC   C2B 9944  35.651   8.198   8.132
  468POPC   C3B 9945  35.392   8.060   7.804
  468POPC   C4B 9946  35.387   8.011   7.358
  469POPC   NC3 9947  25.720  37.582   9.453
  469POPC   PO4 9948  26.454  37.637   9.583
  469POPC   GL1 9949  26.185  37.715   9.259
  469POPC   GL2 9950  26.063  37.396   9.121
  469POPC   C1A 9951  26.157  37.806   8.838
  469POPC   D2A 9952  26.061  37.563   8.497
  469POPC   C3A 9953  26.090  37.557   8.055
  469POPC   C4A 9954  26.179  37.814   7.722
  469POPC   C1B 9955  25.758  37.272   8.794
  469POPC   C2B 9956  25.708  37.201   8.350
  469POPC   C3B 9957  25.598  37.315   7.931
  469POPC   C4B 9958  25.869  37.455   7.564
  470POPC   NC3 9959  19.021  44.122   9.532
  470POPC   PO4 9960  18.538  43.790   9.801
  470POPC   GL1 9961  18.948  43.688   9.317
  470POPC   GL2 9962  19.014  43.983   9.063
  470POPC   C1A 9963  19.126  43.560   8.869
  470POPC   D2A 9964  19.106  43.877   8.500
  470POPC   C3A 9965  19.323  43.929   8.078
  470POPC   C4A 9966  19.061  43.848   7.694
  470POPC   C1B 9967  18.860  44.254   8.796
  470POPC   C2B 9968  18.705  44.265   8.429
  470POPC   C3B 9969  18.858  44.173   8.032
  470POPC   C4B 9970  18.765  44.382   7.662
  471POPC   NC3 9971   2.919  24.189   9.550
  471POPC   PO4 9972   2.405  24.692   9.467
  471POPC   GL1 9973   2.512  24.369   9.180
  471POPC   GL2 9974   2.819  24.412   9.095
  471POPC   C1A 9975   2.507  24.358   8.713
  471POPC   D2A 9976   2.736  24.302   8.314
  471POPC   C3A 9977   2.582  24.429   7.930
  471POPC   C4A 9978   2.312  24.157   7.733
  471POPC   C1B 9979   3.039  24.368   8.711
  471POPC   C2B 9980   3.243  24.287   8.322
  471POPC   C3B 9981   3.090  24.388   7.908
  471POPC   C4B 9982   2.880  24.466   7.498
  472POPC   NC3 9983  36.534  24.361   9.505
  472POPC   PO4 9984  35.971  24.717   9.487
  472POPC   GL1 9985  35.960  24.514   9.108
  472POPC   GL2 9986  36.202  24.259   9.131
  472POPC   C1A 9987  35.997  24.605   8.686
  472POPC   D2A 9988  36.311  24.689   8.402
  472POPC   C3A 9989  36.132  24.724   8.000
  472POPC   C4A 9990  36.414  24.701   7.664
  472POPC   C1B 9991  36.015  24.101   8.761
  472POPC   C2B 9992  36.061  24.239   8.315
  472POPC   C3B 9993  36.245  24.243   7.899
  472POPC   C4B 9994  35.938  24.240   7.602
  473POPC   NC3 9995  34.988  40.808   9.385
  473POPC   PO4 9996  35.685  40.935   9.540
  473POPC   GL1 9997  35.480  41.012   9.183
  473POPC   GL2 9998  35.412  40.671   9.123
  473POPC   C1A 9999  35.495  41.004   8.750
  473POPC   D2A10000  35.692  40.739   8.468
  473POPC   C3A10001  35.542  40.851   8.053
  473POPC   C4A10002  35.158  41.024   7.804
  473POPC   C1B10003  35.156  40.584   8.792
  473POPC   C2B10004  35.240  40.538   8.378
  473POPC   C3B10005  35.009  40.554   7.988
  473POPC   C4B10006  35.083  40.454   7.591
  474POPC   NC310007  26.427  37.185   9.410
  474POPC   PO410008  25.706  37.069   9.478
  474POPC   GL110009  25.927  36.896   9.106
  474POPC   GL210010  26.228  36.705   9.119
  474POPC   C1A10011  25.923  36.755   8.680
  474POPC   D2A10012  25.776  36.437   8.379
  474POPC   C3A10013  25.764  36.736   8.052
  474POPC   C4A10014  25.968  37.006   7.764
  474POPC   C1B10015  26.421  36.650   8.689
  474POPC   C2B10016  26.269  36.602   8.262
  474POPC   C3B10017  26.293  36.612   7.798
  474POPC   C4B10018  26.280  36.826   7.361
  475POPC   NC310019   7.824  39.519   9.266
  475POPC   PO410020   7.547  40.045   9.454
  475POPC   GL110021   7.469  40.084   9.035
  475POPC   GL210022   7.812  40.109   9.023
  475POPC   C1A10023   7.305  40.014   8.603
  475POPC   D2A10024   7.036  39.758   8.354
  475POPC   C3A10025   7.066  39.914   7.958
  475POPC   C4A10026   7.081  40.353   7.859
  475POPC   C1B10027   7.786  39.821   8.704
  475POPC   C2B10028   7.786  39.937   8.324
  475POPC   C3B10029   7.581  39.841   7.954
  475POPC   C4B10030   7.762  39.633   7.606
  476POPC   NC310031  29.924  42.540   9.811
  476POPC   PO410032  30.139  41.953   9.556
  476POPC   GL110033  30.088  42.370   9.289
  476POPC   GL210034  30.403  42.627   9.216
  476POPC   C1A10035  29.779  42.418   8.948
  476POPC   D2A10036  29.811  42.374   8.490
  476POPC   C3A10037  29.547  42.162   8.179
  476POPC   C4A10038  29.591  42.235   7.736
  476POPC   C1B10039  30.264  42.495   8.806
  476POPC   C2B10040  30.302  42.379   8.391
  476POPC   C3B10041  30.228  42.523   7.986
  476POPC   C4B10042  30.080  42.376   7.604
  477POPC   NC310043  38.930  24.834   9.452
  477POPC   PO410044  39.293  24.502   9.866
  477POPC   GL110045  39.270  24.499   9.273
  477POPC   GL210046  38.934  24.509   9.077
  477POPC   C1A10047  39.328  24.319   8.818
  477POPC   D2A10048  39.404  24.206   8.373
  477POPC   C3A10049  39.562  24.572   8.147
  477POPC   C4A10050  39.563  24.651   7.704
  477POPC   C1B10051  38.881  24.601   8.655
  477POPC   C2B10052  39.004  24.533   8.216
  477POPC   C3B10053  38.966  24.779   7.843
  477POPC   C4B10054  38.743  24.848   7.428
  478POPC   NC310055  34.550   1.380   9.530
  478POPC   PO410056  34.397   0.733   9.491
  478POPC   GL110057  34.308   1.100   9.142
  478POPC   GL210058  34.419   1.514   9.070
  478POPC   C1A10059  34.171   1.257   8.713
  478POPC   D2A10060  34.461   1.435   8.390
  478POPC   C3A10061  34.483   1.150   8.041
  478POPC   C4A10062  34.282   0.844   7.812
  478POPC   C1B10063  34.711   1.233   8.833
  478POPC   C2B10064  34.822   1.033   8.426
  478POPC   C3B10065  35.033   1.125   8.030
  478POPC   C4B10066  35.000   1.256   7.588
  479POPC   NC310067  15.002   9.704   9.611
  479POPC   PO410068  15.632   9.944   9.566
  479POPC   GL110069  15.356   9.844   9.180
  479POPC   GL210070  14.988   9.821   9.103
  479POPC   C1A10071  15.316   9.711   8.723
  479POPC   D2A10072  15.110   9.469   8.403
  479POPC   C3A10073  15.192   9.594   7.957
  479POPC   C4A10074  15.150   9.809   7.552
  479POPC   C1B10075  14.930  10.076   8.728
  479POPC   C2B10076  15.097   9.974   8.317
  479POPC   C3B10077  14.932  10.070   7.933
  479POPC   C4B10078  14.838  10.220   7.541
  480POPC   NC310079  37.492  40.489   9.434
  480POPC   PO410080  37.942  40.924   9.446
  480POPC   GL110081  37.824  41.017   9.057
  480POPC   GL210082  37.457  41.028   9.123
  480POPC   C1A10083  38.025  40.909   8.651
  480POPC   D2A10084  37.992  40.590   8.333
  480POPC   C3A10085  37.953  40.758   7.923
  480POPC   C4A10086  37.623  40.958   7.694
  480POPC   C1B10087  37.487  40.737   8.761
  480POPC   C2B10088  37.278  40.587   8.388
  480POPC   C3B10089  37.346  40.633   7.964
  480POPC   C4B10090  37.427  40.487   7.557
  481POPC   NC310091  27.894  41.680   9.434
  481POPC   PO410092  28.506  41.334   9.393
  481POPC   GL110093  28.193  41.337   9.111
  481POPC   GL210094  28.456  41.229   8.898
  481POPC   C1A10095  27.962  41.423   8.735
  481POPC   D2A10096  27.880  41.418   8.270
  481POPC   C3A10097  28.197  41.379   7.899
  481POPC   C4A10098  28.230  41.365   7.419
  481POPC   C1B10099  28.441  41.544   8.602
  481POPC   C2B10100  28.450  41.710   8.189
  481POPC   C3B10101  28.639  41.650   7.775
  481POPC   C4B10102  28.710  41.684   7.323
  482POPC   NC310103  28.832  19.480   9.531
  482POPC   PO410104  29.203  19.984   9.511
  482POPC   GL110105  29.008  19.975   9.149
  482POPC   GL210106  29.111  19.625   9.128
  482POPC   C1A10107  29.175  19.960   8.746
  482POPC   D2A10108  29.091  19.746   8.388
  482POPC   C3A10109  29.146  19.980   8.035
  482POPC   C4A10110  29.038  19.851   7.615
  482POPC   C1B10111  29.439  19.526   8.832
  482POPC   C2B10112  29.593  19.615   8.446
  482POPC   C3B10113  29.535  19.555   8.021
  482POPC   C4B10114  29.536  19.871   7.717
  483POPC   NC310115  31.752  31.088   9.371
  483POPC   PO410116  32.260  31.502   9.586
  483POPC   GL110117  32.233  31.496   9.151
  483POPC   GL210118  31.893  31.540   9.071
  483POPC   C1A10119  32.426  31.350   8.746
  483POPC   D2A10120  32.597  31.138   8.345
  483POPC   C3A10121  32.403  31.264   7.908
  483POPC   C4A10122  32.338  31.654   7.604
  483POPC   C1B10123  31.932  31.211   8.751
  483POPC   C2B10124  32.085  31.284   8.341
  483POPC   C3B10125  32.097  31.632   8.059
  483POPC   C4B10126  31.856  31.467   7.731
  484POPC   NC310127  20.141  14.478   9.538
  484POPC   PO410128  19.459  14.430   9.541
  484POPC   GL110129  19.755  14.285   9.252
  484POPC   GL210130  19.820  14.628   9.158
  484POPC   C1A10131  19.856  14.249   8.808
  484POPC   D2A10132  19.721  14.522   8.466
  484POPC   C3A10133  19.730  14.401   8.021
  484POPC   C4A10134  19.952  14.025   7.891
  484POPC   C1B10135  20.178  14.616   8.878
  484POPC   C2B10136  20.256  14.543   8.424
  484POPC   C3B10137  20.144  14.680   7.958
  484POPC   C4B10138  19.817  14.782   7.653
  485POPC   NC310139   3.296   8.219   9.791
  485POPC   PO410140   3.827   8.424   9.455
  485POPC   GL110141   3.706   8.197   9.094
  485POPC   GL210142   3.420   8.010   9.216
  485POPC   C1A10143   3.540   8.386   8.716
  485POPC   D2A10144   3.467   8.551   8.319
  485POPC   C3A10145   3.613   8.316   8.011
  485POPC   C4A10146   3.654   8.446   7.617
  485POPC   C1B10147   3.283   7.949   8.803
  485POPC   C2B10148   3.521   7.932   8.408
  485POPC   C3B10149   3.299   7.903   8.021
  485POPC   C4B10150   3.427   7.987   7.643
  486POPC   NC310151  42.895  21.620   9.511
  486POPC   PO410152  43.469  21.224   9.522
  486POPC   GL110153  43.156  21.269   9.155
  486POPC   GL210154  42.803  21.369   9.060
  486POPC   C1A10155  43.236  21.389   8.723
  486POPC   D2A10156  42.885  21.344   8.388
  486POPC   C3A10157  43.045  21.241   7.971
  486POPC   C4A10158  43.188  21.423   7.569
  486POPC   C1B10159  42.897  21.749   8.785
  486POPC   C2B10160  43.052  21.827   8.322
  486POPC   C3B10161  42.887  21.724   7.883
  486POPC   C4B10162  42.799  21.683   7.399
  487POPC   NC310163  37.286  20.322   9.337
  487POPC   PO410164  36.809  20.762   9.522
  487POPC   GL110165  36.736  20.609   9.122
  487POPC   GL210166  36.780  20.265   9.143
  487POPC   C1A10167  36.814  20.777   8.743
  487POPC   D2A10168  37.090  20.722   8.461
  487POPC   C3A10169  36.928  20.768   8.084
  487POPC   C4A10170  36.954  20.888   7.676
  487POPC   C1B10171  37.008  20.277   8.723
  487POPC   C2B10172  37.133  20.243   8.268
  487POPC   C3B10173  37.226  20.428   7.865
  487POPC   C4B10174  37.128  20.455   7.444
  488POPC   NC310175  14.000  27.280   9.392
  488POPC   PO410176  14.362  27.818   9.652
  488POPC   GL110177  14.388  27.607   9.227
  488POPC   GL210178  14.306  27.884   9.057
  488POPC   C1A10179  14.264  27.426   8.811
  488POPC   D2A10180  14.190  27.718   8.479
  488POPC   C3A10181  14.252  27.622   8.060
  488POPC   C4A10182  14.497  27.426   7.777
  488POPC   C1B10183  14.628  27.780   8.757
  488POPC   C2B10184  14.715  27.818   8.325
  488POPC   C3B10185  14.631  27.937   7.929
  488POPC   C4B10186  14.260  28.069   7.756
  489POPC   NC310187  26.194  25.237   9.515
  489POPC   PO410188  25.667  24.959   9.394
  489POPC   GL110189  25.929  25.220   9.084
  489POPC   GL210190  26.295  25.150   9.032
  489POPC   C1A10191  26.056  25.460   8.705
  489POPC   D2A10192  25.869  25.558   8.322
  489POPC   C3A10193  25.866  25.302   7.940
  489POPC   C4A10194  25.733  25.553   7.570
  489POPC   C1B10195  26.090  24.947   8.681
  489POPC   C2B10196  26.234  25.131   8.302
  489POPC   C3B10197  26.328  25.480   8.036
  489POPC   C4B10198  26.227  25.405   7.567
  490POPC   NC310199  33.760  41.649   9.542
  490POPC   PO410200  33.186  41.756   9.739
  490POPC   GL110201  33.370  41.664   9.230
  490POPC   GL210202  33.606  41.417   9.123
  490POPC   C1A10203  33.589  41.808   8.795
  490POPC   D2A10204  33.730  42.029   8.398
  490POPC   C3A10205  34.000  41.867   8.052
  490POPC   C4A10206  33.830  41.713   7.669
  490POPC   C1B10207  33.958  41.445   8.842
  490POPC   C2B10208  33.909  41.509   8.405
  490POPC   C3B10209  33.835  41.271   8.012
  490POPC   C4B10210  33.960  41.212   7.583
  491POPC   NC310211  33.520  32.833   9.493
  491POPC   PO410212  34.185  32.822   9.404
  491POPC   GL110213  33.903  32.890   9.124
  491POPC   GL210214  33.954  33.230   9.103
  491POPC   C1A10215  33.991  32.922   8.701
  491POPC   D2A10216  34.061  33.109   8.340
  491POPC   C3A10217  33.843  32.870   8.099
  491POPC   C4A10218  33.756  32.915   7.719
  491POPC   C1B10219  33.770  33.398   8.746
  491POPC   C2B10220  33.720  33.502   8.301
  491POPC   C3B10221  33.852  33.417   7.856
  491POPC   C4B10222  33.743  33.346   7.398
  492POPC   NC310223  18.911   6.435   9.593
  492POPC   PO410224  19.410   6.802   9.365
  492POPC   GL110225  19.290   6.660   9.016
  492POPC   GL210226  18.959   6.693   9.133
  492POPC   C1A10227  19.313   6.543   8.588
  492POPC   D2A10228  19.216   6.293   8.257
  492POPC   C3A10229  19.128   6.564   7.927
  492POPC   C4A10230  19.240   6.516   7.507
  492POPC   C1B10231  18.853   6.446   8.788
  492POPC   C2B10232  18.765   6.584   8.363
  492POPC   C3B10233  18.641   6.755   7.961
  492POPC   C4B10234  18.802   6.834   7.567
  493POPC   NC310235  15.306  27.703   9.892
  493POPC   PO410236  14.896  27.554   9.308
  493POPC   GL110237  15.106  27.808   9.032
  493POPC   GL210238  15.473  27.936   9.136
  493POPC   C1A10239  15.128  27.720   8.597
  493POPC   D2A10240  15.093  27.396   8.326
  493POPC   C3A10241  14.960  27.545   7.962
  493POPC   C4A10242  15.091  27.880   7.742
  493POPC   C1B10243  15.568  27.676   8.817
  493POPC   C2B10244  15.655  27.819   8.432
  493POPC   C3B10245  15.421  27.735   8.127
  493POPC   C4B10246  15.563  27.701   7.777
  494POPC   NC310247  16.892  21.776   9.292
  494POPC   PO410248  16.538  21.393   9.830
  494POPC   GL110249  16.591  21.338   9.339
  494POPC   GL210250  16.876  21.254   9.159
  494POPC   C1A10251  16.508  21.433   8.853
  494POPC   D2A10252  16.496  21.324   8.387
  494POPC   C3A10253  16.636  21.463   7.955
  494POPC   C4A10254  16.814  21.334   7.506
  494POPC   C1B10255  17.018  21.366   8.725
  494POPC   C2B10256  17.017  21.529   8.297
  494POPC   C3B10257  17.117  21.275   7.918
  494POPC   C4B10258  17.188  20.836   7.839
  495POPC   NC310259  35.569  11.690   9.387
  495POPC   PO410260  35.218  11.079   9.487
  495POPC   GL110261  35.211  11.278   9.133
  495POPC   GL210262  35.565  11.244   9.090
  495POPC   C1A10263  35.184  11.099   8.744
  495POPC   D2A10264  35.398  11.156   8.394
  495POPC   C3A10265  35.150  11.092   8.044
  495POPC   C4A10266  35.306  11.096   7.618
  495POPC   C1B10267  35.465  11.535   8.738
  495POPC   C2B10268  35.345  11.644   8.298
  495POPC   C3B10269  35.533  11.422   7.950
  495POPC   C4B10270  35.721  11.506   7.551
  496POPC   NC310271  34.232   9.903   9.844
  496POPC   PO410272  33.696   9.928   9.414
  496POPC   GL110273  33.862   9.887   8.976
  496POPC   GL210274  34.117   9.624   8.859
  496POPC   C1A10275  34.039  10.106   8.637
  496POPC   D2A10276  34.088   9.929   8.242
  496POPC   C3A10277  33.757   9.962   7.970
  496POPC   C4A10278  33.736   9.655   7.667
  496POPC   C1B10279  33.803   9.334   8.753
  496POPC   C2B10280  33.542   9.265   8.441
  496POPC   C3B10281  33.699   9.337   8.057
  496POPC   C4B10282  33.504   9.208   7.690
  497POPC   NC310283  10.457  39.929   9.511
  497POPC   PO410284  11.061  40.022   9.759
  497POPC   GL110285  10.830  40.122   9.233
  497POPC   GL210286  10.446  40.218   9.107
  497POPC   C1A10287  10.733  40.015   8.754
  497POPC   D2A10288  10.588  40.091   8.304
  497POPC   C3A10289  10.484  39.800   7.967
  497POPC   C4A10290  10.605  39.636   7.560
  497POPC   C1B10291  10.211  40.210   8.702
  497POPC   C2B10292  10.245  40.435   8.307
  497POPC   C3B10293  10.292  40.255   7.860
  497POPC   C4B10294  10.245  40.209   7.363
  498POPC   NC310295  33.073   5.320   9.499
  498POPC   PO410296  32.661   4.793   9.530
  498POPC   GL110297  32.580   4.881   9.091
  498POPC   GL210298  32.826   5.141   9.090
  498POPC   C1A10299  32.658   4.942   8.659
  498POPC   D2A10300  32.907   5.217   8.452
  498POPC   C3A10301  32.957   5.093   8.069
  498POPC   C4A10302  32.929   5.330   7.711
  498POPC   C1B10303  33.208   5.157   8.864
  498POPC   C2B10304  33.432   5.182   8.451
  498POPC   C3B10305  33.455   5.266   8.023
  498POPC   C4B10306  33.323   5.005   7.718
  499POPC   NC310307  35.620  14.591   9.401
  499POPC   PO410308  35.327  14.001   9.384
  499POPC   GL110309  35.181  14.224   9.053
  499POPC   GL210310  35.159  14.559   9.154
  499POPC   C1A10311  35.428  14.389   8.706
  499POPC   D2A10312  35.613  14.583   8.340
  499POPC   C3A10313  35.452  14.387   7.954
  499POPC   C4A10314  35.286  14.317   7.527
  499POPC   C1B10315  35.023  14.707   8.731
  499POPC   C2B10316  35.079  14.519   8.307
  499POPC   C3B10317  35.011  14.648   7.870
  499POPC   C4B10318  34.997  14.725   7.378
  500POPC   NC310319   7.307   7.834   9.534
  500POPC   PO410320   7.679   8.389   9.449
  500POPC   GL110321   7.617   8.150   9.097
  500POPC   GL210322   7.278   8.017   9.078
  500POPC   C1A10323   7.514   8.345   8.706
  500POPC   D2A10324   7.306   8.220   8.305
  500POPC   C3A10325   7.356   8.453   7.923
  500POPC   C4A10326   7.138   8.701   7.658
  500POPC   C1B10327   7.350   7.865   8.706
  500POPC   C2B10328   7.459   7.703   8.338
  500POPC   C3B10329   7.393   7.850   7.960
  500POPC   C4B10330   7.678   8.099   7.777
  501POPC   NC310331  28.680  13.538   9.415
  501POPC   PO410332  28.305  14.047   9.491
  501POPC   GL110333  28.448  13.900   9.105
  501POPC   GL210334  28.389  13.576   8.978
  501POPC   C1A10335  28.255  14.024   8.704
  501POPC   D2A10336  28.014  13.850   8.324
  501POPC   C3A10337  28.363  13.796   8.002
  501POPC   C4A10338  28.398  13.713   7.531
  501POPC   C1B10339  28.747  13.426   8.708
  501POPC   C2B10340  28.758  13.396   8.241
  501POPC   C3B10341  28.585  13.350   7.833
  501POPC   C4B10342  28.649  13.256   7.390
  502POPC   NC310343  15.394  33.378   9.452
  502POPC   PO410344  14.780  33.028   9.342
  502POPC   GL110345  15.168  33.060   9.115
  502POPC   GL210346  15.422  32.859   9.250
  502POPC   C1A10347  15.186  33.211   8.719
  502POPC   D2A10348  14.964  33.143   8.351
  502POPC   C3A10349  15.026  33.368   7.986
  502POPC   C4A10350  14.845  33.068   7.720
  502POPC   C1B10351  15.574  32.893   8.821
  502POPC   C2B10352  15.351  32.808   8.414
  502POPC   C3B10353  15.289  32.922   7.978
  502POPC   C4B10354  15.572  32.898   7.630
  503POPC   NC310355   2.184  17.245   9.488
  503POPC   PO410356   1.619  17.656   9.411
  503POPC   GL110357   1.895  17.475   9.141
  503POPC   GL210358   1.754  17.178   9.172
  503POPC   C1A10359   2.103  17.545   8.762
  503POPC   D2A10360   1.946  17.715   8.374
  503POPC   C3A10361   2.235  17.661   8.033
  503POPC   C4A10362   2.105  17.522   7.627
  503POPC   C1B10363   1.615  17.268   8.774
  503POPC   C2B10364   1.831  17.232   8.421
  503POPC   C3B10365   1.807  17.361   8.017
  503POPC   C4B10366   1.808  17.093   7.642
  504POPC   NC310367  24.819  27.041   9.485
  504POPC   PO410368  25.462  26.712   9.471
  504POPC   GL110369  25.419  26.965   9.126
  504POPC   GL210370  25.108  27.024   9.102
  504POPC   C1A10371  25.265  26.824   8.688
  504POPC   D2A10372  25.354  26.675   8.308
  504POPC   C3A10373  25.270  26.932   7.996
  504POPC   C4A10374  25.389  26.750   7.649
  504POPC   C1B10375  24.830  26.684   8.880
  504POPC   C2B10376  24.867  26.515   8.446
  504POPC   C3B10377  24.788  26.689   8.052
  504POPC   C4B10378  24.895  26.919   7.660
  505POPC   NC310379  32.587  22.962   9.456
  505POPC   PO410380  33.200  22.688   9.431
  505POPC   GL110381  32.989  22.798   9.101
  505POPC   GL210382  33.034  23.125   9.093
  505POPC   C1A10383  33.144  22.844   8.699
  505POPC   D2A10384  33.037  22.997   8.330
  505POPC   C3A10385  32.836  22.753   8.003
  505POPC   C4A10386  32.948  22.510   7.634
  505POPC   C1B10387  33.085  23.372   8.715
  505POPC   C2B10388  32.899  23.498   8.320
  505POPC   C3B10389  32.884  23.257   7.929
  505POPC   C4B10390  33.035  23.010   7.546
  506POPC   NC310391  31.350  19.592   9.367
  506POPC   PO410392  31.891  19.969   9.366
  506POPC   GL110393  31.655  19.812   9.023
  506POPC   GL210394  31.344  20.049   9.028
  506POPC   C1A10395  31.454  19.492   8.719
  506POPC   D2A10396  31.226  19.475   8.344
  506POPC   C3A10397  31.395  19.776   8.116
  506POPC   C4A10398  31.280  19.767   7.705
  506POPC   C1B10399  31.463  19.996   8.593
  506POPC   C2B10400  31.711  20.208   8.315
  506POPC   C3B10401  31.643  20.164   7.908
  506POPC   C4B10402  31.361  20.270   7.625
  507POPC   NC310403  30.532  43.142   9.491
  507POPC   PO410404  30.924  43.594   9.606
  507POPC   GL110405  30.895  43.382   9.178
  507POPC   GL210406  30.843  43.000   9.097
  507POPC   C1A10407  30.655  43.437   8.782
  507POPC   D2A10408  30.426  43.362   8.379
  507POPC   C3A10409  30.541  43.484   7.973
  507POPC   C4A10410  30.777  43.190   7.716
  507POPC   C1B10411  30.497  42.951   8.800
  507POPC   C2B10412  30.286  42.881   8.422
  507POPC   C3B10413  30.305  43.018   8.002
  507POPC   C4B10414  30.406  42.836   7.602
  508POPC   NC310415  29.791  26.381   9.402
  508POPC   PO410416  30.017  25.693   9.439
  508POPC   GL110417  30.036  25.991   9.118
  508POPC   GL210418  29.672  25.963   9.088
  508POPC   C1A10419  29.976  26.013   8.669
  508POPC   D2A10420  29.678  26.028   8.356
  508POPC   C3A10421  29.907  26.004   7.970
  508POPC   C4A10422  29.829  25.890   7.548
  508POPC   C1B10423  29.578  26.316   8.778
  508POPC   C2B10424  29.585  26.575   8.410
  508POPC   C3B10425  29.566  26.395   7.992
  508POPC   C4B10426  29.818  26.412   7.641
  509POPC   NC310427  42.953   3.024   9.473
  509POPC   PO410428  43.180   2.334   9.505
  509POPC   GL110429  43.170   2.621   9.176
  509POPC   GL210430  43.385   2.894   9.236
  509POPC   C1A10431  43.293   2.650   8.748
  509POPC   D2A10432  42.972   2.637   8.424
  509POPC   C3A10433  43.035   2.454   8.015
  509POPC   C4A10434  42.990   2.765   7.702
  509POPC   C1B10435  43.568   3.134   8.897
  509POPC   C2B10436  43.428   3.084   8.478
  509POPC   C3B10437  43.346   2.862   8.117
  509POPC   C4B10438  43.444   2.996   7.725
  510POPC   NC310439  34.886  24.575   9.543
  510POPC   PO410440  34.685  24.001   9.382
  510POPC   GL110441  34.614  24.350   9.165
  510POPC   GL210442  34.282  24.475   9.142
  510POPC   C1A10443  34.685  24.601   8.835
  510POPC   D2A10444  34.445  24.720   8.541
  510POPC   C3A10445  34.660  24.776   8.153
  510POPC   C4A10446  34.630  24.853   7.721
  510POPC   C1B10447  34.352  24.230   8.723
  510POPC   C2B10448  34.516  24.284   8.289
  510POPC   C3B10449  34.386  24.402   7.866
  510POPC   C4B10450  34.264  24.208   7.453
  511POPC   NC310451  27.157  29.452   9.473
  511POPC   PO410452  27.815  29.386   9.487
  511POPC   GL110453  27.571  29.308   9.145
  511POPC   GL210454  27.820  29.508   8.968
  511POPC   C1A10455  27.382  29.035   8.823
  511POPC   D2A10456  27.509  28.795   8.468
  511POPC   C3A10457  27.390  28.971   8.061
  511POPC   C4A10458  27.517  29.164   7.677
  511POPC   C1B10459  27.864  29.148   8.715
  511POPC   C2B10460  27.870  29.089   8.272
  511POPC   C3B10461  27.971  29.085   7.863
  511POPC   C4B10462  27.980  29.407   7.563
  512POPC   NC310463   5.813  44.159   9.529
  512POPC   PO410464   6.167  44.756   9.529
  512POPC   GL110465   6.072  44.479   9.214
  512POPC   GL210466   5.727  44.601   9.225
  512POPC   C1A10467   6.094  44.516   8.788
  512POPC   D2A10468   5.918  44.543   8.380
  512POPC   C3A10469   5.604  44.803   8.140
  512POPC   C4A10470   5.770  44.833   7.708
  512POPC   C1B10471   5.598  44.435   8.833
  512POPC   C2B10472   5.430  44.347   8.416
  512POPC   C3B10473   5.668  44.311   8.013
  512POPC   C4B10474   5.491  44.328   7.649
  513POPC   NC310475  36.321  11.396   9.687
  513POPC   PO410476  35.979  11.661   9.198
  513POPC   GL110477  36.237  11.340   9.152
  513POPC   GL210478  36.051  11.059   9.133
  513POPC   C1A10479  36.442  11.202   8.777
  513POPC   D2A10480  36.294  11.001   8.386
  513POPC   C3A10481  36.493  11.038   7.998
  513POPC   C4A10482  36.418  11.366   7.711
  513POPC   C1B10483  35.920  11.211   8.722
  513POPC   C2B10484  35.877  11.370   8.323
  513POPC   C3B10485  35.989  11.187   7.916
  513POPC   C4B10486  35.782  11.012   7.541
  514POPC   NC310487  14.242  35.764   9.607
  514POPC   PO410488  14.528  35.234   9.495
  514POPC   GL110489  14.476  35.467   9.157
  514POPC   GL210490  14.685  35.715   9.297
  514POPC   C1A10491  14.303  35.436   8.730
  514POPC   D2A10492  14.128  35.599   8.338
  514POPC   C3A10493  14.295  35.328   8.041
  514POPC   C4A10494  14.392  35.127   7.621
  514POPC   C1B10495  14.684  35.800   8.837
  514POPC   C2B10496  14.663  35.632   8.403
  514POPC   C3B10497  14.664  35.866   8.019
  514POPC   C4B10498  14.339  35.719   7.737
  515POPC   NC310499  29.003  40.134   9.481
  515POPC   PO410500  29.563  39.658   9.496
  515POPC   GL110501  29.337  39.781   9.185
  515POPC   GL210502  29.410  40.116   9.152
  515POPC   C1A10503  29.404  39.686   8.765
  515POPC   D2A10504  29.090  39.717   8.469
  515POPC   C3A10505  29.251  39.806   8.049
  515POPC   C4A10506  28.951  39.968   7.759
  515POPC   C1B10507  29.130  40.130   8.826
  515POPC   C2B10508  29.297  40.180   8.434
  515POPC   C3B10509  29.178  40.308   8.053
  515POPC   C4B10510  28.983  40.475   7.724
  516POPC   NC310511  39.739  27.282   9.291
  516POPC   PO410512  40.237  27.654   9.629
  516POPC   GL110513  40.028  27.684   9.162
  516POPC   GL210514  39.702  27.826   9.068
  516POPC   C1A10515  40.064  27.695   8.671
  516POPC   D2A10516  40.031  27.853   8.235
  516POPC   C3A10517  40.137  27.519   7.905
  516POPC   C4A10518  40.113  27.400   7.450
  516POPC   C1B10519  39.551  27.689   8.642
  516POPC   C2B10520  39.718  27.448   8.282
  516POPC   C3B10521  39.647  27.361   7.837
  516POPC   C4B10522  39.607  27.474   7.409
  517POPC   NC310523  29.623  28.648   9.661
  517POPC   PO410524  30.174  28.313   9.562
  517POPC   GL110525  30.125  28.450   9.124
  517POPC   GL210526  30.220  28.103   9.091
  517POPC   C1A10527  29.884  28.320   8.732
  517POPC   D2A10528  29.579  28.329   8.392
  517POPC   C3A10529  29.894  28.347   8.099
  517POPC   C4A10530  30.015  28.555   7.771
  517POPC   C1B10531  30.236  27.879   8.715
  517POPC   C2B10532  30.131  27.964   8.323
  517POPC   C3B10533  30.369  28.198   7.989
  517POPC   C4B10534  30.333  28.162   7.552
  518POPC   NC310535   6.759   0.416   9.428
  518POPC   PO410536   6.932  44.746   9.345
  518POPC   GL110537   6.919   0.067   9.038
  518POPC   GL210538   6.544   0.131   9.038
  518POPC   C1A10539   6.840   0.265   8.630
  518POPC   D2A10540   6.547   0.166   8.281
  518POPC   C3A10541   6.767   0.189   7.918
  518POPC   C4A10542   6.744   0.441   7.586
  518POPC   C1B10543   6.304   0.353   8.690
  518POPC   C2B10544   6.151   0.539   8.290
  518POPC   C3B10545   6.394   0.612   7.907
  518POPC   C4B10546   6.588   1.018   7.742
  519POPC   NC310547  20.180  13.662   9.461
  519POPC   PO410548  19.566  13.836   9.478
  519POPC   GL110549  19.837  13.803   9.078
  519POPC   GL210550  20.065  13.511   8.995
  519POPC   C1A10551  19.830  13.787   8.615
  519POPC   D2A10552  19.620  13.510   8.338
  519POPC   C3A10553  19.647  13.621   7.887
  519POPC   C4A10554  19.728  13.776   7.472
  519POPC   C1B10555  20.069  13.363   8.543
  519POPC   C2B10556  20.091  13.567   8.137
  519POPC   C3B10557  20.186  13.590   7.690
  519POPC   C4B10558  20.044  13.362   7.324
  520POPC   NC310559  41.960  10.836   9.533
  520POPC   PO410560  42.525  10.499   9.603
  520POPC   GL110561  42.276  10.596   9.198
  520POPC   GL210562  42.431  10.360   8.949
  520POPC   C1A10563  41.975  10.514   8.836
  520POPC   D2A10564  42.202  10.364   8.466
  520POPC   C3A10565  42.002  10.337   8.067
  520POPC   C4A10566  42.216  10.317   7.653
  520POPC   C1B10567  42.393  10.802   8.757
  520POPC   C2B10568  42.473  10.915   8.341
  520POPC   C3B10569  42.383  10.682   7.989
  520POPC   C4B10570  42.451  10.762   7.573
  521POPC   NC310571  44.962  28.751   9.411
  521POPC   PO410572  44.437  28.348   9.602
  521POPC   GL110573  44.535  28.218   9.169
  521POPC   GL210574  44.895  28.279   9.131
  521POPC   C1A10575  44.534  28.145   8.723
  521POPC   D2A10576  44.477  28.446   8.403
  521POPC   C3A10577  44.584  28.294   8.029
  521POPC   C4A10578  44.665  27.928   7.771
  521POPC   C1B10579  44.803  28.593   8.789
  521POPC   C2B10580  44.868  28.798   8.389
  521POPC   C3B10581   0.028  28.691   7.997
  521POPC   C4B10582  44.786  28.589   7.651
  522POPC   NC310583  17.815  31.395   9.503
  522POPC   PO410584  18.573  31.497   9.486
  522POPC   GL110585  18.340  31.646   9.149
  522POPC   GL210586  17.989  31.520   9.035
  522POPC   C1A10587  18.380  31.533   8.726
  522POPC   D2A10588  18.402  31.641   8.331
  522POPC   C3A10589  18.222  31.346   8.079
  522POPC   C4A10590  18.220  31.292   7.663
  522POPC   C1B10591  17.934  31.722   8.590
  522POPC   C2B10592  17.898  31.721   8.165
  522POPC   C3B10593  17.843  31.663   7.738
  522POPC   C4B10594  17.773  31.984   7.436
  523POPC   NC310595  19.980  11.431   9.477
  523POPC   PO410596  19.466  10.967   9.525
  523POPC   GL110597  19.576  11.223   9.196
  523POPC   GL210598  19.561  11.588   9.168
  523POPC   C1A10599  19.732  11.222   8.800
  523POPC   D2A10600  19.709  11.054   8.376
  523POPC   C3A10601  19.832  11.206   7.953
  523POPC   C4A10602  19.616  11.542   7.735
  523POPC   C1B10603  19.956  11.663   8.870
  523POPC   C2B10604  19.924  11.511   8.433
  523POPC   C3B10605  20.049  11.636   8.059
  523POPC   C4B10606  20.053  11.784   7.696
  524POPC   NC310607   3.088  21.082   9.675
  524POPC   PO410608   3.708  21.211   9.536
  524POPC   GL110609   3.545  21.398   9.146
  524POPC   GL210610   3.556  21.135   8.909
  524POPC   C1A10611   3.580  21.648   8.731
  524POPC   D2A10612   3.477  21.462   8.330
  524POPC   C3A10613   3.479  21.682   7.943
  524POPC   C4A10614   3.759  21.466   7.675
  524POPC   C1B10615   3.186  21.350   8.742
  524POPC   C2B10616   2.967  21.542   8.401
  524POPC   C3B10617   3.063  21.338   8.045
  524POPC   C4B10618   3.244  21.268   7.646
  525POPC   NC310619  13.168  44.943   9.561
  525POPC   PO410620  12.587  44.510   9.416
  525POPC   GL110621  12.961  44.574   9.157
  525POPC   GL210622  13.051  44.907   9.074
  525POPC   C1A10623  13.047  44.532   8.728
  525POPC   D2A10624  12.789  44.567   8.396
  525POPC   C3A10625  13.021  44.620   8.081
  525POPC   C4A10626  13.102  44.678   7.701
  525POPC   C1B10627  12.707  44.918   8.770
  525POPC   C2B10628  12.707   0.074   8.345
  525POPC   C3B10629  12.603  44.915   7.976
  525POPC   C4B10630  12.756   0.024   7.575
  526POPC   NC310631  11.505  20.271   9.234
  526POPC   PO410632  11.429  20.884   9.547
  526POPC   GL110633  11.208  20.708   9.164
  526POPC   GL210634  11.015  20.421   9.132
  526POPC   C1A10635  11.329  20.745   8.721
  526POPC   D2A10636  11.354  20.889   8.293
  526POPC   C3A10637  11.365  20.536   8.049
  526POPC   C4A10638  11.370  20.460   7.630
  526POPC   C1B10639  10.915  20.456   8.715
  526POPC   C2B10640  10.933  20.307   8.291
  526POPC   C3B10641  10.864  20.493   7.925
  526POPC   C4B10642  11.023  20.887   7.894
  527POPC   NC310643  21.356  24.834   9.551
  527POPC   PO410644  21.502  25.426   9.617
  527POPC   GL110645  21.522  25.170   9.202
  527POPC   GL210646  21.770  24.907   9.243
  527POPC   C1A10647  21.458  25.057   8.744
  527POPC   D2A10648  21.520  25.249   8.316
  527POPC   C3A10649  21.236  25.127   7.969
  527POPC   C4A10650  20.803  25.069   7.765
  527POPC   C1B10651  21.817  24.702   8.840
  527POPC   C2B10652  21.887  24.862   8.420
  527POPC   C3B10653  21.728  24.930   7.977
  527POPC   C4B10654  21.679  24.660   7.634
  528POPC   NC310655  21.970  37.801   9.624
  528POPC   PO410656  22.471  37.430   9.423
  528POPC   GL110657  22.148  37.638   9.141
  528POPC   GL210658  21.828  37.862   9.143
  528POPC   C1A10659  21.936  37.557   8.752
  528POPC   D2A10660  22.017  37.436   8.336
  528POPC   C3A10661  22.141  37.707   8.012
  528POPC   C4A10662  22.337  37.604   7.578
  528POPC   C1B10663  21.601  38.004   8.758
  528POPC   C2B10664  21.777  37.876   8.358
  528POPC   C3B10665  21.644  37.904   7.940
  528POPC   C4B10666  21.816  37.647   7.634
  529POPC   NC310667   8.543  21.719   9.503
  529POPC   PO410668   9.212  21.681   9.534
  529POPC   GL110669   9.087  21.881   9.144
  529POPC   GL210670   8.751  22.016   9.145
  529POPC   C1A10671   9.142  21.881   8.677
  529POPC   D2A10672   9.343  22.217   8.432
  529POPC   C3A10673   9.293  22.309   7.983
  529POPC   C4A10674   8.896  22.504   7.785
  529POPC   C1B10675   8.575  22.058   8.756
  529POPC   C2B10676   8.722  22.012   8.354
  529POPC   C3B10677   8.590  22.065   7.944
  529POPC   C4B10678   8.969  22.006   7.745
  530POPC   NC310679  10.774  41.162   9.314
  530POPC   PO410680  10.330  41.545   9.718
  530POPC   GL110681  10.440  41.543   9.284
  530POPC   GL210682  10.620  41.823   9.210
  530POPC   C1A10683  10.398  41.614   8.825
  530POPC   D2A10684  10.303  41.586   8.408
  530POPC   C3A10685  10.629  41.493   8.109
  530POPC   C4A10686  10.545  41.498   7.676
  530POPC   C1B10687  10.864  41.835   8.839
  530POPC   C2B10688  10.731  41.893   8.438
  530POPC   C3B10689  10.925  41.925   8.032
  530POPC   C4B10690  10.770  41.952   7.654
  531POPC   NC310691   3.969  20.185   9.416
  531POPC   PO410692   3.244  19.966   9.451
  531POPC   GL110693   3.426  20.116   9.095
  531POPC   GL210694   3.734  19.934   9.048
  531POPC   C1A10695   3.391  19.856   8.690
  531POPC   D2A10696   3.723  19.748   8.368
  531POPC   C3A10697   3.524  19.607   7.972
  531POPC   C4A10698   3.257  19.860   7.690
  531POPC   C1B10699   3.715  20.244   8.699
  531POPC   C2B10700   3.914  20.288   8.332
  531POPC   C3B10701   3.958  20.019   7.972
  531POPC   C4B10702   3.789  19.823   7.591
  532POPC   NC310703  40.850  37.622   9.457
  532POPC   PO410704  41.336  37.735   9.215
  532POPC   GL110705  40.954  37.768   8.942
  532POPC   GL210706  40.656  37.544   8.988
  532POPC   C1A10707  40.712  37.815   8.542
  532POPC   D2A10708  40.444  37.675   8.202
  532POPC   C3A10709  40.647  37.670   7.780
  532POPC   C4A10710  41.029  37.947   7.588
  532POPC   C1B10711  40.537  37.320   8.598
  532POPC   C2B10712  40.406  37.167   8.186
  532POPC   C3B10713  40.248  37.351   7.819
  532POPC   C4B10714  40.371  37.368   7.388
  533POPC   NC310715  38.698  42.300   9.543
  533POPC   PO410716  38.065  42.550   9.649
  533POPC   GL110717  38.233  42.319   9.308
  533POPC   GL210718  38.412  42.616   9.223
  533POPC   C1A10719  38.151  42.308   8.873
  533POPC   D2A10720  38.305  42.250   8.463
  533POPC   C3A10721  38.104  42.392   8.068
  533POPC   C4A10722  38.207  42.697   7.747
  533POPC   C1B10723  38.671  42.462   8.891
  533POPC   C2B10724  38.774  42.468   8.465
  533POPC   C3B10725  38.630  42.440   8.062
  533POPC   C4B10726  38.701  42.557   7.637
  534POPC   NC310727   2.563   8.356   9.416
  534POPC   PO410728   1.933   7.978   9.406
  534POPC   GL110729   2.064   8.352   9.203
  534POPC   GL210730   1.753   8.333   9.046
  534POPC   C1A10731   2.192   8.349   8.768
  534POPC   D2A10732   2.135   7.996   8.509
  534POPC   C3A10733   2.238   8.060   8.091
  534POPC   C4A10734   2.111   8.171   7.701
  534POPC   C1B10735   1.654   8.155   8.665
  534POPC   C2B10736   1.795   8.299   8.274
  534POPC   C3B10737   1.619   8.279   7.873
  534POPC   C4B10738   1.662   8.200   7.456
  535POPC   NC310739  19.577   8.043   9.495
  535POPC   PO410740  20.260   8.298   9.411
  535POPC   GL110741  19.870   8.269   9.146
  535POPC   GL210742  19.649   7.956   9.013
  535POPC   C1A10743  19.755   8.399   8.757
  535POPC   D2A10744  19.711   8.139   8.417
  535POPC   C3A10745  19.895   8.304   8.081
  535POPC   C4A10746  19.764   8.425   7.693
  535POPC   C1B10747  19.999   7.920   8.788
  535POPC   C2B10748  20.066   7.736   8.417
  535POPC   C3B10749  20.107   7.830   8.032
  535POPC   C4B10750  19.958   7.968   7.669
  536POPC   NC310751  17.065  24.214   9.206
  536POPC   PO410752  16.541  24.190   9.614
  536POPC   GL110753  16.608  24.483   9.251
  536POPC   GL210754  16.408  24.426   8.995
  536POPC   C1A10755  16.804  24.644   8.819
  536POPC   D2A10756  16.897  24.514   8.431
  536POPC   C3A10757  16.775  24.731   8.071
  536POPC   C4A10758  16.890  24.476   7.737
  536POPC   C1B10759  16.523  24.215   8.604
  536POPC   C2B10760  16.552  24.259   8.121
  536POPC   C3B10761  16.446  24.150   7.681
  536POPC   C4B10762  16.493  24.061   7.199
  537POPC   NC310763  13.104  41.198   9.512
  537POPC   PO410764  12.844  41.823   9.659
  537POPC   GL110765  12.847  41.619   9.244
  537POPC   GL210766  12.600  41.325   9.327
  537POPC   C1A10767  12.851  41.698   8.784
  537POPC   D2A10768  12.803  41.466   8.378
  537POPC   C3A10769  12.984  41.310   7.979
  537POPC   C4A10770  13.081  41.552   7.581
  537POPC   C1B10771  12.515  41.329   8.887
  537POPC   C2B10772  12.308  41.407   8.494
  537POPC   C3B10773  12.435  41.250   8.083
  537POPC   C4B10774  12.590  41.411   7.668
  538POPC   NC310775  10.722   2.472   9.344
  538POPC   PO410776  10.242   2.903   9.488
  538POPC   GL110777  10.459   2.837   9.102
  538POPC   GL210778  10.269   2.543   9.109
  538POPC   C1A10779  10.691   2.745   8.693
  538POPC   D2A10780  10.537   2.570   8.300
  538POPC   C3A10781  10.678   2.853   7.983
  538POPC   C4A10782  10.947   2.758   7.649
  538POPC   C1B10783  10.188   2.733   8.712
  538POPC   C2B10784  10.256   2.979   8.376
  538POPC   C3B10785  10.163   2.818   7.982
  538POPC   C4B10786  10.244   3.147   7.793
  539POPC   NC310787   6.623  28.047   9.565
  539POPC   PO410788   6.251  28.568   9.500
  539POPC   GL110789   6.453  28.368   9.201
  539POPC   GL210790   6.231  28.132   9.150
  539POPC   C1A10791   6.634  28.475   8.813
  539POPC   D2A10792   6.522  28.582   8.392
  539POPC   C3A10793   6.787  28.454   8.003
  539POPC   C4A10794   6.814  28.114   7.658
  539POPC   C1B10795   6.065  27.988   8.762
  539POPC   C2B10796   6.119  28.148   8.368
  539POPC   C3B10797   6.263  28.338   8.009
  539POPC   C4B10798   6.293  28.065   7.675
  540POPC   NC310799  37.975   9.829   9.849
  540POPC   PO410800  37.432   9.498   9.496
  540POPC   GL110801  37.649   9.696   9.187
  540POPC   GL210802  37.967   9.769   9.281
  540POPC   C1A10803  37.776   9.559   8.793
  540POPC   D2A10804  37.638   9.452   8.409
  540POPC   C3A10805  37.761   9.668   8.051
  540POPC   C4A10806  37.485   9.547   7.739
  540POPC   C1B10807  37.911  10.042   8.890
  540POPC   C2B10808  38.030  10.140   8.447
  540POPC   C3B10809  37.895  10.254   8.015
  540POPC   C4B10810  37.547  10.074   7.775
  541POPC   NC310811  36.539  28.105   9.545
  541POPC   PO410812  35.943  28.362   9.585
  541POPC   GL110813  35.989  28.422   9.155
  541POPC   GL210814  35.831  28.082   9.108
  541POPC   C1A10815  36.287  28.511   8.776
  541POPC   D2A10816  36.473  28.704   8.378
  541POPC   C3A10817  36.273  28.508   7.978
  541POPC   C4A10818  36.328  28.130   7.691
  541POPC   C1B10819  35.607  28.267   8.756
  541POPC   C2B10820  35.626  28.322   8.305
  541POPC   C3B10821  35.741  28.542   7.955
  541POPC   C4B10822  35.907  28.403   7.513
  542POPC   NC310823  33.840   2.827   9.592
  542POPC   PO410824  33.245   2.853   9.470
  542POPC   GL110825  33.557   2.666   9.186
  542POPC   GL210826  33.957   2.684   9.118
  542POPC   C1A10827  33.499   2.506   8.789
  542POPC   D2A10828  33.374   2.609   8.388
  542POPC   C3A10829  33.641   2.531   8.043
  542POPC   C4A10830  33.682   2.823   7.735
  542POPC   C1B10831  33.775   2.952   8.810
  542POPC   C2B10832  33.821   2.891   8.375
  542POPC   C3B10833  34.094   2.854   8.034
  542POPC   C4B10834  34.099   2.550   7.737
  543POPC   NC310835   6.018  42.569   9.429
  543POPC   PO410836   5.489  42.128   9.308
  543POPC   GL110837   5.615  42.461   9.102
  543POPC   GL210838   5.915  42.272   9.048
  543POPC   C1A10839   5.769  42.660   8.733
  543POPC   D2A10840   6.039  42.629   8.355
  543POPC   C3A10841   5.808  42.569   8.014
  543POPC   C4A10842   6.004  42.630   7.599
  543POPC   C1B10843   6.118  42.259   8.694
  543POPC   C2B10844   6.379  42.121   8.389
  543POPC   C3B10845   6.074  42.090   8.138
  543POPC   C4B10846   5.929  42.157   7.764
  544POPC   NC310847  16.369  33.070   9.448
  544POPC   PO410848  15.694  33.066   9.630
  544POPC   GL110849  15.919  32.931   9.262
  544POPC   GL210850  15.803  33.247   9.136
  544POPC   C1A10851  16.077  32.757   8.860
  544POPC   D2A10852  16.232  32.907   8.456
  544POPC   C3A10853  16.243  32.786   8.034
  544POPC   C4A10854  16.054  33.035   7.717
  544POPC   C1B10855  15.717  33.378   8.702
  544POPC   C2B10856  15.726  33.169   8.291
  544POPC   C3B10857  15.597  33.331   7.888
  544POPC   C4B10858  15.740  33.367   7.442
  545POPC   NC310859  10.831  24.081   9.447
  545POPC   PO410860  10.475  24.629   9.488
  545POPC   GL110861  10.686  24.566   9.123
  545POPC   GL210862  10.521  24.274   9.073
  545POPC   C1A10863  10.626  24.681   8.674
  545POPC   D2A10864  10.540  24.483   8.273
  545POPC   C3A10865  10.498  24.688   7.852
  545POPC   C4A10866  10.571  24.681   7.422
  545POPC   C1B10867  10.857  24.185   8.778
  545POPC   C2B10868  10.824  24.016   8.350
  545POPC   C3B10869  10.743  24.112   7.933
  545POPC   C4B10870  10.901  24.342   7.611
  546POPC   NC310871   6.881  10.577   9.508
  546POPC   PO410872   6.224  10.382   9.510
  546POPC   GL110873   6.512  10.438   9.129
  546POPC   GL210874   6.846  10.592   9.017
  546POPC   C1A10875   6.560  10.351   8.677
  546POPC   D2A10876   6.380  10.510   8.324
  546POPC   C3A10877   6.572  10.457   7.929
  546POPC   C4A10878   6.865  10.216   7.694
  546POPC   C1B10879   6.966  10.848   8.676
  546POPC   C2B10880   6.928  10.689   8.253
  546POPC   C3B10881   6.953  10.805   7.829
  546POPC   C4B10882   6.900  10.677   7.402
  547POPC   NC310883  39.196  33.241   9.465
  547POPC   PO410884  39.538  32.671   9.487
  547POPC   GL110885  39.208  32.796   9.159
  547POPC   GL210886  39.392  33.057   8.983
  547POPC   C1A10887  38.967  32.894   8.754
  547POPC   D2A10888  38.995  33.004   8.304
  547POPC   C3A10889  39.322  32.759   8.122
  547POPC   C4A10890  39.507  32.746   7.732
  547POPC   C1B10891  39.215  33.312   8.632
  547POPC   C2B10892  39.205  33.479   8.215
  547POPC   C3B10893  39.282  33.391   7.772
  547POPC   C4B10894  39.277  33.154   7.373
  548POPC   NC310895   9.666  30.468   9.513
  548POPC   PO410896  10.031  31.051   9.491
  548POPC   GL110897   9.983  30.788   9.142
  548POPC   GL210898   9.617  30.741   9.092
  548POPC   C1A10899   9.943  30.720   8.713
  548POPC   D2A10900   9.738  30.718   8.341
  548POPC   C3A10901   9.973  30.674   7.986
  548POPC   C4A10902   9.910  30.831   7.620
  548POPC   C1B10903   9.544  31.052   8.758
  548POPC   C2B10904   9.306  30.986   8.365
  548POPC   C3B10905   9.454  30.876   7.920
  548POPC   C4B10906   9.463  31.170   7.536
  549POPC   NC310907  13.165  20.790  10.031
  549POPC   PO410908  13.654  20.580   9.608
  549POPC   GL110909  13.510  20.513   9.209
  549POPC   GL210910  13.672  20.193   9.219
  549POPC   C1A10911  13.433  20.648   8.774
  549POPC   D2A10912  13.451  20.872   8.358
  549POPC   C3A10913  13.555  20.607   8.016
  549POPC   C4A10914  13.454  20.462   7.567
  549POPC   C1B10915  13.802  20.288   8.818
  549POPC   C2B10916  13.872  20.619   8.518
  549POPC   C3B10917  14.056  20.621   8.133
  549POPC   C4B10918  13.951  20.575   7.696
  550POPC   NC310919  19.510   3.695   9.577
  550POPC   PO410920  20.142   3.689   9.368
  550POPC   GL110921  19.892   3.533   9.082
  550POPC   GL210922  19.548   3.550   9.099
  550POPC   C1A10923  19.863   3.552   8.661
  550POPC   D2A10924  20.044   3.779   8.389
  550POPC   C3A10925  19.691   3.806   8.170
  550POPC   C4A10926  19.633   3.714   7.767
  550POPC   C1B10927  19.487   3.252   8.765
  550POPC   C2B10928  19.438   3.390   8.373
  550POPC   C3B10929  19.593   3.266   8.008
  550POPC   C4B10930  19.363   3.295   7.644
  551POPC   NC310931  19.403   9.779   9.393
  551POPC   PO410932  18.928   9.286   9.440
  551POPC   GL110933  18.908   9.619   9.143
  551POPC   GL210934  18.772   9.988   9.205
  551POPC   C1A10935  18.880   9.480   8.731
  551POPC   D2A10936  18.964   9.383   8.304
  551POPC   C3A10937  19.230   9.670   8.121
  551POPC   C4A10938  19.209   9.814   7.697
  551POPC   C1B10939  18.971   9.995   8.788
  551POPC   C2B10940  18.793   9.862   8.392
  551POPC   C3B10941  18.754   9.845   7.965
  551POPC   C4B10942  18.771  10.139   7.639
  552POPC   NC310943  25.502  29.740   9.507
  552POPC   PO410944  24.887  29.984   9.495
  552POPC   GL110945  25.094  29.717   9.188
  552POPC   GL210946  25.303  29.982   9.104
  552POPC   C1A10947  25.346  29.556   8.835
  552POPC   D2A10948  25.280  29.822   8.483
  552POPC   C3A10949  25.294  29.668   8.125
  552POPC   C4A10950  25.392  29.732   7.743
  552POPC   C1B10951  25.342  30.260   8.794
  552POPC   C2B10952  25.233  30.335   8.422
  552POPC   C3B10953  25.350  30.164   8.038
  552POPC   C4B10954  25.113  30.153   7.667
  553POPC   NC310955  18.184   6.398   9.636
  553POPC   PO410956  18.648   6.841   9.600
  553POPC   GL110957  18.515   6.513   9.270
  553POPC   GL210958  18.286   6.734   9.196
  553POPC   C1A10959  18.353   6.378   8.855
  553POPC   D2A10960  18.321   6.280   8.410
  553POPC   C3A10961  18.261   6.413   7.979
  553POPC   C4A10962  18.472   6.424   7.587
  553POPC   C1B10963  18.518   6.849   8.781
  553POPC   C2B10964  18.333   6.893   8.341
  553POPC   C3B10965  18.279   7.181   7.960
  553POPC   C4B10966  18.098   7.403   7.558
  554POPC   NC310967  29.898   4.484   9.399
  554POPC   PO410968  30.038   3.864   9.334
  554POPC   GL110969  30.007   4.143   9.032
  554POPC   GL210970  29.676   4.193   9.050
  554POPC   C1A10971  30.188   4.318   8.677
  554POPC   D2A10972  30.322   4.181   8.294
  554POPC   C3A10973  30.004   4.203   8.001
  554POPC   C4A10974  29.980   3.974   7.679
  554POPC   C1B10975  29.733   4.513   8.767
  554POPC   C2B10976  29.699   4.326   8.391
  554POPC   C3B10977  29.533   4.426   8.003
  554POPC   C4B10978  29.787   4.691   7.732
  555POPC   NC310979  41.368  31.653   9.544
  555POPC   PO410980  41.953  31.369   9.462
  555POPC   GL110981  41.739  31.527   9.168
  555POPC   GL210982  41.419  31.337   9.114
  555POPC   C1A10983  41.821  31.368   8.766
  555POPC   D2A10984  41.612  31.347   8.385
  555POPC   C3A10985  41.825  31.518   8.065
  555POPC   C4A10986  41.805  31.270   7.721
  555POPC   C1B10987  41.239  31.216   8.701
  555POPC   C2B10988  41.114  31.207   8.259
  555POPC   C3B10989  41.350  31.356   7.909
  555POPC   C4B10990  41.261  31.598   7.522
  556POPC   NC310991  32.712  32.557   9.488
  556POPC   PO410992  32.905  33.256   9.576
  556POPC   GL110993  33.062  33.231   9.149
  556POPC   GL210994  33.433  33.215   9.127
  556POPC   C1A10995  32.989  33.042   8.741
  556POPC   D2A10996  32.934  33.241   8.357
  556POPC   C3A10997  32.907  33.138   7.939
  556POPC   C4A10998  32.846  32.879   7.603
  556POPC   C1B10999  33.481  32.899   8.796
  556POPC   C2B11000  33.312  32.858   8.368
  556POPC   C3B11001  33.407  33.129   8.033
  556POPC   C4B11002  33.301  33.084   7.610
  557POPC   NC311003   9.351  39.147   9.548
  557POPC   PO411004   9.884  38.905   9.670
  557POPC   GL111005   9.791  39.034   9.237
  557POPC   GL211006   9.697  39.392   9.245
  557POPC   C1A11007   9.664  38.969   8.784
  557POPC   D2A11008   9.437  39.012   8.379
  557POPC   C3A11009   9.594  38.914   7.964
  557POPC   C4A11010   9.891  39.126   7.710
  557POPC   C1B11011   9.958  39.378   8.882
  557POPC   C2B11012   9.839  39.326   8.433
  557POPC   C3B11013   9.874  39.522   8.022
  557POPC   C4B11014  10.089  39.727   7.646
  558POPC   NC311015  26.803  28.610   9.405
  558POPC   PO411016  26.422  28.110   9.217
  558POPC   GL111017  26.672  28.383   8.979
  558POPC   GL211018  26.517  28.731   9.001
  558POPC   C1A11019  26.954  28.266   8.669
  558POPC   D2A11020  26.793  28.026   8.315
  558POPC   C3A11021  26.942  28.167   7.900
  558POPC   C4A11022  26.834  28.065   7.465
  558POPC   C1B11023  26.907  28.812   8.753
  558POPC   C2B11024  27.024  28.682   8.335
  558POPC   C3B11025  26.819  28.702   7.942
  558POPC   C4B11026  26.947  28.551   7.537
  559POPC   NC311027   0.169  20.324   9.537
  559POPC   PO411028   0.509  20.900   9.492
  559POPC   GL111029   0.412  20.899   9.075
  559POPC   GL211030   0.183  20.654   9.126
  559POPC   C1A11031   0.537  20.701   8.669
  559POPC   D2A11032   0.451  20.533   8.275
  559POPC   C3A11033   0.481  20.885   7.991
  559POPC   C4A11034   0.434  20.996   7.554
  559POPC   C1B11035   0.133  20.390   8.774
  559POPC   C2B11036  44.944  20.390   8.378
  559POPC   C3B11037   0.072  20.271   7.999
  559POPC   C4B11038   0.437  20.428   7.768
  560POPC   NC311039   2.324  35.158   9.313
  560POPC   PO411040   1.712  35.182   9.544
  560POPC   GL111041   1.894  35.374   9.194
  560POPC   GL211042   1.736  35.615   9.052
  560POPC   C1A11043   1.895  35.177   8.810
  560POPC   D2A11044   2.112  35.140   8.427
  560POPC   C3A11045   1.961  35.427   8.140
  560POPC   C4A11046   1.997  35.330   7.722
  560POPC   C1B11047   2.024  35.627   8.680
  560POPC   C2B11048   2.383  35.638   8.391
  560POPC   C3B11049   2.364  35.626   7.924
  560POPC   C4B11050   1.941  35.824   7.754
  561POPC   NC311051  17.880   9.968   9.576
  561POPC   PO411052  18.087   9.330   9.505
  561POPC   GL111053  18.395   9.579   9.235
  561POPC   GL211054  18.238   9.899   9.212
  561POPC   C1A11055  18.452   9.787   8.786
  561POPC   D2A11056  18.061   9.777   8.534
  561POPC   C3A11057  17.869   9.900   8.123
  561POPC   C4A11058  17.946   9.671   7.745
  561POPC   C1B11059  17.966  10.102   8.907
  561POPC   C2B11060  18.043  10.269   8.494
  561POPC   C3B11061  18.338  10.079   8.207
  561POPC   C4B11062  18.286  10.045   7.783
  562POPC   NC311063  42.793  10.879   9.492
  562POPC   PO411064  43.098  11.542   9.498
  562POPC   GL111065  43.053  11.431   9.075
  562POPC   GL211066  42.717  11.278   9.102
  562POPC   C1A11067  43.228  11.388   8.641
  562POPC   D2A11068  43.552  11.162   8.365
  562POPC   C3A11069  43.364  11.056   7.987
  562POPC   C4A11070  43.092  11.327   7.744
  562POPC   C1B11071  42.708  11.267   8.638
  562POPC   C2B11072  42.939  11.099   8.267
  562POPC   C3B11073  42.870  10.879   7.864
  562POPC   C4B11074  42.864  10.984   7.373
  563POPC   NC311075   9.368  13.048   9.556
  563POPC   PO411076   9.958  12.707   9.477
  563POPC   GL111077   9.873  12.870   9.105
  563POPC   GL211078   9.513  12.845   9.071
  563POPC   C1A11079   9.890  12.690   8.711
  563POPC   D2A11080  10.029  12.783   8.356
  563POPC   C3A11081   9.851  12.706   8.035
  563POPC   C4A11082  10.028  12.773   7.627
  563POPC   C1B11083   9.658  13.158   8.724
  563POPC   C2B11084   9.703  13.328   8.277
  563POPC   C3B11085   9.721  13.153   7.847
  563POPC   C4B11086   9.534  12.758   7.654
  564POPC   NC311087  43.553   8.750   9.373
  564POPC   PO411088  44.176   9.039   9.549
  564POPC   GL111089  43.995   8.904   9.161
  564POPC   GL211090  43.840   9.178   9.094
  564POPC   C1A11091  43.821   8.745   8.754
  564POPC   D2A11092  43.934   8.480   8.389
  564POPC   C3A11093  43.815   8.740   8.031
  564POPC   C4A11094  44.016   9.089   7.773
  564POPC   C1B11095  43.749   9.252   8.691
  564POPC   C2B11096  43.749   9.173   8.281
  564POPC   C3B11097  43.539   9.201   7.912
  564POPC   C4B11098  43.506   9.068   7.525
  565POPC   NC311099  31.342  39.417   9.466
  565POPC   PO411100  31.823  39.081   9.489
  565POPC   GL111101  31.738  39.396   9.132
  565POPC   GL211102  31.408  39.315   8.979
  565POPC   C1A11103  31.666  39.625   8.704
  565POPC   D2A11104  31.376  39.387   8.430
  565POPC   C3A11105  31.488  39.437   8.012
  565POPC   C4A11106  31.463  39.181   7.661
  565POPC   C1B11107  31.168  38.987   8.791
  565POPC   C2B11108  31.239  38.825   8.408
  565POPC   C3B11109  31.147  39.049   8.069
  565POPC   C4B11110  31.032  38.915   7.664
  566POPC   NC311111  38.955  26.900   9.518
  566POPC   PO411112  39.622  26.650   9.531
  566POPC   GL111113  39.436  26.869   9.184
  566POPC   GL211114  39.134  27.028   9.087
  566POPC   C1A11115  39.430  26.781   8.738
  566POPC   D2A11116  39.613  26.945   8.360
  566POPC   C3A11117  39.469  26.877   7.928
  566POPC   C4A11118  39.436  26.638   7.535
  566POPC   C1B11119  38.906  26.881   8.779
  566POPC   C2B11120  39.037  26.872   8.387
  566POPC   C3B11121  38.992  26.739   8.006
  566POPC   C4B11122  39.039  26.939   7.632
  567POPC   NC311123  35.159  21.110   9.431
  567POPC   PO411124  35.688  21.529   9.525
  567POPC   GL111125  35.362  21.499   9.160
  567POPC   GL211126  35.273  21.155   8.957
  567POPC   C1A11127  35.312  21.690   8.765
  567POPC   D2A11128  35.560  21.694   8.388
  567POPC   C3A11129  35.401  21.644   7.964
  567POPC   C4A11130  35.440  21.847   7.579
  567POPC   C1B11131  35.562  21.235   8.658
  567POPC   C2B11132  35.497  21.226   8.242
  567POPC   C3B11133  35.583  21.184   7.869
  567POPC   C4B11134  35.201  21.206   7.688
  568POPC   NC311135  37.701   8.390   9.492
  568POPC   PO411136  37.550   7.809   9.190
  568POPC   GL111137  37.930   8.010   9.038
  568POPC   GL211138  38.030   8.354   9.096
  568POPC   C1A11139  38.054   8.025   8.622
  568POPC   D2A11140  37.770   7.980   8.272
  568POPC   C3A11141  37.835   8.174   7.874
  568POPC   C4A11142  37.429   8.283   7.718
  568POPC   C1B11143  37.767   8.477   8.794
  568POPC   C2B11144  37.874   8.467   8.391
  568POPC   C3B11145  37.592   8.570   8.098
  568POPC   C4B11146  37.752   8.681   7.755
  569POPC   NC311147  38.077  42.998   9.537
  569POPC   PO411148  38.842  42.821   9.513
  569POPC   GL111149  38.602  43.091   9.197
  569POPC   GL211150  38.277  43.288   9.157
  569POPC   C1A11151  38.554  42.979   8.749
  569POPC   D2A11152  38.786  42.983   8.352
  569POPC   C3A11153  38.592  42.985   7.950
  569POPC   C4A11154  38.558  43.251   7.584
  569POPC   C1B11155  38.076  43.143   8.763
  569POPC   C2B11156  38.214  43.035   8.317
  569POPC   C3B11157  38.114  43.203   7.885
  569POPC   C4B11158  38.087  43.180   7.411
  570POPC   NC311159  41.804   6.098   9.408
  570POPC   PO411160  41.196   5.657   9.436
  570POPC   GL111161  41.460   5.839   9.113
  570POPC   GL211162  41.332   6.187   9.054
  570POPC   C1A11163  41.791   5.795   8.784
  570POPC   D2A11164  41.955   6.027   8.410
  570POPC   C3A11165  41.685   6.267   8.137
  570POPC   C4A11166  41.500   6.068   7.785
  570POPC   C1B11167  41.463   6.146   8.610
  570POPC   C2B11168  41.469   5.819   8.286
  570POPC   C3B11169  41.277   5.565   7.957
  570POPC   C4B11170  41.327   5.626   7.519
  571POPC   NC311171   0.586  14.770   9.791
  571POPC   PO411172   0.233  15.376   9.514
  571POPC   GL111173   0.392  15.058   9.275
  571POPC   GL211174   0.671  15.284   9.187
  571POPC   C1A11175   0.334  15.030   8.831
  571POPC   D2A11176   0.376  15.230   8.410
  571POPC   C3A11177   0.393  14.961   8.064
  571POPC   C4A11178   0.162  14.915   7.694
  571POPC   C1B11179   0.566  15.524   8.813
  571POPC   C2B11180   0.738  15.595   8.393
  571POPC   C3B11181   0.604  15.458   7.961
  571POPC   C4B11182   0.444  15.373   7.553
  572POPC   NC311183  38.038  13.710   9.594
  572POPC   PO411184  37.376  13.579   9.609
  572POPC   GL111185  37.607  13.480   9.211
  572POPC   GL211186  37.777  13.779   9.069
  572POPC   C1A11187  37.575  13.429   8.743
  572POPC   D2A11188  37.601  13.187   8.342
  572POPC   C3A11189  37.768  13.466   8.059
  572POPC   C4A11190  37.392  13.538   7.841
  572POPC   C1B11191  37.964  13.738   8.651
  572POPC   C2B11192  37.711  13.911   8.360
  572POPC   C3B11193  37.674  13.960   7.949
  572POPC   C4B11194  37.731  13.723   7.550
  573POPC   NC311195   5.691  36.421   9.400
  573POPC   PO411196   6.037  37.048   9.323
  573POPC   GL111197   5.810  36.810   9.087
  573POPC   GL211198   6.107  36.578   9.143
  573POPC   C1A11199   5.645  36.963   8.700
  573POPC   D2A11200   5.739  37.358   8.480
  573POPC   C3A11201   5.574  37.348   8.059
  573POPC   C4A11202   5.753  37.114   7.707
  573POPC   C1B11203   5.978  36.511   8.725
  573POPC   C2B11204   5.749  36.552   8.346
  573POPC   C3B11205   5.958  36.760   8.021
  573POPC   C4B11206   6.156  36.808   7.623
  574POPC   NC311207  25.111  27.978   9.294
  574POPC   PO411208  25.319  27.380   9.640
  574POPC   GL111209  25.451  27.510   9.230
  574POPC   GL211210  25.609  27.853   9.288
  574POPC   C1A11211  25.364  27.352   8.807
  574POPC   D2A11212  25.458  27.203   8.408
  574POPC   C3A11213  25.217  27.425   8.103
  574POPC   C4A11214  25.493  27.419   7.758
  574POPC   C1B11215  25.665  27.767   8.842
  574POPC   C2B11216  25.438  27.739   8.462
  574POPC   C3B11217  25.496  27.848   8.051
  574POPC   C4B11218  25.137  27.880   7.825
  575POPC   NC311219  44.340   2.308   9.430
  575POPC   PO411220  44.826   1.896   9.630
  575POPC   GL111221  44.766   1.981   9.221
  575POPC   GL211222  44.989   1.707   9.162
  575POPC   C1A11223  44.686   2.088   8.805
  575POPC   D2A11224  44.407   2.155   8.457
  575POPC   C3A11225  44.636   2.098   8.083
  575POPC   C4A11226  44.452   2.196   7.699
  575POPC   C1B11227  44.816   1.597   8.788
  575POPC   C2B11228  44.963   1.800   8.432
  575POPC   C3B11229  44.969   1.684   8.030
  575POPC   C4B11230  44.606   1.677   7.773
  576POPC   NC311231  34.055  19.233   9.375
  576POPC   PO411232  34.705  19.191   9.528
  576POPC   GL111233  34.611  19.220   9.139
  576POPC   GL211234  34.367  18.976   9.067
  576POPC   C1A11235  34.742  19.021   8.749
  576POPC   D2A11236  35.028  18.937   8.378
  576POPC   C3A11237  34.801  19.026   8.027
  576POPC   C4A11238  34.387  18.904   7.858
  576POPC   C1B11239  34.321  19.319   8.739
  576POPC   C2B11240  34.374  19.211   8.305
  576POPC   C3B11241  34.329  19.397   7.903
  576POPC   C4B11242  34.325  19.377   7.442
  577POPC   NC311243  20.183   9.465   9.411
  577POPC   PO411244  19.855  10.099   9.450
  577POPC   GL111245  19.773   9.859   9.074
  577POPC   GL211246  19.935   9.538   8.977
  577POPC   C1A11247  19.559   9.697   8.678
  577POPC   D2A11248  19.820   9.557   8.332
  577POPC   C3A11249  19.705   9.733   7.952
  577POPC   C4A11250  19.623   9.573   7.544
  577POPC   C1B11251  20.064   9.846   8.682
  577POPC   C2B11252  20.211   9.900   8.296
  577POPC   C3B11253  20.227   9.683   7.945
  577POPC   C4B11254  20.065   9.855   7.598
  578POPC   NC311255  43.374  41.327   9.366
  578POPC   PO411256  42.886  41.592   9.376
  578POPC   GL111257  43.065  41.646   9.056
  578POPC   GL211258  43.363  41.854   9.181
  578POPC   C1A11259  42.869  41.616   8.675
  578POPC   D2A11260  42.866  41.810   8.312
  578POPC   C3A11261  42.882  41.549   7.987
  578POPC   C4A11262  42.933  41.722   7.600
  578POPC   C1B11263  43.460  41.648   8.757
  578POPC   C2B11264  43.294  41.524   8.366
  578POPC   C3B11265  43.484  41.467   8.005
  578POPC   C4B11266  43.420  41.583   7.620
  579POPC   NC311267  30.963  17.703   9.451
  579POPC   PO411268  30.501  17.243   9.489
  579POPC   GL111269  30.649  17.454   9.129
  579POPC   GL211270  30.940  17.299   9.116
  579POPC   C1A11271  30.587  17.780   8.788
  579POPC   D2A11272  30.666  17.584   8.380
  579POPC   C3A11273  30.677  17.749   7.964
  579POPC   C4A11274  30.497  17.441   7.698
  579POPC   C1B11275  31.024  17.523   8.749
  579POPC   C2B11276  31.169  17.702   8.367
  579POPC   C3B11277  31.138  17.459   8.003
  579POPC   C4B11278  30.989  17.441   7.617
  580POPC   NC311279  12.335  27.840   9.429
  580POPC   PO411280  12.987  27.820   9.618
  580POPC   GL111281  12.808  27.555   9.256
  580POPC   GL211282  12.982  27.205   9.171
  580POPC   C1A11283  12.743  27.734   8.849
  580POPC   D2A11284  13.043  27.879   8.545
  580POPC   C3A11285  12.989  27.834   8.103
  580POPC   C4A11286  12.647  27.799   7.839
  580POPC   C1B11287  12.710  27.236   8.781
  580POPC   C2B11288  12.781  27.118   8.330
  580POPC   C3B11289  12.917  27.344   7.956
  580POPC   C4B11290  13.147  27.552   7.641
  581POPC   NC311291   4.694  11.140  10.059
  581POPC   PO411292   5.042  11.403   9.535
  581POPC   GL111293   4.819  11.217   9.143
  581POPC   GL211294   4.655  10.858   9.167
  581POPC   C1A11295   4.929  11.393   8.734
  581POPC   D2A11296   5.325  11.482   8.520
  581POPC   C3A11297   5.328  11.378   8.089
  581POPC   C4A11298   5.311  11.052   7.799
  581POPC   C1B11299   4.748  10.917   8.714
  581POPC   C2B11300   4.979  11.056   8.345
  581POPC   C3B11301   4.815  11.003   7.949
  581POPC   C4B11302   5.025  10.635   7.865
  582POPC   NC311303  16.315  30.730   9.411
  582POPC   PO411304  16.856  30.649   9.644
  582POPC   GL111305  16.867  30.668   9.200
  582POPC   GL211306  16.950  31.030   9.166
  582POPC   C1A11307  16.651  30.513   8.832
  582POPC   D2A11308  16.603  30.606   8.378
  582POPC   C3A11309  16.517  30.472   7.931
  582POPC   C4A11310  16.757  30.636   7.556
  582POPC   C1B11311  16.616  31.018   8.839
  582POPC   C2B11312  16.706  31.113   8.410
  582POPC   C3B11313  16.728  30.934   7.975
  582POPC   C4B11314  16.896  31.121   7.572
  583POPC   NC311315  12.344  17.558   9.882
  583POPC   PO411316  12.856  17.331   9.473
  583POPC   GL111317  13.026  17.429   9.071
  583POPC   GL211318  12.812  17.702   9.085
  583POPC   C1A11319  13.012  17.575   8.633
  583POPC   D2A11320  13.202  17.714   8.262
  583POPC   C3A11321  13.096  17.452   7.945
  583POPC   C4A11322  13.179  17.498   7.516
  583POPC   C1B11323  12.536  17.707   8.760
  583POPC   C2B11324  12.533  17.500   8.370
  583POPC   C3B11325  12.597  17.624   7.959
  583POPC   C4B11326  12.697  17.405   7.588
  584POPC   NC311327   3.153  17.883   9.550
  584POPC   PO411328   2.596  17.470   9.511
  584POPC   GL111329   2.510  17.609   9.107
  584POPC   GL211330   2.850  17.746   9.138
  584POPC   C1A11331   2.650  17.565   8.670
  584POPC   D2A11332   3.011  17.432   8.403
  584POPC   C3A11333   2.930  17.295   7.981
  584POPC   C4A11334   2.585  17.378   7.726
  584POPC   C1B11335   2.841  18.025   8.790
  584POPC   C2B11336   2.693  18.001   8.383
  584POPC   C3B11337   2.745  17.770   8.036
  584POPC   C4B11338   2.808  17.836   7.613
  585POPC   NC311339  27.195  36.948   9.361
  585POPC   PO411340  27.882  36.718   9.540
  585POPC   GL111341  27.697  36.894   9.196
  585POPC   GL211342  28.000  36.825   9.053
  585POPC   C1A11343  27.518  36.747   8.786
  585POPC   D2A11344  27.691  36.684   8.370
  585POPC   C3A11345  27.379  36.677   8.042
  585POPC   C4A11346  27.174  36.711   7.633
  585POPC   C1B11347  27.857  37.127   8.741
  585POPC   C2B11348  27.635  37.172   8.322
  585POPC   C3B11349  27.790  36.999   7.937
  585POPC   C4B11350  27.869  37.222   7.559
  586POPC   NC311351  37.776  42.207   9.521
  586POPC   PO411352  37.326  42.707   9.351
  586POPC   GL111353  37.541  42.457   9.012
  586POPC   GL211354  37.685  42.116   9.034
  586POPC   C1A11355  37.722  42.420   8.576
  586POPC   D2A11356  37.576  42.357   8.141
  586POPC   C3A11357  37.721  42.443   7.695
  586POPC   C4A11358  37.927  42.666   7.329
  586POPC   C1B11359  37.859  41.905   8.703
  586POPC   C2B11360  37.903  41.974   8.305
  586POPC   C3B11361  37.817  41.952   7.912
  586POPC   C4B11362  38.041  41.990   7.587
  587POPC   NC311363  17.037  31.544   9.561
  587POPC   PO411364  17.653  31.728   9.797
  587POPC   GL111365  17.508  31.752   9.293
  587POPC   GL211366  17.155  31.781   9.142
  587POPC   C1A11367  17.515  31.544   8.841
  587POPC   D2A11368  17.707  31.277   8.483
  587POPC   C3A11369  17.543  31.373   8.076
  587POPC   C4A11370  17.382  31.268   7.682
  587POPC   C1B11371  17.128  31.886   8.727
  587POPC   C2B11372  17.443  31.859   8.431
  587POPC   C3B11373  17.228  31.792   8.095
  587POPC   C4B11374  17.330  31.800   7.683
  588POPC   NC311375  13.394  21.859   9.798
  588POPC   PO411376  12.799  22.129   9.591
  588POPC   GL111377  12.845  22.360   9.284
  588POPC   GL211378  12.905  22.051   9.084
  588POPC   C1A11379  12.767  22.475   8.877
  588POPC   D2A11380  12.950  22.660   8.539
  588POPC   C3A11381  12.877  22.399   8.191
  588POPC   C4A11382  12.679  22.420   7.793
  588POPC   C1B11383  12.826  21.804   8.698
  588POPC   C2B11384  12.906  21.556   8.309
  588POPC   C3B11385  13.114  21.699   7.941
  588POPC   C4B11386  12.861  21.808   7.588
  589POPC   NC311387  20.732  31.691   9.540
  589POPC   PO411388  20.433  31.078   9.469
  589POPC   GL111389  20.731  31.332   9.196
  589POPC   GL211390  20.468  31.558   9.108
  589POPC   C1A11391  20.872  31.560   8.812
  589POPC   D2A11392  20.555  31.587   8.463
  589POPC   C3A11393  20.702  31.550   8.096
  589POPC   C4A11394  20.774  31.577   7.695
  589POPC   C1B11395  20.371  31.253   8.805
  589POPC   C2B11396  20.133  31.272   8.389
  589POPC   C3B11397  20.290  31.261   7.960
  589POPC   C4B11398  20.133  31.291   7.540
  590POPC   NC311399  27.092  18.186   9.798
  590POPC   PO411400  27.717  18.360   9.508
  590POPC   GL111401  27.798  18.230   9.106
  590POPC   GL211402  27.500  18.459   9.018
  590POPC   C1A11403  27.638  18.059   8.745
  590POPC   D2A11404  27.507  18.335   8.434
  590POPC   C3A11405  27.560  18.192   8.033
  590POPC   C4A11406  27.469  18.150   7.624
  590POPC   C1B11407  27.896  18.645   8.850
  590POPC   C2B11408  27.908  18.785   8.427
  590POPC   C3B11409  27.647  18.696   8.101
  590POPC   C4B11410  27.780  18.554   7.713
  591POPC   NC311411  43.427  30.156   9.800
  591POPC   PO411412  42.801  29.877   9.548
  591POPC   GL111413  42.963  29.941   9.161
  591POPC   GL211414  42.903  30.244   9.177
  591POPC   C1A11415  43.214  29.914   8.779
  591POPC   D2A11416  43.485  29.909   8.447
  591POPC   C3A11417  43.369  29.831   8.030
  591POPC   C4A11418  43.363  30.136   7.713
  591POPC   C1B11419  42.769  30.185   8.752
  591POPC   C2B11420  42.630  30.031   8.337
  591POPC   C3B11421  42.897  30.016   7.964
  591POPC   C4B11422  42.928  30.326   7.611
  592POPC   NC311423   9.922  44.454   9.463
  592POPC   PO411424   9.591   0.041   9.629
  592POPC   GL111425   9.712  44.840   9.217
  592POPC   GL211426   9.606  44.591   8.991
  592POPC   C1A11427  10.024  44.845   8.823
  592POPC   D2A11428  10.158  44.939   8.355
  592POPC   C3A11429   9.850  44.904   7.977
  592POPC   C4A11430   9.715  44.796   7.527
  592POPC   C1B11431   9.836  44.387   8.629
  592POPC   C2B11432   9.957  44.401   8.173
  592POPC   C3B11433   9.724  44.367   7.782
  592POPC   C4B11434   9.606  44.319   7.325
  593POPC   NC311435  11.501  12.742   9.628
  593POPC   PO411436  11.212  13.249   9.391
  593POPC   GL111437  11.234  13.053   9.036
  593POPC   GL211438  11.173  12.746   9.188
  593POPC   C1A11439  11.450  12.786   8.752
  593POPC   D2A11440  11.628  12.878   8.361
  593POPC   C3A11441  11.341  12.991   8.036
  593POPC   C4A11442  11.409  12.719   7.751
  593POPC   C1B11443  10.916  12.694   8.808
  593POPC   C2B11444  11.043  12.756   8.398
  593POPC   C3B11445  10.918  12.626   8.004
  593POPC   C4B11446  10.948  12.923   7.680
  594POPC   NC311447   1.426  25.326   9.541
  594POPC   PO411448   0.944  24.870   9.440
  594POPC   GL111449   1.083  25.177   9.145
  594POPC   GL211450   1.453  25.144   9.073
  594POPC   C1A11451   1.142  25.242   8.688
  594POPC   D2A11452   0.974  25.472   8.339
  594POPC   C3A11453   1.086  25.309   7.955
  594POPC   C4A11454   1.009  25.324   7.541
  594POPC   C1B11455   1.643  25.277   8.667
  594POPC   C2B11456   1.507  25.340   8.257
  594POPC   C3B11457   1.522  25.599   7.902
  594POPC   C4B11458   1.696  25.572   7.525
  595POPC   NC311459   5.185  42.442   9.469
  595POPC   PO411460   4.608  42.048   9.563
  595POPC   GL111461   4.727  42.290   9.127
  595POPC   GL211462   5.092  42.250   9.016
  595POPC   C1A11463   4.800  42.286   8.629
  595POPC   D2A11464   5.064  42.261   8.280
  595POPC   C3A11465   4.849  42.315   7.898
  595POPC   C4A11466   4.916  42.568   7.508
  595POPC   C1B11467   5.264  42.552   8.708
  595POPC   C2B11468   5.253  42.771   8.312
  595POPC   C3B11469   5.244  42.612   7.926
  595POPC   C4B11470   5.481  42.367   7.671
  596POPC   NC311471   6.526  36.268   9.546
  596POPC   PO411472   6.327  35.724   9.230
  596POPC   GL111473   6.637  36.014   9.054
  596POPC   GL211474   6.435  36.214   9.050
  596POPC   C1A11475   6.988  36.034   8.773
  596POPC   D2A11476   6.952  35.892   8.346
  596POPC   C3A11477   6.564  36.035   8.138
  596POPC   C4A11478   6.783  36.088   7.761
  596POPC   C1B11479   6.503  36.453   8.733
  596POPC   C2B11480   6.322  36.506   8.341
  596POPC   C3B11481   6.477  36.607   7.987
  596POPC   C4B11482   6.547  36.494   7.621
  597POPC   NC311483  26.155  38.200   9.894
  597POPC   PO411484  26.525  38.634   9.584
  597POPC   GL111485  26.262  38.444   9.260
  597POPC   GL211486  26.170  38.760   9.126
  597POPC   C1A11487  26.024  38.320   8.868
  597POPC   D2A11488  25.848  38.158   8.493
  597POPC   C3A11489  26.031  38.135   8.099
  597POPC   C4A11490  25.946  38.252   7.700
  597POPC   C1B11491  26.373  38.752   8.730
  597POPC   C2B11492  26.259  38.521   8.374
  597POPC   C3B11493  26.220  38.619   7.933
  597POPC   C4B11494  25.854  38.727   7.649
  598POPC   NC311495  37.698  12.396   9.617
  598POPC   PO411496  37.516  11.766   9.593
  598POPC   GL111497  37.640  11.886   9.168
  598POPC   GL211498  37.901  12.121   9.208
  598POPC   C1A11499  37.668  11.984   8.718
  598POPC   D2A11500  37.572  12.215   8.330
  598POPC   C3A11501  37.639  11.990   7.935
  598POPC   C4A11502  37.500  12.031   7.516
  598POPC   C1B11503  37.978  12.359   8.847
  598POPC   C2B11504  38.090  12.286   8.451
  598POPC   C3B11505  37.993  12.343   8.038
  598POPC   C4B11506  37.975  12.212   7.595
  599POPC   NC311507  30.479  28.908   9.449
  599POPC   PO411508  30.695  29.565   9.432
  599POPC   GL111509  30.769  29.242   9.172
  599POPC   GL211510  30.459  29.146   8.993
  599POPC   C1A11511  30.924  29.167   8.775
  599POPC   D2A11512  30.654  29.332   8.504
  599POPC   C3A11513  30.840  29.433   8.147
  599POPC   C4A11514  31.070  29.415   7.736
  599POPC   C1B11515  30.511  28.860   8.662
  599POPC   C2B11516  30.823  28.860   8.344
  599POPC   C3B11517  30.818  28.988   7.918
  599POPC   C4B11518  30.441  29.226   7.862
  600POPC   NC311519  36.411  22.781   9.510
  600POPC   PO411520  35.808  22.941   9.363
  600POPC   GL111521  36.082  23.087   9.072
  600POPC   GL211522  36.346  23.312   9.092
  600POPC   C1A11523  36.343  22.871   8.787
  600POPC   D2A11524  36.163  22.775   8.394
  600POPC   C3A11525  36.236  22.878   7.973
  600POPC   C4A11526  36.020  22.982   7.591
  600POPC   C1B11527  36.629  23.281   8.704
  600POPC   C2B11528  36.544  23.218   8.238
  600POPC   C3B11529  36.375  23.340   7.804
  600POPC   C4B11530  36.298  23.301   7.353
  601POPC   NC311531  24.255  18.698   9.463
  601POPC   PO411532  24.643  19.212   9.388
  601POPC   GL111533  24.364  19.343   9.099
  601POPC   GL211534  24.139  19.094   9.171
  601POPC   C1A11535  24.557  19.302   8.691
  601POPC   D2A11536  24.643  18.939   8.443
  601POPC   C3A11537  24.740  19.090   8.043
  601POPC   C4A11538  24.653  18.936   7.667
  601POPC   C1B11539  24.256  18.867   8.810
  601POPC   C2B11540  24.170  18.730   8.386
  601POPC   C3B11541  24.236  18.968   8.021
  601POPC   C4B11542  24.155  18.962   7.605
  602POPC   NC311543  41.738  32.576   9.441
  602POPC   PO411544  41.780  31.900   9.597
  602POPC   GL111545  41.837  32.095   9.178
  602POPC   GL211546  41.985  31.889   8.908
  602POPC   C1A11547  41.710  32.312   8.788
  602POPC   D2A11548  41.470  32.194   8.403
  602POPC   C3A11549  41.583  32.358   7.987
  602POPC   C4A11550  41.272  32.439   7.679
  602POPC   C1B11551  41.524  31.784   8.754
  602POPC   C2B11552  41.255  31.710   8.359
  602POPC   C3B11553  41.400  31.876   7.948
  602POPC   C4B11554  41.845  31.946   7.789
  603POPC   NC311555  27.125  20.439   9.510
  603POPC   PO411556  26.681  19.964   9.468
  603POPC   GL111557  26.778  19.899   9.076
  603POPC   GL211558  27.114  20.079   9.099
  603POPC   C1A11559  26.741  19.709   8.694
  603POPC   D2A11560  26.860  19.879   8.308
  603POPC   C3A11561  26.801  19.685   7.901
  603POPC   C4A11562  26.658  19.757   7.458
  603POPC   C1B11563  27.258  19.831   8.762
  603POPC   C2B11564  27.293  19.638   8.359
  603POPC   C3B11565  27.268  19.923   7.985
  603POPC   C4B11566  27.174  19.792   7.563
  604POPC   NC311567  32.450  28.793   9.469
  604POPC   PO411568  32.619  29.537   9.545
  604POPC   GL111569  32.418  29.274   9.260
  604POPC   GL211570  32.211  29.417   9.160
  604POPC   C1A11571  32.370  29.047   8.847
  604POPC   D2A11572  32.400  28.989   8.392
  604POPC   C3A11573  32.139  28.989   8.020
  604POPC   C4A11574  32.313  28.996   7.609
  604POPC   C1B11575  32.458  29.552   8.800
  604POPC   C2B11576  32.289  29.702   8.466
  604POPC   C3B11577  32.127  29.484   8.157
  604POPC   C4B11578  32.136  29.465   7.733
  605POPC   NC311579  16.809  33.701   9.503
  605POPC   PO411580  16.168  33.540   9.466
  605POPC   GL111581  16.496  33.688   9.094
  605POPC   GL211582  16.883  33.748   9.014
  605POPC   C1A11583  16.539  33.755   8.628
  605POPC   D2A11584  16.846  33.645   8.294
  605POPC   C3A11585  16.820  33.767   7.836
  605POPC   C4A11586  16.648  33.611   7.409
  605POPC   C1B11587  16.934  34.084   8.699
  605POPC   C2B11588  16.964  34.154   8.248
  605POPC   C3B11589  17.089  34.235   7.797
  605POPC   C4B11590  16.869  34.090   7.444
  606POPC   NC311591   0.300  16.516   9.489
  606POPC   PO411592   0.902  16.904   9.525
  606POPC   GL111593   0.760  16.852   9.121
  606POPC   GL211594   0.489  16.640   9.053
  606POPC   C1A11595   0.665  16.898   8.673
  606POPC   D2A11596   0.519  16.681   8.332
  606POPC   C3A11597   0.439  16.821   7.895
  606POPC   C4A11598   0.657  16.705   7.503
  606POPC   C1B11599   0.340  16.417   8.750
  606POPC   C2B11600   0.133  16.324   8.387
  606POPC   C3B11601   0.334  16.311   8.045
  606POPC   C4B11602   0.380  16.331   7.668
  607POPC   NC311603   8.346  13.511   9.545
  607POPC   PO411604   7.732  13.820   9.606
  607POPC   GL111605   8.015  13.741   9.227
  607POPC   GL211606   8.217  14.023   9.169
  607POPC   C1A11607   8.234  13.442   8.914
  607POPC   D2A11608   8.507  13.488   8.540
  607POPC   C3A11609   8.330  13.370   8.149
  607POPC   C4A11610   8.151  13.488   7.767
  607POPC   C1B11611   8.235  13.909   8.727
  607POPC   C2B11612   8.258  13.879   8.279
  607POPC   C3B11613   8.490  13.891   7.908
  607POPC   C4B11614   8.386  13.838   7.483
  608POPC   NC311615   4.511  34.421   9.290
  608POPC   PO411616   4.214  33.857   9.512
  608POPC   GL111617   4.289  33.649   9.118
  608POPC   GL211618   4.516  33.907   9.086
  608POPC   C1A11619   4.192  33.803   8.684
  608POPC   D2A11620   4.337  33.864   8.260
  608POPC   C3A11621   4.125  33.700   7.911
  608POPC   C4A11622   4.276  33.492   7.528
  608POPC   C1B11623   4.655  34.060   8.720
  608POPC   C2B11624   4.737  34.164   8.322
  608POPC   C3B11625   4.799  34.145   7.917
  608POPC   C4B11626   4.612  33.808   7.718
  609POPC   NC311627  26.990  14.952   9.507
  609POPC   PO411628  26.820  14.319   9.467
  609POPC   GL111629  27.005  14.303   9.085
  609POPC   GL211630  27.023  14.662   9.097
  609POPC   C1A11631  26.931  14.162   8.663
  609POPC   D2A11632  27.075  14.104   8.222
  609POPC   C3A11633  26.787  14.238   7.878
  609POPC   C4A11634  26.782  14.133   7.425
  609POPC   C1B11635  26.738  14.646   8.750
  609POPC   C2B11636  26.654  14.536   8.321
  609POPC   C3B11637  26.711  14.740   7.922
  609POPC   C4B11638  26.935  14.613   7.546
  610POPC   NC311639  15.082  29.691   9.582
  610POPC   PO411640  15.377  29.029   9.573
  610POPC   GL111641  15.309  29.086   9.187
  610POPC   GL211642  15.265  29.434   9.165
  610POPC   C1A11643  15.298  29.075   8.769
  610POPC   D2A11644  14.985  29.132   8.462
  610POPC   C3A11645  15.289  29.164   8.140
  610POPC   C4A11646  15.369  29.189   7.706
  610POPC   C1B11647  15.127  29.565   8.760
  610POPC   C2B11648  15.084  29.633   8.336
  610POPC   C3B11649  14.930  29.454   7.944
  610POPC   C4B11650  15.086  29.632   7.607
  611POPC   NC311651  26.885  30.289   9.949
  611POPC   PO411652  26.412  30.634   9.512
  611POPC   GL111653  26.693  30.718   9.110
  611POPC   GL211654  26.533  30.993   8.906
  611POPC   C1A11655  26.954  30.599   8.713
  611POPC   D2A11656  27.102  30.723   8.313
  611POPC   C3A11657  27.107  30.516   7.946
  611POPC   C4A11658  26.954  30.680   7.602
  611POPC   C1B11659  26.470  30.668   8.585
  611POPC   C2B11660  26.718  30.398   8.304
  611POPC   C3B11661  26.627  30.664   7.991
  611POPC   C4B11662  26.354  30.526   7.723
  612POPC   NC311663   0.685  25.232   9.559
  612POPC   PO411664   0.041  25.335   9.639
  612POPC   GL111665   0.181  25.287   9.175
  612POPC   GL211666   0.439  25.063   9.147
  612POPC   C1A11667   0.138  25.116   8.723
  612POPC   D2A11668   0.076  24.948   8.272
  612POPC   C3A11669   0.259  25.221   7.943
  612POPC   C4A11670   0.616  25.477   7.852
  612POPC   C1B11671   0.648  25.156   8.742
  612POPC   C2B11672   0.621  25.101   8.267
  612POPC   C3B11673   0.706  24.991   7.795
  612POPC   C4B11674   0.724  24.960   7.307
  613POPC   NC311675  44.536   7.062   9.714
  613POPC   PO411676  44.931   7.556   9.691
  613POPC   GL111677  44.854   7.517   9.236
  613POPC   GL211678  44.820   7.170   9.137
  613POPC   C1A11679  44.504   7.582   8.891
  613POPC   D2A11680  44.334   7.617   8.452
  613POPC   C3A11681  44.557   7.654   8.057
  613POPC   C4A11682  44.449   7.418   7.650
  613POPC   C1B11683  44.955   7.386   8.743
  613POPC   C2B11684  44.978   7.456   8.296
  613POPC   C3B11685  44.892   7.244   7.896
  613POPC   C4B11686  44.930   7.339   7.449
  614POPC   NC311687  11.837   1.263   9.488
  614POPC   PO411688  12.477   1.292   9.445
  614POPC   GL111689  12.217   1.216   9.116
  614POPC   GL211690  11.984   0.931   9.128
  614POPC   C1A11691  12.019   1.237   8.741
  614POPC   D2A11692  12.067   1.382   8.392
  614POPC   C3A11693  12.332   1.145   8.133
  614POPC   C4A11694  12.313   1.287   7.732
  614POPC   C1B11695  11.804   0.766   8.749
  614POPC   C2B11696  11.891   0.908   8.337
  614POPC   C3B11697  11.836   1.170   7.974
  614POPC   C4B11698  11.784   1.109   7.527
  615POPC   NC311699  12.373  25.303   9.530
  615POPC   PO411700  11.808  25.010   9.313
  615POPC   GL111701  11.869  25.327   9.032
  615POPC   GL211702  12.226  25.395   9.040
  615POPC   C1A11703  11.944  25.263   8.585
  615POPC   D2A11704  12.167  25.082   8.238
  615POPC   C3A11705  11.945  25.089   7.846
  615POPC   C4A11706  12.260  25.180   7.552
  615POPC   C1B11707  12.155  25.715   8.730
  615POPC   C2B11708  12.136  25.771   8.277
  615POPC   C3B11709  12.111  25.591   7.857
  615POPC   C4B11710  11.995  25.621   7.406
  616POPC   NC311711   3.700  31.051   9.543
  616POPC   PO411712   3.321  31.607   9.762
  616POPC   GL111713   3.508  31.570   9.320
  616POPC   GL211714   3.599  31.295   9.125
  616POPC   C1A11715   3.430  31.678   8.861
  616POPC   D2A11716   3.636  31.626   8.507
  616POPC   C3A11717   3.529  31.698   8.087
  616POPC   C4A11718   3.599  31.583   7.683
  616POPC   C1B11719   3.562  31.098   8.766
  616POPC   C2B11720   3.748  31.138   8.403
  616POPC   C3B11721   3.753  31.218   8.003
  616POPC   C4B11722   3.919  31.182   7.576
  617POPC   NC311723  24.489  23.956   9.347
  617POPC   PO411724  23.980  23.402   9.209
  617POPC   GL111725  24.235  23.659   8.979
  617POPC   GL211726  24.585  23.652   8.966
  617POPC   C1A11727  24.260  23.710   8.540
  617POPC   D2A11728  24.316  24.042   8.273
  617POPC   C3A11729  24.445  24.005   7.856
  617POPC   C4A11730  24.584  24.032   7.431
  617POPC   C1B11731  24.622  23.368   8.672
  617POPC   C2B11732  24.699  23.546   8.328
  617POPC   C3B11733  24.583  23.530   7.992
  617POPC   C4B11734  24.753  23.592   7.625
  618POPC   NC311735  40.416  43.734   9.489
  618POPC   PO411736  41.035  44.028   9.456
  618POPC   GL111737  40.847  44.022   9.051
  618POPC   GL211738  40.557  43.828   9.026
  618POPC   C1A11739  41.012  43.861   8.657
  618POPC   D2A11740  41.072  43.962   8.223
  618POPC   C3A11741  40.705  44.176   8.057
  618POPC   C4A11742  40.560  44.260   7.666
  618POPC   C1B11743  40.579  43.564   8.688
  618POPC   C2B11744  40.573  43.759   8.330
  618POPC   C3B11745  40.745  43.676   7.968
  618POPC   C4B11746  40.546  43.763   7.671
  619POPC   NC311747   1.923  42.223   9.347
  619POPC   PO411748   1.548  42.811   9.390
  619POPC   GL111749   1.755  42.577   9.045
  619POPC   GL211750   2.133  42.553   9.006
  619POPC   C1A11751   1.854  42.268   8.701
  619POPC   D2A11752   2.017  42.491   8.363
  619POPC   C3A11753   1.931  42.460   7.916
  619POPC   C4A11754   2.131  42.463   7.526
  619POPC   C1B11755   2.360  42.237   8.770
  619POPC   C2B11756   2.292  42.068   8.355
  619POPC   C3B11757   2.397  42.248   7.961
  619POPC   C4B11758   2.508  42.046   7.601
  620POPC   NC311759  29.757  41.593   9.538
  620POPC   PO411760  30.302  41.270   9.545
  620POPC   GL111761  30.081  41.428   9.185
  620POPC   GL211762  29.952  41.776   9.115
  620POPC   C1A11763  29.815  41.337   8.840
  620POPC   D2A11764  29.888  41.223   8.418
  620POPC   C3A11765  30.047  41.496   8.081
  620POPC   C4A11766  30.008  41.379   7.674
  620POPC   C1B11767  30.077  42.026   8.799
  620POPC   C2B11768  29.949  41.887   8.414
  620POPC   C3B11769  30.023  42.057   8.035
  620POPC   C4B11770  30.153  41.867   7.694
  621POPC   NC311771  41.690  22.226   9.586
  621POPC   PO411772  41.856  21.700   9.188
  621POPC   GL111773  41.539  21.999   9.132
  621POPC   GL211774  41.605  22.343   9.097
  621POPC   C1A11775  41.397  22.080   8.718
  621POPC   D2A11776  41.508  22.188   8.291
  621POPC   C3A11777  41.579  22.085   7.867
  621POPC   C4A11778  41.975  21.956   7.684
  621POPC   C1B11779  41.619  22.575   8.750
  621POPC   C2B11780  41.466  22.677   8.335
  621POPC   C3B11781  41.722  22.561   7.979
  621POPC   C4B11782  41.818  22.437   7.574
  622POPC   NC311783   4.197  43.377   9.615
  622POPC   PO411784   4.691  42.853   9.484
  622POPC   GL111785   4.538  42.983   9.124
  622POPC   GL211786   4.325  43.232   9.150
  622POPC   C1A11787   4.651  43.247   8.754
  622POPC   D2A11788   4.421  43.294   8.402
  622POPC   C3A11789   4.581  43.279   8.015
  622POPC   C4A11790   4.379  43.390   7.666
  622POPC   C1B11791   4.076  43.362   8.804
  622POPC   C2B11792   3.932  43.176   8.426
  622POPC   C3B11793   4.034  43.323   8.045
  622POPC   C4B11794   3.964  43.108   7.691
  623POPC   NC311795   6.300   9.921   9.600
  623POPC   PO411796   6.255   9.406   9.294
  623POPC   GL111797   6.517   9.563   9.011
  623POPC   GL211798   6.804   9.593   9.192
  623POPC   C1A11799   6.563   9.839   8.663
  623POPC   D2A11800   6.627  10.034   8.249
  623POPC   C3A11801   6.580   9.786   7.856
  623POPC   C4A11802   6.484   9.964   7.433
  623POPC   C1B11803   7.010   9.605   8.807
  623POPC   C2B11804   6.959   9.632   8.383
  623POPC   C3B11805   7.079   9.856   8.032
  623POPC   C4B11806   7.062   9.690   7.650
  624POPC   NC311807  40.184   1.873   9.648
  624POPC   PO411808  40.136   2.506   9.582
  624POPC   GL111809  40.079   2.255   9.167
  624POPC   GL211810  39.847   1.955   9.178
  624POPC   C1A11811  39.785   2.236   8.776
  624POPC   D2A11812  39.813   2.054   8.373
  624POPC   C3A11813  39.879   2.335   8.034
  624POPC   C4A11814  40.237   2.301   7.764
  624POPC   C1B11815  40.023   1.790   8.781
  624POPC   C2B11816  40.286   1.726   8.436
  624POPC   C3B11817  40.205   1.596   8.036
  624POPC   C4B11818  39.952   1.869   7.792
  625POPC   NC311819  17.803   8.971   9.564
  625POPC   PO411820  17.177   9.088   9.609
  625POPC   GL111821  17.421   9.202   9.208
  625POPC   GL211822  17.730   9.395   9.150
  625POPC   C1A11823  17.424   9.240   8.733
  625POPC   D2A11824  17.641   9.042   8.360
  625POPC   C3A11825  17.446   8.973   7.950
  625POPC   C4A11826  17.433   8.578   7.682
  625POPC   C1B11827  17.922   9.334   8.720
  625POPC   C2B11828  17.970   9.389   8.237
  625POPC   C3B11829  17.892   9.185   7.828
  625POPC   C4B11830  17.786   9.164   7.372
  626POPC   NC311831  38.997  43.250   9.634
  626POPC   PO411832  39.617  43.040   9.511
  626POPC   GL111833  39.424  42.965   9.105
  626POPC   GL211834  39.113  43.128   9.146
  626POPC   C1A11835  39.369  43.204   8.718
  626POPC   D2A11836  39.090  43.401   8.439
  626POPC   C3A11837  39.253  43.156   8.121
  626POPC   C4A11838  39.501  43.083   7.757
  626POPC   C1B11839  39.040  42.824   8.794
  626POPC   C2B11840  39.216  42.708   8.387
  626POPC   C3B11841  39.056  42.715   7.974
  626POPC   C4B11842  38.993  42.987   7.615
  627POPC   NC311843  23.307  36.991   9.626
  627POPC   PO411844  23.058  37.610   9.601
  627POPC   GL111845  23.053  37.654   9.119
  627POPC   GL211846  22.727  37.550   9.000
  627POPC   C1A11847  23.141  37.450   8.696
  627POPC   D2A11848  23.050  37.510   8.283
  627POPC   C3A11849  23.307  37.440   7.938
  627POPC   C4A11850  22.966  37.380   7.692
  627POPC   C1B11851  22.430  37.697   8.688
  627POPC   C2B11852  22.463  37.965   8.333
  627POPC   C3B11853  22.594  37.900   7.906
  627POPC   C4B11854  22.641  38.067   7.497
  628POPC   NC311855  39.004  34.154   9.820
  628POPC   PO411856  39.427  33.659   9.540
  628POPC   GL111857  39.372  33.551   9.093
  628POPC   GL211858  39.054  33.506   9.051
  628POPC   C1A11859  39.383  33.767   8.682
  628POPC   D2A11860  39.630  33.715   8.354
  628POPC   C3A11861  39.465  33.857   7.983
  628POPC   C4A11862  39.585  33.877   7.590
  628POPC   C1B11863  38.893  33.747   8.742
  628POPC   C2B11864  39.048  34.040   8.431
  628POPC   C3B11865  38.978  34.039   8.044
  628POPC   C4B11866  38.955  33.763   7.764
  629POPC   NC311867  30.972   1.222   9.558
  629POPC   PO411868  30.437   1.537   9.526
  629POPC   GL111869  30.611   1.315   9.211
  629POPC   GL211870  30.480   1.018   9.280
  629POPC   C1A11871  30.836   1.375   8.847
  629POPC   D2A11872  30.653   1.423   8.473
  629POPC   C3A11873  30.827   1.574   8.118
  629POPC   C4A11874  30.977   1.330   7.798
  629POPC   C1B11875  30.442   1.045   8.823
  629POPC   C2B11876  30.399   0.988   8.391
  629POPC   C3B11877  30.405   1.226   8.044
  629POPC   C4B11878  30.347   1.240   7.618
  630POPC   NC311879  39.099  19.544   9.372
  630POPC   PO411880  39.403  20.122   9.490
  630POPC   GL111881  39.278  19.987   9.089
  630POPC   GL211882  39.491  19.724   9.025
  630POPC   C1A11883  39.342  19.964   8.622
  630POPC   D2A11884  39.321  19.749   8.287
  630POPC   C3A11885  39.475  19.975   7.952
  630POPC   C4A11886  39.360  19.810   7.553
  630POPC   C1B11887  39.532  19.458   8.671
  630POPC   C2B11888  39.625  19.332   8.261
  630POPC   C3B11889  39.658  19.508   7.908
  630POPC   C4B11890  39.741  19.392   7.519
  631POPC   NC311891  37.208  13.180   9.767
  631POPC   PO411892  36.633  12.908   9.615
  631POPC   GL111893  36.972  12.979   9.295
  631POPC   GL211894  37.091  13.349   9.259
  631POPC   C1A11895  36.999  12.721   8.891
  631POPC   D2A11896  36.767  12.600   8.522
  631POPC   C3A11897  36.802  12.797   8.147
  631POPC   C4A11898  36.851  12.645   7.767
  631POPC   C1B11899  37.145  13.202   8.866
  631POPC   C2B11900  36.963  13.135   8.493
  631POPC   C3B11901  37.053  13.235   8.076
  631POPC   C4B11902  37.134  13.142   7.663
  632POPC   NC311903  44.495  24.925   9.707
  632POPC   PO411904  44.707  25.542   9.270
  632POPC   GL111905  44.721  25.373   8.928
  632POPC   GL211906  44.442  25.181   8.945
  632POPC   C1A11907  44.719  25.334   8.536
  632POPC   D2A11908  44.926  25.437   8.251
  632POPC   C3A11909  44.746  25.244   7.941
  632POPC   C4A11910  44.801  25.288   7.511
  632POPC   C1B11911  44.275  25.539   8.688
  632POPC   C2B11912  44.392  25.610   8.229
  632POPC   C3B11913  44.395  25.561   7.760
  632POPC   C4B11914  44.334  25.351   7.346
  633POPC   NC311915  32.721  27.948   9.524
  633POPC   PO411916  33.380  28.198   9.422
  633POPC   GL111917  33.015  28.260   9.180
  633POPC   GL211918  32.811  28.543   9.195
  633POPC   C1A11919  32.804  28.071   8.842
  633POPC   D2A11920  32.991  28.167   8.459
  633POPC   C3A11921  32.745  28.188   8.121
  633POPC   C4A11922  32.893  28.319   7.721
  633POPC   C1B11923  32.931  28.583   8.753
  633POPC   C2B11924  32.813  28.672   8.331
  633POPC   C3B11925  32.762  28.899   7.952
  633POPC   C4B11926  32.750  28.752   7.524
  634POPC   NC311927  33.052   0.674   9.713
  634POPC   PO411928  32.858   0.224   9.234
  634POPC   GL111929  32.945   0.397   8.978
  634POPC   GL211930  33.152   0.689   9.144
  634POPC   C1A11931  33.003   0.174   8.603
  634POPC   D2A11932  33.025   0.308   8.215
  634POPC   C3A11933  32.735   0.227   7.902
  634POPC   C4A11934  32.701   0.249   7.451
  634POPC   C1B11935  33.265   0.619   8.700
  634POPC   C2B11936  33.226   0.793   8.319
  634POPC   C3B11937  33.115   0.695   7.919
  634POPC   C4B11938  33.180   0.323   7.681
  635POPC   NC311939   9.251   5.465   9.493
  635POPC   PO411940   8.900   6.010   9.517
  635POPC   GL111941   9.079   6.052   9.128
  635POPC   GL211942   8.952   5.734   9.036
  635POPC   C1A11943   9.168   6.045   8.686
  635POPC   D2A11944   9.427   5.914   8.359
  635POPC   C3A11945   9.277   5.960   7.993
  635POPC   C4A11946   9.024   5.977   7.665
  635POPC   C1B11947   9.243   5.540   8.715
  635POPC   C2B11948   9.283   5.446   8.239
  635POPC   C3B11949   8.998   5.501   7.882
  635POPC   C4B11950   8.642   5.648   7.603
  636POPC   NC311951  30.597   5.346   9.356
  636POPC   PO411952  30.246   4.782   9.483
  636POPC   GL111953  30.565   4.902   9.115
  636POPC   GL211954  30.910   4.699   9.042
  636POPC   C1A11955  30.605   5.145   8.724
  636POPC   D2A11956  30.443   5.113   8.309
  636POPC   C3A11957  30.604   5.426   8.009
  636POPC   C4A11958  31.005   5.427   7.797
  636POPC   C1B11959  31.096   4.891   8.672
  636POPC   C2B11960  30.993   5.126   8.284
  636POPC   C3B11961  30.807   4.958   7.913
  636POPC   C4B11962  30.714   4.634   7.634
  637POPC   NC311963   3.000  22.613   9.364
  637POPC   PO411964   2.512  23.061   9.456
  637POPC   GL111965   2.663  23.036   9.065
  637POPC   GL211966   2.349  23.247   8.961
  637POPC   C1A11967   2.845  22.782   8.693
  637POPC   D2A11968   3.215  22.777   8.370
  637POPC   C3A11969   3.134  22.722   7.919
  637POPC   C4A11970   2.799  22.806   7.645
  637POPC   C1B11971   2.621  23.247   8.607
  637POPC   C2B11972   2.667  22.994   8.248
  637POPC   C3B11973   2.547  23.172   7.872
  637POPC   C4B11974   2.782  23.496   7.653
  638POPC   NC311975  39.146  16.894   9.528
  638POPC   PO411976  38.937  16.320   9.425
  638POPC   GL111977  39.101  16.591   9.115
  638POPC   GL211978  39.429  16.790   9.123
  638POPC   C1A11979  39.144  16.694   8.700
  638POPC   D2A11980  38.941  16.839   8.410
  638POPC   C3A11981  39.041  16.573   8.122
  638POPC   C4A11982  38.918  16.693   7.740
  638POPC   C1B11983  39.434  17.091   8.789
  638POPC   C2B11984  39.515  16.960   8.372
  638POPC   C3B11985  39.314  16.971   7.976
  638POPC   C4B11986  39.439  16.608   7.785
  639POPC   NC311987   9.852  29.622   9.474
  639POPC   PO411988  10.075  30.226   9.554
  639POPC   GL111989   9.892  30.105   9.179
  639POPC   GL211990  10.093  30.297   8.962
  639POPC   C1A11991   9.833  29.792   8.849
  639POPC   D2A11992   9.663  29.787   8.445
  639POPC   C3A11993   9.910  29.735   8.114
  639POPC   C4A11994   9.754  29.897   7.735
  639POPC   C1B11995   9.754  30.259   8.634
  639POPC   C2B11996   9.774  30.229   8.165
  639POPC   C3B11997   9.572  30.381   7.768
  639POPC   C4B11998   9.589  30.225   7.323
  640POPC   NC311999   9.643  38.194   9.487
  640POPC   PO412000  10.119  38.563   9.303
  640POPC   GL112001   9.893  38.560   9.000
  640POPC   GL212002   9.545  38.590   9.147
  640POPC   C1A12003  10.010  38.646   8.591
  640POPC   D2A12004   9.671  38.538   8.367
  640POPC   C3A12005   9.685  38.221   8.052
  640POPC   C4A12006   9.887  38.463   7.748
  640POPC   C1B12007   9.485  38.265   8.822
  640POPC   C2B12008   9.229  38.318   8.477
  640POPC   C3B12009   9.270  38.529   8.064
  640POPC   C4B12010   9.398  38.395   7.641
  641POPC   NC312011  12.153   6.820   9.616
  641POPC   PO412012  12.325   6.288   9.585
  641POPC   GL112013  11.997   6.452   9.227
  641POPC   GL212014  12.163   6.693   9.037
  641POPC   C1A12015  11.773   6.479   8.755
  641POPC   D2A12016  11.816   6.331   8.304
  641POPC   C3A12017  11.780   6.636   7.964
  641POPC   C4A12018  11.698   6.844   7.561
  641POPC   C1B12019  12.266   6.413   8.647
  641POPC   C2B12020  12.312   6.352   8.171
  641POPC   C3B12021  12.427   6.591   7.805
  641POPC   C4B12022  12.497   6.530   7.354
  642POPC   NC312023  11.230  38.003   9.489
  642POPC   PO412024  11.670  37.463   9.448
  642POPC   GL112025  11.341  37.624   9.155
  642POPC   GL212026  11.114  37.935   9.013
  642POPC   C1A12027  11.176  37.453   8.786
  642POPC   D2A12028  10.999  37.370   8.394
  642POPC   C3A12029  11.256  37.355   8.047
  642POPC   C4A12030  11.079  37.477   7.700
  642POPC   C1B12031  11.471  37.930   8.779
  642POPC   C2B12032  11.430  37.701   8.411
  642POPC   C3B12033  11.209  37.857   8.041
  642POPC   C4B12034  11.350  37.999   7.658
  643POPC   NC312035   0.985  36.372   9.474
  643POPC   PO412036   1.033  35.763   9.447
  643POPC   GL112037   1.359  35.972   9.144
  643POPC   GL212038   1.418  36.368   9.190
  643POPC   C1A12039   1.578  35.922   8.700
  643POPC   D2A12040   1.520  35.648   8.329
  643POPC   C3A12041   1.330  35.856   7.959
  643POPC   C4A12042   0.929  36.029   7.785
  643POPC   C1B12043   1.249  36.307   8.767
  643POPC   C2B12044   1.428  36.291   8.332
  643POPC   C3B12045   1.276  36.416   7.911
  643POPC   C4B12046   1.186  36.409   7.478
  644POPC   NC312047  13.181  42.472   9.302
  644POPC   PO412048  13.876  42.431   9.416
  644POPC   GL112049  13.638  42.302   9.104
  644POPC   GL212050  13.792  42.509   8.885
  644POPC   C1A12051  13.579  42.075   8.728
  644POPC   D2A12052  13.719  42.257   8.381
  644POPC   C3A12053  13.629  42.121   7.988
  644POPC   C4A12054  13.868  42.245   7.635
  644POPC   C1B12055  13.356  42.531   8.709
  644POPC   C2B12056  13.242  42.591   8.328
  644POPC   C3B12057  13.555  42.618   8.036
  644POPC   C4B12058  13.420  42.462   7.658
  645POPC   NC312059  14.437  21.549   9.521
  645POPC   PO412060  14.163  20.940   9.414
  645POPC   GL112061  14.161  21.267   9.141
  645POPC   GL212062  14.501  21.374   9.037
  645POPC   C1A12063  14.105  21.452   8.739
  645POPC   D2A12064  14.352  21.447   8.358
  645POPC   C3A12065  14.142  21.439   7.992
  645POPC   C4A12066  14.040  21.479   7.601
  645POPC   C1B12067  14.551  21.727   8.734
  645POPC   C2B12068  14.745  21.792   8.323
  645POPC   C3B12069  14.577  21.720   7.931
  645POPC   C4B12070  14.669  21.296   7.802
  646POPC   NC312071  18.815  23.345   9.493
  646POPC   PO412072  19.037  23.989   9.441
  646POPC   GL112073  19.028  23.680   9.091
  646POPC   GL212074  18.750  23.447   8.987
  646POPC   C1A12075  18.986  23.796   8.646
  646POPC   D2A12076  18.733  23.878   8.273
  646POPC   C3A12077  19.006  24.005   7.908
  646POPC   C4A12078  19.034  24.060   7.421
  646POPC   C1B12079  18.780  23.332   8.553
  646POPC   C2B12080  19.154  23.400   8.342
  646POPC   C3B12081  19.335  23.469   7.965
  646POPC   C4B12082  19.059  23.566   7.693
  647POPC   NC312083  32.566  10.483   9.468
  647POPC   PO412084  32.184  11.021   9.515
  647POPC   GL112085  32.254  10.748   9.140
  647POPC   GL212086  32.137  10.389   9.125
  647POPC   C1A12087  32.481  10.522   8.782
  647POPC   D2A12088  32.321  10.460   8.362
  647POPC   C3A12089  32.415  10.628   7.991
  647POPC   C4A12090  32.420  10.333   7.669
  647POPC   C1B12091  31.978  10.571   8.715
  647POPC   C2B12092  31.903  10.853   8.380
  647POPC   C3B12093  31.816  10.887   7.950
  647POPC   C4B12094  32.053  10.675   7.629
  648POPC   NC312095   2.755  35.734   9.519
  648POPC   PO412096   2.783  35.129   9.339
  648POPC   GL112097   2.769  35.500   9.051
  648POPC   GL212098   2.441  35.493   8.922
  648POPC   C1A12099   2.866  35.568   8.594
  648POPC   D2A12100   3.131  35.312   8.328
  648POPC   C3A12101   3.107  35.292   7.913
  648POPC   C4A12102   2.877  35.573   7.716
  648POPC   C1B12103   2.556  35.159   8.680
  648POPC   C2B12104   2.619  35.184   8.248
  648POPC   C3B12105   2.429  35.088   7.865
  648POPC   C4B12106   2.483  35.342   7.501
  649POPC   NC312107   4.482  37.932   9.294
  649POPC   PO412108   4.326  37.310   9.432
  649POPC   GL112109   4.244  37.463   9.071
  649POPC   GL212110   4.001  37.735   9.060
  649POPC   C1A12111   4.365  37.288   8.708
  649POPC   D2A12112   4.382  37.501   8.337
  649POPC   C3A12113   4.336  37.301   7.981
  649POPC   C4A12114   4.602  37.469   7.701
  649POPC   C1B12115   4.206  37.856   8.686
  649POPC   C2B12116   4.268  37.984   8.233
  649POPC   C3B12117   4.227  37.805   7.830
  649POPC   C4B12118   3.940  37.910   7.491
  650POPC   NC312119  14.059  41.039   9.262
  650POPC   PO412120  13.721  40.662   9.717
  650POPC   GL112121  13.655  40.725   9.233
  650POPC   GL212122  13.377  40.581   9.040
  650POPC   C1A12123  13.790  40.756   8.768
  650POPC   D2A12124  13.853  40.638   8.330
  650POPC   C3A12125  13.640  40.824   8.037
  650POPC   C4A12126  13.633  40.751   7.639
  650POPC   C1B12127  13.483  40.381   8.626
  650POPC   C2B12128  13.523  40.249   8.192
  650POPC   C3B12129  13.394  40.318   7.759
  650POPC   C4B12130  13.273  40.555   7.342
  651POPC   NC312131  14.021   0.147   9.421
  651POPC   PO412132  13.554  44.659   9.622
  651POPC   GL112133  13.485  44.558   9.190
  651POPC   GL212134  13.554  44.203   9.188
  651POPC   C1A12135  13.498  44.776   8.786
  651POPC   D2A12136  13.709  44.934   8.405
  651POPC   C3A12137  13.513  44.830   8.011
  651POPC   C4A12138  13.601  44.724   7.594
  651POPC   C1B12139  13.461  44.239   8.750
  651POPC   C2B12140  13.423  44.458   8.347
  651POPC   C3B12141  13.462  44.319   7.870
  651POPC   C4B12142  13.324  44.361   7.377
  652POPC   NC312143  38.543  13.987   9.325
  652POPC   PO412144  38.271  13.311   9.496
  652POPC   GL112145  38.129  13.412   9.120
  652POPC   GL212146  38.294  13.691   9.017
  652POPC   C1A12147  38.246  13.285   8.717
  652POPC   D2A12148  38.127  13.174   8.328
  652POPC   C3A12149  38.310  13.455   8.033
  652POPC   C4A12150  38.621  13.377   7.730
  652POPC   C1B12151  38.499  13.904   8.649
  652POPC   C2B12152  38.554  13.935   8.186
  652POPC   C3B12153  38.345  13.962   7.792
  652POPC   C4B12154  38.201  13.743   7.433
  653POPC   NC312155  30.839  33.360   9.588
  653POPC   PO412156  30.476  34.010   9.699
  653POPC   GL112157  30.668  33.953   9.212
  653POPC   GL212158  30.452  33.959   8.991
  653POPC   C1A12159  30.883  33.891   8.774
  653POPC   D2A12160  30.729  33.727   8.398
  653POPC   C3A12161  30.887  33.722   7.991
  653POPC   C4A12162  30.535  33.796   7.712
  653POPC   C1B12163  30.492  34.165   8.590
  653POPC   C2B12164  30.591  34.162   8.121
  653POPC   C3B12165  30.304  34.236   7.767
  653POPC   C4B12166  30.169  34.006   7.393
  654POPC   NC312167  10.016  36.198   9.932
  654POPC   PO412168   9.601  36.384   9.373
  654POPC   GL112169   9.756  36.154   9.039
  654POPC   GL212170  10.095  35.985   9.058
  654POPC   C1A12171   9.793  36.124   8.628
  654POPC   D2A12172   9.707  35.970   8.248
  654POPC   C3A12173   9.787  36.279   7.957
  654POPC   C4A12174   9.786  36.166   7.547
  654POPC   C1B12175  10.231  35.837   8.677
  654POPC   C2B12176  10.226  36.045   8.274
  654POPC   C3B12177  10.159  35.954   7.844
  654POPC   C4B12178  10.203  35.910   7.382
  655POPC   NC312179   4.216  22.321   9.672
  655POPC   PO412180   4.784  22.007   9.591
  655POPC   GL112181   4.441  21.986   9.217
  655POPC   GL212182   4.135  22.247   9.172
  655POPC   C1A12183   4.385  22.090   8.752
  655POPC   D2A12184   4.210  22.131   8.331
  655POPC   C3A12185   4.472  22.180   7.975
  655POPC   C4A12186   4.539  21.978   7.541
  655POPC   C1B12187   4.091  22.543   8.812
  655POPC   C2B12188   4.211  22.637   8.414
  655POPC   C3B12189   4.065  22.531   8.024
  655POPC   C4B12190   4.101  22.327   7.637
  656POPC   NC312191  28.741  39.306   9.350
  656POPC   PO412192  28.148  38.925   9.384
  656POPC   GL112193  28.321  39.188   9.059
  656POPC   GL212194  28.297  39.559   9.110
  656POPC   C1A12195  28.435  39.241   8.636
  656POPC   D2A12196  28.366  38.960   8.278
  656POPC   C3A12197  28.638  39.057   7.926
  656POPC   C4A12198  28.591  39.224   7.506
  656POPC   C1B12199  27.977  39.496   8.771
  656POPC   C2B12200  28.011  39.339   8.354
  656POPC   C3B12201  28.163  39.279   7.924
  656POPC   C4B12202  27.969  39.543   7.638
  657POPC   NC312203  28.710  22.905   9.488
  657POPC   PO412204  28.257  23.204   9.141
  657POPC   GL112205  28.572  22.933   9.002
  657POPC   GL212206  28.351  22.686   9.159
  657POPC   C1A12207  28.752  23.081   8.628
  657POPC   D2A12208  28.449  23.031   8.281
  657POPC   C3A12209  28.517  23.157   7.882
  657POPC   C4A12210  28.855  23.341   7.710
  657POPC   C1B12211  28.209  22.726   8.686
  657POPC   C2B12212  27.968  22.970   8.368
  657POPC   C3B12213  28.036  22.948   7.936
  657POPC   C4B12214  28.285  22.784   7.582
  658POPC   NC312215  35.096   9.012   9.561
  658POPC   PO412216  35.769   8.808   9.558
  658POPC   GL112217  35.426   8.885   9.184
  658POPC   GL212218  35.104   9.164   9.095
  658POPC   C1A12219  35.446   8.977   8.752
  658POPC   D2A12220  35.591   9.186   8.387
  658POPC   C3A12221  35.485   9.021   7.986
  658POPC   C4A12222  35.557   8.817   7.588
  658POPC   C1B12223  34.927   9.028   8.698
  658POPC   C2B12224  35.085   9.102   8.356
  658POPC   C3B12225  34.986   9.019   8.002
  658POPC   C4B12226  35.063   8.981   7.632
  659POPC   NC312227  20.856  39.255   9.748
  659POPC   PO412228  20.280  39.410   9.648
  659POPC   GL112229  20.579  39.201   9.298
  659POPC   GL212230  20.932  39.267   9.194
  659POPC   C1A12231  20.595  39.152   8.831
  659POPC   D2A12232  20.478  38.855   8.517
  659POPC   C3A12233  20.365  39.003   8.121
  659POPC   C4A12234  20.467  39.147   7.700
  659POPC   C1B12235  20.956  39.516   8.835
  659POPC   C2B12236  20.802  39.618   8.424
  659POPC   C3B12237  20.676  39.457   8.056
  659POPC   C4B12238  20.842  39.533   7.673
  660POPC   NC312239  22.047  40.432   9.465
  660POPC   PO412240  21.801  39.787   9.386
  660POPC   GL112241  22.082  40.030   9.136
  660POPC   GL212242  21.790  40.240   9.079
  660POPC   C1A12243  22.362  40.004   8.765
  660POPC   D2A12244  22.231  39.782   8.372
  660POPC   C3A12245  22.350  39.868   7.928
  660POPC   C4A12246  22.320  39.979   7.475
  660POPC   C1B12247  21.998  40.387   8.711
  660POPC   C2B12248  22.047  40.242   8.291
  660POPC   C3B12249  21.852  39.959   8.019
  660POPC   C4B12250  21.857  40.134   7.633
  661POPC   NC312251  15.091  21.706   9.460
  661POPC   PO412252  15.360  22.310   9.435
  661POPC   GL112253  15.311  22.033   9.119
  661POPC   GL212254  14.974  22.096   9.133
  661POPC   C1A12255  15.452  22.128   8.719
  661POPC   D2A12256  15.614  22.154   8.306
  661POPC   C3A12257  15.278  22.149   7.936
  661POPC   C4A12258  15.324  21.970   7.487
  661POPC   C1B12259  14.943  22.053   8.719
  661POPC   C2B12260  14.690  22.278   8.440
  661POPC   C3B12261  14.776  22.245   8.058
  661POPC   C4B12262  14.848  22.096   7.661
  662POPC   NC312263  14.782  12.937   9.319
  662POPC   PO412264  14.297  13.318   9.314
  662POPC   GL112265  14.267  12.880   9.140
  662POPC   GL212266  13.956  12.643   9.198
  662POPC   C1A12267  14.368  12.867   8.707
  662POPC   D2A12268  14.202  13.131   8.376
  662POPC   C3A12269  14.513  13.050   8.073
  662POPC   C4A12270  14.533  13.098   7.648
  662POPC   C1B12271  13.869  12.783   8.771
  662POPC   C2B12272  14.065  12.637   8.352
  662POPC   C3B12273  14.183  12.710   7.897
  662POPC   C4B12274  14.303  12.663   7.447
  663POPC   NC312275  17.821  32.388   9.388
  663POPC   PO412276  17.383  32.837   9.709
  663POPC   GL112277  17.363  32.570   9.203
  663POPC   GL212278  17.551  32.747   8.908
  663POPC   C1A12279  17.426  32.288   8.795
  663POPC   D2A12280  17.267  32.345   8.354
  663POPC   C3A12281  17.473  32.221   7.986
  663POPC   C4A12282  17.409  32.297   7.561
  663POPC   C1B12283  17.838  32.594   8.671
  663POPC   C2B12284  17.675  32.652   8.275
  663POPC   C3B12285  17.750  32.631   7.850
  663POPC   C4B12286  17.910  32.507   7.486
  664POPC   NC312287  19.928  20.427   9.604
  664POPC   PO412288  19.702  21.012   9.389
  664POPC   GL112289  19.924  20.732   9.125
  664POPC   GL212290  20.114  20.997   9.002
  664POPC   C1A12291  20.001  20.590   8.664
  664POPC   D2A12292  20.104  20.604   8.208
  664POPC   C3A12293  19.816  20.302   7.999
  664POPC   C4A12294  19.592  20.266   7.598
  664POPC   C1B12295  19.747  21.031   8.742
  664POPC   C2B12296  19.441  20.994   8.436
  664POPC   C3B12297  19.592  20.757   8.108
  664POPC   C4B12298  19.822  20.736   7.741
  665POPC   NC312299  17.988   4.667   9.542
  665POPC   PO412300  18.369   5.309   9.544
  665POPC   GL112301  18.377   5.186   9.143
  665POPC   GL212302  18.044   5.073   9.202
  665POPC   C1A12303  18.450   5.445   8.748
  665POPC   D2A12304  18.443   5.267   8.351
  665POPC   C3A12305  18.516   5.378   7.934
  665POPC   C4A12306  18.242   5.126   7.676
  665POPC   C1B12307  18.130   5.034   8.726
  665POPC   C2B12308  18.065   4.908   8.278
  665POPC   C3B12309  17.842   4.894   7.871
  665POPC   C4B12310  17.874   4.816   7.408
  666POPC   NC312311   7.804  19.482   9.575
  666POPC   PO412312   7.327  19.916   9.433
  666POPC   GL112313   7.323  19.837   9.049
  666POPC   GL212314   7.632  19.700   9.092
  666POPC   C1A12315   7.341  19.799   8.607
  666POPC   D2A12316   7.086  19.934   8.275
  666POPC   C3A12317   7.225  19.974   7.880
  666POPC   C4A12318   7.192  19.561   7.713
  666POPC   C1B12319   7.692  19.437   8.799
  666POPC   C2B12320   7.761  19.470   8.405
  666POPC   C3B12321   7.527  19.642   8.124
  666POPC   C4B12322   7.676  19.722   7.747
  667POPC   NC312323  42.962   8.709   9.390
  667POPC   PO412324  43.454   9.224   9.418
  667POPC   GL112325  43.296   9.049   9.050
  667POPC   GL212326  42.962   9.163   9.080
  667POPC   C1A12327  43.341   8.949   8.600
  667POPC   D2A12328  43.161   9.197   8.247
  667POPC   C3A12329  43.117   8.906   7.862
  667POPC   C4A12330  43.054   8.883   7.397
  667POPC   C1B12331  42.833   9.037   8.655
  667POPC   C2B12332  42.733   8.897   8.225
  667POPC   C3B12333  42.598   8.931   7.796
  667POPC   C4B12334  42.632   9.156   7.403
  668POPC   NC312335   4.019   7.585   9.527
  668POPC   PO412336   3.438   7.766   9.662
  668POPC   GL112337   3.542   7.524   9.251
  668POPC   GL212338   3.448   7.177   9.151
  668POPC   C1A12339   3.666   7.615   8.811
  668POPC   D2A12340   3.510   7.414   8.404
  668POPC   C3A12341   3.657   7.556   8.022
  668POPC   C4A12342   3.530   7.469   7.599
  668POPC   C1B12343   3.668   7.111   8.770
  668POPC   C2B12344   3.851   7.025   8.357
  668POPC   C3B12345   3.606   7.046   7.961
  668POPC   C4B12346   3.192   7.047   7.735
  669POPC   NC312347  27.666  35.391   9.788
  669POPC   PO412348  28.336  35.298   9.550
  669POPC   GL112349  28.416  35.378   9.106
  669POPC   GL212350  28.278  35.653   9.094
  669POPC   C1A12351  28.414  35.148   8.700
  669POPC   D2A12352  28.575  34.997   8.300
  669POPC   C3A12353  28.477  35.164   7.905
  669POPC   C4A12354  28.213  35.365   7.586
  669POPC   C1B12355  28.344  35.655   8.677
  669POPC   C2B12356  28.312  35.468   8.297
  669POPC   C3B12357  28.227  35.701   7.967
  669POPC   C4B12358  28.396  35.845   7.603
  670POPC   NC312359  11.575  13.539   9.391
  670POPC   PO412360  11.266  14.042   9.689
  670POPC   GL112361  11.450  13.971   9.170
  670POPC   GL212362  11.240  13.655   9.045
  670POPC   C1A12363  11.323  13.973   8.690
  670POPC   D2A12364  11.239  13.763   8.306
  670POPC   C3A12365  11.504  13.566   7.969
  670POPC   C4A12366  11.329  13.867   7.668
  670POPC   C1B12367  11.345  13.445   8.709
  670POPC   C2B12368  11.129  13.269   8.399
  670POPC   C3B12369  11.031  13.422   7.992
  670POPC   C4B12370  11.239  13.335   7.611
  671POPC   NC312371  17.199  43.814   9.706
  671POPC   PO412372  16.568  43.948   9.415
  671POPC   GL112373  16.859  43.897   9.096
  671POPC   GL212374  16.896  43.576   9.201
  671POPC   C1A12375  16.796  43.944   8.648
  671POPC   D2A12376  16.396  43.975   8.415
  671POPC   C3A12377  16.460  43.718   8.075
  671POPC   C4A12378  16.608  43.791   7.690
  671POPC   C1B12379  16.883  43.428   8.800
  671POPC   C2B12380  17.025  43.469   8.395
  671POPC   C3B12381  16.985  43.680   8.018
  671POPC   C4B12382  17.022  43.525   7.589
  672POPC   NC312383  35.691  25.961   9.434
  672POPC   PO412384  35.131  26.367   9.405
  672POPC   GL112385  35.304  26.221   9.085
  672POPC   GL212386  35.295  25.909   9.110
  672POPC   C1A12387  35.290  26.207   8.668
  672POPC   D2A12388  35.426  26.164   8.289
  672POPC   C3A12389  35.288  26.346   7.948
  672POPC   C4A12390  35.051  26.075   7.688
  672POPC   C1B12391  35.544  25.737   8.782
  672POPC   C2B12392  35.731  25.752   8.367
  672POPC   C3B12393  35.642  25.916   7.913
  672POPC   C4B12394  35.409  25.733   7.561
  673POPC   NC312395  31.676  23.359   9.572
  673POPC   PO412396  31.489  22.766   9.600
  673POPC   GL112397  31.457  23.025   9.222
  673POPC   GL212398  31.804  23.145   9.117
  673POPC   C1A12399  31.273  22.894   8.823
  673POPC   D2A12400  31.457  22.782   8.427
  673POPC   C3A12401  31.310  22.926   8.050
  673POPC   C4A12402  31.493  22.824   7.674
  673POPC   C1B12403  31.681  23.187   8.683
  673POPC   C2B12404  31.821  23.315   8.266
  673POPC   C3B12405  31.723  23.248   7.847
  673POPC   C4B12406  31.907  23.044   7.462
  674POPC   NC312407  38.095  39.692   9.431
  674POPC   PO412408  37.490  40.042   9.608
  674POPC   GL112409  37.720  40.046   9.200
  674POPC   GL212410  37.522  39.877   8.951
  674POPC   C1A12411  37.782  40.333   8.829
  674POPC   D2A12412  37.653  40.223   8.392
  674POPC   C3A12413  37.738  40.286   7.950
  674POPC   C4A12414  37.584  40.017   7.591
  674POPC   C1B12415  37.895  39.873   8.678
  674POPC   C2B12416  38.050  39.735   8.321
  674POPC   C3B12417  37.783  39.774   8.005
  674POPC   C4B12418  38.043  39.901   7.729
  675POPC   NC312419  16.515  10.922   9.845
  675POPC   PO412420  15.945  10.840   9.462
  675POPC   GL112421  15.867  10.830   9.071
  675POPC   GL212422  15.593  10.619   9.011
  675POPC   C1A12423  15.880  10.896   8.660
  675POPC   D2A12424  15.739  10.676   8.318
  675POPC   C3A12425  15.957  10.879   7.999
  675POPC   C4A12426  15.965  10.795   7.599
  675POPC   C1B12427  15.915  10.381   8.778
  675POPC   C2B12428  16.111  10.318   8.364
  675POPC   C3B12429  15.948  10.363   7.933
  675POPC   C4B12430  15.838  10.312   7.492
  676POPC   NC312431  35.335  34.513   9.509
  676POPC   PO412432  36.009  34.822   9.520
  676POPC   GL112433  35.601  34.819   9.211
  676POPC   GL212434  35.475  34.469   9.029
  676POPC   C1A12435  35.414  34.914   8.807
  676POPC   D2A12436  35.624  34.951   8.462
  676POPC   C3A12437  35.506  34.721   8.131
  676POPC   C4A12438  35.347  34.805   7.772
  676POPC   C1B12439  35.570  34.460   8.611
  676POPC   C2B12440  35.317  34.285   8.327
  676POPC   C3B12441  35.193  34.344   7.900
  676POPC   C4B12442  35.433  34.355   7.509
  677POPC   NC312443  30.581  40.207   9.408
  677POPC   PO412444  31.060  39.780   9.462
  677POPC   GL112445  30.717  39.822   9.077
  677POPC   GL212446  30.419  40.077   8.964
  677POPC   C1A12447  30.553  39.740   8.636
  677POPC   D2A12448  30.788  39.933   8.324
  677POPC   C3A12449  30.675  39.868   7.916
  677POPC   C4A12450  30.852  39.894   7.485
  677POPC   C1B12451  30.797  40.292   8.734
  677POPC   C2B12452  31.081  40.354   8.343
  677POPC   C3B12453  30.924  40.321   7.893
  677POPC   C4B12454  30.511  40.240   7.626
  678POPC   NC312455  32.738  14.903   9.448
  678POPC   PO412456  33.203  15.379   9.394
  678POPC   GL112457  33.117  15.087   9.110
  678POPC   GL212458  32.778  15.263   9.087
  678POPC   C1A12459  33.059  15.131   8.669
  678POPC   D2A12460  33.271  15.161   8.275
  678POPC   C3A12461  32.963  15.088   7.971
  678POPC   C4A12462  32.811  14.931   7.600
  678POPC   C1B12463  32.674  15.498   8.725
  678POPC   C2B12464  32.832  15.448   8.313
  678POPC   C3B12465  32.731  15.573   7.902
  678POPC   C4B12466  32.941  15.435   7.530
  679POPC   NC312467   6.115  10.903   9.542
  679POPC   PO412468   5.410  10.554   9.514
  679POPC   GL112469   5.673  10.703   9.211
  679POPC   GL212470   6.026  10.625   9.114
  679POPC   C1A12471   5.664  10.728   8.790
  679POPC   D2A12472   6.003  10.827   8.515
  679POPC   C3A12473   5.892  10.547   8.202
  679POPC   C4A12474   6.070  10.581   7.821
  679POPC   C1B12475   6.042  10.352   8.752
  679POPC   C2B12476   6.123  10.061   8.413
  679POPC   C3B12477   6.182  10.090   7.966
  679POPC   C4B12478   6.016  10.148   7.552
  680POPC   NC312479  21.460   0.934   9.396
  680POPC   PO412480  21.195   0.392   9.680
  680POPC   GL112481  21.188   0.487   9.256
  680POPC   GL212482  21.181   0.752   9.015
  680POPC   C1A12483  21.428   0.308   8.937
  680POPC   D2A12484  21.440   0.356   8.490
  680POPC   C3A12485  21.408   0.241   8.056
  680POPC   C4A12486  21.545   0.006   7.697
  680POPC   C1B12487  21.037   0.618   8.624
  680POPC   C2B12488  21.193   0.739   8.217
  680POPC   C3B12489  21.136   0.903   7.807
  680POPC   C4B12490  21.071   0.886   7.346
  681POPC   NC312491  21.573  32.573   9.607
  681POPC   PO412492  21.105  31.978   9.567
  681POPC   GL112493  21.390  32.203   9.300
  681POPC   GL212494  21.579  31.918   9.232
  681POPC   C1A12495  21.654  32.274   8.903
  681POPC   D2A12496  21.493  32.365   8.523
  681POPC   C3A12497  21.477  32.208   8.103
  681POPC   C4A12498  21.488  32.330   7.699
  681POPC   C1B12499  21.294  31.905   8.869
  681POPC   C2B12500  21.091  32.064   8.511
  681POPC   C3B12501  21.027  31.947   8.118
  681POPC   C4B12502  21.113  31.979   7.702
  682POPC   NC312503  38.361  29.804   9.507
  682POPC   PO412504  38.834  30.243   9.424
  682POPC   GL112505  38.558  30.005   9.100
  682POPC   GL212506  38.540  29.628   9.052
  682POPC   C1A12507  38.368  30.057   8.728
  682POPC   D2A12508  38.410  30.345   8.420
  682POPC   C3A12509  38.285  30.112   8.106
  682POPC   C4A12510  38.462  29.909   7.790
  682POPC   C1B12511  38.112  29.630   8.843
  682POPC   C2B12512  37.999  29.806   8.414
  682POPC   C3B12513  38.016  29.694   7.973
  682POPC   C4B12514  38.032  29.876   7.545
  683POPC   NC312515  12.078  38.289   9.477
  683POPC   PO412516  12.366  38.917   9.347
  683POPC   GL112517  12.074  38.644   9.108
  683POPC   GL212518  12.324  38.378   9.051
  683POPC   C1A12519  11.836  38.328   8.820
  683POPC   D2A12520  11.829  38.040   8.421
  683POPC   C3A12521  11.803  38.235   8.030
  683POPC   C4A12522  11.883  38.683   7.943
  683POPC   C1B12523  12.371  38.675   8.699
  683POPC   C2B12524  12.328  38.697   8.244
  683POPC   C3B12525  12.299  38.376   7.935
  683POPC   C4B12526  12.403  38.389   7.552
  684POPC   NC312527  27.791  30.489   9.576
  684POPC   PO412528  27.768  31.148   9.408
  684POPC   GL112529  27.611  30.779   9.181
  684POPC   GL212530  27.301  30.672   9.072
  684POPC   C1A12531  27.731  30.488   8.853
  684POPC   D2A12532  27.457  30.344   8.505
  684POPC   C3A12533  27.569  30.539   8.121
  684POPC   C4A12534  27.854  30.437   7.776
  684POPC   C1B12535  27.457  30.872   8.657
  684POPC   C2B12536  27.411  31.096   8.255
  684POPC   C3B12537  27.368  30.952   7.839
  684POPC   C4B12538  27.451  30.616   7.540
  685POPC   NC312539  31.382  41.882   9.338
  685POPC   PO412540  31.662  41.259   9.422
  685POPC   GL112541  31.524  41.395   9.066
  685POPC   GL212542  31.827  41.523   8.946
  685POPC   C1A12543  31.278  41.363   8.707
  685POPC   D2A12544  31.389  41.556   8.351
  685POPC   C3A12545  31.378  41.347   8.002
  685POPC   C4A12546  31.407  41.111   7.698
  685POPC   C1B12547  31.557  41.853   8.729
  685POPC   C2B12548  31.344  42.070   8.365
  685POPC   C3B12549  31.276  41.854   7.965
  685POPC   C4B12550  31.551  41.707   7.646
  686POPC   NC312551  19.902   0.295   9.513
  686POPC   PO412552  19.667   0.932   9.643
  686POPC   GL112553  19.770   0.641   9.154
  686POPC   GL212554  20.092   0.446   9.080
  686POPC   C1A12555  19.710   0.565   8.709
  686POPC   D2A12556  19.734   0.693   8.281
  686POPC   C3A12557  19.488   0.465   7.958
  686POPC   C4A12558  19.429   0.695   7.552
  686POPC   C1B12559  20.012   0.146   8.727
  686POPC   C2B12560  19.829   0.171   8.345
  686POPC   C3B12561  19.982   0.253   7.951
  686POPC   C4B12562  20.123   0.358   7.533
  687POPC   NC312563  31.514  21.389   9.509
  687POPC   PO412564  31.000  20.903   9.396
  687POPC   GL112565  31.313  21.159   9.078
  687POPC   GL212566  31.674  21.318   9.036
  687POPC   C1A12567  31.375  21.203   8.622
  687POPC   D2A12568  31.515  21.500   8.293
  687POPC   C3A12569  31.275  21.485   7.926
  687POPC   C4A12570  31.261  21.035   7.882
  687POPC   C1B12571  31.888  21.263   8.628
  687POPC   C2B12572  31.847  21.086   8.190
  687POPC   C3B12573  31.751  21.339   7.852
  687POPC   C4B12574  31.734  21.830   7.916
  688POPC   NC312575  12.100  35.982   9.877
  688POPC   PO412576  12.198  36.542   9.557
  688POPC   GL112577  12.059  36.225   9.257
  688POPC   GL212578  12.176  36.441   9.073
  688POPC   C1A12579  11.957  36.057   8.849
  688POPC   D2A12580  12.286  36.082   8.544
  688POPC   C3A12581  12.135  36.116   8.144
  688POPC   C4A12582  12.096  35.909   7.779
  688POPC   C1B12583  12.028  36.594   8.769
  688POPC   C2B12584  11.946  36.503   8.410
  688POPC   C3B12585  12.064  36.657   8.031
  688POPC   C4B12586  12.166  36.432   7.700
  689POPC   NC312587  30.173  24.060   9.499
  689POPC   PO412588  29.823  23.558   9.681
  689POPC   GL112589  29.834  23.439   9.261
  689POPC   GL212590  30.118  23.613   9.189
  689POPC   C1A12591  29.799  23.392   8.817
  689POPC   D2A12592  29.587  23.501   8.443
  689POPC   C3A12593  29.826  23.560   8.078
  689POPC   C4A12594  29.725  23.709   7.695
  689POPC   C1B12595  30.140  23.780   8.798
  689POPC   C2B12596  30.226  23.627   8.417
  689POPC   C3B12597  30.241  23.862   8.057
  689POPC   C4B12598  30.265  23.787   7.666
  690POPC   NC312599  37.138  11.589   9.808
  690POPC   PO412600  37.447  11.114   9.411
  690POPC   GL112601  37.654  11.347   9.070
  690POPC   GL212602  37.985  11.509   9.091
  690POPC   C1A12603  37.666  11.465   8.644
  690POPC   D2A12604  37.467  11.702   8.325
  690POPC   C3A12605  37.463  11.507   7.924
  690POPC   C4A12606  37.343  11.561   7.482
  690POPC   C1B12607  38.161  11.375   8.671
  690POPC   C2B12608  38.002  11.208   8.298
  690POPC   C3B12609  37.960  11.395   7.920
  690POPC   C4B12610  37.828  11.656   7.562
  691POPC   NC312611  35.422  16.265   9.380
  691POPC   PO412612  35.178  15.667   9.516
  691POPC   GL112613  35.213  15.857   9.131
  691POPC   GL212614  35.541  15.784   9.015
  691POPC   C1A12615  35.061  15.857   8.706
  691POPC   D2A12616  34.911  16.000   8.298
  691POPC   C3A12617  35.213  15.898   7.970
  691POPC   C4A12618  35.625  15.770   7.758
  691POPC   C1B12619  35.545  16.122   8.672
  691POPC   C2B12620  35.668  16.085   8.208
  691POPC   C3B12621  35.554  16.294   7.814
  691POPC   C4B12622  35.741  16.153   7.401
  692POPC   NC312623  39.264  38.539   9.659
  692POPC   PO412624  39.538  37.949   9.527
  692POPC   GL112625  39.319  38.295   9.195
  692POPC   GL212626  38.945  38.281   9.113
  692POPC   C1A12627  39.228  38.494   8.736
  692POPC   D2A12628  39.224  38.489   8.248
  692POPC   C3A12629  39.587  38.533   7.930
  692POPC   C4A12630  39.803  38.176   7.711
  692POPC   C1B12631  38.855  38.036   8.703
  692POPC   C2B12632  39.080  37.980   8.281
  692POPC   C3B12633  39.265  38.149   7.857
  692POPC   C4B12634  39.234  38.527   7.540
  693POPC   NC312635  17.435  14.122   9.592
  693POPC   PO412636  17.915  14.453   9.361
  693POPC   GL112637  17.526  14.323   9.130
  693POPC   GL212638  17.554  13.932   9.145
  693POPC   C1A12639  17.467  14.484   8.685
  693POPC   D2A12640  17.647  14.407   8.259
  693POPC   C3A12641  17.511  14.605   7.856
  693POPC   C4A12642  17.635  14.924   7.510
  693POPC   C1B12643  17.702  14.037   8.759
  693POPC   C2B12644  17.502  13.945   8.366
  693POPC   C3B12645  17.361  14.088   7.982
  693POPC   C4B12646  17.556  14.153   7.610
  694POPC   NC312647  10.765  34.893   9.410
  694POPC   PO412648  10.533  34.233   9.508
  694POPC   GL112649  10.473  34.521   9.158
  694POPC   GL212650  10.266  34.224   9.056
  694POPC   C1A12651  10.599  34.828   8.782
  694POPC   D2A12652  10.807  34.818   8.361
  694POPC   C3A12653  10.733  34.681   7.945
  694POPC   C4A12654  10.736  34.244   7.785
  694POPC   C1B12655  10.325  34.413   8.694
  694POPC   C2B12656  10.488  34.413   8.311
  694POPC   C3B12657  10.282  34.440   7.940
  694POPC   C4B12658  10.207  34.135   7.647
  695POPC   NC312659  11.122  28.239   9.295
  695POPC   PO412660  10.536  28.675   9.488
  695POPC   GL112661  10.716  28.525   9.187
  695POPC   GL212662  10.612  28.186   9.175
  695POPC   C1A12663  10.625  28.508   8.774
  695POPC   D2A12664  10.487  28.309   8.418
  695POPC   C3A12665  10.229  28.542   8.141
  695POPC   C4A12666  10.281  28.404   7.738
  695POPC   C1B12667  10.698  27.988   8.784
  695POPC   C2B12668  10.632  27.819   8.387
  695POPC   C3B12669  10.683  28.012   8.015
  695POPC   C4B12670  10.721  27.881   7.620
  696POPC   NC312671  29.657  21.186   9.644
  696POPC   PO412672  29.238  21.572   9.389
  696POPC   GL112673  29.149  21.307   9.045
  696POPC   GL212674  29.281  21.024   9.220
  696POPC   C1A12675  29.127  21.242   8.582
  696POPC   D2A12676  28.858  21.134   8.197
  696POPC   C3A12677  29.005  21.371   7.823
  696POPC   C4A12678  29.430  21.525   7.769
  696POPC   C1B12679  29.572  21.048   8.870
  696POPC   C2B12680  29.644  21.080   8.459
  696POPC   C3B12681  29.371  21.142   8.118
  696POPC   C4B12682  29.313  20.972   7.710
  697POPC   NC312683  36.070  18.743   9.408
  697POPC   PO412684  36.385  19.332   9.510
  697POPC   GL112685  36.284  19.099   9.124
  697POPC   GL212686  35.927  19.069   9.040
  697POPC   C1A12687  36.384  18.946   8.692
  697POPC   D2A12688  36.458  19.064   8.261
  697POPC   C3A12689  36.158  19.310   7.992
  697POPC   C4A12690  36.079  19.305   7.539
  697POPC   C1B12691  35.686  18.997   8.650
  697POPC   C2B12692  35.865  18.898   8.217
  697POPC   C3B12693  35.828  18.915   7.757
  697POPC   C4B12694  35.750  18.928   7.290
  698POPC   NC312695  12.359  22.266   9.475
  698POPC   PO412696  12.104  21.614   9.514
  698POPC   GL112697  12.147  21.886   9.153
  698POPC   GL212698  11.887  22.166   9.171
  698POPC   C1A12699  12.250  22.025   8.728
  698POPC   D2A12700  12.044  22.208   8.345
  698POPC   C3A12701  12.156  22.159   7.892
  698POPC   C4A12702  11.970  21.978   7.510
  698POPC   C1B12703  11.675  22.441   8.850
  698POPC   C2B12704  11.610  22.473   8.389
  698POPC   C3B12705  11.822  22.568   8.013
  698POPC   C4B12706  11.763  22.434   7.607
  699POPC   NC312707  38.029  16.386   9.460
  699POPC   PO412708  38.548  16.716   9.805
  699POPC   GL112709  38.624  16.714   9.335
  699POPC   GL212710  38.468  16.427   9.219
  699POPC   C1A12711  38.647  16.719   8.856
  699POPC   D2A12712  38.516  16.520   8.463
  699POPC   C3A12713  38.541  16.761   8.087
  699POPC   C4A12714  38.469  16.938   7.703
  699POPC   C1B12715  38.204  16.326   8.839
  699POPC   C2B12716  38.001  16.274   8.441
  699POPC   C3B12717  38.245  16.333   8.063
  699POPC   C4B12718  38.238  16.499   7.648
  700POPC   NC312719  17.750  11.968   9.934
  700POPC   PO412720  18.202  12.177   9.509
  700POPC   GL112721  18.250  11.978   9.157
  700POPC   GL212722  18.535  11.776   9.137
  700POPC   C1A12723  18.338  12.208   8.794
  700POPC   D2A12724  18.209  12.146   8.376
  700POPC   C3A12725  18.469  12.320   8.056
  700POPC   C4A12726  18.523  12.193   7.636
  700POPC   C1B12727  18.380  11.702   8.732
  700POPC   C2B12728  18.628  11.869   8.430
  700POPC   C3B12729  18.744  11.892   8.041
  700POPC   C4B12730  18.615  11.708   7.703
  701POPC   NC312731   7.195  12.114   9.553
  701POPC   PO412732   7.860  12.272   9.618
  701POPC   GL112733   7.607  12.310   9.266
  701POPC   GL212734   7.475  11.993   9.129
  701POPC   C1A12735   7.743  12.319   8.841
  701POPC   D2A12736   7.550  12.143   8.481
  701POPC   C3A12737   7.682  12.215   8.040
  701POPC   C4A12738   7.466  11.888   7.792
  701POPC   C1B12739   7.221  12.319   8.921
  701POPC   C2B12740   7.081  12.378   8.512
  701POPC   C3B12741   7.179  12.209   8.122
  701POPC   C4B12742   7.208  12.326   7.724
  702POPC   NC312743  13.364  34.868   9.764
  702POPC   PO412744  13.669  34.347   9.449
  702POPC   GL112745  13.713  34.538   9.028
  702POPC   GL212746  14.024  34.612   9.099
  702POPC   C1A12747  13.422  34.731   8.686
  702POPC   D2A12748  13.388  34.940   8.300
  702POPC   C3A12749  13.636  34.665   8.054
  702POPC   C4A12750  13.802  34.554   7.658
  702POPC   C1B12751  13.912  34.937   8.763
  702POPC   C2B12752  13.891  35.106   8.310
  702POPC   C3B12753  13.982  34.969   7.871
  702POPC   C4B12754  13.975  34.960   7.373
  703POPC   NC312755  32.584  16.499   9.492
  703POPC   PO412756  32.436  15.893   9.473
  703POPC   GL112757  32.161  16.004   9.133
  703POPC   GL212758  32.386  16.256   9.064
  703POPC   C1A12759  32.004  16.156   8.704
  703POPC   D2A12760  31.936  15.922   8.309
  703POPC   C3A12761  32.018  16.127   7.887
  703POPC   C4A12762  31.739  16.103   7.528
  703POPC   C1B12763  32.498  16.043   8.677
  703POPC   C2B12764  32.444  16.096   8.219
  703POPC   C3B12765  32.506  16.035   7.775
  703POPC   C4B12766  32.542  15.735   7.412
  704POPC   NC312767  15.925  31.577   9.685
  704POPC   PO412768  16.572  31.607   9.600
  704POPC   GL112769  16.678  31.531   9.176
  704POPC   GL212770  16.379  31.440   9.022
  704POPC   C1A12771  16.910  31.432   8.803
  704POPC   D2A12772  17.190  31.385   8.464
  704POPC   C3A12773  17.026  31.331   8.053
  704POPC   C4A12774  16.864  31.600   7.773
  704POPC   C1B12775  16.499  31.738   8.680
  704POPC   C2B12776  16.666  31.628   8.288
  704POPC   C3B12777  16.470  31.359   8.016
  704POPC   C4B12778  16.425  31.352   7.593
  705POPC   NC312779  32.221  39.375   9.445
  705POPC   PO412780  32.709  38.855   9.398
  705POPC   GL112781  32.473  39.062   9.089
  705POPC   GL212782  32.130  39.031   9.087
  705POPC   C1A12783  32.426  38.998   8.620
  705POPC   D2A12784  32.253  38.911   8.216
  705POPC   C3A12785  32.421  39.155   7.840
  705POPC   C4A12786  32.391  39.168   7.365
  705POPC   C1B12787  32.039  39.280   8.744
  705POPC   C2B12788  31.885  39.292   8.323
  705POPC   C3B12789  31.908  39.147   7.900
  705POPC   C4B12790  31.872  39.494   7.604
  706POPC   NC312791  41.282  13.646   9.462
  706POPC   PO412792  40.639  13.447   9.575
  706POPC   GL112793  40.900  13.447   9.209
  706POPC   GL212794  40.941  13.801   9.098
  706POPC   C1A12795  40.886  13.391   8.781
  706POPC   D2A12796  40.676  13.632   8.455
  706POPC   C3A12797  40.607  13.450   8.074
  706POPC   C4A12798  40.811  13.625   7.706
  706POPC   C1B12799  40.517  13.780   8.913
  706POPC   C2B12800  40.331  14.004   8.549
  706POPC   C3B12801  40.398  13.952   8.104
  706POPC   C4B12802  40.468  14.043   7.688
  707POPC   NC312803  33.491   4.426   9.385
  707POPC   PO412804  33.945   4.001   9.491
  707POPC   GL112805  33.740   4.074   9.076
  707POPC   GL212806  33.356   4.039   9.051
  707POPC   C1A12807  33.944   4.182   8.650
  707POPC   D2A12808  34.059   4.036   8.213
  707POPC   C3A12809  33.900   4.278   7.863
  707POPC   C4A12810  33.646   4.610   7.660
  707POPC   C1B12811  33.448   4.334   8.698
  707POPC   C2B12812  33.587   4.347   8.258
  707POPC   C3B12813  33.374   4.212   7.862
  707POPC   C4B12814  33.340   4.286   7.395
  708POPC   NC312815  37.238   7.569   9.417
  708POPC   PO412816  36.683   7.215   9.438
  708POPC   GL112817  36.889   7.304   9.086
  708POPC   GL212818  37.194   7.119   9.167
  708POPC   C1A12819  36.762   7.298   8.652
  708POPC   D2A12820  36.603   7.152   8.247
  708POPC   C3A12821  36.772   7.291   7.865
  708POPC   C4A12822  36.708   7.148   7.450
  708POPC   C1B12823  37.291   7.258   8.748
  708POPC   C2B12824  37.136   7.181   8.336
  708POPC   C3B12825  37.276   7.238   7.939
  708POPC   C4B12826  37.182   7.023   7.566
  709POPC   NC312827  37.585  22.388   9.711
  709POPC   PO412828  38.048  21.944   9.493
  709POPC   GL112829  37.859  22.347   9.259
  709POPC   GL212830  37.511  22.436   9.176
  709POPC   C1A12831  37.813  22.335   8.795
  709POPC   D2A12832  37.669  22.074   8.433
  709POPC   C3A12833  37.596  22.209   7.992
  709POPC   C4A12834  37.929  22.422   7.745
  709POPC   C1B12835  37.306  22.199   8.823
  709POPC   C2B12836  37.143  22.060   8.422
  709POPC   C3B12837  37.062  22.214   8.019
  709POPC   C4B12838  37.184  21.937   7.733
  710POPC   NC312839  30.315  22.433   9.408
  710POPC   PO412840  30.206  21.641   9.362
  710POPC   GL112841  30.003  21.942   9.080
  710POPC   GL212842  29.864  22.250   9.132
  710POPC   C1A12843  29.834  21.980   8.682
  710POPC   D2A12844  30.085  22.128   8.357
  710POPC   C3A12845  30.041  22.348   8.019
  710POPC   C4A12846  30.190  22.119   7.697
  710POPC   C1B12847  29.732  22.472   8.768
  710POPC   C2B12848  29.728  22.633   8.365
  710POPC   C3B12849  29.604  22.641   7.937
  710POPC   C4B12850  29.700  22.372   7.597
  711POPC   NC312851  19.940  22.054   9.533
  711POPC   PO412852  19.469  22.531   9.568
  711POPC   GL112853  19.511  22.300   9.164
  711POPC   GL212854  19.633  21.968   9.118
  711POPC   C1A12855  19.714  22.360   8.768
  711POPC   D2A12856  20.091  22.261   8.506
  711POPC   C3A12857  19.964  22.131   8.105
  711POPC   C4A12858  19.944  22.355   7.722
  711POPC   C1B12859  19.900  21.870   8.745
  711POPC   C2B12860  20.178  21.749   8.380
  711POPC   C3B12861  20.260  21.717   7.952
  711POPC   C4B12862  20.019  21.857   7.631
  712POPC   NC312863  25.429  23.672   9.536
  712POPC   PO412864  24.705  23.540   9.459
  712POPC   GL112865  25.053  23.567   9.155
  712POPC   GL212866  25.264  23.881   9.090
  712POPC   C1A12867  25.048  23.680   8.691
  712POPC   D2A12868  25.331  23.791   8.350
  712POPC   C3A12869  25.163  23.712   7.923
  712POPC   C4A12870  25.258  23.509   7.494
  712POPC   C1B12871  25.417  24.165   8.724
  712POPC   C2B12872  25.677  24.223   8.344
  712POPC   C3B12873  25.689  23.939   7.986
  712POPC   C4B12874  25.454  23.963   7.573
  713POPC   NC312875  32.142  21.899   9.542
  713POPC   PO412876  32.403  22.564   9.656
  713POPC   GL112877  32.183  22.281   9.236
  713POPC   GL212878  32.347  21.961   9.103
  713POPC   C1A12879  32.068  22.197   8.754
  713POPC   D2A12880  31.985  22.358   8.315
  713POPC   C3A12881  32.211  22.192   7.960
  713POPC   C4A12882  32.060  22.174   7.565
  713POPC   C1B12883  32.658  21.995   8.819
  713POPC   C2B12884  32.735  21.894   8.405
  713POPC   C3B12885  32.599  21.837   8.003
  713POPC   C4B12886  32.510  21.886   7.562
  714POPC   NC312887  40.462   4.379   9.430
  714POPC   PO412888  41.040   4.017   9.372
  714POPC   GL112889  40.836   4.269   9.073
  714POPC   GL212890  40.992   4.596   8.986
  714POPC   C1A12891  40.551   4.140   8.748
  714POPC   D2A12892  40.508   3.961   8.343
  714POPC   C3A12893  40.791   4.070   8.042
  714POPC   C4A12894  40.867   4.340   7.695
  714POPC   C1B12895  40.599   4.643   8.786
  714POPC   C2B12896  40.440   4.497   8.396
  714POPC   C3B12897  40.514   4.706   7.998
  714POPC   C4B12898  40.681   4.794   7.586
  715POPC   NC312899  30.111  34.222   9.898
  715POPC   PO412900  29.716  34.684   9.609
  715POPC   GL112901  29.779  34.453   9.203
  715POPC   GL212902  29.742  34.757   9.090
  715POPC   C1A12903  29.958  34.374   8.727
  715POPC   D2A12904  30.108  34.273   8.271
  715POPC   C3A12905  29.827  34.216   7.900
  715POPC   C4A12906  29.896  34.429   7.490
  715POPC   C1B12907  29.995  34.889   8.775
  715POPC   C2B12908  30.047  34.774   8.373
  715POPC   C3B12909  29.900  34.711   7.961
  715POPC   C4B12910  29.752  34.956   7.639
  716POPC   NC312911   5.859  21.739   9.744
  716POPC   PO412912   5.632  22.326   9.782
  716POPC   GL112913   5.621  22.073   9.366
  716POPC   GL212914   5.695  21.736   9.221
  716POPC   C1A12915   5.591  22.128   8.902
  716POPC   D2A12916   5.800  22.123   8.483
  716POPC   C3A12917   5.538  22.012   8.145
  716POPC   C4A12918   5.413  22.280   7.843
  716POPC   C1B12919   5.924  21.735   8.801
  716POPC   C2B12920   6.027  21.683   8.363
  716POPC   C3B12921   6.013  21.930   7.976
  716POPC   C4B12922   6.367  22.118   7.723
  717POPC   NC312923  32.578  17.932   9.724
  717POPC   PO412924  32.283  18.536   9.511
  717POPC   GL112925  32.499  18.365   9.173
  717POPC   GL212926  32.409  18.020   9.212
  717POPC   C1A12927  32.364  18.392   8.740
  717POPC   D2A12928  32.431  18.201   8.317
  717POPC   C3A12929  32.159  18.444   8.047
  717POPC   C4A12930  32.249  18.627   7.646
  717POPC   C1B12931  32.471  17.894   8.778
  717POPC   C2B12932  32.181  17.783   8.447
  717POPC   C3B12933  32.114  17.883   8.029
  717POPC   C4B12934  32.385  18.116   7.749
  718POPC   NC312935  36.256  29.762   9.875
  718POPC   PO412936  35.869  30.122   9.529
  718POPC   GL112937  36.197  29.945   9.259
  718POPC   GL212938  36.359  30.186   9.085
  718POPC   C1A12939  36.218  29.679   8.877
  718POPC   D2A12940  36.347  29.849   8.510
  718POPC   C3A12941  36.274  29.682   8.101
  718POPC   C4A12942  36.141  29.784   7.687
  718POPC   C1B12943  35.956  30.118   8.837
  718POPC   C2B12944  35.737  30.023   8.453
  718POPC   C3B12945  35.806  29.966   8.024
  718POPC   C4B12946  35.972  30.274   7.756
  719POPC   NC312947  18.639  12.037   9.563
  719POPC   PO412948  19.201  11.811   9.494
  719POPC   GL112949  19.145  12.023   9.104
  719POPC   GL212950  18.858  12.192   9.088
  719POPC   C1A12951  19.127  11.869   8.694
  719POPC   D2A12952  19.404  11.925   8.340
  719POPC   C3A12953  19.231  11.797   7.955
  719POPC   C4A12954  19.032  12.058   7.639
  719POPC   C1B12955  18.818  12.281   8.652
  719POPC   C2B12956  18.996  12.309   8.239
  719POPC   C3B12957  18.934  12.516   7.811
  719POPC   C4B12958  18.839  12.444   7.328
  720POPC   NC312959  28.928  21.929   9.470
  720POPC   PO412960  29.591  22.038   9.506
  720POPC   GL112961  29.408  21.979   9.080
  720POPC   GL212962  29.080  22.160   9.048
  720POPC   C1A12963  29.335  22.076   8.620
  720POPC   D2A12964  29.435  22.234   8.196
  720POPC   C3A12965  29.149  22.419   7.846
  720POPC   C4A12966  29.186  22.520   7.393
  720POPC   C1B12967  28.946  21.763   8.774
  720POPC   C2B12968  28.963  21.655   8.302
  720POPC   C3B12969  29.127  21.893   7.932
  720POPC   C4B12970  28.947  22.039   7.524
  721POPC   NC312971  42.509  30.314   9.553
  721POPC   PO412972  42.365  30.993   9.476
  721POPC   GL112973  42.252  30.654   9.192
  721POPC   GL212974  42.484  30.493   9.083
  721POPC   C1A12975  42.044  30.593   8.788
  721POPC   D2A12976  42.215  30.523   8.362
  721POPC   C3A12977  42.189  30.682   7.950
  721POPC   C4A12978  42.169  30.443   7.520
  721POPC   C1B12979  42.569  30.658   8.739
  721POPC   C2B12980  42.720  30.553   8.377
  721POPC   C3B12981  42.636  30.457   8.006
  721POPC   C4B12982  42.586  30.682   7.637
  722POPC   NC312983  22.738  35.328   9.597
  722POPC   PO412984  23.286  35.687   9.472
  722POPC   GL112985  23.009  35.473   9.154
  722POPC   GL212986  22.876  35.109   9.162
  722POPC   C1A12987  22.916  35.405   8.748
  722POPC   D2A12988  22.980  35.183   8.387
  722POPC   C3A12989  22.831  35.465   8.076
  722POPC   C4A12990  22.995  35.505   7.669
  722POPC   C1B12991  22.709  34.928   8.815
  722POPC   C2B12992  22.473  35.094   8.487
  722POPC   C3B12993  22.602  34.979   8.080
  722POPC   C4B12994  22.614  35.168   7.702
  723POPC   NC312995  28.817   5.518   9.295
  723POPC   PO412996  29.384   5.155   9.594
  723POPC   GL112997  29.297   4.910   9.200
  723POPC   GL212998  28.967   4.884   9.108
  723POPC   C1A12999  29.300   4.752   8.751
  723POPC   D2A13000  29.526   4.815   8.363
  723POPC   C3A13001  29.410   4.966   7.950
  723POPC   C4A13002  29.291   4.670   7.629
  723POPC   C1B13003  29.075   5.194   8.786
  723POPC   C2B13004  29.179   5.229   8.361
  723POPC   C3B13005  28.940   5.186   8.018
  723POPC   C4B13006  28.884   4.971   7.643
  724POPC   NC313007  22.079  38.642   9.552
  724POPC   PO413008  22.650  38.413   9.435
  724POPC   GL113009  22.362  38.483   9.150
  724POPC   GL213010  22.179  38.204   9.224
  724POPC   C1A13011  22.051  38.581   8.868
  724POPC   D2A13012  22.315  38.565   8.459
  724POPC   C3A13013  22.370  38.826   8.107
  724POPC   C4A13014  22.115  38.685   7.793
  724POPC   C1B13015  22.098  38.095   8.773
  724POPC   C2B13016  21.874  38.349   8.443
  724POPC   C3B13017  22.107  38.253   8.075
  724POPC   C4B13018  22.154  38.088   7.654
  725POPC   NC313019  23.032   4.687   9.303
  725POPC   PO413020  22.676   5.315   9.307
  725POPC   GL113021  23.046   5.184   9.124
  725POPC   GL213022  23.393   5.236   9.191
  725POPC   C1A13023  23.191   5.018   8.763
  725POPC   D2A13024  23.257   5.102   8.343
  725POPC   C3A13025  22.861   5.092   8.142
  725POPC   C4A13026  22.872   4.942   7.720
  725POPC   C1B13027  23.378   5.488   8.772
  725POPC   C2B13028  23.108   5.574   8.390
  725POPC   C3B13029  23.137   5.451   7.929
  725POPC   C4B13030  23.032   5.408   7.468
  726POPC   NC313031  16.154   2.221   9.266
  726POPC   PO413032  16.532   2.862   9.443
  726POPC   GL113033  16.382   2.652   9.102
  726POPC   GL213034  16.630   2.382   9.154
  726POPC   C1A13035  16.485   2.704   8.672
  726POPC   D2A13036  16.891   2.836   8.458
  726POPC   C3A13037  16.829   3.043   8.069
  726POPC   C4A13038  16.604   2.930   7.694
  726POPC   C1B13039  16.573   2.205   8.760
  726POPC   C2B13040  16.743   2.346   8.407
  726POPC   C3B13041  16.544   2.580   8.123
  726POPC   C4B13042  16.654   2.394   7.756
  727POPC   NC313043   6.037  32.669   9.352
  727POPC   PO413044   5.776  33.149   9.678
  727POPC   GL113045   5.649  33.058   9.232
  727POPC   GL213046   5.704  33.360   9.049
  727POPC   C1A13047   5.518  32.967   8.774
  727POPC   D2A13048   5.709  33.087   8.354
  727POPC   C3A13049   5.558  32.988   7.939
  727POPC   C4A13050   5.737  32.752   7.582
  727POPC   C1B13051   6.030  33.126   8.773
  727POPC   C2B13052   6.185  33.255   8.331
  727POPC   C3B13053   6.064  33.278   7.862
  727POPC   C4B13054   6.201  33.471   7.441
  728POPC   NC313055  34.385   7.998   9.500
  728POPC   PO413056  34.639   8.604   9.685
  728POPC   GL113057  34.510   8.406   9.213
  728POPC   GL213058  34.804   8.397   8.922
  728POPC   C1A13059  34.452   8.073   8.863
  728POPC   D2A13060  34.685   8.127   8.459
  728POPC   C3A13061  34.424   8.099   8.100
  728POPC   C4A13062  34.424   8.256   7.677
  728POPC   C1B13063  35.043   8.018   8.856
  728POPC   C2B13064  35.236   7.797   8.534
  728POPC   C3B13065  35.071   7.855   8.135
  728POPC   C4B13066  34.895   8.204   7.919
  729POPC   NC313067  44.866  44.173   9.702
  729POPC   PO413068  44.528  43.643   9.758
  729POPC   GL113069  44.560  43.868   9.344
  729POPC   GL213070  44.755  44.145   9.201
  729POPC   C1A13071  44.605  43.735   8.892
  729POPC   D2A13072  44.836  43.683   8.543
  729POPC   C3A13073  44.729  43.841   8.198
  729POPC   C4A13074  44.651  43.714   7.796
  729POPC   C1B13075  44.710  44.190   8.730
  729POPC   C2B13076  44.384  44.191   8.385
  729POPC   C3B13077  44.523  44.234   7.953
  729POPC   C4B13078  44.883  44.339   7.673
  730POPC   NC313079  31.173  22.427   9.550
  730POPC   PO413080  31.744  22.148   9.558
  730POPC   GL113081  31.666  21.822   9.232
  730POPC   GL213082  31.296  21.689   9.144
  730POPC   C1A13083  31.753  21.767   8.800
  730POPC   D2A13084  31.647  21.963   8.415
  730POPC   C3A13085  31.480  22.303   8.201
  730POPC   C4A13086  31.659  22.372   7.822
  730POPC   C1B13087  31.223  21.712   8.679
  730POPC   C2B13088  31.120  21.909   8.255
  730POPC   C3B13089  31.268  21.994   7.812
  730POPC   C4B13090  31.097  21.923   7.366
  731POPC   NC313091  11.505  26.681  10.008
  731POPC   PO413092  11.437  27.057   9.438
  731POPC   GL113093  11.340  26.931   9.065
  731POPC   GL213094  10.998  26.882   9.139
  731POPC   C1A13095  11.577  26.791   8.726
  731POPC   D2A13096  11.505  26.519   8.364
  731POPC   C3A13097  11.544  26.794   8.019
  731POPC   C4A13098  11.325  26.767   7.642
  731POPC   C1B13099  10.955  27.012   8.718
  731POPC   C2B13100  11.184  26.998   8.323
  731POPC   C3B13101  11.004  27.080   7.918
  731POPC   C4B13102  11.163  27.219   7.514
  732POPC   NC313103   9.089   9.365   9.594
  732POPC   PO413104   8.780   9.923   9.719
  732POPC   GL113105   8.813   9.947   9.236
  732POPC   GL213106   9.097   9.722   9.199
  732POPC   C1A13107   8.851   9.785   8.776
  732POPC   D2A13108   9.066   9.679   8.397
  732POPC   C3A13109   8.916   9.518   8.004
  732POPC   C4A13110   8.820   9.803   7.734
  732POPC   C1B13111   9.313   9.417   8.927
  732POPC   C2B13112   9.427   9.353   8.485
  732POPC   C3B13113   9.434   9.556   8.055
  732POPC   C4B13114   9.317   9.747   7.660
  733POPC   NC313115  13.954  18.001   9.497
  733POPC   PO413116  13.298  18.184   9.441
  733POPC   GL113117  13.576  18.289   9.131
  733POPC   GL213118  13.846  18.081   8.996
  733POPC   C1A13119  13.438  18.200   8.719
  733POPC   D2A13120  13.669  18.236   8.342
  733POPC   C3A13121  13.470  18.098   8.000
  733POPC   C4A13122  13.263  18.339   7.725
  733POPC   C1B13123  13.883  18.457   8.750
  733POPC   C2B13124  13.958  18.678   8.352
  733POPC   C3B13125  14.044  18.514   7.911
  733POPC   C4B13126  14.126  18.601   7.407
  734POPC   NC313127   4.635  34.562   9.796
  734POPC   PO413128   4.048  34.555   9.451
  734POPC   GL113129   4.252  34.813   9.129
  734POPC   GL213130   4.192  34.505   8.930
  734POPC   C1A13131   4.547  34.810   8.755
  734POPC   D2A13132   4.297  34.899   8.421
  734POPC   C3A13133   4.299  34.823   7.987
  734POPC   C4A13134   4.052  34.997   7.712
  734POPC   C1B13135   4.290  34.365   8.562
  734POPC   C2B13136   4.252  34.371   8.179
  734POPC   C3B13137   4.313  34.189   7.849
  734POPC   C4B13138   4.485  34.253   7.434
  735POPC   NC313139  24.676  22.266   9.529
  735POPC   PO413140  24.057  22.200   9.583
  735POPC   GL113141  24.300  22.307   9.185
  735POPC   GL213142  24.642  22.448   9.064
  735POPC   C1A13143  24.416  21.999   8.850
  735POPC   D2A13144  24.660  21.823   8.492
  735POPC   C3A13145  24.526  22.034   8.130
  735POPC   C4A13146  24.461  22.129   7.714
  735POPC   C1B13147  24.336  22.538   8.742
  735POPC   C2B13148  24.379  22.480   8.339
  735POPC   C3B13149  24.680  22.515   8.015
  735POPC   C4B13150  24.530  22.626   7.637
  736POPC   NC313151  33.931   6.764   9.485
  736POPC   PO413152  33.297   6.411   9.379
  736POPC   GL113153  33.723   6.416   9.127
  736POPC   GL213154  34.103   6.492   9.104
  736POPC   C1A13155  33.755   6.395   8.674
  736POPC   D2A13156  33.437   6.524   8.376
  736POPC   C3A13157  33.610   6.638   7.953
  736POPC   C4A13158  33.982   6.496   7.770
  736POPC   C1B13159  34.167   6.673   8.704
  736POPC   C2B13160  33.963   6.714   8.319
  736POPC   C3B13161  34.041   6.954   7.982
  736POPC   C4B13162  34.329   6.843   7.627
  737POPC   NC313163  33.292   8.836   9.370
  737POPC   PO413164  32.896   9.359   9.606
  737POPC   GL113165  32.901   9.152   9.180
  737POPC   GL213166  32.810   8.776   9.167
  737POPC   C1A13167  33.138   9.176   8.782
  737POPC   D2A13168  33.191   8.901   8.412
  737POPC   C3A13169  33.181   9.167   8.066
  737POPC   C4A13170  32.962   9.205   7.681
  737POPC   C1B13171  32.745   8.827   8.716
  737POPC   C2B13172  32.779   8.625   8.304
  737POPC   C3B13173  32.954   8.700   7.889
  737POPC   C4B13174  32.790   8.629   7.463
  738POPC   NC313175   6.233  19.108   9.676
  738POPC   PO413176   5.658  19.287   9.527
  738POPC   GL113177   5.786  19.240   9.053
  738POPC   GL213178   6.100  19.059   8.993
  738POPC   C1A13179   5.855  19.191   8.557
  738POPC   D2A13180   5.639  18.922   8.224
  738POPC   C3A13181   5.563  18.961   7.758
  738POPC   C4A13182   5.459  18.769   7.325
  738POPC   C1B13183   6.306  18.893   8.614
  738POPC   C2B13184   6.097  18.605   8.331
  738POPC   C3B13185   6.110  18.815   7.938
  738POPC   C4B13186   6.442  18.834   7.611
  739POPC   NC313187  39.453  32.321   9.761
  739POPC   PO413188  39.170  31.770   9.752
  739POPC   GL113189  39.146  32.131   9.391
  739POPC   GL213190  38.882  32.063   9.142
  739POPC   C1A13191  39.305  32.262   8.937
  739POPC   D2A13192  39.200  32.397   8.492
  739POPC   C3A13193  39.374  32.254   8.067
  739POPC   C4A13194  39.260  32.206   7.625
  739POPC   C1B13195  38.920  31.968   8.685
  739POPC   C2B13196  39.008  31.942   8.237
  739POPC   C3B13197  38.782  31.981   7.833
  739POPC   C4B13198  38.910  31.878   7.412
  740POPC   NC313199  19.615   6.365   9.361
  740POPC   PO413200  20.008   6.824   9.631
  740POPC   GL113201  19.952   6.734   9.203
  740POPC   GL213202  20.124   6.430   9.131
  740POPC   C1A13203  19.756   6.714   8.801
  740POPC   D2A13204  19.558   7.004   8.560
  740POPC   C3A13205  19.572   6.874   8.136
  740POPC   C4A13206  19.453   6.966   7.715
  740POPC   C1B13207  20.271   6.681   8.780
  740POPC   C2B13208  20.080   6.735   8.377
  740POPC   C3B13209  20.143   6.496   8.007
  740POPC   C4B13210  20.097   6.243   7.663
  741POPC   NC313211  17.485  22.420   9.540
  741POPC   PO413212  17.227  21.791   9.616
  741POPC   GL113213  17.390  22.006   9.198
  741POPC   GL213214  17.628  22.247   9.086
  741POPC   C1A13215  17.372  21.907   8.729
  741POPC   D2A13216  17.170  22.029   8.345
  741POPC   C3A13217  17.425  22.137   7.975
  741POPC   C4A13218  17.360  22.075   7.549
  741POPC   C1B13219  17.294  22.393   8.782
  741POPC   C2B13220  17.296  22.530   8.325
  741POPC   C3B13221  17.456  22.645   7.912
  741POPC   C4B13222  17.716  22.431   7.609
  742POPC   NC313223  29.521   8.229   9.497
  742POPC   PO413224  29.029   8.639   9.564
  742POPC   GL113225  29.037   8.218   9.281
  742POPC   GL213226  28.709   8.114   9.122
  742POPC   C1A13227  29.141   8.036   8.845
  742POPC   D2A13228  29.002   8.010   8.400
  742POPC   C3A13229  29.358   8.026   8.141
  742POPC   C4A13230  29.526   8.128   7.721
  742POPC   C1B13231  28.900   8.485   8.874
  742POPC   C2B13232  28.804   8.489   8.460
  742POPC   C3B13233  28.982   8.455   8.073
  742POPC   C4B13234  28.880   8.574   7.667
  743POPC   NC313235   9.486  18.297   9.444
  743POPC   PO413236  10.100  18.061   9.459
  743POPC   GL113237   9.861  18.315   9.123
  743POPC   GL213238   9.598  18.092   8.957
  743POPC   C1A13239   9.875  18.652   8.796
  743POPC   D2A13240   9.787  18.904   8.415
  743POPC   C3A13241   9.599  18.652   8.065
  743POPC   C4A13242   9.941  18.382   7.921
  743POPC   C1B13243   9.982  18.173   8.664
  743POPC   C2B13244  10.228  18.101   8.308
  743POPC   C3B13245   9.974  17.891   8.031
  743POPC   C4B13246   9.637  17.854   7.778
  744POPC   NC313247  28.845  41.552   9.166
  744POPC   PO413248  29.394  41.255   9.483
  744POPC   GL113249  29.254  41.240   9.075
  744POPC   GL213250  28.950  41.063   9.022
  744POPC   C1A13251  29.384  41.046   8.695
  744POPC   D2A13252  29.359  41.303   8.348
  744POPC   C3A13253  29.567  41.326   7.978
  744POPC   C4A13254  29.653  41.743   7.841
  744POPC   C1B13255  28.874  41.157   8.581
  744POPC   C2B13256  28.917  41.569   8.374
  744POPC   C3B13257  29.149  41.741   8.029
  744POPC   C4B13258  29.129  41.446   7.739
  745POPC   NC313259  42.566  11.662   9.450
  745POPC   PO413260  42.363  11.031   9.435
  745POPC   GL113261  42.206  11.163   9.085
  745POPC   GL213262  41.898  10.993   9.063
  745POPC   C1A13263  42.234  11.512   8.797
  745POPC   D2A13264  42.079  11.511   8.379
  745POPC   C3A13265  42.438  11.416   8.119
  745POPC   C4A13266  42.545  11.236   7.735
  745POPC   C1B13267  41.948  11.038   8.656
  745POPC   C2B13268  41.987  10.809   8.334
  745POPC   C3B13269  42.059  11.072   8.002
  745POPC   C4B13270  42.040  11.162   7.592
  746POPC   NC313271   7.388  33.034   9.578
  746POPC   PO413272   7.737  32.455   9.502
  746POPC   GL113273   7.653  32.777   9.112
  746POPC   GL213274   7.326  32.987   9.078
  746POPC   C1A13275   7.608  32.977   8.662
  746POPC   D2A13276   7.407  33.114   8.258
  746POPC   C3A13277   7.681  33.126   7.870
  746POPC   C4A13278   7.649  33.146   7.421
  746POPC   C1B13279   7.161  33.273   8.731
  746POPC   C2B13280   6.943  33.373   8.355
  746POPC   C3B13281   7.029  33.338   7.922
  746POPC   C4B13282   7.213  33.044   7.701
  747POPC   NC313283  22.185  16.302   9.527
  747POPC   PO413284  22.034  15.620   9.531
  747POPC   GL113285  22.239  15.900   9.191
  747POPC   GL213286  22.049  16.210   9.045
  747POPC   C1A13287  22.470  16.060   8.806
  747POPC   D2A13288  22.500  15.901   8.369
  747POPC   C3A13289  22.345  16.078   7.976
  747POPC   C4A13290  22.142  16.189   7.585
  747POPC   C1B13291  21.996  15.871   8.715
  747POPC   C2B13292  21.976  15.897   8.275
  747POPC   C3B13293  21.802  16.084   7.927
  747POPC   C4B13294  21.730  15.896   7.528
  748POPC   NC313295   6.284  43.533   9.446
  748POPC   PO413296   5.633  43.729   9.643
  748POPC   GL113297   5.694  43.789   9.215
  748POPC   GL213298   6.007  43.789   9.107
  748POPC   C1A13299   5.628  43.939   8.819
  748POPC   D2A13300   5.819  44.014   8.460
  748POPC   C3A13301   5.520  43.852   8.180
  748POPC   C4A13302   5.813  43.835   7.844
  748POPC   C1B13303   6.172  43.608   8.748
  748POPC   C2B13304   6.325  43.861   8.424
  748POPC   C3B13305   6.331  43.851   8.002
  748POPC   C4B13306   6.207  43.477   7.833
  749POPC   NC313307   6.035   5.864   9.870
  749POPC   PO413308   6.136   5.608   9.490
  749POPC   GL113309   5.958   5.733   9.057
  749POPC   GL213310   5.730   6.019   9.074
  749POPC   C1A13311   5.902   5.620   8.609
  749POPC   D2A13312   5.950   5.385   8.214
  749POPC   C3A13313   5.793   5.661   7.896
  749POPC   C4A13314   5.493   5.840   7.594
  749POPC   C1B13315   5.817   6.136   8.651
  749POPC   C2B13316   5.666   6.023   8.267
  749POPC   C3B13317   5.764   6.181   7.878
  749POPC   C4B13318   6.095   5.988   7.609
  750POPC   NC313319  40.941  11.249   9.427
  750POPC   PO413320  40.385  10.906   9.397
  750POPC   GL113321  40.580  11.117   9.093
  750POPC   GL213322  40.510  11.480   9.120
  750POPC   C1A13323  40.512  11.140   8.694
  750POPC   D2A13324  40.777  11.078   8.407
  750POPC   C3A13325  40.828  11.250   8.046
  750POPC   C4A13326  40.710  11.064   7.689
  750POPC   C1B13327  40.700  11.642   8.725
  750POPC   C2B13328  41.020  11.585   8.425
  750POPC   C3B13329  41.037  11.706   7.995
  750POPC   C4B13330  40.806  11.578   7.641
  751POPC   NC313331  37.892  28.513   9.675
  751POPC   PO413332  37.593  27.966   9.479
  751POPC   GL113333  37.745  28.163   9.121
  751POPC   GL213334  37.703  28.493   9.185
  751POPC   C1A13335  37.782  28.092   8.674
  751POPC   D2A13336  37.910  28.201   8.239
  751POPC   C3A13337  37.641  28.321   7.912
  751POPC   C4A13338  37.575  28.211   7.476
  751POPC   C1B13339  37.795  28.606   8.751
  751POPC   C2B13340  37.773  28.788   8.327
  751POPC   C3B13341  38.016  28.668   7.981
  751POPC   C4B13342  37.960  28.671   7.534
  752POPC   NC313343  20.888  41.639   9.756
  752POPC   PO413344  21.538  41.388   9.707
  752POPC   GL113345  21.309  41.675   9.400
  752POPC   GL213346  21.593  41.654   9.206
  752POPC   C1A13347  21.174  41.648   8.934
  752POPC   D2A13348  21.282  41.677   8.502
  752POPC   C3A13349  21.192  41.714   8.077
  752POPC   C4A13350  21.031  41.635   7.685
  752POPC   C1B13351  21.662  41.419   8.817
  752POPC   C2B13352  21.667  41.347   8.381
  752POPC   C3B13353  21.643  41.470   7.929
  752POPC   C4B13354  21.671  41.448   7.445
  753POPC   NC313355  42.009  15.949   9.432
  753POPC   PO413356  41.475  15.701   9.540
  753POPC   GL113357  41.582  15.984   9.141
  753POPC   GL213358  41.862  16.249   9.052
  753POPC   C1A13359  41.795  15.902   8.722
  753POPC   D2A13360  41.868  15.865   8.304
  753POPC   C3A13361  41.674  15.559   8.071
  753POPC   C4A13362  41.495  15.681   7.683
  753POPC   C1B13363  41.526  16.354   8.780
  753POPC   C2B13364  41.332  16.168   8.446
  753POPC   C3B13365  41.476  16.057   8.034
  753POPC   C4B13366  41.470  16.193   7.618
  754POPC   NC313367  24.920  26.123   9.572
  754POPC   PO413368  25.555  25.951   9.442
  754POPC   GL113369  25.261  26.119   9.196
  754POPC   GL213370  25.053  25.817   9.154
  754POPC   C1A13371  25.087  26.252   8.826
  754POPC   D2A13372  25.147  26.050   8.434
  754POPC   C3A13373  25.418  26.002   8.085
  754POPC   C4A13374  25.301  26.254   7.733
  754POPC   C1B13375  24.825  25.802   8.756
  754POPC   C2B13376  24.657  25.953   8.344
  754POPC   C3B13377  24.885  25.987   7.959
  754POPC   C4B13378  25.134  25.743   7.671
  755POPC   NC313379  44.617   9.230   9.618
  755POPC   PO413380   0.177   9.056   9.577
  755POPC   GL113381  44.817   8.878   9.293
  755POPC   GL213382  44.493   9.104   9.158
  755POPC   C1A13383  44.731   8.822   8.838
  755POPC   D2A13384  44.925   9.013   8.485
  755POPC   C3A13385  44.821   8.931   8.105
  755POPC   C4A13386   0.057   9.052   7.731
  755POPC   C1B13387  44.254   9.103   8.762
  755POPC   C2B13388  44.192   8.936   8.352
  755POPC   C3B13389  44.348   8.761   7.960
  755POPC   C4B13390  44.537   9.098   7.732
  756POPC   NC313391  28.214  34.857   9.656
  756POPC   PO413392  28.171  34.257   9.635
  756POPC   GL113393  28.264  34.532   9.248
  756POPC   GL213394  28.315  34.881   9.170
  756POPC   C1A13395  28.403  34.447   8.819
  756POPC   D2A13396  28.647  34.521   8.441
  756POPC   C3A13397  28.513  34.493   8.011
  756POPC   C4A13398  28.361  34.224   7.681
  756POPC   C1B13399  28.028  34.849   8.841
  756POPC   C2B13400  28.154  34.700   8.435
  756POPC   C3B13401  28.116  34.829   8.032
  756POPC   C4B13402  28.233  34.799   7.620
  757POPC   NC313403  10.045   9.935   9.540
  757POPC   PO413404   9.442   9.646   9.563
  757POPC   GL113405   9.618   9.765   9.200
  757POPC   GL213406   9.947   9.692   9.122
  757POPC   C1A13407   9.548   9.845   8.785
  757POPC   D2A13408   9.358  10.084   8.496
  757POPC   C3A13409   9.634  10.017   8.173
  757POPC   C4A13410   9.854   9.785   7.852
  757POPC   C1B13411  10.059   9.879   8.720
  757POPC   C2B13412  10.158  10.038   8.285
  757POPC   C3B13413  10.006  10.303   7.935
  757POPC   C4B13414   9.990  10.199   7.462
  758POPC   NC313415  36.629   0.379   9.192
  758POPC   PO413416  36.128   0.342   9.635
  758POPC   GL113417  36.088   0.359   9.176
  758POPC   GL213418  35.875   0.615   9.080
  758POPC   C1A13419  36.148   0.459   8.713
  758POPC   D2A13420  36.286   0.285   8.390
  758POPC   C3A13421  36.119   0.452   8.066
  758POPC   C4A13422  36.135   0.467   7.658
  758POPC   C1B13423  35.756   0.913   8.735
  758POPC   C2B13424  35.869   0.859   8.311
  758POPC   C3B13425  35.911   0.885   7.872
  758POPC   C4B13426  35.666   0.650   7.605
  759POPC   NC313427   8.451  16.064   9.612
  759POPC   PO413428   7.798  16.330   9.604
  759POPC   GL113429   7.995  16.151   9.210
  759POPC   GL213430   8.321  16.170   9.152
  759POPC   C1A13431   8.079  15.907   8.793
  759POPC   D2A13432   8.211  15.802   8.351
  759POPC   C3A13433   8.112  16.004   7.949
  759POPC   C4A13434   8.195  15.955   7.501
  759POPC   C1B13435   8.513  16.219   8.793
  759POPC   C2B13436   8.396  16.354   8.423
  759POPC   C3B13437   8.613  16.434   8.083
  759POPC   C4B13438   8.496  16.293   7.725
  760POPC   NC313439   9.794   2.817   9.578
  760POPC   PO413440   9.427   2.325   9.534
  760POPC   GL113441   9.716   2.524   9.157
  760POPC   GL213442   9.874   2.876   9.088
  760POPC   C1A13443   9.686   2.622   8.703
  760POPC   D2A13444   9.488   2.604   8.315
  760POPC   C3A13445   9.678   2.614   7.937
  760POPC   C4A13446   9.487   2.695   7.533
  760POPC   C1B13447   9.852   3.122   8.668
  760POPC   C2B13448   9.769   3.070   8.192
  760POPC   C3B13449   9.757   3.081   7.702
  760POPC   C4B13450   9.686   3.100   7.216
  761POPC   NC313451  40.959  30.518   9.543
  761POPC   PO413452  40.435  30.925   9.483
  761POPC   GL113453  40.746  30.734   9.144
  761POPC   GL213454  40.975  30.396   9.064
  761POPC   C1A13455  40.951  30.782   8.749
  761POPC   D2A13456  40.688  30.701   8.420
  761POPC   C3A13457  40.811  30.799   8.037
  761POPC   C4A13458  40.895  31.175   7.787
  761POPC   C1B13459  40.586  30.375   8.821
  761POPC   C2B13460  40.351  30.277   8.458
  761POPC   C3B13461  40.568  30.326   8.095
  761POPC   C4B13462  40.500  30.516   7.750
  762POPC   NC313463  32.478   5.216   9.457
  762POPC   PO413464  31.803   5.308   9.439
  762POPC   GL113465  32.063   5.109   9.168
  762POPC   GL213466  32.119   4.792   9.319
  762POPC   C1A13467  32.229   5.198   8.787
  762POPC   D2A13468  32.409   5.328   8.405
  762POPC   C3A13469  32.425   5.127   8.041
  762POPC   C4A13470  32.390   5.271   7.658
  762POPC   C1B13471  32.119   4.691   8.865
  762POPC   C2B13472  32.193   4.838   8.424
  762POPC   C3B13473  32.126   4.691   8.005
  762POPC   C4B13474  32.132   4.810   7.587
  763POPC   NC313475   7.762   8.821   9.586
  763POPC   PO413476   8.412   9.043   9.505
  763POPC   GL113477   8.136   8.849   9.231
  763POPC   GL213478   8.352   8.604   9.099
  763POPC   C1A13479   7.919   9.051   8.895
  763POPC   D2A13480   8.084   9.331   8.585
  763POPC   C3A13481   8.128   9.280   8.131
  763POPC   C4A13482   7.953   9.215   7.701
  763POPC   C1B13483   7.995   8.559   8.790
  763POPC   C2B13484   7.965   8.830   8.424
  763POPC   C3B13485   8.054   8.786   8.002
  763POPC   C4B13486   7.832   8.589   7.699
  764POPC   NC313487  28.061   5.206   9.768
  764POPC   PO413488  28.676   4.973   9.503
  764POPC   GL113489  28.521   5.148   9.149
  764POPC   GL213490  28.217   5.192   9.122
  764POPC   C1A13491  28.591   5.044   8.755
  764POPC   D2A13492  28.519   5.201   8.352
  764POPC   C3A13493  28.474   5.009   7.954
  764POPC   C4A13494  28.455   5.217   7.521
  764POPC   C1B13495  28.149   5.293   8.705
  764POPC   C2B13496  27.993   5.141   8.313
  764POPC   C3B13497  28.052   5.341   7.915
  764POPC   C4B13498  27.970   5.389   7.472
  765POPC   NC313499  30.461  20.055   9.648
  765POPC   PO413500  31.010  19.903   9.401
  765POPC   GL113501  30.653  19.785   9.184
  765POPC   GL213502  30.825  19.455   9.178
  765POPC   C1A13503  30.540  19.793   8.747
  765POPC   D2A13504  30.937  19.916   8.485
  765POPC   C3A13505  30.902  19.854   8.042
  765POPC   C4A13506  30.875  20.073   7.644
  765POPC   C1B13507  30.916  19.438   8.744
  765POPC   C2B13508  30.671  19.491   8.346
  765POPC   C3B13509  30.685  19.401   7.897
  765POPC   C4B13510  30.316  19.317   7.626
  766POPC   NC313511  38.090  25.295   9.739
  766POPC   PO413512  38.570  25.062   9.261
  766POPC   GL113513  38.309  25.374   9.175
  766POPC   GL213514  38.141  25.184   8.924
  766POPC   C1A13515  38.411  25.589   8.799
  766POPC   D2A13516  38.224  25.647   8.400
  766POPC   C3A13517  38.417  25.431   8.055
  766POPC   C4A13518  38.814  25.268   7.836
  766POPC   C1B13519  38.411  25.108   8.559
  766POPC   C2B13520  38.601  24.935   8.186
  766POPC   C3B13521  38.373  24.987   7.803
  766POPC   C4B13522  37.982  25.063   7.602
  767POPC   NC313523  14.881  18.110   9.652
  767POPC   PO413524  14.205  18.459   9.585
  767POPC   GL113525  14.200  18.423   9.157
  767POPC   GL213526  14.352  18.120   9.200
  767POPC   C1A13527  14.377  18.565   8.718
  767POPC   D2A13528  14.460  18.709   8.256
  767POPC   C3A13529  14.561  18.508   7.851
  767POPC   C4A13530  14.587  18.454   7.413
  767POPC   C1B13531  14.314  18.062   8.787
  767POPC   C2B13532  14.190  18.206   8.387
  767POPC   C3B13533  14.328  18.078   7.992
  767POPC   C4B13534  14.159  18.125   7.601
  768POPC   NC313535  21.370  33.381   9.418
  768POPC   PO413536  21.117  32.713   9.526
  768POPC   GL113537  21.298  32.901   9.177
  768POPC   GL213538  21.532  32.698   9.132
  768POPC   C1A13539  21.202  33.090   8.781
  768POPC   D2A13540  21.170  33.351   8.400
  768POPC   C3A13541  21.325  33.153   8.045
  768POPC   C4A13542  21.640  33.194   7.744
  768POPC   C1B13543  21.686  32.806   8.769
  768POPC   C2B13544  21.516  32.844   8.389
  768POPC   C3B13545  21.627  32.731   7.978
  768POPC   C4B13546  21.908  32.749   7.620
  769POPC   NC313547   1.516  21.968   9.532
  769POPC   PO413548   2.139  22.133   9.487
  769POPC   GL113549   1.970  22.361   9.161
  769POPC   GL213550   1.619  22.342   9.159
  769POPC   C1A13551   1.970  22.413   8.718
  769POPC   D2A13552   2.049  22.125   8.398
  769POPC   C3A13553   2.027  22.290   8.010
  769POPC   C4A13554   1.899  22.216   7.645
  769POPC   C1B13555   1.745  21.975   8.883
  769POPC   C2B13556   1.636  21.849   8.476
  769POPC   C3B13557   1.619  21.959   8.047
  769POPC   C4B13558   1.540  21.846   7.617
  770POPC   NC313559  41.780  14.431   9.749
  770POPC   PO413560  41.360  14.067   9.281
  770POPC   GL113561  41.464  14.101   8.874
  770POPC   GL213562  41.647  14.431   8.843
  770POPC   C1A13563  41.285  14.304   8.515
  770POPC   D2A13564  41.504  14.689   8.425
  770POPC   C3A13565  41.728  14.569   8.071
  770POPC   C4A13566  41.450  14.247   7.857
  770POPC   C1B13567  42.046  14.431   8.621
  770POPC   C2B13568  42.143  14.252   8.228
  770POPC   C3B13569  41.949  14.168   7.826
  770POPC   C4B13570  41.819  14.011   7.447
  771POPC   NC313571  14.557  18.773   9.698
  771POPC   PO413572  14.182  19.198   9.480
  771POPC   GL113573  14.331  18.935   9.165
  771POPC   GL213574  14.047  18.876   8.972
  771POPC   C1A13575  14.464  19.071   8.742
  771POPC   D2A13576  14.286  19.175   8.347
  771POPC   C3A13577  14.572  19.246   8.018
  771POPC   C4A13578  14.772  18.962   7.727
  771POPC   C1B13579  13.983  19.265   8.775
  771POPC   C2B13580  13.799  19.309   8.387
  771POPC   C3B13581  13.899  19.075   8.026
  771POPC   C4B13582  14.249  18.952   7.764
  772POPC   NC313583  20.823  12.897   9.501
  772POPC   PO413584  20.380  12.500   9.774
  772POPC   GL113585  20.430  12.637   9.272
  772POPC   GL213586  20.269  12.931   9.140
  772POPC   C1A13587  20.707  12.828   8.880
  772POPC   D2A13588  20.740  13.090   8.477
  772POPC   C3A13589  20.916  12.933   8.116
  772POPC   C4A13590  21.076  13.150   7.780
  772POPC   C1B13591  20.256  12.904   8.694
  772POPC   C2B13592  20.273  12.989   8.286
  772POPC   C3B13593  20.454  12.851   7.941
  772POPC   C4B13594  20.238  12.916   7.634
  773POPC   NC313595   1.889  43.929   9.563
  773POPC   PO413596   2.467  43.699   9.476
  773POPC   GL113597   2.139  43.814   9.139
  773POPC   GL213598   1.868  44.119   9.104
  773POPC   C1A13599   2.170  44.007   8.725
  773POPC   D2A13600   2.195  44.151   8.321
  773POPC   C3A13601   1.942  43.885   8.049
  773POPC   C4A13602   2.052  43.760   7.629
  773POPC   C1B13603   1.698  43.773   8.861
  773POPC   C2B13604   1.525  43.708   8.438
  773POPC   C3B13605   1.560  43.500   8.055
  773POPC   C4B13606   1.566  43.686   7.686
  774POPC   NC313607   3.037  30.307   9.628
  774POPC   PO413608   2.710  29.680   9.665
  774POPC   GL113609   2.974  29.865   9.305
  774POPC   GL213610   2.832  30.157   9.171
  774POPC   C1A13611   3.091  29.861   8.818
  774POPC   D2A13612   2.875  29.980   8.353
  774POPC   C3A13613   2.694  29.806   7.954
  774POPC   C4A13614   2.985  29.513   7.830
  774POPC   C1B13615   2.806  30.278   8.751
  774POPC   C2B13616   2.726  30.481   8.362
  774POPC   C3B13617   2.562  30.343   7.978
  774POPC   C4B13618   2.702  30.192   7.595
  775POPC   NC313619   2.830  24.832   9.370
  775POPC   PO413620   2.792  25.454   9.469
  775POPC   GL113621   2.544  25.207   9.115
  775POPC   GL213622   2.491  24.850   8.994
  775POPC   C1A13623   2.495  25.213   8.655
  775POPC   D2A13624   2.509  25.533   8.339
  775POPC   C3A13625   2.442  25.343   7.955
  775POPC   C4A13626   2.688  25.288   7.606
  775POPC   C1B13627   2.863  24.848   8.707
  775POPC   C2B13628   3.025  24.769   8.273
  775POPC   C3B13629   3.050  24.946   7.827
  775POPC   C4B13630   2.953  24.938   7.372
  776POPC   NC313631  36.416   4.413   9.442
  776POPC   PO413632  35.785   4.064   9.436
  776POPC   GL113633  36.131   4.131   9.121
  776POPC   GL213634  36.194   4.459   8.998
  776POPC   C1A13635  36.398   4.059   8.740
  776POPC   D2A13636  36.185   4.271   8.397
  776POPC   C3A13637  36.053   4.138   8.000
  776POPC   C4A13638  36.430   4.034   7.770
  776POPC   C1B13639  35.908   4.538   8.729
  776POPC   C2B13640  36.062   4.766   8.367
  776POPC   C3B13641  36.388   4.663   8.106
  776POPC   C4B13642  36.186   4.551   7.734
  777POPC   NC313643  18.656  43.406   9.569
  777POPC   PO413644  18.083  43.137   9.749
  777POPC   GL113645  18.057  43.345   9.249
  777POPC   GL213646  17.991  43.059   9.117
  777POPC   C1A13647  18.169  43.394   8.773
  777POPC   D2A13648  18.467  43.203   8.470
  777POPC   C3A13649  18.512  43.299   8.063
  777POPC   C4A13650  18.189  43.367   7.770
  777POPC   C1B13651  18.238  42.896   8.796
  777POPC   C2B13652  18.244  42.706   8.462
  777POPC   C3B13653  18.158  42.811   8.094
  777POPC   C4B13654  18.467  42.859   7.812
  778POPC   NC313655   7.919  31.758   9.553
  778POPC   PO413656   8.430  31.201   9.571
  778POPC   GL113657   8.210  31.336   9.111
  778POPC   GL213658   8.148  31.739   9.094
  778POPC   C1A13659   8.142  31.442   8.697
  778POPC   D2A13660   7.950  31.418   8.338
  778POPC   C3A13661   8.202  31.636   8.054
  778POPC   C4A13662   8.144  31.478   7.675
  778POPC   C1B13663   7.822  31.878   8.857
  778POPC   C2B13664   7.789  31.931   8.451
  778POPC   C3B13665   7.707  31.770   8.082
  778POPC   C4B13666   7.764  31.834   7.703
  779POPC   NC313667  25.491  14.733   9.326
  779POPC   PO413668  25.279  14.051   9.533
  779POPC   GL113669  25.269  14.304   9.184
  779POPC   GL213670  25.638  14.238   9.169
  779POPC   C1A13671  25.155  14.524   8.791
  779POPC   D2A13672  25.383  14.564   8.413
  779POPC   C3A13673  25.203  14.461   8.015
  779POPC   C4A13674  24.911  14.663   7.788
  779POPC   C1B13675  25.548  14.189   8.739
  779POPC   C2B13676  25.641  14.131   8.298
  779POPC   C3B13677  25.737  14.034   7.862
  779POPC   C4B13678  25.443  13.894   7.531
  780POPC   NC313679  14.932  11.215   9.545
  780POPC   PO413680  15.491  11.665   9.474
  780POPC   GL113681  15.244  11.363   9.185
  780POPC   GL213682  15.377  11.075   9.040
  780POPC   C1A13683  15.095  11.407   8.758
  780POPC   D2A13684  15.242  11.720   8.446
  780POPC   C3A13685  15.286  11.552   8.004
  780POPC   C4A13686  15.249  11.519   7.533
  780POPC   C1B13687  15.357  10.901   8.627
  780POPC   C2B13688  15.106  10.988   8.252
  780POPC   C3B13689  15.123  11.053   7.801
  780POPC   C4B13690  15.341  11.023   7.408
  781POPC   NC313691  21.856   8.576   9.553
  781POPC   PO413692  21.132   8.734   9.483
  781POPC   GL113693  21.286   8.783   9.100
  781POPC   GL213694  21.622   8.685   9.025
  781POPC   C1A13695  21.159   8.747   8.698
  781POPC   D2A13696  21.172   8.973   8.312
  781POPC   C3A13697  21.193   8.781   7.923
  781POPC   C4A13698  20.978   8.919   7.529
  781POPC   C1B13699  21.588   9.030   8.677
  781POPC   C2B13700  21.603   9.215   8.219
  781POPC   C3B13701  21.553   9.102   7.755
  781POPC   C4B13702  21.833   8.962   7.397
  782POPC   NC313703  23.646  25.061   9.450
  782POPC   PO413704  23.463  25.671   9.482
  782POPC   GL113705  23.594  25.437   9.096
  782POPC   GL213706  23.396  25.159   9.022
  782POPC   C1A13707  23.834  25.208   8.756
  782POPC   D2A13708  24.122  25.374   8.469
  782POPC   C3A13709  24.015  25.234   8.073
  782POPC   C4A13710  23.984  25.408   7.666
  782POPC   C1B13711  23.313  25.334   8.648
  782POPC   C2B13712  23.629  25.518   8.385
  782POPC   C3B13713  23.604  25.537   7.960
  782POPC   C4B13714  23.564  25.133   7.746
  783POPC   NC313715   9.328  20.238   9.497
  783POPC   PO413716   8.629  20.269   9.453
  783POPC   GL113717   8.931  20.107   9.195
  783POPC   GL213718   8.987  19.762   9.227
  783POPC   C1A13719   9.121  20.071   8.823
  783POPC   D2A13720   9.037  20.208   8.419
  783POPC   C3A13721   9.134  19.919   8.104
  783POPC   C4A13722   9.297  19.857   7.698
  783POPC   C1B13723   9.100  19.555   8.832
  783POPC   C2B13724   9.064  19.346   8.457
  783POPC   C3B13725   8.933  19.441   8.049
  783POPC   C4B13726   9.236  19.358   7.715
  784POPC   NC313727  28.239  10.180   9.603
  784POPC   PO413728  28.616  10.746   9.627
  784POPC   GL113729  28.592  10.615   9.190
  784POPC   GL213730  28.499  10.285   9.163
  784POPC   C1A13731  28.674  10.602   8.722
  784POPC   D2A13732  28.344  10.870   8.524
  784POPC   C3A13733  28.215  10.804   8.110
  784POPC   C4A13734  28.408  10.600   7.808
  784POPC   C1B13735  28.236  10.396   8.819
  784POPC   C2B13736  28.338  10.326   8.376
  784POPC   C3B13737  28.077  10.279   8.001
  784POPC   C4B13738  28.167  10.277   7.506
  785POPC   NC313739  31.401   3.864   9.424
  785POPC   PO413740  31.208   4.510   9.523
  785POPC   GL113741  31.177   4.250   9.158
  785POPC   GL213742  31.547   4.188   9.065
  785POPC   C1A13743  31.177   4.359   8.723
  785POPC   D2A13744  31.310   4.400   8.307
  785POPC   C3A13745  31.707   4.296   8.122
  785POPC   C4A13746  31.711   4.534   7.753
  785POPC   C1B13747  31.711   4.135   8.649
  785POPC   C2B13748  31.966   3.898   8.341
  785POPC   C3B13749  31.812   3.810   7.971
  785POPC   C4B13750  31.675   4.034   7.638
  786POPC   NC313751  10.262  21.608   9.585
  786POPC   PO413752  10.790  22.047   9.771
  786POPC   GL113753  10.831  21.995   9.298
  786POPC   GL213754  10.543  22.171   9.095
  786POPC   C1A13755  10.888  21.922   8.839
  786POPC   D2A13756  10.646  22.016   8.466
  786POPC   C3A13757  10.712  22.083   8.004
  786POPC   C4A13758  10.498  22.333   7.678
  786POPC   C1B13759  10.309  22.308   8.723
  786POPC   C2B13760  10.254  22.332   8.262
  786POPC   C3B13761  10.259  22.684   7.933
  786POPC   C4B13762  10.171  22.697   7.447
  787POPC   NC313763  33.642  36.055   9.724
  787POPC   PO413764  34.237  36.287   9.501
  787POPC   GL113765  33.872  36.184   9.241
  787POPC   GL213766  33.650  35.906   9.220
  787POPC   C1A13767  33.769  36.236   8.805
  787POPC   D2A13768  33.918  36.424   8.386
  787POPC   C3A13769  33.631  36.274   8.133
  787POPC   C4A13770  33.617  36.132   7.731
  787POPC   C1B13771  33.976  35.769   8.906
  787POPC   C2B13772  34.067  35.934   8.521
  787POPC   C3B13773  33.932  35.852   8.126
  787POPC   C4B13774  33.972  35.754   7.721
  788POPC   NC313775  42.258  21.850   9.374
  788POPC   PO413776  42.090  22.560   9.564
  788POPC   GL113777  42.093  22.322   9.228
  788POPC   GL213778  42.397  22.303   9.141
  788POPC   C1A13779  42.005  22.231   8.801
  788POPC   D2A13780  41.960  22.416   8.417
  788POPC   C3A13781  42.081  22.149   8.135
  788POPC   C4A13782  42.229  22.451   7.891
  788POPC   C1B13783  42.506  22.109   8.803
  788POPC   C2B13784  42.485  22.289   8.443
  788POPC   C3B13785  42.691  22.163   8.127
  788POPC   C4B13786  42.535  22.063   7.750
  789POPC   NC313787  38.630  26.197   9.652
  789POPC   PO413788  38.191  25.721   9.577
  789POPC   GL113789  38.443  25.913   9.210
  789POPC   GL213790  38.446  26.289   9.202
  789POPC   C1A13791  38.432  26.093   8.755
  789POPC   D2A13792  38.144  26.159   8.439
  789POPC   C3A13793  38.336  26.043   8.069
  789POPC   C4A13794  38.410  26.261   7.720
  789POPC   C1B13795  38.815  26.389   8.938
  789POPC   C2B13796  38.764  26.440   8.481
  789POPC   C3B13797  38.833  26.254   8.064
  789POPC   C4B13798  38.895  26.413   7.620
  790POPC   NC313799  17.756  12.109   9.365
  790POPC   PO413800  17.116  11.861   9.425
  790POPC   GL113801  17.378  11.886   9.026
  790POPC   GL213802  17.516  12.225   8.953
  790POPC   C1A13803  17.598  11.893   8.609
  790POPC   D2A13804  17.513  12.079   8.233
  790POPC   C3A13805  17.695  11.831   7.905
  790POPC   C4A13806  17.721  11.957   7.461
  790POPC   C1B13807  17.850  12.339   8.702
  790POPC   C2B13808  17.817  12.476   8.294
  790POPC   C3B13809  17.948  12.265   7.932
  790POPC   C4B13810  18.066  12.392   7.541
  791POPC   NC313811  33.266   0.070   9.375
  791POPC   PO413812  33.017  44.381   9.428
  791POPC   GL113813  33.154  44.462   9.049
  791POPC   GL213814  33.097  44.810   8.982
  791POPC   C1A13815  32.893  44.418   8.690
  791POPC   D2A13816  33.032  44.353   8.278
  791POPC   C3A13817  32.764  44.405   7.925
  791POPC   C4A13818  32.839  44.764   7.620
  791POPC   C1B13819  33.310  44.695   8.621
  791POPC   C2B13820  33.354  44.922   8.299
  791POPC   C3B13821  33.189  44.892   7.963
  791POPC   C4B13822  33.248  44.510   7.827
  792POPC   NC313823  38.014  35.563   9.404
  792POPC   PO413824  38.479  35.063   9.518
  792POPC   GL113825  38.424  35.319   9.161
  792POPC   GL213826  38.110  35.159   9.105
  792POPC   C1A13827  38.573  35.191   8.752
  792POPC   D2A13828  38.495  34.986   8.370
  792POPC   C3A13829  38.697  35.205   8.079
  792POPC   C4A13830  38.839  35.246   7.697
  792POPC   C1B13831  38.099  35.330   8.685
  792POPC   C2B13832  38.104  35.347   8.235
  792POPC   C3B13833  38.288  35.450   7.888
  792POPC   C4B13834  38.366  35.334   7.483
  793POPC   NC313835  20.643  36.567   9.544
  793POPC   PO413836  20.841  37.219   9.609
  793POPC   GL113837  20.641  37.146   9.220
  793POPC   GL213838  20.843  36.864   9.159
  793POPC   C1A13839  20.583  37.057   8.746
  793POPC   D2A13840  20.801  36.996   8.340
  793POPC   C3A13841  20.521  36.992   7.974
  793POPC   C4A13842  20.460  36.917   7.525
  793POPC   C1B13843  20.922  36.684   8.758
  793POPC   C2B13844  20.906  36.494   8.348
  793POPC   C3B13845  20.911  36.662   7.938
  793POPC   C4B13846  20.913  36.672   7.494
  794POPC   NC313847  20.386   5.958   9.348
  794POPC   PO413848  20.942   5.764   9.655
  794POPC   GL113849  20.825   5.699   9.241
  794POPC   GL213850  20.593   5.486   9.345
  794POPC   C1A13851  20.867   5.871   8.809
  794POPC   D2A13852  20.976   6.041   8.397
  794POPC   C3A13853  20.818   5.810   8.048
  794POPC   C4A13854  20.496   5.937   7.750
  794POPC   C1B13855  20.470   5.511   8.883
  794POPC   C2B13856  20.493   5.731   8.467
  794POPC   C3B13857  20.333   5.571   8.073
  794POPC   C4B13858  20.344   5.460   7.630
  795POPC   NC313859  35.953  41.977   9.369
  795POPC   PO413860  36.350  42.492   9.387
  795POPC   GL113861  36.123  42.507   9.057
  795POPC   GL213862  36.178  42.165   8.964
  795POPC   C1A13863  36.011  42.487   8.633
  795POPC   D2A13864  36.301  42.240   8.423
  795POPC   C3A13865  36.300  42.483   8.086
  795POPC   C4A13866  36.258  42.708   7.724
  795POPC   C1B13867  36.530  41.967   8.824
  795POPC   C2B13868  36.584  41.812   8.409
  795POPC   C3B13869  36.588  42.026   8.019
  795POPC   C4B13870  36.396  42.218   7.664
  796POPC   NC313871  42.230  13.559   9.557
  796POPC   PO413872  42.183  14.237   9.603
  796POPC   GL113873  42.193  13.948   9.239
  796POPC   GL213874  42.520  13.853   9.189
  796POPC   C1A13875  42.118  13.922   8.796
  796POPC   D2A13876  42.161  13.661   8.400
  796POPC   C3A13877  42.274  13.813   7.991
  796POPC   C4A13878  42.210  13.709   7.542
  796POPC   C1B13879  42.553  13.647   8.766
  796POPC   C2B13880  42.655  13.484   8.324
  796POPC   C3B13881  42.558  13.424   7.885
  796POPC   C4B13882  42.557  13.353   7.467
  797POPC   NC313883  26.762  10.758   9.550
  797POPC   PO413884  27.017  10.197   9.526
  797POPC   GL113885  27.060  10.516   9.179
  797POPC   GL213886  26.748  10.624   9.035
  797POPC   C1A13887  27.135  10.487   8.708
  797POPC   D2A13888  27.008  10.228   8.313
  797POPC   C3A13889  26.954  10.378   7.849
  797POPC   C4A13890  26.933  10.639   7.451
  797POPC   C1B13891  26.626  10.402   8.634
  797POPC   C2B13892  26.530  10.392   8.173
  797POPC   C3B13893  26.487  10.606   7.770
  797POPC   C4B13894  26.544  10.957   7.525
  798POPC   NC313895  39.875  33.644   9.728
  798POPC   PO413896  40.157  34.232   9.713
  798POPC   GL113897  39.797  33.949   9.332
  798POPC   GL213898  39.866  33.565   9.221
  798POPC   C1A13899  39.828  33.894   8.828
  798POPC   D2A13900  39.642  34.190   8.523
  798POPC   C3A13901  39.856  34.188   8.122
  798POPC   C4A13902  40.110  34.109   7.786
  798POPC   C1B13903  39.730  33.404   8.791
  798POPC   C2B13904  40.018  33.399   8.462
  798POPC   C3B13905  40.081  33.696   8.126
  798POPC   C4B13906  39.990  33.610   7.717
  799POPC   NC313907  38.044   5.943   9.546
  799POPC   PO413908  37.464   5.547   9.622
  799POPC   GL113909  37.676   5.679   9.243
  799POPC   GL213910  37.991   5.525   9.257
  799POPC   C1A13911  37.696   6.053   8.929
  799POPC   D2A13912  37.512   6.128   8.513
  799POPC   C3A13913  37.705   6.004   8.126
  799POPC   C4A13914  37.513   6.114   7.708
  799POPC   C1B13915  38.070   5.719   8.887
  799POPC   C2B13916  37.817   5.661   8.537
  799POPC   C3B13917  37.906   5.528   8.130
  799POPC   C4B13918  37.769   5.682   7.733
  800POPC   NC313919  10.774  16.967   9.695
  800POPC   PO413920  11.437  16.774   9.911
  800POPC   GL113921  11.430  16.743   9.364
  800POPC   GL213922  11.078  16.858   9.270
  800POPC   C1A13923  11.302  16.592   8.897
  800POPC   D2A13924  11.198  16.762   8.456
  800POPC   C3A13925  11.004  16.522   8.136
  800POPC   C4A13926  11.257  16.631   7.798
  800POPC   C1B13927  10.912  16.899   8.836
  800POPC   C2B13928  10.802  17.145   8.508
  800POPC   C3B13929  10.885  17.037   8.102
  800POPC   C4B13930  11.020  17.098   7.685
  801POPC   NC313931  13.584  38.295   9.595
  801POPC   PO413932  13.362  38.945   9.423
  801POPC   GL113933  13.333  38.564   9.184
  801POPC   GL213934  13.354  38.180   9.167
  801POPC   C1A13935  13.566  38.596   8.816
  801POPC   D2A13936  13.722  38.769   8.443
  801POPC   C3A13937  13.789  38.486   8.110
  801POPC   C4A13938  13.739  38.506   7.662
  801POPC   C1B13939  13.553  38.077   8.777
  801POPC   C2B13940  13.719  38.008   8.353
  801POPC   C3B13941  13.686  38.027   7.898
  801POPC   C4B13942  13.564  38.054   7.454
  802POPC   NC313943  38.278  37.396   9.420
  802POPC   PO413944  38.624  36.788   9.439
  802POPC   GL113945  38.356  36.781   9.047
  802POPC   GL213946  38.159  37.083   8.989
  802POPC   C1A13947  38.413  36.860   8.601
  802POPC   D2A13948  38.756  36.669   8.366
  802POPC   C3A13949  38.802  36.873   7.971
  802POPC   C4A13950  38.672  36.643   7.645
  802POPC   C1B13951  37.905  37.114   8.585
  802POPC   C2B13952  38.016  37.142   8.128
  802POPC   C3B13953  38.298  36.980   7.788
  802POPC   C4B13954  38.171  37.013   7.311
  803POPC   NC313955   9.166   7.169   9.380
  803POPC   PO413956   8.718   7.631   9.405
  803POPC   GL113957   8.918   7.630   9.003
  803POPC   GL213958   8.932   7.338   8.974
  803POPC   C1A13959   9.056   7.710   8.585
  803POPC   D2A13960   9.223   7.541   8.234
  803POPC   C3A13961   8.934   7.334   8.080
  803POPC   C4A13962   8.662   7.490   7.774
  803POPC   C1B13963   9.014   7.202   8.598
  803POPC   C2B13964   9.336   7.075   8.386
  803POPC   C3B13965   9.455   7.070   8.005
  803POPC   C4B13966   9.408   7.195   7.650
  804POPC   NC313967  11.852  20.680   9.698
  804POPC   PO413968  12.145  20.227   9.315
  804POPC   GL113969  12.240  20.521   8.946
  804POPC   GL213970  12.494  20.818   8.976
  804POPC   C1A13971  12.093  20.398   8.553
  804POPC   D2A13972  11.768  20.319   8.269
  804POPC   C3A13973  11.860  20.509   7.891
  804POPC   C4A13974  11.778  20.783   7.583
  804POPC   C1B13975  12.576  20.713   8.570
  804POPC   C2B13976  12.333  20.652   8.197
  804POPC   C3B13977  12.228  20.840   7.845
  804POPC   C4B13978  12.463  21.011   7.550
  805POPC   NC313979  38.418  17.100   9.595
  805POPC   PO413980  38.465  17.767   9.364
  805POPC   GL113981  38.394  17.358   9.109
  805POPC   GL213982  38.015  17.233   9.116
  805POPC   C1A13983  38.665  17.231   8.715
  805POPC   D2A13984  38.674  17.247   8.242
  805POPC   C3A13985  38.556  17.610   7.969
  805POPC   C4A13986  38.611  17.746   7.540
  805POPC   C1B13987  38.195  16.984   8.792
  805POPC   C2B13988  38.213  17.207   8.444
  805POPC   C3B13989  38.201  17.203   8.021
  805POPC   C4B13990  38.217  17.391   7.631
  806POPC   NC313991  22.290   5.586   9.457
  806POPC   PO413992  22.227   6.218   9.217
  806POPC   GL113993  22.109   5.832   9.044
  806POPC   GL213994  22.448   5.779   9.007
  806POPC   C1A13995  22.121   5.675   8.620
  806POPC   D2A13996  22.361   5.936   8.344
  806POPC   C3A13997  22.080   6.093   8.040
  806POPC   C4A13998  21.768   5.881   7.770
  806POPC   C1B13999  22.651   5.608   8.639
  806POPC   C2B14000  22.467   5.403   8.291
  806POPC   C3B14001  22.173   5.559   8.008
  806POPC   C4B14002  22.280   5.815   7.691
  807POPC   NC314003  11.154   3.940   9.294
  807POPC   PO414004  11.490   3.375   9.603
  807POPC   GL114005  11.491   3.419   9.144
  807POPC   GL214006  11.592   3.779   9.092
  807POPC   C1A14007  11.259   3.288   8.733
  807POPC   D2A14008  10.988   3.163   8.357
  807POPC   C3A14009  11.158   3.275   7.940
  807POPC   C4A14010  11.049   3.402   7.522
  807POPC   C1B14011  11.434   3.758   8.699
  807POPC   C2B14012  11.451   3.514   8.322
  807POPC   C3B14013  11.432   3.694   7.924
  807POPC   C4B14014  11.607   3.443   7.587
  808POPC   NC314015  36.487  34.926   9.453
  808POPC   PO414016  36.466  35.618   9.395
  808POPC   GL114017  36.261  35.327   9.152
  808POPC   GL214018  35.939  35.513   9.092
  808POPC   C1A14019  36.355  35.038   8.817
  808POPC   D2A14020  36.253  35.164   8.414
  808POPC   C3A14021  36.379  34.986   8.043
  808POPC   C4A14022  36.424  35.313   7.803
  808POPC   C1B14023  35.903  35.242   8.773
  808POPC   C2B14024  35.812  35.404   8.339
  808POPC   C3B14025  35.887  35.073   8.046
  808POPC   C4B14026  36.007  35.092   7.639
  809POPC   NC314027  41.135  18.673   9.279
  809POPC   PO414028  40.741  18.241   9.617
  809POPC   GL114029  40.715  18.294   9.179
  809POPC   GL214030  40.661  18.622   9.084
  809POPC   C1A14031  40.463  18.282   8.789
  809POPC   D2A14032  40.587  18.490   8.401
  809POPC   C3A14033  40.572  18.285   8.015
  809POPC   C4A14034  40.796  18.051   7.749
  809POPC   C1B14035  40.962  18.422   8.731
  809POPC   C2B14036  41.263  18.382   8.398
  809POPC   C3B14037  41.124  18.366   7.960
  809POPC   C4B14038  40.803  18.639   7.731
  810POPC   NC314039  28.355  36.772   9.500
  810POPC   PO414040  28.653  37.318   9.326
  810POPC   GL114041  28.497  36.972   9.069
  810POPC   GL214042  28.701  36.685   9.014
  810POPC   C1A14043  28.321  36.773   8.682
  810POPC   D2A14044  28.136  36.946   8.341
  810POPC   C3A14045  28.278  36.757   8.001
  810POPC   C4A14046  28.099  36.778   7.589
  810POPC   C1B14047  28.778  36.998   8.665
  810POPC   C2B14048  28.701  36.881   8.294
  810POPC   C3B14049  28.712  37.026   7.931
  810POPC   C4B14050  28.600  36.771   7.612
  811POPC   NC314051  32.591  37.007   9.541
  811POPC   PO414052  32.041  36.692   9.879
  811POPC   GL114053  32.130  36.759   9.349
  811POPC   GL214054  32.281  37.092   9.164
  811POPC   C1A14055  32.126  36.771   8.835
  811POPC   D2A14056  32.324  36.928   8.428
  811POPC   C3A14057  32.317  36.768   7.989
  811POPC   C4A14058  32.010  36.706   7.682
  811POPC   C1B14059  32.648  37.006   8.838
  811POPC   C2B14060  32.815  37.022   8.382
  811POPC   C3B14061  32.646  37.150   7.978
  811POPC   C4B14062  32.199  37.273   7.832
  812POPC   NC314063  38.645  19.217   9.536
  812POPC   PO414064  38.218  18.732   9.448
  812POPC   GL114065  38.322  19.060   9.124
  812POPC   GL214066  38.228  19.421   9.189
  812POPC   C1A14067  38.520  18.992   8.676
  812POPC   D2A14068  38.820  18.872   8.388
  812POPC   C3A14069  38.649  18.715   8.012
  812POPC   C4A14070  38.327  18.921   7.777
  812POPC   C1B14071  38.539  19.449   8.852
  812POPC   C2B14072  38.666  19.456   8.436
  812POPC   C3B14073  38.603  19.276   8.055
  812POPC   C4B14074  38.795  19.116   7.701
  813POPC   NC314075  15.840  29.962   9.842
  813POPC   PO414076  16.204  30.252   9.353
  813POPC   GL114077  16.047  29.864   9.145
  813POPC   GL214078  15.735  29.707   9.312
  813POPC   C1A14079  16.086  29.757   8.684
  813POPC   D2A14080  16.207  29.943   8.276
  813POPC   C3A14081  16.026  29.818   7.864
  813POPC   C4A14082  16.225  29.986   7.489
  813POPC   C1B14083  15.620  29.689   8.860
  813POPC   C2B14084  15.622  29.802   8.387
  813POPC   C3B14085  15.464  29.645   7.965
  813POPC   C4B14086  15.594  29.620   7.506
  814POPC   NC314087  39.750  17.054   9.433
  814POPC   PO414088  40.163  17.630   9.351
  814POPC   GL114089  39.985  17.656   8.979
  814POPC   GL214090  39.826  17.331   8.996
  814POPC   C1A14091  40.241  17.666   8.630
  814POPC   D2A14092  40.282  17.347   8.323
  814POPC   C3A14093  40.092  17.394   7.924
  814POPC   C4A14094  40.118  17.581   7.509
  814POPC   C1B14095  39.791  17.396   8.547
  814POPC   C2B14096  39.905  17.741   8.271
  814POPC   C3B14097  39.814  17.817   7.860
  814POPC   C4B14098  39.753  18.053   7.493
  815POPC   NC314099  40.797  40.375   9.834
  815POPC   PO414100  40.688  40.969   9.542
  815POPC   GL114101  40.753  40.863   9.124
  815POPC   GL214102  40.469  40.654   9.148
  815POPC   C1A14103  41.034  40.854   8.756
  815POPC   D2A14104  40.885  40.792   8.361
  815POPC   C3A14105  41.145  40.754   8.023
  815POPC   C4A14106  40.951  40.897   7.603
  815POPC   C1B14107  40.664  40.500   8.764
  815POPC   C2B14108  40.491  40.475   8.347
  815POPC   C3B14109  40.584  40.684   7.949
  815POPC   C4B14110  40.591  40.539   7.540
  816POPC   NC314111   9.303   0.226   9.319
  816POPC   PO414112   8.850   0.701   9.505
  816POPC   GL114113   8.956   0.537   9.124
  816POPC   GL214114   8.751   0.266   9.175
  816POPC   C1A14115   9.180   0.446   8.729
  816POPC   D2A14116   9.235   0.612   8.305
  816POPC   C3A14117   8.986   0.455   7.919
  816POPC   C4A14118   9.112   0.154   7.608
  816POPC   C1B14119   8.638   0.385   8.750
  816POPC   C2B14120   8.844   0.282   8.389
  816POPC   C3B14121   8.891  44.991   8.084
  816POPC   C4B14122   8.590   0.123   7.759
  817POPC   NC314123  15.961  11.699   9.545
  817POPC   PO414124  15.785  12.326   9.438
  817POPC   GL114125  15.767  11.974   9.149
  817POPC   GL214126  16.103  11.817   9.079
  817POPC   C1A14127  15.729  11.820   8.731
  817POPC   D2A14128  16.040  11.799   8.421
  817POPC   C3A14129  15.838  11.954   8.069
  817POPC   C4A14130  15.935  12.288   7.820
  817POPC   C1B14131  16.091  12.173   8.798
  817POPC   C2B14132  16.159  12.316   8.360
  817POPC   C3B14133  16.369  12.045   8.076
  817POPC   C4B14134  16.224  11.780   7.772
  818POPC   NC314135  10.500  43.621   9.581
  818POPC   PO414136  10.223  44.159   9.283
  818POPC   GL114137  10.523  43.910   9.097
  818POPC   GL214138  10.841  43.734   9.190
  818POPC   C1A14139  10.578  43.969   8.692
  818POPC   D2A14140  10.381  44.247   8.443
  818POPC   C3A14141  10.426  44.026   8.066
  818POPC   C4A14142  10.294  43.675   7.791
  818POPC   C1B14143  10.855  43.562   8.766
  818POPC   C2B14144  10.820  43.690   8.290
  818POPC   C3B14145  10.858  43.770   7.810
  818POPC   C4B14146  10.956  43.606   7.363
  819POPC   NC314147  13.355  16.105   9.634
  819POPC   PO414148  13.863  15.564   9.471
  819POPC   GL114149  13.652  15.820   9.113
  819POPC   GL214150  13.347  16.043   9.128
  819POPC   C1A14151  13.584  16.008   8.656
  819POPC   D2A14152  13.801  16.112   8.241
  819POPC   C3A14153  13.594  15.865   7.899
  819POPC   C4A14154  13.163  15.761   7.931
  819POPC   C1B14155  13.329  16.410   8.853
  819POPC   C2B14156  13.459  16.540   8.417
  819POPC   C3B14157  13.359  16.288   8.077
  819POPC   C4B14158  13.248  16.185   7.675
  820POPC   NC314159  28.230  27.581   9.444
  820POPC   PO414160  28.831  27.310   9.620
  820POPC   GL114161  28.589  27.341   9.150
  820POPC   GL214162  28.391  27.720   8.997
  820POPC   C1A14163  28.479  27.328   8.707
  820POPC   D2A14164  28.207  27.231   8.394
  820POPC   C3A14165  28.388  27.379   8.008
  820POPC   C4A14166  28.504  27.434   7.564
  820POPC   C1B14167  28.634  27.918   8.721
  820POPC   C2B14168  28.747  27.745   8.349
  820POPC   C3B14169  28.683  27.790   7.931
  820POPC   C4B14170  28.249  27.817   7.799
  821POPC   NC314171  36.722  23.725   9.620
  821POPC   PO414172  37.445  23.757   9.619
  821POPC   GL114173  37.051  23.723   9.244
  821POPC   GL214174  36.668  23.927   9.170
  821POPC   C1A14175  36.943  23.694   8.811
  821POPC   D2A14176  36.863  23.615   8.390
  821POPC   C3A14177  37.225  23.601   8.136
  821POPC   C4A14178  37.209  23.657   7.703
  821POPC   C1B14179  36.772  24.210   8.821
  821POPC   C2B14180  36.970  24.181   8.406
  821POPC   C3B14181  36.883  23.987   8.019
  821POPC   C4B14182  36.719  23.789   7.670
  822POPC   NC314183  11.244  16.406   9.670
  822POPC   PO414184  11.208  15.788   9.434
  822POPC   GL114185  11.177  16.141   9.165
  822POPC   GL214186  11.521  16.243   9.195
  822POPC   C1A14187  11.217  16.093   8.707
  822POPC   D2A14188  11.403  15.956   8.299
  822POPC   C3A14189  11.171  16.064   7.934
  822POPC   C4A14190  10.969  15.842   7.572
  822POPC   C1B14191  11.688  16.284   8.742
  822POPC   C2B14192  11.588  16.443   8.322
  822POPC   C3B14193  11.634  16.296   7.878
  822POPC   C4B14194  11.351  16.213   7.478
  823POPC   NC314195  29.007  31.712   9.567
  823POPC   PO414196  28.997  32.301   9.430
  823POPC   GL114197  29.002  32.510   9.061
  823POPC   GL214198  29.370  32.491   8.956
  823POPC   C1A14199  28.958  32.549   8.645
  823POPC   D2A14200  28.950  32.404   8.248
  823POPC   C3A14201  29.287  32.519   7.985
  823POPC   C4A14202  29.286  32.511   7.521
  823POPC   C1B14203  29.204  32.103   8.712
  823POPC   C2B14204  29.260  31.971   8.265
  823POPC   C3B14205  29.333  32.061   7.816
  823POPC   C4B14206  29.558  32.107   7.375
  824POPC   NC314207  12.421  29.562   9.438
  824POPC   PO414208  12.144  28.939   9.473
  824POPC   GL114209  12.098  29.217   9.115
  824POPC   GL214210  11.776  29.402   9.009
  824POPC   C1A14211  11.976  28.999   8.753
  824POPC   D2A14212  12.187  28.996   8.378
  824POPC   C3A14213  12.010  29.051   7.985
  824POPC   C4A14214  12.188  29.357   7.707
  824POPC   C1B14215  12.037  29.492   8.659
  824POPC   C2B14216  12.054  29.517   8.214
  824POPC   C3B14217  11.742  29.494   7.890
  824POPC   C4B14218  11.742  29.615   7.458
  825POPC   NC314219  23.736   4.447   9.653
  825POPC   PO414220  24.033   3.928   9.444
  825POPC   GL114221  23.888   4.154   9.085
  825POPC   GL214222  23.626   4.358   9.161
  825POPC   C1A14223  24.055   4.158   8.667
  825POPC   D2A14224  23.867   3.886   8.350
  825POPC   C3A14225  23.809   4.102   7.962
  825POPC   C4A14226  24.132   4.282   7.771
  825POPC   C1B14227  23.648   4.547   8.767
  825POPC   C2B14228  23.631   4.344   8.406
  825POPC   C3B14229  23.354   4.338   8.098
  825POPC   C4B14230  23.322   4.734   7.870
  826POPC   NC314231  29.303  32.671   9.443
  826POPC   PO414232  29.725  33.281   9.519
  826POPC   GL114233  29.422  33.375   9.177
  826POPC   GL214234  29.201  33.070   9.144
  826POPC   C1A14235  29.436  33.238   8.748
  826POPC   D2A14236  29.415  32.855   8.550
  826POPC   C3A14237  29.302  32.982   8.168
  826POPC   C4A14238  29.249  32.973   7.741
  826POPC   C1B14239  28.963  33.041   8.766
  826POPC   C2B14240  28.755  32.944   8.395
  826POPC   C3B14241  28.823  32.907   7.994
  826POPC   C4B14242  28.808  33.223   7.660
  827POPC   NC314243  22.660  17.290   9.496
  827POPC   PO414244  23.175  17.735   9.639
  827POPC   GL114245  22.946  17.651   9.263
  827POPC   GL214246  23.002  17.970   9.164
  827POPC   C1A14247  22.856  17.484   8.839
  827POPC   D2A14248  23.085  17.297   8.437
  827POPC   C3A14249  22.885  17.196   8.034
  827POPC   C4A14250  22.716  17.309   7.620
  827POPC   C1B14251  23.151  17.918   8.770
  827POPC   C2B14252  22.967  17.778   8.431
  827POPC   C3B14253  22.860  17.843   8.039
  827POPC   C4B14254  23.029  17.759   7.655
  828POPC   NC314255   8.872  44.046   9.362
  828POPC   PO414256   9.433  43.549   9.344
  828POPC   GL114257   9.198  43.827   9.046
  828POPC   GL214258   9.244  44.178   9.017
  828POPC   C1A14259   8.874  43.666   8.721
  828POPC   D2A14260   8.663  43.537   8.329
  828POPC   C3A14261   8.913  43.568   7.960
  828POPC   C4A14262   8.978  43.900   7.706
  828POPC   C1B14263   8.903  44.160   8.682
  828POPC   C2B14264   9.028  43.951   8.302
  828POPC   C3B14265   9.321  44.136   8.029
  828POPC   C4B14266   9.226  44.326   7.661
  829POPC   NC314267  37.877  34.622   9.319
  829POPC   PO414268  37.259  34.205   9.462
  829POPC   GL114269  37.387  34.488   9.092
  829POPC   GL214270  37.711  34.524   8.877
  829POPC   C1A14271  37.285  34.741   8.731
  829POPC   D2A14272  37.533  34.760   8.391
  829POPC   C3A14273  37.521  34.614   8.001
  829POPC   C4A14274  37.622  34.271   7.771
  829POPC   C1B14275  37.516  34.289   8.624
  829POPC   C2B14276  37.702  34.120   8.321
  829POPC   C3B14277  38.010  34.266   8.092
  829POPC   C4B14278  38.112  34.094   7.709
  830POPC   NC314279  35.628  20.286   9.747
  830POPC   PO414280  35.062  20.679   9.562
  830POPC   GL114281  35.312  20.629   9.207
  830POPC   GL214282  35.177  20.276   9.163
  830POPC   C1A14283  35.378  20.640   8.758
  830POPC   D2A14284  35.607  20.768   8.409
  830POPC   C3A14285  35.337  20.772   8.048
  830POPC   C4A14286  35.445  20.778   7.612
  830POPC   C1B14287  34.978  20.291   8.761
  830POPC   C2B14288  34.955  20.508   8.344
  830POPC   C3B14289  35.044  20.349   7.935
  830POPC   C4B14290  35.231  20.332   7.516
  831POPC   NC314291  13.297  27.523   9.457
  831POPC   PO414292  13.913  27.741   9.342
  831POPC   GL114293  13.623  27.724   9.041
  831POPC   GL214294  13.597  27.391   9.044
  831POPC   C1A14295  13.669  27.641   8.602
  831POPC   D2A14296  13.834  27.404   8.271
  831POPC   C3A14297  13.761  27.706   7.933
  831POPC   C4A14298  13.408  27.956   7.839
  831POPC   C1B14299  13.225  27.431   8.777
  831POPC   C2B14300  13.242  27.439   8.334
  831POPC   C3B14301  13.450  27.283   7.953
  831POPC   C4B14302  13.885  27.224   7.785
  832POPC   NC314303   4.509  17.557   9.649
  832POPC   PO414304   4.098  17.186   9.426
  832POPC   GL114305   4.235  17.527   9.172
  832POPC   GL214306   4.573  17.684   9.143
  832POPC   C1A14307   4.053  17.762   8.837
  832POPC   D2A14308   4.196  17.893   8.433
  832POPC   C3A14309   3.977  17.708   8.082
  832POPC   C4A14310   4.119  17.407   7.808
  832POPC   C1B14311   4.517  17.551   8.679
  832POPC   C2B14312   4.480  17.517   8.205
  832POPC   C3B14313   4.546  17.162   7.915
  832POPC   C4B14314   4.586  17.075   7.451
  833POPC   NC314315  13.818  30.489   9.558
  833POPC   PO414316  13.662  29.786   9.631
  833POPC   GL114317  13.689  29.976   9.202
  833POPC   GL214318  13.971  30.189   9.174
  833POPC   C1A14319  13.502  30.114   8.800
  833POPC   D2A14320  13.289  30.009   8.426
  833POPC   C3A14321  13.519  29.894   8.115
  833POPC   C4A14322  13.594  30.024   7.711
  833POPC   C1B14323  14.014  29.937   8.784
  833POPC   C2B14324  13.950  29.717   8.389
  833POPC   C3B14325  13.982  29.784   7.936
  833POPC   C4B14326  13.929  29.739   7.475
  834POPC   NC314327  25.358  34.132   9.520
  834POPC   PO414328  25.155  33.447   9.674
  834POPC   GL114329  25.261  33.534   9.211
  834POPC   GL214330  25.478  33.818   9.143
  834POPC   C1A14331  25.270  33.551   8.741
  834POPC   D2A14332  25.485  33.636   8.336
  834POPC   C3A14333  25.298  33.702   7.936
  834POPC   C4A14334  25.444  33.732   7.505
  834POPC   C1B14335  25.646  33.949   8.748
  834POPC   C2B14336  25.814  34.040   8.337
  834POPC   C3B14337  25.631  34.091   7.930
  834POPC   C4B14338  25.385  34.255   7.586
  835POPC   NC314339   0.781  25.733  10.125
  835POPC   PO414340   0.343  26.031   9.726
  835POPC   GL114341   0.426  25.994   9.263
  835POPC   GL214342   0.160  25.794   9.134
  835POPC   C1A14343   0.473  26.108   8.801
  835POPC   D2A14344   0.297  26.385   8.452
  835POPC   C3A14345   0.445  26.268   8.014
  835POPC   C4A14346   0.585  25.956   7.696
  835POPC   C1B14347   0.141  25.624   8.743
  835POPC   C2B14348   0.404  25.548   8.406
  835POPC   C3B14349   0.269  25.776   8.061
  835POPC   C4B14350   0.137  25.648   7.659
  836POPC   NC314351   1.477  26.002   9.460
  836POPC   PO414352   1.021  25.497   9.756
  836POPC   GL114353   0.989  25.759   9.316
  836POPC   GL214354   1.236  25.663   9.086
  836POPC   C1A14355   0.985  26.050   8.864
  836POPC   D2A14356   0.836  26.293   8.425
  836POPC   C3A14357   1.032  26.294   7.963
  836POPC   C4A14358   1.425  26.098   7.771
  836POPC   C1B14359   1.340  25.710   8.644
  836POPC   C2B14360   1.270  25.897   8.233
  836POPC   C3B14361   1.040  25.789   7.828
  836POPC   C4B14362   0.987  25.801   7.358
  837POPC   NC314363  10.182   3.709   9.346
  837POPC   PO414364   9.716   3.282   9.554
  837POPC   GL114365   9.844   3.393   9.124
  837POPC   GL214366  10.195   3.270   9.082
  837POPC   C1A14367   9.688   3.623   8.738
  837POPC   D2A14368   9.447   3.683   8.342
  837POPC   C3A14369   9.571   3.485   7.952
  837POPC   C4A14370   9.592   3.526   7.505
  837POPC   C1B14371  10.184   3.532   8.704
  837POPC   C2B14372   9.999   3.550   8.265
  837POPC   C3B14373  10.051   3.611   7.790
  837POPC   C4B14374  10.102   3.383   7.364
  838POPC   NC314375  29.980  31.938   9.514
  838POPC   PO414376  29.816  32.574   9.442
  838POPC   GL114377  29.921  32.277   9.127
  838POPC   GL214378  30.273  32.178   9.150
  838POPC   C1A14379  29.737  32.124   8.762
  838POPC   D2A14380  29.553  32.367   8.438
  838POPC   C3A14381  29.740  32.192   8.084
  838POPC   C4A14382  29.951  32.341   7.736
  838POPC   C1B14383  30.221  32.338   8.707
  838POPC   C2B14384  30.237  32.281   8.239
  838POPC   C3B14385  30.440  32.386   7.847
  838POPC   C4B14386  30.364  32.367   7.346
  839POPC   NC314387  30.384  15.956   9.522
  839POPC   PO414388  29.693  15.884   9.416
  839POPC   GL114389  29.784  15.693   9.046
  839POPC   GL214390  30.151  15.705   9.109
  839POPC   C1A14391  29.700  15.821   8.621
  839POPC   D2A14392  29.929  16.063   8.296
  839POPC   C3A14393  29.761  16.159   7.882
  839POPC   C4A14394  30.000  16.335   7.476
  839POPC   C1B14395  30.161  15.592   8.671
  839POPC   C2B14396  30.298  15.701   8.229
  839POPC   C3B14397  30.021  15.746   7.856
  839POPC   C4B14398  30.095  15.838   7.408
  840POPC   NC314399  14.114  31.411   9.459
  840POPC   PO414400  14.801  31.399   9.523
  840POPC   GL114401  14.520  31.423   9.133
  840POPC   GL214402  14.154  31.569   9.001
  840POPC   C1A14403  14.472  31.302   8.714
  840POPC   D2A14404  14.317  31.513   8.362
  840POPC   C3A14405  14.535  31.353   8.062
  840POPC   C4A14406  14.631  31.464   7.699
  840POPC   C1B14407  14.086  31.821   8.685
  840POPC   C2B14408  14.027  31.960   8.264
  840POPC   C3B14409  14.145  31.719   7.904
  840POPC   C4B14410  13.986  31.617   7.515
  841POPC   NC314411  39.692  30.040   9.423
  841POPC   PO414412  40.136  29.629   9.434
  841POPC   GL114413  40.019  29.815   9.054
  841POPC   GL214414  40.089  30.168   9.081
  841POPC   C1A14415  39.986  29.760   8.602
  841POPC   D2A14416  39.764  29.569   8.257
  841POPC   C3A14417  39.918  29.768   7.928
  841POPC   C4A14418  40.197  29.670   7.615
  841POPC   C1B14419  39.891  30.271   8.691
  841POPC   C2B14420  39.864  30.162   8.262
  841POPC   C3B14421  40.089  30.250   7.890
  841POPC   C4B14422  40.188  30.162   7.459
  842POPC   NC314423  17.325  44.071   9.267
  842POPC   PO414424  17.643  43.606   9.544
  842POPC   GL114425  17.673  43.734   9.101
  842POPC   GL214426  17.344  43.726   8.912
  842POPC   C1A14427  17.646  44.077   8.716
  842POPC   D2A14428  17.327  43.987   8.377
  842POPC   C3A14429  17.524  44.124   8.000
  842POPC   C4A14430  17.435  44.095   7.577
  842POPC   C1B14431  17.715  43.597   8.613
  842POPC   C2B14432  17.523  43.515   8.252
  842POPC   C3B14433  17.462  43.633   7.866
  842POPC   C4B14434  17.803  43.694   7.688
  843POPC   NC314435  23.202  41.297   9.343
  843POPC   PO414436  22.683  41.710   9.419
  843POPC   GL114437  22.871  41.532   9.050
  843POPC   GL214438  23.200  41.708   9.034
  843POPC   C1A14439  22.714  41.542   8.623
  843POPC   D2A14440  22.534  41.782   8.288
  843POPC   C3A14441  22.799  41.692   7.928
  843POPC   C4A14442  22.963  41.290   7.762
  843POPC   C1B14443  23.221  41.538   8.660
  843POPC   C2B14444  23.172  41.262   8.340
  843POPC   C3B14445  23.300  41.536   8.036
  843POPC   C4B14446  23.309  41.891   7.769
  844POPC   NC314447  37.994  14.709   9.571
  844POPC   PO414448  38.093  14.075   9.334
  844POPC   GL114449  38.295  14.461   9.211
  844POPC   GL214450  38.683  14.494   9.255
  844POPC   C1A14451  38.385  14.466   8.793
  844POPC   D2A14452  38.609  14.385   8.440
  844POPC   C3A14453  38.499  14.615   8.097
  844POPC   C4A14454  38.379  14.483   7.710
  844POPC   C1B14455  38.906  14.463   8.874
  844POPC   C2B14456  39.067  14.585   8.480
  844POPC   C3B14457  38.995  14.432   8.066
  844POPC   C4B14458  38.893  14.699   7.754
  845POPC   NC314459  38.202  30.846   9.512
  845POPC   PO414460  38.851  30.853   9.676
  845POPC   GL114461  38.644  30.742   9.261
  845POPC   GL214462  38.389  30.461   9.244
  845POPC   C1A14463  38.471  30.911   8.866
  845POPC   D2A14464  38.658  31.044   8.466
  845POPC   C3A14465  38.607  30.844   8.081
  845POPC   C4A14466  38.621  30.425   7.900
  845POPC   C1B14467  38.159  30.515   8.862
  845POPC   C2B14468  38.134  30.765   8.474
  845POPC   C3B14469  38.145  30.613   8.041
  845POPC   C4B14470  38.191  30.364   7.631
  846POPC   NC314471  22.929  38.034   9.464
  846POPC   PO414472  23.257  38.694   9.286
  846POPC   GL114473  23.233  38.330   9.051
  846POPC   GL214474  22.870  38.207   8.988
  846POPC   C1A14475  23.210  38.328   8.602
  846POPC   D2A14476  22.771  38.376   8.473
  846POPC   C3A14477  22.673  38.401   8.031
  846POPC   C4A14478  23.044  38.339   7.787
  846POPC   C1B14479  22.915  37.907   8.636
  846POPC   C2B14480  22.998  38.006   8.187
  846POPC   C3B14481  23.075  37.861   7.736
  846POPC   C4B14482  23.099  38.074   7.295
  847POPC   NC314483  13.861  42.842   9.637
  847POPC   PO414484  13.204  42.913   9.474
  847POPC   GL114485  13.463  42.871   9.075
  847POPC   GL214486  13.792  42.990   9.106
  847POPC   C1A14487  13.679  42.911   8.619
  847POPC   D2A14488  13.893  43.008   8.255
  847POPC   C3A14489  13.574  43.128   8.022
  847POPC   C4A14490  13.458  42.953   7.671
  847POPC   C1B14491  13.879  43.346   8.803
  847POPC   C2B14492  14.030  43.471   8.385
  847POPC   C3B14493  13.941  43.455   7.950
  847POPC   C4B14494  13.916  43.163   7.617
  848POPC   NC314495  31.625   4.696   9.494
  848POPC   PO414496  30.980   5.059   9.400
  848POPC   GL114497  31.361   5.004   9.118
  848POPC   GL214498  31.426   4.688   9.033
  848POPC   C1A14499  31.571   5.153   8.702
  848POPC   D2A14500  31.518   5.275   8.231
  848POPC   C3A14501  31.899   5.191   7.930
  848POPC   C4A14502  31.927   5.254   7.454
  848POPC   C1B14503  31.646   4.637   8.661
  848POPC   C2B14504  31.668   4.783   8.255
  848POPC   C3B14505  31.336   4.833   7.960
  848POPC   C4B14506  31.438   5.171   7.709
  849POPC   NC314507  39.235  33.980   9.268
  849POPC   PO414508  39.212  34.507   9.609
  849POPC   GL114509  39.155  34.508   9.189
  849POPC   GL214510  38.832  34.494   9.171
  849POPC   C1A14511  39.162  34.402   8.758
  849POPC   D2A14512  39.317  34.618   8.408
  849POPC   C3A14513  39.374  34.353   8.118
  849POPC   C4A14514  39.526  34.356   7.724
  849POPC   C1B14515  38.720  34.687   8.763
  849POPC   C2B14516  38.834  34.517   8.334
  849POPC   C3B14517  38.959  34.518   7.892
  849POPC   C4B14518  39.144  34.722   7.557
  850POPC   NC314519  11.436  28.115   9.771
  850POPC   PO414520  11.288  28.682   9.421
  850POPC   GL114521  11.459  28.464   9.019
  850POPC   GL214522  11.134  28.567   8.890
  850POPC   C1A14523  11.421  28.124   8.698
  850POPC   D2A14524  11.128  27.937   8.392
  850POPC   C3A14525  11.197  28.098   7.985
  850POPC   C4A14526  11.194  28.460   7.749
  850POPC   C1B14527  11.078  28.460   8.456
  850POPC   C2B14528  11.443  28.535   8.192
  850POPC   C3B14529  11.626  28.725   7.811
  850POPC   C4B14530  11.690  28.640   7.344
  851POPC   NC314531   0.319  39.643   9.488
  851POPC   PO414532   0.551  40.296   9.603
  851POPC   GL114533   0.274  40.138   9.279
  851POPC   GL214534   0.557  40.128   9.094
  851POPC   C1A14535   0.100  40.189   8.863
  851POPC   D2A14536   0.336  40.055   8.511
  851POPC   C3A14537   0.221  40.179   8.101
  851POPC   C4A14538   0.111  39.895   7.805
  851POPC   C1B14539   0.762  39.890   8.794
  851POPC   C2B14540   0.857  40.041   8.375
  851POPC   C3B14541   0.703  40.094   7.976
  851POPC   C4B14542   0.751  39.763   7.714
  852POPC   NC314543  17.241  11.259   9.482
  852POPC   PO414544  17.838  11.691   9.552
  852POPC   GL114545  17.591  11.455   9.166
  852POPC   GL214546  17.439  11.125   9.049
  852POPC   C1A14547  17.375  11.459   8.695
  852POPC   D2A14548  17.369  11.585   8.240
  852POPC   C3A14549  17.267  11.286   7.894
  852POPC   C4A14550  16.918  10.985   7.863
  852POPC   C1B14551  17.649  11.011   8.695
  852POPC   C2B14552  17.765  11.228   8.341
  852POPC   C3B14553  17.993  11.344   7.987
  852POPC   C4B14554  17.730  11.388   7.669
  853POPC   NC314555  22.810  38.820   9.290
  853POPC   PO414556  22.744  39.467   9.479
  853POPC   GL114557  23.007  39.352   9.137
  853POPC   GL214558  23.329  39.155   9.083
  853POPC   C1A14559  22.832  39.228   8.774
  853POPC   D2A14560  22.725  39.027   8.422
  853POPC   C3A14561  22.961  39.216   8.117
  853POPC   C4A14562  22.943  39.377   7.696
  853POPC   C1B14563  23.206  38.896   8.669
  853POPC   C2B14564  23.086  38.707   8.242
  853POPC   C3B14565  22.983  38.826   7.813
  853POPC   C4B14566  23.327  39.007   7.627
  854POPC   NC314567  34.592  32.597   9.455
  854POPC   PO414568  34.353  31.994   9.671
  854POPC   GL114569  34.494  32.101   9.273
  854POPC   GL214570  34.216  32.338   9.186
  854POPC   C1A14571  34.722  32.232   8.891
  854POPC   D2A14572  34.726  32.451   8.465
  854POPC   C3A14573  34.637  32.243   8.064
  854POPC   C4A14574  34.654  32.319   7.627
  854POPC   C1B14575  34.336  32.567   8.794
  854POPC   C2B14576  34.219  32.591   8.339
  854POPC   C3B14577  34.223  32.570   7.879
  854POPC   C4B14578  34.169  32.175   7.675
  855POPC   NC314579  10.237  15.132   9.483
  855POPC   PO414580  10.891  14.927   9.416
  855POPC   GL114581  10.671  15.240   9.128
  855POPC   GL214582  10.298  15.269   9.011
  855POPC   C1A14583  10.693  15.077   8.701
  855POPC   D2A14584  10.876  14.910   8.330
  855POPC   C3A14585  10.738  15.044   7.911
  855POPC   C4A14586  10.659  15.464   7.764
  855POPC   C1B14587  10.375  15.468   8.619
  855POPC   C2B14588  10.402  15.240   8.233
  855POPC   C3B14589  10.240  15.184   7.821
  855POPC   C4B14590  10.139  14.902   7.518
  856POPC   NC314591  33.285  11.110   9.498
  856POPC   PO414592  32.910  11.675   9.706
  856POPC   GL114593  33.164  11.535   9.290
  856POPC   GL214594  32.910  11.284   9.152
  856POPC   C1A14595  33.239  11.538   8.849
  856POPC   D2A14596  33.018  11.266   8.582
  856POPC   C3A14597  33.073  11.411   8.185
  856POPC   C4A14598  33.216  11.221   7.836
  856POPC   C1B14599  32.658  10.991   8.894
  856POPC   C2B14600  32.552  10.930   8.470
  856POPC   C3B14601  32.789  10.980   8.116
  856POPC   C4B14602  32.715  10.971   7.698
  857POPC   NC314603  10.204  23.360   9.741
  857POPC   PO414604  10.383  23.949   9.510
  857POPC   GL114605  10.550  23.762   9.156
  857POPC   GL214606  10.705  23.456   9.246
  857POPC   C1A14607  10.710  23.691   8.759
  857POPC   D2A14608  10.733  23.426   8.438
  857POPC   C3A14609  10.595  23.623   8.068
  857POPC   C4A14610  10.349  23.715   7.723
  857POPC   C1B14611  10.385  23.319   8.924
  857POPC   C2B14612  10.241  23.338   8.474
  857POPC   C3B14613  10.073  23.450   8.060
  857POPC   C4B14614   9.860  23.484   7.631
  858POPC   NC314615  38.731  39.984   9.532
  858POPC   PO414616  38.173  40.172   9.412
  858POPC   GL114617  38.411  39.998   9.130
  858POPC   GL214618  38.647  40.247   9.072
  858POPC   C1A14619  38.397  39.867   8.742
  858POPC   D2A14620  38.632  39.765   8.374
  858POPC   C3A14621  38.473  39.795   7.958
  858POPC   C4A14622  38.495  39.981   7.529
  858POPC   C1B14623  38.823  40.342   8.665
  858POPC   C2B14624  38.886  40.378   8.223
  858POPC   C3B14625  38.751  40.273   7.848
  858POPC   C4B14626  38.800  40.370   7.368
  859POPC   NC314627  31.739  11.064   9.392
  859POPC   PO414628  31.118  11.354   9.481
  859POPC   GL114629  31.373  11.358   9.094
  859POPC   GL214630  31.323  11.022   9.080
  859POPC   C1A14631  31.628  11.224   8.691
  859POPC   D2A14632  31.667  11.330   8.226
  859POPC   C3A14633  31.725  11.359   7.767
  859POPC   C4A14634  31.734  11.042   7.457
  859POPC   C1B14635  31.061  11.036   8.733
  859POPC   C2B14636  31.158  11.295   8.414
  859POPC   C3B14637  31.245  11.315   7.958
  859POPC   C4B14638  31.012  11.161   7.601
  860POPC   NC314639  20.592   1.590   9.434
  860POPC   PO414640  20.450   1.057   9.721
  860POPC   GL114641  20.551   1.123   9.241
  860POPC   GL214642  20.305   1.347   9.094
  860POPC   C1A14643  20.759   1.302   8.867
  860POPC   D2A14644  20.590   1.334   8.449
  860POPC   C3A14645  20.885   1.266   8.102
  860POPC   C4A14646  20.792   1.276   7.673
  860POPC   C1B14647  20.116   1.424   8.712
  860POPC   C2B14648  20.139   1.514   8.269
  860POPC   C3B14649  20.362   1.271   7.952
  860POPC   C4B14650  20.207   1.075   7.572
  861POPC   NC314651  12.392   2.481   9.358
  861POPC   PO414652  12.279   1.862   9.645
  861POPC   GL114653  12.071   1.746   9.257
  861POPC   GL214654  11.965   2.099   9.188
  861POPC   C1A14655  12.153   1.729   8.793
  861POPC   D2A14656  12.003   1.898   8.386
  861POPC   C3A14657  12.045   1.691   7.987
  861POPC   C4A14658  12.365   1.804   7.746
  861POPC   C1B14659  11.745   2.054   8.802
  861POPC   C2B14660  11.475   2.040   8.457
  861POPC   C3B14661  11.636   2.051   8.032
  861POPC   C4B14662  11.952   2.144   7.723
  862POPC   NC314663   9.295   6.252   9.563
  862POPC   PO414664   9.969   6.389   9.485
  862POPC   GL114665   9.808   6.644   9.142
  862POPC   GL214666   9.488   6.734   9.268
  862POPC   C1A14667   9.622   6.805   8.746
  862POPC   D2A14668   9.776   6.839   8.345
  862POPC   C3A14669   9.847   6.571   8.013
  862POPC   C4A14670   9.712   6.776   7.638
  862POPC   C1B14671   9.400   6.408   8.936
  862POPC   C2B14672   9.503   6.399   8.468
  862POPC   C3B14673   9.352   6.583   8.089
  862POPC   C4B14674   9.403   6.369   7.723
  863POPC   NC314675  39.680  19.726   9.509
  863POPC   PO414676  40.117  20.209   9.471
  863POPC   GL114677  39.920  19.998   9.149
  863POPC   GL214678  40.003  19.631   9.127
  863POPC   C1A14679  39.828  20.007   8.730
  863POPC   D2A14680  39.826  19.799   8.345
  863POPC   C3A14681  39.990  20.010   8.006
  863POPC   C4A14682  39.857  19.876   7.609
  863POPC   C1B14683  40.045  19.511   8.713
  863POPC   C2B14684  40.141  19.370   8.287
  863POPC   C3B14685  40.164  19.540   7.871
  863POPC   C4B14686  40.263  19.456   7.436
  864POPC   NC314687  23.960  22.615   9.424
  864POPC   PO414688  23.684  23.162   9.655
  864POPC   GL114689  23.679  22.994   9.211
  864POPC   GL214690  23.384  23.128   9.080
  864POPC   C1A14691  23.691  22.789   8.790
  864POPC   D2A14692  23.908  22.762   8.389
  864POPC   C3A14693  23.814  23.108   8.099
  864POPC   C4A14694  23.706  22.844   7.844
  864POPC   C1B14695  23.213  23.022   8.681
  864POPC   C2B14696  23.352  22.921   8.273
  864POPC   C3B14697  23.296  23.135   7.901
  864POPC   C4B14698  23.604  23.305   7.606
  865POPC   NC314699  34.474  34.228   9.861
  865POPC   PO414700  34.594  33.720   9.471
  865POPC   GL114701  34.653  33.507   9.108
  865POPC   GL214702  34.632  33.829   8.969
  865POPC   C1A14703  34.824  33.417   8.680
  865POPC   D2A14704  34.886  33.747   8.355
  865POPC   C3A14705  34.850  33.646   7.910
  865POPC   C4A14706  34.680  33.793   7.502
  865POPC   C1B14707  34.389  33.875   8.630
  865POPC   C2B14708  34.405  33.964   8.213
  865POPC   C3B14709  34.223  33.889   7.838
  865POPC   C4B14710  34.219  34.150   7.489
  866POPC   NC314711  27.806   3.303   9.475
  866POPC   PO414712  27.414   3.890   9.585
  866POPC   GL114713  27.482   3.672   9.192
  866POPC   GL214714  27.347   3.354   9.173
  866POPC   C1A14715  27.712   3.698   8.782
  866POPC   D2A14716  27.670   3.919   8.384
  866POPC   C3A14717  27.830   3.757   8.023
  866POPC   C4A14718  27.606   3.609   7.705
  866POPC   C1B14719  27.244   3.485   8.757
  866POPC   C2B14720  27.505   3.433   8.365
  866POPC   C3B14721  27.673   3.186   7.972
  866POPC   C4B14722  27.580   3.191   7.455
  867POPC   NC314723  34.672  26.273   9.473
  867POPC   PO414724  34.587  25.620   9.610
  867POPC   GL114725  34.801  25.804   9.257
  867POPC   GL214726  34.468  25.849   9.135
  867POPC   C1A14727  34.841  26.057   8.862
  867POPC   D2A14728  34.721  26.326   8.543
  867POPC   C3A14729  34.777  26.243   8.100
  867POPC   C4A14730  34.583  26.299   7.711
  867POPC   C1B14731  34.335  26.010   8.709
  867POPC   C2B14732  34.439  25.892   8.281
  867POPC   C3B14733  34.209  26.027   7.896
  867POPC   C4B14734  34.233  26.002   7.462
  868POPC   NC314735  23.230  20.333   9.418
  868POPC   PO414736  22.778  20.795   9.468
  868POPC   GL114737  22.883  20.575   9.099
  868POPC   GL214738  23.200  20.732   9.040
  868POPC   C1A14739  22.774  20.459   8.684
  868POPC   D2A14740  22.980  20.506   8.283
  868POPC   C3A14741  22.681  20.625   7.958
  868POPC   C4A14742  22.604  20.944   7.650
  868POPC   C1B14743  23.296  20.407   8.749
  868POPC   C2B14744  23.480  20.343   8.341
  868POPC   C3B14745  23.384  20.451   7.931
  868POPC   C4B14746  23.151  20.800   7.851
  869POPC   NC314747   8.283   7.619   9.529
  869POPC   PO414748   8.109   7.013   9.753
  869POPC   GL114749   8.111   7.220   9.252
  869POPC   GL214750   8.432   7.385   9.084
  869POPC   C1A14751   8.079   7.430   8.765
  869POPC   D2A14752   8.291   7.473   8.339
  869POPC   C3A14753   8.107   7.581   7.986
  869POPC   C4A14754   8.103   7.279   7.705
  869POPC   C1B14755   8.533   7.710   8.700
  869POPC   C2B14756   8.385   7.966   8.304
  869POPC   C3B14757   8.420   7.934   7.822
  869POPC   C4B14758   8.302   7.682   7.456
  870POPC   NC314759   2.466  37.065   9.886
  870POPC   PO414760   2.877  36.924   9.367
  870POPC   GL114761   2.792  37.054   8.987
  870POPC   GL214762   2.997  37.329   8.968
  870POPC   C1A14763   2.613  36.873   8.622
  870POPC   D2A14764   2.272  36.849   8.356
  870POPC   C3A14765   2.450  36.561   8.104
  870POPC   C4A14766   2.559  36.670   7.698
  870POPC   C1B14767   2.844  37.328   8.559
  870POPC   C2B14768   2.591  37.249   8.223
  870POPC   C3B14769   2.771  37.194   7.843
  870POPC   C4B14770   3.227  37.267   7.907
  871POPC   NC314771  12.491   9.773   9.571
  871POPC   PO414772  13.131   9.467   9.547
  871POPC   GL114773  12.930   9.767   9.247
  871POPC   GL214774  12.647   9.673   9.097
  871POPC   C1A14775  13.053   9.900   8.826
  871POPC   D2A14776  13.089   9.897   8.380
  871POPC   C3A14777  12.980   9.514   8.126
  871POPC   C4A14778  13.125   9.433   7.712
  871POPC   C1B14779  12.567   9.934   8.736
  871POPC   C2B14780  12.583   9.843   8.320
  871POPC   C3B14781  12.775   9.933   7.967
  871POPC   C4B14782  12.757   9.753   7.600
  872POPC   NC314783   4.196  10.632   9.702
  872POPC   PO414784   4.541  10.065   9.664
  872POPC   GL114785   4.474  10.312   9.244
  872POPC   GL214786   4.188  10.459   9.147
  872POPC   C1A14787   4.632  10.427   8.835
  872POPC   D2A14788   4.477  10.582   8.432
  872POPC   C3A14789   4.564  10.500   8.030
  872POPC   C4A14790   4.254  10.430   7.742
  872POPC   C1B14791   4.235  10.806   8.820
  872POPC   C2B14792   4.136  10.948   8.358
  872POPC   C3B14793   4.251  10.913   7.884
  872POPC   C4B14794   4.152  10.794   7.400
  873POPC   NC314795  34.729  20.331   9.536
  873POPC   PO414796  34.313  20.752   9.225
  873POPC   GL114797  34.561  20.512   9.020
  873POPC   GL214798  34.813  20.630   9.129
  873POPC   C1A14799  34.510  20.487   8.612
  873POPC   D2A14800  34.527  20.837   8.363
  873POPC   C3A14801  34.547  20.653   7.983
  873POPC   C4A14802  34.424  20.710   7.557
  873POPC   C1B14803  34.895  20.818   8.759
  873POPC   C2B14804  35.087  21.004   8.454
  873POPC   C3B14805  34.903  21.038   8.058
  873POPC   C4B14806  34.930  20.772   7.676
  874POPC   NC314807  34.436  38.551   9.587
  874POPC   PO414808  34.742  37.969   9.748
  874POPC   GL114809  34.679  38.169   9.292
  874POPC   GL214810  34.548  38.512   9.108
  874POPC   C1A14811  34.461  38.070   8.895
  874POPC   D2A14812  34.380  38.039   8.451
  874POPC   C3A14813  34.307  38.390   8.178
  874POPC   C4A14814  34.319  38.291   7.747
  874POPC   C1B14815  34.814  38.402   8.766
  874POPC   C2B14816  34.816  38.392   8.336
  874POPC   C3B14817  34.775  38.568   7.929
  874POPC   C4B14818  34.625  38.757   7.568
  875POPC   NC314819  27.870  32.183   9.629
  875POPC   PO414820  27.201  32.445   9.604
  875POPC   GL114821  27.592  32.419   9.280
  875POPC   GL214822  27.742  32.087   9.150
  875POPC   C1A14823  27.775  32.473   8.839
  875POPC   D2A14824  27.514  32.391   8.479
  875POPC   C3A14825  27.797  32.240   8.168
  875POPC   C4A14826  27.797  32.411   7.765
  875POPC   C1B14827  27.651  31.956   8.721
  875POPC   C2B14828  27.711  31.744   8.323
  875POPC   C3B14829  27.679  31.828   7.872
  875POPC   C4B14830  28.032  31.962   7.666
  876POPC   NC314831  23.659   3.620   9.531
  876POPC   PO414832  24.252   3.198   9.550
  876POPC   GL114833  23.876   3.303   9.195
  876POPC   GL214834  23.468   3.389   9.115
  876POPC   C1A14835  23.783   3.402   8.733
  876POPC   D2A14836  23.598   3.431   8.324
  876POPC   C3A14837  23.810   3.563   7.930
  876POPC   C4A14838  23.956   3.341   7.568
  876POPC   C1B14839  23.491   3.805   8.892
  876POPC   C2B14840  23.365   3.911   8.474
  876POPC   C3B14841  23.396   3.819   8.062
  876POPC   C4B14842  23.355   4.039   7.698
  877POPC   NC314843  35.548   1.334   9.492
  877POPC   PO414844  34.922   1.077   9.572
  877POPC   GL114845  35.145   1.064   9.176
  877POPC   GL214846  35.432   1.261   9.026
  877POPC   C1A14847  35.197   0.945   8.741
  877POPC   D2A14848  35.400   1.258   8.497
  877POPC   C3A14849  35.577   1.238   8.100
  877POPC   C4A14850  35.465   1.101   7.732
  877POPC   C1B14851  35.646   1.584   8.825
  877POPC   C2B14852  35.564   1.735   8.429
  877POPC   C3B14853  35.767   1.719   8.071
  877POPC   C4B14854  35.657   1.576   7.694
  878POPC   NC314855   9.492  43.982   9.472
  878POPC   PO414856  10.088  43.807   9.670
  878POPC   GL114857   9.919  43.803   9.149
  878POPC   GL214858   9.764  44.120   9.073
  878POPC   C1A14859  10.068  43.910   8.708
  878POPC   D2A14860  10.078  43.719   8.309
  878POPC   C3A14861   9.879  43.913   7.951
  878POPC   C4A14862  10.007  44.002   7.504
  878POPC   C1B14863   9.573  43.897   8.745
  878POPC   C2B14864   9.546  43.798   8.357
  878POPC   C3B14865   9.442  43.646   7.980
  878POPC   C4B14866   9.477  43.888   7.595
  879POPC   NC314867   0.294  29.317   9.633
  879POPC   PO414868   0.771  29.584   9.243
  879POPC   GL114869   0.616  29.196   9.096
  879POPC   GL214870   0.268  29.161   9.146
  879POPC   C1A14871   0.733  29.142   8.672
  879POPC   D2A14872   0.730  28.907   8.302
  879POPC   C3A14873   0.878  28.937   7.908
  879POPC   C4A14874   0.664  29.184   7.615
  879POPC   C1B14875   0.198  28.938   8.791
  879POPC   C2B14876   0.269  29.102   8.416
  879POPC   C3B14877   0.349  29.109   8.018
  879POPC   C4B14878   0.246  29.513   7.883
  880POPC   NC314879  40.069   5.737   9.868
  880POPC   PO414880  39.608   6.020   9.484
  880POPC   GL114881  39.941   5.804   9.232
  880POPC   GL214882  39.705   5.838   8.989
  880POPC   C1A14883  40.118   5.623   8.847
  880POPC   D2A14884  39.832   5.526   8.500
  880POPC   C3A14885  39.880   5.661   8.061
  880POPC   C4A14886  40.281   5.650   7.865
  880POPC   C1B14887  39.592   6.198   8.775
  880POPC   C2B14888  39.401   6.198   8.343
  880POPC   C3B14889  39.508   5.998   7.930
  880POPC   C4B14890  39.601   5.985   7.451
  881POPC   NC314891   4.988   7.833   9.505
  881POPC   PO414892   5.317   7.242   9.643
  881POPC   GL114893   5.199   7.430   9.247
  881POPC   GL214894   4.840   7.432   9.208
  881POPC   C1A14895   5.143   7.299   8.813
  881POPC   D2A14896   5.109   7.533   8.406
  881POPC   C3A14897   5.139   7.237   8.089
  881POPC   C4A14898   4.949   7.195   7.718
  881POPC   C1B14899   4.735   7.600   8.790
  881POPC   C2B14900   4.604   7.722   8.356
  881POPC   C3B14901   4.647   7.561   7.930
  881POPC   C4B14902   4.774   7.672   7.486
  882POPC   NC314903   7.026  32.206   9.529
  882POPC   PO414904   6.376  32.377   9.470
  882POPC   GL114905   6.582  32.026   9.216
  882POPC   GL214906   6.953  31.957   9.107
  882POPC   C1A14907   6.569  31.861   8.792
  882POPC   D2A14908   6.499  32.059   8.417
  882POPC   C3A14909   6.458  32.160   7.995
  882POPC   C4A14910   6.774  32.122   7.637
  882POPC   C1B14911   6.817  32.353   8.884
  882POPC   C2B14912   6.724  32.516   8.462
  882POPC   C3B14913   6.865  32.414   8.059
  882POPC   C4B14914   7.019  32.580   7.721
  883POPC   NC314915   1.577  43.279   9.522
  883POPC   PO414916   0.963  43.116   9.625
  883POPC   GL114917   1.020  43.111   9.174
  883POPC   GL214918   1.302  43.372   9.100
  883POPC   C1A14919   1.104  43.064   8.719
  883POPC   D2A14920   1.149  43.318   8.334
  883POPC   C3A14921   1.046  43.076   7.961
  883POPC   C4A14922   1.183  42.773   7.634
  883POPC   C1B14923   1.555  43.286   8.721
  883POPC   C2B14924   1.596  43.010   8.366
  883POPC   C3B14925   1.555  43.013   7.914
  883POPC   C4B14926   1.338  43.237   7.538
  884POPC   NC314927  10.063   1.107   9.556
  884POPC   PO414928   9.510   1.428   9.340
  884POPC   GL114929   9.777   1.162   9.113
  884POPC   GL214930  10.053   1.363   9.067
  884POPC   C1A14931   9.865   1.128   8.658
  884POPC   D2A14932   9.905   0.873   8.290
  884POPC   C3A14933   9.555   0.903   8.038
  884POPC   C4A14934   9.495   1.152   7.683
  884POPC   C1B14935  10.182   1.542   8.639
  884POPC   C2B14936   9.946   1.407   8.226
  884POPC   C3B14937   9.988   1.237   7.780
  884POPC   C4B14938   9.907   1.353   7.319
  885POPC   NC314939  14.764   8.746   9.768
  885POPC   PO414940  14.913   9.263   9.708
  885POPC   GL114941  14.768   9.158   9.264
  885POPC   GL214942  14.654   9.426   9.032
  885POPC   C1A14943  14.644   8.913   8.863
  885POPC   D2A14944  14.558   8.802   8.389
  885POPC   C3A14945  14.422   8.839   7.926
  885POPC   C4A14946  14.392   8.924   7.455
  885POPC   C1B14947  14.645   9.322   8.566
  885POPC   C2B14948  14.357   9.265   8.209
  885POPC   C3B14949  14.484   9.323   7.773
  885POPC   C4B14950  14.913   9.337   7.602
  886POPC   NC314951  14.591  41.931   9.480
  886POPC   PO414952  14.115  41.463   9.489
  886POPC   GL114953  14.304  41.558   9.110
  886POPC   GL214954  14.650  41.601   9.100
  886POPC   C1A14955  14.360  41.457   8.693
  886POPC   D2A14956  14.513  41.631   8.309
  886POPC   C3A14957  14.269  41.566   7.960
  886POPC   C4A14958  13.945  41.251   7.849
  886POPC   C1B14959  14.604  41.913   8.761
  886POPC   C2B14960  14.736  42.090   8.351
  886POPC   C3B14961  14.664  41.955   7.928
  886POPC   C4B14962  14.658  41.634   7.640
  887POPC   NC314963  34.054  20.498   9.512
  887POPC   PO414964  33.429  20.257   9.420
  887POPC   GL114965  33.654  20.474   9.143
  887POPC   GL214966  33.782  20.778   9.194
  887POPC   C1A14967  33.826  20.465   8.739
  887POPC   D2A14968  33.664  20.698   8.384
  887POPC   C3A14969  33.749  20.454   8.020
  887POPC   C4A14970  33.641  20.492   7.635
  887POPC   C1B14971  33.904  20.981   8.787
  887POPC   C2B14972  34.043  21.092   8.415
  887POPC   C3B14973  34.057  20.840   8.080
  887POPC   C4B14974  33.959  20.913   7.668
  888POPC   NC314975  20.847  44.087   9.540
  888POPC   PO414976  20.490  43.591   9.350
  888POPC   GL114977  20.405  43.944   9.092
  888POPC   GL214978  20.748  43.937   9.018
  888POPC   C1A14979  20.334  43.784   8.702
  888POPC   D2A14980  20.644  43.644   8.437
  888POPC   C3A14981  20.498  43.693   8.052
  888POPC   C4A14982  20.602  43.665   7.638
  888POPC   C1B14983  20.610  44.202   8.683
  888POPC   C2B14984  20.402  44.141   8.276
  888POPC   C3B14985  20.375  44.116   7.815
  888POPC   C4B14986  20.685  44.166   7.445
  889POPC   NC314987   8.134  21.107   9.757
  889POPC   PO414988   7.857  21.623   9.408
  889POPC   GL114989   8.239  21.381   9.228
  889POPC   GL214990   8.013  21.262   8.991
  889POPC   C1A14991   8.455  21.183   8.821
  889POPC   D2A14992   8.266  21.225   8.429
  889POPC   C3A14993   8.443  21.291   8.037
  889POPC   C4A14994   8.628  21.582   7.800
  889POPC   C1B14995   7.869  20.997   8.663
  889POPC   C2B14996   7.896  20.971   8.211
  889POPC   C3B14997   7.982  21.225   7.788
  889POPC   C4B14998   7.939  21.104   7.326
  890POPC   NC314999  25.493  40.834   9.559
  890POPC   PO415000  24.825  40.936   9.649
  890POPC   GL115001  24.913  40.750   9.174
  890POPC   GL215002  25.263  40.609   9.154
  890POPC   C1A15003  25.018  40.534   8.715
  890POPC   D2A15004  25.198  40.501   8.263
  890POPC   C3A15005  24.992  40.651   7.848
  890POPC   C4A15006  25.176  40.558   7.408
  890POPC   C1B15007  25.412  40.845   8.771
  890POPC   C2B15008  25.210  40.991   8.417
  890POPC   C3B15009  25.280  41.038   8.002
  890POPC   C4B15010  25.517  41.315   7.733
  891POPC   NC315011  16.705  21.816   9.781
  891POPC   PO415012  16.959  22.237   9.346
  891POPC   GL115013  16.835  22.180   8.963
  891POPC   GL215014  16.874  21.858   8.794
  891POPC   C1A15015  16.828  22.342   8.588
  891POPC   D2A15016  16.634  22.247   8.262
  891POPC   C3A15017  16.913  22.272   7.943
  891POPC   C4A15018  16.643  22.379   7.639
  891POPC   C1B15019  16.460  21.880   8.611
  891POPC   C2B15020  16.258  21.811   8.219
  891POPC   C3B15021  16.492  21.951   7.866
  891POPC   C4B15022  16.897  21.832   7.653
  892POPC   NC315023  31.192  29.312   9.467
  892POPC   PO415024  31.821  29.018   9.545
  892POPC   GL115025  31.635  29.173   9.183
  892POPC   GL215026  31.727  29.497   9.162
  892POPC   C1A15027  31.408  29.342   8.804
  892POPC   D2A15028  31.303  29.473   8.379
  892POPC   C3A15029  31.257  29.112   8.133
  892POPC   C4A15030  31.327  28.964   7.700
  892POPC   C1B15031  31.923  29.310   8.764
  892POPC   C2B15032  31.744  29.190   8.368
  892POPC   C3B15033  31.684  29.306   7.933
  892POPC   C4B15034  31.749  29.199   7.509
  893POPC   NC315035  13.698  11.639   9.264
  893POPC   PO415036  13.326  11.087   9.453
  893POPC   GL115037  13.551  11.150   9.094
  893POPC   GL215038  13.906  11.055   9.103
  893POPC   C1A15039  13.634  11.283   8.678
  893POPC   D2A15040  13.690  11.032   8.330
  893POPC   C3A15041  13.400  11.179   8.027
  893POPC   C4A15042  13.479  11.525   7.748
  893POPC   C1B15043  14.125  11.326   8.800
  893POPC   C2B15044  14.025  11.531   8.380
  893POPC   C3B15045  13.932  11.341   7.966
  893POPC   C4B15046  13.956  11.417   7.518
  894POPC   NC315047   6.367  40.292   9.538
  894POPC   PO415048   5.784  39.852   9.537
  894POPC   GL115049   5.886  40.229   9.293
  894POPC   GL215050   5.608  40.184   9.120
  894POPC   C1A15051   6.018  40.351   8.868
  894POPC   D2A15052   6.213  40.109   8.539
  894POPC   C3A15053   6.141  40.139   8.103
  894POPC   C4A15054   5.990  39.931   7.715
  894POPC   C1B15055   5.766  39.917   8.794
  894POPC   C2B15056   5.706  40.073   8.378
  894POPC   C3B15057   5.573  39.961   7.976
  894POPC   C4B15058   5.357  39.744   7.609
  895POPC   NC315059   8.674  38.611   9.532
  895POPC   PO415060   9.178  38.126   9.497
  895POPC   GL115061   9.027  38.346   9.126
  895POPC   GL215062   9.026  38.720   9.183
  895POPC   C1A15063   8.718  38.183   8.822
  895POPC   D2A15064   8.521  38.186   8.426
  895POPC   C3A15065   8.805  38.362   8.203
  895POPC   C4A15066   8.852  38.435   7.801
  895POPC   C1B15067   8.855  38.918   8.818
  895POPC   C2B15068   8.993  38.783   8.437
  895POPC   C3B15069   8.886  38.895   8.027
  895POPC   C4B15070   9.146  38.825   7.653
  896POPC   NC315071  27.297  17.278   9.693
  896POPC   PO415072  27.674  16.690   9.577
  896POPC   GL115073  27.665  16.631   9.118
  896POPC   GL215074  27.443  16.347   9.060
  896POPC   C1A15075  27.727  16.827   8.712
  896POPC   D2A15076  28.033  16.794   8.398
  896POPC   C3A15077  27.845  16.809   7.987
  896POPC   C4A15078  28.024  16.792   7.557
  896POPC   C1B15079  27.278  16.584   8.723
  896POPC   C2B15080  27.395  16.710   8.311
  896POPC   C3B15081  27.166  16.632   7.939
  896POPC   C4B15082  27.279  16.508   7.519
  897POPC   NC315083  35.845  33.654   9.494
  897POPC   PO415084  36.347  33.909   9.747
  897POPC   GL115085  36.275  33.937   9.283
  897POPC   GL215086  35.937  33.925   9.102
  897POPC   C1A15087  36.306  33.645   8.904
  897POPC   D2A15088  36.271  33.802   8.475
  897POPC   C3A15089  36.355  33.684   8.038
  897POPC   C4A15090  36.278  33.929   7.639
  897POPC   C1B15091  36.028  34.177   8.782
  897POPC   C2B15092  35.847  34.090   8.402
  897POPC   C3B15093  35.940  34.020   8.004
  897POPC   C4B15094  35.736  33.958   7.629
  898POPC   NC315095  13.509  31.023   9.339
  898POPC   PO415096  13.366  30.323   9.407
  898POPC   GL115097  13.378  30.597   9.049
  898POPC   GL215098  13.708  30.635   9.085
  898POPC   C1A15099  13.551  30.898   8.694
  898POPC   D2A15100  13.796  30.810   8.368
  898POPC   C3A15101  13.510  30.843   8.041
  898POPC   C4A15102  13.618  30.778   7.672
  898POPC   C1B15103  13.876  30.450   8.749
  898POPC   C2B15104  13.847  30.230   8.386
  898POPC   C3B15105  13.776  30.385   8.010
  898POPC   C4B15106  13.956  30.371   7.609
  899POPC   NC315107  31.137  19.213   9.872
  899POPC   PO415108  31.746  19.297   9.671
  899POPC   GL115109  31.769  19.193   9.292
  899POPC   GL215110  31.449  19.117   9.220
  899POPC   C1A15111  31.869  19.310   8.944
  899POPC   D2A15112  31.884  19.190   8.535
  899POPC   C3A15113  31.736  19.381   8.180
  899POPC   C4A15114  31.799  19.212   7.761
  899POPC   C1B15115  31.487  18.968   8.791
  899POPC   C2B15116  31.409  18.995   8.341
  899POPC   C3B15117  31.328  19.123   7.899
  899POPC   C4B15118  31.369  18.859   7.480
  900POPC   NC315119  15.788  22.040   9.356
  900POPC   PO415120  16.439  21.803   9.395
  900POPC   GL115121  16.330  22.090   9.058
  900POPC   GL215122  15.995  22.044   8.883
  900POPC   C1A15123  16.332  22.378   8.695
  900POPC   D2A15124  16.100  22.335   8.336
  900POPC   C3A15125  16.241  22.433   7.951
  900POPC   C4A15126  16.136  22.203   7.591
  900POPC   C1B15127  15.812  22.474   8.748
  900POPC   C2B15128  15.694  22.662   8.340
  900POPC   C3B15129  15.713  22.481   7.930
  900POPC   C4B15130  15.743  22.034   7.829
  901POPC   NC315131  41.156   8.572   9.555
  901POPC   PO415132  40.633   8.174   9.363
  901POPC   GL115133  40.777   8.206   8.997
  901POPC   GL215134  41.080   8.397   9.083
  901POPC   C1A15135  40.542   8.248   8.642
  901POPC   D2A15136  40.558   8.403   8.243
  901POPC   C3A15137  40.512   8.143   7.916
  901POPC   C4A15138  40.566   7.766   7.735
  901POPC   C1B15139  41.012   8.524   8.686
  901POPC   C2B15140  41.011   8.202   8.402
  901POPC   C3B15141  41.062   8.352   8.033
  901POPC   C4B15142  40.966   8.138   7.694
  902POPC   NC315143  44.076   0.614   9.480
  902POPC   PO415144  43.724   0.071   9.504
  902POPC   GL115145  43.716   0.305   9.101
  902POPC   GL215146  43.598   0.641   9.011
  902POPC   C1A15147  43.774   0.337   8.637
  902POPC   D2A15148  44.042   0.208   8.277
  902POPC   C3A15149  43.860   0.352   7.886
  902POPC   C4A15150  43.914   0.370   7.441
  902POPC   C1B15151  43.953   0.807   8.746
  902POPC   C2B15152  44.104   0.723   8.300
  902POPC   C3B15153  44.084   0.841   7.865
  902POPC   C4B15154  43.750   0.835   7.614
  903POPC   NC315155  26.183  16.622   9.357
  903POPC   PO415156  25.614  16.971   9.483
  903POPC   GL115157  25.927  17.069   9.184
  903POPC   GL215158  25.827  16.774   8.968
  903POPC   C1A15159  26.228  17.077   8.819
  903POPC   D2A15160  26.040  16.862   8.454
  903POPC   C3A15161  26.146  17.007   8.041
  903POPC   C4A15162  26.334  16.918   7.645
  903POPC   C1B15163  25.565  16.723   8.583
  903POPC   C2B15164  25.560  16.746   8.128
  903POPC   C3B15165  25.769  16.661   7.816
  903POPC   C4B15166  26.138  16.514   7.876
  904POPC   NC315167  10.930  19.540   9.228
  904POPC   PO415168  10.295  19.426   9.469
  904POPC   GL115169  10.346  19.750   9.146
  904POPC   GL215170  10.640  19.962   9.115
  904POPC   C1A15171  10.328  19.841   8.703
  904POPC   D2A15172  10.409  19.979   8.301
  904POPC   C3A15173  10.181  19.725   7.998
  904POPC   C4A15174  10.337  19.820   7.646
  904POPC   C1B15175  10.823  19.950   8.695
  904POPC   C2B15176  10.933  19.808   8.304
  904POPC   C3B15177  10.770  19.965   7.891
  904POPC   C4B15178  10.962  20.191   7.508
  905POPC   NC315179  44.332  10.650   9.239
  905POPC   PO415180  44.908  10.416   9.581
  905POPC   GL115181  44.768  10.387   9.174
  905POPC   GL215182   0.011  10.622   9.061
  905POPC   C1A15183  44.735  10.310   8.724
  905POPC   D2A15184  44.825  10.422   8.310
  905POPC   C3A15185  44.598  10.387   7.913
  905POPC   C4A15186  44.501  10.584   7.517
  905POPC   C1B15187  44.915  10.808   8.665
  905POPC   C2B15188   0.159  10.824   8.287
  905POPC   C3B15189   0.039  10.652   7.913
  905POPC   C4B15190  44.984  10.715   7.528
  906POPC   NC315191  32.481  12.997   9.321
  906POPC   PO415192  32.924  12.673   9.700
  906POPC   GL115193  32.984  12.723   9.239
  906POPC   GL215194  33.212  12.983   9.179
  906POPC   C1A15195  32.982  12.730   8.770
  906POPC   D2A15196  32.905  12.897   8.359
  906POPC   C3A15197  32.876  12.654   8.013
  906POPC   C4A15198  33.067  12.715   7.652
  906POPC   C1B15199  33.357  13.176   8.787
  906POPC   C2B15200  33.295  13.269   8.356
  906POPC   C3B15201  33.257  13.129   7.938
  906POPC   C4B15202  33.517  13.265   7.607
  907POPC   NC315203   8.691  39.706   9.351
  907POPC   PO415204   8.886  39.050   9.559
  907POPC   GL115205   8.953  39.273   9.195
  907POPC   GL215206   9.268  39.152   9.044
  907POPC   C1A15207   8.928  39.459   8.787
  907POPC   D2A15208   9.022  39.296   8.398
  907POPC   C3A15209   8.799  39.418   8.045
  907POPC   C4A15210   8.847  39.251   7.648
  907POPC   C1B15211   9.449  39.466   8.784
  907POPC   C2B15212   9.421  39.613   8.384
  907POPC   C3B15213   9.343  39.395   7.996
  907POPC   C4B15214   9.399  39.244   7.585
  908POPC   NC315215  29.373  44.258   9.643
  908POPC   PO415216  29.918  43.840   9.581
  908POPC   GL115217  29.488  43.776   9.273
  908POPC   GL215218  29.178  43.974   9.255
  908POPC   C1A15219  29.254  43.721   8.823
  908POPC   D2A15220  29.114  43.954   8.428
  908POPC   C3A15221  29.236  43.813   7.998
  908POPC   C4A15222  29.312  43.864   7.546
  908POPC   C1B15223  29.447  44.184   8.922
  908POPC   C2B15224  29.438  44.358   8.473
  908POPC   C3B15225  29.382  44.350   8.021
  908POPC   C4B15226  29.393  44.363   7.569
  909POPC   NC315227  11.826  22.987   9.560
  909POPC   PO415228  12.484  22.720   9.572
  909POPC   GL115229  12.241  22.921   9.237
  909POPC   GL215230  11.991  22.676   9.193
  909POPC   C1A15231  12.089  23.040   8.820
  909POPC   D2A15232  12.268  23.085   8.401
  909POPC   C3A15233  11.984  23.075   8.037
  909POPC   C4A15234  11.964  23.090   7.610
  909POPC   C1B15235  12.232  22.530   8.860
  909POPC   C2B15236  12.440  22.570   8.470
  909POPC   C3B15237  12.340  22.690   8.071
  909POPC   C4B15238  12.216  22.630   7.668
  910POPC   NC315239  15.726   1.607   9.458
  910POPC   PO415240  15.740   2.377   9.476
  910POPC   GL115241  15.666   2.042   9.152
  910POPC   GL215242  15.976   1.793   9.070
  910POPC   C1A15243  15.749   2.056   8.709
  910POPC   D2A15244  16.118   2.091   8.432
  910POPC   C3A15245  15.982   1.988   8.001
  910POPC   C4A15246  15.972   2.213   7.557
  910POPC   C1B15247  15.812   1.533   8.761
  910POPC   C2B15248  16.021   1.574   8.379
  910POPC   C3B15249  16.291   1.545   8.041
  910POPC   C4B15250  16.033   1.599   7.681
  911POPC   NC315251  44.217  42.641   9.563
  911POPC   PO415252  43.730  42.096   9.554
  911POPC   GL115253  43.985  42.298   9.266
  911POPC   GL215254  43.753  42.583   9.273
  911POPC   C1A15255  44.206  42.230   8.891
  911POPC   D2A15256  44.235  42.462   8.509
  911POPC   C3A15257  44.053  42.306   8.150
  911POPC   C4A15258  43.976  42.283   7.713
  911POPC   C1B15259  43.852  42.625   8.839
  911POPC   C2B15260  43.683  42.477   8.463
  911POPC   C3B15261  43.553  42.376   8.055
  911POPC   C4B15262  43.561  42.601   7.696
  912POPC   NC315263  24.839  20.603   9.473
  912POPC   PO415264  24.286  20.826   9.455
  912POPC   GL115265  24.402  20.657   9.050
  912POPC   GL215266  24.276  20.313   8.916
  912POPC   C1A15267  24.166  20.723   8.648
  912POPC   D2A15268  23.879  20.673   8.326
  912POPC   C3A15269  24.169  20.697   8.039
  912POPC   C4A15270  24.231  20.810   7.642
  912POPC   C1B15271  24.600  20.420   8.649
  912POPC   C2B15272  24.635  20.633   8.288
  912POPC   C3B15273  24.626  20.553   7.848
  912POPC   C4B15274  24.283  20.324   7.604
  913POPC   NC315275  11.423  44.392   9.540
  913POPC   PO415276  10.941  44.739   9.288
  913POPC   GL115277  11.298  44.644   9.102
  913POPC   GL215278  11.508  44.919   9.149
  913POPC   C1A15279  11.386  44.411   8.755
  913POPC   D2A15280  11.239  44.581   8.402
  913POPC   C3A15281  11.402  44.616   8.016
  913POPC   C4A15282  11.309  44.526   7.589
  913POPC   C1B15283  11.710  44.807   8.750
  913POPC   C2B15284  11.743  44.890   8.333
  913POPC   C3B15285  11.630   0.096   7.990
  913POPC   C4B15286  11.388   0.020   7.676
  914POPC   NC315287   7.342  34.853   9.530
  914POPC   PO415288   7.609  35.433   9.484
  914POPC   GL115289   7.402  35.449   9.087
  914POPC   GL215290   7.213  35.161   9.121
  914POPC   C1A15291   7.325  35.330   8.632
  914POPC   D2A15292   7.584  35.147   8.314
  914POPC   C3A15293   7.644  35.368   7.926
  914POPC   C4A15294   7.309  35.578   7.671
  914POPC   C1B15295   7.181  34.850   8.787
  914POPC   C2B15296   7.055  34.885   8.349
  914POPC   C3B15297   7.181  35.143   7.984
  914POPC   C4B15298   7.185  35.096   7.532
  915POPC   NC315299  24.355  35.360   9.612
  915POPC   PO415300  25.013  35.494   9.580
  915POPC   GL115301  24.665  35.504   9.255
  915POPC   GL215302  24.564  35.178   9.179
  915POPC   C1A15303  24.467  35.571   8.860
  915POPC   D2A15304  24.649  35.468   8.487
  915POPC   C3A15305  24.596  35.510   8.070
  915POPC   C4A15306  24.909  35.443   7.792
  915POPC   C1B15307  24.299  35.075   8.841
  915POPC   C2B15308  24.194  35.138   8.413
  915POPC   C3B15309  24.286  35.115   7.987
  915POPC   C4B15310  24.238  35.452   7.683
  916POPC   NC315311  23.021   0.262   9.500
  916POPC   PO415312  22.817   0.885   9.667
  916POPC   GL115313  22.953   0.707   9.228
  916POPC   GL215314  23.143   0.934   9.000
  916POPC   C1A15315  23.003   0.387   8.862
  916POPC   D2A15316  23.114   0.375   8.406
  916POPC   C3A15317  22.938   0.289   7.998
  916POPC   C4A15318  23.064   0.457   7.592
  916POPC   C1B15319  22.750   0.798   8.764
  916POPC   C2B15320  22.672   0.676   8.330
  916POPC   C3B15321  22.849   0.804   7.935
  916POPC   C4B15322  22.666   0.746   7.534
  917POPC   NC315323  21.401  31.588   9.583
  917POPC   PO415324  22.030  31.600   9.611
  917POPC   GL115325  21.716  31.436   9.173
  917POPC   GL215326  21.308  31.355   9.123
  917POPC   C1A15327  21.522  31.492   8.689
  917POPC   D2A15328  21.151  31.440   8.380
  917POPC   C3A15329  21.255  31.532   7.935
  917POPC   C4A15330  21.470  31.533   7.528
  917POPC   C1B15331  21.386  31.031   8.774
  917POPC   C2B15332  21.534  31.059   8.320
  917POPC   C3B15333  21.355  31.037   7.892
  917POPC   C4B15334  21.081  31.193   7.566
  918POPC   NC315335  22.358  22.529   9.390
  918POPC   PO415336  21.792  22.896   9.261
  918POPC   GL115337  22.152  22.849   9.038
  918POPC   GL215338  22.362  23.045   9.230
  918POPC   C1A15339  22.254  22.771   8.606
  918POPC   D2A15340  21.989  22.950   8.298
  918POPC   C3A15341  21.970  22.751   7.911
  918POPC   C4A15342  21.921  22.930   7.508
  918POPC   C1B15343  22.443  23.197   8.813
  918POPC   C2B15344  22.399  23.372   8.393
  918POPC   C3B15345  22.363  23.148   8.016
  918POPC   C4B15346  22.457  22.817   7.769
  919POPC   NC315347  31.952  37.774   9.486
  919POPC   PO415348  32.538  37.489   9.535
  919POPC   GL115349  32.393  37.715   9.173
  919POPC   GL215350  32.586  37.490   9.023
  919POPC   C1A15351  32.328  37.872   8.709
  919POPC   D2A15352  32.041  37.710   8.354
  919POPC   C3A15353  31.990  37.844   7.906
  919POPC   C4A15354  32.050  38.068   7.502
  919POPC   C1B15355  32.319  37.367   8.725
  919POPC   C2B15356  32.465  37.421   8.357
  919POPC   C3B15357  32.539  37.664   8.027
  919POPC   C4B15358  32.457  37.777   7.671
  920POPC   NC315359  39.061  21.256   9.567
  920POPC   PO415360  39.632  21.652   9.552
  920POPC   GL115361  39.430  21.388   9.205
  920POPC   GL215362  39.070  21.325   9.072
  920POPC   C1A15363  39.435  21.496   8.770
  920POPC   D2A15364  39.148  21.624   8.434
  920POPC   C3A15365  39.257  21.400   8.106
  920POPC   C4A15366  39.316  21.343   7.707
  920POPC   C1B15367  38.847  21.285   8.666
  920POPC   C2B15368  38.829  21.153   8.228
  920POPC   C3B15369  38.816  21.328   7.808
  920POPC   C4B15370  38.806  21.508   7.371
  921POPC   NC315371   9.252   1.022   9.443
  921POPC   PO415372   8.705   1.393   9.564
  921POPC   GL115373   8.932   1.349   9.203
  921POPC   GL215374   8.836   1.036   9.103
  921POPC   C1A15375   8.985   1.383   8.752
  921POPC   D2A15376   8.978   1.228   8.341
  921POPC   C3A15377   8.735   1.345   7.964
  921POPC   C4A15378   9.111   1.477   7.767
  921POPC   C1B15379   8.847   0.854   8.695
  921POPC   C2B15380   8.752   0.788   8.255
  921POPC   C3B15381   9.043   0.948   7.924
  921POPC   C4B15382   8.902   1.031   7.536
  922POPC   NC315383  30.553  37.055   9.466
  922POPC   PO415384  31.067  36.844   9.714
  922POPC   GL115385  30.821  36.668   9.302
  922POPC   GL215386  30.934  36.956   9.120
  922POPC   C1A15387  30.635  36.672   8.825
  922POPC   D2A15388  30.861  36.660   8.381
  922POPC   C3A15389  30.704  36.810   7.973
  922POPC   C4A15390  30.506  36.600   7.627
  922POPC   C1B15391  30.936  37.068   8.694
  922POPC   C2B15392  30.975  37.187   8.264
  922POPC   C3B15393  31.129  37.082   7.853
  922POPC   C4B15394  30.869  37.128   7.492
  923POPC   NC315395  43.240  15.411   9.494
  923POPC   PO415396  42.880  14.782   9.411
  923POPC   GL115397  43.237  14.939   9.093
  923POPC   GL215398  43.463  15.242   9.092
  923POPC   C1A15399  43.228  15.149   8.674
  923POPC   D2A15400  43.056  15.307   8.337
  923POPC   C3A15401  43.269  15.167   8.027
  923POPC   C4A15402  43.127  15.195   7.636
  923POPC   C1B15403  43.682  15.354   8.762
  923POPC   C2B15404  43.517  15.505   8.388
  923POPC   C3B15405  43.734  15.418   8.014
  923POPC   C4B15406  43.622  15.246   7.651
  924POPC   NC315407   7.455  10.119   9.524
  924POPC   PO415408   7.327  10.780   9.509
  924POPC   GL115409   7.307  10.482   9.199
  924POPC   GL215410   7.637  10.487   9.200
  924POPC   C1A15411   7.294  10.459   8.754
  924POPC   D2A15412   7.448  10.603   8.347
  924POPC   C3A15413   7.324  10.461   7.912
  924POPC   C4A15414   7.387  10.757   7.552
  924POPC   C1B15415   7.775  10.265   8.863
  924POPC   C2B15416   7.865  10.257   8.433
  924POPC   C3B15417   7.832  10.440   8.028
  924POPC   C4B15418   7.744  10.390   7.593
  925POPC   NC315419  13.257  13.082   9.697
  925POPC   PO415420  12.671  12.814   9.670
  925POPC   GL115421  12.886  12.845   9.238
  925POPC   GL215422  12.958  12.522   9.058
  925POPC   C1A15423  12.882  13.038   8.796
  925POPC   D2A15424  13.087  13.232   8.398
  925POPC   C3A15425  13.224  12.898   8.137
  925POPC   C4A15426  13.177  12.789   7.703
  925POPC   C1B15427  12.959  12.576   8.610
  925POPC   C2B15428  12.753  12.830   8.318
  925POPC   C3B15429  12.676  12.725   7.899
  925POPC   C4B15430  12.718  12.752   7.462
  926POPC   NC315431  24.950  35.044   9.519
  926POPC   PO415432  25.456  34.598   9.614
  926POPC   GL115433  25.246  34.628   9.226
  926POPC   GL215434  25.422  34.333   9.054
  926POPC   C1A15435  25.116  34.664   8.785
  926POPC   D2A15436  25.002  34.551   8.353
  926POPC   C3A15437  25.368  34.547   8.035
  926POPC   C4A15438  25.516  34.799   7.681
  926POPC   C1B15439  25.162  34.122   8.729
  926POPC   C2B15440  25.240  34.092   8.290
  926POPC   C3B15441  24.986  34.219   7.952
  926POPC   C4B15442  24.919  34.482   7.602
  927POPC   NC315443  35.152  26.791   9.576
  927POPC   PO415444  35.683  27.183   9.576
  927POPC   GL115445  35.486  26.973   9.216
  927POPC   GL215446  35.123  26.944   9.102
  927POPC   C1A15447  35.528  26.643   8.932
  927POPC   D2A15448  35.506  26.652   8.512
  927POPC   C3A15449  35.425  26.967   8.196
  927POPC   C4A15450  35.429  26.828   7.768
  927POPC   C1B15451  35.050  26.657   8.761
  927POPC   C2B15452  35.039  26.641   8.307
  927POPC   C3B15453  34.928  26.716   7.883
  927POPC   C4B15454  34.989  26.947   7.494
  928POPC   NC315455  37.292  35.408   9.596
  928POPC   PO415456  37.836  35.017   9.547
  928POPC   GL115457  37.622  35.265   9.236
  928POPC   GL215458  37.395  35.001   9.164
  928POPC   C1A15459  37.633  35.555   8.847
  928POPC   D2A15460  37.864  35.724   8.477
  928POPC   C3A15461  37.690  35.617   8.034
  928POPC   C4A15462  37.881  35.573   7.605
  928POPC   C1B15463  37.693  35.038   8.799
  928POPC   C2B15464  37.638  35.251   8.407
  928POPC   C3B15465  37.713  35.102   7.983
  928POPC   C4B15466  37.822  35.072   7.561
  929POPC   NC315467  15.812  14.354   9.676
  929POPC   PO415468  16.355  14.696   9.463
  929POPC   GL115469  16.009  14.430   9.210
  929POPC   GL215470  15.830  14.604   8.957
  929POPC   C1A15471  15.836  14.101   8.886
  929POPC   D2A15472  15.705  14.129   8.430
  929POPC   C3A15473  15.939  13.967   8.044
  929POPC   C4A15474  15.931  14.106   7.596
  929POPC   C1B15475  16.200  14.437   8.735
  929POPC   C2B15476  16.166  14.329   8.334
  929POPC   C3B15477  15.996  14.456   7.964
  929POPC   C4B15478  16.185  14.546   7.573
  930POPC   NC315479  40.931  22.727   9.370
  930POPC   PO415480  40.608  23.290   9.521
  930POPC   GL115481  40.635  23.075   9.104
  930POPC   GL215482  40.383  22.833   9.195
  930POPC   C1A15483  40.854  22.959   8.667
  930POPC   D2A15484  41.103  23.066   8.301
  930POPC   C3A15485  40.781  23.052   8.026
  930POPC   C4A15486  40.866  22.728   7.754
  930POPC   C1B15487  40.462  22.682   8.799
  930POPC   C2B15488  40.459  22.643   8.337
  930POPC   C3B15489  40.458  22.449   7.913
  930POPC   C4B15490  40.405  22.618   7.469
  931POPC   NC315491  33.290   1.605   9.437
  931POPC   PO415492  32.703   1.953   9.548
  931POPC   GL115493  32.726   2.050   9.173
  931POPC   GL215494  33.046   1.968   9.110
  931POPC   C1A15495  32.593   1.951   8.789
  931POPC   D2A15496  32.746   2.136   8.454
  931POPC   C3A15497  32.676   2.006   8.057
  931POPC   C4A15498  32.902   2.056   7.687
  931POPC   C1B15499  33.225   2.056   8.708
  931POPC   C2B15500  33.207   1.976   8.271
  931POPC   C3B15501  33.379   1.963   7.876
  931POPC   C4B15502  33.584   1.581   7.790
  932POPC   NC315503  38.643  24.268   9.730
  932POPC   PO415504  38.400  24.928   9.719
  932POPC   GL115505  38.460  24.593   9.328
  932POPC   GL215506  38.204  24.440   9.267
  932POPC   C1A15507  38.287  24.690   8.833
  932POPC   D2A15508  38.423  24.522   8.456
  932POPC   C3A15509  38.277  24.540   8.069
  932POPC   C4A15510  38.540  24.522   7.759
  932POPC   C1B15511  38.518  24.259   8.897
  932POPC   C2B15512  38.417  24.021   8.476
  932POPC   C3B15513  38.212  24.017   8.042
  932POPC   C4B15514  38.110  24.272   7.673
  933POPC   NC315515  31.845  30.286   9.665
  933POPC   PO415516  31.422  29.744   9.457
  933POPC   GL115517  31.490  29.975   9.114
  933POPC   GL215518  31.746  30.205   9.167
  933POPC   C1A15519  31.347  29.851   8.721
  933POPC   D2A15520  31.399  30.015   8.327
  933POPC   C3A15521  31.506  29.781   7.992
  933POPC   C4A15522  31.366  29.822   7.586
  933POPC   C1B15523  31.723  30.214   8.728
  933POPC   C2B15524  31.746  30.412   8.369
  933POPC   C3B15525  31.637  30.302   7.964
  933POPC   C4B15526  31.780  30.490   7.638
  934POPC   NC315527   7.599  35.851   9.678
  934POPC   PO415528   6.964  36.071   9.460
  934POPC   GL115529   7.342  36.172   9.201
  934POPC   GL215530   7.628  35.926   9.149
  934POPC   C1A15531   7.495  36.311   8.793
  934POPC   D2A15532   7.326  36.239   8.420
  934POPC   C3A15533   7.475  36.333   8.033
  934POPC   C4A15534   7.282  36.142   7.715
  934POPC   C1B15535   7.481  35.812   8.711
  934POPC   C2B15536   7.450  35.752   8.235
  934POPC   C3B15537   7.691  35.879   7.845
  934POPC   C4B15538   7.606  35.828   7.362
  935POPC   NC315539  36.525   5.166   9.401
  935POPC   PO415540  36.005   4.718   9.415
  935POPC   GL115541  36.093   4.983   9.114
  935POPC   GL215542  36.088   5.324   9.216
  935POPC   C1A15543  36.313   4.961   8.762
  935POPC   D2A15544  36.421   5.149   8.366
  935POPC   C3A15545  36.182   5.124   7.976
  935POPC   C4A15546  36.286   5.031   7.541
  935POPC   C1B15547  36.045   5.403   8.774
  935POPC   C2B15548  35.985   5.468   8.335
  935POPC   C3B15549  36.250   5.676   8.035
  935POPC   C4B15550  36.346   5.516   7.639
  936POPC   NC315551  34.931  23.577   9.500
  936POPC   PO415552  35.631  23.843   9.387
  936POPC   GL115553  35.377  23.636   9.137
  936POPC   GL215554  35.129  23.879   9.143
  936POPC   C1A15555  35.280  23.442   8.717
  936POPC   D2A15556  35.435  23.419   8.297
  936POPC   C3A15557  35.199  23.353   7.936
  936POPC   C4A15558  35.354  23.567   7.575
  936POPC   C1B15559  35.279  23.943   8.745
  936POPC   C2B15560  35.153  23.848   8.364
  936POPC   C3B15561  35.253  23.872   7.964
  936POPC   C4B15562  35.036  24.039   7.636
  937POPC   NC315563  33.681  16.239   9.698
  937POPC   PO415564  33.931  16.928   9.508
  937POPC   GL115565  34.001  16.835   9.062
  937POPC   GL215566  34.112  16.498   9.049
  937POPC   C1A15567  33.957  16.908   8.599
  937POPC   D2A15568  33.669  16.676   8.284
  937POPC   C3A15569  33.485  16.886   7.953
  937POPC   C4A15570  33.703  16.764   7.607
  937POPC   C1B15571  33.854  16.427   8.707
  937POPC   C2B15572  34.086  16.418   8.336
  937POPC   C3B15573  34.087  16.617   7.949
  937POPC   C4B15574  34.006  16.373   7.613
  938POPC   NC315575  31.962  31.913   9.802
  938POPC   PO415576  31.453  32.348   9.505
  938POPC   GL115577  31.341  32.130   9.105
  938POPC   GL215578  31.669  32.046   8.995
  938POPC   C1A15579  31.131  31.908   8.736
  938POPC   D2A15580  31.163  31.863   8.310
  938POPC   C3A15581  31.305  32.186   8.104
  938POPC   C4A15582  31.562  32.331   7.798
  938POPC   C1B15583  31.526  32.173   8.588
  938POPC   C2B15584  31.750  32.357   8.292
  938POPC   C3B15585  32.017  32.163   8.034
  938POPC   C4B15586  31.892  31.957   7.666
  939POPC   NC315587  36.113  40.957   9.761
  939POPC   PO415588  36.064  41.539   9.488
  939POPC   GL115589  36.066  41.594   9.054
  939POPC   GL215590  35.785  41.427   8.966
  939POPC   C1A15591  36.101  41.761   8.638
  939POPC   D2A15592  36.099  41.662   8.225
  939POPC   C3A15593  36.087  41.838   7.841
  939POPC   C4A15594  35.828  41.653   7.550
  939POPC   C1B15595  35.996  41.159   8.689
  939POPC   C2B15596  35.959  41.135   8.253
  939POPC   C3B15597  36.056  41.290   7.861
  939POPC   C4B15598  36.282  41.418   7.519
  940POPC   NC315599  38.468  10.291   9.596
  940POPC   PO415600  38.015  10.781   9.639
  940POPC   GL115601  38.211  10.568   9.261
  940POPC   GL215602  38.531  10.615   9.128
  940POPC   C1A15603  38.171  10.487   8.808
  940POPC   D2A15604  38.086  10.677   8.402
  940POPC   C3A15605  38.332  10.585   8.054
  940POPC   C4A15606  38.237  10.436   7.642
  940POPC   C1B15607  38.850  10.601   8.783
  940POPC   C2B15608  38.997  10.493   8.381
  940POPC   C3B15609  38.863  10.379   7.986
  940POPC   C4B15610  38.753  10.756   7.819
  941POPC   NC315611  39.164  18.579   9.591
  941POPC   PO415612  39.085  19.182   9.651
  941POPC   GL115613  39.146  18.989   9.234
  941POPC   GL215614  38.846  19.066   9.079
  941POPC   C1A15615  39.339  18.926   8.804
  941POPC   D2A15616  39.319  18.722   8.406
  941POPC   C3A15617  39.189  18.890   8.025
  941POPC   C4A15618  39.483  19.024   7.762
  941POPC   C1B15619  39.032  19.331   8.772
  941POPC   C2B15620  39.140  19.268   8.366
  941POPC   C3B15621  39.165  19.400   7.942
  941POPC   C4B15622  39.205  19.339   7.480
  942POPC   NC315623  13.608  31.459   9.681
  942POPC   PO415624  13.915  31.126   9.166
  942POPC   GL115625  13.701  31.325   8.966
  942POPC   GL215626  13.602  31.585   9.181
  942POPC   C1A15627  13.851  31.373   8.567
  942POPC   D2A15628  13.636  31.289   8.242
  942POPC   C3A15629  13.876  31.214   7.888
  942POPC   C4A15630  13.559  31.467   7.724
  942POPC   C1B15631  13.594  31.770   8.785
  942POPC   C2B15632  13.486  31.767   8.387
  942POPC   C3B15633  13.309  31.801   8.000
  942POPC   C4B15634  13.622  31.966   7.659
  943POPC   NC315635  32.927   6.101   9.335
  943POPC   PO415636  32.728   6.650   9.633
  943POPC   GL115637  32.900   6.735   9.180
  943POPC   GL215638  32.967   6.453   8.980
  943POPC   C1A15639  33.011   6.929   8.765
  943POPC   D2A15640  32.986   7.027   8.312
  943POPC   C3A15641  33.110   6.693   8.032
  943POPC   C4A15642  33.046   6.649   7.602
  943POPC   C1B15643  33.057   6.143   8.694
  943POPC   C2B15644  33.056   6.141   8.285
  943POPC   C3B15645  32.776   6.086   8.037
  943POPC   C4B15646  32.801   6.214   7.673
  944POPC   NC315647  15.715   3.662   9.585
  944POPC   PO415648  16.406   3.836   9.555
  944POPC   GL115649  16.189   3.565   9.178
  944POPC   GL215650  15.827   3.483   9.125
  944POPC   C1A15651  16.153   3.515   8.724
  944POPC   D2A15652  16.302   3.665   8.337
  944POPC   C3A15653  16.222   3.575   7.877
  944POPC   C4A15654  16.366   3.401   7.423
  944POPC   C1B15655  15.661   3.310   8.737
  944POPC   C2B15656  15.751   3.404   8.296
  944POPC   C3B15657  15.673   3.546   7.848
  944POPC   C4B15658  15.456   3.550   7.401
  945POPC   NC315659  11.561  32.709   9.433
  945POPC   PO415660  10.844  32.683   9.461
  945POPC   GL115661  11.137  32.424   9.198
  945POPC   GL215662  11.277  32.671   8.975
  945POPC   C1A15663  11.267  32.160   8.810
  945POPC   D2A15664  11.098  32.354   8.417
  945POPC   C3A15665  11.124  32.143   8.022
  945POPC   C4A15666  11.414  31.930   7.787
  945POPC   C1B15667  11.639  32.486   8.741
  945POPC   C2B15668  11.627  32.212   8.354
  945POPC   C3B15669  11.769  32.282   7.936
  945POPC   C4B15670  11.626  32.273   7.487
  946POPC   NC315671  36.622  33.025   9.454
  946POPC   PO415672  37.265  32.663   9.609
  946POPC   GL115673  37.062  32.810   9.207
  946POPC   GL215674  36.756  32.715   9.075
  946POPC   C1A15675  37.095  33.063   8.815
  946POPC   D2A15676  37.191  32.928   8.354
  946POPC   C3A15677  37.080  33.170   7.981
  946POPC   C4A15678  36.649  33.314   7.828
  946POPC   C1B15679  36.691  32.820   8.624
  946POPC   C2B15680  36.644  32.943   8.200
  946POPC   C3B15681  36.770  32.825   7.790
  946POPC   C4B15682  37.203  32.709   7.751
  947POPC   NC315683  12.533   0.834   9.534
  947POPC   PO415684  12.849   0.252   9.445
  947POPC   GL115685  12.718   0.321   9.084
  947POPC   GL215686  12.959   0.584   9.037
  947POPC   C1A15687  12.597   0.432   8.676
  947POPC   D2A15688  12.814   0.581   8.316
  947POPC   C3A15689  12.684   0.414   7.933
  947POPC   C4A15690  12.933   0.507   7.586
  947POPC   C1B15691  13.084   0.271   8.725
  947POPC   C2B15692  13.189  44.972   8.414
  947POPC   C3B15693  13.095   0.118   7.981
  947POPC   C4B15694  13.269   0.131   7.566
  948POPC   NC315695  11.035  27.354   9.346
  948POPC   PO415696  11.471  27.931   9.355
  948POPC   GL115697  11.298  27.719   9.029
  948POPC   GL215698  11.461  27.424   9.062
  948POPC   C1A15699  10.995  27.562   8.719
  948POPC   D2A15700  10.843  27.365   8.336
  948POPC   C3A15701  10.983  27.593   7.986
  948POPC   C4A15702  11.275  27.700   7.680
  948POPC   C1B15703  11.414  27.278   8.689
  948POPC   C2B15704  11.368  27.484   8.324
  948POPC   C3B15705  11.460  27.308   7.960
  948POPC   C4B15706  11.725  27.331   7.644
  949POPC   NC315707  44.118  12.221   9.457
  949POPC   PO415708  43.762  11.642   9.491
  949POPC   GL115709  43.951  11.874   9.106
  949POPC   GL215710  43.815  12.247   9.030
  949POPC   C1A15711  43.932  11.980   8.646
  949POPC   D2A15712  43.687  12.203   8.337
  949POPC   C3A15713  43.740  12.022   7.947
  949POPC   C4A15714  43.982  11.736   7.738
  949POPC   C1B15715  44.004  12.491   8.632
  949POPC   C2B15716  44.046  12.548   8.174
  949POPC   C3B15717  43.789  12.506   7.781
  949POPC   C4B15718  43.729  12.601   7.312
  950POPC   NC315719   5.271  29.099   9.722
  950POPC   PO415720   4.744  28.910   9.578
  950POPC   GL115721   4.905  29.287   9.373
  950POPC   GL215722   5.156  29.085   9.218
  950POPC   C1A15723   4.908  29.430   8.925
  950POPC   D2A15724   4.879  29.180   8.525
  950POPC   C3A15725   5.025  29.297   8.097
  950POPC   C4A15726   4.880  29.059   7.746
  950POPC   C1B15727   5.302  29.131   8.807
  950POPC   C2B15728   5.378  29.425   8.477
  950POPC   C3B15729   5.565  29.367   8.094
  950POPC   C4B15730   5.439  29.032   7.863
  951POPC   NC315731   0.170   5.421   9.441
  951POPC   PO415732   0.631   5.922   9.757
  951POPC   GL115733   0.444   5.866   9.299
  951POPC   GL215734   0.587   5.563   9.179
  951POPC   C1A15735   0.249   5.858   8.844
  951POPC   D2A15736   0.164   6.021   8.407
  951POPC   C3A15737   0.101   5.797   8.002
  951POPC   C4A15738   0.278   5.916   7.585
  951POPC   C1B15739   0.704   5.644   8.755
  951POPC   C2B15740   0.487   5.611   8.401
  951POPC   C3B15741   0.608   5.724   8.013
  951POPC   C4B15742   0.888   5.638   7.743
  952POPC   NC315743  34.530  31.600   9.531
  952POPC   PO415744  34.518  30.950   9.581
  952POPC   GL115745  34.434  31.182   9.203
  952POPC   GL215746  34.774  31.305   9.152
  952POPC   C1A15747  34.437  31.210   8.737
  952POPC   D2A15748  34.703  31.260   8.329
  952POPC   C3A15749  34.472  31.354   7.932
  952POPC   C4A15750  34.481  31.758   7.714
  952POPC   C1B15751  34.789  31.700   8.896
  952POPC   C2B15752  34.920  31.925   8.521
  952POPC   C3B15753  34.862  31.767   8.107
  952POPC   C4B15754  34.981  31.918   7.715
  953POPC   NC315755  43.337  25.878   9.414
  953POPC   PO415756  42.656  25.758   9.381
  953POPC   GL115757  42.897  26.016   9.071
  953POPC   GL215758  43.223  26.200   9.054
  953POPC   C1A15759  42.979  26.043   8.654
  953POPC   D2A15760  42.985  25.784   8.357
  953POPC   C3A15761  42.954  25.999   8.019
  953POPC   C4A15762  43.059  25.750   7.680
  953POPC   C1B15763  43.469  25.973   8.779
  953POPC   C2B15764  43.465  25.978   8.358
  953POPC   C3B15765  43.456  25.937   7.939
  953POPC   C4B15766  43.247  26.256   7.651
  954POPC   NC315767  10.783  41.324   9.813
  954POPC   PO415768  10.509  40.806   9.477
  954POPC   GL115769  10.330  40.958   9.116
  954POPC   GL215770  10.511  40.702   8.986
  954POPC   C1A15771  10.460  41.110   8.690
  954POPC   D2A15772  10.344  41.075   8.274
  954POPC   C3A15773  10.613  41.016   7.912
  954POPC   C4A15774  10.779  41.035   7.494
  954POPC   C1B15775  10.621  40.512   8.652
  954POPC   C2B15776  10.729  40.642   8.286
  954POPC   C3B15777  10.752  40.515   7.889
  954POPC   C4B15778  10.491  40.620   7.577
  955POPC   NC315779   0.081  42.433   9.642
  955POPC   PO415780  44.447  42.248   9.538
  955POPC   GL115781  44.645  42.449   9.253
  955POPC   GL215782  44.699  42.126   9.096
  955POPC   C1A15783  44.543  42.630   8.883
  955POPC   D2A15784  44.712  42.745   8.502
  955POPC   C3A15785  44.653  42.451   8.176
  955POPC   C4A15786  44.397  42.584   7.873
  955POPC   C1B15787  44.659  42.171   8.656
  955POPC   C2B15788  44.372  41.971   8.370
  955POPC   C3B15789  44.396  42.017   7.921
  955POPC   C4B15790  44.740  42.100   7.684
  956POPC   NC315791  42.290  28.059   9.436
  956POPC   PO415792  41.999  27.513   9.509
  956POPC   GL115793  42.301  27.564   9.171
  956POPC   GL215794  42.561  27.287   9.170
  956POPC   C1A15795  42.358  27.685   8.736
  956POPC   D2A15796  42.429  27.883   8.337
  956POPC   C3A15797  42.188  27.682   8.005
  956POPC   C4A15798  42.306  27.669   7.575
  956POPC   C1B15799  42.708  27.314   8.725
  956POPC   C2B15800  42.495  27.355   8.306
  956POPC   C3B15801  42.462  27.255   7.858
  956POPC   C4B15802  42.381  27.212   7.384
  957POPC   NC315803   3.456  43.032   9.556
  957POPC   PO415804   4.110  42.925   9.581
  957POPC   GL115805   3.827  43.120   9.193
  957POPC   GL215806   3.589  42.889   9.100
  957POPC   C1A15807   3.563  43.263   8.769
  957POPC   D2A15808   3.287  43.279   8.409
  957POPC   C3A15809   3.316  43.523   8.011
  957POPC   C4A15810   3.584  43.456   7.657
  957POPC   C1B15811   3.766  42.790   8.738
  957POPC   C2B15812   3.544  42.824   8.376
  957POPC   C3B15813   3.577  43.070   8.032
  957POPC   C4B15814   3.507  42.909   7.644
  958POPC   NC315815   1.365  33.861   9.545
  958POPC   PO415816   0.917  33.334   9.450
  958POPC   GL115817   1.202  33.548   9.137
  958POPC   GL215818   1.290  33.930   9.057
  958POPC   C1A15819   1.072  33.621   8.712
  958POPC   D2A15820   1.133  33.772   8.299
  958POPC   C3A15821   1.434  33.608   8.101
  958POPC   C4A15822   1.330  33.440   7.724
  958POPC   C1B15823   1.150  34.125   8.673
  958POPC   C2B15824   1.424  34.195   8.297
  958POPC   C3B15825   1.364  34.051   7.868
  958POPC   C4B15826   1.220  33.889   7.464
  959POPC   NC315827  12.432  41.842   9.455
  959POPC   PO415828  12.000  41.330   9.447
  959POPC   GL115829  12.108  41.539   9.089
  959POPC   GL215830  12.046  41.874   9.148
  959POPC   C1A15831  11.900  41.666   8.704
  959POPC   D2A15832  11.716  41.538   8.344
  959POPC   C3A15833  11.832  41.656   7.935
  959POPC   C4A15834  12.071  41.357   7.758
  959POPC   C1B15835  12.353  41.916   8.800
  959POPC   C2B15836  12.218  41.925   8.388
  959POPC   C3B15837  12.362  41.745   8.037
  959POPC   C4B15838  12.257  41.814   7.647
  960POPC   NC315839  13.072  19.338   9.529
  960POPC   PO415840  12.596  18.869   9.443
  960POPC   GL115841  12.819  19.023   9.109
  960POPC   GL215842  13.136  19.167   9.073
  960POPC   C1A15843  12.644  18.996   8.717
  960POPC   D2A15844  12.427  19.228   8.357
  960POPC   C3A15845  12.549  19.060   7.955
  960POPC   C4A15846  12.545  18.974   7.507
  960POPC   C1B15847  13.140  19.043   8.677
  960POPC   C2B15848  12.928  19.081   8.316
  960POPC   C3B15849  13.049  19.141   7.932
  960POPC   C4B15850  13.308  18.992   7.712
  961POPC   NC315851  10.914  17.920   9.426
  961POPC   PO415852  10.545  17.380   9.659
  961POPC   GL115853  10.499  17.629   9.197
  961POPC   GL215854  10.261  17.411   9.007
  961POPC   C1A15855  10.650  17.564   8.741
  961POPC   D2A15856  10.524  17.522   8.292
  961POPC   C3A15857  10.872  17.570   7.999
  961POPC   C4A15858  10.830  17.931   7.730
  961POPC   C1B15859  10.297  17.155   8.658
  961POPC   C2B15860  10.299  17.078   8.241
  961POPC   C3B15861  10.488  17.205   7.830
  961POPC   C4B15862  10.327  17.377   7.434
  962POPC   NC315863  30.373  14.670   9.451
  962POPC   PO415864  29.872  14.235   9.562
  962POPC   GL115865  29.883  14.417   9.174
  962POPC   GL215866  30.220  14.345   9.090
  962POPC   C1A15867  29.787  14.229   8.780
  962POPC   D2A15868  29.902  14.422   8.411
  962POPC   C3A15869  29.745  14.239   8.075
  962POPC   C4A15870  29.772  14.411   7.704
  962POPC   C1B15871  30.209  14.637   8.769
  962POPC   C2B15872  30.402  14.584   8.366
  962POPC   C3B15873  30.191  14.512   7.986
  962POPC   C4B15874  30.041  14.855   7.701
  963POPC   NC315875  16.468  14.246   9.368
  963POPC   PO415876  17.090  14.434   9.567
  963POPC   GL115877  16.956  14.309   9.166
  963POPC   GL215878  17.028  13.969   9.209
  963POPC   C1A15879  16.715  14.284   8.751
  963POPC   D2A15880  16.625  14.545   8.373
  963POPC   C3A15881  16.523  14.362   7.951
  963POPC   C4A15882  16.665  14.680   7.663
  963POPC   C1B15883  17.196  14.062   8.786
  963POPC   C2B15884  17.088  14.271   8.387
  963POPC   C3B15885  17.015  14.485   7.998
  963POPC   C4B15886  17.030  14.319   7.609
  964POPC   NC315887  41.152  20.639   9.168
  964POPC   PO415888  41.611  20.882   9.586
  964POPC   GL115889  41.641  20.746   9.100
  964POPC   GL215890  41.594  20.402   9.058
  964POPC   C1A15891  41.515  20.691   8.633
  964POPC   D2A15892  41.347  20.810   8.249
  964POPC   C3A15893  41.582  20.644   7.963
  964POPC   C4A15894  41.815  20.832   7.717
  964POPC   C1B15895  41.741  20.222   8.702
  964POPC   C2B15896  41.732  20.285   8.279
  964POPC   C3B15897  41.862  20.174   7.823
  964POPC   C4B15898  41.803  20.042   7.318
  965POPC   NC315899  39.399  23.659   9.482
  965POPC   PO415900  38.964  24.155   9.428
  965POPC   GL115901  39.124  23.937   9.111
  965POPC   GL215902  38.972  23.636   9.187
  965POPC   C1A15903  39.310  23.761   8.748
  965POPC   D2A15904  39.342  23.606   8.326
  965POPC   C3A15905  39.125  23.871   8.051
  965POPC   C4A15906  39.314  24.224   7.835
  965POPC   C1B15907  38.983  23.358   8.839
  965POPC   C2B15908  39.106  23.184   8.452
  965POPC   C3B15909  38.958  23.328   8.055
  965POPC   C4B15910  38.928  23.592   7.658
  966POPC   NC315911   4.355  38.705   9.541
  966POPC   PO415912   4.048  38.089   9.415
  966POPC   GL115913   4.192  38.293   9.040
  966POPC   GL215914   4.498  38.436   9.106
  966POPC   C1A15915   4.287  38.356   8.598
  966POPC   D2A15916   4.348  38.485   8.165
  966POPC   C3A15917   4.080  38.314   7.814
  966POPC   C4A15918   4.033  38.434   7.339
  966POPC   C1B15919   4.760  38.396   8.720
  966POPC   C2B15920   4.770  38.211   8.297
  966POPC   C3B15921   4.775  38.434   7.894
  966POPC   C4B15922   4.469  38.577   7.604
  967POPC   NC315923  40.841  14.543   9.423
  967POPC   PO415924  41.419  14.714   9.696
  967POPC   GL115925  41.293  14.600   9.177
  967POPC   GL215926  41.035  14.331   9.017
  967POPC   C1A15927  41.054  14.721   8.718
  967POPC   D2A15928  40.644  14.531   8.494
  967POPC   C3A15929  40.562  14.452   8.032
  967POPC   C4A15930  40.600  14.541   7.579
  967POPC   C1B15931  40.840  14.106   8.694
  967POPC   C2B15932  40.871  14.085   8.257
  967POPC   C3B15933  40.957  14.101   7.817
  967POPC   C4B15934  40.871  14.006   7.350
  968POPC   NC315935  29.934  11.251   9.593
  968POPC   PO415936  29.618  11.930   9.470
  968POPC   GL115937  29.657  11.606   9.156
  968POPC   GL215938  30.013  11.466   9.145
  968POPC   C1A15939  29.701  11.611   8.686
  968POPC   D2A15940  29.848  11.749   8.258
  968POPC   C3A15941  29.901  11.359   7.990
  968POPC   C4A15942  29.795  10.958   7.818
  968POPC   C1B15943  30.270  11.526   8.798
  968POPC   C2B15944  30.228  11.408   8.398
  968POPC   C3B15945  30.324  11.626   8.048
  968POPC   C4B15946  30.128  11.675   7.654
  969POPC   NC315947  39.774   9.465   9.352
  969POPC   PO415948  40.196   9.956   9.492
  969POPC   GL115949  40.234   9.780   9.095
  969POPC   GL215950  39.918   9.770   9.000
  969POPC   C1A15951  40.261   9.951   8.663
  969POPC   D2A15952  40.302  10.162   8.260
  969POPC   C3A15953  40.165   9.888   7.908
  969POPC   C4A15954  39.830   9.573   7.820
  969POPC   C1B15955  39.877   9.618   8.596
  969POPC   C2B15956  39.789   9.888   8.257
  969POPC   C3B15957  39.463   9.900   7.943
  969POPC   C4B15958  39.309   9.535   7.805
  970POPC   NC315959   2.877   1.827   9.451
  970POPC   PO415960   2.392   2.219   9.618
  970POPC   GL115961   2.512   2.070   9.193
  970POPC   GL215962   2.806   2.271   9.180
  970POPC   C1A15963   2.439   1.804   8.802
  970POPC   D2A15964   2.410   1.580   8.406
  970POPC   C3A15965   2.695   1.686   8.061
  970POPC   C4A15966   2.733   1.811   7.614
  970POPC   C1B15967   2.834   2.112   8.763
  970POPC   C2B15968   2.590   2.095   8.383
  970POPC   C3B15969   2.647   2.220   7.939
  970POPC   C4B15970   3.039   2.289   7.767
  971POPC   NC315971  27.183  13.963   9.435
  971POPC   PO415972  26.708  13.416   9.515
  971POPC   GL115973  26.863  13.642   9.194
  971POPC   GL215974  26.541  13.770   9.149
  971POPC   C1A15975  27.077  13.651   8.806
  971POPC   D2A15976  26.884  13.695   8.460
  971POPC   C3A15977  26.971  13.624   8.029
  971POPC   C4A15978  26.652  13.762   7.801
  971POPC   C1B15979  26.568  13.452   8.795
  971POPC   C2B15980  26.451  13.493   8.328
  971POPC   C3B15981  26.551  13.289   7.942
  971POPC   C4B15982  26.343  13.272   7.536
  972POPC   NC315983   7.488   1.005   9.586
  972POPC   PO415984   7.339   1.597   9.400
  972POPC   GL115985   7.409   1.226   9.114
  972POPC   GL215986   7.162   0.962   9.160
  972POPC   C1A15987   7.209   1.162   8.700
  972POPC   D2A15988   7.211   1.391   8.307
  972POPC   C3A15989   7.328   1.185   7.918
  972POPC   C4A15990   7.765   1.119   7.901
  972POPC   C1B15991   7.190   0.652   8.802
  972POPC   C2B15992   7.040   0.714   8.396
  972POPC   C3B15993   6.930   0.716   7.977
  972POPC   C4B15994   7.081   0.846   7.558
  973POPC   NC315995  30.067   1.794   9.636
  973POPC   PO415996  29.751   2.356   9.558
  973POPC   GL115997  29.760   1.937   9.270
  973POPC   GL215998  30.130   1.869   9.145
  973POPC   C1A15999  29.758   1.844   8.801
  973POPC   D2A16000  29.728   1.771   8.305
  973POPC   C3A16001  29.957   1.989   7.934
  973POPC   C4A16002  29.858   2.132   7.492
  973POPC   C1B16003  30.277   1.582   8.804
  973POPC   C2B16004  30.206   1.600   8.325
  973POPC   C3B16005  30.380   1.701   7.880
  973POPC   C4B16006  30.290   1.700   7.424
  974POPC   NC316007   0.483  24.276   9.347
  974POPC   PO416008  44.971  24.651   9.365
  974POPC   GL116009   0.276  24.603   8.993
  974POPC   GL216010   0.673  24.625   9.029
  974POPC   C1A16011   0.432  24.725   8.582
  974POPC   D2A16012   0.705  24.602   8.257
  974POPC   C3A16013   0.439  24.609   7.966
  974POPC   C4A16014   0.394  24.658   7.539
  974POPC   C1B16015   0.698  24.318   8.675
  974POPC   C2B16016   0.891  24.107   8.371
  974POPC   C3B16017   0.846  24.223   7.959
  974POPC   C4B16018   0.514  24.169   7.697
  975POPC   NC316019   9.725  14.677   9.663
  975POPC   PO416020   9.573  14.157   9.234
  975POPC   GL116021   9.751  14.519   9.136
  975POPC   GL216022   9.910  14.837   9.189
  975POPC   C1A16023   9.907  14.460   8.743
  975POPC   D2A16024   9.799  14.155   8.418
  975POPC   C3A16025   9.722  14.305   8.004
  975POPC   C4A16026   9.481  14.190   7.623
  975POPC   C1B16027   9.712  14.917   8.785
  975POPC   C2B16028   9.697  14.726   8.371
  975POPC   C3B16029   9.908  14.802   8.002
  975POPC   C4B16030   9.703  14.654   7.641
  976POPC   NC316031  18.473  34.861   9.364
  976POPC   PO416032  18.492  34.187   9.567
  976POPC   GL116033  18.286  34.343   9.226
  976POPC   GL216034  18.603  34.422   9.125
  976POPC   C1A16035  18.188  34.545   8.829
  976POPC   D2A16036  18.204  34.765   8.443
  976POPC   C3A16037  18.278  34.641   8.047
  976POPC   C4A16038  18.589  34.767   7.781
  976POPC   C1B16039  18.575  34.163   8.793
  976POPC   C2B16040  18.479  34.326   8.418
  976POPC   C3B16041  18.684  34.321   8.047
  976POPC   C4B16042  18.423  34.252   7.722
  977POPC   NC316043  43.864  17.609   9.621
  977POPC   PO416044  43.740  17.076   9.315
  977POPC   GL116045  43.833  17.460   9.120
  977POPC   GL216046  44.165  17.458   9.070
  977POPC   C1A16047  43.805  17.512   8.677
  977POPC   D2A16048  44.010  17.225   8.364
  977POPC   C3A16049  43.920  17.404   7.980
  977POPC   C4A16050  43.753  17.763   7.755
  977POPC   C1B16051  44.327  17.509   8.672
  977POPC   C2B16052  44.158  17.731   8.316
  977POPC   C3B16053  44.343  17.813   7.938
  977POPC   C4B16054  44.200  17.986   7.585
  978POPC   NC316055  12.049   4.235   9.451
  978POPC   PO416056  11.779   4.909   9.490
  978POPC   GL116057  11.817   4.598   9.139
  978POPC   GL216058  11.880   4.240   8.994
  978POPC   C1A16059  11.852   4.632   8.685
  978POPC   D2A16060  11.937   4.308   8.377
  978POPC   C3A16061  12.092   4.427   7.980
  978POPC   C4A16062  11.827   4.618   7.709
  978POPC   C1B16063  11.956   3.925   8.738
  978POPC   C2B16064  11.838   3.820   8.355
  978POPC   C3B16065  11.831   3.998   7.934
  978POPC   C4B16066  11.867   3.876   7.506
  979POPC   NC316067  17.126  34.245   9.349
  979POPC   PO416068  17.771  34.451   9.378
  979POPC   GL116069  17.456  34.508   9.056
  979POPC   GL216070  17.359  34.838   8.934
  979POPC   C1A16071  17.361  34.426   8.624
  979POPC   D2A16072  17.264  34.550   8.220
  979POPC   C3A16073  17.556  34.321   7.940
  979POPC   C4A16074  17.476  34.454   7.520
  979POPC   C1B16075  17.742  34.796   8.704
  979POPC   C2B16076  17.756  34.660   8.279
  979POPC   C3B16077  17.601  34.832   7.936
  979POPC   C4B16078  17.670  34.924   7.544
  980POPC   NC316079  42.093  19.345   9.473
  980POPC   PO416080  42.574  18.978   9.567
  980POPC   GL116081  42.373  19.015   9.188
  980POPC   GL216082  42.509  19.321   9.049
  980POPC   C1A16083  42.305  18.859   8.782
  980POPC   D2A16084  42.330  19.054   8.412
  980POPC   C3A16085  42.133  18.784   8.125
  980POPC   C4A16086  42.139  18.780   7.710
  980POPC   C1B16087  42.128  19.329   8.788
  980POPC   C2B16088  41.912  19.335   8.383
  980POPC   C3B16089  42.020  19.261   7.942
  980POPC   C4B16090  41.932  19.211   7.484
  981POPC   NC316091  21.155   1.594   9.765
  981POPC   PO416092  21.012   1.033   9.416
  981POPC   GL116093  21.227   1.272   9.090
  981POPC   GL216094  21.577   1.355   9.132
  981POPC   C1A16095  21.454   1.093   8.726
  981POPC   D2A16096  21.385   1.215   8.321
  981POPC   C3A16097  21.558   1.201   7.949
  981POPC   C4A16098  21.252   1.458   7.726
  981POPC   C1B16099  21.508   1.603   8.795
  981POPC   C2B16100  21.507   1.722   8.403
  981POPC   C3B16101  21.599   1.745   8.002
  981POPC   C4B16102  21.735   1.578   7.642
  982POPC   NC316103   1.432  33.178   9.478
  982POPC   PO416104   1.014  32.823   9.840
  982POPC   GL116105   1.073  32.852   9.329
  982POPC   GL216106   1.369  32.700   9.196
  982POPC   C1A16107   1.183  33.091   8.887
  982POPC   D2A16108   1.305  33.230   8.470
  982POPC   C3A16109   1.195  32.958   8.142
  982POPC   C4A16110   0.979  33.056   7.763
  982POPC   C1B16111   1.597  32.744   8.789
  982POPC   C2B16112   1.702  32.834   8.388
  982POPC   C3B16113   1.619  32.663   7.992
  982POPC   C4B16114   1.260  32.636   7.725
  983POPC   NC316115  39.320  22.633   9.401
  983POPC   PO416116  39.059  23.282   9.536
  983POPC   GL116117  39.315  23.187   9.207
  983POPC   GL216118  39.044  22.962   9.128
  983POPC   C1A16119  39.448  22.984   8.814
  983POPC   D2A16120  39.388  22.736   8.429
  983POPC   C3A16121  39.425  23.026   8.069
  983POPC   C4A16122  39.248  23.156   7.680
  983POPC   C1B16123  38.842  22.859   8.747
  983POPC   C2B16124  38.873  22.727   8.359
  983POPC   C3B16125  38.842  22.821   7.995
  983POPC   C4B16126  39.000  22.706   7.660
  984POPC   NC316127  31.062  27.454   9.563
  984POPC   PO416128  30.554  27.813   9.343
  984POPC   GL116129  30.793  27.542   9.105
  984POPC   GL216130  31.081  27.768   9.076
  984POPC   C1A16131  30.652  27.489   8.683
  984POPC   D2A16132  30.832  27.326   8.329
  984POPC   C3A16133  30.664  27.453   7.927
  984POPC   C4A16134  30.794  27.354   7.500
  984POPC   C1B16135  30.797  27.967   8.754
  984POPC   C2B16136  30.621  27.849   8.338
  984POPC   C3B16137  30.829  27.954   7.996
  984POPC   C4B16138  30.802  27.855   7.621
  985POPC   NC316139   6.540  44.470   9.447
  985POPC   PO416140   7.156  44.184   9.535
  985POPC   GL116141   6.922  44.318   9.084
  985POPC   GL216142   6.615  44.590   8.974
  985POPC   C1A16143   7.035  44.590   8.708
  985POPC   D2A16144   6.941  44.844   8.348
  985POPC   C3A16145   6.675  44.700   8.043
  985POPC   C4A16146   6.734  44.713   7.618
  985POPC   C1B16147   6.523  44.624   8.542
  985POPC   C2B16148   6.360  44.341   8.228
  985POPC   C3B16149   6.183  44.588   7.890
  985POPC   C4B16150   6.331  44.997   7.741
  986POPC   NC316151  21.550  22.504   9.383
  986POPC   PO416152  21.066  23.002   9.433
  986POPC   GL116153  21.284  22.961   9.047
  986POPC   GL216154  21.548  23.179   8.905
  986POPC   C1A16155  21.328  22.731   8.686
  986POPC   D2A16156  21.569  22.650   8.292
  986POPC   C3A16157  21.482  22.897   7.893
  986POPC   C4A16158  21.448  22.734   7.465
  986POPC   C1B16159  21.522  23.147   8.467
  986POPC   C2B16160  21.167  23.015   8.284
  986POPC   C3B16161  20.969  23.147   7.959
  986POPC   C4B16162  21.052  23.015   7.593
  987POPC   NC316163  12.636  31.229   9.427
  987POPC   PO416164  13.186  31.620   9.641
  987POPC   GL116165  13.084  31.524   9.208
  987POPC   GL216166  12.754  31.644   9.091
  987POPC   C1A16167  13.225  31.384   8.784
  987POPC   D2A16168  13.032  31.492   8.379
  987POPC   C3A16169  13.132  31.283   7.996
  987POPC   C4A16170  13.008  31.534   7.646
  987POPC   C1B16171  12.589  31.853   8.720
  987POPC   C2B16172  12.498  31.693   8.297
  987POPC   C3B16173  12.605  31.426   7.969
  987POPC   C4B16174  12.702  31.060   7.736
  988POPC   NC316175  26.721  27.842   9.432
  988POPC   PO416176  26.964  27.209   9.517
  988POPC   GL116177  26.866  27.428   9.180
  988POPC   GL216178  26.504  27.393   9.282
  988POPC   C1A16179  26.906  27.656   8.796
  988POPC   D2A16180  26.916  27.493   8.395
  988POPC   C3A16181  27.152  27.738   8.126
  988POPC   C4A16182  26.877  27.657   7.810
  988POPC   C1B16183  26.472  27.378   8.851
  988POPC   C2B16184  26.431  27.249   8.461
  988POPC   C3B16185  26.470  27.338   8.063
  988POPC   C4B16186  26.373  27.640   7.765
  989POPC   NC316187   6.739   7.161   9.440
  989POPC   PO416188   6.233   7.543   9.375
  989POPC   GL116189   6.554   7.583   9.111
  989POPC   GL216190   6.808   7.776   9.273
  989POPC   C1A16191   6.546   7.471   8.662
  989POPC   D2A16192   6.680   7.312   8.255
  989POPC   C3A16193   6.497   7.367   7.843
  989POPC   C4A16194   6.419   7.486   7.416
  989POPC   C1B16195   6.846   7.849   8.811
  989POPC   C2B16196   6.926   7.863   8.364
  989POPC   C3B16197   6.900   7.670   7.960
  989POPC   C4B16198   6.893   7.644   7.511
  990POPC   NC316199  33.892  29.324   9.974
  990POPC   PO416200  34.457  29.343   9.503
  990POPC   GL116201  34.566  29.051   9.230
  990POPC   GL216202  34.227  28.917   9.239
  990POPC   C1A16203  34.862  29.025   8.885
  990POPC   D2A16204  34.971  28.950   8.453
  990POPC   C3A16205  34.782  29.101   8.083
  990POPC   C4A16206  34.615  29.349   7.744
  990POPC   C1B16207  34.334  28.958   8.801
  990POPC   C2B16208  34.284  28.841   8.393
  990POPC   C3B16209  34.266  29.056   8.018
  990POPC   C4B16210  34.349  28.927   7.619
  991POPC   NC316211  39.823  21.230   9.499
  991POPC   PO416212  40.296  21.719   9.488
  991POPC   GL116213  40.235  21.512   9.130
  991POPC   GL216214  39.904  21.612   9.120
  991POPC   C1A16215  40.054  21.225   8.830
  991POPC   D2A16216  39.804  21.264   8.469
  991POPC   C3A16217  40.090  21.230   8.131
  991POPC   C4A16218  40.106  21.002   7.763
  991POPC   C1B16219  39.832  21.841   8.754
  991POPC   C2B16220  39.642  21.728   8.353
  991POPC   C3B16221  39.727  21.553   7.967
  991POPC   C4B16222  39.713  21.670   7.550
  992POPC   NC316223  38.961   9.353   9.592
  992POPC   PO416224  39.276   9.955   9.655
  992POPC   GL116225  39.406  10.010   9.123
  992POPC   GL216226  39.425   9.715   8.893
  992POPC   C1A16227  39.103  10.019   8.691
  992POPC   D2A16228  39.173   9.705   8.323
  992POPC   C3A16229  38.941   9.841   7.953
  992POPC   C4A16230  39.074  10.095   7.598
  992POPC   C1B16231  39.004   9.500   8.754
  992POPC   C2B16232  39.044   9.177   8.442
  992POPC   C3B16233  39.114   9.132   8.059
  992POPC   C4B16234  38.888   9.281   7.714
  993POPC   NC316235  13.339  20.210   9.893
  993POPC   PO416236  12.902  19.816   9.515
  993POPC   GL116237  12.724  19.541   9.206
  993POPC   GL216238  12.615  19.836   9.066
  993POPC   C1A16239  12.870  19.482   8.789
  993POPC   D2A16240  12.884  19.797   8.488
  993POPC   C3A16241  12.811  19.549   8.113
  993POPC   C4A16242  12.752  19.442   7.670
  993POPC   C1B16243  12.480  20.111   8.736
  993POPC   C2B16244  12.623  20.262   8.375
  993POPC   C3B16245  12.816  20.104   8.069
  993POPC   C4B16246  12.597  19.920   7.766
  994POPC   NC316247  39.261   7.878   9.263
  994POPC   PO416248  38.904   7.388   9.327
  994POPC   GL116249  39.157   7.412   9.036
  994POPC   GL216250  39.454   7.385   9.195
  994POPC   C1A16251  39.174   7.611   8.666
  994POPC   D2A16252  39.065   7.420   8.314
  994POPC   C3A16253  38.957   7.661   7.947
  994POPC   C4A16254  39.082   7.588   7.507
  994POPC   C1B16255  39.590   7.277   8.775
  994POPC   C2B16256  39.580   7.488   8.360
  994POPC   C3B16257  39.424   7.479   7.928
  994POPC   C4B16258  39.558   7.303   7.542
  995POPC   NC316259  44.752  25.071   9.334
  995POPC   PO416260  44.464  24.468   9.702
  995POPC   GL116261  44.492  24.395   9.252
  995POPC   GL216262  44.531  24.693   9.097
  995POPC   C1A16263  44.617  24.299   8.801
  995POPC   D2A16264  44.470  24.300   8.355
  995POPC   C3A16265  44.725  24.129   8.034
  995POPC   C4A16266   0.052  24.332   7.829
  995POPC   C1B16267  44.720  24.821   8.715
  995POPC   C2B16268  44.548  24.881   8.324
  995POPC   C3B16269  44.683  24.658   8.002
  995POPC   C4B16270  44.978  24.834   7.744
  996POPC   NC316271  30.349  25.639   9.774
  996POPC   PO416272  30.875  25.926   9.513
  996POPC   GL116273  30.772  26.139   9.162
  996POPC   GL216274  30.452  26.333   9.176
  996POPC   C1A16275  30.942  26.011   8.770
  996POPC   D2A16276  30.999  26.245   8.412
  996POPC   C3A16277  30.941  25.989   8.068
  996POPC   C4A16278  30.711  25.830   7.713
  996POPC   C1B16279  30.445  26.133   8.778
  996POPC   C2B16280  30.506  25.982   8.413
  996POPC   C3B16281  30.446  26.131   8.038
  996POPC   C4B16282  30.288  26.163   7.670
  997POPC   NC316283  15.002  41.177   9.563
  997POPC   PO416284  15.037  41.809   9.493
  997POPC   GL116285  15.236  41.768   9.114
  997POPC   GL216286  15.121  41.427   9.106
  997POPC   C1A16287  15.436  41.638   8.728
  997POPC   D2A16288  15.531  41.425   8.335
  997POPC   C3A16289  15.449  41.529   7.888
  997POPC   C4A16290  15.083  41.376   7.652
  997POPC   C1B16291  14.945  41.522   8.678
  997POPC   C2B16292  15.015  41.526   8.249
  997POPC   C3B16293  15.136  41.874   8.073
  997POPC   C4B16294  15.137  41.899   7.659
  998POPC   NC316295   5.416  30.504   9.499
  998POPC   PO416296   4.988  30.956   9.650
  998POPC   GL116297   5.061  30.768   9.253
  998POPC   GL216298   4.825  30.500   9.149
  998POPC   C1A16299   5.351  30.697   8.877
  998POPC   D2A16300   5.223  30.780   8.469
  998POPC   C3A16301   5.456  30.903   8.137
  998POPC   C4A16302   5.322  30.665   7.804
  998POPC   C1B16303   4.836  30.805   8.810
  998POPC   C2B16304   4.758  30.972   8.424
  998POPC   C3B16305   4.702  30.771   8.076
  998POPC   C4B16306   4.832  30.595   7.737
  999POPC   NC316307  14.304  10.437   9.512
  999POPC   PO416308  14.835  10.112   9.487
  999POPC   GL116309  14.646  10.372   9.098
  999POPC   GL216310  14.405  10.688   9.071
  999POPC   C1A16311  14.514  10.452   8.638
  999POPC   D2A16312  14.671  10.705   8.291
  999POPC   C3A16313  14.607  10.516   7.902
  999POPC   C4A16314  14.448  10.546   7.499
  999POPC   C1B16315  14.099  10.776   8.708
  999POPC   C2B16316  14.002  10.632   8.265
  999POPC   C3B16317  14.007  10.566   7.796
  999POPC   C4B16318  13.997  10.322   7.407
 1000POPC   NC316319  39.239  36.602   9.575
 1000POPC   PO416320  39.505  37.239   9.582
 1000POPC   GL116321  39.339  37.198   9.165
 1000POPC   GL216322  39.112  36.889   9.154
 1000POPC   C1A16323  39.321  37.104   8.728
 1000POPC   D2A16324  39.056  37.098   8.375
 1000POPC   C3A16325  39.268  37.109   7.989
 1000POPC   C4A16326  39.072  37.172   7.606
 1000POPC   C1B16327  39.413  36.613   8.911
 1000POPC   C2B16328  39.374  36.358   8.502
 1000POPC   C3B16329  39.193  36.520   8.118
 1000POPC   C4B16330  39.207  36.649   7.708
 1001POPC   NC316331  31.033  16.267   9.180
 1001POPC   PO416332  30.813  15.767   9.542
 1001POPC   GL116333  30.667  15.785   9.100
 1001POPC   GL216334  30.775  16.036   8.844
 1001POPC   C1A16335  30.673  15.582   8.707
 1001POPC   D2A16336  30.893  15.851   8.373
 1001POPC   C3A16337  30.689  15.953   7.986
 1001POPC   C4A16338  30.477  15.657   7.691
 1001POPC   C1B16339  30.426  16.064   8.601
 1001POPC   C2B16340  30.380  16.320   8.247
 1001POPC   C3B16341  30.270  16.224   7.879
 1001POPC   C4B16342  30.485  16.153   7.519
 1002POPC   NC316343  38.670  13.043   9.544
 1002POPC   PO416344  38.158  12.522   9.471
 1002POPC   GL116345  38.323  12.668   9.095
 1002POPC   GL216346  38.438  13.004   9.104
 1002POPC   C1A16347  38.190  12.778   8.678
 1002POPC   D2A16348  38.381  12.695   8.300
 1002POPC   C3A16349  38.398  12.936   7.936
 1002POPC   C4A16350  38.339  12.559   7.743
 1002POPC   C1B16351  38.658  12.908   8.760
 1002POPC   C2B16352  38.666  13.120   8.408
 1002POPC   C3B16353  38.863  12.892   8.145
 1002POPC   C4B16354  38.901  12.949   7.738
 1003POPC   NC316355  37.029  44.062   9.526
 1003POPC   PO416356  36.828  43.358   9.534
 1003POPC   GL116357  36.919  43.608   9.182
 1003POPC   GL216358  36.705  43.885   9.207
 1003POPC   C1A16359  36.913  43.753   8.769
 1003POPC   D2A16360  37.017  43.955   8.378
 1003POPC   C3A16361  36.953  43.721   8.001
 1003POPC   C4A16362  37.109  43.886   7.642
 1003POPC   C1B16363  36.583  44.147   8.895
 1003POPC   C2B16364  36.531  44.046   8.519
 1003POPC   C3B16365  36.570  44.052   8.096
 1003POPC   C4B16366  36.699  44.206   7.706
 1004POPC   NC316367  38.184  19.945   9.418
 1004POPC   PO416368  38.515  20.530   9.583
 1004POPC   GL116369  38.518  20.669   9.206
 1004POPC   GL216370  38.250  20.436   9.156
 1004POPC   C1A16371  38.609  20.569   8.791
 1004POPC   D2A16372  38.588  20.360   8.404
 1004POPC   C3A16373  38.744  20.625   8.083
 1004POPC   C4A16374  38.589  20.737   7.676
 1004POPC   C1B16375  38.215  20.240   8.781
 1004POPC   C2B16376  38.064  20.350   8.394
 1004POPC   C3B16377  38.236  20.534   8.030
 1004POPC   C4B16378  38.134  20.305   7.666
 1005POPC   NC316379  37.382   0.522   9.442
 1005POPC   PO416380  37.980   0.119   9.476
 1005POPC   GL116381  37.750   0.317   9.146
 1005POPC   GL216382  37.429   0.171   9.084
 1005POPC   C1A16383  37.628   0.561   8.784
 1005POPC   D2A16384  37.541   0.426   8.335
 1005POPC   C3A16385  37.709   0.679   7.992
 1005POPC   C4A16386  37.762   0.560   7.556
 1005POPC   C1B16387  37.566   0.045   8.697
 1005POPC   C2B16388  37.489  44.817   8.342
 1005POPC   C3B16389  37.259  44.874   7.973
 1005POPC   C4B16390  37.468   0.223   7.790
 1006POPC   NC316391   1.779   4.962   9.381
 1006POPC   PO416392   2.264   5.446   9.410
 1006POPC   GL116393   2.047   5.262   9.073
 1006POPC   GL216394   2.114   4.920   8.997
 1006POPC   C1A16395   1.724   5.354   8.791
 1006POPC   D2A16396   1.739   5.460   8.366
 1006POPC   C3A16397   1.863   5.127   8.105
 1006POPC   C4A16398   2.180   5.138   7.763
 1006POPC   C1B16399   2.079   5.043   8.565
 1006POPC   C2B16400   2.312   4.877   8.206
 1006POPC   C3B16401   2.175   4.535   7.983
 1006POPC   C4B16402   1.886   4.736   7.782
 1007POPC   NC316403  35.341  38.026   9.281
 1007POPC   PO416404  35.499  37.365   9.499
 1007POPC   GL116405  35.456  37.559   9.095
 1007POPC   GL216406  35.528  37.860   8.855
 1007POPC   C1A16407  35.412  37.386   8.708
 1007POPC   D2A16408  35.561  37.364   8.287
 1007POPC   C3A16409  35.368  37.625   7.958
 1007POPC   C4A16410  35.334  37.527   7.508
 1007POPC   C1B16411  35.083  37.834   8.712
 1007POPC   C2B16412  34.878  37.883   8.314
 1007POPC   C3B16413  34.993  38.100   7.943
 1007POPC   C4B16414  35.241  38.011   7.608
 1008POPC   NC316415  36.777  34.004   9.586
 1008POPC   PO416416  37.126  33.362   9.448
 1008POPC   GL116417  36.846  33.619   9.223
 1008POPC   GL216418  37.003  33.922   9.136
 1008POPC   C1A16419  36.806  33.547   8.793
 1008POPC   D2A16420  37.051  33.427   8.451
 1008POPC   C3A16421  36.953  33.642   8.103
 1008POPC   C4A16422  37.041  33.591   7.669
 1008POPC   C1B16423  36.635  34.027   8.908
 1008POPC   C2B16424  36.744  33.961   8.485
 1008POPC   C3B16425  36.707  34.072   8.058
 1008POPC   C4B16426  36.766  34.040   7.625
 1009POPC   NC316427  24.816  33.300   9.375
 1009POPC   PO416428  24.288  33.649   9.647
 1009POPC   GL116429  24.278  33.780   9.238
 1009POPC   GL216430  24.595  33.915   9.199
 1009POPC   C1A16431  24.151  33.697   8.832
 1009POPC   D2A16432  24.389  33.713   8.455
 1009POPC   C3A16433  24.203  33.565   8.115
 1009POPC   C4A16434  24.217  33.744   7.728
 1009POPC   C1B16435  24.771  33.765   8.802
 1009POPC   C2B16436  24.916  33.704   8.372
 1009POPC   C3B16437  24.799  33.755   7.939
 1009POPC   C4B16438  24.986  33.938   7.511
 1010POPC   NC316439  20.322   2.249   9.592
 1010POPC   PO416440  20.912   1.926   9.546
 1010POPC   GL116441  20.585   2.022   9.196
 1010POPC   GL216442  20.546   2.394   9.163
 1010POPC   C1A16443  20.523   1.755   8.810
 1010POPC   D2A16444  20.704   1.878   8.458
 1010POPC   C3A16445  20.582   1.705   8.075
 1010POPC   C4A16446  20.748   1.791   7.686
 1010POPC   C1B16447  20.841   2.261   8.835
 1010POPC   C2B16448  20.818   2.383   8.416
 1010POPC   C3B16449  20.781   2.172   8.037
 1010POPC   C4B16450  20.499   2.241   7.700
 1011POPC   NC316451  15.053  23.420   9.513
 1011POPC   PO416452  14.897  23.989   9.249
 1011POPC   GL116453  15.097  23.677   9.027
 1011POPC   GL216454  15.415  23.623   9.194
 1011POPC   C1A16455  15.177  23.832   8.612
 1011POPC   D2A16456  15.372  24.035   8.233
 1011POPC   C3A16457  15.092  23.951   7.875
 1011POPC   C4A16458  14.966  23.554   7.682
 1011POPC   C1B16459  15.518  23.470   8.787
 1011POPC   C2B16460  15.335  23.420   8.380
 1011POPC   C3B16461  15.404  23.542   7.969
 1011POPC   C4B16462  15.452  23.349   7.564
 1012POPC   NC316463  33.801  28.034   9.351
 1012POPC   PO416464  33.796  27.463   9.791
 1012POPC   GL116465  33.942  27.530   9.310
 1012POPC   GL216466  33.649  27.621   9.088
 1012POPC   C1A16467  34.043  27.529   8.799
 1012POPC   D2A16468  33.871  27.762   8.412
 1012POPC   C3A16469  33.962  27.715   7.950
 1012POPC   C4A16470  34.092  27.569   7.536
 1012POPC   C1B16471  33.539  27.411   8.678
 1012POPC   C2B16472  33.406  27.230   8.273
 1012POPC   C3B16473  33.371  27.199   7.814
 1012POPC   C4B16474  33.668  27.296   7.485
 1013POPC   NC316475  31.155   3.860   9.892
 1013POPC   PO416476  31.635   3.460   9.483
 1013POPC   GL116477  31.683   3.634   9.073
 1013POPC   GL216478  31.337   3.501   9.032
 1013POPC   C1A16479  31.694   3.596   8.631
 1013POPC   D2A16480  31.391   3.372   8.351
 1013POPC   C3A16481  31.467   3.454   7.905
 1013POPC   C4A16482  31.689   3.539   7.512
 1013POPC   C1B16483  31.271   3.850   8.745
 1013POPC   C2B16484  31.424   3.886   8.314
 1013POPC   C3B16485  31.289   3.996   7.946
 1013POPC   C4B16486  30.959   3.934   7.700
 1014POPC   NC316487  38.690   6.042   9.567
 1014POPC   PO416488  38.281   5.571   9.675
 1014POPC   GL116489  38.464   5.718   9.266
 1014POPC   GL216490  38.375   6.064   9.178
 1014POPC   C1A16491  38.571   5.666   8.834
 1014POPC   D2A16492  38.325   5.510   8.480
 1014POPC   C3A16493  38.442   5.707   8.076
 1014POPC   C4A16494  38.257   5.578   7.708
 1014POPC   C1B16495  38.306   6.234   8.806
 1014POPC   C2B16496  38.389   6.061   8.432
 1014POPC   C3B16497  38.285   6.218   8.025
 1014POPC   C4B16498  38.039   6.142   7.685
 1015POPC   NC316499  36.899  38.155   9.515
 1015POPC   PO416500  36.470  38.748   9.478
 1015POPC   GL116501  36.733  38.486   9.174
 1015POPC   GL216502  37.085  38.618   9.215
 1015POPC   C1A16503  36.681  38.348   8.740
 1015POPC   D2A16504  36.615  38.540   8.316
 1015POPC   C3A16505  36.582  38.275   7.940
 1015POPC   C4A16506  36.951  38.155   7.628
 1015POPC   C1B16507  37.181  38.403   8.828
 1015POPC   C2B16508  37.078  38.275   8.402
 1015POPC   C3B16509  37.037  38.512   8.014
 1015POPC   C4B16510  37.223  38.917   7.915
 1016POPC   NC316511   1.955  29.308   9.400
 1016POPC   PO416512   2.182  28.660   9.569
 1016POPC   GL116513   2.134  28.946   9.123
 1016POPC   GL216514   2.046  29.277   8.922
 1016POPC   C1A16515   1.776  28.942   8.709
 1016POPC   D2A16516   1.732  29.250   8.397
 1016POPC   C3A16517   1.844  29.136   7.992
 1016POPC   C4A16518   1.667  29.185   7.606
 1016POPC   C1B16519   2.299  29.276   8.598
 1016POPC   C2B16520   2.192  29.497   8.243
 1016POPC   C3B16521   2.206  29.504   7.833
 1016POPC   C4B16522   2.209  29.098   7.624
 1017POPC   NC316523   8.594  15.428   9.541
 1017POPC   PO416524   8.863  14.852   9.349
 1017POPC   GL116525   8.954  15.183   9.148
 1017POPC   GL216526   9.004  15.486   9.268
 1017POPC   C1A16527   8.751  15.255   8.826
 1017POPC   D2A16528   8.681  15.028   8.475
 1017POPC   C3A16529   8.909  15.109   8.111
 1017POPC   C4A16530   8.849  14.882   7.768
 1017POPC   C1B16531   9.077  15.674   8.880
 1017POPC   C2B16532   9.020  15.493   8.483
 1017POPC   C3B16533   9.031  15.630   8.105
 1017POPC   C4B16534   9.228  15.416   7.794
 1018POPC   NC316535  25.632  13.771   9.464
 1018POPC   PO416536  25.759  13.212   9.275
 1018POPC   GL116537  25.582  13.569   8.979
 1018POPC   GL216538  25.323  13.806   9.069
 1018POPC   C1A16539  25.403  13.716   8.564
 1018POPC   D2A16540  25.311  13.475   8.212
 1018POPC   C3A16541  25.554  13.550   7.872
 1018POPC   C4A16542  25.458  13.388   7.462
 1018POPC   C1B16543  25.049  14.022   8.797
 1018POPC   C2B16544  25.119  14.141   8.400
 1018POPC   C3B16545  25.230  13.948   8.016
 1018POPC   C4B16546  25.049  13.631   7.750
 1019POPC   NC316547  15.312  43.593   9.624
 1019POPC   PO416548  15.113  44.187   9.531
 1019POPC   GL116549  15.167  43.905   9.221
 1019POPC   GL216550  14.907  43.686   9.176
 1019POPC   C1A16551  15.341  43.821   8.778
 1019POPC   D2A16552  15.200  43.900   8.400
 1019POPC   C3A16553  15.254  43.698   8.032
 1019POPC   C4A16554  15.389  43.895   7.681
 1019POPC   C1B16555  14.864  43.975   8.833
 1019POPC   C2B16556  14.688  43.928   8.504
 1019POPC   C3B16557  14.773  43.903   8.125
 1019POPC   C4B16558  14.808  43.958   7.741
 1020POPC   NC316559  32.447   7.725   9.368
 1020POPC   PO416560  31.992   7.176   9.429
 1020POPC   GL116561  32.266   7.327   9.127
 1020POPC   GL216562  32.533   7.101   9.089
 1020POPC   C1A16563  32.238   7.544   8.725
 1020POPC   D2A16564  32.076   7.352   8.346
 1020POPC   C3A16565  32.267   7.473   7.992
 1020POPC   C4A16566  32.388   7.576   7.612
 1020POPC   C1B16567  32.249   7.043   8.716
 1020POPC   C2B16568  32.478   7.000   8.358
 1020POPC   C3B16569  32.594   7.084   7.943
 1020POPC   C4B16570  32.265   7.090   7.652
 1021POPC   NC316571  30.085  27.290   9.696
 1021POPC   PO416572  30.179  26.644   9.502
 1021POPC   GL116573  30.075  26.945   9.207
 1021POPC   GL216574  30.383  26.851   9.053
 1021POPC   C1A16575  29.836  26.949   8.800
 1021POPC   D2A16576  30.011  26.914   8.369
 1021POPC   C3A16577  29.788  26.846   7.993
 1021POPC   C4A16578  29.837  26.959   7.562
 1021POPC   C1B16579  30.163  26.551   8.749
 1021POPC   C2B16580  30.071  26.398   8.305
 1021POPC   C3B16581  30.240  26.607   7.920
 1021POPC   C4B16582  30.252  26.631   7.456
 1022POPC   NC316583  14.347  11.539   9.605
 1022POPC   PO416584  14.210  10.893   9.496
 1022POPC   GL116585  14.488  11.190   9.220
 1022POPC   GL216586  14.822  11.066   9.075
 1022POPC   C1A16587  14.593  11.493   8.878
 1022POPC   D2A16588  14.551  11.634   8.433
 1022POPC   C3A16589  14.456  11.446   8.036
 1022POPC   C4A16590  14.812  11.456   7.784
 1022POPC   C1B16591  14.582  11.003   8.709
 1022POPC   C2B16592  14.300  11.090   8.373
 1022POPC   C3B16593  14.296  10.955   7.974
 1022POPC   C4B16594  14.617  10.992   7.693
 1023POPC   NC316595   1.020   9.615   9.436
 1023POPC   PO416596   1.545   9.211   9.445
 1023POPC   GL116597   1.415   9.604   9.131
 1023POPC   GL216598   1.099   9.923   9.062
 1023POPC   C1A16599   1.207   9.569   8.735
 1023POPC   D2A16600   1.044   9.779   8.412
 1023POPC   C3A16601   1.229   9.623   8.031
 1023POPC   C4A16602   1.071   9.514   7.651
 1023POPC   C1B16603   1.377  10.092   8.761
 1023POPC   C2B16604   1.519  10.024   8.350
 1023POPC   C3B16605   1.220  10.110   8.058
 1023POPC   C4B16606   1.106  10.006   7.650
 1024POPC   NC316607  32.695   0.676   9.336
 1024POPC   PO416608  33.196   1.112   9.595
 1024POPC   GL116609  32.943   1.178   9.236
 1024POPC   GL216610  32.782   1.521   9.242
 1024POPC   C1A16611  33.019   1.072   8.804
 1024POPC   D2A16612  33.204   1.282   8.439
 1024POPC   C3A16613  32.930   1.155   8.107
 1024POPC   C4A16614  33.079   1.152   7.704
 1024POPC   C1B16615  32.948   1.575   8.815
 1024POPC   C2B16616  32.845   1.632   8.383
 1024POPC   C3B16617  32.983   1.619   7.938
 1024POPC   C4B16618  32.698   1.527   7.565
 1025POPC   NC316619   6.785  34.614   9.644
 1025POPC   PO416620   6.318  34.286   9.495
 1025POPC   GL116621   6.651  34.397   9.139
 1025POPC   GL216622   7.007  34.224   9.099
 1025POPC   C1A16623   6.684  34.681   8.730
 1025POPC   D2A16624   6.376  34.739   8.359
 1025POPC   C3A16625   6.503  34.677   7.924
 1025POPC   C4A16626   6.889  34.774   7.792
 1025POPC   C1B16627   6.813  34.187   8.673
 1025POPC   C2B16628   6.809  34.416   8.268
 1025POPC   C3B16629   6.922  34.281   7.862
 1025POPC   C4B16630   6.631  34.260   7.556
 1026POPC   NC316631  33.551   6.028   9.459
 1026POPC   PO416632  34.118   6.244   9.560
 1026POPC   GL116633  34.005   5.984   9.206
 1026POPC   GL216634  33.925   5.630   9.253
 1026POPC   C1A16635  33.682   5.933   8.851
 1026POPC   D2A16636  33.505   5.991   8.450
 1026POPC   C3A16637  33.769   6.191   8.159
 1026POPC   C4A16638  33.813   6.015   7.766
 1026POPC   C1B16639  34.106   5.661   8.834
 1026POPC   C2B16640  33.971   5.778   8.403
 1026POPC   C3B16641  33.929   5.560   7.975
 1026POPC   C4B16642  33.627   5.516   7.599
 1027POPC   NC316643  29.981  39.408   9.387
 1027POPC   PO416644  29.538  38.820   9.413
 1027POPC   GL116645  29.890  38.977   9.123
 1027POPC   GL216646  30.245  38.881   9.030
 1027POPC   C1A16647  29.936  39.068   8.672
 1027POPC   D2A16648  29.787  39.005   8.267
 1027POPC   C3A16649  29.924  39.251   7.935
 1027POPC   C4A16650  29.863  39.562   7.582
 1027POPC   C1B16651  30.346  39.297   8.828
 1027POPC   C2B16652  30.319  39.283   8.386
 1027POPC   C3B16653  30.287  39.595   8.080
 1027POPC   C4B16654  30.384  39.581   7.614
 1028POPC   NC316655  30.246   6.081   9.450
 1028POPC   PO416656  30.888   5.709   9.404
 1028POPC   GL116657  30.860   5.970   9.058
 1028POPC   GL216658  30.526   5.986   9.038
 1028POPC   C1A16659  30.993   5.942   8.645
 1028POPC   D2A16660  30.970   5.676   8.280
 1028POPC   C3A16661  30.936   5.919   7.902
 1028POPC   C4A16662  30.885   5.811   7.452
 1028POPC   C1B16663  30.518   5.731   8.662
 1028POPC   C2B16664  30.486   5.880   8.236
 1028POPC   C3B16665  30.437   5.887   7.799
 1028POPC   C4B16666  30.475   6.111   7.433
 1029POPC   NC316667  39.499  15.348   9.521
 1029POPC   PO416668  40.142  15.035   9.532
 1029POPC   GL116669  39.856  15.123   9.215
 1029POPC   GL216670  39.992  15.455   9.245
 1029POPC   C1A16671  39.815  15.093   8.754
 1029POPC   D2A16672  39.976  14.969   8.324
 1029POPC   C3A16673  39.766  15.083   7.931
 1029POPC   C4A16674  39.867  15.042   7.487
 1029POPC   C1B16675  40.019  15.551   8.840
 1029POPC   C2B16676  40.013  15.471   8.426
 1029POPC   C3B16677  40.246  15.612   8.091
 1029POPC   C4B16678  40.122  15.401   7.755
 1030POPC   NC316679  13.896  13.330   9.561
 1030POPC   PO416680  13.564  12.738   9.667
 1030POPC   GL116681  13.425  12.719   9.233
 1030POPC   GL216682  13.392  13.076   9.170
 1030POPC   C1A16683  13.420  12.500   8.823
 1030POPC   D2A16684  13.574  12.490   8.409
 1030POPC   C3A16685  13.407  12.427   8.001
 1030POPC   C4A16686  13.665  12.545   7.667
 1030POPC   C1B16687  13.389  12.988   8.729
 1030POPC   C2B16688  13.653  13.030   8.384
 1030POPC   C3B16689  13.729  12.894   8.020
 1030POPC   C4B16690  13.855  13.027   7.620
 1031POPC   NC316691  34.251  35.802   9.469
 1031POPC   PO416692  34.931  35.973   9.401
 1031POPC   GL116693  34.720  36.177   9.042
 1031POPC   GL216694  34.357  36.099   9.040
 1031POPC   C1A16695  34.713  36.167   8.611
 1031POPC   D2A16696  34.498  35.995   8.250
 1031POPC   C3A16697  34.739  36.014   7.876
 1031POPC   C4A16698  34.915  36.386   7.741
 1031POPC   C1B16699  34.272  36.387   8.739
 1031POPC   C2B16700  34.449  36.543   8.360
 1031POPC   C3B16701  34.458  36.461   7.953
 1031POPC   C4B16702  34.110  36.246   7.853
 1032POPC   NC316703  26.465  22.431   9.430
 1032POPC   PO416704  26.851  22.055   9.864
 1032POPC   GL116705  26.850  21.958   9.349
 1032POPC   GL216706  26.729  22.202   9.060
 1032POPC   C1A16707  27.093  21.888   8.943
 1032POPC   D2A16708  26.858  21.877   8.554
 1032POPC   C3A16709  26.960  21.900   8.115
 1032POPC   C4A16710  26.699  21.978   7.763
 1032POPC   C1B16711  26.983  22.346   8.733
 1032POPC   C2B16712  27.055  22.520   8.280
 1032POPC   C3B16713  26.894  22.478   7.818
 1032POPC   C4B16714  27.022  22.566   7.344
 1033POPC   NC316715  37.357  27.572   9.506
 1033POPC   PO416716  38.008  27.328   9.595
 1033POPC   GL116717  37.790  27.451   9.187
 1033POPC   GL216718  37.555  27.691   9.051
 1033POPC   C1A16719  37.883  27.479   8.745
 1033POPC   D2A16720  37.878  27.682   8.361
 1033POPC   C3A16721  37.860  27.426   7.990
 1033POPC   C4A16722  37.532  27.288   7.692
 1033POPC   C1B16723  37.351  27.814   8.661
 1033POPC   C2B16724  37.436  27.938   8.224
 1033POPC   C3B16725  37.610  27.818   7.809
 1033POPC   C4B16726  37.804  27.770   7.373
 1034POPC   NC316727  31.872   3.765   9.765
 1034POPC   PO416728  32.471   3.478   9.573
 1034POPC   GL116729  32.164   3.551   9.261
 1034POPC   GL216730  32.338   3.771   9.087
 1034POPC   C1A16731  32.142   3.372   8.822
 1034POPC   D2A16732  32.298   3.505   8.417
 1034POPC   C3A16733  32.159   3.428   7.987
 1034POPC   C4A16734  32.172   3.749   7.628
 1034POPC   C1B16735  32.609   3.779   8.740
 1034POPC   C2B16736  32.573   3.959   8.348
 1034POPC   C3B16737  32.575   3.767   7.932
 1034POPC   C4B16738  32.657   3.635   7.483
 1035POPC   NC316739  22.342  31.936   9.664
 1035POPC   PO416740  22.773  31.420   9.692
 1035POPC   GL116741  22.566  31.687   9.257
 1035POPC   GL216742  22.180  31.742   9.176
 1035POPC   C1A16743  22.395  31.568   8.777
 1035POPC   D2A16744  22.056  31.453   8.493
 1035POPC   C3A16745  22.197  31.576   8.094
 1035POPC   C4A16746  22.427  31.344   7.758
 1035POPC   C1B16747  21.876  31.820   8.821
 1035POPC   C2B16748  21.702  31.853   8.375
 1035POPC   C3B16749  21.757  31.786   7.900
 1035POPC   C4B16750  21.922  31.380   7.709
 1036POPC   NC316751   0.539   0.853   9.559
 1036POPC   PO416752   0.182   0.282   9.503
 1036POPC   GL116753   0.343   0.546   9.191
 1036POPC   GL216754   0.567   0.273   9.102
 1036POPC   C1A16755   0.288   0.658   8.758
 1036POPC   D2A16756   0.342   0.397   8.366
 1036POPC   C3A16757   0.070   0.383   7.990
 1036POPC   C4A16758   0.090   0.767   7.748
 1036POPC   C1B16759   0.744   0.326   8.699
 1036POPC   C2B16760   0.794   0.224   8.263
 1036POPC   C3B16761   0.634   0.339   7.858
 1036POPC   C4B16762   0.730   0.323   7.395
 1037POPC   NC316763   8.428  29.139   9.508
 1037POPC   PO416764   7.870  29.589   9.491
 1037POPC   GL116765   8.154  29.491   9.150
 1037POPC   GL216766   8.233  29.135   9.048
 1037POPC   C1A16767   8.024  29.395   8.700
 1037POPC   D2A16768   8.094  29.567   8.337
 1037POPC   C3A16769   8.016  29.269   8.038
 1037POPC   C4A16770   8.148  29.285   7.598
 1037POPC   C1B16771   8.442  29.109   8.624
 1037POPC   C2B16772   8.326  28.857   8.278
 1037POPC   C3B16773   8.240  28.837   7.841
 1037POPC   C4B16774   7.802  28.919   7.723
 1038POPC   NC316775  21.929  24.083   9.551
 1038POPC   PO416776  22.517  24.380   9.458
 1038POPC   GL116777  22.299  24.647   9.192
 1038POPC   GL216778  22.024  24.464   9.236
 1038POPC   C1A16779  22.332  24.717   8.758
 1038POPC   D2A16780  22.630  24.548   8.469
 1038POPC   C3A16781  22.537  24.406   8.035
 1038POPC   C4A16782  22.628  24.664   7.659
 1038POPC   C1B16783  22.167  24.237   8.868
 1038POPC   C2B16784  22.141  24.361   8.422
 1038POPC   C3B16785  22.079  24.575   8.038
 1038POPC   C4B16786  22.159  24.489   7.608
 1039POPC   NC316787  40.658  41.403   9.709
 1039POPC   PO416788  41.130  41.743   9.433
 1039POPC   GL116789  40.698  41.703   9.240
 1039POPC   GL216790  40.615  41.353   9.199
 1039POPC   C1A16791  40.550  41.676   8.802
 1039POPC   D2A16792  40.878  41.719   8.453
 1039POPC   C3A16793  40.736  41.715   8.015
 1039POPC   C4A16794  40.617  41.845   7.592
 1039POPC   C1B16795  40.924  41.332   8.865
 1039POPC   C2B16796  41.056  41.257   8.419
 1039POPC   C3B16797  40.836  41.185   8.023
 1039POPC   C4B16798  40.797  41.371   7.630
 1040POPC   NC316799  36.264   5.998   9.524
 1040POPC   PO416800  35.715   5.674   9.431
 1040POPC   GL116801  35.899   5.817   9.063
 1040POPC   GL216802  36.242   5.774   9.066
 1040POPC   C1A16803  35.982   5.896   8.616
 1040POPC   D2A16804  35.817   6.174   8.332
 1040POPC   C3A16805  36.128   6.203   8.038
 1040POPC   C4A16806  36.153   6.058   7.676
 1040POPC   C1B16807  36.290   6.178   8.888
 1040POPC   C2B16808  36.429   6.157   8.450
 1040POPC   C3B16809  36.651   6.269   8.078
 1040POPC   C4B16810  36.522   6.433   7.683
 1041POPC   NC316811  40.660   1.253   9.986
 1041POPC   PO416812  40.928   1.119   9.428
 1041POPC   GL116813  40.804   1.184   9.040
 1041POPC   GL216814  40.786   1.547   9.133
 1041POPC   C1A16815  41.022   1.064   8.650
 1041POPC   D2A16816  41.151   0.869   8.250
 1041POPC   C3A16817  40.885   1.010   7.958
 1041POPC   C4A16818  40.643   1.075   7.602
 1041POPC   C1B16819  40.805   1.547   8.688
 1041POPC   C2B16820  40.679   1.386   8.309
 1041POPC   C3B16821  40.742   1.494   7.889
 1041POPC   C4B16822  40.468   1.622   7.586
 1042POPC   NC316823  18.733  36.111   9.851
 1042POPC   PO416824  18.136  36.186   9.639
 1042POPC   GL116825  18.192  36.087   9.191
 1042POPC   GL216826  18.500  35.911   9.145
 1042POPC   C1A16827  18.005  35.984   8.783
 1042POPC   D2A16828  18.029  36.230   8.404
 1042POPC   C3A16829  18.164  36.111   7.996
 1042POPC   C4A16830  18.520  36.191   7.716
 1042POPC   C1B16831  18.496  36.112   8.690
 1042POPC   C2B16832  18.636  36.028   8.244
 1042POPC   C3B16833  18.764  35.779   7.875
 1042POPC   C4B16834  18.677  35.784   7.410
 1043POPC   NC316835  41.661   9.980   9.710
 1043POPC   PO416836  41.136   9.655   9.657
 1043POPC   GL116837  41.431   9.853   9.268
 1043POPC   GL216838  41.694   9.664   9.115
 1043POPC   C1A16839  41.629  10.090   8.858
 1043POPC   D2A16840  41.862   9.956   8.473
 1043POPC   C3A16841  41.669   9.931   8.052
 1043POPC   C4A16842  41.717  10.143   7.664
 1043POPC   C1B16843  41.482   9.507   8.790
 1043POPC   C2B16844  41.624   9.413   8.416
 1043POPC   C3B16845  41.449   9.459   8.055
 1043POPC   C4B16846  41.461   9.318   7.682
 1044POPC   NC316847  14.784  14.689   9.417
 1044POPC   PO416848  15.388  14.520   9.645
 1044POPC   GL116849  15.457  14.324   9.211
 1044POPC   GL216850  15.076  14.221   9.102
 1044POPC   C1A16851  15.415  14.392   8.770
 1044POPC   D2A16852  15.157  14.244   8.450
 1044POPC   C3A16853  15.346  14.296   8.027
 1044POPC   C4A16854  15.406  14.140   7.604
 1044POPC   C1B16855  14.793  14.452   8.809
 1044POPC   C2B16856  14.669  14.517   8.394
 1044POPC   C3B16857  14.829  14.301   8.056
 1044POPC   C4B16858  14.925  14.327   7.665
 1045POPC   NC316859  11.932   9.285   9.408
 1045POPC   PO416860  11.995   9.910   9.592
 1045POPC   GL116861  12.134   9.752   9.208
 1045POPC   GL216862  12.306  10.036   9.173
 1045POPC   C1A16863  12.114   9.688   8.771
 1045POPC   D2A16864  11.836   9.785   8.441
 1045POPC   C3A16865  12.054   9.781   8.069
 1045POPC   C4A16866  11.991   9.563   7.664
 1045POPC   C1B16867  12.154  10.211   8.827
 1045POPC   C2B16868  12.202  10.159   8.422
 1045POPC   C3B16869  12.373  10.221   8.023
 1045POPC   C4B16870  12.315   9.991   7.664
 1046POPC   NC316871  26.437  39.079   9.489
 1046POPC   PO416872  26.035  39.660   9.477
 1046POPC   GL116873  25.877  39.429   9.135
 1046POPC   GL216874  26.186  39.269   9.084
 1046POPC   C1A16875  25.575  39.304   8.807
 1046POPC   D2A16876  25.684  39.211   8.356
 1046POPC   C3A16877  26.021  39.518   8.154
 1046POPC   C4A16878  25.885  39.488   7.679
 1046POPC   C1B16879  26.024  39.105   8.728
 1046POPC   C2B16880  26.158  39.026   8.339
 1046POPC   C3B16881  26.007  39.070   7.964
 1046POPC   C4B16882  26.203  39.082   7.579
 1047POPC   NC316883  29.551  18.785   9.516
 1047POPC   PO416884  29.931  19.298   9.518
 1047POPC   GL116885  29.716  19.261   9.153
 1047POPC   GL216886  29.789  18.964   9.091
 1047POPC   C1A16887  29.895  19.295   8.732
 1047POPC   D2A16888  29.762  19.148   8.346
 1047POPC   C3A16889  29.952  19.240   7.994
 1047POPC   C4A16890  29.817  19.182   7.605
 1047POPC   C1B16891  29.996  18.788   8.698
 1047POPC   C2B16892  29.960  18.663   8.248
 1047POPC   C3B16893  30.021  18.743   7.791
 1047POPC   C4B16894  30.058  18.844   7.310
 1048POPC   NC316895  12.228  24.878   9.178
 1048POPC   PO416896  12.003  24.212   9.414
 1048POPC   GL116897  12.056  24.226   9.000
 1048POPC   GL216898  12.370  24.376   9.036
 1048POPC   C1A16899  11.968  24.462   8.635
 1048POPC   D2A16900  11.793  24.747   8.328
 1048POPC   C3A16901  11.853  24.559   7.917
 1048POPC   C4A16902  12.161  24.317   7.666
 1048POPC   C1B16903  12.485  24.542   8.628
 1048POPC   C2B16904  12.278  24.551   8.225
 1048POPC   C3B16905  12.348  24.768   7.859
 1048POPC   C4B16906  12.488  24.713   7.459
 1049POPC   NC316907  20.964   9.162   9.373
 1049POPC   PO416908  20.352   8.938   9.456
 1049POPC   GL116909  20.477   9.113   9.093
 1049POPC   GL216910  20.750   8.851   8.995
 1049POPC   C1A16911  20.449   9.062   8.656
 1049POPC   D2A16912  20.722   8.796   8.427
 1049POPC   C3A16913  20.661   8.880   7.994
 1049POPC   C4A16914  20.308   9.176   7.980
 1049POPC   C1B16915  20.425   8.559   8.771
 1049POPC   C2B16916  20.262   8.605   8.320
 1049POPC   C3B16917  20.348   8.466   7.871
 1049POPC   C4B16918  20.489   8.558   7.431
 1050POPC   NC316919  42.967  17.030   9.547
 1050POPC   PO416920  43.442  17.425   9.697
 1050POPC   GL116921  43.341  17.360   9.194
 1050POPC   GL216922  43.131  17.114   9.071
 1050POPC   C1A16923  43.269  17.656   8.820
 1050POPC   D2A16924  42.956  17.898   8.532
 1050POPC   C3A16925  42.993  17.909   8.057
 1050POPC   C4A16926  43.225  17.763   7.669
 1050POPC   C1B16927  43.194  17.192   8.635
 1050POPC   C2B16928  43.503  17.177   8.299
 1050POPC   C3B16929  43.412  17.349   7.894
 1050POPC   C4B16930  42.977  17.280   7.741
 1051POPC   NC316931   4.078  28.188   9.223
 1051POPC   PO416932   4.730  28.282   9.279
 1051POPC   GL116933   4.437  28.490   8.985
 1051POPC   GL216934   4.074  28.564   8.877
 1051POPC   C1A16935   4.439  28.363   8.563
 1051POPC   D2A16936   4.736  28.073   8.397
 1051POPC   C3A16937   4.732  28.140   8.016
 1051POPC   C4A16938   4.476  28.276   7.685
 1051POPC   C1B16939   3.924  28.292   8.556
 1051POPC   C2B16940   4.067  28.270   8.122
 1051POPC   C3B16941   3.981  28.055   7.722
 1051POPC   C4B16942   3.804  27.980   7.270
 1052POPC   NC316943  39.396   1.433   9.557
 1052POPC   PO416944  38.755   1.300   9.495
 1052POPC   GL116945  39.142   1.163   9.198
 1052POPC   GL216946  39.291   1.455   9.051
 1052POPC   C1A16947  39.381   1.013   8.807
 1052POPC   D2A16948  39.408   1.204   8.375
 1052POPC   C3A16949  39.324   1.021   7.998
 1052POPC   C4A16950  39.238   1.359   7.703
 1052POPC   C1B16951  39.638   1.460   8.756
 1052POPC   C2B16952  39.794   1.538   8.338
 1052POPC   C3B16953  39.701   1.436   7.899
 1052POPC   C4B16954  39.653   1.435   7.407
 1053POPC   NC316955  30.281   8.560   9.445
 1053POPC   PO416956  29.871   8.063   9.740
 1053POPC   GL116957  29.943   8.090   9.253
 1053POPC   GL216958  29.967   8.417   9.071
 1053POPC   C1A16959  29.789   8.023   8.808
 1053POPC   D2A16960  29.770   8.225   8.416
 1053POPC   C3A16961  29.954   8.083   8.041
 1053POPC   C4A16962  29.887   7.793   7.704
 1053POPC   C1B16963  29.989   8.643   8.660
 1053POPC   C2B16964  29.982   8.646   8.198
 1053POPC   C3B16965  29.859   8.548   7.787
 1053POPC   C4B16966  30.049   8.260   7.544
 1054POPC   NC316967  25.152  27.929   9.798
 1054POPC   PO416968  24.760  28.289   9.348
 1054POPC   GL116969  24.886  28.332   8.975
 1054POPC   GL216970  25.194  28.430   9.057
 1054POPC   C1A16971  24.879  28.395   8.550
 1054POPC   D2A16972  24.930  28.101   8.238
 1054POPC   C3A16973  25.064  28.373   7.905
 1054POPC   C4A16974  25.061  28.776   7.742
 1054POPC   C1B16975  25.314  28.165   8.722
 1054POPC   C2B16976  25.420  28.283   8.333
 1054POPC   C3B16977  25.566  28.358   7.938
 1054POPC   C4B16978  25.518  28.094   7.591
 1055POPC   NC316979  30.056  17.248   9.360
 1055POPC   PO416980  29.694  17.777   9.535
 1055POPC   GL116981  29.830  17.662   9.122
 1055POPC   GL216982  30.195  17.671   9.119
 1055POPC   C1A16983  29.772  17.377   8.728
 1055POPC   D2A16984  29.671  17.312   8.270
 1055POPC   C3A16985  29.711  17.737   8.106
 1055POPC   C4A16986  29.696  17.891   7.706
 1055POPC   C1B16987  30.287  17.368   8.736
 1055POPC   C2B16988  30.175  17.431   8.276
 1055POPC   C3B16989  30.011  17.425   7.832
 1055POPC   C4B16990  30.140  17.172   7.455
 1056POPC   NC316991  43.968  23.486   9.578
 1056POPC   PO416992  43.600  24.039   9.437
 1056POPC   GL116993  43.839  23.790   9.142
 1056POPC   GL216994  43.712  23.448   9.133
 1056POPC   C1A16995  43.990  23.621   8.745
 1056POPC   D2A16996  43.881  23.494   8.345
 1056POPC   C3A16997  43.903  23.838   8.094
 1056POPC   C4A16998  43.945  23.933   7.701
 1056POPC   C1B16999  43.489  23.466   8.731
 1056POPC   C2B17000  43.249  23.301   8.362
 1056POPC   C3B17001  43.377  23.385   7.969
 1056POPC   C4B17002  43.794  23.413   7.811
 1057POPC   NC317003  10.309  38.940   9.485
 1057POPC   PO417004  10.636  39.516   9.377
 1057POPC   GL117005  10.582  39.134   9.069
 1057POPC   GL217006  10.251  38.949   8.982
 1057POPC   C1A17007  10.774  39.161   8.651
 1057POPC   D2A17008  10.692  39.124   8.224
 1057POPC   C3A17009  10.882  39.369   7.899
 1057POPC   C4A17010  10.695  39.104   7.591
 1057POPC   C1B17011  10.277  39.100   8.581
 1057POPC   C2B17012  10.318  39.460   8.308
 1057POPC   C3B17013  10.335  39.323   7.869
 1057POPC   C4B17014  10.285  39.290   7.393
 1058POPC   NC317015  37.789   3.057   9.302
 1058POPC   PO417016  37.457   2.413   9.495
 1058POPC   GL117017  37.439   2.688   9.191
 1058POPC   GL217018  37.721   2.589   9.074
 1058POPC   C1A17019  37.405   2.867   8.758
 1058POPC   D2A17020  37.475   3.167   8.426
 1058POPC   C3A17021  37.463   3.028   8.012
 1058POPC   C4A17022  37.848   3.121   7.867
 1058POPC   C1B17023  37.936   2.736   8.717
 1058POPC   C2B17024  37.804   2.778   8.310
 1058POPC   C3B17025  37.850   2.582   7.922
 1058POPC   C4B17026  38.018   2.395   7.516
 1059POPC   NC317027  39.709  10.027   9.561
 1059POPC   PO417028  39.833  10.665   9.598
 1059POPC   GL117029  39.826  10.589   9.174
 1059POPC   GL217030  39.952  10.257   9.143
 1059POPC   C1A17031  40.039  10.712   8.793
 1059POPC   D2A17032  39.925  10.998   8.446
 1059POPC   C3A17033  39.911  10.829   8.036
 1059POPC   C4A17034  40.290  10.627   7.861
 1059POPC   C1B17035  39.800  10.189   8.736
 1059POPC   C2B17036  39.873  10.439   8.384
 1059POPC   C3B17037  39.897  10.315   7.977
 1059POPC   C4B17038  39.784  10.099   7.616
 1060POPC   NC317039  42.068  24.667   9.453
 1060POPC   PO417040  42.624  24.199   9.594
 1060POPC   GL117041  42.408  24.217   9.191
 1060POPC   GL217042  42.446  24.531   9.109
 1060POPC   C1A17043  42.334  24.209   8.713
 1060POPC   D2A17044  42.155  24.398   8.305
 1060POPC   C3A17045  42.268  24.315   7.890
 1060POPC   C4A17046  42.398  23.960   7.702
 1060POPC   C1B17047  42.229  24.717   8.767
 1060POPC   C2B17048  42.203  24.910   8.361
 1060POPC   C3B17049  42.138  24.813   7.912
 1060POPC   C4B17050  42.145  24.780   7.435
 1061POPC   NC317051   4.313  42.518   9.558
 1061POPC   PO417052   4.005  41.916   9.401
 1061POPC   GL117053   4.139  42.294   9.132
 1061POPC   GL217054   4.107  42.682   9.100
 1061POPC   C1A17055   4.311  42.355   8.736
 1061POPC   D2A17056   4.137  42.264   8.341
 1061POPC   C3A17057   4.338  42.342   7.964
 1061POPC   C4A17058   4.077  42.304   7.612
 1061POPC   C1B17059   4.277  42.868   8.667
 1061POPC   C2B17060   4.263  42.851   8.160
 1061POPC   C3B17061   4.323  42.760   7.681
 1061POPC   C4B17062   4.450  42.643   7.243
 1062POPC   NC317063  31.659   8.400   9.794
 1062POPC   PO417064  31.391   7.871   9.516
 1062POPC   GL117065  31.349   8.086   9.127
 1062POPC   GL217066  31.535   8.409   9.099
 1062POPC   C1A17067  31.356   8.035   8.674
 1062POPC   D2A17068  31.331   7.790   8.290
 1062POPC   C3A17069  31.071   8.034   8.014
 1062POPC   C4A17070  31.228   8.408   7.847
 1062POPC   C1B17071  31.824   8.241   8.801
 1062POPC   C2B17072  31.846   8.216   8.357
 1062POPC   C3B17073  31.684   8.177   7.946
 1062POPC   C4B17074  31.851   8.304   7.568
 1063POPC   NC317075  22.666  33.830   9.908
 1063POPC   PO417076  23.256  33.606   9.554
 1063POPC   GL117077  23.051  33.757   9.166
 1063POPC   GL217078  22.966  34.085   9.178
 1063POPC   C1A17079  22.913  33.652   8.767
 1063POPC   D2A17080  22.707  33.685   8.407
 1063POPC   C3A17081  22.890  33.516   8.082
 1063POPC   C4A17082  22.926  33.667   7.665
 1063POPC   C1B17083  23.240  34.066   8.817
 1063POPC   C2B17084  23.195  34.162   8.422
 1063POPC   C3B17085  23.111  33.995   8.066
 1063POPC   C4B17086  23.350  34.140   7.766
 1064POPC   NC317087  43.882   7.764   9.433
 1064POPC   PO417088  44.120   7.099   9.488
 1064POPC   GL117089  43.873   7.288   9.169
 1064POPC   GL217090  43.543   7.166   9.145
 1064POPC   C1A17091  43.930   7.482   8.761
 1064POPC   D2A17092  43.924   7.285   8.343
 1064POPC   C3A17093  44.031   7.503   8.012
 1064POPC   C4A17094  43.872   7.320   7.679
 1064POPC   C1B17095  43.483   7.223   8.709
 1064POPC   C2B17096  43.445   7.508   8.368
 1064POPC   C3B17097  43.482   7.525   7.924
 1064POPC   C4B17098  43.605   7.711   7.530
 1065POPC   NC317099   6.279  19.721   9.515
 1065POPC   PO417100   5.810  20.139   9.754
 1065POPC   GL117101   5.694  20.035   9.235
 1065POPC   GL217102   5.886  19.730   9.185
 1065POPC   C1A17103   5.817  20.043   8.774
 1065POPC   D2A17104   5.941  19.801   8.381
 1065POPC   C3A17105   5.739  19.875   7.996
 1065POPC   C4A17106   5.652  20.197   7.694
 1065POPC   C1B17107   6.077  19.578   8.809
 1065POPC   C2B17108   6.329  19.443   8.459
 1065POPC   C3B17109   6.256  19.532   8.000
 1065POPC   C4B17110   6.238  19.289   7.609
 1066POPC   NC317111  13.031  43.339   9.382
 1066POPC   PO417112  12.743  42.651   9.349
 1066POPC   GL117113  12.933  42.864   9.022
 1066POPC   GL217114  12.757  43.199   8.996
 1066POPC   C1A17115  12.955  42.982   8.577
 1066POPC   D2A17116  12.999  43.392   8.355
 1066POPC   C3A17117  13.087  43.242   7.946
 1066POPC   C4A17118  13.038  42.769   7.880
 1066POPC   C1B17119  12.478  42.937   8.791
 1066POPC   C2B17120  12.411  42.901   8.412
 1066POPC   C3B17121  12.610  43.118   8.135
 1066POPC   C4B17122  12.647  43.078   7.741
 1067POPC   NC317123  38.445  27.287   9.745
 1067POPC   PO417124  38.555  26.663   9.628
 1067POPC   GL117125  38.300  26.770   9.255
 1067POPC   GL217126  38.119  27.057   9.170
 1067POPC   C1A17127  38.423  26.703   8.822
 1067POPC   D2A17128  38.531  26.898   8.426
 1067POPC   C3A17129  38.499  26.643   8.069
 1067POPC   C4A17130  38.546  26.836   7.673
 1067POPC   C1B17131  38.307  27.199   8.787
 1067POPC   C2B17132  38.280  27.332   8.344
 1067POPC   C3B17133  38.181  27.028   8.017
 1067POPC   C4B17134  38.009  27.112   7.618
 1068POPC   NC317135   5.313  34.332   9.416
 1068POPC   PO417136   4.779  34.816   9.412
 1068POPC   GL117137   4.972  34.571   9.061
 1068POPC   GL217138   5.050  34.209   8.993
 1068POPC   C1A17139   4.955  34.537   8.602
 1068POPC   D2A17140   4.691  34.646   8.253
 1068POPC   C3A17141   4.858  34.692   7.872
 1068POPC   C4A17142   5.254  34.843   7.704
 1068POPC   C1B17143   5.404  34.348   8.760
 1068POPC   C2B17144   5.458  34.665   8.441
 1068POPC   C3B17145   5.491  34.543   8.042
 1068POPC   C4B17146   5.235  34.329   7.759
 1069POPC   NC317147  38.109   0.663   9.363
 1069POPC   PO417148  38.693   0.302   9.512
 1069POPC   GL117149  38.527   0.472   9.145
 1069POPC   GL217150  38.266   0.268   9.083
 1069POPC   C1A17151  38.487   0.538   8.708
 1069POPC   D2A17152  38.710   0.595   8.345
 1069POPC   C3A17153  38.486   0.855   8.094
 1069POPC   C4A17154  38.220   0.663   7.837
 1069POPC   C1B17155  38.039   0.278   8.712
 1069POPC   C2B17156  38.074   0.422   8.286
 1069POPC   C3B17157  37.989   0.211   7.881
 1069POPC   C4B17158  38.076   0.148   7.412
 1070POPC   NC317159   6.775  31.141   9.558
 1070POPC   PO417160   6.407  31.589   9.439
 1070POPC   GL117161   6.565  31.349   9.137
 1070POPC   GL217162   6.945  31.382   9.144
 1070POPC   C1A17163   6.651  31.352   8.737
 1070POPC   D2A17164   6.606  31.542   8.349
 1070POPC   C3A17165   6.823  31.812   8.085
 1070POPC   C4A17166   6.804  31.630   7.669
 1070POPC   C1B17167   7.124  31.165   8.774
 1070POPC   C2B17168   6.886  31.083   8.388
 1070POPC   C3B17169   6.924  31.265   8.013
 1070POPC   C4B17170   6.888  31.092   7.620
 1071POPC   NC317171   0.261  19.536   9.450
 1071POPC   PO417172   0.663  20.177   9.473
 1071POPC   GL117173   0.457  20.176   9.101
 1071POPC   GL217174   0.482  19.829   9.069
 1071POPC   C1A17175   0.590  20.157   8.653
 1071POPC   D2A17176   0.451  20.008   8.244
 1071POPC   C3A17177   0.739  20.044   7.896
 1071POPC   C4A17178   0.598  20.067   7.435
 1071POPC   C1B17179   0.194  19.850   8.707
 1071POPC   C2B17180   0.035  19.645   8.343
 1071POPC   C3B17181  44.973  19.761   7.896
 1071POPC   C4B17182  44.909  19.633   7.461
 1072POPC   NC317183  31.727  32.730   9.468
 1072POPC   PO417184  31.226  33.094   9.424
 1072POPC   GL117185  31.460  32.979   9.111
 1072POPC   GL217186  31.396  32.633   9.093
 1072POPC   C1A17187  31.364  32.974   8.719
 1072POPC   D2A17188  31.415  33.213   8.427
 1072POPC   C3A17189  31.124  33.174   8.128
 1072POPC   C4A17190  31.221  33.170   7.704
 1072POPC   C1B17191  31.701  32.602   8.783
 1072POPC   C2B17192  31.768  32.846   8.415
 1072POPC   C3B17193  31.549  32.884   8.048
 1072POPC   C4B17194  31.593  32.805   7.643
 1073POPC   NC317195   6.032  39.421   9.498
 1073POPC   PO417196   5.650  38.871   9.672
 1073POPC   GL117197   5.862  39.068   9.208
 1073POPC   GL217198   6.123  39.006   9.030
 1073POPC   C1A17199   5.739  39.354   8.817
 1073POPC   D2A17200   5.818  39.576   8.398
 1073POPC   C3A17201   5.553  39.453   8.020
 1073POPC   C4A17202   5.652  39.238   7.608
 1073POPC   C1B17203   6.207  39.230   8.652
 1073POPC   C2B17204   6.242  39.302   8.224
 1073POPC   C3B17205   6.065  39.104   7.881
 1073POPC   C4B17206   6.112  38.962   7.450
 1074POPC   NC317207  33.631  19.861   9.567
 1074POPC   PO417208  34.237  19.671   9.353
 1074POPC   GL117209  33.918  19.670   9.074
 1074POPC   GL217210  33.823  20.004   9.119
 1074POPC   C1A17211  33.888  19.826   8.651
 1074POPC   D2A17212  34.046  20.125   8.361
 1074POPC   C3A17213  33.889  19.951   7.996
 1074POPC   C4A17214  33.954  19.660   7.679
 1074POPC   C1B17215  33.470  20.073   8.806
 1074POPC   C2B17216  33.542  20.179   8.395
 1074POPC   C3B17217  33.406  20.071   8.008
 1074POPC   C4B17218  33.555  19.980   7.588
 1075POPC   NC317219  11.848  21.295   9.738
 1075POPC   PO417220  11.375  21.562   9.357
 1075POPC   GL117221  11.324  21.420   8.984
 1075POPC   GL217222  11.499  21.106   9.049
 1075POPC   C1A17223  11.276  21.655   8.632
 1075POPC   D2A17224  11.013  21.716   8.288
 1075POPC   C3A17225  11.214  21.785   7.889
 1075POPC   C4A17226  11.258  21.597   7.431
 1075POPC   C1B17227  11.606  21.195   8.618
 1075POPC   C2B17228  11.478  21.413   8.225
 1075POPC   C3B17229  11.319  21.280   7.838
 1075POPC   C4B17230  11.528  21.179   7.445
 1076POPC   NC317231  32.591   3.969   9.474
 1076POPC   PO417232  31.862   4.191   9.524
 1076POPC   GL117233  32.126   4.239   9.167
 1076POPC   GL217234  32.439   4.403   9.237
 1076POPC   C1A17235  32.205   4.105   8.744
 1076POPC   D2A17236  32.218   4.341   8.375
 1076POPC   C3A17237  32.217   4.162   7.961
 1076POPC   C4A17238  32.093   4.281   7.535
 1076POPC   C1B17239  32.555   4.450   8.799
 1076POPC   C2B17240  32.724   4.487   8.416
 1076POPC   C3B17241  32.643   4.667   8.051
 1076POPC   C4B17242  32.529   4.480   7.686
 1077POPC   NC317243   2.048  39.505   9.554
 1077POPC   PO417244   1.473  39.039   9.419
 1077POPC   GL117245   1.838  39.245   9.170
 1077POPC   GL217246   1.798  39.597   9.096
 1077POPC   C1A17247   2.121  39.186   8.785
 1077POPC   D2A17248   2.245  39.004   8.399
 1077POPC   C3A17249   2.034  39.046   7.964
 1077POPC   C4A17250   1.689  39.204   7.661
 1077POPC   C1B17251   2.059  39.682   8.758
 1077POPC   C2B17252   2.219  39.549   8.405
 1077POPC   C3B17253   2.091  39.548   8.002
 1077POPC   C4B17254   2.158  39.373   7.589
 1078POPC   NC317255  13.023  10.708   9.329
 1078POPC   PO417256  12.627  10.218   9.604
 1078POPC   GL117257  12.561  10.459   9.217
 1078POPC   GL217258  12.802  10.253   9.085
 1078POPC   C1A17259  12.552  10.532   8.741
 1078POPC   D2A17260  12.744  10.843   8.442
 1078POPC   C3A17261  12.760  10.723   7.990
 1078POPC   C4A17262  13.107  10.781   7.690
 1078POPC   C1B17263  13.040  10.398   8.701
 1078POPC   C2B17264  12.859  10.343   8.305
 1078POPC   C3B17265  13.133  10.327   7.948
 1078POPC   C4B17266  13.193   9.998   7.669
 1079POPC   NC317267  21.640   4.844   9.621
 1079POPC   PO417268  20.990   5.035   9.492
 1079POPC   GL117269  21.246   5.036   9.141
 1079POPC   GL217270  21.578   4.877   9.099
 1079POPC   C1A17271  21.190   4.906   8.716
 1079POPC   D2A17272  21.150   4.831   8.299
 1079POPC   C3A17273  21.408   4.930   7.968
 1079POPC   C4A17274  21.302   5.158   7.605
 1079POPC   C1B17275  21.573   5.243   8.786
 1079POPC   C2B17276  21.503   5.286   8.328
 1079POPC   C3B17277  21.684   5.376   7.890
 1079POPC   C4B17278  21.665   5.498   7.433
 1080POPC   NC317279  29.413  39.228   9.586
 1080POPC   PO417280  28.889  38.879   9.464
 1080POPC   GL117281  29.141  39.051   9.131
 1080POPC   GL217282  29.453  39.262   9.088
 1080POPC   C1A17283  28.959  39.203   8.748
 1080POPC   D2A17284  29.001  39.023   8.355
 1080POPC   C3A17285  28.973  39.366   8.124
 1080POPC   C4A17286  28.954  39.478   7.744
 1080POPC   C1B17287  29.437  39.089   8.669
 1080POPC   C2B17288  29.451  39.386   8.319
 1080POPC   C3B17289  29.431  39.343   7.889
 1080POPC   C4B17290  29.335  38.911   7.821
 1081POPC   NC317291  17.008  32.624   9.546
 1081POPC   PO417292  16.857  33.236   9.533
 1081POPC   GL117293  16.742  33.232   9.132
 1081POPC   GL217294  16.752  32.874   9.162
 1081POPC   C1A17295  16.849  33.314   8.720
 1081POPC   D2A17296  16.732  33.107   8.365
 1081POPC   C3A17297  16.659  33.281   7.982
 1081POPC   C4A17298  16.565  33.114   7.622
 1081POPC   C1B17299  16.594  32.781   8.780
 1081POPC   C2B17300  16.661  32.612   8.361
 1081POPC   C3B17301  16.746  32.737   7.959
 1081POPC   C4B17302  16.749  32.542   7.578
 1082POPC   NC317303   8.853  31.051   9.501
 1082POPC   PO417304   9.208  30.484   9.453
 1082POPC   GL117305   8.961  30.640   9.141
 1082POPC   GL217306   9.138  30.949   9.077
 1082POPC   C1A17307   9.100  30.450   8.743
 1082POPC   D2A17308   9.327  30.398   8.355
 1082POPC   C3A17309   9.110  30.476   7.972
 1082POPC   C4A17310   8.711  30.492   7.777
 1082POPC   C1B17311   8.859  30.906   8.718
 1082POPC   C2B17312   8.690  31.036   8.342
 1082POPC   C3B17313   8.939  30.966   8.000
 1082POPC   C4B17314   9.063  30.875   7.600
 1083POPC   NC317315   7.971  40.267   9.491
 1083POPC   PO417316   8.243  39.617   9.455
 1083POPC   GL117317   8.237  39.805   9.075
 1083POPC   GL217318   8.319  40.141   9.103
 1083POPC   C1A17319   8.290  39.706   8.667
 1083POPC   D2A17320   8.406  39.668   8.261
 1083POPC   C3A17321   8.112  39.748   7.981
 1083POPC   C4A17322   7.979  40.080   7.725
 1083POPC   C1B17323   8.138  40.208   8.658
 1083POPC   C2B17324   8.081  40.338   8.216
 1083POPC   C3B17325   7.954  40.562   7.871
 1083POPC   C4B17326   7.922  40.492   7.407
 1084POPC   NC317327  17.033  42.887   9.587
 1084POPC   PO417328  16.305  43.017   9.669
 1084POPC   GL117329  16.533  42.869   9.254
 1084POPC   GL217330  16.856  43.039   9.145
 1084POPC   C1A17331  16.526  42.900   8.760
 1084POPC   D2A17332  16.540  43.274   8.440
 1084POPC   C3A17333  16.641  43.227   7.992
 1084POPC   C4A17334  16.374  42.894   7.798
 1084POPC   C1B17335  17.027  42.922   8.737
 1084POPC   C2B17336  16.889  42.920   8.306
 1084POPC   C3B17337  16.899  42.784   7.842
 1084POPC   C4B17338  17.101  42.841   7.414
 1085POPC   NC317339  19.356   0.877   9.303
 1085POPC   PO417340  18.849   1.194   9.652
 1085POPC   GL117341  18.994   1.253   9.187
 1085POPC   GL217342  19.073   1.600   9.059
 1085POPC   C1A17343  18.836   1.249   8.755
 1085POPC   D2A17344  18.590   1.015   8.472
 1085POPC   C3A17345  18.775   1.106   8.070
 1085POPC   C4A17346  18.866   1.360   7.688
 1085POPC   C1B17347  19.257   1.530   8.680
 1085POPC   C2B17348  19.146   1.421   8.275
 1085POPC   C3B17349  19.396   1.550   7.934
 1085POPC   C4B17350  19.377   1.542   7.495
 1086POPC   NC317351  28.362  35.775   9.575
 1086POPC   PO417352  28.649  36.393   9.471
 1086POPC   GL117353  28.303  36.377   9.162
 1086POPC   GL217354  28.102  36.104   9.241
 1086POPC   C1A17355  28.385  36.204   8.758
 1086POPC   D2A17356  28.607  36.404   8.422
 1086POPC   C3A17357  28.507  36.220   8.020
 1086POPC   C4A17358  28.331  36.335   7.642
 1086POPC   C1B17359  27.929  35.926   8.864
 1086POPC   C2B17360  27.955  35.867   8.418
 1086POPC   C3B17361  27.727  35.773   8.034
 1086POPC   C4B17362  27.891  35.994   7.698
 1087POPC   NC317363  27.358  31.345   9.437
 1087POPC   PO417364  27.758  31.744   9.549
 1087POPC   GL117365  27.663  31.583   9.109
 1087POPC   GL217366  27.524  31.253   8.971
 1087POPC   C1A17367  27.891  31.508   8.750
 1087POPC   D2A17368  27.855  31.250   8.419
 1087POPC   C3A17369  27.765  31.352   7.996
 1087POPC   C4A17370  27.992  31.450   7.635
 1087POPC   C1B17371  27.349  31.499   8.642
 1087POPC   C2B17372  27.070  31.472   8.280
 1087POPC   C3B17373  27.206  31.552   7.860
 1087POPC   C4B17374  27.498  31.362   7.561
 1088POPC   NC317375   3.323   9.976   9.515
 1088POPC   PO417376   3.275   9.269   9.534
 1088POPC   GL117377   3.426   9.566   9.208
 1088POPC   GL217378   3.737   9.750   9.322
 1088POPC   C1A17379   3.339   9.683   8.754
 1088POPC   D2A17380   3.266   9.534   8.300
 1088POPC   C3A17381   3.402   9.751   7.911
 1088POPC   C4A17382   3.745   9.561   7.658
 1088POPC   C1B17383   3.802   9.972   8.940
 1088POPC   C2B17384   3.713   9.962   8.510
 1088POPC   C3B17385   3.839   9.823   8.125
 1088POPC   C4B17386   3.870  10.075   7.794
 1089POPC   NC317387  37.538   9.066   9.372
 1089POPC   PO417388  38.056   8.687   9.480
 1089POPC   GL117389  37.908   8.874   9.098
 1089POPC   GL217390  37.968   9.240   9.138
 1089POPC   C1A17391  37.670   9.015   8.740
 1089POPC   D2A17392  37.785   8.960   8.347
 1089POPC   C3A17393  37.504   9.104   8.063
 1089POPC   C4A17394  37.445   9.043   7.663
 1089POPC   C1B17395  38.141   9.196   8.706
 1089POPC   C2B17396  38.117   9.309   8.234
 1089POPC   C3B17397  37.937   9.220   7.817
 1089POPC   C4B17398  38.084   9.347   7.405
 1090POPC   NC317399  23.408  17.407   9.859
 1090POPC   PO417400  23.941  17.554   9.460
 1090POPC   GL117401  23.768  17.381   9.146
 1090POPC   GL217402  23.402  17.416   9.251
 1090POPC   C1A17403  23.870  17.604   8.761
 1090POPC   D2A17404  24.111  17.685   8.389
 1090POPC   C3A17405  23.811  17.760   8.079
 1090POPC   C4A17406  23.815  17.962   7.693
 1090POPC   C1B17407  23.373  17.427   8.830
 1090POPC   C2B17408  23.468  17.642   8.456
 1090POPC   C3B17409  23.315  17.603   8.060
 1090POPC   C4B17410  23.530  17.535   7.695
 1091POPC   NC317411  44.049  29.944   9.454
 1091POPC   PO417412  43.385  29.924   9.415
 1091POPC   GL117413  43.629  29.983   9.083
 1091POPC   GL217414  43.794  29.681   9.123
 1091POPC   C1A17415  43.667  30.291   8.727
 1091POPC   D2A17416  43.932  30.257   8.392
 1091POPC   C3A17417  43.799  30.126   7.999
 1091POPC   C4A17418  44.114  30.091   7.697
 1091POPC   C1B17419  43.987  29.860   8.755
 1091POPC   C2B17420  43.917  29.701   8.362
 1091POPC   C3B17421  43.995  29.631   7.966
 1091POPC   C4B17422  43.993  29.376   7.564
 1092POPC   NC317423   4.844  37.028   9.462
 1092POPC   PO417424   5.255  36.463   9.595
 1092POPC   GL117425   5.209  36.698   9.212
 1092POPC   GL217426   5.354  37.050   9.155
 1092POPC   C1A17427   5.257  36.629   8.775
 1092POPC   D2A17428   5.157  36.855   8.383
 1092POPC   C3A17429   5.270  36.773   7.940
 1092POPC   C4A17430   4.906  36.653   7.709
 1092POPC   C1B17431   5.035  37.118   8.828
 1092POPC   C2B17432   4.822  37.247   8.448
 1092POPC   C3B17433   4.836  37.121   8.025
 1092POPC   C4B17434   5.021  37.162   7.620
 1093POPC   NC317435   8.447  10.212   9.588
 1093POPC   PO417436   8.345  10.849   9.574
 1093POPC   GL117437   8.120  10.676   9.208
 1093POPC   GL217438   8.133  10.328   9.216
 1093POPC   C1A17439   8.183  10.571   8.757
 1093POPC   D2A17440   8.538  10.548   8.468
 1093POPC   C3A17441   8.385  10.775   8.100
 1093POPC   C4A17442   8.199  10.592   7.731
 1093POPC   C1B17443   8.388  10.127   8.901
 1093POPC   C2B17444   8.331  10.032   8.509
 1093POPC   C3B17445   8.312  10.250   8.122
 1093POPC   C4B17446   8.546  10.219   7.739
 1094POPC   NC317447  14.243  17.348   9.434
 1094POPC   PO417448  14.606  17.774   9.485
 1094POPC   GL117449  14.432  17.632   9.059
 1094POPC   GL217450  14.070  17.630   9.037
 1094POPC   C1A17451  14.354  17.372   8.679
 1094POPC   D2A17452  14.214  17.418   8.247
 1094POPC   C3A17453  14.506  17.253   7.900
 1094POPC   C4A17454  14.871  17.341   7.588
 1094POPC   C1B17455  13.985  17.745   8.588
 1094POPC   C2B17456  13.913  17.827   8.137
 1094POPC   C3B17457  14.118  17.635   7.775
 1094POPC   C4B17458  14.067  17.728   7.297
 1095POPC   NC317459   3.748  22.605   9.353
 1095POPC   PO417460   3.229  23.026   9.459
 1095POPC   GL117461   3.381  22.852   9.071
 1095POPC   GL217462   3.549  23.149   9.075
 1095POPC   C1A17463   3.637  22.827   8.660
 1095POPC   D2A17464   3.604  23.162   8.303
 1095POPC   C3A17465   3.528  23.026   7.896
 1095POPC   C4A17466   3.616  22.574   7.770
 1095POPC   C1B17467   3.777  23.298   8.772
 1095POPC   C2B17468   4.069  23.120   8.505
 1095POPC   C3B17469   4.111  23.032   8.090
 1095POPC   C4B17470   3.973  23.035   7.689
 1096POPC   NC317471  10.180   6.791   9.481
 1096POPC   PO417472  10.756   6.441   9.527
 1096POPC   GL117473  10.670   6.681   9.191
 1096POPC   GL217474  10.333   6.637   9.020
 1096POPC   C1A17475  10.773   6.728   8.772
 1096POPC   D2A17476  10.435   6.654   8.485
 1096POPC   C3A17477  10.498   6.805   8.091
 1096POPC   C4A17478  10.755   6.639   7.778
 1096POPC   C1B17479  10.105   6.946   8.763
 1096POPC   C2B17480  10.156   7.156   8.330
 1096POPC   C3B17481  10.041   7.048   7.934
 1096POPC   C4B17482  10.234   6.722   7.662
 1097POPC   NC317483  11.707  23.793   9.469
 1097POPC   PO417484  11.409  23.186   9.519
 1097POPC   GL117485  11.379  23.529   9.183
 1097POPC   GL217486  11.085  23.764   9.096
 1097POPC   C1A17487  11.509  23.839   8.847
 1097POPC   D2A17488  11.297  23.894   8.466
 1097POPC   C3A17489  11.518  23.798   8.083
 1097POPC   C4A17490  11.773  24.035   7.823
 1097POPC   C1B17491  11.170  23.453   8.722
 1097POPC   C2B17492  11.188  23.424   8.246
 1097POPC   C3B17493  11.072  23.634   7.865
 1097POPC   C4B17494  11.166  23.523   7.436
 1098POPC   NC317495  44.067   1.344   9.419
 1098POPC   PO417496  43.648   0.824   9.480
 1098POPC   GL117497  43.560   1.127   9.201
 1098POPC   GL217498  43.438   1.433   9.274
 1098POPC   C1A17499  43.625   1.217   8.792
 1098POPC   D2A17500  43.845   1.198   8.416
 1098POPC   C3A17501  43.655   1.122   8.027
 1098POPC   C4A17502  43.815   1.346   7.658
 1098POPC   C1B17503  43.569   1.701   8.929
 1098POPC   C2B17504  43.507   1.619   8.478
 1098POPC   C3B17505  43.749   1.625   8.103
 1098POPC   C4B17506  43.648   1.831   7.720
 1099POPC   NC317507  36.078   0.803   9.509
 1099POPC   PO417508  36.253   1.457   9.520
 1099POPC   GL117509  35.987   1.453   9.194
 1099POPC   GL217510  35.936   1.135   9.143
 1099POPC   C1A17511  36.151   1.416   8.787
 1099POPC   D2A17512  35.929   1.361   8.442
 1099POPC   C3A17513  36.152   1.290   8.079
 1099POPC   C4A17514  36.108   1.320   7.651
 1099POPC   C1B17515  36.276   0.931   8.866
 1099POPC   C2B17516  36.366   0.852   8.397
 1099POPC   C3B17517  36.447   0.823   7.921
 1099POPC   C4B17518  36.316   0.893   7.468
 1100POPC   NC317519  36.728   1.416   9.484
 1100POPC   PO417520  36.606   0.745   9.473
 1100POPC   GL117521  36.764   1.014   9.126
 1100POPC   GL217522  36.670   1.368   8.977
 1100POPC   C1A17523  37.164   1.054   8.917
 1100POPC   D2A17524  37.306   0.851   8.533
 1100POPC   C3A17525  37.023   0.897   8.194
 1100POPC   C4A17526  36.901   1.058   7.806
 1100POPC   C1B17527  37.049   1.531   8.715
 1100POPC   C2B17528  37.104   1.707   8.270
 1100POPC   C3B17529  37.105   1.532   7.797
 1100POPC   C4B17530  37.186   1.504   7.290
 1101POPC   NC317531  43.276   7.957   9.530
 1101POPC   PO417532  43.280   8.475   9.134
 1101POPC   GL117533  43.194   8.044   9.029
 1101POPC   GL217534  42.862   7.933   9.219
 1101POPC   C1A17535  43.222   7.997   8.581
 1101POPC   D2A17536  43.347   8.386   8.376
 1101POPC   C3A17537  43.091   8.422   8.029
 1101POPC   C4A17538  43.116   8.435   7.606
 1101POPC   C1B17539  42.748   7.961   8.800
 1101POPC   C2B17540  42.633   7.903   8.384
 1101POPC   C3B17541  42.800   7.979   7.979
 1101POPC   C4B17542  43.209   7.943   7.784
 1102POPC   NC317543   5.664  41.142   9.735
 1102POPC   PO417544   6.065  40.669   9.503
 1102POPC   GL117545   5.962  40.895   9.121
 1102POPC   GL217546   5.740  41.159   9.229
 1102POPC   C1A17547   6.054  40.815   8.691
 1102POPC   D2A17548   5.919  40.520   8.381
 1102POPC   C3A17549   5.785  40.478   7.960
 1102POPC   C4A17550   5.947  40.837   7.758
 1102POPC   C1B17551   5.493  41.060   8.868
 1102POPC   C2B17552   5.619  40.962   8.448
 1102POPC   C3B17553   5.504  40.894   8.043
 1102POPC   C4B17554   5.466  40.741   7.634
 1103POPC   NC317555  11.106   9.121   9.557
 1103POPC   PO417556  11.721   8.863   9.512
 1103POPC   GL117557  11.399   8.907   9.188
 1103POPC   GL217558  11.315   9.273   9.133
 1103POPC   C1A17559  11.456   8.958   8.745
 1103POPC   D2A17560  11.546   8.812   8.327
 1103POPC   C3A17561  11.439   9.072   8.028
 1103POPC   C4A17562  11.140   8.982   7.735
 1103POPC   C1B17563  11.059   9.293   8.754
 1103POPC   C2B17564  10.996   9.170   8.305
 1103POPC   C3B17565  11.050   9.437   7.925
 1103POPC   C4B17566  10.994   9.368   7.462
 1104POPC   NC317567  40.211  41.080   9.435
 1104POPC   PO417568  39.738  40.606   9.514
 1104POPC   GL117569  39.931  40.768   9.152
 1104POPC   GL217570  39.720  41.059   9.148
 1104POPC   C1A17571  40.136  40.643   8.752
 1104POPC   D2A17572  39.909  40.470   8.378
 1104POPC   C3A17573  40.085  40.555   7.982
 1104POPC   C4A17574  40.028  40.691   7.562
 1104POPC   C1B17575  39.867  41.093   8.753
 1104POPC   C2B17576  40.083  40.984   8.372
 1104POPC   C3B17577  40.174  41.093   7.980
 1104POPC   C4B17578  39.892  41.185   7.632
 1105POPC   NC317579  35.148  32.095   9.537
 1105POPC   PO417580  35.678  32.411   9.723
 1105POPC   GL117581  35.574  32.214   9.252
 1105POPC   GL217582  35.251  32.087   9.045
 1105POPC   C1A17583  35.684  32.200   8.808
 1105POPC   D2A17584  35.432  32.015   8.482
 1105POPC   C3A17585  35.560  32.127   8.073
 1105POPC   C4A17586  35.479  32.120   7.656
 1105POPC   C1B17587  35.181  32.397   8.713
 1105POPC   C2B17588  35.206  32.484   8.265
 1105POPC   C3B17589  35.094  32.430   7.844
 1105POPC   C4B17590  35.024  32.720   7.491
 1106POPC   NC317591  33.902  43.471   9.478
 1106POPC   PO417592  33.609  42.772   9.485
 1106POPC   GL117593  33.859  42.995   9.194
 1106POPC   GL217594  34.002  42.772   8.968
 1106POPC   C1A17595  33.791  43.215   8.801
 1106POPC   D2A17596  33.886  43.358   8.400
 1106POPC   C3A17597  33.619  43.367   8.071
 1106POPC   C4A17598  33.716  43.244   7.670
 1106POPC   C1B17599  33.587  42.733   8.754
 1106POPC   C2B17600  33.506  42.942   8.339
 1106POPC   C3B17601  33.471  42.808   7.849
 1106POPC   C4B17602  33.391  42.991   7.391
 1107POPC   NC317603   2.094  26.355   9.239
 1107POPC   PO417604   1.920  25.914   9.623
 1107POPC   GL117605   1.821  25.987   9.093
 1107POPC   GL217606   2.144  25.901   8.992
 1107POPC   C1A17607   1.799  25.924   8.627
 1107POPC   D2A17608   1.912  25.734   8.217
 1107POPC   C3A17609   1.903  26.046   7.902
 1107POPC   C4A17610   1.846  26.061   7.486
 1107POPC   C1B17611   2.286  26.183   8.665
 1107POPC   C2B17612   2.437  26.186   8.269
 1107POPC   C3B17613   2.368  25.870   7.977
 1107POPC   C4B17614   2.186  25.692   7.657
 1108POPC   NC317615  21.576  13.698   9.591
 1108POPC   PO417616  21.004  13.329   9.486
 1108POPC   GL117617  21.286  13.552   9.181
 1108POPC   GL217618  21.119  13.807   9.112
 1108POPC   C1A17619  21.448  13.739   8.735
 1108POPC   D2A17620  21.534  13.604   8.285
 1108POPC   C3A17621  21.442  13.841   7.893
 1108POPC   C4A17622  21.569  13.785   7.428
 1108POPC   C1B17623  20.933  13.632   8.771
 1108POPC   C2B17624  21.040  13.707   8.355
 1108POPC   C3B17625  20.945  13.634   7.943
 1108POPC   C4B17626  21.108  13.609   7.543
 1109POPC   NC317627  17.731  24.661   9.524
 1109POPC   PO417628  17.059  24.667   9.420
 1109POPC   GL117629  17.410  24.547   9.103
 1109POPC   GL217630  17.733  24.413   9.084
 1109POPC   C1A17631  17.429  24.321   8.687
 1109POPC   D2A17632  17.377  24.522   8.311
 1109POPC   C3A17633  17.521  24.413   7.925
 1109POPC   C4A17634  17.433  24.516   7.508
 1109POPC   C1B17635  17.695  24.753   8.732
 1109POPC   C2B17636  17.669  24.947   8.301
 1109POPC   C3B17637  17.780  24.842   7.858
 1109POPC   C4B17638  17.939  24.589   7.486
 1110POPC   NC317639  22.562   6.382   9.483
 1110POPC   PO417640  23.040   6.815   9.667
 1110POPC   GL117641  22.813   6.772   9.255
 1110POPC   GL217642  22.983   6.481   9.173
 1110POPC   C1A17643  22.717   6.700   8.784
 1110POPC   D2A17644  22.951   6.709   8.371
 1110POPC   C3A17645  22.924   6.434   8.001
 1110POPC   C4A17646  22.798   6.450   7.562
 1110POPC   C1B17647  23.213   6.505   8.783
 1110POPC   C2B17648  23.379   6.432   8.374
 1110POPC   C3B17649  23.491   6.438   7.950
 1110POPC   C4B17650  23.272   6.619   7.629
 1111POPC   NC317651  44.060  28.181   9.815
 1111POPC   PO417652  43.438  28.361   9.554
 1111POPC   GL117653  43.658  28.244   9.183
 1111POPC   GL217654  44.012  28.177   9.285
 1111POPC   C1A17655  43.641  28.394   8.742
 1111POPC   D2A17656  43.958  28.596   8.467
 1111POPC   C3A17657  44.085  28.483   8.046
 1111POPC   C4A17658  43.819  28.283   7.751
 1111POPC   C1B17659  44.026  28.040   8.837
 1111POPC   C2B17660  44.119  28.084   8.377
 1111POPC   C3B17661  44.182  27.965   7.931
 1111POPC   C4B17662  44.068  27.917   7.448
 1112POPC   NC317663   1.337   2.305   9.420
 1112POPC   PO417664   1.085   2.870   9.760
 1112POPC   GL117665   1.030   2.803   9.234
 1112POPC   GL217666   1.322   3.024   9.054
 1112POPC   C1A17667   1.240   2.581   8.822
 1112POPC   D2A17668   1.410   2.493   8.400
 1112POPC   C3A17669   1.196   2.627   8.032
 1112POPC   C4A17670   1.260   2.801   7.653
 1112POPC   C1B17671   1.570   2.991   8.704
 1112POPC   C2B17672   1.405   3.023   8.286
 1112POPC   C3B17673   1.640   3.097   7.899
 1112POPC   C4B17674   1.644   3.023   7.446
 1113POPC   NC317675  24.183  20.358   9.406
 1113POPC   PO417676  23.529  20.709   9.434
 1113POPC   GL117677  23.715  20.487   9.142
 1113POPC   GL217678  23.910  20.744   9.073
 1113POPC   C1A17679  23.811  20.340   8.738
 1113POPC   D2A17680  24.094  20.204   8.410
 1113POPC   C3A17681  23.889  20.272   8.004
 1113POPC   C4A17682  23.769  20.366   7.597
 1113POPC   C1B17683  23.599  20.815   8.731
 1113POPC   C2B17684  23.371  20.859   8.351
 1113POPC   C3B17685  23.485  21.126   8.022
 1113POPC   C4B17686  23.734  20.846   7.804
 1114POPC   NC317687  22.228  14.637   9.813
 1114POPC   PO417688  21.927  14.030   9.590
 1114POPC   GL117689  22.173  14.205   9.177
 1114POPC   GL217690  22.250  14.589   9.151
 1114POPC   C1A17691  22.020  14.353   8.738
 1114POPC   D2A17692  21.784  14.461   8.346
 1114POPC   C3A17693  21.882  14.242   7.941
 1114POPC   C4A17694  21.904  14.147   7.504
 1114POPC   C1B17695  22.505  14.480   8.773
 1114POPC   C2B17696  22.430  14.177   8.423
 1114POPC   C3B17697  22.406  14.195   7.968
 1114POPC   C4B17698  22.349  14.622   7.788
 1115POPC   NC317699  14.939  35.034   9.559
 1115POPC   PO417700  15.430  35.521   9.644
 1115POPC   GL117701  15.320  35.271   9.302
 1115POPC   GL217702  14.988  35.330   9.147
 1115POPC   C1A17703  15.421  35.227   8.898
 1115POPC   D2A17704  15.320  35.134   8.499
 1115POPC   C3A17705  15.079  35.347   8.231
 1115POPC   C4A17706  15.234  35.247   7.800
 1115POPC   C1B17707  14.823  35.243   8.738
 1115POPC   C2B17708  14.579  35.080   8.395
 1115POPC   C3B17709  14.734  35.108   7.981
 1115POPC   C4B17710  14.768  35.462   7.758
 1116POPC   NC317711  18.132  30.420   9.459
 1116POPC   PO417712  18.014  29.738   9.404
 1116POPC   GL117713  17.928  30.060   9.084
 1116POPC   GL217714  17.838  30.431   9.044
 1116POPC   C1A17715  18.167  30.018   8.692
 1116POPC   D2A17716  18.017  29.897   8.268
 1116POPC   C3A17717  18.326  29.904   7.904
 1116POPC   C4A17718  18.365  29.746   7.475
 1116POPC   C1B17719  17.747  30.283   8.633
 1116POPC   C2B17720  18.056  30.407   8.357
 1116POPC   C3B17721  18.136  30.364   7.966
 1116POPC   C4B17722  18.420  30.401   7.668
 1117POPC   NC317723  31.017  32.583   9.494
 1117POPC   PO417724  30.655  31.946   9.444
 1117POPC   GL117725  30.806  32.128   9.082
 1117POPC   GL217726  30.680  32.443   8.983
 1117POPC   C1A17727  30.665  32.070   8.650
 1117POPC   D2A17728  30.792  32.223   8.281
 1117POPC   C3A17729  30.607  31.930   8.020
 1117POPC   C4A17730  30.504  31.934   7.615
 1117POPC   C1B17731  31.088  32.414   8.748
 1117POPC   C2B17732  31.277  32.610   8.380
 1117POPC   C3B17733  31.112  32.634   7.939
 1117POPC   C4B17734  30.922  32.247   7.780
 1118POPC   NC317735  23.796  16.298   9.425
 1118POPC   PO417736  23.653  15.640   9.521
 1118POPC   GL117737  23.637  15.734   9.141
 1118POPC   GL217738  23.474  16.037   9.082
 1118POPC   C1A17739  23.922  15.899   8.841
 1118POPC   D2A17740  23.959  16.083   8.446
 1118POPC   C3A17741  23.708  15.880   8.159
 1118POPC   C4A17742  23.921  15.893   7.795
 1118POPC   C1B17743  23.418  16.263   8.705
 1118POPC   C2B17744  23.575  16.387   8.298
 1118POPC   C3B17745  23.453  16.221   7.888
 1118POPC   C4B17746  23.171  16.054   7.579
 1119POPC   NC317747   5.616  33.553   9.529
 1119POPC   PO417748   6.256  33.362   9.347
 1119POPC   GL117749   6.180  33.604   8.979
 1119POPC   GL217750   5.916  33.833   9.050
 1119POPC   C1A17751   5.907  33.586   8.622
 1119POPC   D2A17752   5.825  33.600   8.240
 1119POPC   C3A17753   6.106  33.771   8.028
 1119POPC   C4A17754   5.999  33.883   7.638
 1119POPC   C1B17755   5.846  34.080   8.687
 1119POPC   C2B17756   5.556  34.025   8.379
 1119POPC   C3B17757   5.591  34.004   7.961
 1119POPC   C4B17758   5.747  34.305   7.680
 1120POPC   NC317759  11.700  24.575   9.399
 1120POPC   PO417760  11.304  24.071   9.457
 1120POPC   GL117761  11.228  24.292   9.123
 1120POPC   GL217762  11.186  24.638   9.263
 1120POPC   C1A17763  11.477  24.343   8.742
 1120POPC   D2A17764  11.585  24.281   8.304
 1120POPC   C3A17765  11.255  24.214   8.031
 1120POPC   C4A17766  11.384  24.474   7.720
 1120POPC   C1B17767  11.105  24.681   8.831
 1120POPC   C2B17768  11.080  24.482   8.431
 1120POPC   C3B17769  10.974  24.629   8.039
 1120POPC   C4B17770  11.023  24.829   7.681
 1121POPC   NC317771   2.247  33.401   9.448
 1121POPC   PO417772   1.812  32.892   9.384
 1121POPC   GL117773   2.053  32.850   9.020
 1121POPC   GL217774   2.086  33.204   9.027
 1121POPC   C1A17775   2.181  32.970   8.594
 1121POPC   D2A17776   2.272  33.241   8.234
 1121POPC   C3A17777   2.135  33.034   7.885
 1121POPC   C4A17778   2.146  32.936   7.443
 1121POPC   C1B17779   1.735  33.238   8.778
 1121POPC   C2B17780   1.787  33.337   8.366
 1121POPC   C3B17781   1.659  33.167   7.989
 1121POPC   C4B17782   1.778  33.252   7.574
 1122POPC   NC317783  12.445  20.567   9.401
 1122POPC   PO417784  13.055  20.520   9.649
 1122POPC   GL117785  12.967  20.598   9.203
 1122POPC   GL217786  12.766  20.331   9.092
 1122POPC   C1A17787  12.989  20.869   8.835
 1122POPC   D2A17788  12.965  21.051   8.425
 1122POPC   C3A17789  12.755  20.881   8.035
 1122POPC   C4A17790  12.941  20.870   7.580
 1122POPC   C1B17791  13.000  20.341   8.723
 1122POPC   C2B17792  13.049  20.554   8.345
 1122POPC   C3B17793  13.077  20.510   7.917
 1122POPC   C4B17794  12.996  20.231   7.599
 1123POPC   NC317795  32.603  27.124   9.967
 1123POPC   PO417796  32.104  26.730   9.639
 1123POPC   GL117797  32.128  26.792   9.212
 1123POPC   GL217798  32.436  26.726   9.088
 1123POPC   C1A17799  31.919  26.670   8.802
 1123POPC   D2A17800  31.803  26.797   8.371
 1123POPC   C3A17801  32.130  26.660   8.065
 1123POPC   C4A17802  32.021  26.356   7.732
 1123POPC   C1B17803  32.266  27.064   8.793
 1123POPC   C2B17804  32.433  27.213   8.411
 1123POPC   C3B17805  32.523  27.054   7.993
 1123POPC   C4B17806  32.345  26.807   7.614
 1124POPC   NC317807   6.841  11.547   9.525
 1124POPC   PO417808   6.582  10.950   9.497
 1124POPC   GL117809   6.687  11.062   9.102
 1124POPC   GL217810   6.622  11.410   9.080
 1124POPC   C1A17811   6.465  10.848   8.767
 1124POPC   D2A17812   6.558  11.017   8.389
 1124POPC   C3A17813   6.365  10.924   8.038
 1124POPC   C4A17814   6.495  10.937   7.636
 1124POPC   C1B17815   6.756  11.485   8.660
 1124POPC   C2B17816   6.625  11.490   8.230
 1124POPC   C3B17817   6.772  11.272   7.887
 1124POPC   C4B17818   6.806  11.379   7.445
 1125POPC   NC317819  20.350  41.467   9.398
 1125POPC   PO417820  20.925  42.008   9.492
 1125POPC   GL117821  20.685  41.835   9.139
 1125POPC   GL217822  20.726  41.471   9.058
 1125POPC   C1A17823  20.779  41.854   8.702
 1125POPC   D2A17824  20.816  41.495   8.470
 1125POPC   C3A17825  20.710  41.475   8.040
 1125POPC   C4A17826  20.541  41.717   7.713
 1125POPC   C1B17827  20.382  41.508   8.757
 1125POPC   C2B17828  20.330  41.380   8.372
 1125POPC   C3B17829  20.163  41.430   8.005
 1125POPC   C4B17830  20.219  41.343   7.583
 1126POPC   NC317831  39.594  12.738   9.313
 1126POPC   PO417832  39.957  13.310   9.489
 1126POPC   GL117833  40.183  13.041   9.228
 1126POPC   GL217834  40.475  13.198   9.127
 1126POPC   C1A17835  40.184  12.881   8.824
 1126POPC   D2A17836  39.834  12.790   8.543
 1126POPC   C3A17837  39.912  12.713   8.118
 1126POPC   C4A17838  39.753  12.772   7.719
 1126POPC   C1B17839  40.384  13.319   8.725
 1126POPC   C2B17840  40.322  13.069   8.377
 1126POPC   C3B17841  40.165  13.136   7.997
 1126POPC   C4B17842  40.265  12.952   7.650
 1127POPC   NC317843  27.776  38.560   9.387
 1127POPC   PO417844  27.313  38.125   9.625
 1127POPC   GL117845  27.598  38.058   9.152
 1127POPC   GL217846  27.853  38.293   8.968
 1127POPC   C1A17847  27.559  38.078   8.639
 1127POPC   D2A17848  27.413  38.438   8.379
 1127POPC   C3A17849  27.423  38.308   7.958
 1127POPC   C4A17850  27.829  38.190   7.871
 1127POPC   C1B17851  27.972  38.701   8.759
 1127POPC   C2B17852  27.860  38.855   8.386
 1127POPC   C3B17853  27.738  38.686   8.046
 1127POPC   C4B17854  27.928  38.719   7.679
 1128POPC   NC317855  38.792  31.652   9.423
 1128POPC   PO417856  38.299  31.286   9.671
 1128POPC   GL117857  38.419  31.280   9.240
 1128POPC   GL217858  38.177  31.501   9.122
 1128POPC   C1A17859  38.660  31.389   8.844
 1128POPC   D2A17860  38.686  31.584   8.435
 1128POPC   C3A17861  38.526  31.395   8.080
 1128POPC   C4A17862  38.540  31.544   7.666
 1128POPC   C1B17863  38.314  31.751   8.761
 1128POPC   C2B17864  38.214  31.771   8.349
 1128POPC   C3B17865  38.249  31.871   7.955
 1128POPC   C4B17866  38.045  31.664   7.700
 1129POPC   NC317867  34.882  11.494   9.485
 1129POPC   PO417868  34.488  10.938   9.455
 1129POPC   GL117869  34.558  11.287   9.138
 1129POPC   GL217870  34.362  11.571   8.996
 1129POPC   C1A17871  34.828  11.489   8.819
 1129POPC   D2A17872  34.897  11.383   8.401
 1129POPC   C3A17873  34.637  11.455   8.035
 1129POPC   C4A17874  34.907  11.396   7.693
 1129POPC   C1B17875  34.379  11.327   8.606
 1129POPC   C2B17876  34.193  11.208   8.204
 1129POPC   C3B17877  34.170  10.955   7.821
 1129POPC   C4B17878  34.505  11.114   7.580
 1130POPC   NC317879  27.744   9.313   9.542
 1130POPC   PO417880  28.022   8.724   9.648
 1130POPC   GL117881  27.538   8.943   9.285
 1130POPC   GL217882  27.571   9.247   9.050
 1130POPC   C1A17883  27.543   8.807   8.788
 1130POPC   D2A17884  27.942   8.653   8.590
 1130POPC   C3A17885  28.007   8.660   8.137
 1130POPC   C4A17886  27.909   8.687   7.707
 1130POPC   C1B17887  27.450   9.272   8.593
 1130POPC   C2B17888  27.414   8.967   8.240
 1130POPC   C3B17889  27.587   9.054   7.837
 1130POPC   C4B17890  27.900   9.367   7.759
 1131POPC   NC317891  35.278  44.378   9.530
 1131POPC   PO417892  35.169   0.098   9.493
 1131POPC   GL117893  35.265  44.783   9.138
 1131POPC   GL217894  35.390  44.432   9.037
 1131POPC   C1A17895  35.282  44.884   8.697
 1131POPC   D2A17896  35.302   0.035   8.254
 1131POPC   C3A17897  35.556  44.761   7.964
 1131POPC   C4A17898  35.520  44.440   7.648
 1131POPC   C1B17899  35.270  44.268   8.638
 1131POPC   C2B17900  35.340  44.272   8.186
 1131POPC   C3B17901  35.055  44.298   7.843
 1131POPC   C4B17902  35.017  44.498   7.443
 1132POPC   NC317903  34.085  44.976   9.579
 1132POPC   PO417904  33.508  44.680   9.375
 1132POPC   GL117905  33.643  44.705   9.008
 1132POPC   GL217906  33.981  44.730   9.108
 1132POPC   C1A17907  33.807  44.559   8.634
 1132POPC   D2A17908  33.647  44.515   8.236
 1132POPC   C3A17909  33.974  44.415   8.001
 1132POPC   C4A17910  34.108  44.540   7.580
 1132POPC   C1B17911  34.013   0.014   8.753
 1132POPC   C2B17912  33.872  44.997   8.345
 1132POPC   C3B17913  34.114  44.892   8.013
 1132POPC   C4B17914  34.104   0.036   7.638
 1133POPC   NC317915  27.954  16.988   9.359
 1133POPC   PO417916  28.608  17.091   9.395
 1133POPC   GL117917  28.468  16.678   9.167
 1133POPC   GL217918  28.157  16.732   8.978
 1133POPC   C1A17919  28.413  16.353   8.792
 1133POPC   D2A17920  28.489  16.498   8.370
 1133POPC   C3A17921  28.228  16.480   7.999
 1133POPC   C4A17922  28.489  16.632   7.676
 1133POPC   C1B17923  28.474  16.911   8.706
 1133POPC   C2B17924  28.419  17.120   8.331
 1133POPC   C3B17925  28.311  17.013   7.944
 1133POPC   C4B17926  28.422  17.128   7.524
 1134POPC   NC317927  24.373  33.179   9.767
 1134POPC   PO417928  24.810  32.836   9.389
 1134POPC   GL117929  24.501  32.713   9.071
 1134POPC   GL217930  24.244  33.000   9.065
 1134POPC   C1A17931  24.445  32.824   8.633
 1134POPC   D2A17932  24.141  33.100   8.421
 1134POPC   C3A17933  24.251  33.043   8.005
 1134POPC   C4A17934  24.724  32.920   7.824
 1134POPC   C1B17935  24.488  33.306   8.752
 1134POPC   C2B17936  24.624  33.287   8.265
 1134POPC   C3B17937  24.537  33.369   7.779
 1134POPC   C4B17938  24.219  33.321   7.427
 1135POPC   NC317939   7.839  34.250   9.576
 1135POPC   PO417940   7.182  34.398   9.561
 1135POPC   GL117941   7.519  34.494   9.223
 1135POPC   GL217942   7.633  34.875   9.121
 1135POPC   C1A17943   7.565  34.496   8.788
 1135POPC   D2A17944   7.267  34.382   8.476
 1135POPC   C3A17945   7.327  34.554   8.062
 1135POPC   C4A17946   7.340  34.624   7.624
 1135POPC   C1B17947   7.842  34.944   8.734
 1135POPC   C2B17948   7.819  34.693   8.342
 1135POPC   C3B17949   7.720  34.845   7.909
 1135POPC   C4B17950   7.810  34.774   7.456
 1136POPC   NC317951  34.648   2.460   9.760
 1136POPC   PO417952  34.593   1.871   9.451
 1136POPC   GL117953  34.567   2.055   9.075
 1136POPC   GL217954  34.283   2.260   9.061
 1136POPC   C1A17955  34.649   1.986   8.652
 1136POPC   D2A17956  34.704   2.246   8.276
 1136POPC   C3A17957  34.830   1.962   7.958
 1136POPC   C4A17958  34.742   1.551   7.888
 1136POPC   C1B17959  34.397   2.440   8.651
 1136POPC   C2B17960  34.193   2.396   8.238
 1136POPC   C3B17961  34.388   2.180   7.860
 1136POPC   C4B17962  34.694   2.247   7.507
 1137POPC   NC317963  37.930   7.637   9.400
 1137POPC   PO417964  37.663   7.030   9.433
 1137POPC   GL117965  37.695   7.321   9.070
 1137POPC   GL217966  37.983   7.151   9.016
 1137POPC   C1A17967  37.686   7.594   8.635
 1137POPC   D2A17968  37.366   7.650   8.316
 1137POPC   C3A17969  37.554   7.679   7.903
 1137POPC   C4A17970  37.725   7.401   7.559
 1137POPC   C1B17971  37.785   7.110   8.612
 1137POPC   C2B17972  37.818   7.337   8.200
 1137POPC   C3B17973  38.106   7.247   7.865
 1137POPC   C4B17974  38.089   7.005   7.444
 1138POPC   NC317975  35.765  44.194   9.302
 1138POPC   PO417976  35.235  43.877   9.596
 1138POPC   GL117977  35.162  43.928   9.170
 1138POPC   GL217978  35.464  43.823   9.129
 1138POPC   C1A17979  35.065  43.798   8.731
 1138POPC   D2A17980  34.940  43.948   8.295
 1138POPC   C3A17981  35.214  43.815   7.976
 1138POPC   C4A17982  35.230  43.589   7.587
 1138POPC   C1B17983  35.571  43.598   8.797
 1138POPC   C2B17984  35.561  43.764   8.392
 1138POPC   C3B17985  35.723  43.642   8.010
 1138POPC   C4B17986  35.638  43.933   7.733
 1139POPC   NC317987  40.883  19.637   9.361
 1139POPC   PO417988  40.951  20.275   9.362
 1139POPC   GL117989  40.755  20.042   9.058
 1139POPC   GL217990  40.457  19.911   9.222
 1139POPC   C1A17991  40.810  19.766   8.705
 1139POPC   D2A17992  40.963  19.883   8.307
 1139POPC   C3A17993  41.087  19.626   7.975
 1139POPC   C4A17994  40.956  19.964   7.713
 1139POPC   C1B17995  40.323  19.954   8.805
 1139POPC   C2B17996  40.342  19.854   8.377
 1139POPC   C3B17997  40.500  19.921   7.947
 1139POPC   C4B17998  40.331  19.978   7.504
 1140POPC   NC317999  25.489  21.684   9.552
 1140POPC   PO418000  24.968  21.964   9.343
 1140POPC   GL118001  25.318  21.931   9.073
 1140POPC   GL218002  25.573  22.125   9.230
 1140POPC   C1A18003  25.289  21.978   8.618
 1140POPC   D2A18004  24.997  22.220   8.326
 1140POPC   C3A18005  25.007  22.022   7.918
 1140POPC   C4A18006  25.354  22.003   7.608
 1140POPC   C1B18007  25.446  22.396   8.877
 1140POPC   C2B18008  25.488  22.414   8.394
 1140POPC   C3B18009  25.352  22.391   7.933
 1140POPC   C4B18010  25.357  22.524   7.465
 1141POPC   NC318011  42.625  32.705   9.387
 1141POPC   PO418012  42.220  33.236   9.560
 1141POPC   GL118013  42.172  33.018   9.190
 1141POPC   GL218014  42.423  33.197   9.018
 1141POPC   C1A18015  41.950  32.838   8.824
 1141POPC   D2A18016  42.040  33.017   8.434
 1141POPC   C3A18017  41.933  32.829   8.048
 1141POPC   C4A18018  42.094  32.839   7.668
 1141POPC   C1B18019  42.471  32.795   8.751
 1141POPC   C2B18020  42.623  32.523   8.374
 1141POPC   C3B18021  42.535  32.665   7.917
 1141POPC   C4B18022  42.478  33.143   7.806
 1142POPC   NC318023  29.729  21.625   9.345
 1142POPC   PO418024  30.117  21.138   9.589
 1142POPC   GL118025  29.974  21.152   9.165
 1142POPC   GL218026  29.922  21.447   8.929
 1142POPC   C1A18027  30.157  21.052   8.746
 1142POPC   D2A18028  30.149  21.084   8.282
 1142POPC   C3A18029  29.843  21.354   8.074
 1142POPC   C4A18030  29.797  21.218   7.663
 1142POPC   C1B18031  29.530  21.555   8.704
 1142POPC   C2B18032  29.487  21.698   8.283
 1142POPC   C3B18033  29.745  21.900   7.977
 1142POPC   C4B18034  29.920  21.701   7.660
 1143POPC   NC318035  16.819  14.794   9.497
 1143POPC   PO418036  16.722  15.364   9.538
 1143POPC   GL118037  16.587  15.124   9.151
 1143POPC   GL218038  16.343  15.379   9.079
 1143POPC   C1A18039  16.739  14.949   8.734
 1143POPC   D2A18040  16.961  15.165   8.388
 1143POPC   C3A18041  16.835  15.027   7.983
 1143POPC   C4A18042  16.762  15.181   7.557
 1143POPC   C1B18043  16.470  15.386   8.677
 1143POPC   C2B18044  16.470  15.255   8.273
 1143POPC   C3B18045  16.469  15.455   7.877
 1143POPC   C4B18046  16.353  15.489   7.413
 1144POPC   NC318047  41.199  40.934   9.387
 1144POPC   PO418048  41.423  40.290   9.567
 1144POPC   GL118049  41.555  40.588   9.211
 1144POPC   GL218050  41.507  40.910   9.002
 1144POPC   C1A18051  41.726  40.537   8.784
 1144POPC   D2A18052  41.460  40.739   8.473
 1144POPC   C3A18053  41.691  40.692   8.099
 1144POPC   C4A18054  41.591  40.631   7.691
 1144POPC   C1B18055  41.505  41.200   8.665
 1144POPC   C2B18056  41.529  41.171   8.204
 1144POPC   C3B18057  41.388  41.113   7.769
 1144POPC   C4B18058  41.261  41.261   7.330
 1145POPC   NC318059  42.026   8.362   9.440
 1145POPC   PO418060  41.435   8.042   9.606
 1145POPC   GL118061  41.516   8.100   9.194
 1145POPC   GL218062  41.579   8.433   9.212
 1145POPC   C1A18063  41.362   8.090   8.772
 1145POPC   D2A18064  41.573   7.968   8.400
 1145POPC   C3A18065  41.431   8.025   7.996
 1145POPC   C4A18066  41.567   7.924   7.603
 1145POPC   C1B18067  41.550   8.583   8.807
 1145POPC   C2B18068  41.427   8.502   8.394
 1145POPC   C3B18069  41.577   8.521   8.001
 1145POPC   C4B18070  41.381   8.421   7.590
 1146POPC   NC318071  43.789   9.553   9.462
 1146POPC   PO418072  43.275   9.933   9.627
 1146POPC   GL118073  43.562   9.992   9.206
 1146POPC   GL218074  43.666   9.678   8.989
 1146POPC   C1A18075  43.691  10.109   8.739
 1146POPC   D2A18076  43.928   9.935   8.383
 1146POPC   C3A18077  44.092  10.051   7.985
 1146POPC   C4A18078  43.865   9.967   7.576
 1146POPC   C1B18079  44.087   9.620   8.758
 1146POPC   C2B18080  44.167   9.496   8.304
 1146POPC   C3B18081  43.879   9.579   7.939
 1146POPC   C4B18082  43.832   9.458   7.479
 1147POPC   NC318083  32.018  14.648   9.689
 1147POPC   PO418084  32.253  14.068   9.446
 1147POPC   GL118085  32.031  14.258   9.111
 1147POPC   GL218086  31.973  14.638   9.163
 1147POPC   C1A18087  32.071  14.164   8.677
 1147POPC   D2A18088  31.984  14.441   8.345
 1147POPC   C3A18089  32.134  14.378   7.935
 1147POPC   C4A18090  31.943  14.087   7.693
 1147POPC   C1B18091  32.333  14.595   8.867
 1147POPC   C2B18092  32.495  14.485   8.440
 1147POPC   C3B18093  32.557  14.683   8.038
 1147POPC   C4B18094  32.320  14.787   7.686
 1148POPC   NC318095  41.373  24.735   9.519
 1148POPC   PO418096  41.821  24.203   9.378
 1148POPC   GL118097  41.904  24.416   9.041
 1148POPC   GL218098  41.622  24.669   9.054
 1148POPC   C1A18099  41.796  24.333   8.651
 1148POPC   D2A18100  41.631  24.430   8.282
 1148POPC   C3A18101  41.778  24.451   7.910
 1148POPC   C4A18102  41.683  24.790   7.658
 1148POPC   C1B18103  41.310  24.533   8.712
 1148POPC   C2B18104  41.142  24.365   8.292
 1148POPC   C3B18105  41.265  24.548   7.913
 1148POPC   C4B18106  41.421  24.366   7.524
 1149POPC   NC318107  23.370  27.534   9.550
 1149POPC   PO418108  23.833  27.977   9.557
 1149POPC   GL118109  23.832  27.655   9.232
 1149POPC   GL218110  23.503  27.555   9.075
 1149POPC   C1A18111  23.904  27.646   8.790
 1149POPC   D2A18112  23.609  27.769   8.481
 1149POPC   C3A18113  23.858  27.781   8.154
 1149POPC   C4A18114  23.762  27.599   7.777
 1149POPC   C1B18115  23.493  27.300   8.685
 1149POPC   C2B18116  23.372  27.367   8.228
 1149POPC   C3B18117  23.385  27.248   7.781
 1149POPC   C4B18118  23.507  27.445   7.357
 1150POPC   NC318119  41.412  15.149   9.492
 1150POPC   PO418120  42.105  15.410   9.480
 1150POPC   GL118121  41.877  15.546   9.100
 1150POPC   GL218122  41.504  15.466   9.087
 1150POPC   C1A18123  41.770  15.402   8.662
 1150POPC   D2A18124  41.438  15.221   8.444
 1150POPC   C3A18125  41.572  15.056   8.094
 1150POPC   C4A18126  41.596  15.189   7.696
 1150POPC   C1B18127  41.318  15.723   8.766
 1150POPC   C2B18128  41.225  15.683   8.312
 1150POPC   C3B18129  41.179  15.363   7.980
 1150POPC   C4B18130  41.157  15.359   7.507
 1151POPC   NC318131  42.076   9.145   9.586
 1151POPC   PO418132  42.736   9.094   9.548
 1151POPC   GL118133  42.478   8.994   9.209
 1151POPC   GL218134  42.165   8.806   9.212
 1151POPC   C1A18135  42.342   9.130   8.823
 1151POPC   D2A18136  42.129   9.301   8.499
 1151POPC   C3A18137  42.240   9.132   8.129
 1151POPC   C4A18138  42.071   9.266   7.763
 1151POPC   C1B18139  42.086   8.662   8.811
 1151POPC   C2B18140  42.288   8.700   8.401
 1151POPC   C3B18141  42.100   8.658   7.984
 1151POPC   C4B18142  42.194   8.719   7.550
 1152POPC   NC318143  33.646   0.962   9.620
 1152POPC   PO418144  34.055   1.437   9.443
 1152POPC   GL118145  33.771   1.351   9.103
 1152POPC   GL218146  33.469   1.128   9.170
 1152POPC   C1A18147  33.540   1.543   8.736
 1152POPC   D2A18148  33.639   1.630   8.311
 1152POPC   C3A18149  33.975   1.380   8.178
 1152POPC   C4A18150  34.002   1.277   7.767
 1152POPC   C1B18151  33.532   1.038   8.770
 1152POPC   C2B18152  33.681   1.021   8.372
 1152POPC   C3B18153  33.532   1.071   7.947
 1152POPC   C4B18154  33.504   0.747   7.611
 1153POPC   NC318155  30.283  27.467   9.220
 1153POPC   PO418156  29.627  27.477   9.510
 1153POPC   GL118157  29.777  27.390   9.091
 1153POPC   GL218158  29.863  27.732   9.090
 1153POPC   C1A18159  29.998  27.421   8.650
 1153POPC   D2A18160  30.298  27.426   8.313
 1153POPC   C3A18161  30.107  27.251   7.971
 1153POPC   C4A18162  29.776  27.436   7.735
 1153POPC   C1B18163  29.678  27.838   8.718
 1153POPC   C2B18164  29.600  27.834   8.289
 1153POPC   C3B18165  29.811  27.887   7.928
 1153POPC   C4B18166  30.242  27.728   7.839
 1154POPC   NC318167   0.479  44.279   9.240
 1154POPC   PO418168   0.284  43.687   9.480
 1154POPC   GL118169   0.183  43.861   9.111
 1154POPC   GL218170   0.544  43.815   9.019
 1154POPC   C1A18171   0.203  44.029   8.694
 1154POPC   D2A18172   0.284  43.831   8.326
 1154POPC   C3A18173   0.151  43.994   7.962
 1154POPC   C4A18174   0.368  44.086   7.622
 1154POPC   C1B18175   0.694  43.686   8.611
 1154POPC   C2B18176   0.670  43.494   8.201
 1154POPC   C3B18177   0.590  43.530   7.754
 1154POPC   C4B18178   0.854  43.445   7.398
 1155POPC   NC318179  43.179  28.001   9.379
 1155POPC   PO418180  43.345  27.375   9.415
 1155POPC   GL118181  43.095  27.547   9.086
 1155POPC   GL218182  42.794  27.747   9.137
 1155POPC   C1A18183  43.211  27.466   8.676
 1155POPC   D2A18184  43.561  27.379   8.418
 1155POPC   C3A18185  43.398  27.390   8.000
 1155POPC   C4A18186  43.169  27.728   7.846
 1155POPC   C1B18187  42.863  27.863   8.711
 1155POPC   C2B18188  42.907  27.667   8.299
 1155POPC   C3B18189  42.686  27.706   7.903
 1155POPC   C4B18190  42.784  27.504   7.485
 1156POPC   NC318191   2.670  28.297   9.727
 1156POPC   PO418192   3.076  28.768   9.476
 1156POPC   GL118193   2.786  28.532   9.252
 1156POPC   GL218194   2.895  28.204   9.256
 1156POPC   C1A18195   2.764  28.513   8.804
 1156POPC   D2A18196   2.996  28.432   8.434
 1156POPC   C3A18197   2.675  28.319   8.152
 1156POPC   C4A18198   2.656  28.448   7.717
 1156POPC   C1B18199   3.069  28.089   8.848
 1156POPC   C2B18200   2.967  27.917   8.456
 1156POPC   C3B18201   3.088  28.050   8.071
 1156POPC   C4B18202   2.789  27.942   7.829
 1157POPC   NC318203   4.119   0.120   9.425
 1157POPC   PO418204   4.479   0.658   9.483
 1157POPC   GL118205   4.369   0.447   9.117
 1157POPC   GL218206   4.038   0.593   9.135
 1157POPC   C1A18207   4.501   0.349   8.709
 1157POPC   D2A18208   4.729   0.382   8.314
 1157POPC   C3A18209   4.498   0.351   7.969
 1157POPC   C4A18210   4.330   0.515   7.610
 1157POPC   C1B18211   3.980   0.380   8.739
 1157POPC   C2B18212   4.149   0.254   8.336
 1157POPC   C3B18213   3.983   0.274   7.895
 1157POPC   C4B18214   3.840   0.677   7.696
 1158POPC   NC318215  23.819   0.234   9.417
 1158POPC   PO418216  23.596   0.848   9.374
 1158POPC   GL118217  23.416   0.456   9.164
 1158POPC   GL218218  23.726   0.495   8.987
 1158POPC   C1A18219  23.448   0.157   8.754
 1158POPC   D2A18220  23.604   0.291   8.313
 1158POPC   C3A18221  23.442   0.203   7.879
 1158POPC   C4A18222  23.769   0.150   7.556
 1158POPC   C1B18223  23.434   0.665   8.690
 1158POPC   C2B18224  23.477   0.807   8.291
 1158POPC   C3B18225  23.548   0.684   7.857
 1158POPC   C4B18226  23.515   0.609   7.414
 1159POPC   NC318227  13.796  13.987   9.431
 1159POPC   PO418228  13.390  13.491   9.517
 1159POPC   GL118229  13.668  13.543   9.163
 1159POPC   GL218230  13.526  13.826   9.051
 1159POPC   C1A18231  13.764  13.342   8.776
 1159POPC   D2A18232  13.563  13.537   8.392
 1159POPC   C3A18233  13.705  13.449   7.980
 1159POPC   C4A18234  13.413  13.228   7.776
 1159POPC   C1B18235  13.434  14.075   8.743
 1159POPC   C2B18236  13.414  14.203   8.349
 1159POPC   C3B18237  13.378  14.049   7.973
 1159POPC   C4B18238  13.620  13.901   7.674
 1160POPC   NC318239  31.929  22.582   9.562
 1160POPC   PO418240  32.512  22.634   9.145
 1160POPC   GL118241  32.323  23.119   9.072
 1160POPC   GL218242  32.593  23.375   9.127
 1160POPC   C1A18243  32.169  23.275   8.679
 1160POPC   D2A18244  32.030  22.881   8.462
 1160POPC   C3A18245  31.852  22.808   8.065
 1160POPC   C4A18246  32.089  22.658   7.727
 1160POPC   C1B18247  32.662  23.130   8.711
 1160POPC   C2B18248  32.497  23.163   8.294
 1160POPC   C3B18249  32.276  23.149   7.908
 1160POPC   C4B18250  32.523  22.927   7.609
 1161POPC   NC318251  33.435  31.217   9.523
 1161POPC   PO418252  34.063  31.501   9.450
 1161POPC   GL118253  33.938  31.617   9.082
 1161POPC   GL218254  33.640  31.495   9.131
 1161POPC   C1A18255  33.918  31.354   8.706
 1161POPC   D2A18256  34.100  31.355   8.324
 1161POPC   C3A18257  33.840  31.362   7.969
 1161POPC   C4A18258  34.002  31.533   7.625
 1161POPC   C1B18259  33.441  31.505   8.748
 1161POPC   C2B18260  33.528  31.566   8.352
 1161POPC   C3B18261  33.318  31.676   8.008
 1161POPC   C4B18262  33.447  31.598   7.616
 1162POPC   NC318263  36.504  36.718   9.328
 1162POPC   PO418264  37.204  36.816   9.461
 1162POPC   GL118265  36.984  36.759   9.095
 1162POPC   GL218266  36.840  37.051   9.131
 1162POPC   C1A18267  37.006  36.652   8.657
 1162POPC   D2A18268  37.065  36.789   8.227
 1162POPC   C3A18269  36.776  36.619   7.941
 1162POPC   C4A18270  36.574  36.930   7.759
 1162POPC   C1B18271  36.637  37.060   8.709
 1162POPC   C2B18272  36.499  37.014   8.266
 1162POPC   C3B18273  36.236  37.247   7.936
 1162POPC   C4B18274  36.273  37.214   7.439
 1163POPC   NC318275  10.294  41.977   9.569
 1163POPC   PO418276  10.604  42.475   9.407
 1163POPC   GL118277  10.568  42.296   9.042
 1163POPC   GL218278  10.237  42.144   9.091
 1163POPC   C1A18279  10.516  42.350   8.615
 1163POPC   D2A18280  10.683  42.326   8.191
 1163POPC   C3A18281  10.480  42.423   7.790
 1163POPC   C4A18282  10.628  42.341   7.356
 1163POPC   C1B18283  10.028  41.971   8.753
 1163POPC   C2B18284  10.180  42.076   8.347
 1163POPC   C3B18285  10.393  41.934   8.019
 1163POPC   C4B18286  10.281  41.984   7.636
 1164POPC   NC318287  21.086   8.301   9.636
 1164POPC   PO418288  21.670   8.179   9.679
 1164POPC   GL118289  21.449   8.249   9.260
 1164POPC   GL218290  21.246   7.940   9.158
 1164POPC   C1A18291  21.388   8.275   8.778
 1164POPC   D2A18292  21.290   8.419   8.326
 1164POPC   C3A18293  21.574   8.356   7.951
 1164POPC   C4A18294  21.473   8.178   7.545
 1164POPC   C1B18295  21.350   7.757   8.730
 1164POPC   C2B18296  21.444   7.892   8.277
 1164POPC   C3B18297  21.150   8.083   7.948
 1164POPC   C4B18298  20.934   8.011   7.563
 1165POPC   NC318299  32.033  40.967   9.524
 1165POPC   PO418300  32.521  40.529   9.394
 1165POPC   GL118301  32.345  40.884   9.146
 1165POPC   GL218302  32.181  40.627   8.984
 1165POPC   C1A18303  32.122  41.127   8.799
 1165POPC   D2A18304  32.191  41.177   8.351
 1165POPC   C3A18305  32.208  40.793   8.130
 1165POPC   C4A18306  32.407  40.741   7.765
 1165POPC   C1B18307  32.451  40.757   8.641
 1165POPC   C2B18308  32.461  40.430   8.377
 1165POPC   C3B18309  32.580  40.308   7.997
 1165POPC   C4B18310  32.564  40.197   7.607
 1166POPC   NC318311  12.525  36.208   9.454
 1166POPC   PO418312  13.155  35.961   9.403
 1166POPC   GL118313  12.857  36.076   9.088
 1166POPC   GL218314  12.489  35.985   9.010
 1166POPC   C1A18315  12.969  36.150   8.686
 1166POPC   D2A18316  12.759  36.173   8.372
 1166POPC   C3A18317  12.986  36.275   8.009
 1166POPC   C4A18318  13.007  36.326   7.571
 1166POPC   C1B18319  12.713  35.688   8.756
 1166POPC   C2B18320  12.633  35.652   8.320
 1166POPC   C3B18321  12.579  35.931   7.983
 1166POPC   C4B18322  12.890  35.846   7.733
 1167POPC   NC318323  44.250   4.030   9.345
 1167POPC   PO418324  44.682   4.387   9.751
 1167POPC   GL118325  44.616   4.398   9.323
 1167POPC   GL218326  44.761   4.051   9.266
 1167POPC   C1A18327  44.696   4.690   8.987
 1167POPC   D2A18328  44.718   4.807   8.559
 1167POPC   C3A18329  44.780   4.515   8.241
 1167POPC   C4A18330  44.747   4.596   7.816
 1167POPC   C1B18331  44.814   3.858   8.861
 1167POPC   C2B18332  44.689   4.008   8.445
 1167POPC   C3B18333  44.793   4.058   8.015
 1167POPC   C4B18334  44.528   3.941   7.717
 1168POPC   NC318335  11.677   0.321   9.475
 1168POPC   PO418336  11.051   0.529   9.575
 1168POPC   GL118337  11.266   0.448   9.181
 1168POPC   GL218338  11.500   0.747   9.202
 1168POPC   C1A18339  11.467   0.284   8.773
 1168POPC   D2A18340  11.278   0.107   8.368
 1168POPC   C3A18341  11.173   0.384   8.000
 1168POPC   C4A18342  11.103   0.407   7.540
 1168POPC   C1B18343  11.290   0.782   8.800
 1168POPC   C2B18344  11.409   0.635   8.400
 1168POPC   C3B18345  11.544   0.736   8.014
 1168POPC   C4B18346  11.591   0.506   7.701
 1169POPC   NC318347  33.720  26.353   9.287
 1169POPC   PO418348  33.733  27.062   9.466
 1169POPC   GL118349  33.817  27.111   9.052
 1169POPC   GL218350  34.186  27.116   9.067
 1169POPC   C1A18351  33.722  26.812   8.758
 1169POPC   D2A18352  33.829  26.579   8.415
 1169POPC   C3A18353  33.647  26.790   8.092
 1169POPC   C4A18354  33.706  26.824   7.698
 1169POPC   C1B18355  34.163  27.041   8.652
 1169POPC   C2B18356  33.896  27.144   8.364
 1169POPC   C3B18357  33.955  27.203   7.936
 1169POPC   C4B18358  34.120  27.047   7.567
 1170POPC   NC318359  35.201  37.928   9.755
 1170POPC   PO418360  35.525  38.449   9.348
 1170POPC   GL118361  35.277  38.451   9.019
 1170POPC   GL218362  35.034  38.645   9.151
 1170POPC   C1A18363  35.289  38.286   8.599
 1170POPC   D2A18364  35.458  37.974   8.324
 1170POPC   C3A18365  35.546  38.226   7.961
 1170POPC   C4A18366  35.701  38.660   7.842
 1170POPC   C1B18367  35.161  38.792   8.679
 1170POPC   C2B18368  35.235  38.684   8.211
 1170POPC   C3B18369  35.226  38.928   7.811
 1170POPC   C4B18370  35.051  38.970   7.366
 1171POPC   NC318371  30.255  30.620   9.410
 1171POPC   PO418372  29.602  30.765   9.622
 1171POPC   GL118373  29.656  30.695   9.200
 1171POPC   GL218374  29.808  30.357   9.195
 1171POPC   C1A18375  29.846  31.002   8.906
 1171POPC   D2A18376  30.139  30.969   8.562
 1171POPC   C3A18377  29.973  30.984   8.135
 1171POPC   C4A18378  29.735  30.845   7.764
 1171POPC   C1B18379  29.917  30.516   8.780
 1171POPC   C2B18380  30.034  30.510   8.344
 1171POPC   C3B18381  30.074  30.489   7.901
 1171POPC   C4B18382  29.880  30.384   7.517
 1172POPC   NC318383  21.923  18.121   9.613
 1172POPC   PO418384  22.376  17.657   9.449
 1172POPC   GL118385  22.121  17.569   9.110
 1172POPC   GL218386  21.824  17.331   9.177
 1172POPC   C1A18387  22.323  17.558   8.724
 1172POPC   D2A18388  22.593  17.435   8.398
 1172POPC   C3A18389  22.443  17.527   8.021
 1172POPC   C4A18390  22.323  17.641   7.631
 1172POPC   C1B18391  21.977  17.179   8.754
 1172POPC   C2B18392  22.050  17.351   8.328
 1172POPC   C3B18393  21.949  17.405   7.886
 1172POPC   C4B18394  22.013  17.168   7.517
 1173POPC   NC318395  39.626  24.628   9.575
 1173POPC   PO418396  40.202  24.420   9.455
 1173POPC   GL118397  39.880  24.366   9.109
 1173POPC   GL218398  39.619  24.113   9.177
 1173POPC   C1A18399  39.847  24.571   8.671
 1173POPC   D2A18400  40.177  24.810   8.405
 1173POPC   C3A18401  40.230  24.644   7.989
 1173POPC   C4A18402  40.039  24.719   7.559
 1173POPC   C1B18403  39.757  24.034   8.705
 1173POPC   C2B18404  39.945  24.187   8.293
 1173POPC   C3B18405  39.893  24.276   7.827
 1173POPC   C4B18406  39.687  24.043   7.487
 1174POPC   NC318407  35.298   7.632   9.521
 1174POPC   PO418408  35.242   6.999   9.449
 1174POPC   GL118409  35.237   7.311   9.103
 1174POPC   GL218410  35.387   7.669   9.032
 1174POPC   C1A18411  35.222   7.297   8.662
 1174POPC   D2A18412  34.947   7.399   8.336
 1174POPC   C3A18413  35.123   7.349   7.998
 1174POPC   C4A18414  35.155   7.244   7.627
 1174POPC   C1B18415  35.692   7.377   8.862
 1174POPC   C2B18416  35.769   7.482   8.447
 1174POPC   C3B18417  35.565   7.683   8.145
 1174POPC   C4B18418  35.522   7.564   7.751
 1175POPC   NC318419  33.776  22.272   9.556
 1175POPC   PO418420  33.552  21.671   9.332
 1175POPC   GL118421  33.704  21.904   9.006
 1175POPC   GL218422  33.886  22.211   9.073
 1175POPC   C1A18423  33.567  22.163   8.681
 1175POPC   D2A18424  33.725  22.380   8.327
 1175POPC   C3A18425  33.833  22.407   7.911
 1175POPC   C4A18426  33.916  21.986   7.779
 1175POPC   C1B18427  34.082  22.182   8.677
 1175POPC   C2B18428  34.231  22.481   8.390
 1175POPC   C3B18429  34.335  22.353   8.007
 1175POPC   C4B18430  34.266  22.431   7.581
 1176POPC   NC318431  27.697  28.165   9.367
 1176POPC   PO418432  27.026  28.204   9.432
 1176POPC   GL118433  27.248  28.470   9.089
 1176POPC   GL218434  27.596  28.659   9.155
 1176POPC   C1A18435  27.538  28.351   8.723
 1176POPC   D2A18436  27.764  28.121   8.374
 1176POPC   C3A18437  27.541  28.139   7.987
 1176POPC   C4A18438  27.317  28.516   7.860
 1176POPC   C1B18439  27.948  28.656   8.833
 1176POPC   C2B18440  27.989  28.587   8.401
 1176POPC   C3B18441  27.783  28.633   8.018
 1176POPC   C4B18442  27.825  28.690   7.576
 1177POPC   NC318443  39.562  31.807   9.459
 1177POPC   PO418444  40.158  31.446   9.463
 1177POPC   GL118445  40.170  31.707   9.115
 1177POPC   GL218446  40.437  31.489   9.024
 1177POPC   C1A18447  39.878  31.862   8.763
 1177POPC   D2A18448  39.489  31.973   8.509
 1177POPC   C3A18449  39.467  31.732   8.102
 1177POPC   C4A18450  39.806  31.586   7.829
 1177POPC   C1B18451  40.353  31.700   8.633
 1177POPC   C2B18452  40.143  31.607   8.247
 1177POPC   C3B18453  40.319  31.503   7.847
 1177POPC   C4B18454  40.216  31.649   7.426
 1178POPC   NC318455   9.204  10.076   9.568
 1178POPC   PO418456   8.729  10.458   9.319
 1178POPC   GL118457   9.105  10.533   9.113
 1178POPC   GL218458   9.259  10.197   9.041
 1178POPC   C1A18459   9.088  10.748   8.713
 1178POPC   D2A18460   9.163  10.518   8.308
 1178POPC   C3A18461   8.856  10.531   7.987
 1178POPC   C4A18462   8.660  10.784   7.675
 1178POPC   C1B18463   8.907  10.272   8.717
 1178POPC   C2B18464   8.806  10.111   8.316
 1178POPC   C3B18465   9.131  10.075   8.023
 1178POPC   C4B18466   9.075  10.243   7.621
 1179POPC   NC318467  14.153  32.410   9.468
 1179POPC   PO418468  14.782  32.247   9.487
 1179POPC   GL118469  14.524  32.265   9.162
 1179POPC   GL218470  14.402  31.944   9.243
 1179POPC   C1A18471  14.292  32.274   8.790
 1179POPC   D2A18472  14.316  32.486   8.389
 1179POPC   C3A18473  14.404  32.298   7.994
 1179POPC   C4A18474  14.233  32.124   7.596
 1179POPC   C1B18475  14.569  31.838   8.829
 1179POPC   C2B18476  14.514  31.993   8.424
 1179POPC   C3B18477  14.631  31.854   8.032
 1179POPC   C4B18478  14.735  32.011   7.644
 1180POPC   NC318479  14.094  29.753   9.439
 1180POPC   PO418480  14.354  30.359   9.553
 1180POPC   GL118481  14.462  30.303   9.116
 1180POPC   GL218482  14.450  29.946   9.075
 1180POPC   C1A18483  14.375  30.276   8.668
 1180POPC   D2A18484  14.373  30.002   8.316
 1180POPC   C3A18485  14.326  30.178   7.931
 1180POPC   C4A18486  14.464  30.458   7.658
 1180POPC   C1B18487  14.644  29.766   8.691
 1180POPC   C2B18488  14.569  29.519   8.303
 1180POPC   C3B18489  14.463  29.664   7.876
 1180POPC   C4B18490  14.393  29.555   7.437
 1181POPC   NC318491   7.578  17.166   9.485
 1181POPC   PO418492   7.388  17.830   9.521
 1181POPC   GL118493   7.311  17.563   9.169
 1181POPC   GL218494   7.488  17.296   9.005
 1181POPC   C1A18495   7.342  17.733   8.768
 1181POPC   D2A18496   7.195  17.627   8.402
 1181POPC   C3A18497   7.274  17.815   8.014
 1181POPC   C4A18498   7.058  17.993   7.682
 1181POPC   C1B18499   7.241  17.160   8.669
 1181POPC   C2B18500   7.244  16.989   8.263
 1181POPC   C3B18501   7.453  17.226   7.911
 1181POPC   C4B18502   7.224  17.260   7.522
 1182POPC   NC318503  11.799  21.487   9.193
 1182POPC   PO418504  12.192  21.021   9.587
 1182POPC   GL118505  12.263  21.244   9.177
 1182POPC   GL218506  12.023  21.047   9.038
 1182POPC   C1A18507  12.230  21.486   8.748
 1182POPC   D2A18508  11.997  21.399   8.380
 1182POPC   C3A18509  11.954  21.674   8.042
 1182POPC   C4A18510  11.678  21.616   7.726
 1182POPC   C1B18511  12.099  20.928   8.629
 1182POPC   C2B18512  11.874  20.881   8.258
 1182POPC   C3B18513  11.815  21.155   7.929
 1182POPC   C4B18514  12.031  21.272   7.556
 1183POPC   NC318515   1.039  42.672   9.481
 1183POPC   PO418516   1.605  42.351   9.656
 1183POPC   GL118517   1.346  42.336   9.239
 1183POPC   GL218518   1.249  42.664   9.018
 1183POPC   C1A18519   1.354  42.236   8.800
 1183POPC   D2A18520   1.487  42.492   8.434
 1183POPC   C3A18521   1.482  42.269   8.048
 1183POPC   C4A18522   1.156  42.252   7.734
 1183POPC   C1B18523   1.011  42.565   8.644
 1183POPC   C2B18524   1.003  42.353   8.265
 1183POPC   C3B18525   0.821  42.585   7.925
 1183POPC   C4B18526   0.782  42.496   7.468
 1184POPC   NC318527  34.955  37.254   9.467
 1184POPC   PO418528  35.184  36.607   9.469
 1184POPC   GL118529  35.269  36.666   9.077
 1184POPC   GL218530  35.276  37.048   9.098
 1184POPC   C1A18531  35.170  36.436   8.687
 1184POPC   D2A18532  34.976  36.499   8.271
 1184POPC   C3A18533  35.295  36.627   7.957
 1184POPC   C4A18534  35.573  36.769   7.633
 1184POPC   C1B18535  35.174  36.945   8.665
 1184POPC   C2B18536  35.157  37.008   8.254
 1184POPC   C3B18537  35.287  37.128   7.868
 1184POPC   C4B18538  34.976  37.155   7.586
 1185POPC   NC318539  43.431  20.800   9.715
 1185POPC   PO418540  42.824  20.553   9.471
 1185POPC   GL118541  43.013  20.704   9.124
 1185POPC   GL218542  43.213  20.389   9.100
 1185POPC   C1A18543  42.967  20.953   8.739
 1185POPC   D2A18544  43.279  20.984   8.397
 1185POPC   C3A18545  43.228  20.757   8.015
 1185POPC   C4A18546  43.202  20.937   7.582
 1185POPC   C1B18547  43.128  20.474   8.666
 1185POPC   C2B18548  43.163  20.308   8.270
 1185POPC   C3B18549  42.914  20.345   7.931
 1185POPC   C4B18550  42.889  20.253   7.487
 1186POPC   NC318551  40.155  23.165   9.547
 1186POPC   PO418552  39.761  22.556   9.625
 1186POPC   GL118553  39.868  22.813   9.225
 1186POPC   GL218554  39.834  23.137   9.138
 1186POPC   C1A18555  39.962  22.807   8.745
 1186POPC   D2A18556  39.887  22.625   8.315
 1186POPC   C3A18557  40.020  22.757   7.897
 1186POPC   C4A18558  39.883  22.621   7.481
 1186POPC   C1B18559  40.191  23.245   8.870
 1186POPC   C2B18560  40.366  23.237   8.435
 1186POPC   C3B18561  40.269  23.340   7.979
 1186POPC   C4B18562  39.818  23.320   7.824
 1187POPC   NC318563  10.631  44.381   9.355
 1187POPC   PO418564  10.274  44.900   9.546
 1187POPC   GL118565  10.441  44.811   9.121
 1187POPC   GL218566  10.378  44.475   8.923
 1187POPC   C1A18567  10.580  44.865   8.686
 1187POPC   D2A18568  10.753  44.698   8.319
 1187POPC   C3A18569  10.475  44.566   8.061
 1187POPC   C4A18570  10.326  44.773   7.764
 1187POPC   C1B18571  10.815  44.409   8.731
 1187POPC   C2B18572  10.890  44.201   8.332
 1187POPC   C3B18573  10.929  44.342   7.921
 1187POPC   C4B18574  10.811  44.642   7.592
 1188POPC   NC318575  30.723   9.854   9.480
 1188POPC   PO418576  31.258   9.955   9.186
 1188POPC   GL118577  30.868   9.994   9.012
 1188POPC   GL218578  30.740   9.638   9.035
 1188POPC   C1A18579  30.584   9.956   8.669
 1188POPC   D2A18580  30.503  10.111   8.285
 1188POPC   C3A18581  30.596   9.850   7.943
 1188POPC   C4A18582  30.954   9.859   7.693
 1188POPC   C1B18583  30.985   9.622   8.691
 1188POPC   C2B18584  30.864   9.642   8.305
 1188POPC   C3B18585  30.844   9.398   7.944
 1188POPC   C4B18586  30.445   9.404   7.727
 1189POPC   NC318587  28.028  28.961   9.497
 1189POPC   PO418588  28.503  29.357   9.611
 1189POPC   GL118589  28.348  29.240   9.206
 1189POPC   GL218590  28.409  28.856   9.093
 1189POPC   C1A18591  28.410  29.265   8.789
 1189POPC   D2A18592  28.314  28.977   8.519
 1189POPC   C3A18593  28.364  29.185   8.170
 1189POPC   C4A18594  28.435  29.257   7.773
 1189POPC   C1B18595  28.776  28.844   8.766
 1189POPC   C2B18596  28.818  29.037   8.359
 1189POPC   C3B18597  28.735  28.883   7.928
 1189POPC   C4B18598  28.685  28.964   7.442
 1190POPC   NC318599  32.082   0.511   9.531
 1190POPC   PO418600  32.687   0.360   9.684
 1190POPC   GL118601  32.388   0.308   9.202
 1190POPC   GL218602  32.072   0.355   9.052
 1190POPC   C1A18603  32.467   0.375   8.730
 1190POPC   D2A18604  32.397   0.210   8.313
 1190POPC   C3A18605  32.296   0.522   8.006
 1190POPC   C4A18606  32.627   0.708   7.739
 1190POPC   C1B18607  31.969   0.187   8.640
 1190POPC   C2B18608  31.823   0.351   8.248
 1190POPC   C3B18609  31.782   0.324   7.819
 1190POPC   C4B18610  31.774   0.220   7.397
 1191POPC   NC318611  23.439  28.241   9.575
 1191POPC   PO418612  23.908  28.642   9.461
 1191POPC   GL118613  23.845  28.310   9.179
 1191POPC   GL218614  23.959  28.456   8.871
 1191POPC   C1A18615  23.594  28.099   8.869
 1191POPC   D2A18616  23.650  28.294   8.453
 1191POPC   C3A18617  23.492  28.114   8.077
 1191POPC   C4A18618  23.823  28.213   7.809
 1191POPC   C1B18619  23.576  28.697   8.789
 1191POPC   C2B18620  23.358  28.719   8.397
 1191POPC   C3B18621  23.541  28.633   7.999
 1191POPC   C4B18622  23.713  28.672   7.587
 1192POPC   NC318623  30.416  35.731   9.378
 1192POPC   PO418624  29.755  35.996   9.496
 1192POPC   GL118625  29.719  36.062   9.060
 1192POPC   GL218626  30.050  36.092   8.999
 1192POPC   C1A18627  29.660  36.257   8.657
 1192POPC   D2A18628  29.883  36.401   8.321
 1192POPC   C3A18629  29.654  36.293   7.949
 1192POPC   C4A18630  29.596  35.893   7.731
 1192POPC   C1B18631  30.251  36.300   8.690
 1192POPC   C2B18632  30.380  36.158   8.307
 1192POPC   C3B18633  30.354  36.172   7.899
 1192POPC   C4B18634  30.051  36.140   7.663
 1193POPC   NC318635  16.438  32.073   9.483
 1193POPC   PO418636  17.022  32.184   9.435
 1193POPC   GL118637  16.809  32.354   9.132
 1193POPC   GL218638  16.691  32.034   9.034
 1193POPC   C1A18639  16.920  32.369   8.720
 1193POPC   D2A18640  16.793  32.115   8.356
 1193POPC   C3A18641  16.960  32.214   7.933
 1193POPC   C4A18642  16.909  32.060   7.512
 1193POPC   C1B18643  16.418  32.293   8.762
 1193POPC   C2B18644  16.235  32.334   8.347
 1193POPC   C3B18645  16.448  32.297   7.959
 1193POPC   C4B18646  16.455  31.869   7.814
 1194POPC   NC318647  32.535  27.094   9.450
 1194POPC   PO418648  32.285  27.696   9.531
 1194POPC   GL118649  32.341  27.477   9.172
 1194POPC   GL218650  32.026  27.311   9.197
 1194POPC   C1A18651  32.514  27.598   8.788
 1194POPC   D2A18652  32.673  27.729   8.395
 1194POPC   C3A18653  32.386  27.604   8.075
 1194POPC   C4A18654  32.549  27.499   7.708
 1194POPC   C1B18655  32.007  27.512   8.774
 1194POPC   C2B18656  31.964  27.400   8.392
 1194POPC   C3B18657  32.016  27.160   8.085
 1194POPC   C4B18658  32.127  27.255   7.726
 1195POPC   NC318659  34.092  27.829   9.744
 1195POPC   PO418660  34.618  27.408   9.507
 1195POPC   GL118661  34.627  27.388   9.043
 1195POPC   GL218662  34.501  27.699   8.920
 1195POPC   C1A18663  34.563  27.352   8.569
 1195POPC   D2A18664  34.288  27.455   8.268
 1195POPC   C3A18665  34.469  27.560   7.882
 1195POPC   C4A18666  34.552  27.790   7.496
 1195POPC   C1B18667  34.902  27.709   8.701
 1195POPC   C2B18668  34.833  27.720   8.261
 1195POPC   C3B18669  34.949  27.729   7.840
 1195POPC   C4B18670  35.045  27.968   7.480
 1196POPC   NC318671  29.707  38.280   9.466
 1196POPC   PO418672  30.382  38.319   9.604
 1196POPC   GL118673  30.120  38.419   9.210
 1196POPC   GL218674  30.138  38.154   8.971
 1196POPC   C1A18675  29.865  38.571   8.816
 1196POPC   D2A18676  29.619  38.531   8.417
 1196POPC   C3A18677  29.801  38.575   7.997
 1196POPC   C4A18678  30.191  38.687   7.756
 1196POPC   C1B18679  29.804  38.079   8.697
 1196POPC   C2B18680  30.055  38.246   8.377
 1196POPC   C3B18681  30.078  38.147   7.976
 1196POPC   C4B18682  29.716  38.085   7.794
 1197POPC   NC318683  36.414  43.551   9.478
 1197POPC   PO418684  36.086  44.100   9.603
 1197POPC   GL118685  36.209  43.964   9.181
 1197POPC   GL218686  35.972  43.746   9.099
 1197POPC   C1A18687  36.398  43.653   8.820
 1197POPC   D2A18688  36.633  43.565   8.402
 1197POPC   C3A18689  36.430  43.530   8.008
 1197POPC   C4A18690  36.564  43.704   7.650
 1197POPC   C1B18691  35.983  43.944   8.700
 1197POPC   C2B18692  36.122  43.794   8.310
 1197POPC   C3B18693  36.134  43.929   7.870
 1197POPC   C4B18694  36.035  43.668   7.515
 1198POPC   NC318695  28.991  26.257   9.533
 1198POPC   PO418696  29.328  25.656   9.606
 1198POPC   GL118697  29.173  25.820   9.193
 1198POPC   GL218698  29.122  26.151   9.056
 1198POPC   C1A18699  29.343  25.826   8.734
 1198POPC   D2A18700  29.174  25.808   8.337
 1198POPC   C3A18701  29.402  25.857   7.962
 1198POPC   C4A18702  29.300  25.932   7.549
 1198POPC   C1B18703  29.081  26.450   8.713
 1198POPC   C2B18704  29.152  26.324   8.287
 1198POPC   C3B18705  29.090  26.284   7.849
 1198POPC   C4B18706  29.311  26.469   7.507
 1199POPC   NC318707  14.213  25.669   9.496
 1199POPC   PO418708  14.394  24.965   9.477
 1199POPC   GL118709  14.392  25.087   9.080
 1199POPC   GL218710  14.467  25.423   9.139
 1199POPC   C1A18711  14.555  25.079   8.674
 1199POPC   D2A18712  14.298  25.077   8.327
 1199POPC   C3A18713  14.389  25.246   7.961
 1199POPC   C4A18714  14.266  25.040   7.628
 1199POPC   C1B18715  14.308  25.540   8.751
 1199POPC   C2B18716  14.545  25.514   8.387
 1199POPC   C3B18717  14.668  25.670   7.994
 1199POPC   C4B18718  14.314  25.709   7.720
 1200POPC   NC318719  11.732  29.173   9.467
 1200POPC   PO418720  11.171  29.415   9.497
 1200POPC   GL118721  11.255  29.173   9.131
 1200POPC   GL218722  11.546  28.954   9.063
 1200POPC   C1A18723  11.308  29.338   8.749
 1200POPC   D2A18724  11.571  29.371   8.409
 1200POPC   C3A18725  11.288  29.361   8.063
 1200POPC   C4A18726  11.294  29.516   7.649
 1200POPC   C1B18727  11.488  28.854   8.652
 1200POPC   C2B18728  11.187  28.968   8.388
 1200POPC   C3B18729  11.090  28.884   7.990
 1200POPC   C4B18730  11.249  28.959   7.550
 1201POPC   NC318731  44.598  26.917   9.567
 1201POPC   PO418732   0.211  26.739   9.517
 1201POPC   GL118733  44.881  26.724   9.189
 1201POPC   GL218734  44.748  27.023   9.059
 1201POPC   C1A18735  44.718  26.589   8.775
 1201POPC   D2A18736  44.776  26.865   8.409
 1201POPC   C3A18737  44.791  26.752   7.973
 1201POPC   C4A18738  44.540  26.625   7.649
 1201POPC   C1B18739  44.388  26.996   8.786
 1201POPC   C2B18740  44.319  27.132   8.357
 1201POPC   C3B18741  44.312  27.004   7.926
 1201POPC   C4B18742  44.102  27.012   7.514
 1202POPC   NC318743  26.925  24.124   9.434
 1202POPC   PO418744  26.698  23.519   9.371
 1202POPC   GL118745  26.934  23.714   9.093
 1202POPC   GL218746  27.206  23.482   9.208
 1202POPC   C1A18747  26.724  23.883   8.709
 1202POPC   D2A18748  26.587  24.094   8.325
 1202POPC   C3A18749  26.735  23.868   7.956
 1202POPC   C4A18750  26.927  23.905   7.549
 1202POPC   C1B18751  27.212  23.455   8.769
 1202POPC   C2B18752  27.054  23.552   8.385
 1202POPC   C3B18753  27.211  23.590   7.987
 1202POPC   C4B18754  27.150  23.404   7.611
 1203POPC   NC318755  15.929  36.444   9.652
 1203POPC   PO418756  16.188  35.843   9.608
 1203POPC   GL118757  16.018  35.733   9.161
 1203POPC   GL218758  15.668  35.625   9.181
 1203POPC   C1A18759  16.042  35.830   8.668
 1203POPC   D2A18760  16.028  35.771   8.182
 1203POPC   C3A18761  16.331  36.068   7.911
 1203POPC   C4A18762  16.448  36.256   7.479
 1203POPC   C1B18763  15.587  35.952   8.912
 1203POPC   C2B18764  15.521  36.102   8.520
 1203POPC   C3B18765  15.551  35.999   8.115
 1203POPC   C4B18766  15.815  36.055   7.798
 1204POPC   NC318767  28.848  15.141   9.819
 1204POPC   PO418768  29.326  14.868   9.324
 1204POPC   GL118769  29.273  14.949   8.952
 1204POPC   GL218770  29.207  15.245   8.974
 1204POPC   C1A18771  29.055  14.905   8.579
 1204POPC   D2A18772  28.849  14.812   8.210
 1204POPC   C3A18773  29.079  14.937   7.856
 1204POPC   C4A18774  28.980  14.919   7.428
 1204POPC   C1B18775  29.556  15.334   8.731
 1204POPC   C2B18776  29.642  15.344   8.289
 1204POPC   C3B18777  29.246  15.378   8.058
 1204POPC   C4B18778  29.054  15.401   7.650
 1205POPC   NC318779   9.541   3.714   9.633
 1205POPC   PO418780   8.967   3.920   9.734
 1205POPC   GL118781   9.116   3.678   9.300
 1205POPC   GL218782   8.934   3.359   9.152
 1205POPC   C1A18783   9.164   3.646   8.805
 1205POPC   D2A18784   8.912   3.658   8.406
 1205POPC   C3A18785   9.070   3.525   8.010
 1205POPC   C4A18786   9.244   3.903   7.866
 1205POPC   C1B18787   8.834   3.232   8.680
 1205POPC   C2B18788   8.647   3.269   8.219
 1205POPC   C3B18789   8.586   3.589   7.864
 1205POPC   C4B18790   8.587   3.534   7.405
 1206POPC   NC318791  41.151  21.955   9.513
 1206POPC   PO418792  40.595  22.406   9.410
 1206POPC   GL118793  40.763  22.319   9.050
 1206POPC   GL218794  41.087  22.261   9.097
 1206POPC   C1A18795  40.678  22.254   8.633
 1206POPC   D2A18796  40.479  22.090   8.302
 1206POPC   C3A18797  40.689  21.961   7.974
 1206POPC   C4A18798  40.528  21.871   7.610
 1206POPC   C1B18799  41.112  22.521   8.724
 1206POPC   C2B18800  40.976  22.531   8.288
 1206POPC   C3B18801  41.097  22.303   7.918
 1206POPC   C4B18802  40.823  22.277   7.556
 1207POPC   NC318803  25.334  37.051   9.758
 1207POPC   PO418804  25.307  36.450   9.589
 1207POPC   GL118805  25.441  36.713   9.146
 1207POPC   GL218806  25.356  37.056   9.047
 1207POPC   C1A18807  25.417  36.706   8.690
 1207POPC   D2A18808  25.262  36.979   8.386
 1207POPC   C3A18809  25.184  36.732   8.077
 1207POPC   C4A18810  25.359  36.880   7.776
 1207POPC   C1B18811  24.927  37.058   8.753
 1207POPC   C2B18812  24.754  36.896   8.348
 1207POPC   C3B18813  24.843  37.106   7.984
 1207POPC   C4B18814  25.035  37.270   7.637
 1208POPC   NC318815  23.918   1.200   9.384
 1208POPC   PO418816  23.361   1.565   9.478
 1208POPC   GL118817  23.498   1.325   9.138
 1208POPC   GL218818  23.549   1.625   8.994
 1208POPC   C1A18819  23.554   1.172   8.727
 1208POPC   D2A18820  23.855   1.238   8.380
 1208POPC   C3A18821  23.778   1.129   7.963
 1208POPC   C4A18822  23.622   1.084   7.546
 1208POPC   C1B18823  23.944   1.541   8.790
 1208POPC   C2B18824  24.126   1.680   8.388
 1208POPC   C3B18825  24.179   1.456   7.991
 1208POPC   C4B18826  23.941   1.476   7.622
 1209POPC   NC318827  25.091  19.139   9.464
 1209POPC   PO418828  25.465  18.650   9.475
 1209POPC   GL118829  25.418  18.908   9.109
 1209POPC   GL218830  25.555  19.236   9.206
 1209POPC   C1A18831  25.100  19.076   8.790
 1209POPC   D2A18832  25.045  19.297   8.394
 1209POPC   C3A18833  25.259  19.102   8.015
 1209POPC   C4A18834  25.339  18.770   7.692
 1209POPC   C1B18835  25.606  19.232   8.754
 1209POPC   C2B18836  25.548  19.418   8.354
 1209POPC   C3B18837  25.446  19.575   7.946
 1209POPC   C4B18838  25.280  19.356   7.581
 1210POPC   NC318839  42.595  12.629   9.531
 1210POPC   PO418840  42.238  12.003   9.462
 1210POPC   GL118841  42.207  12.085   9.071
 1210POPC   GL218842  42.542  11.988   9.049
 1210POPC   C1A18843  42.295  12.183   8.653
 1210POPC   D2A18844  42.459  11.880   8.363
 1210POPC   C3A18845  42.323  11.948   7.942
 1210POPC   C4A18846  42.301  12.273   7.641
 1210POPC   C1B18847  42.736  11.747   8.814
 1210POPC   C2B18848  42.944  11.821   8.511
 1210POPC   C3B18849  42.924  11.605   8.165
 1210POPC   C4B18850  42.745  11.712   7.791
 1211POPC   NC318851   5.345  38.578   9.478
 1211POPC   PO418852   4.812  38.180   9.511
 1211POPC   GL118853   5.000  38.442   9.152
 1211POPC   GL218854   4.869  38.812   9.163
 1211POPC   C1A18855   5.263  38.462   8.770
 1211POPC   D2A18856   5.406  38.685   8.425
 1211POPC   C3A18857   5.430  38.461   8.038
 1211POPC   C4A18858   5.297  38.471   7.624
 1211POPC   C1B18859   4.943  38.885   8.723
 1211POPC   C2B18860   4.916  38.702   8.324
 1211POPC   C3B18861   5.087  38.830   7.946
 1211POPC   C4B18862   4.908  38.805   7.562
 1212POPC   NC318863  38.347  33.321   9.444
 1212POPC   PO418864  37.933  32.809   9.494
 1212POPC   GL118865  38.286  32.892   9.171
 1212POPC   GL218866  38.670  33.012   9.170
 1212POPC   C1A18867  38.428  32.810   8.751
 1212POPC   D2A18868  38.265  32.702   8.352
 1212POPC   C3A18869  38.517  32.866   7.992
 1212POPC   C4A18870  38.406  33.169   7.666
 1212POPC   C1B18871  38.641  33.296   8.787
 1212POPC   C2B18872  38.707  33.482   8.359
 1212POPC   C3B18873  38.786  33.323   7.957
 1212POPC   C4B18874  39.004  32.959   7.774
 1213POPC   NC318875  44.818  44.944   9.488
 1213POPC   PO418876  44.430  44.385   9.680
 1213POPC   GL118877  44.448  44.589   9.252
 1213POPC   GL218878  44.767  44.645   9.078
 1213POPC   C1A18879  44.383  44.571   8.772
 1213POPC   D2A18880  44.694  44.588   8.402
 1213POPC   C3A18881  44.523  44.738   8.008
 1213POPC   C4A18882  44.456  44.612   7.564
 1213POPC   C1B18883  44.939  44.961   8.782
 1213POPC   C2B18884   0.095  44.944   8.364
 1213POPC   C3B18885   0.041  44.807   7.960
 1213POPC   C4B18886  44.787   0.010   7.676
 1214POPC   NC318887  13.653  41.887   9.423
 1214POPC   PO418888  13.585  41.182   9.454
 1214POPC   GL118889  13.434  41.490   9.167
 1214POPC   GL218890  13.783  41.555   9.062
 1214POPC   C1A18891  13.358  41.620   8.723
 1214POPC   D2A18892  13.312  41.877   8.332
 1214POPC   C3A18893  13.402  41.630   7.965
 1214POPC   C4A18894  13.445  41.219   7.744
 1214POPC   C1B18895  13.890  41.669   8.642
 1214POPC   C2B18896  13.847  41.715   8.201
 1214POPC   C3B18897  13.855  41.742   7.723
 1214POPC   C4B18898  13.909  41.906   7.253
 1215POPC   NC318899  27.069  13.129   9.453
 1215POPC   PO418900  26.491  12.835   9.204
 1215POPC   GL118901  26.867  12.923   9.041
 1215POPC   GL218902  27.047  12.665   9.200
 1215POPC   C1A18903  27.088  13.115   8.723
 1215POPC   D2A18904  26.915  13.207   8.318
 1215POPC   C3A18905  27.066  13.066   7.914
 1215POPC   C4A18906  26.984  12.834   7.529
 1215POPC   C1B18907  27.054  12.523   8.770
 1215POPC   C2B18908  26.915  12.359   8.370
 1215POPC   C3B18909  26.912  12.561   7.964
 1215POPC   C4B18910  26.552  12.799   7.804
 1216POPC   NC318911  30.575  24.880   9.821
 1216POPC   PO418912  30.042  24.514   9.482
 1216POPC   GL118913  30.062  24.516   9.049
 1216POPC   GL218914  29.940  24.169   9.062
 1216POPC   C1A18915  30.018  24.403   8.604
 1216POPC   D2A18916  30.140  24.357   8.170
 1216POPC   C3A18917  29.976  24.654   7.872
 1216POPC   C4A18918  30.011  24.651   7.430
 1216POPC   C1B18919  29.648  23.911   8.814
 1216POPC   C2B18920  29.815  23.956   8.408
 1216POPC   C3B18921  29.706  24.109   8.024
 1216POPC   C4B18922  29.923  24.185   7.641
 1217POPC   NC318923  36.006  17.662   9.650
 1217POPC   PO418924  35.925  18.321   9.519
 1217POPC   GL118925  36.070  18.303   9.093
 1217POPC   GL218926  36.196  18.568   8.966
 1217POPC   C1A18927  36.144  18.125   8.674
 1217POPC   D2A18928  35.852  18.237   8.320
 1217POPC   C3A18929  35.960  18.100   7.918
 1217POPC   C4A18930  36.383  18.070   7.746
 1217POPC   C1B18931  36.003  18.612   8.645
 1217POPC   C2B18932  36.256  18.558   8.339
 1217POPC   C3B18933  36.179  18.561   7.953
 1217POPC   C4B18934  36.363  18.896   7.785
 1218POPC   NC318935  22.456   0.845   9.363
 1218POPC   PO418936  21.872   1.117   9.436
 1218POPC   GL118937  22.058   0.992   9.068
 1218POPC   GL218938  22.261   1.285   9.087
 1218POPC   C1A18939  22.290   1.002   8.655
 1218POPC   D2A18940  22.430   1.296   8.324
 1218POPC   C3A18941  22.414   1.073   7.941
 1218POPC   C4A18942  22.037   0.929   7.756
 1218POPC   C1B18943  21.946   1.357   8.733
 1218POPC   C2B18944  21.991   1.588   8.371
 1218POPC   C3B18945  22.041   1.421   7.998
 1218POPC   C4B18946  22.194   1.391   7.585
 1219POPC   NC318947  33.137  36.556   9.498
 1219POPC   PO418948  33.006  37.173   9.701
 1219POPC   GL118949  33.006  37.016   9.228
 1219POPC   GL218950  32.967  36.667   9.047
 1219POPC   C1A18951  33.188  37.020   8.790
 1219POPC   D2A18952  33.093  36.639   8.524
 1219POPC   C3A18953  33.321  36.697   8.183
 1219POPC   C4A18954  33.174  37.059   7.958
 1219POPC   C1B18955  32.653  36.504   8.748
 1219POPC   C2B18956  32.564  36.473   8.339
 1219POPC   C3B18957  32.826  36.637   8.037
 1219POPC   C4B18958  32.825  36.829   7.632
 1220POPC   NC318959  25.935   7.111   9.859
 1220POPC   PO418960  25.994   7.652   9.485
 1220POPC   GL118961  26.067   7.478   9.134
 1220POPC   GL218962  25.754   7.582   8.995
 1220POPC   C1A18963  26.143   7.201   8.854
 1220POPC   D2A18964  26.264   7.219   8.451
 1220POPC   C3A18965  25.996   7.335   8.131
 1220POPC   C4A18966  26.170   7.454   7.791
 1220POPC   C1B18967  25.899   7.585   8.598
 1220POPC   C2B18968  25.782   7.781   8.220
 1220POPC   C3B18969  25.732   7.694   7.803
 1220POPC   C4B18970  25.772   7.611   7.385
 1221POPC   NC318971  18.861   8.144   9.442
 1221POPC   PO418972  19.494   8.516   9.480
 1221POPC   GL118973  19.350   8.364   9.121
 1221POPC   GL218974  19.075   8.528   9.088
 1221POPC   C1A18975  19.288   8.187   8.722
 1221POPC   D2A18976  19.143   7.967   8.381
 1221POPC   C3A18977  19.126   8.077   7.972
 1221POPC   C4A18978  19.471   7.952   7.762
 1221POPC   C1B18979  18.873   8.489   8.655
 1221POPC   C2B18980  18.821   8.419   8.221
 1221POPC   C3B18981  18.990   8.574   7.852
 1221POPC   C4B18982  19.281   8.409   7.594
 1222POPC   NC318983  28.943  29.365   9.506
 1222POPC   PO418984  29.427  29.005   9.461
 1222POPC   GL118985  29.158  29.007   9.098
 1222POPC   GL218986  28.865  29.257   9.030
 1222POPC   C1A18987  29.241  29.161   8.687
 1222POPC   D2A18988  29.507  29.161   8.329
 1222POPC   C3A18989  29.219  29.065   8.007
 1222POPC   C4A18990  29.136  28.864   7.623
 1222POPC   C1B18991  28.888  29.544   8.676
 1222POPC   C2B18992  29.228  29.709   8.364
 1222POPC   C3B18993  29.319  29.560   7.919
 1222POPC   C4B18994  28.934  29.340   7.694
 1223POPC   NC318995  18.188  11.440   9.377
 1223POPC   PO418996  18.523  10.876   9.205
 1223POPC   GL118997  18.297  11.156   8.961
 1223POPC   GL218998  17.966  11.097   9.067
 1223POPC   C1A18999  18.257  11.230   8.512
 1223POPC   D2A19000  18.477  11.438   8.168
 1223POPC   C3A19001  18.450  11.183   7.769
 1223POPC   C4A19002  18.561  10.876   7.393
 1223POPC   C1B19003  17.903  11.483   8.777
 1223POPC   C2B19004  18.002  11.690   8.367
 1223POPC   C3B19005  18.209  11.830   7.980
 1223POPC   C4B19006  18.139  11.672   7.570
 1224POPC   NC319007  37.407  24.074   9.290
 1224POPC   PO419008  37.654  24.714   9.458
 1224POPC   GL119009  37.760  24.617   9.085
 1224POPC   GL219010  37.700  24.954   9.004
 1224POPC   C1A19011  37.935  24.333   8.787
 1224POPC   D2A19012  37.890  24.126   8.417
 1224POPC   C3A19013  37.776  24.358   8.057
 1224POPC   C4A19014  37.589  24.254   7.677
 1224POPC   C1B19015  37.664  24.776   8.629
 1224POPC   C2B19016  37.955  24.712   8.411
 1224POPC   C3B19017  37.881  24.879   8.050
 1224POPC   C4B19018  37.518  24.799   7.818
 1225POPC   NC319019   8.013  37.279   9.333
 1225POPC   PO419020   8.356  36.702   9.611
 1225POPC   GL119021   8.304  36.711   9.197
 1225POPC   GL219022   8.548  36.938   9.146
 1225POPC   C1A19023   8.455  36.491   8.830
 1225POPC   D2A19024   8.249  36.411   8.443
 1225POPC   C3A19025   8.369  36.658   8.067
 1225POPC   C4A19026   8.643  36.611   7.675
 1225POPC   C1B19027   8.356  36.972   8.744
 1225POPC   C2B19028   8.345  37.277   8.449
 1225POPC   C3B19029   8.492  37.212   8.065
 1225POPC   C4B19030   8.207  37.053   7.774
 1226POPC   NC319031  19.015  32.686   9.566
 1226POPC   PO419032  18.883  32.086   9.660
 1226POPC   GL119033  19.032  32.114   9.227
 1226POPC   GL219034  19.329  32.280   9.277
 1226POPC   C1A19035  19.096  32.002   8.779
 1226POPC   D2A19036  18.754  31.999   8.463
 1226POPC   C3A19037  18.888  32.144   8.073
 1226POPC   C4A19038  19.282  32.268   7.917
 1226POPC   C1B19039  19.350  32.445   8.843
 1226POPC   C2B19040  19.284  32.456   8.400
 1226POPC   C3B19041  19.376  32.771   8.084
 1226POPC   C4B19042  19.365  32.773   7.649
 1227POPC   NC319043  34.038  10.960   9.547
 1227POPC   PO419044  33.653  11.485   9.520
 1227POPC   GL119045  33.692  11.213   9.196
 1227POPC   GL219046  34.024  11.209   9.101
 1227POPC   C1A19047  33.550  11.113   8.788
 1227POPC   D2A19048  33.521  11.418   8.427
 1227POPC   C3A19049  33.730  11.353   8.024
 1227POPC   C4A19050  33.661  11.188   7.612
 1227POPC   C1B19051  33.901  11.494   8.779
 1227POPC   C2B19052  33.973  11.676   8.370
 1227POPC   C3B19053  34.144  11.722   7.965
 1227POPC   C4B19054  34.111  11.432   7.643
 1228POPC   NC319055  39.884  18.013   9.364
 1228POPC   PO419056  40.194  18.604   9.394
 1228POPC   GL119057  39.981  18.414   9.043
 1228POPC   GL219058  39.768  18.640   8.891
 1228POPC   C1A19059  39.988  18.111   8.708
 1228POPC   D2A19060  40.257  18.091   8.362
 1228POPC   C3A19061  40.056  18.221   8.019
 1228POPC   C4A19062  40.246  18.058   7.663
 1228POPC   C1B19063  39.540  18.359   8.686
 1228POPC   C2B19064  39.615  18.183   8.318
 1228POPC   C3B19065  39.523  18.277   7.920
 1228POPC   C4B19066  39.771  18.596   7.757
 1229POPC   NC319067   7.029  33.903   9.521
 1229POPC   PO419068   7.709  33.797   9.485
 1229POPC   GL119069   7.408  33.843   9.199
 1229POPC   GL219070   7.256  33.498   9.247
 1229POPC   C1A19071   7.449  33.998   8.813
 1229POPC   D2A19072   7.706  34.115   8.477
 1229POPC   C3A19073   7.498  34.073   8.099
 1229POPC   C4A19074   7.376  34.105   7.685
 1229POPC   C1B19075   7.586  33.451   8.929
 1229POPC   C2B19076   7.573  33.587   8.514
 1229POPC   C3B19077   7.468  33.575   8.081
 1229POPC   C4B19078   7.517  33.598   7.653
 1230POPC   NC319079  10.652  25.062   9.524
 1230POPC   PO419080  10.344  25.614   9.381
 1230POPC   GL119081  10.600  25.338   9.106
 1230POPC   GL219082  10.451  25.018   9.052
 1230POPC   C1A19083  10.914  25.154   8.828
 1230POPC   D2A19084  10.995  24.988   8.413
 1230POPC   C3A19085  10.780  25.125   8.029
 1230POPC   C4A19086  10.647  25.138   7.590
 1230POPC   C1B19087  10.446  25.167   8.622
 1230POPC   C2B19088  10.338  24.995   8.235
 1230POPC   C3B19089  10.218  25.181   7.854
 1230POPC   C4B19090  10.309  25.525   7.550
 1231POPC   NC319091   5.475  29.881   9.781
 1231POPC   PO419092   4.942  30.241   9.581
 1231POPC   GL119093   4.977  30.010   9.187
 1231POPC   GL219094   5.196  29.715   9.291
 1231POPC   C1A19095   5.088  30.261   8.782
 1231POPC   D2A19096   4.915  30.365   8.366
 1231POPC   C3A19097   5.074  30.208   7.967
 1231POPC   C4A19098   5.119  29.867   7.627
 1231POPC   C1B19099   5.300  29.773   8.849
 1231POPC   C2B19100   5.226  29.918   8.430
 1231POPC   C3B19101   5.370  29.809   8.037
 1231POPC   C4B19102   5.689  29.673   7.693
 1232POPC   NC319103  42.150  23.862   9.478
 1232POPC   PO419104  42.788  23.786   9.272
 1232POPC   GL119105  42.386  23.721   9.052
 1232POPC   GL219106  42.111  23.469   9.140
 1232POPC   C1A19107  42.351  23.701   8.643
 1232POPC   D2A19108  42.396  23.895   8.251
 1232POPC   C3A19109  42.536  23.558   7.983
 1232POPC   C4A19110  42.498  23.474   7.548
 1232POPC   C1B19111  42.153  23.256   8.773
 1232POPC   C2B19112  42.225  23.286   8.314
 1232POPC   C3B19113  42.066  23.405   7.868
 1232POPC   C4B19114  42.010  23.318   7.393
 1233POPC   NC319115   3.123  37.330   9.462
 1233POPC   PO419116   3.754  36.995   9.502
 1233POPC   GL119117   3.663  36.917   9.114
 1233POPC   GL219118   3.312  36.924   9.096
 1233POPC   C1A19119   3.635  36.875   8.698
 1233POPC   D2A19120   3.474  37.079   8.363
 1233POPC   C3A19121   3.507  36.796   8.045
 1233POPC   C4A19122   3.566  37.005   7.661
 1233POPC   C1B19123   3.127  36.848   8.672
 1233POPC   C2B19124   2.997  36.932   8.231
 1233POPC   C3B19125   3.073  36.788   7.789
 1233POPC   C4B19126   3.073  36.866   7.362
 1234POPC   NC319127  39.883  14.647   9.486
 1234POPC   PO419128  40.406  14.204   9.448
 1234POPC   GL119129  40.097  14.324   9.137
 1234POPC   GL219130  39.759  14.238   9.167
 1234POPC   C1A19131  39.912  14.588   8.810
 1234POPC   D2A19132  40.009  14.454   8.392
 1234POPC   C3A19133  39.797  14.570   8.022
 1234POPC   C4A19134  40.102  14.635   7.720
 1234POPC   C1B19135  39.849  14.090   8.730
 1234POPC   C2B19136  39.886  13.984   8.262
 1234POPC   C3B19137  39.952  14.118   7.823
 1234POPC   C4B19138  40.087  14.217   7.411
 1235POPC   NC319139  36.033   9.226   9.606
 1235POPC   PO419140  36.713   9.024   9.490
 1235POPC   GL119141  36.312   8.949   9.227
 1235POPC   GL219142  35.939   9.032   9.134
 1235POPC   C1A19143  36.270   8.898   8.782
 1235POPC   D2A19144  36.048   8.935   8.422
 1235POPC   C3A19145  36.327   8.797   8.126
 1235POPC   C4A19146  36.311   8.780   7.712
 1235POPC   C1B19147  35.911   9.296   8.771
 1235POPC   C2B19148  36.011   9.474   8.358
 1235POPC   C3B19149  35.982   9.221   7.999
 1235POPC   C4B19150  35.962   9.117   7.587
 1236POPC   NC319151   3.598   1.550   9.446
 1236POPC   PO419152   3.226   0.939   9.516
 1236POPC   GL119153   3.420   1.164   9.139
 1236POPC   GL219154   3.716   0.974   8.931
 1236POPC   C1A19155   3.381   1.369   8.755
 1236POPC   D2A19156   3.543   1.134   8.377
 1236POPC   C3A19157   3.365   1.331   8.002
 1236POPC   C4A19158   3.346   1.216   7.548
 1236POPC   C1B19159   3.882   1.341   8.703
 1236POPC   C2B19160   3.915   1.448   8.259
 1236POPC   C3B19161   3.842   1.153   7.925
 1236POPC   C4B19162   3.858   1.197   7.472
 1237POPC   NC319163   4.286   8.258   9.511
 1237POPC   PO419164   4.761   8.710   9.308
 1237POPC   GL119165   4.538   8.322   9.084
 1237POPC   GL219166   4.233   8.037   9.076
 1237POPC   C1A19167   4.595   8.083   8.728
 1237POPC   D2A19168   4.491   8.318   8.387
 1237POPC   C3A19169   4.660   8.285   7.988
 1237POPC   C4A19170   4.475   8.012   7.720
 1237POPC   C1B19171   4.116   8.359   8.803
 1237POPC   C2B19172   3.958   8.382   8.413
 1237POPC   C3B19173   4.119   8.235   8.036
 1237POPC   C4B19174   3.952   8.031   7.697
 1238POPC   NC319175  28.261  33.116   9.389
 1238POPC   PO419176  28.857  32.857   9.451
 1238POPC   GL119177  28.620  32.871   9.096
 1238POPC   GL219178  28.654  33.245   9.102
 1238POPC   C1A19179  28.359  32.930   8.739
 1238POPC   D2A19180  28.276  33.124   8.344
 1238POPC   C3A19181  28.329  32.782   8.018
 1238POPC   C4A19182  28.575  32.773   7.583
 1238POPC   C1B19183  28.440  33.441   8.770
 1238POPC   C2B19184  28.616  33.599   8.421
 1238POPC   C3B19185  28.601  33.404   8.066
 1238POPC   C4B19186  28.267  33.226   7.798
 1239POPC   NC319187  21.373  19.353   9.615
 1239POPC   PO419188  21.023  18.804   9.719
 1239POPC   GL119189  21.291  18.938   9.275
 1239POPC   GL219190  21.623  18.823   9.173
 1239POPC   C1A19191  21.485  19.209   8.863
 1239POPC   D2A19192  21.709  19.203   8.411
 1239POPC   C3A19193  21.453  19.196   7.985
 1239POPC   C4A19194  21.025  19.080   7.851
 1239POPC   C1B19195  21.419  18.716   8.777
 1239POPC   C2B19196  21.328  18.838   8.344
 1239POPC   C3B19197  21.345  18.663   7.928
 1239POPC   C4B19198  21.302  18.818   7.500
 1240POPC   NC319199  13.923  14.754   9.309
 1240POPC   PO419200  14.235  15.080   9.693
 1240POPC   GL119201  14.136  15.172   9.201
 1240POPC   GL219202  14.388  14.933   9.125
 1240POPC   C1A19203  14.236  15.260   8.741
 1240POPC   D2A19204  14.440  15.521   8.426
 1240POPC   C3A19205  14.303  15.487   8.013
 1240POPC   C4A19206  14.183  15.212   7.691
 1240POPC   C1B19207  14.659  14.965   8.742
 1240POPC   C2B19208  14.478  15.021   8.330
 1240POPC   C3B19209  14.611  15.071   7.925
 1240POPC   C4B19210  14.619  14.704   7.761
 1241POPC   NC319211  14.698  12.109   9.429
 1241POPC   PO419212  14.043  11.879   9.486
 1241POPC   GL119213  14.329  11.862   9.164
 1241POPC   GL219214  14.382  12.238   9.045
 1241POPC   C1A19215  14.233  11.858   8.752
 1241POPC   D2A19216  14.404  12.149   8.455
 1241POPC   C3A19217  14.319  11.964   8.079
 1241POPC   C4A19218  14.502  11.851   7.718
 1241POPC   C1B19219  14.681  12.462   8.748
 1241POPC   C2B19220  14.664  12.600   8.290
 1241POPC   C3B19221  14.668  12.556   7.803
 1241POPC   C4B19222  15.037  12.430   7.508
 1242POPC   NC319223  26.214  33.617   9.470
 1242POPC   PO419224  25.806  34.174   9.458
 1242POPC   GL119225  26.025  33.955   9.130
 1242POPC   GL219226  25.931  33.604   9.062
 1242POPC   C1A19227  26.168  33.901   8.706
 1242POPC   D2A19228  26.346  34.027   8.329
 1242POPC   C3A19229  26.162  34.058   7.927
 1242POPC   C4A19230  26.508  34.184   7.648
 1242POPC   C1B19231  25.846  33.483   8.667
 1242POPC   C2B19232  26.026  33.536   8.255
 1242POPC   C3B19233  25.806  33.602   7.860
 1242POPC   C4B19234  25.908  33.507   7.407
 1243POPC   NC319235  34.125  36.884   9.461
 1243POPC   PO419236  33.452  36.907   9.465
 1243POPC   GL119237  33.522  36.619   9.112
 1243POPC   GL219238  33.900  36.662   9.051
 1243POPC   C1A19239  33.573  36.687   8.657
 1243POPC   D2A19240  33.632  37.064   8.396
 1243POPC   C3A19241  33.687  37.016   7.972
 1243POPC   C4A19242  33.738  36.629   7.794
 1243POPC   C1B19243  33.790  37.094   8.893
 1243POPC   C2B19244  33.986  37.391   8.596
 1243POPC   C3B19245  33.979  37.458   8.138
 1243POPC   C4B19246  33.984  37.335   7.715
 1244POPC   NC319247  10.178  20.763   9.456
 1244POPC   PO419248   9.778  21.239   9.753
 1244POPC   GL119249   9.680  21.408   9.335
 1244POPC   GL219250   9.996  21.451   9.134
 1244POPC   C1A19251   9.519  21.245   8.924
 1244POPC   D2A19252   9.725  21.096   8.544
 1244POPC   C3A19253   9.539  21.036   8.110
 1244POPC   C4A19254   9.598  21.277   7.747
 1244POPC   C1B19255  10.198  21.290   8.736
 1244POPC   C2B19256  10.113  21.321   8.277
 1244POPC   C3B19257   9.975  21.552   7.929
 1244POPC   C4B19258   9.893  21.699   7.530
 1245POPC   NC319259   9.593  33.461   9.460
 1245POPC   PO419260   9.869  34.078   9.358
 1245POPC   GL119261   9.862  33.922   8.983
 1245POPC   GL219262   9.800  33.595   9.011
 1245POPC   C1A19263   9.741  33.900   8.581
 1245POPC   D2A19264   9.792  33.589   8.302
 1245POPC   C3A19265   9.984  33.727   7.970
 1245POPC   C4A19266   9.752  33.867   7.666
 1245POPC   C1B19267   9.460  33.490   8.696
 1245POPC   C2B19268   9.402  33.274   8.287
 1245POPC   C3B19269   9.425  33.519   7.882
 1245POPC   C4B19270   9.525  33.510   7.400
 1246POPC   NC319271   6.762  35.650   9.366
 1246POPC   PO419272   6.886  35.030   9.505
 1246POPC   GL119273   6.708  35.227   9.092
 1246POPC   GL219274   6.909  35.529   8.897
 1246POPC   C1A19275   6.595  35.206   8.666
 1246POPC   D2A19276   6.862  35.369   8.367
 1246POPC   C3A19277   6.666  35.148   8.075
 1246POPC   C4A19278   6.232  35.127   8.038
 1246POPC   C1B19279   6.574  35.723   8.638
 1246POPC   C2B19280   6.281  35.612   8.325
 1246POPC   C3B19281   6.414  35.586   7.916
 1246POPC   C4B19282   6.869  35.593   7.902
 1247POPC   NC319283  22.904  24.619   9.467
 1247POPC   PO419284  23.153  23.984   9.449
 1247POPC   GL119285  23.096  24.302   9.088
 1247POPC   GL219286  22.739  24.402   8.999
 1247POPC   C1A19287  23.092  24.397   8.623
 1247POPC   D2A19288  22.961  24.229   8.264
 1247POPC   C3A19289  22.988  24.335   7.840
 1247POPC   C4A19290  22.649  24.167   7.540
 1247POPC   C1B19291  22.916  24.804   8.854
 1247POPC   C2B19292  23.028  24.931   8.475
 1247POPC   C3B19293  23.159  24.736   8.125
 1247POPC   C4B19294  23.109  24.871   7.728
 1248POPC   NC319295  28.139  26.084   9.410
 1248POPC   PO419296  28.699  25.913   9.717
 1248POPC   GL119297  28.648  25.941   9.272
 1248POPC   GL219298  28.660  25.614   9.170
 1248POPC   C1A19299  28.419  26.008   8.867
 1248POPC   D2A19300  28.067  26.032   8.587
 1248POPC   C3A19301  28.229  26.207   8.220
 1248POPC   C4A19302  28.194  26.073   7.808
 1248POPC   C1B19303  28.841  25.753   8.791
 1248POPC   C2B19304  28.777  26.080   8.516
 1248POPC   C3B19305  28.751  26.002   8.104
 1248POPC   C4B19306  28.790  25.878   7.673
 1249POPC   NC319307   3.360  18.696   9.450
 1249POPC   PO419308   3.674  18.047   9.452
 1249POPC   GL119309   3.479  18.283   9.193
 1249POPC   GL219310   3.232  18.101   9.088
 1249POPC   C1A19311   3.350  18.521   8.826
 1249POPC   D2A19312   3.522  18.518   8.429
 1249POPC   C3A19313   3.274  18.708   8.142
 1249POPC   C4A19314   3.311  18.606   7.733
 1249POPC   C1B19315   3.592  18.048   8.768
 1249POPC   C2B19316   3.696  18.044   8.363
 1249POPC   C3B19317   3.542  18.197   7.984
 1249POPC   C4B19318   3.660  17.888   7.692
 1250POPC   NC319319  11.585  35.137   9.734
 1250POPC   PO419320  11.192  35.612   9.498
 1250POPC   GL119321  11.041  35.633   9.124
 1250POPC   GL219322  11.077  35.243   9.087
 1250POPC   C1A19323  11.101  35.578   8.715
 1250POPC   D2A19324  11.090  35.242   8.496
 1250POPC   C3A19325  11.315  35.358   8.133
 1250POPC   C4A19326  11.397  35.446   7.706
 1250POPC   C1B19327  11.477  35.144   8.832
 1250POPC   C2B19328  11.700  35.155   8.411
 1250POPC   C3B19329  11.678  35.025   7.956
 1250POPC   C4B19330  11.675  35.026   7.520
 1251POPC   NC319331  35.736  13.773   9.374
 1251POPC   PO419332  35.292  13.279   9.416
 1251POPC   GL119333  35.281  13.580   9.094
 1251POPC   GL219334  35.134  13.399   8.829
 1251POPC   C1A19335  35.414  13.859   8.745
 1251POPC   D2A19336  35.438  13.992   8.319
 1251POPC   C3A19337  35.730  13.694   8.095
 1251POPC   C4A19338  35.687  13.376   7.759
 1251POPC   C1B19339  34.904  13.806   8.811
 1251POPC   C2B19340  34.879  14.024   8.409
 1251POPC   C3B19341  35.055  14.036   7.987
 1251POPC   C4B19342  35.250  13.621   7.909
 1252POPC   NC319343  19.422  33.375   9.522
 1252POPC   PO419344  19.102  33.957   9.573
 1252POPC   GL119345  19.133  33.669   9.193
 1252POPC   GL219346  18.841  33.428   9.088
 1252POPC   C1A19347  19.015  33.838   8.785
 1252POPC   D2A19348  18.840  33.929   8.371
 1252POPC   C3A19349  19.152  33.854   8.031
 1252POPC   C4A19350  19.314  34.084   7.673
 1252POPC   C1B19351  18.894  33.370   8.624
 1252POPC   C2B19352  18.670  33.454   8.226
 1252POPC   C3B19353  18.762  33.609   7.803
 1252POPC   C4B19354  18.649  33.503   7.400
 1253POPC   NC319355  44.036  12.986   9.486
 1253POPC   PO419356  43.648  12.412   9.477
 1253POPC   GL119357  43.698  12.756   9.157
 1253POPC   GL219358  44.023  12.719   9.071
 1253POPC   C1A19359  43.634  13.010   8.751
 1253POPC   D2A19360  43.830  13.165   8.339
 1253POPC   C3A19361  43.885  12.978   7.985
 1253POPC   C4A19362  43.775  12.999   7.607
 1253POPC   C1B19363  44.138  13.006   8.761
 1253POPC   C2B19364  44.297  12.993   8.357
 1253POPC   C3B19365  44.310  13.269   8.036
 1253POPC   C4B19366  44.257  13.156   7.661
 1254POPC   NC319367  41.420  19.316   9.615
 1254POPC   PO419368  41.886  18.895   9.469
 1254POPC   GL119369  41.835  19.082   9.097
 1254POPC   GL219370  41.693  19.398   9.151
 1254POPC   C1A19371  41.576  19.128   8.715
 1254POPC   D2A19372  41.235  18.904   8.481
 1254POPC   C3A19373  41.357  18.793   8.068
 1254POPC   C4A19374  41.652  18.889   7.785
 1254POPC   C1B19375  41.329  19.537   8.895
 1254POPC   C2B19376  41.138  19.416   8.495
 1254POPC   C3B19377  41.435  19.299   8.177
 1254POPC   C4B19378  41.527  19.382   7.760
 1255POPC   NC319379  26.716  36.299   9.451
 1255POPC   PO419380  26.494  35.705   9.340
 1255POPC   GL119381  26.890  35.916   9.148
 1255POPC   GL219382  26.876  36.240   8.973
 1255POPC   C1A19383  27.042  35.824   8.727
 1255POPC   D2A19384  27.068  35.720   8.293
 1255POPC   C3A19385  26.835  35.896   7.923
 1255POPC   C4A19386  26.946  36.055   7.496
 1255POPC   C1B19387  26.608  36.165   8.646
 1255POPC   C2B19388  26.671  36.272   8.239
 1255POPC   C3B19389  26.797  36.430   7.849
 1255POPC   C4B19390  26.639  36.454   7.430
 1256POPC   NC319391  22.827  16.512   9.550
 1256POPC   PO419392  23.111  17.157   9.599
 1256POPC   GL119393  23.058  16.893   9.250
 1256POPC   GL219394  22.718  16.802   9.151
 1256POPC   C1A19395  23.046  17.001   8.846
 1256POPC   D2A19396  22.872  16.844   8.471
 1256POPC   C3A19397  23.126  16.623   8.181
 1256POPC   C4A19398  23.051  16.526   7.782
 1256POPC   C1B19399  22.875  16.472   8.859
 1256POPC   C2B19400  22.726  16.359   8.447
 1256POPC   C3B19401  22.614  16.565   8.090
 1256POPC   C4B19402  22.539  16.485   7.687
 1257POPC   NC319403  41.008  12.342   9.518
 1257POPC   PO419404  40.974  11.683   9.296
 1257POPC   GL119405  40.893  12.015   9.088
 1257POPC   GL219406  40.607  12.149   9.204
 1257POPC   C1A19407  40.808  12.154   8.690
 1257POPC   D2A19408  40.686  11.982   8.303
 1257POPC   C3A19409  40.841  12.194   7.947
 1257POPC   C4A19410  40.950  12.118   7.539
 1257POPC   C1B19411  40.465  12.463   8.913
 1257POPC   C2B19412  40.351  12.535   8.463
 1257POPC   C3B19413  40.388  12.480   8.012
 1257POPC   C4B19414  40.598  12.550   7.622
 1258POPC   NC319415  20.077   3.215   9.507
 1258POPC   PO419416  19.330   3.203   9.501
 1258POPC   GL119417  19.697   3.074   9.213
 1258POPC   GL219418  19.781   2.742   9.228
 1258POPC   C1A19419  19.958   3.079   8.829
 1258POPC   D2A19420  19.880   3.047   8.389
 1258POPC   C3A19421  19.772   2.749   8.059
 1258POPC   C4A19422  19.686   2.884   7.657
 1258POPC   C1B19423  20.047   2.601   8.891
 1258POPC   C2B19424  20.012   2.514   8.464
 1258POPC   C3B19425  20.175   2.437   8.060
 1258POPC   C4B19426  19.941   2.400   7.687
 1259POPC   NC319427  33.496  34.400   9.593
 1259POPC   PO419428  34.153  34.403   9.558
 1259POPC   GL119429  34.065  34.587   9.165
 1259POPC   GL219430  33.718  34.657   9.168
 1259POPC   C1A19431  33.996  34.748   8.732
 1259POPC   D2A19432  34.067  34.851   8.289
 1259POPC   C3A19433  33.754  34.794   7.972
 1259POPC   C4A19434  33.767  34.920   7.534
 1259POPC   C1B19435  33.530  34.461   8.834
 1259POPC   C2B19436  33.633  34.489   8.406
 1259POPC   C3B19437  33.423  34.395   8.034
 1259POPC   C4B19438  33.347  34.118   7.690
 1260POPC   NC319439  11.781  30.911   9.441
 1260POPC   PO419440  12.419  30.640   9.449
 1260POPC   GL119441  12.104  30.616   9.129
 1260POPC   GL219442  11.964  30.309   9.021
 1260POPC   C1A19443  12.032  30.670   8.696
 1260POPC   D2A19444  12.076  30.909   8.361
 1260POPC   C3A19445  12.293  30.909   8.021
 1260POPC   C4A19446  12.216  30.686   7.688
 1260POPC   C1B19447  11.587  30.413   8.794
 1260POPC   C2B19448  11.589  30.638   8.408
 1260POPC   C3B19449  11.830  30.572   8.036
 1260POPC   C4B19450  11.873  30.311   7.668
 1261POPC   NC319451  37.451  33.725   9.442
 1261POPC   PO419452  37.930  34.194   9.429
 1261POPC   GL119453  37.853  33.895   9.098
 1261POPC   GL219454  37.512  33.997   9.031
 1261POPC   C1A19455  37.726  33.706   8.686
 1261POPC   D2A19456  37.490  33.649   8.274
 1261POPC   C3A19457  37.755  33.782   7.927
 1261POPC   C4A19458  37.985  33.567   7.593
 1261POPC   C1B19459  37.229  33.869   8.684
 1261POPC   C2B19460  37.186  34.091   8.290
 1261POPC   C3B19461  37.213  34.019   7.876
 1261POPC   C4B19462  37.442  33.872   7.517
 1262POPC   NC319463   0.833   7.998   9.554
 1262POPC   PO419464   0.181   8.302   9.578
 1262POPC   GL119465   0.336   8.304   9.156
 1262POPC   GL219466   0.519   8.004   9.132
 1262POPC   C1A19467   0.240   8.171   8.706
 1262POPC   D2A19468   0.555   8.427   8.402
 1262POPC   C3A19469   0.591   8.315   7.948
 1262POPC   C4A19470   0.222   8.258   7.675
 1262POPC   C1B19471   0.712   8.050   8.723
 1262POPC   C2B19472   0.491   7.941   8.309
 1262POPC   C3B19473   0.697   7.829   7.944
 1262POPC   C4B19474   0.552   7.896   7.530
 1263POPC   NC319475  34.804   7.108   9.318
 1263POPC   PO419476  34.840   7.805   9.461
 1263POPC   GL119477  34.768   7.569   9.089
 1263POPC   GL219478  34.419   7.405   9.166
 1263POPC   C1A19479  34.660   7.658   8.664
 1263POPC   D2A19480  34.212   7.759   8.488
 1263POPC   C3A19481  34.218   7.632   8.075
 1263POPC   C4A19482  34.654   7.637   7.942
 1263POPC   C1B19483  34.312   7.312   8.758
 1263POPC   C2B19484  34.453   7.274   8.368
 1263POPC   C3B19485  34.490   7.170   7.985
 1263POPC   C4B19486  34.201   7.343   7.660
 1264POPC   NC319487  26.005   1.185  10.084
 1264POPC   PO419488  26.201   1.111   9.648
 1264POPC   GL119489  26.153   1.111   9.156
 1264POPC   GL219490  25.844   0.947   9.048
 1264POPC   C1A19491  26.102   1.225   8.690
 1264POPC   D2A19492  25.881   1.127   8.290
 1264POPC   C3A19493  25.985   1.339   7.901
 1264POPC   C4A19494  26.403   1.478   7.756
 1264POPC   C1B19495  25.956   0.740   8.649
 1264POPC   C2B19496  26.004   0.642   8.203
 1264POPC   C3B19497  25.876   0.845   7.809
 1264POPC   C4B19498  25.731   1.182   7.487
 1265POPC   NC319499  37.026   9.330   9.667
 1265POPC   PO419500  37.317   8.699   9.528
 1265POPC   GL119501  37.085   8.815   9.196
 1265POPC   GL219502  37.056   9.171   9.151
 1265POPC   C1A19503  37.203   8.822   8.790
 1265POPC   D2A19504  37.234   8.813   8.377
 1265POPC   C3A19505  36.872   8.842   8.103
 1265POPC   C4A19506  37.044   8.731   7.696
 1265POPC   C1B19507  36.791   9.120   8.734
 1265POPC   C2B19508  36.498   9.263   8.397
 1265POPC   C3B19509  36.499   9.245   7.939
 1265POPC   C4B19510  36.684   9.107   7.565
 1266POPC   NC319511  36.955  17.679   9.580
 1266POPC   PO419512  36.326  17.405   9.379
 1266POPC   GL119513  36.639  17.645   9.190
 1266POPC   GL219514  36.901  17.430   9.144
 1266POPC   C1A19515  36.646  17.845   8.806
 1266POPC   D2A19516  36.557  17.646   8.417
 1266POPC   C3A19517  36.867  17.664   8.132
 1266POPC   C4A19518  36.697  17.680   7.764
 1266POPC   C1B19519  36.710  17.293   8.801
 1266POPC   C2B19520  36.767  17.141   8.402
 1266POPC   C3B19521  36.602  17.212   8.017
 1266POPC   C4B19522  36.959  17.249   7.789
 1267POPC   NC319523  26.660  18.767   9.396
 1267POPC   PO419524  26.752  19.370   9.298
 1267POPC   GL119525  26.982  19.165   8.993
 1267POPC   GL219526  27.074  18.827   9.091
 1267POPC   C1A19527  26.952  19.240   8.557
 1267POPC   D2A19528  26.599  19.392   8.300
 1267POPC   C3A19529  26.700  19.169   7.948
 1267POPC   C4A19530  27.077  19.296   7.728
 1267POPC   C1B19531  26.820  18.753   8.727
 1267POPC   C2B19532  26.793  18.522   8.356
 1267POPC   C3B19533  26.627  18.629   7.989
 1267POPC   C4B19534  26.797  18.751   7.617
 1268POPC   NC319535  36.871  19.145   9.496
 1268POPC   PO419536  36.514  18.634   9.337
 1268POPC   GL119537  36.758  18.947   9.044
 1268POPC   GL219538  37.115  19.058   9.059
 1268POPC   C1A19539  36.902  18.875   8.630
 1268POPC   D2A19540  36.799  18.687   8.251
 1268POPC   C3A19541  36.913  18.932   7.868
 1268POPC   C4A19542  36.747  18.855   7.443
 1268POPC   C1B19543  37.350  19.136   8.709
 1268POPC   C2B19544  37.249  19.240   8.317
 1268POPC   C3B19545  37.375  19.473   7.964
 1268POPC   C4B19546  37.096  19.447   7.658
 1269POPC   NC319547  21.615  34.265   9.418
 1269POPC   PO419548  20.966  34.600   9.433
 1269POPC   GL119549  21.289  34.563   9.143
 1269POPC   GL219550  21.330  34.916   9.083
 1269POPC   C1A19551  21.408  34.287   8.792
 1269POPC   D2A19552  21.633  34.170   8.456
 1269POPC   C3A19553  21.332  34.186   8.145
 1269POPC   C4A19554  21.285  34.474   7.817
 1269POPC   C1B19555  21.205  34.761   8.682
 1269POPC   C2B19556  21.444  34.636   8.347
 1269POPC   C3B19557  21.613  34.824   8.000
 1269POPC   C4B19558  21.286  34.982   7.775
 1270POPC   NC319559  13.403  33.928   9.426
 1270POPC   PO419560  13.970  33.571   9.419
 1270POPC   GL119561  13.729  33.690   9.072
 1270POPC   GL219562  13.816  34.024   9.089
 1270POPC   C1A19563  13.830  33.802   8.642
 1270POPC   D2A19564  14.030  33.576   8.329
 1270POPC   C3A19565  13.939  33.725   7.926
 1270POPC   C4A19566  13.660  33.736   7.585
 1270POPC   C1B19567  13.506  34.163   8.768
 1270POPC   C2B19568  13.466  34.286   8.344
 1270POPC   C3B19569  13.618  34.144   7.908
 1270POPC   C4B19570  13.517  34.196   7.433
 1271POPC   NC319571  24.454   6.322   9.275
 1271POPC   PO419572  24.599   5.688   9.568
 1271POPC   GL119573  24.554   5.838   9.161
 1271POPC   GL219574  24.199   5.819   9.114
 1271POPC   C1A19575  24.429   6.004   8.710
 1271POPC   D2A19576  24.411   5.814   8.309
 1271POPC   C3A19577  24.374   6.052   7.944
 1271POPC   C4A19578  24.690   6.131   7.626
 1271POPC   C1B19579  24.456   5.511   8.803
 1271POPC   C2B19580  24.594   5.357   8.399
 1271POPC   C3B19581  24.502   5.442   7.970
 1271POPC   C4B19582  24.350   5.692   7.626
 1272POPC   NC319583  32.700  13.972   9.290
 1272POPC   PO419584  33.106  14.588   9.419
 1272POPC   GL119585  33.389  14.576   9.039
 1272POPC   GL219586  33.515  14.196   8.962
 1272POPC   C1A19587  33.317  14.570   8.610
 1272POPC   D2A19588  32.980  14.708   8.359
 1272POPC   C3A19589  33.047  14.571   7.965
 1272POPC   C4A19590  33.257  14.680   7.597
 1272POPC   C1B19591  33.092  14.161   8.788
 1272POPC   C2B19592  32.870  14.119   8.380
 1272POPC   C3B19593  32.632  14.187   7.997
 1272POPC   C4B19594  32.733  14.441   7.595
 1273POPC   NC319595   3.266  28.337   9.571
 1273POPC   PO419596   3.864  28.605   9.326
 1273POPC   GL119597   3.557  28.361   9.109
 1273POPC   GL219598   3.420  28.028   9.205
 1273POPC   C1A19599   3.444  28.471   8.695
 1273POPC   D2A19600   3.660  28.658   8.332
 1273POPC   C3A19601   3.410  28.772   8.022
 1273POPC   C4A19602   3.189  28.496   7.768
 1273POPC   C1B19603   3.582  27.960   8.797
 1273POPC   C2B19604   3.464  28.052   8.406
 1273POPC   C3B19605   3.560  28.244   8.045
 1273POPC   C4B19606   3.487  28.102   7.651
 1274POPC   NC319607  28.804  30.941   9.679
 1274POPC   PO419608  29.312  31.408   9.752
 1274POPC   GL119609  29.260  31.558   9.188
 1274POPC   GL219610  29.119  31.296   8.982
 1274POPC   C1A19611  29.438  31.628   8.762
 1274POPC   D2A19612  29.392  31.300   8.477
 1274POPC   C3A19613  29.176  31.475   8.127
 1274POPC   C4A19614  29.229  31.581   7.690
 1274POPC   C1B19615  28.882  31.525   8.655
 1274POPC   C2B19616  28.655  31.457   8.232
 1274POPC   C3B19617  28.797  31.356   7.802
 1274POPC   C4B19618  28.775  31.601   7.386
 1275POPC   NC319619  37.893   2.244   9.434
 1275POPC   PO419620  38.104   1.675   9.687
 1275POPC   GL119621  37.903   1.744   9.213
 1275POPC   GL219622  37.588   1.978   9.127
 1275POPC   C1A19623  37.855   1.706   8.776
 1275POPC   D2A19624  37.568   1.856   8.468
 1275POPC   C3A19625  37.581   1.685   8.065
 1275POPC   C4A19626  37.475   1.836   7.682
 1275POPC   C1B19627  37.824   2.210   8.767
 1275POPC   C2B19628  37.914   2.256   8.321
 1275POPC   C3B19629  37.905   2.065   7.903
 1275POPC   C4B19630  37.973   1.642   7.740
 1276POPC   NC319631  33.328  39.090   9.460
 1276POPC   PO419632  33.035  38.560   9.709
 1276POPC   GL119633  33.091  38.537   9.232
 1276POPC   GL219634  33.398  38.694   9.134
 1276POPC   C1A19635  33.158  38.432   8.765
 1276POPC   D2A19636  33.240  38.584   8.337
 1276POPC   C3A19637  32.996  38.464   7.930
 1276POPC   C4A19638  32.906  38.497   7.457
 1276POPC   C1B19639  33.626  38.690   8.742
 1276POPC   C2B19640  33.599  38.939   8.335
 1276POPC   C3B19641  33.364  38.912   7.976
 1276POPC   C4B19642  33.355  38.703   7.587
 1277POPC   NC319643  14.183  42.697   9.179
 1277POPC   PO419644  14.753  42.370   9.407
 1277POPC   GL119645  14.470  42.264   9.097
 1277POPC   GL219646  14.160  42.051   9.219
 1277POPC   C1A19647  14.476  42.421   8.662
 1277POPC   D2A19648  14.105  42.589   8.451
 1277POPC   C3A19649  14.109  42.583   7.986
 1277POPC   C4A19650  14.503  42.425   7.770
 1277POPC   C1B19651  14.085  42.109   8.804
 1277POPC   C2B19652  14.209  42.040   8.410
 1277POPC   C3B19653  14.170  42.072   7.998
 1277POPC   C4B19654  14.291  41.964   7.579
 1278POPC   NC319655  36.888  35.795   9.324
 1278POPC   PO419656  36.972  35.091   9.494
 1278POPC   GL119657  36.843  35.292   9.135
 1278POPC   GL219658  37.164  35.453   9.094
 1278POPC   C1A19659  36.720  35.438   8.711
 1278POPC   D2A19660  36.704  35.313   8.268
 1278POPC   C3A19661  36.844  35.550   7.924
 1278POPC   C4A19662  37.188  35.819   7.954
 1278POPC   C1B19663  37.215  35.260   8.733
 1278POPC   C2B19664  37.180  35.490   8.373
 1278POPC   C3B19665  37.268  35.309   8.005
 1278POPC   C4B19666  37.392  35.414   7.614
 1279POPC   NC319667  28.700  14.303   9.519
 1279POPC   PO419668  28.327  14.922   9.322
 1279POPC   GL119669  28.189  14.666   9.012
 1279POPC   GL219670  28.386  14.405   9.094
 1279POPC   C1A19671  28.268  14.581   8.583
 1279POPC   D2A19672  28.120  14.342   8.279
 1279POPC   C3A19673  28.244  14.469   7.935
 1279POPC   C4A19674  28.435  14.204   7.650
 1279POPC   C1B19675  28.706  14.603   8.809
 1279POPC   C2B19676  28.875  14.368   8.460
 1279POPC   C3B19677  28.764  14.313   8.034
 1279POPC   C4B19678  28.674  14.655   7.747
 1280POPC   NC319679  28.710  20.200   9.533
 1280POPC   PO419680  28.314  20.745   9.507
 1280POPC   GL119681  28.265  20.577   9.118
 1280POPC   GL219682  28.559  20.410   9.106
 1280POPC   C1A19683  28.395  20.648   8.701
 1280POPC   D2A19684  28.428  20.904   8.384
 1280POPC   C3A19685  28.376  20.596   8.056
 1280POPC   C4A19686  28.371  20.680   7.653
 1280POPC   C1B19687  28.785  20.296   8.731
 1280POPC   C2B19688  28.695  20.107   8.311
 1280POPC   C3B19689  28.695  20.231   7.840
 1280POPC   C4B19690  28.661  20.180   7.352
 1281POPC   NC319691  23.151   5.576   9.488
 1281POPC   PO419692  22.596   5.921   9.614
 1281POPC   GL119693  22.844   5.989   9.237
 1281POPC   GL219694  22.955   5.695   9.039
 1281POPC   C1A19695  22.756   6.152   8.806
 1281POPC   D2A19696  22.945   6.106   8.409
 1281POPC   C3A19697  22.778   5.824   8.098
 1281POPC   C4A19698  22.757   5.974   7.718
 1281POPC   C1B19699  23.240   5.978   8.840
 1281POPC   C2B19700  23.441   5.943   8.441
 1281POPC   C3B19701  23.271   5.955   7.994
 1281POPC   C4B19702  23.464   5.708   7.643
 1282POPC   NC319703   6.000  28.963   9.465
 1282POPC   PO419704   5.550  29.448   9.615
 1282POPC   GL119705   5.659  29.200   9.167
 1282POPC   GL219706   5.989  29.258   8.998
 1282POPC   C1A19707   5.744  28.891   8.788
 1282POPC   D2A19708   5.582  28.940   8.386
 1282POPC   C3A19709   5.932  29.037   8.058
 1282POPC   C4A19710   5.886  29.179   7.647
 1282POPC   C1B19711   5.907  29.335   8.533
 1282POPC   C2B19712   6.094  29.506   8.136
 1282POPC   C3B19713   6.276  29.496   7.717
 1282POPC   C4B19714   6.022  29.547   7.302
 1283POPC   NC319715  44.334  19.164   9.412
 1283POPC   PO419716  44.979  19.154   9.489
 1283POPC   GL119717  44.741  19.084   9.113
 1283POPC   GL219718  44.460  18.791   9.088
 1283POPC   C1A19719  44.925  19.147   8.721
 1283POPC   D2A19720  44.805  18.956   8.358
 1283POPC   C3A19721  44.878  19.239   8.029
 1283POPC   C4A19722  44.624  19.299   7.678
 1283POPC   C1B19723  44.387  19.042   8.713
 1283POPC   C2B19724  44.273  19.127   8.271
 1283POPC   C3B19725  44.464  18.894   7.970
 1283POPC   C4B19726  44.418  18.855   7.560
 1284POPC   NC319727  40.460   1.224   9.439
 1284POPC   PO419728  39.826   1.604   9.529
 1284POPC   GL119729  39.971   1.415   9.162
 1284POPC   GL219730  40.263   1.611   9.180
 1284POPC   C1A19731  39.925   1.046   8.847
 1284POPC   D2A19732  39.754   0.857   8.444
 1284POPC   C3A19733  39.854   0.963   8.023
 1284POPC   C4A19734  39.648   0.993   7.616
 1284POPC   C1B19735  40.345   1.365   8.804
 1284POPC   C2B19736  40.189   1.207   8.419
 1284POPC   C3B19737  40.352   1.098   8.020
 1284POPC   C4B19738  40.132   1.244   7.668
 1285POPC   NC319739  40.208   7.948   9.355
 1285POPC   PO419740  39.849   8.441   9.507
 1285POPC   GL119741  39.941   8.292   9.119
 1285POPC   GL219742  40.251   8.382   9.097
 1285POPC   C1A19743  39.972   8.079   8.724
 1285POPC   D2A19744  39.878   7.902   8.323
 1285POPC   C3A19745  40.003   8.158   7.988
 1285POPC   C4A19746  39.837   8.278   7.602
 1285POPC   C1B19747  40.153   8.567   8.729
 1285POPC   C2B19748  40.065   8.564   8.308
 1285POPC   C3B19749  40.237   8.597   7.892
 1285POPC   C4B19750  40.365   8.402   7.506
 1286POPC   NC319751   2.073  16.592   9.708
 1286POPC   PO419752   1.595  16.212   9.731
 1286POPC   GL119753   1.732  16.511   9.316
 1286POPC   GL219754   2.051  16.763   9.217
 1286POPC   C1A19755   1.664  16.751   8.889
 1286POPC   D2A19756   1.495  16.858   8.469
 1286POPC   C3A19757   1.724  16.855   8.090
 1286POPC   C4A19758   1.670  16.540   7.796
 1286POPC   C1B19759   2.125  17.048   8.824
 1286POPC   C2B19760   2.327  17.257   8.394
 1286POPC   C3B19761   2.237  17.119   7.977
 1286POPC   C4B19762   2.152  16.734   7.792
 1287POPC   NC319763  20.367   7.836   9.418
 1287POPC   PO419764  20.743   7.238   9.524
 1287POPC   GL119765  20.430   7.353   9.227
 1287POPC   GL219766  20.697   7.579   9.134
 1287POPC   C1A19767  20.340   7.524   8.794
 1287POPC   D2A19768  20.546   7.586   8.396
 1287POPC   C3A19769  20.390   7.385   8.044
 1287POPC   C4A19770  20.242   7.522   7.649
 1287POPC   C1B19771  20.861   7.698   8.788
 1287POPC   C2B19772  20.953   7.885   8.401
 1287POPC   C3B19773  21.049   7.610   8.066
 1287POPC   C4B19774  20.784   7.493   7.742
 1288POPC   NC319775  15.739   0.048   9.261
 1288POPC   PO419776  16.044  44.535   9.636
 1288POPC   GL119777  15.948  44.511   9.175
 1288POPC   GL219778  16.100  44.173   9.172
 1288POPC   C1A19779  15.851  44.681   8.743
 1288POPC   D2A19780  15.755  44.803   8.319
 1288POPC   C3A19781  16.092   0.004   8.132
 1288POPC   C4A19782  16.252  44.918   7.732
 1288POPC   C1B19783  16.247  44.324   8.776
 1288POPC   C2B19784  16.016  44.338   8.394
 1288POPC   C3B19785  16.150  44.456   8.006
 1288POPC   C4B19786  16.382  44.239   7.742
 1289POPC   NC319787  39.830  37.582   9.621
 1289POPC   PO419788  40.450  37.556   9.642
 1289POPC   GL119789  40.193  37.515   9.229
 1289POPC   GL219790  39.813  37.449   9.136
 1289POPC   C1A19791  40.177  37.647   8.775
 1289POPC   D2A19792  39.867  37.733   8.442
 1289POPC   C3A19793  39.988  37.733   7.994
 1289POPC   C4A19794  40.118  37.780   7.565
 1289POPC   C1B19795  39.829  37.266   8.707
 1289POPC   C2B19796  39.897  37.259   8.254
 1289POPC   C3B19797  39.736  37.289   7.861
 1289POPC   C4B19798  39.877  37.337   7.440
 1290POPC   NC319799  24.334  28.445   9.480
 1290POPC   PO419800  24.749  27.845   9.570
 1290POPC   GL119801  24.620  27.908   9.085
 1290POPC   GL219802  24.341  28.158   9.065
 1290POPC   C1A19803  24.554  28.011   8.647
 1290POPC   D2A19804  24.142  28.115   8.488
 1290POPC   C3A19805  24.251  28.295   8.102
 1290POPC   C4A19806  24.609  28.170   7.819
 1290POPC   C1B19807  24.446  28.568   8.811
 1290POPC   C2B19808  24.410  28.741   8.374
 1290POPC   C3B19809  24.613  28.659   7.964
 1290POPC   C4B19810  24.685  28.538   7.483
 1291POPC   NC319811  14.103  34.113   9.509
 1291POPC   PO419812  14.713  33.792   9.498
 1291POPC   GL119813  14.397  33.796   9.204
 1291POPC   GL219814  14.351  34.119   9.054
 1291POPC   C1A19815  14.268  33.647   8.822
 1291POPC   D2A19816  14.358  33.933   8.534
 1291POPC   C3A19817  14.399  33.890   8.120
 1291POPC   C4A19818  14.422  33.754   7.722
 1291POPC   C1B19819  14.066  34.285   8.731
 1291POPC   C2B19820  13.964  34.185   8.321
 1291POPC   C3B19821  14.130  34.296   7.965
 1291POPC   C4B19822  14.062  34.114   7.588
 1292POPC   NC319823  15.734  30.241   9.299
 1292POPC   PO419824  15.874  30.908   9.440
 1292POPC   GL119825  15.950  30.663   9.069
 1292POPC   GL219826  15.694  30.562   8.890
 1292POPC   C1A19827  16.168  30.662   8.673
 1292POPC   D2A19828  16.211  30.973   8.348
 1292POPC   C3A19829  15.977  30.939   7.967
 1292POPC   C4A19830  16.285  30.856   7.678
 1292POPC   C1B19831  15.838  30.263   8.587
 1292POPC   C2B19832  16.010  30.437   8.204
 1292POPC   C3B19833  16.031  30.394   7.766
 1292POPC   C4B19834  15.868  30.627   7.432
 1293POPC   NC319835  25.088   5.600   9.551
 1293POPC   PO419836  25.511   6.152   9.578
 1293POPC   GL119837  25.190   5.990   9.232
 1293POPC   GL219838  25.295   5.636   9.090
 1293POPC   C1A19839  24.945   5.903   8.826
 1293POPC   D2A19840  25.053   5.720   8.407
 1293POPC   C3A19841  24.865   5.842   8.022
 1293POPC   C4A19842  25.118   5.896   7.653
 1293POPC   C1B19843  25.478   5.922   8.793
 1293POPC   C2B19844  25.504   6.030   8.344
 1293POPC   C3B19845  25.285   6.221   8.013
 1293POPC   C4B19846  25.448   6.286   7.607
 1294POPC   NC319847  44.893  14.149   9.426
 1294POPC   PO419848  44.533  13.536   9.558
 1294POPC   GL119849  44.595  13.763   9.221
 1294POPC   GL219850  44.837  13.527   9.110
 1294POPC   C1A19851  44.478  13.749   8.807
 1294POPC   D2A19852  44.331  13.534   8.473
 1294POPC   C3A19853  44.527  13.727   8.132
 1294POPC   C4A19854  44.508  13.740   7.720
 1294POPC   C1B19855  44.983  13.778   8.765
 1294POPC   C2B19856  44.838  14.028   8.404
 1294POPC   C3B19857  44.979  13.991   7.958
 1294POPC   C4B19858   0.048  13.655   7.662
 1295POPC   NC319859  10.113  24.325   9.496
 1295POPC   PO419860   9.498  24.414   9.509
 1295POPC   GL119861   9.743  24.524   9.108
 1295POPC   GL219862  10.123  24.618   9.077
 1295POPC   C1A19863   9.629  24.542   8.650
 1295POPC   D2A19864   9.450  24.379   8.255
 1295POPC   C3A19865   9.675  24.364   7.878
 1295POPC   C4A19866   9.492  24.439   7.488
 1295POPC   C1B19867  10.107  24.752   8.636
 1295POPC   C2B19868   9.887  24.736   8.213
 1295POPC   C3B19869   9.977  24.749   7.757
 1295POPC   C4B19870  10.069  24.533   7.371
 1296POPC   NC319871   3.258   6.257   9.621
 1296POPC   PO419872   2.766   5.839   9.575
 1296POPC   GL119873   2.661   5.977   9.137
 1296POPC   GL219874   2.396   5.762   9.022
 1296POPC   C1A19875   2.673   6.097   8.678
 1296POPC   D2A19876   2.576   5.878   8.273
 1296POPC   C3A19877   2.836   5.854   7.884
 1296POPC   C4A19878   3.239   5.744   7.620
 1296POPC   C1B19879   2.216   5.530   8.679
 1296POPC   C2B19880   2.277   5.419   8.234
 1296POPC   C3B19881   2.342   5.655   7.854
 1296POPC   C4B19882   2.458   5.616   7.403
 1297POPC   NC319883  21.759  14.403   9.385
 1297POPC   PO419884  21.194  14.069   9.539
 1297POPC   GL119885  21.333  14.270   9.157
 1297POPC   GL219886  21.309  14.603   9.240
 1297POPC   C1A19887  21.515  14.251   8.746
 1297POPC   D2A19888  21.372  14.121   8.350
 1297POPC   C3A19889  21.401  14.404   7.998
 1297POPC   C4A19890  21.317  14.263   7.627
 1297POPC   C1B19891  21.185  14.638   8.806
 1297POPC   C2B19892  21.295  14.708   8.384
 1297POPC   C3B19893  21.041  14.802   8.014
 1297POPC   C4B19894  21.077  14.858   7.595
 1298POPC   NC319895  27.892   2.567   9.362
 1298POPC   PO419896  27.391   3.026   9.604
 1298POPC   GL119897  27.494   2.879   9.203
 1298POPC   GL219898  27.266   2.624   9.228
 1298POPC   C1A19899  27.561   3.070   8.759
 1298POPC   D2A19900  27.424   2.924   8.354
 1298POPC   C3A19901  27.662   2.677   8.054
 1298POPC   C4A19902  27.791   2.763   7.640
 1298POPC   C1B19903  27.372   2.587   8.767
 1298POPC   C2B19904  27.291   2.414   8.329
 1298POPC   C3B19905  27.255   2.375   7.874
 1298POPC   C4B19906  27.528   2.346   7.503
 1299POPC   NC319907  26.245   3.375   9.580
 1299POPC   PO419908  25.704   3.709   9.739
 1299POPC   GL119909  25.942   3.675   9.271
 1299POPC   GL219910  26.234   3.493   9.098
 1299POPC   C1A19911  25.868   3.802   8.801
 1299POPC   D2A19912  25.978   3.622   8.413
 1299POPC   C3A19913  25.914   3.669   7.986
 1299POPC   C4A19914  26.281   3.480   7.769
 1299POPC   C1B19915  26.353   3.752   8.777
 1299POPC   C2B19916  26.494   3.724   8.405
 1299POPC   C3B19917  26.416   3.890   8.026
 1299POPC   C4B19918  26.172   3.991   7.674
 1300POPC   NC319919   5.549   8.361   9.603
 1300POPC   PO419920   6.050   7.899   9.820
 1300POPC   GL119921   5.901   8.104   9.328
 1300POPC   GL219922   6.091   8.333   9.103
 1300POPC   C1A19923   5.823   8.030   8.826
 1300POPC   D2A19924   5.996   8.183   8.452
 1300POPC   C3A19925   5.689   8.196   8.125
 1300POPC   C4A19926   5.704   7.948   7.758
 1300POPC   C1B19927   5.770   8.522   8.774
 1300POPC   C2B19928   5.901   8.683   8.376
 1300POPC   C3B19929   6.103   8.489   8.028
 1300POPC   C4B19930   5.803   8.509   7.710
 1301POPC   NC319931  42.639  33.501   9.443
 1301POPC   PO419932  43.280  33.543   9.763
 1301POPC   GL119933  43.154  33.619   9.312
 1301POPC   GL219934  43.173  33.978   9.225
 1301POPC   C1A19935  43.177  33.603   8.842
 1301POPC   D2A19936  42.843  33.643   8.517
 1301POPC   C3A19937  42.979  33.645   8.075
 1301POPC   C4A19938  42.995  33.415   7.697
 1301POPC   C1B19939  42.990  34.078   8.794
 1301POPC   C2B19940  43.023  34.083   8.339
 1301POPC   C3B19941  43.008  34.148   7.895
 1301POPC   C4B19942  43.259  34.332   7.564
 1302POPC   NC319943  42.758   2.043   9.473
 1302POPC   PO419944  43.164   1.581   9.673
 1302POPC   GL119945  43.115   1.823   9.186
 1302POPC   GL219946  42.800   1.825   9.026
 1302POPC   C1A19947  43.185   1.986   8.728
 1302POPC   D2A19948  43.093   1.902   8.279
 1302POPC   C3A19949  43.181   1.980   7.841
 1302POPC   C4A19950  43.437   2.317   7.689
 1302POPC   C1B19951  42.695   1.740   8.622
 1302POPC   C2B19952  42.660   1.676   8.187
 1302POPC   C3B19953  42.811   1.589   7.792
 1302POPC   C4B19954  42.807   1.805   7.412
 1303POPC   NC319955  12.756  42.281   9.626
 1303POPC   PO419956  13.242  42.004   9.268
 1303POPC   GL119957  12.963  42.150   8.996
 1303POPC   GL219958  12.653  42.180   9.128
 1303POPC   C1A19959  12.987  42.185   8.593
 1303POPC   D2A19960  12.714  41.962   8.365
 1303POPC   C3A19961  12.897  41.831   8.010
 1303POPC   C4A19962  13.050  42.221   7.881
 1303POPC   C1B19963  12.547  42.422   8.742
 1303POPC   C2B19964  12.684  42.482   8.297
 1303POPC   C3B19965  12.526  42.231   7.961
 1303POPC   C4B19966  12.333  42.330   7.581
 1304POPC   NC319967   9.870  41.641   9.777
 1304POPC   PO419968   9.372  41.270   9.644
 1304POPC   GL119969   9.579  41.582   9.300
 1304POPC   GL219970   9.951  41.685   9.230
 1304POPC   C1A19971   9.619  41.628   8.823
 1304POPC   D2A19972   9.363  41.474   8.449
 1304POPC   C3A19973   9.536  41.497   8.015
 1304POPC   C4A19974   9.399  41.774   7.684
 1304POPC   C1B19975   9.997  41.309   8.880
 1304POPC   C2B19976   9.876  41.321   8.396
 1304POPC   C3B19977  10.099  41.398   7.957
 1304POPC   C4B19978  10.205  41.109   7.582
 1305POPC   NC319979   5.646  27.580   9.564
 1305POPC   PO419980   6.198  27.865   9.605
 1305POPC   GL119981   6.029  27.665   9.215
 1305POPC   GL219982   5.765  27.837   9.139
 1305POPC   C1A19983   5.883  27.491   8.784
 1305POPC   D2A19984   5.982  27.212   8.426
 1305POPC   C3A19985   5.921  27.211   7.964
 1305POPC   C4A19986   6.069  27.070   7.532
 1305POPC   C1B19987   5.558  27.903   8.743
 1305POPC   C2B19988   5.738  27.711   8.340
 1305POPC   C3B19989   5.930  27.707   7.923
 1305POPC   C4B19990   6.217  27.558   7.606
 1306POPC   NC319991  38.810  35.707   9.458
 1306POPC   PO419992  39.374  36.146   9.603
 1306POPC   GL119993  39.134  36.216   9.245
 1306POPC   GL219994  39.190  35.882   9.155
 1306POPC   C1A19995  39.000  36.329   8.843
 1306POPC   D2A19996  38.910  36.003   8.552
 1306POPC   C3A19997  39.110  36.007   8.159
 1306POPC   C4A19998  38.903  36.200   7.802
 1306POPC   C1B19999  39.351  35.885   8.773
 1306POPC   C2B20000  39.490  35.694   8.407
 1306POPC   C3B20001  39.577  35.817   8.018
 1306POPC   C4B20002  39.601  35.619   7.671
 1307POPC   NC320003   1.378   5.689   9.431
 1307POPC   PO420004   1.018   6.184   9.349
 1307POPC   GL120005   1.063   5.871   9.035
 1307POPC   GL220006   1.078   5.497   9.085
 1307POPC   C1A20007   1.100   5.924   8.593
 1307POPC   D2A20008   1.163   6.189   8.236
 1307POPC   C3A20009   1.229   6.023   7.847
 1307POPC   C4A20010   1.571   6.068   7.504
 1307POPC   C1B20011   1.204   5.424   8.693
 1307POPC   C2B20012   1.008   5.476   8.300
 1307POPC   C3B20013   1.345   5.551   8.032
 1307POPC   C4B20014   1.409   5.600   7.611
 1308POPC   NC320015  30.254  33.739   9.407
 1308POPC   PO420016  29.730  34.048   9.667
 1308POPC   GL120017  29.782  33.747   9.259
 1308POPC   GL220018  29.948  33.991   9.065
 1308POPC   C1A20019  29.617  33.699   8.817
 1308POPC   D2A20020  29.768  33.892   8.400
 1308POPC   C3A20021  29.578  33.783   7.972
 1308POPC   C4A20022  29.679  33.908   7.517
 1308POPC   C1B20023  30.113  33.695   8.755
 1308POPC   C2B20024  30.207  33.566   8.377
 1308POPC   C3B20025  30.121  33.794   8.015
 1308POPC   C4B20026  30.050  33.585   7.645
 1309POPC   NC320027  10.545  32.957   9.707
 1309POPC   PO420028  10.099  33.347   9.400
 1309POPC   GL120029  10.403  33.126   9.201
 1309POPC   GL220030  10.635  33.282   8.994
 1309POPC   C1A20031  10.301  32.986   8.789
 1309POPC   D2A20032  10.523  32.830   8.472
 1309POPC   C3A20033  10.292  32.824   8.125
 1309POPC   C4A20034  10.520  32.880   7.754
 1309POPC   C1B20035  10.643  33.319   8.552
 1309POPC   C2B20036  10.719  33.233   8.105
 1309POPC   C3B20037  10.791  33.314   7.641
 1309POPC   C4B20038  10.681  33.316   7.185
 1310POPC   NC320039  40.963  27.847   9.281
 1310POPC   PO420040  40.653  28.303   9.644
 1310POPC   GL120041  40.695  28.252   9.172
 1310POPC   GL220042  40.938  28.492   9.196
 1310POPC   C1A20043  40.691  28.142   8.687
 1310POPC   D2A20044  40.539  28.139   8.252
 1310POPC   C3A20045  40.793  28.148   7.855
 1310POPC   C4A20046  40.621  28.254   7.454
 1310POPC   C1B20047  40.656  28.641   8.878
 1310POPC   C2B20048  40.666  28.621   8.462
 1310POPC   C3B20049  40.865  28.577   8.114
 1310POPC   C4B20050  40.896  28.628   7.686
 1311POPC   NC320051   7.214  14.943   9.436
 1311POPC   PO420052   7.669  15.350   9.494
 1311POPC   GL120053   7.817  15.164   9.116
 1311POPC   GL220054   7.555  14.961   9.064
 1311POPC   C1A20055   7.862  15.185   8.688
 1311POPC   D2A20056   7.753  15.361   8.297
 1311POPC   C3A20057   7.724  15.125   7.917
 1311POPC   C4A20058   7.562  15.097   7.489
 1311POPC   C1B20059   7.369  15.019   8.661
 1311POPC   C2B20060   7.258  15.203   8.266
 1311POPC   C3B20061   7.217  15.214   7.837
 1311POPC   C4B20062   6.978  14.955   7.571
 1312POPC   NC320063   6.114  31.950   9.506
 1312POPC   PO420064   5.627  32.439   9.461
 1312POPC   GL120065   5.778  32.262   9.118
 1312POPC   GL220066   6.110  32.218   9.079
 1312POPC   C1A20067   5.758  32.481   8.727
 1312POPC   D2A20068   5.511  32.582   8.369
 1312POPC   C3A20069   5.761  32.519   8.017
 1312POPC   C4A20070   5.707  32.262   7.606
 1312POPC   C1B20071   6.057  32.045   8.712
 1312POPC   C2B20072   6.032  32.233   8.331
 1312POPC   C3B20073   5.977  32.041   7.944
 1312POPC   C4B20074   6.246  32.124   7.545
 1313POPC   NC320075  10.874   6.020   9.405
 1313POPC   PO420076  10.387   5.556   9.572
 1313POPC   GL120077  10.395   5.783   9.187
 1313POPC   GL220078  10.422   6.154   9.175
 1313POPC   C1A20079  10.448   5.734   8.749
 1313POPC   D2A20080  10.222   5.531   8.439
 1313POPC   C3A20081  10.270   5.747   8.064
 1313POPC   C4A20082  10.527   5.573   7.786
 1313POPC   C1B20083  10.696   6.181   8.764
 1313POPC   C2B20084  10.790   5.963   8.330
 1313POPC   C3B20085  10.657   6.072   7.898
 1313POPC   C4B20086  10.278   6.298   7.935
 1314POPC   NC320087  30.776   6.921   9.568
 1314POPC   PO420088  30.276   7.289   9.550
 1314POPC   GL120089  30.572   7.477   9.220
 1314POPC   GL220090  30.813   7.222   9.110
 1314POPC   C1A20091  30.609   7.513   8.766
 1314POPC   D2A20092  30.577   7.412   8.377
 1314POPC   C3A20093  30.925   7.509   8.134
 1314POPC   C4A20094  30.813   7.661   7.776
 1314POPC   C1B20095  30.506   7.013   8.885
 1314POPC   C2B20096  30.646   6.846   8.496
 1314POPC   C3B20097  30.810   7.014   8.144
 1314POPC   C4B20098  30.615   7.151   7.785
 1315POPC   NC320099   4.414  41.861   9.197
 1315POPC   PO420100   4.427  41.274   9.554
 1315POPC   GL120101   4.258  41.291   9.139
 1315POPC   GL220102   4.015  41.540   9.061
 1315POPC   C1A20103   4.353  41.398   8.690
 1315POPC   D2A20104   4.608  41.448   8.302
 1315POPC   C3A20105   4.380  41.423   7.943
 1315POPC   C4A20106   4.455  41.384   7.522
 1315POPC   C1B20107   4.013  41.800   8.691
 1315POPC   C2B20108   4.138  41.710   8.303
 1315POPC   C3B20109   4.120  41.884   7.921
 1315POPC   C4B20110   4.258  41.833   7.504
 1316POPC   NC320111  15.565  24.940   9.359
 1316POPC   PO420112  16.213  25.123   9.445
 1316POPC   GL120113  15.947  25.315   9.115
 1316POPC   GL220114  15.705  25.589   9.228
 1316POPC   C1A20115  15.669  25.242   8.754
 1316POPC   D2A20116  15.634  25.093   8.325
 1316POPC   C3A20117  16.029  25.026   8.164
 1316POPC   C4A20118  16.057  25.094   7.750
 1316POPC   C1B20119  15.797  25.722   8.799
 1316POPC   C2B20120  15.966  25.543   8.403
 1316POPC   C3B20121  15.844  25.501   7.991
 1316POPC   C4B20122  15.646  25.856   7.843
 1317POPC   NC320123   7.843  43.716   9.376
 1317POPC   PO420124   8.413  44.100   9.396
 1317POPC   GL120125   8.210  43.925   9.062
 1317POPC   GL220126   7.985  44.174   9.087
 1317POPC   C1A20127   8.408  43.879   8.667
 1317POPC   D2A20128   8.521  44.151   8.289
 1317POPC   C3A20129   8.268  43.996   7.931
 1317POPC   C4A20130   8.137  43.573   7.814
 1317POPC   C1B20131   7.859  44.166   8.735
 1317POPC   C2B20132   8.018  44.047   8.393
 1317POPC   C3B20133   7.805  43.883   8.117
 1317POPC   C4B20134   7.747  44.008   7.742
 1318POPC   NC320135  10.990  20.216   9.661
 1318POPC   PO420136  10.313  20.395   9.710
 1318POPC   GL120137  10.519  20.429   9.288
 1318POPC   GL220138  10.678  20.775   9.260
 1318POPC   C1A20139  10.433  20.352   8.835
 1318POPC   D2A20140  10.495  20.539   8.425
 1318POPC   C3A20141  10.335  20.467   8.011
 1318POPC   C4A20142  10.473  20.315   7.637
 1318POPC   C1B20143  10.650  20.900   8.825
 1318POPC   C2B20144  10.845  20.905   8.415
 1318POPC   C3B20145  10.547  20.935   8.086
 1318POPC   C4B20146  10.564  20.838   7.672
 1319POPC   NC320147  30.799   2.471   9.571
 1319POPC   PO420148  30.496   3.006   9.411
 1319POPC   GL120149  30.711   2.754   9.117
 1319POPC   GL220150  31.039   2.737   9.177
 1319POPC   C1A20151  30.655   2.596   8.696
 1319POPC   D2A20152  30.469   2.476   8.310
 1319POPC   C3A20153  30.708   2.626   7.943
 1319POPC   C4A20154  30.489   2.799   7.598
 1319POPC   C1B20155  31.060   2.942   8.774
 1319POPC   C2B20156  30.958   2.873   8.340
 1319POPC   C3B20157  31.131   3.034   7.955
 1319POPC   C4B20158  30.967   2.915   7.524
 1320POPC   NC320159  36.980   2.325   9.432
 1320POPC   PO420160  37.173   1.616   9.489
 1320POPC   GL120161  37.058   1.851   9.128
 1320POPC   GL220162  36.733   2.016   9.111
 1320POPC   C1A20163  37.194   2.096   8.772
 1320POPC   D2A20164  37.415   2.369   8.473
 1320POPC   C3A20165  37.327   2.168   8.076
 1320POPC   C4A20166  37.037   2.171   7.714
 1320POPC   C1B20167  36.694   1.893   8.684
 1320POPC   C2B20168  36.773   2.136   8.305
 1320POPC   C3B20169  36.726   1.865   7.960
 1320POPC   C4B20170  36.592   1.455   7.793
 1321POPC   NC320171  16.923  20.811   9.526
 1321POPC   PO420172  16.283  20.804   9.596
 1321POPC   GL120173  16.444  20.890   9.178
 1321POPC   GL220174  16.638  20.616   9.134
 1321POPC   C1A20175  16.667  20.971   8.749
 1321POPC   D2A20176  16.912  21.014   8.336
 1321POPC   C3A20177  16.675  20.957   7.954
 1321POPC   C4A20178  16.330  20.655   7.813
 1321POPC   C1B20179  16.471  20.508   8.712
 1321POPC   C2B20180  16.615  20.562   8.269
 1321POPC   C3B20181  16.833  20.453   7.869
 1321POPC   C4B20182  17.122  20.451   7.485
 1322POPC   NC320183  12.517  21.421   9.604
 1322POPC   PO420184  13.188  21.464   9.587
 1322POPC   GL120185  12.958  21.457   9.155
 1322POPC   GL220186  12.618  21.616   9.128
 1322POPC   C1A20187  13.175  21.421   8.718
 1322POPC   D2A20188  13.419  21.386   8.316
 1322POPC   C3A20189  13.170  21.192   7.992
 1322POPC   C4A20190  12.781  21.334   7.819
 1322POPC   C1B20191  12.673  21.275   8.786
 1322POPC   C2B20192  12.475  21.175   8.376
 1322POPC   C3B20193  12.315  21.306   7.993
 1322POPC   C4B20194  12.361  21.655   7.714
 1323POPC   NC320195  38.457  43.886   9.662
 1323POPC   PO420196  38.148  44.239   9.272
 1323POPC   GL120197  38.554  44.022   9.154
 1323POPC   GL220198  38.641  43.660   9.239
 1323POPC   C1A20199  38.594  43.906   8.712
 1323POPC   D2A20200  38.258  43.953   8.383
 1323POPC   C3A20201  38.247  44.106   7.956
 1323POPC   C4A20202  38.343  44.110   7.517
 1323POPC   C1B20203  38.779  43.443   8.866
 1323POPC   C2B20204  38.532  43.433   8.473
 1323POPC   C3B20205  38.446  43.576   8.043
 1323POPC   C4B20206  38.657  43.739   7.668
 1324POPC   NC320207  37.304  10.001   9.440
 1324POPC   PO420208  36.719   9.682   9.591
 1324POPC   GL120209  36.856   9.821   9.165
 1324POPC   GL220210  37.147   9.666   9.083
 1324POPC   C1A20211  36.791   9.669   8.701
 1324POPC   D2A20212  36.844   9.904   8.323
 1324POPC   C3A20213  37.057   9.757   7.977
 1324POPC   C4A20214  36.765   9.627   7.685
 1324POPC   C1B20215  37.252   9.381   8.740
 1324POPC   C2B20216  37.064   9.315   8.325
 1324POPC   C3B20217  37.048   9.258   7.882
 1324POPC   C4B20218  37.108   9.317   7.427
 1325POPC   NC320219  24.999  17.328   9.417
 1325POPC   PO420220  25.374  17.758   9.308
 1325POPC   GL120221  25.348  17.557   9.001
 1325POPC   GL220222  25.428  17.257   9.117
 1325POPC   C1A20223  25.401  17.618   8.579
 1325POPC   D2A20224  25.072  17.550   8.324
 1325POPC   C3A20225  25.156  17.823   7.988
 1325POPC   C4A20226  25.483  17.664   7.735
 1325POPC   C1B20227  25.332  17.143   8.718
 1325POPC   C2B20228  25.555  17.190   8.356
 1325POPC   C3B20229  25.385  17.214   7.967
 1325POPC   C4B20230  25.008  17.363   7.856
 1326POPC   NC320231  10.730  35.618   9.539
 1326POPC   PO420232  10.338  35.099   9.409
 1326POPC   GL120233  10.202  35.399   9.103
 1326POPC   GL220234  10.472  35.643   9.097
 1326POPC   C1A20235  10.145  35.336   8.674
 1326POPC   D2A20236  10.063  35.572   8.272
 1326POPC   C3A20237  10.407  35.526   8.016
 1326POPC   C4A20238  10.349  35.049   7.970
 1326POPC   C1B20239  10.648  35.362   8.822
 1326POPC   C2B20240  10.566  35.244   8.417
 1326POPC   C3B20241  10.817  35.235   8.071
 1326POPC   C4B20242  10.919  35.576   7.860
 1327POPC   NC320243   0.138   2.283   9.508
 1327POPC   PO420244   0.807   1.967   9.446
 1327POPC   GL120245   0.452   1.935   9.182
 1327POPC   GL220246   0.404   2.285   9.067
 1327POPC   C1A20247   0.386   1.763   8.757
 1327POPC   D2A20248   0.485   1.938   8.314
 1327POPC   C3A20249   0.483   1.712   7.900
 1327POPC   C4A20250   0.525   1.852   7.451
 1327POPC   C1B20251   0.163   2.225   8.678
 1327POPC   C2B20252   0.091   2.273   8.226
 1327POPC   C3B20253   0.331   2.204   7.822
 1327POPC   C4B20254   0.460   2.341   7.382
 1328POPC   NC320255  14.829   1.433   9.391
 1328POPC   PO420256  15.532   1.164   9.472
 1328POPC   GL120257  15.415   1.299   9.074
 1328POPC   GL220258  15.091   1.170   9.043
 1328POPC   C1A20259  15.304   1.380   8.639
 1328POPC   D2A20260  15.066   1.523   8.273
 1328POPC   C3A20261  15.351   1.380   7.971
 1328POPC   C4A20262  15.578   1.380   7.591
 1328POPC   C1B20263  15.175   0.880   8.701
 1328POPC   C2B20264  15.138   1.011   8.285
 1328POPC   C3B20265  14.889   1.148   7.940
 1328POPC   C4B20266  14.830   0.938   7.564
 1329POPC   NC320267   3.427   2.167  10.214
 1329POPC   PO420268   3.331   1.918   9.564
 1329POPC   GL120269   3.247   1.824   9.098
 1329POPC   GL220270   3.287   2.168   9.025
 1329POPC   C1A20271   3.263   1.865   8.616
 1329POPC   D2A20272   3.074   2.029   8.214
 1329POPC   C3A20273   3.193   1.771   7.844
 1329POPC   C4A20274   3.662   1.638   7.733
 1329POPC   C1B20275   3.651   2.288   8.768
 1329POPC   C2B20276   3.687   2.567   8.405
 1329POPC   C3B20277   3.465   2.512   8.022
 1329POPC   C4B20278   3.528   2.138   7.831
 1330POPC   NC320279  25.084  18.139   9.439
 1330POPC   PO420280  25.607  17.867   9.772
 1330POPC   GL120281  25.626  18.181   9.271
 1330POPC   GL220282  25.340  18.380   9.078
 1330POPC   C1A20283  25.544  18.057   8.782
 1330POPC   D2A20284  25.158  18.071   8.516
 1330POPC   C3A20285  25.256  18.297   8.161
 1330POPC   C4A20286  25.305  18.256   7.717
 1330POPC   C1B20287  25.072  18.551   8.751
 1330POPC   C2B20288  25.116  18.760   8.355
 1330POPC   C3B20289  24.947  18.631   7.956
 1330POPC   C4B20290  24.807  18.190   7.825
 1331POPC   NC320291  27.227  24.984   9.284
 1331POPC   PO420292  26.645  25.292   9.486
 1331POPC   GL120293  26.747  25.381   9.033
 1331POPC   GL220294  27.057  25.333   8.958
 1331POPC   C1A20295  26.598  25.441   8.592
 1331POPC   D2A20296  26.801  25.672   8.230
 1331POPC   C3A20297  26.745  25.639   7.776
 1331POPC   C4A20298  26.657  25.208   7.764
 1331POPC   C1B20299  27.124  25.472   8.560
 1331POPC   C2B20300  27.341  25.571   8.188
 1331POPC   C3B20301  27.151  25.343   7.874
 1331POPC   C4B20302  27.074  25.346   7.433
 1332POPC   NC320303  35.607  41.440   9.449
 1332POPC   PO420304  34.884  41.317   9.406
 1332POPC   GL120305  35.089  41.315   9.021
 1332POPC   GL220306  35.308  41.587   9.057
 1332POPC   C1A20307  35.236  41.421   8.591
 1332POPC   D2A20308  35.661  41.523   8.461
 1332POPC   C3A20309  35.621  41.510   8.027
 1332POPC   C4A20310  35.174  41.540   7.949
 1332POPC   C1B20311  35.001  41.828   8.820
 1332POPC   C2B20312  34.966  41.905   8.396
 1332POPC   C3B20313  35.365  41.947   8.218
 1332POPC   C4B20314  35.540  41.971   7.810
 1333POPC   NC320315   7.799   0.437   9.523
 1333POPC   PO420316   7.164   0.653   9.555
 1333POPC   GL120317   7.390   0.470   9.225
 1333POPC   GL220318   7.623   0.746   9.166
 1333POPC   C1A20319   7.635   0.363   8.856
 1333POPC   D2A20320   7.548   0.411   8.445
 1333POPC   C3A20321   7.205   0.270   8.203
 1333POPC   C4A20322   7.227   0.356   7.769
 1333POPC   C1B20323   7.652   0.874   8.752
 1333POPC   C2B20324   7.506   0.940   8.357
 1333POPC   C3B20325   7.450   0.709   8.038
 1333POPC   C4B20326   7.715   0.639   7.747
 1334POPC   NC320327  32.292  25.423   9.502
 1334POPC   PO420328  32.400  24.877   9.050
 1334POPC   GL120329  32.471  25.288   9.053
 1334POPC   GL220330  32.107  25.335   9.045
 1334POPC   C1A20331  32.451  25.502   8.697
 1334POPC   D2A20332  32.282  25.392   8.311
 1334POPC   C3A20333  32.461  25.467   7.918
 1334POPC   C4A20334  32.481  25.181   7.596
 1334POPC   C1B20335  31.924  25.547   8.710
 1334POPC   C2B20336  31.776  25.383   8.327
 1334POPC   C3B20337  31.901  25.300   7.912
 1334POPC   C4B20338  31.613  25.404   7.588
 1335POPC   NC320339  28.744  28.209   9.478
 1335POPC   PO420340  28.048  28.481   9.452
 1335POPC   GL120341  28.281  28.255   9.129
 1335POPC   GL220342  28.626  28.356   9.014
 1335POPC   C1A20343  28.131  28.101   8.741
 1335POPC   D2A20344  28.268  27.969   8.316
 1335POPC   C3A20345  28.132  28.270   7.998
 1335POPC   C4A20346  28.291  28.660   7.786
 1335POPC   C1B20347  28.426  28.497   8.669
 1335POPC   C2B20348  28.488  28.566   8.261
 1335POPC   C3B20349  28.646  28.317   7.957
 1335POPC   C4B20350  28.791  28.496   7.582
 1336POPC   NC320351   3.073  31.820   9.416
 1336POPC   PO420352   2.484  32.189   9.463
 1336POPC   GL120353   2.709  32.100   9.131
 1336POPC   GL220354   2.614  31.779   9.060
 1336POPC   C1A20355   2.611  32.155   8.699
 1336POPC   D2A20356   2.537  32.336   8.297
 1336POPC   C3A20357   2.880  32.394   8.015
 1336POPC   C4A20358   2.815  32.351   7.566
 1336POPC   C1B20359   2.908  31.748   8.739
 1336POPC   C2B20360   3.088  31.819   8.327
 1336POPC   C3B20361   2.984  31.906   7.879
 1336POPC   C4B20362   3.038  31.929   7.419
 1337POPC   NC320363   8.121   8.245   9.384
 1337POPC   PO420364   7.820   7.645   9.496
 1337POPC   GL120365   8.040   7.814   9.100
 1337POPC   GL220366   8.417   7.930   9.125
 1337POPC   C1A20367   7.899   7.972   8.668
 1337POPC   D2A20368   7.850   8.314   8.330
 1337POPC   C3A20369   8.107   8.277   7.984
 1337POPC   C4A20370   8.091   8.180   7.501
 1337POPC   C1B20371   8.367   8.204   8.770
 1337POPC   C2B20372   8.416   8.465   8.408
 1337POPC   C3B20373   8.621   8.379   8.011
 1337POPC   C4B20374   8.419   8.541   7.668
 1338POPC   NC320375  39.866  34.642   9.673
 1338POPC   PO420376  40.149  34.257   9.191
 1338POPC   GL120377  40.006  34.690   9.170
 1338POPC   GL220378  39.623  34.739   9.235
 1338POPC   C1A20379  40.114  34.850   8.764
 1338POPC   D2A20380  40.370  34.648   8.428
 1338POPC   C3A20381  40.210  34.582   8.019
 1338POPC   C4A20382  40.336  34.845   7.692
 1338POPC   C1B20383  39.647  34.626   8.802
 1338POPC   C2B20384  39.821  34.654   8.378
 1338POPC   C3B20385  39.663  34.773   7.979
 1338POPC   C4B20386  39.651  34.794   7.500
 1339POPC   NC320387  13.131  15.348   9.448
 1339POPC   PO420388  12.691  14.828   9.400
 1339POPC   GL120389  12.765  15.113   9.063
 1339POPC   GL220390  13.103  15.189   8.984
 1339POPC   C1A20391  12.750  15.059   8.629
 1339POPC   D2A20392  12.621  15.255   8.300
 1339POPC   C3A20393  12.959  15.309   8.088
 1339POPC   C4A20394  12.760  15.205   7.720
 1339POPC   C1B20395  13.313  15.081   8.615
 1339POPC   C2B20396  13.122  14.784   8.356
 1339POPC   C3B20397  12.983  14.823   7.947
 1339POPC   C4B20398  13.231  14.857   7.548
 1340POPC   NC320399   9.742   4.666   9.528
 1340POPC   PO420400   9.935   4.038   9.551
 1340POPC   GL120401   9.867   4.273   9.197
 1340POPC   GL220402  10.139   4.443   9.168
 1340POPC   C1A20403   9.938   4.218   8.748
 1340POPC   D2A20404   9.837   4.274   8.299
 1340POPC   C3A20405   9.742   3.969   8.012
 1340POPC   C4A20406   9.594   4.181   7.656
 1340POPC   C1B20407  10.257   4.689   8.844
 1340POPC   C2B20408  10.107   4.664   8.473
 1340POPC   C3B20409  10.161   4.626   8.071
 1340POPC   C4B20410  10.057   4.302   7.791
 1341POPC   NC320411   9.248  43.109   9.389
 1341POPC   PO420412   8.952  43.641   9.559
 1341POPC   GL120413   8.955  43.414   9.142
 1341POPC   GL220414   8.796  43.137   9.089
 1341POPC   C1A20415   9.297  43.399   8.761
 1341POPC   D2A20416   9.167  43.380   8.364
 1341POPC   C3A20417   9.322  43.135   8.035
 1341POPC   C4A20418   9.269  43.325   7.643
 1341POPC   C1B20419   9.008  42.980   8.753
 1341POPC   C2B20420   8.829  42.818   8.407
 1341POPC   C3B20421   8.805  43.075   8.071
 1341POPC   C4B20422   8.942  42.954   7.697
 1342POPC   NC320423   8.448  28.471   9.475
 1342POPC   PO420424   7.794  28.596   9.571
 1342POPC   GL120425   8.056  28.664   9.199
 1342POPC   GL220426   8.069  28.317   9.163
 1342POPC   C1A20427   8.214  28.610   8.755
 1342POPC   D2A20428   8.411  28.329   8.466
 1342POPC   C3A20429   8.221  28.364   8.113
 1342POPC   C4A20430   8.152  28.359   7.707
 1342POPC   C1B20431   8.109  28.095   8.804
 1342POPC   C2B20432   7.922  28.074   8.412
 1342POPC   C3B20433   7.877  27.987   7.967
 1342POPC   C4B20434   8.195  27.856   7.679
 1343POPC   NC320435  15.184   0.861   9.438
 1343POPC   PO420436  15.682   0.453   9.514
 1343POPC   GL120437  15.421   0.463   9.165
 1343POPC   GL220438  15.524   0.775   9.068
 1343POPC   C1A20439  15.092   0.295   8.855
 1343POPC   D2A20440  14.870   0.003   8.532
 1343POPC   C3A20441  14.965   0.143   8.067
 1343POPC   C4A20442  15.314   0.199   7.746
 1343POPC   C1B20443  15.548   0.512   8.677
 1343POPC   C2B20444  15.218   0.461   8.364
 1343POPC   C3B20445  15.100   0.627   7.945
 1343POPC   C4B20446  15.342   0.927   7.742
 1344POPC   NC320447  24.992   8.057   9.542
 1344POPC   PO420448  25.438   8.420   9.352
 1344POPC   GL120449  25.412   7.975   9.137
 1344POPC   GL220450  25.062   7.911   9.071
 1344POPC   C1A20451  25.347   7.704   8.732
 1344POPC   D2A20452  25.081   7.681   8.373
 1344POPC   C3A20453  25.274   7.819   7.998
 1344POPC   C4A20454  25.194   8.236   7.795
 1344POPC   C1B20455  25.113   8.149   8.680
 1344POPC   C2B20456  24.950   8.165   8.247
 1344POPC   C3B20457  24.695   8.289   7.866
 1344POPC   C4B20458  24.792   8.263   7.388
 1345POPC   NC320459   7.700  15.814   9.504
 1345POPC   PO420460   7.112  16.180   9.496
 1345POPC   GL120461   7.483  16.200   9.200
 1345POPC   GL220462   7.597  15.838   9.027
 1345POPC   C1A20463   7.690  16.258   8.792
 1345POPC   D2A20464   7.773  16.029   8.381
 1345POPC   C3A20465   7.630  16.158   7.956
 1345POPC   C4A20466   7.268  16.023   7.698
 1345POPC   C1B20467   7.479  15.558   8.701
 1345POPC   C2B20468   7.363  15.715   8.295
 1345POPC   C3B20469   7.532  15.633   7.908
 1345POPC   C4B20470   7.461  15.585   7.474
 1346POPC   NC320471  22.824   4.155   9.660
 1346POPC   PO420472  23.484   4.052   9.600
 1346POPC   GL120473  23.203   4.080   9.221
 1346POPC   GL220474  22.885   4.213   9.162
 1346POPC   C1A20475  23.217   4.278   8.790
 1346POPC   D2A20476  23.173   4.611   8.478
 1346POPC   C3A20477  22.892   4.588   8.125
 1346POPC   C4A20478  22.922   4.285   7.816
 1346POPC   C1B20479  22.667   4.251   8.798
 1346POPC   C2B20480  22.853   4.173   8.417
 1346POPC   C3B20481  22.540   4.201   8.124
 1346POPC   C4B20482  22.489   4.009   7.734
 1347POPC   NC320483   0.565  26.413   9.540
 1347POPC   PO420484   0.823  27.042   9.423
 1347POPC   GL120485   0.521  26.852   9.120
 1347POPC   GL220486   0.337  26.521   9.069
 1347POPC   C1A20487   0.634  26.696   8.700
 1347POPC   D2A20488   0.925  26.821   8.406
 1347POPC   C3A20489   0.740  26.728   8.034
 1347POPC   C4A20490   0.329  26.747   7.867
 1347POPC   C1B20491   0.161  26.876   8.776
 1347POPC   C2B20492   0.259  27.133   8.399
 1347POPC   C3B20493   0.072  27.183   7.979
 1347POPC   C4B20494   0.051  27.024   7.548
 1348POPC   NC320495   4.665  19.979   9.500
 1348POPC   PO420496   4.006  19.667   9.417
 1348POPC   GL120497   4.235  19.786   9.117
 1348POPC   GL220498   4.368  20.088   9.091
 1348POPC   C1A20499   4.117  19.909   8.706
 1348POPC   D2A20500   4.368  20.073   8.432
 1348POPC   C3A20501   4.368  19.751   8.139
 1348POPC   C4A20502   4.190  19.565   7.770
 1348POPC   C1B20503   4.669  19.860   8.835
 1348POPC   C2B20504   4.876  19.898   8.424
 1348POPC   C3B20505   4.718  20.108   8.072
 1348POPC   C4B20506   4.394  20.044   7.703
 1349POPC   NC320507  21.788  42.915   9.465
 1349POPC   PO420508  22.421  43.168   9.666
 1349POPC   GL120509  22.242  43.011   9.237
 1349POPC   GL220510  22.231  43.268   9.037
 1349POPC   C1A20511  21.993  42.936   8.782
 1349POPC   D2A20512  21.783  42.833   8.360
 1349POPC   C3A20513  21.917  43.127   8.022
 1349POPC   C4A20514  21.965  43.099   7.552
 1349POPC   C1B20515  22.450  43.490   8.760
 1349POPC   C2B20516  22.268  43.293   8.409
 1349POPC   C3B20517  22.444  43.179   8.041
 1349POPC   C4B20518  22.463  43.255   7.624
 1350POPC   NC320519  22.428   4.924   9.261
 1350POPC   PO420520  21.898   5.217   9.482
 1350POPC   GL120521  22.022   5.184   9.049
 1350POPC   GL220522  22.333   5.299   8.917
 1350POPC   C1A20523  22.022   4.969   8.639
 1350POPC   D2A20524  22.006   5.126   8.225
 1350POPC   C3A20525  21.906   4.900   7.845
 1350POPC   C4A20526  21.753   4.996   7.436
 1350POPC   C1B20527  22.567   5.016   8.622
 1350POPC   C2B20528  22.422   4.803   8.243
 1350POPC   C3B20529  22.398   5.058   7.877
 1350POPC   C4B20530  22.629   5.434   7.785
 1351POPC   NC320531  41.259  25.575   9.521
 1351POPC   PO420532  41.746  25.042   9.495
 1351POPC   GL120533  41.471  25.212   9.191
 1351POPC   GL220534  41.719  25.490   9.173
 1351POPC   C1A20535  41.336  25.058   8.782
 1351POPC   D2A20536  41.508  24.917   8.378
 1351POPC   C3A20537  41.301  25.056   7.977
 1351POPC   C4A20538  41.452  25.236   7.592
 1351POPC   C1B20539  41.553  25.516   8.745
 1351POPC   C2B20540  41.702  25.400   8.363
 1351POPC   C3B20541  41.789  25.172   8.027
 1351POPC   C4B20542  41.957  25.240   7.658
 1352POPC   NC320543  44.126  14.665   9.511
 1352POPC   PO420544  43.762  14.171   9.604
 1352POPC   GL120545  43.983  14.219   9.207
 1352POPC   GL220546  43.711  14.037   9.118
 1352POPC   C1A20547  44.031  14.475   8.833
 1352POPC   D2A20548  44.100  14.738   8.487
 1352POPC   C3A20549  44.150  14.607   8.075
 1352POPC   C4A20550  44.011  14.568   7.671
 1352POPC   C1B20551  43.530  14.324   8.846
 1352POPC   C2B20552  43.651  14.463   8.436
 1352POPC   C3B20553  43.712  14.303   8.034
 1352POPC   C4B20554  43.590  14.262   7.603
 1353POPC   NC320555  34.627  29.801   9.512
 1353POPC   PO420556  34.932  30.332   9.251
 1353POPC   GL120557  34.770  29.935   9.006
 1353POPC   GL220558  34.798  29.543   9.126
 1353POPC   C1A20559  34.729  30.050   8.534
 1353POPC   D2A20560  34.485  30.307   8.226
 1353POPC   C3A20561  34.536  30.250   7.821
 1353POPC   C4A20562  34.262  30.031   7.533
 1353POPC   C1B20563  34.578  29.460   8.779
 1353POPC   C2B20564  34.722  29.551   8.370
 1353POPC   C3B20565  34.548  29.779   8.038
 1353POPC   C4B20566  34.751  29.825   7.651
 1354POPC   NC320567  14.723  27.970   9.409
 1354POPC   PO420568  14.386  28.574   9.389
 1354POPC   GL120569  14.348  28.405   9.025
 1354POPC   GL220570  14.648  28.266   9.009
 1354POPC   C1A20571  14.263  28.195   8.660
 1354POPC   D2A20572  14.339  28.177   8.254
 1354POPC   C3A20573  14.328  28.540   7.980
 1354POPC   C4A20574  14.146  28.542   7.559
 1354POPC   C1B20575  14.763  28.248   8.620
 1354POPC   C2B20576  14.740  28.500   8.311
 1354POPC   C3B20577  14.844  28.396   7.925
 1354POPC   C4B20578  15.077  28.367   7.580
 1355POPC   NC320579  42.840   3.801   9.571
 1355POPC   PO420580  43.355   3.267   9.666
 1355POPC   GL120581  43.301   3.405   9.234
 1355POPC   GL220582  43.216   3.770   9.218
 1355POPC   C1A20583  43.158   3.409   8.776
 1355POPC   D2A20584  42.938   3.265   8.407
 1355POPC   C3A20585  43.202   3.359   8.076
 1355POPC   C4A20586  43.249   3.469   7.666
 1355POPC   C1B20587  43.049   3.912   8.837
 1355POPC   C2B20588  43.137   3.780   8.411
 1355POPC   C3B20589  43.088   3.864   7.957
 1355POPC   C4B20590  42.964   4.034   7.546
 1356POPC   NC320591   1.370   0.830   9.391
 1356POPC   PO420592   1.625   0.266   9.541
 1356POPC   GL120593   1.389   0.376   9.171
 1356POPC   GL220594   1.030   0.519   9.168
 1356POPC   C1A20595   1.369   0.633   8.779
 1356POPC   D2A20596   1.139   0.563   8.437
 1356POPC   C3A20597   1.221   0.368   8.044
 1356POPC   C4A20598   1.117   0.512   7.639
 1356POPC   C1B20599   0.874   0.789   8.845
 1356POPC   C2B20600   0.686   0.791   8.450
 1356POPC   C3B20601   0.872   0.770   8.041
 1356POPC   C4B20602   0.611   0.798   7.673
 1357POPC   NC320603  41.787  21.344   9.480
 1357POPC   PO420604  42.482  21.362   9.483
 1357POPC   GL120605  42.256  21.366   9.152
 1357POPC   GL220606  42.057  21.055   9.156
 1357POPC   C1A20607  42.403  21.584   8.778
 1357POPC   D2A20608  42.544  21.771   8.408
 1357POPC   C3A20609  42.387  21.613   8.048
 1357POPC   C4A20610  42.552  21.252   7.822
 1357POPC   C1B20611  42.219  21.112   8.724
 1357POPC   C2B20612  42.356  21.126   8.309
 1357POPC   C3B20613  42.071  21.192   7.987
 1357POPC   C4B20614  41.965  21.301   7.603
 1358POPC   NC320615  41.763  33.224   9.608
 1358POPC   PO420616  41.313  32.753   9.516
 1358POPC   GL120617  41.408  32.972   9.160
 1358POPC   GL220618  41.679  33.184   9.103
 1358POPC   C1A20619  41.410  32.736   8.799
 1358POPC   D2A20620  41.598  32.714   8.411
 1358POPC   C3A20621  41.409  32.830   8.009
 1358POPC   C4A20622  41.585  32.831   7.624
 1358POPC   C1B20623  41.581  33.186   8.644
 1358POPC   C2B20624  41.636  33.249   8.192
 1358POPC   C3B20625  41.780  33.268   7.761
 1358POPC   C4B20626  41.563  33.264   7.334
 1359POPC   NC320627  27.869  29.828   9.386
 1359POPC   PO420628  27.338  30.261   9.568
 1359POPC   GL120629  27.513  30.160   9.175
 1359POPC   GL220630  27.406  29.813   9.165
 1359POPC   C1A20631  27.728  29.987   8.786
 1359POPC   D2A20632  27.641  29.822   8.410
 1359POPC   C3A20633  27.692  30.044   8.072
 1359POPC   C4A20634  27.849  29.905   7.697
 1359POPC   C1B20635  27.359  29.592   8.780
 1359POPC   C2B20636  27.445  29.357   8.391
 1359POPC   C3B20637  27.489  29.577   7.957
 1359POPC   C4B20638  27.181  29.658   7.585
 1360POPC   NC320639   2.489  40.682   9.468
 1360POPC   PO420640   1.808  40.802   9.380
 1360POPC   GL120641   1.922  40.887   9.018
 1360POPC   GL220642   2.266  40.859   9.044
 1360POPC   C1A20643   1.771  40.949   8.634
 1360POPC   D2A20644   1.732  40.920   8.229
 1360POPC   C3A20645   1.790  41.137   7.870
 1360POPC   C4A20646   1.889  40.729   7.668
 1360POPC   C1B20647   2.352  40.808   8.618
 1360POPC   C2B20648   2.234  40.627   8.232
 1360POPC   C3B20649   1.842  40.425   8.187
 1360POPC   C4B20650   1.545  40.381   7.882
 1361POPC   NC320651  25.398  26.960   9.840
 1361POPC   PO420652  26.041  26.820   9.537
 1361POPC   GL120653  25.911  26.853   9.133
 1361POPC   GL220654  26.203  26.956   8.965
 1361POPC   C1A20655  25.760  26.861   8.710
 1361POPC   D2A20656  26.020  26.936   8.358
 1361POPC   C3A20657  25.784  26.882   7.992
 1361POPC   C4A20658  25.897  26.647   7.604
 1361POPC   C1B20659  26.132  26.526   8.767
 1361POPC   C2B20660  26.223  26.391   8.322
 1361POPC   C3B20661  26.278  26.419   7.851
 1361POPC   C4B20662  26.226  26.319   7.395
 1362POPC   NC320663  11.671  34.473   9.453
 1362POPC   PO420664  11.209  34.984   9.519
 1362POPC   GL120665  11.313  34.745   9.138
 1362POPC   GL220666  11.380  34.371   9.047
 1362POPC   C1A20667  11.168  34.750   8.711
 1362POPC   D2A20668  11.311  34.843   8.274
 1362POPC   C3A20669  11.176  34.952   7.839
 1362POPC   C4A20670  11.191  35.099   7.403
 1362POPC   C1B20671  11.702  34.595   8.769
 1362POPC   C2B20672  11.766  34.623   8.298
 1362POPC   C3B20673  11.464  34.516   7.909
 1362POPC   C4B20674  11.238  34.223   7.592
 1363POPC   NC320675  27.247  16.694   9.371
 1363POPC   PO420676  26.712  16.870   9.783
 1363POPC   GL120677  26.671  16.846   9.299
 1363POPC   GL220678  26.773  16.524   9.143
 1363POPC   C1A20679  26.754  16.933   8.833
 1363POPC   D2A20680  26.861  16.722   8.425
 1363POPC   C3A20681  26.709  16.936   8.032
 1363POPC   C4A20682  26.839  16.812   7.582
 1363POPC   C1B20683  26.453  16.519   8.772
 1363POPC   C2B20684  26.401  16.524   8.335
 1363POPC   C3B20685  26.623  16.446   7.964
 1363POPC   C4B20686  26.492  16.441   7.526
 1364POPC   NC320687  25.595  20.952   9.560
 1364POPC   PO420688  25.093  21.409   9.553
 1364POPC   GL120689  25.179  21.452   9.166
 1364POPC   GL220690  25.497  21.319   9.199
 1364POPC   C1A20691  25.010  21.541   8.768
 1364POPC   D2A20692  24.860  21.302   8.420
 1364POPC   C3A20693  24.999  21.454   8.048
 1364POPC   C4A20694  25.192  21.537   7.645
 1364POPC   C1B20695  25.558  21.550   8.816
 1364POPC   C2B20696  25.383  21.490   8.401
 1364POPC   C3B20697  25.523  21.358   7.986
 1364POPC   C4B20698  25.742  21.652   7.688
 1365POPC   NC320699  21.433  44.969   9.655
 1365POPC   PO420700  21.117  44.438   9.393
 1365POPC   GL120701  21.309  44.763   9.154
 1365POPC   GL220702  21.052  44.991   9.285
 1365POPC   C1A20703  21.357  44.870   8.691
 1365POPC   D2A20704  21.589  44.808   8.286
 1365POPC   C3A20705  21.376  44.460   8.041
 1365POPC   C4A20706  21.256  44.558   7.641
 1365POPC   C1B20707  20.935   0.160   8.896
 1365POPC   C2B20708  20.916   0.116   8.459
 1365POPC   C3B20709  21.079  44.874   8.129
 1365POPC   C4B20710  21.035  44.996   7.715
 1366POPC   NC320711  13.799  15.217   9.757
 1366POPC   PO420712  13.296  14.912   9.395
 1366POPC   GL120713  13.541  14.949   9.058
 1366POPC   GL220714  13.617  15.276   9.123
 1366POPC   C1A20715  13.833  14.950   8.712
 1366POPC   D2A20716  13.922  15.082   8.306
 1366POPC   C3A20717  13.475  15.081   8.096
 1366POPC   C4A20718  13.329  15.313   7.733
 1366POPC   C1B20719  13.771  15.482   8.751
 1366POPC   C2B20720  13.922  15.613   8.353
 1366POPC   C3B20721  13.809  15.426   7.950
 1366POPC   C4B20722  13.778  15.495   7.532
 1367POPC   NC320723  12.385  32.601   9.390
 1367POPC   PO420724  11.762  32.295   9.382
 1367POPC   GL120725  12.024  32.266   9.103
 1367POPC   GL220726  12.295  32.014   9.131
 1367POPC   C1A20727  11.935  32.051   8.729
 1367POPC   D2A20728  12.136  32.020   8.386
 1367POPC   C3A20729  11.990  31.842   8.039
 1367POPC   C4A20730  11.940  31.891   7.645
 1367POPC   C1B20731  12.371  32.316   8.762
 1367POPC   C2B20732  12.528  32.331   8.341
 1367POPC   C3B20733  12.317  32.253   7.955
 1367POPC   C4B20734  12.127  32.372   7.553
 1368POPC   NC320735   8.579   6.161   9.240
 1368POPC   PO420736   9.012   6.678   9.481
 1368POPC   GL120737   8.893   6.553   9.075
 1368POPC   GL220738   9.087   6.830   8.979
 1368POPC   C1A20739   8.750   6.366   8.658
 1368POPC   D2A20740   8.993   6.286   8.273
 1368POPC   C3A20741   8.893   6.430   7.852
 1368POPC   C4A20742   8.615   6.264   7.533
 1368POPC   C1B20743   9.109   6.691   8.591
 1368POPC   C2B20744   8.907   6.815   8.217
 1368POPC   C3B20745   8.966   6.924   7.802
 1368POPC   C4B20746   9.202   6.771   7.493
 1369POPC   NC320747  38.564  21.990   9.523
 1369POPC   PO420748  38.826  22.538   9.287
 1369POPC   GL120749  38.648  22.196   9.070
 1369POPC   GL220750  38.295  22.151   9.102
 1369POPC   C1A20751  38.514  22.023   8.679
 1369POPC   D2A20752  38.315  22.235   8.380
 1369POPC   C3A20753  38.518  22.086   8.051
 1369POPC   C4A20754  38.692  22.261   7.719
 1369POPC   C1B20755  38.039  21.891   8.808
 1369POPC   C2B20756  38.101  21.787   8.383
 1369POPC   C3B20757  38.038  21.951   7.974
 1369POPC   C4B20758  37.968  21.937   7.540
 1370POPC   NC320759  10.873  14.461   9.435
 1370POPC   PO420760  10.135  14.509   9.519
 1370POPC   GL120761  10.245  14.300   9.100
 1370POPC   GL220762  10.588  14.376   9.026
 1370POPC   C1A20763  10.314  14.203   8.632
 1370POPC   D2A20764  10.307  14.632   8.421
 1370POPC   C3A20765  10.412  14.640   7.995
 1370POPC   C4A20766  10.146  14.426   7.705
 1370POPC   C1B20767  10.775  14.471   8.628
 1370POPC   C2B20768  11.026  14.231   8.335
 1370POPC   C3B20769  10.934  14.021   7.964
 1370POPC   C4B20770  10.566  14.109   7.725
 1371POPC   NC320771   6.880  19.809   9.375
 1371POPC   PO420772   6.405  19.326   9.298
 1371POPC   GL120773   6.562  19.600   9.023
 1371POPC   GL220774   6.427  19.837   9.054
 1371POPC   C1A20775   6.803  19.735   8.668
 1371POPC   D2A20776   6.799  19.521   8.256
 1371POPC   C3A20777   6.732  19.776   7.903
 1371POPC   C4A20778   6.492  19.727   7.531
 1371POPC   C1B20779   6.341  20.033   8.701
 1371POPC   C2B20780   6.450  19.936   8.306
 1371POPC   C3B20781   6.252  20.032   7.938
 1371POPC   C4B20782   6.423  20.332   7.728
 1372POPC   NC320783  44.354  25.743   9.483
 1372POPC   PO420784  43.784  25.896   9.422
 1372POPC   GL120785  44.046  26.091   9.135
 1372POPC   GL220786  43.759  26.317   9.079
 1372POPC   C1A20787  43.973  26.003   8.709
 1372POPC   D2A20788  43.899  25.714   8.356
 1372POPC   C3A20789  43.995  25.846   7.928
 1372POPC   C4A20790  43.995  25.719   7.450
 1372POPC   C1B20791  43.690  26.430   8.709
 1372POPC   C2B20792  43.830  26.342   8.340
 1372POPC   C3B20793  43.653  26.403   7.949
 1372POPC   C4B20794  43.759  26.145   7.593
 1373POPC   NC320795  31.199  24.814   9.491
 1373POPC   PO420796  31.690  24.398   9.373
 1373POPC   GL120797  31.430  24.475   9.069
 1373POPC   GL220798  31.143  24.346   9.194
 1373POPC   C1A20799  31.328  24.731   8.712
 1373POPC   D2A20800  31.583  24.866   8.349
 1373POPC   C3A20801  31.569  24.714   7.904
 1373POPC   C4A20802  31.591  24.747   7.423
 1373POPC   C1B20803  31.058  24.273   8.781
 1373POPC   C2B20804  31.348  24.286   8.437
 1373POPC   C3B20805  31.198  24.400   8.064
 1373POPC   C4B20806  31.258  24.409   7.617
 1374POPC   NC320807  24.459  30.230   9.495
 1374POPC   PO420808  24.313  29.540   9.474
 1374POPC   GL120809  24.298  29.854   9.140
 1374POPC   GL220810  24.610  30.010   9.068
 1374POPC   C1A20811  24.356  29.751   8.687
 1374POPC   D2A20812  24.353  29.944   8.280
 1374POPC   C3A20813  24.332  29.689   7.894
 1374POPC   C4A20814  24.299  29.661   7.424
 1374POPC   C1B20815  24.801  30.213   8.734
 1374POPC   C2B20816  24.849  30.044   8.315
 1374POPC   C3B20817  24.685  30.152   7.943
 1374POPC   C4B20818  24.677  29.991   7.496
 1375POPC   NC320819  18.900  34.337   9.738
 1375POPC   PO420820  19.130  34.954   9.503
 1375POPC   GL120821  19.070  34.608   9.275
 1375POPC   GL220822  18.905  34.827   9.050
 1375POPC   C1A20823  19.059  34.335   8.918
 1375POPC   D2A20824  18.987  34.429   8.480
 1375POPC   C3A20825  19.205  34.371   8.092
 1375POPC   C4A20826  19.037  34.507   7.692
 1375POPC   C1B20827  18.647  34.747   8.713
 1375POPC   C2B20828  18.705  34.815   8.290
 1375POPC   C3B20829  19.064  34.866   8.047
 1375POPC   C4B20830  19.017  35.050   7.667
 1376POPC   NC320831  41.010   6.082   9.465
 1376POPC   PO420832  40.329   5.938   9.549
 1376POPC   GL120833  40.429   6.031   9.117
 1376POPC   GL220834  40.788   6.127   9.028
 1376POPC   C1A20835  40.536   5.854   8.709
 1376POPC   D2A20836  40.321   5.787   8.357
 1376POPC   C3A20837  40.680   5.844   8.093
 1376POPC   C4A20838  40.809   5.654   7.717
 1376POPC   C1B20839  40.989   6.319   8.672
 1376POPC   C2B20840  41.078   6.154   8.245
 1376POPC   C3B20841  40.999   6.116   7.806
 1376POPC   C4B20842  40.727   6.354   7.590
 1377POPC   NC320843  44.819  12.371   9.393
 1377POPC   PO420844  44.416  11.861   9.454
 1377POPC   GL120845  44.523  12.052   9.104
 1377POPC   GL220846  44.339  12.316   9.011
 1377POPC   C1A20847  44.864  11.974   8.824
 1377POPC   D2A20848  44.836  11.761   8.451
 1377POPC   C3A20849  44.688  11.960   8.068
 1377POPC   C4A20850  44.921  11.972   7.673
 1377POPC   C1B20851  44.419  12.132   8.601
 1377POPC   C2B20852  44.191  12.065   8.227
 1377POPC   C3B20853  44.240  12.199   7.844
 1377POPC   C4B20854  44.425  11.920   7.592
 1378POPC   NC320855  22.319   2.501   9.436
 1378POPC   PO420856  22.004   2.989   9.810
 1378POPC   GL120857  22.053   3.004   9.316
 1378POPC   GL220858  21.910   2.705   9.197
 1378POPC   C1A20859  22.175   2.919   8.840
 1378POPC   D2A20860  21.921   2.965   8.456
 1378POPC   C3A20861  22.143   2.977   8.078
 1378POPC   C4A20862  22.277   2.833   7.682
 1378POPC   C1B20863  21.900   2.498   8.758
 1378POPC   C2B20864  22.178   2.475   8.409
 1378POPC   C3B20865  22.063   2.476   7.999
 1378POPC   C4B20866  21.790   2.704   7.774
 1379POPC   NC320867  23.691  39.214   9.533
 1379POPC   PO420868  24.138  38.748   9.346
 1379POPC   GL120869  23.880  39.062   9.054
 1379POPC   GL220870  23.794  39.437   9.089
 1379POPC   C1A20871  23.655  39.168   8.673
 1379POPC   D2A20872  23.481  39.085   8.277
 1379POPC   C3A20873  23.757  39.316   8.070
 1379POPC   C4A20874  23.635  39.381   7.692
 1379POPC   C1B20875  23.395  39.598   8.850
 1379POPC   C2B20876  23.208  39.471   8.484
 1379POPC   C3B20877  23.309  39.573   8.042
 1379POPC   C4B20878  23.297  39.765   7.652
 1380POPC   NC320879  18.202   3.108   9.291
 1380POPC   PO420880  18.387   2.585   9.694
 1380POPC   GL120881  18.422   2.602   9.198
 1380POPC   GL220882  18.131   2.670   9.005
 1380POPC   C1A20883  18.568   2.731   8.759
 1380POPC   D2A20884  18.262   2.578   8.456
 1380POPC   C3A20885  18.272   2.607   7.994
 1380POPC   C4A20886  17.885   2.549   7.754
 1380POPC   C1B20887  18.176   3.033   8.679
 1380POPC   C2B20888  18.459   3.088   8.356
 1380POPC   C3B20889  18.362   3.121   7.921
 1380POPC   C4B20890  18.187   2.908   7.558
 1381POPC   NC320891   2.283  28.366   9.243
 1381POPC   PO420892   1.670  28.043   9.381
 1381POPC   GL120893   1.641  28.319   9.002
 1381POPC   GL220894   1.876  28.542   9.013
 1381POPC   C1A20895   1.792  28.451   8.539
 1381POPC   D2A20896   2.214  28.372   8.355
 1381POPC   C3A20897   2.214  28.220   7.935
 1381POPC   C4A20898   1.962  28.209   7.596
 1381POPC   C1B20899   2.230  28.721   8.710
 1381POPC   C2B20900   2.127  28.887   8.329
 1381POPC   C3B20901   2.199  28.726   7.955
 1381POPC   C4B20902   1.831  28.699   7.695
 1382POPC   NC320903  16.161   2.640   9.613
 1382POPC   PO420904  15.757   3.199   9.612
 1382POPC   GL120905  16.028   3.031   9.280
 1382POPC   GL220906  15.871   2.734   9.161
 1382POPC   C1A20907  16.090   3.022   8.817
 1382POPC   D2A20908  16.081   2.837   8.376
 1382POPC   C3A20909  15.839   2.982   8.035
 1382POPC   C4A20910  16.020   3.145   7.689
 1382POPC   C1B20911  15.956   2.525   8.759
 1382POPC   C2B20912  15.728   2.458   8.379
 1382POPC   C3B20913  15.898   2.479   7.990
 1382POPC   C4B20914  16.200   2.646   7.745
 1383POPC   NC320915  27.962  12.940   9.368
 1383POPC   PO420916  27.418  12.721   9.560
 1383POPC   GL120917  27.545  12.749   9.134
 1383POPC   GL220918  27.798  12.530   9.086
 1383POPC   C1A20919  27.494  12.762   8.686
 1383POPC   D2A20920  27.300  12.679   8.282
 1383POPC   C3A20921  27.451  12.653   7.842
 1383POPC   C4A20922  27.470  12.702   7.360
 1383POPC   C1B20923  27.991  12.668   8.719
 1383POPC   C2B20924  27.874  12.839   8.336
 1383POPC   C3B20925  27.982  12.648   7.973
 1383POPC   C4B20926  27.854  12.903   7.640
 1384POPC   NC320927  25.437   2.349   9.515
 1384POPC   PO420928  25.072   1.861   9.613
 1384POPC   GL120929  25.056   1.998   9.175
 1384POPC   GL220930  25.139   2.322   9.103
 1384POPC   C1A20931  25.177   1.998   8.706
 1384POPC   D2A20932  25.279   2.168   8.279
 1384POPC   C3A20933  25.145   1.955   7.905
 1384POPC   C4A20934  25.500   1.834   7.634
 1384POPC   C1B20935  25.472   2.420   8.768
 1384POPC   C2B20936  25.667   2.515   8.334
 1384POPC   C3B20937  25.621   2.360   7.871
 1384POPC   C4B20938  25.582   2.307   7.388
 1385POPC   NC320939  13.323  34.637   9.310
 1385POPC   PO420940  12.769  34.798   9.569
 1385POPC   GL120941  12.822  34.605   9.112
 1385POPC   GL220942  13.099  34.394   8.942
 1385POPC   C1A20943  12.860  34.721   8.674
 1385POPC   D2A20944  13.022  34.576   8.302
 1385POPC   C3A20945  12.739  34.640   7.979
 1385POPC   C4A20946  12.760  34.767   7.566
 1385POPC   C1B20947  12.809  34.220   8.663
 1385POPC   C2B20948  13.016  34.049   8.365
 1385POPC   C3B20949  13.121  34.178   7.969
 1385POPC   C4B20950  12.851  34.267   7.662
 1386POPC   NC320951   5.415  32.827   9.646
 1386POPC   PO420952   4.952  33.284   9.485
 1386POPC   GL120953   4.981  33.164   9.110
 1386POPC   GL220954   5.157  32.866   9.188
 1386POPC   C1A20955   5.005  33.149   8.687
 1386POPC   D2A20956   5.198  32.995   8.347
 1386POPC   C3A20957   5.017  33.135   7.978
 1386POPC   C4A20958   5.253  33.202   7.580
 1386POPC   C1B20959   4.884  32.670   8.872
 1386POPC   C2B20960   4.795  32.660   8.445
 1386POPC   C3B20961   5.026  32.614   8.032
 1386POPC   C4B20962   4.888  32.806   7.617
 1387POPC   NC320963  37.245  31.323   9.368
 1387POPC   PO420964  36.809  31.780   9.501
 1387POPC   GL120965  36.820  31.516   9.129
 1387POPC   GL220966  37.085  31.445   8.912
 1387POPC   C1A20967  36.585  31.503   8.774
 1387POPC   D2A20968  36.859  31.529   8.414
 1387POPC   C3A20969  36.694  31.373   8.036
 1387POPC   C4A20970  36.560  31.182   7.661
 1387POPC   C1B20971  37.347  31.737   8.759
 1387POPC   C2B20972  37.290  31.942   8.370
 1387POPC   C3B20973  37.192  31.657   8.038
 1387POPC   C4B20974  37.077  31.351   7.723
 1388POPC   NC320975  20.927  33.122   9.459
 1388POPC   PO420976  20.379  32.727   9.462
 1388POPC   GL120977  20.574  32.951   9.123
 1388POPC   GL220978  20.817  32.723   9.101
 1388POPC   C1A20979  20.653  33.037   8.675
 1388POPC   D2A20980  20.487  33.176   8.254
 1388POPC   C3A20981  20.831  33.205   7.949
 1388POPC   C4A20982  21.131  33.189   7.575
 1388POPC   C1B20983  20.567  32.530   8.767
 1388POPC   C2B20984  20.392  32.667   8.351
 1388POPC   C3B20985  20.513  32.805   7.907
 1388POPC   C4B20986  20.408  33.139   7.579
 1389POPC   NC320987  30.418  40.852   9.416
 1389POPC   PO420988  30.999  40.535   9.383
 1389POPC   GL120989  30.753  40.724   9.044
 1389POPC   GL220990  30.409  40.600   8.980
 1389POPC   C1A20991  30.751  40.923   8.639
 1389POPC   D2A20992  30.748  40.713   8.234
 1389POPC   C3A20993  30.927  40.848   7.863
 1389POPC   C4A20994  30.674  40.833   7.517
 1389POPC   C1B20995  30.310  40.420   8.591
 1389POPC   C2B20996  30.405  40.298   8.170
 1389POPC   C3B20997  30.354  40.630   7.889
 1389POPC   C4B20998  30.185  40.876   7.553
 1390POPC   NC320999   7.911  30.793   9.290
 1390POPC   PO421000   7.162  30.917   9.437
 1390POPC   GL121001   7.330  30.800   9.087
 1390POPC   GL221002   7.543  31.044   9.036
 1390POPC   C1A21003   7.541  30.637   8.714
 1390POPC   D2A21004   7.307  30.810   8.431
 1390POPC   C3A21005   7.265  30.833   7.989
 1390POPC   C4A21006   7.276  30.747   7.548
 1390POPC   C1B21007   7.839  31.032   8.685
 1390POPC   C2B21008   7.758  30.940   8.268
 1390POPC   C3B21009   7.787  30.782   7.899
 1390POPC   C4B21010   7.886  31.030   7.530
 1391POPC   NC321011   5.817   9.285   9.330
 1391POPC   PO421012   6.002   8.615   9.501
 1391POPC   GL121013   5.907   8.830   9.125
 1391POPC   GL221014   6.145   9.014   8.997
 1391POPC   C1A21015   5.727   9.034   8.722
 1391POPC   D2A21016   5.834   9.232   8.332
 1391POPC   C3A21017   5.808   8.975   7.953
 1391POPC   C4A21018   5.787   8.991   7.521
 1391POPC   C1B21019   6.266   8.660   8.752
 1391POPC   C2B21020   6.435   8.723   8.386
 1391POPC   C3B21021   6.286   8.959   8.099
 1391POPC   C4B21022   6.259   8.838   7.676
 1392POPC   NC321023  11.827  42.638   9.439
 1392POPC   PO421024  12.313  42.277   9.519
 1392POPC   GL121025  12.164  42.357   9.120
 1392POPC   GL221026  12.270  42.666   9.146
 1392POPC   C1A21027  11.899  42.175   8.758
 1392POPC   D2A21028  11.722  42.052   8.341
 1392POPC   C3A21029  11.990  42.148   7.966
 1392POPC   C4A21030  11.855  42.078   7.528
 1392POPC   C1B21031  12.047  42.657   8.739
 1392POPC   C2B21032  12.158  42.444   8.371
 1392POPC   C3B21033  12.200  42.628   7.982
 1392POPC   C4B21034  11.830  42.680   7.740
 1393POPC   NC321035  27.694   4.281   9.662
 1393POPC   PO421036  27.685   4.791   9.247
 1393POPC   GL121037  27.394   4.522   9.025
 1393POPC   GL221038  27.306   4.180   9.154
 1393POPC   C1A21039  27.546   4.451   8.615
 1393POPC   D2A21040  27.916   4.370   8.390
 1393POPC   C3A21041  27.716   4.283   8.006
 1393POPC   C4A21042  27.659   4.508   7.635
 1393POPC   C1B21043  27.314   4.023   8.721
 1393POPC   C2B21044  27.233   4.164   8.250
 1393POPC   C3B21045  27.306   4.013   7.779
 1393POPC   C4B21046  27.454   3.888   7.309
 1394POPC   NC321047   1.717  10.468   9.488
 1394POPC   PO421048   2.075  11.058   9.553
 1394POPC   GL121049   2.082  10.742   9.211
 1394POPC   GL221050   1.969  10.377   9.064
 1394POPC   C1A21051   2.074  10.794   8.785
 1394POPC   D2A21052   2.279  10.624   8.450
 1394POPC   C3A21053   2.090  10.719   8.059
 1394POPC   C4A21054   1.943  10.538   7.666
 1394POPC   C1B21055   2.154  10.058   8.813
 1394POPC   C2B21056   2.252  10.103   8.431
 1394POPC   C3B21057   2.001  10.160   8.089
 1394POPC   C4B21058   2.018  10.004   7.701
 1395POPC   NC321059  23.248  35.189   9.480
 1395POPC   PO421060  23.910  35.267   9.579
 1395POPC   GL121061  24.018  35.352   9.177
 1395POPC   GL221062  23.635  35.370   9.127
 1395POPC   C1A21063  23.965  35.499   8.753
 1395POPC   D2A21064  23.691  35.428   8.430
 1395POPC   C3A21065  23.848  35.343   8.066
 1395POPC   C4A21066  23.770  35.207   7.688
 1395POPC   C1B21067  23.416  35.614   8.818
 1395POPC   C2B21068  23.233  35.664   8.385
 1395POPC   C3B21069  23.424  35.607   7.954
 1395POPC   C4B21070  23.490  35.610   7.480
 1396POPC   NC321071  28.005   5.993   9.635
 1396POPC   PO421072  28.439   5.449   9.580
 1396POPC   GL121073  28.344   5.683   9.163
 1396POPC   GL221074  28.509   6.003   9.119
 1396POPC   C1A21075  28.487   5.667   8.702
 1396POPC   D2A21076  28.818   5.609   8.375
 1396POPC   C3A21077  28.591   5.562   7.985
 1396POPC   C4A21078  28.654   5.864   7.717
 1396POPC   C1B21079  28.261   6.126   8.731
 1396POPC   C2B21080  28.179   5.942   8.319
 1396POPC   C3B21081  28.309   6.169   7.939
 1396POPC   C4B21082  28.051   6.291   7.599
 1397POPC   NC321083  31.663   1.419   9.511
 1397POPC   PO421084  31.277   0.866   9.609
 1397POPC   GL121085  31.351   1.138   9.221
 1397POPC   GL221086  31.695   1.098   9.110
 1397POPC   C1A21087  31.341   1.344   8.822
 1397POPC   D2A21088  31.171   1.356   8.435
 1397POPC   C3A21089  31.369   1.138   8.101
 1397POPC   C4A21090  31.416   1.080   7.679
 1397POPC   C1B21091  31.833   1.445   8.859
 1397POPC   C2B21092  31.785   1.565   8.445
 1397POPC   C3B21093  31.871   1.342   8.074
 1397POPC   C4B21094  31.706   1.478   7.702
 1398POPC   NC321095   0.835  17.360   9.457
 1398POPC   PO421096   0.145  17.556   9.467
 1398POPC   GL121097   0.390  17.337   9.210
 1398POPC   GL221098   0.313  17.024   9.332
 1398POPC   C1A21099   0.634  17.379   8.836
 1398POPC   D2A21100   0.635  17.659   8.486
 1398POPC   C3A21101   0.757  17.638   8.076
 1398POPC   C4A21102   0.416  17.809   7.847
 1398POPC   C1B21103   0.213  17.021   8.864
 1398POPC   C2B21104   0.292  17.225   8.470
 1398POPC   C3B21105   0.269  17.318   8.036
 1398POPC   C4B21106   0.583  17.308   7.715
 1399POPC   NC321107  26.740   6.874   9.514
 1399POPC   PO421108  27.163   6.430   9.490
 1399POPC   GL121109  27.090   6.716   9.138
 1399POPC   GL221110  26.770   6.703   9.033
 1399POPC   C1A21111  27.126   6.938   8.723
 1399POPC   D2A21112  27.245   7.100   8.287
 1399POPC   C3A21113  26.986   7.006   7.916
 1399POPC   C4A21114  26.819   6.620   7.801
 1399POPC   C1B21115  26.920   6.467   8.694
 1399POPC   C2B21116  26.802   6.488   8.291
 1399POPC   C3B21117  26.400   6.593   8.070
 1399POPC   C4B21118  26.325   6.483   7.628
 1400POPC   NC321119   7.189   8.606   9.423
 1400POPC   PO421120   7.600   9.244   9.504
 1400POPC   GL121121   7.444   9.020   9.172
 1400POPC   GL221122   7.151   9.176   9.050
 1400POPC   C1A21123   7.470   8.867   8.741
 1400POPC   D2A21124   7.477   8.718   8.328
 1400POPC   C3A21125   7.557   8.949   7.937
 1400POPC   C4A21126   7.534   8.955   7.478
 1400POPC   C1B21127   7.048   9.137   8.630
 1400POPC   C2B21128   7.173   9.142   8.214
 1400POPC   C3B21129   7.100   9.189   7.777
 1400POPC   C4B21130   7.124   9.285   7.330
 1401POPC   NC321131   1.450  35.550   9.477
 1401POPC   PO421132   1.034  35.022   9.471
 1401POPC   GL121133   1.125  35.306   9.154
 1401POPC   GL221134   1.434  35.172   9.115
 1401POPC   C1A21135   1.182  35.492   8.743
 1401POPC   D2A21136   1.120  35.223   8.369
 1401POPC   C3A21137   1.206  35.331   7.973
 1401POPC   C4A21138   0.916  35.507   7.738
 1401POPC   C1B21139   1.420  35.041   8.730
 1401POPC   C2B21140   1.605  35.138   8.347
 1401POPC   C3B21141   1.617  35.040   7.909
 1401POPC   C4B21142   1.620  35.129   7.454
 1402POPC   NC321143  27.952  39.332   9.404
 1402POPC   PO421144  27.454  38.953   9.613
 1402POPC   GL121145  27.519  39.100   9.210
 1402POPC   GL221146  27.470  39.448   9.135
 1402POPC   C1A21147  27.617  39.107   8.777
 1402POPC   D2A21148  27.479  39.212   8.369
 1402POPC   C3A21149  27.259  38.878   8.134
 1402POPC   C4A21150  27.340  38.791   7.700
 1402POPC   C1B21151  27.480  39.691   8.753
 1402POPC   C2B21152  27.748  39.804   8.393
 1402POPC   C3B21153  27.677  39.552   8.043
 1402POPC   C4B21154  27.675  39.145   7.859
 1403POPC   NC321155  42.569  22.565   9.537
 1403POPC   PO421156  42.298  23.254   9.558
 1403POPC   GL121157  42.218  22.945   9.192
 1403POPC   GL221158  42.504  22.801   9.112
 1403POPC   C1A21159  42.160  22.739   8.764
 1403POPC   D2A21160  42.369  22.773   8.345
 1403POPC   C3A21161  42.371  22.984   7.929
 1403POPC   C4A21162  42.027  22.906   7.703
 1403POPC   C1B21163  42.698  22.607   8.801
 1403POPC   C2B21164  42.865  22.657   8.398
 1403POPC   C3B21165  42.737  22.641   7.993
 1403POPC   C4B21166  42.586  22.575   7.580
 1404POPC   NC321167  19.501   1.866   9.257
 1404POPC   PO421168  20.178   1.783   9.527
 1404POPC   GL121169  20.101   1.824   9.103
 1404POPC   GL221170  20.069   2.167   9.138
 1404POPC   C1A21171  19.867   1.861   8.702
 1404POPC   D2A21172  19.535   1.877   8.387
 1404POPC   C3A21173  19.700   2.141   8.070
 1404POPC   C4A21174  19.652   1.955   7.658
 1404POPC   C1B21175  20.315   2.199   8.746
 1404POPC   C2B21176  20.227   2.019   8.354
 1404POPC   C3B21177  20.150   1.936   7.932
 1404POPC   C4B21178  20.134   1.940   7.503
 1405POPC   NC321179   4.977  27.907   9.401
 1405POPC   PO421180   4.697  27.316   9.533
 1405POPC   GL121181   4.959  27.469   9.135
 1405POPC   GL221182   5.303  27.620   9.141
 1405POPC   C1A21183   4.968  27.759   8.750
 1405POPC   D2A21184   5.220  27.832   8.352
 1405POPC   C3A21185   5.007  27.725   7.968
 1405POPC   C4A21186   4.679  27.807   7.647
 1405POPC   C1B21187   5.363  27.429   8.744
 1405POPC   C2B21188   5.472  27.278   8.346
 1405POPC   C3B21189   5.453  27.461   7.946
 1405POPC   C4B21190   5.464  27.841   7.727
 1406POPC   NC321191  21.346  37.286   9.649
 1406POPC   PO421192  21.734  36.776   9.532
 1406POPC   GL121193  21.535  37.016   9.245
 1406POPC   GL221194  21.791  37.116   9.010
 1406POPC   C1A21195  21.268  37.043   8.899
 1406POPC   D2A21196  21.250  37.173   8.472
 1406POPC   C3A21197  21.285  36.999   8.068
 1406POPC   C4A21198  21.609  37.037   7.766
 1406POPC   C1B21199  21.623  36.686   8.869
 1406POPC   C2B21200  21.362  36.623   8.537
 1406POPC   C3B21201  21.384  36.513   8.137
 1406POPC   C4B21202  21.376  36.588   7.740
 1407POPC   NC321203   6.267   8.987   9.492
 1407POPC   PO421204   6.963   9.010   9.488
 1407POPC   GL121205   6.649   9.066   9.149
 1407POPC   GL221206   6.528   8.707   9.174
 1407POPC   C1A21207   6.515   9.160   8.688
 1407POPC   D2A21208   6.682   9.222   8.272
 1407POPC   C3A21209   6.589   9.254   7.823
 1407POPC   C4A21210   6.720   8.996   7.471
 1407POPC   C1B21211   6.783   8.731   8.801
 1407POPC   C2B21212   6.955   8.692   8.381
 1407POPC   C3B21213   6.778   8.792   7.996
 1407POPC   C4B21214   6.659   8.518   7.690
 1408POPC   NC321215  27.809  19.801   9.698
 1408POPC   PO421216  28.440  19.753   9.531
 1408POPC   GL121217  28.486  19.903   9.150
 1408POPC   GL221218  28.176  20.064   9.196
 1408POPC   C1A21219  28.685  19.794   8.756
 1408POPC   D2A21220  28.613  19.520   8.400
 1408POPC   C3A21221  28.708  19.687   8.006
 1408POPC   C4A21222  28.529  19.792   7.629
 1408POPC   C1B21223  28.257  20.146   8.767
 1408POPC   C2B21224  28.168  19.899   8.427
 1408POPC   C3B21225  28.258  19.962   8.023
 1408POPC   C4B21226  28.172  20.220   7.675
 1409POPC   NC321227   8.146  32.698   9.443
 1409POPC   PO421228   8.410  32.039   9.529
 1409POPC   GL121229   8.356  32.233   9.150
 1409POPC   GL221230   8.011  32.261   9.131
 1409POPC   C1A21231   8.289  32.079   8.732
 1409POPC   D2A21232   8.177  32.296   8.379
 1409POPC   C3A21233   8.370  32.138   8.047
 1409POPC   C4A21234   8.266  31.979   7.641
 1409POPC   C1B21235   7.761  32.400   8.785
 1409POPC   C2B21236   7.665  32.418   8.365
 1409POPC   C3B21237   7.845  32.256   7.990
 1409POPC   C4B21238   7.836  32.380   7.580
 1410POPC   NC321239  23.619  24.014   9.582
 1410POPC   PO421240  23.725  24.672   9.677
 1410POPC   GL121241  23.484  24.616   9.265
 1410POPC   GL221242  23.625  24.338   9.161
 1410POPC   C1A21243  23.436  24.724   8.799
 1410POPC   D2A21244  23.560  24.948   8.405
 1410POPC   C3A21245  23.703  24.734   8.047
 1410POPC   C4A21246  24.016  24.823   7.761
 1410POPC   C1B21247  23.556  24.233   8.716
 1410POPC   C2B21248  23.468  24.343   8.278
 1410POPC   C3B21249  23.492  24.238   7.836
 1410POPC   C4B21250  23.595  24.176   7.364
 1411POPC   NC321251  32.783  41.538   9.689
 1411POPC   PO421252  33.258  41.169   9.408
 1411POPC   GL121253  32.907  41.307   9.165
 1411POPC   GL221254  32.862  41.663   9.142
 1411POPC   C1A21255  32.787  41.170   8.742
 1411POPC   D2A21256  32.913  41.432   8.347
 1411POPC   C3A21257  32.977  41.417   7.881
 1411POPC   C4A21258  32.743  41.680   7.554
 1411POPC   C1B21259  33.177  41.500   8.796
 1411POPC   C2B21260  33.418  41.423   8.440
 1411POPC   C3B21261  33.459  41.610   8.035
 1411POPC   C4B21262  33.476  41.358   7.660
 1412POPC   NC321263   9.092  16.414   9.571
 1412POPC   PO421264   8.830  15.798   9.671
 1412POPC   GL121265   9.103  15.976   9.328
 1412POPC   GL221266   8.783  15.963   9.187
 1412POPC   C1A21267   9.186  16.180   8.913
 1412POPC   D2A21268   9.190  15.994   8.491
 1412POPC   C3A21269   9.054  16.201   8.173
 1412POPC   C4A21270   9.016  16.075   7.776
 1412POPC   C1B21271   8.581  15.738   8.870
 1412POPC   C2B21272   8.695  15.888   8.451
 1412POPC   C3B21273   8.607  15.898   8.017
 1412POPC   C4B21274   8.728  15.598   7.691
 1413POPC   NC321275   2.183  20.658   9.730
 1413POPC   PO421276   2.846  20.705   9.507
 1413POPC   GL121277   2.660  20.569   9.140
 1413POPC   GL221278   2.968  20.426   9.061
 1413POPC   C1A21279   2.626  20.597   8.706
 1413POPC   D2A21280   2.336  20.769   8.414
 1413POPC   C3A21281   2.436  20.614   8.028
 1413POPC   C4A21282   2.734  20.591   7.733
 1413POPC   C1B21283   3.120  20.308   8.698
 1413POPC   C2B21284   2.983  20.491   8.316
 1413POPC   C3B21285   3.089  20.292   7.947
 1413POPC   C4B21286   3.123  20.359   7.520
 1414POPC   NC321287  38.860  41.615   9.467
 1414POPC   PO421288  39.501  41.390   9.526
 1414POPC   GL121289  39.315  41.545   9.192
 1414POPC   GL221290  39.212  41.202   9.094
 1414POPC   C1A21291  39.207  41.734   8.793
 1414POPC   D2A21292  39.402  41.765   8.355
 1414POPC   C3A21293  39.069  41.719   8.009
 1414POPC   C4A21294  38.772  41.664   7.645
 1414POPC   C1B21295  39.358  41.251   8.663
 1414POPC   C2B21296  39.281  41.277   8.201
 1414POPC   C3B21297  39.400  41.322   7.764
 1414POPC   C4B21298  39.497  41.308   7.290
 1415POPC   NC321299   2.304   5.924   9.499
 1415POPC   PO421300   1.584   6.083   9.610
 1415POPC   GL121301   1.869   6.107   9.226
 1415POPC   GL221302   1.891   5.746   9.162
 1415POPC   C1A21303   2.060   6.067   8.784
 1415POPC   D2A21304   2.069   5.886   8.352
 1415POPC   C3A21305   2.218   6.136   7.998
 1415POPC   C4A21306   2.453   6.115   7.650
 1415POPC   C1B21307   1.582   5.848   8.821
 1415POPC   C2B21308   1.564   5.941   8.382
 1415POPC   C3B21309   1.726   5.924   7.971
 1415POPC   C4B21310   1.855   5.536   7.832
 1416POPC   NC321311  16.378  23.512   9.395
 1416POPC   PO421312  15.771  23.866   9.504
 1416POPC   GL121313  15.811  23.958   9.106
 1416POPC   GL221314  15.924  23.602   9.088
 1416POPC   C1A21315  15.664  23.962   8.694
 1416POPC   D2A21316  15.778  23.676   8.366
 1416POPC   C3A21317  15.817  23.862   7.960
 1416POPC   C4A21318  16.033  23.857   7.543
 1416POPC   C1B21319  16.053  23.359   8.752
 1416POPC   C2B21320  16.260  23.382   8.365
 1416POPC   C3B21321  16.107  23.447   7.970
 1416POPC   C4B21322  16.137  23.318   7.556
 1417POPC   NC321323  27.445  27.201   9.459
 1417POPC   PO421324  27.808  27.718   9.344
 1417POPC   GL121325  27.719  27.451   9.038
 1417POPC   GL221326  28.063  27.329   9.023
 1417POPC   C1A21327  27.441  27.452   8.638
 1417POPC   D2A21328  27.382  27.287   8.202
 1417POPC   C3A21329  27.438  27.490   7.805
 1417POPC   C4A21330  27.278  27.881   7.600
 1417POPC   C1B21331  28.011  27.616   8.665
 1417POPC   C2B21332  27.818  27.613   8.277
 1417POPC   C3B21333  27.882  27.322   7.979
 1417POPC   C4B21334  27.976  27.349   7.557
 1418POPC   NC321335  32.799  18.755   9.436
 1418POPC   PO421336  33.208  18.160   9.463
 1418POPC   GL121337  33.045  18.418   9.138
 1418POPC   GL221338  33.313  18.538   8.936
 1418POPC   C1A21339  32.862  18.263   8.746
 1418POPC   D2A21340  33.119  18.177   8.390
 1418POPC   C3A21341  32.898  18.030   8.046
 1418POPC   C4A21342  32.874  18.049   7.621
 1418POPC   C1B21343  32.921  18.764   8.749
 1418POPC   C2B21344  32.666  18.641   8.373
 1418POPC   C3B21345  32.681  18.497   7.932
 1418POPC   C4B21346  33.056  18.547   7.677
 1419POPC   NC321347  29.086  10.727   9.511
 1419POPC   PO421348  29.328  10.107   9.337
 1419POPC   GL121349  29.311  10.497   9.099
 1419POPC   GL221350  29.004  10.373   9.044
 1419POPC   C1A21351  29.182  10.758   8.696
 1419POPC   D2A21352  29.195  10.933   8.236
 1419POPC   C3A21353  29.344  10.736   7.818
 1419POPC   C4A21354  29.408  10.954   7.388
 1419POPC   C1B21355  29.188  10.248   8.662
 1419POPC   C2B21356  28.941  10.396   8.325
 1419POPC   C3B21357  28.937  10.465   7.903
 1419POPC   C4B21358  29.180  10.238   7.591
 1420POPC   NC321359   3.471  28.855   9.246
 1420POPC   PO421360   3.511  29.417   9.428
 1420POPC   GL121361   3.731  29.351   9.063
 1420POPC   GL221362   3.969  29.071   9.109
 1420POPC   C1A21363   3.426  29.262   8.735
 1420POPC   D2A21364   3.226  28.926   8.507
 1420POPC   C3A21365   3.135  29.178   8.189
 1420POPC   C4A21366   3.440  29.306   7.900
 1420POPC   C1B21367   3.846  28.982   8.696
 1420POPC   C2B21368   3.735  29.162   8.296
 1420POPC   C3B21369   3.878  28.994   7.893
 1420POPC   C4B21370   3.841  28.561   7.755
 1421POPC   NC321371  24.922  14.313   9.622
 1421POPC   PO421372  24.356  14.414   9.658
 1421POPC   GL121373  24.427  14.380   9.192
 1421POPC   GL221374  24.755  14.232   9.163
 1421POPC   C1A21375  24.639  14.540   8.786
 1421POPC   D2A21376  24.843  14.595   8.372
 1421POPC   C3A21377  24.492  14.532   8.074
 1421POPC   C4A21378  24.319  14.812   7.804
 1421POPC   C1B21379  24.536  14.035   8.822
 1421POPC   C2B21380  24.603  14.144   8.407
 1421POPC   C3B21381  24.642  14.052   7.976
 1421POPC   C4B21382  24.210  14.059   7.749
 1422POPC   NC321383  34.022  39.459   9.524
 1422POPC   PO421384  33.703  38.844   9.513
 1422POPC   GL121385  33.758  39.134   9.165
 1422POPC   GL221386  33.531  39.432   9.135
 1422POPC   C1A21387  33.714  39.204   8.733
 1422POPC   D2A21388  33.918  39.433   8.405
 1422POPC   C3A21389  33.999  39.176   8.032
 1422POPC   C4A21390  33.766  39.099   7.651
 1422POPC   C1B21391  33.262  39.453   8.793
 1422POPC   C2B21392  33.352  39.405   8.401
 1422POPC   C3B21393  33.546  39.394   8.038
 1422POPC   C4B21394  33.639  39.600   7.678
 1423POPC   NC321395  20.131  10.463   9.433
 1423POPC   PO421396  20.776  10.511   9.498
 1423POPC   GL121397  20.525  10.732   9.120
 1423POPC   GL221398  20.312  10.505   8.970
 1423POPC   C1A21399  20.562  10.814   8.656
 1423POPC   D2A21400  20.791  10.567   8.326
 1423POPC   C3A21401  20.806  10.643   7.876
 1423POPC   C4A21402  21.019  10.768   7.459
 1423POPC   C1B21403  20.108  10.344   8.607
 1423POPC   C2B21404  20.308  10.396   8.236
 1423POPC   C3B21405  20.303  10.531   7.849
 1423POPC   C4B21406  20.065  10.365   7.483
 1424POPC   NC321407  37.675  38.867   9.449
 1424POPC   PO421408  37.358  38.306   9.547
 1424POPC   GL121409  37.738  38.287   9.306
 1424POPC   GL221410  37.604  38.520   9.090
 1424POPC   C1A21411  37.830  38.122   8.891
 1424POPC   D2A21412  37.634  38.314   8.511
 1424POPC   C3A21413  37.823  38.100   8.148
 1424POPC   C4A21414  38.109  37.966   7.816
 1424POPC   C1B21415  37.478  38.827   8.787
 1424POPC   C2B21416  37.327  38.723   8.383
 1424POPC   C3B21417  37.562  38.543   8.054
 1424POPC   C4B21418  37.952  38.490   7.836
 1425POPC   NC321419  38.902  28.824   9.641
 1425POPC   PO421420  38.614  29.411   9.558
 1425POPC   GL121421  38.535  29.095   9.209
 1425POPC   GL221422  38.642  28.732   9.211
 1425POPC   C1A21423  38.575  29.154   8.755
 1425POPC   D2A21424  38.460  29.513   8.511
 1425POPC   C3A21425  38.488  29.511   8.095
 1425POPC   C4A21426  38.340  29.407   7.694
 1425POPC   C1B21427  38.272  28.730   8.933
 1425POPC   C2B21428  38.244  28.820   8.509
 1425POPC   C3B21429  38.374  29.018   8.147
 1425POPC   C4B21430  38.427  28.886   7.734
 1426POPC   NC321431  42.450  13.130   9.163
 1426POPC   PO421432  42.086  12.748   9.609
 1426POPC   GL121433  42.204  12.622   9.177
 1426POPC   GL221434  42.507  12.484   9.025
 1426POPC   C1A21435  42.161  12.738   8.734
 1426POPC   D2A21436  42.020  12.532   8.385
 1426POPC   C3A21437  42.333  12.503   8.099
 1426POPC   C4A21438  42.074  12.720   7.807
 1426POPC   C1B21439  42.640  12.576   8.598
 1426POPC   C2B21440  42.562  12.994   8.501
 1426POPC   C3B21441  42.332  13.052   8.147
 1426POPC   C4B21442  42.524  12.927   7.764
 1427POPC   NC321443  39.241  37.599   9.490
 1427POPC   PO421444  38.624  37.709   9.529
 1427POPC   GL121445  38.864  37.701   9.126
 1427POPC   GL221446  39.190  37.829   9.052
 1427POPC   C1A21447  38.946  37.513   8.710
 1427POPC   D2A21448  38.781  37.545   8.301
 1427POPC   C3A21449  39.048  37.581   7.951
 1427POPC   C4A21450  39.109  37.756   7.561
 1427POPC   C1B21451  39.450  37.601   8.796
 1427POPC   C2B21452  39.411  37.479   8.372
 1427POPC   C3B21453  39.503  37.743   8.054
 1427POPC   C4B21454  39.604  37.723   7.636
 1428POPC   NC321455   0.753  28.279   9.542
 1428POPC   PO421456   0.400  28.843   9.533
 1428POPC   GL121457   0.428  28.630   9.148
 1428POPC   GL221458   0.469  28.258   9.116
 1428POPC   C1A21459   0.612  28.629   8.747
 1428POPC   D2A21460   0.359  28.591   8.378
 1428POPC   C3A21461   0.522  28.505   7.979
 1428POPC   C4A21462   0.559  28.696   7.581
 1428POPC   C1B21463   0.225  28.267   8.751
 1428POPC   C2B21464  44.967  28.290   8.393
 1428POPC   C3B21465   0.075  28.192   7.967
 1428POPC   C4B21466   0.211  28.334   7.577
 1429POPC   NC321467  38.142  41.341   9.425
 1429POPC   PO421468  38.498  41.883   9.543
 1429POPC   GL121469  38.443  41.641   9.166
 1429POPC   GL221470  38.181  41.836   9.080
 1429POPC   C1A21471  38.575  41.388   8.788
 1429POPC   D2A21472  38.495  41.161   8.394
 1429POPC   C3A21473  38.579  41.452   8.071
 1429POPC   C4A21474  38.284  41.579   7.746
 1429POPC   C1B21475  38.560  41.955   8.808
 1429POPC   C2B21476  38.698  41.901   8.389
 1429POPC   C3B21477  38.402  41.946   8.068
 1429POPC   C4B21478  38.509  42.093   7.710
 1430POPC   NC321479  28.172  19.365   9.423
 1430POPC   PO421480  28.451  18.770   9.375
 1430POPC   GL121481  28.419  19.086   9.064
 1430POPC   GL221482  28.576  19.409   9.086
 1430POPC   C1A21483  28.411  19.048   8.652
 1430POPC   D2A21484  28.399  18.664   8.429
 1430POPC   C3A21485  28.487  18.663   8.008
 1430POPC   C4A21486  28.171  18.867   7.776
 1430POPC   C1B21487  28.248  19.536   8.792
 1430POPC   C2B21488  28.122  19.373   8.384
 1430POPC   C3B21489  28.249  19.431   7.964
 1430POPC   C4B21490  28.585  19.162   7.833
 1431POPC   NC321491  24.018   6.938   9.373
 1431POPC   PO421492  24.694   6.675   9.439
 1431POPC   GL121493  24.674   6.757   9.035
 1431POPC   GL221494  24.451   7.008   9.105
 1431POPC   C1A21495  24.617   6.487   8.687
 1431POPC   D2A21496  24.413   6.359   8.331
 1431POPC   C3A21497  24.613   6.510   7.978
 1431POPC   C4A21498  24.419   6.547   7.588
 1431POPC   C1B21499  24.277   6.863   8.719
 1431POPC   C2B21500  24.472   6.865   8.331
 1431POPC   C3B21501  24.232   6.864   7.953
 1431POPC   C4B21502  24.349   7.033   7.541
 1432POPC   NC321503  13.159  17.744   9.447
 1432POPC   PO421504  13.818  17.542   9.494
 1432POPC   GL121505  13.566  17.680   9.148
 1432POPC   GL221506  13.547  17.341   9.050
 1432POPC   C1A21507  13.503  17.688   8.686
 1432POPC   D2A21508  13.657  17.430   8.313
 1432POPC   C3A21509  13.597  17.503   7.877
 1432POPC   C4A21510  13.692  17.848   7.620
 1432POPC   C1B21511  13.867  17.238   8.746
 1432POPC   C2B21512  13.901  16.981   8.370
 1432POPC   C3B21513  13.985  17.098   7.931
 1432POPC   C4B21514  13.887  17.253   7.526
 1433POPC   NC321515  28.558  38.545   9.519
 1433POPC   PO421516  28.043  38.166   9.430
 1433POPC   GL121517  28.338  38.202   9.119
 1433POPC   GL221518  28.298  38.539   9.096
 1433POPC   C1A21519  28.291  38.273   8.673
 1433POPC   D2A21520  27.967  38.331   8.380
 1433POPC   C3A21521  28.208  38.482   8.047
 1433POPC   C4A21522  28.327  38.259   7.652
 1433POPC   C1B21523  28.518  38.745   8.776
 1433POPC   C2B21524  28.702  38.606   8.390
 1433POPC   C3B21525  28.689  38.547   7.931
 1433POPC   C4B21526  28.423  38.752   7.592
 1434POPC   NC321527  19.604  33.038   9.057
 1434POPC   PO421528  19.022  33.136   9.478
 1434POPC   GL121529  19.100  32.940   9.098
 1434POPC   GL221530  18.946  32.632   9.081
 1434POPC   C1A21531  19.104  32.881   8.638
 1434POPC   D2A21532  18.945  33.016   8.249
 1434POPC   C3A21533  19.153  33.302   7.997
 1434POPC   C4A21534  19.176  33.246   7.566
 1434POPC   C1B21535  18.842  32.444   8.714
 1434POPC   C2B21536  18.731  32.565   8.327
 1434POPC   C3B21537  18.896  32.631   7.897
 1434POPC   C4B21538  18.894  32.689   7.458
 1435POPC   NC321539  38.608   1.641   9.786
 1435POPC   PO421540  38.286   2.039   9.292
 1435POPC   GL121541  38.485   1.953   8.952
 1435POPC   GL221542  38.807   1.981   9.113
 1435POPC   C1A21543  38.351   1.663   8.647
 1435POPC   D2A21544  38.081   1.729   8.268
 1435POPC   C3A21545  38.384   1.861   7.941
 1435POPC   C4A21546  38.503   2.132   7.601
 1435POPC   C1B21547  38.883   1.910   8.658
 1435POPC   C2B21548  38.728   1.682   8.297
 1435POPC   C3B21549  38.823   1.607   7.866
 1435POPC   C4B21550  38.912   1.840   7.498
 1436POPC   NC321551  26.410  29.320   9.511
 1436POPC   PO421552  26.976  29.036   9.399
 1436POPC   GL121553  26.999  29.281   9.033
 1436POPC   GL221554  26.695  29.343   9.085
 1436POPC   C1A21555  26.936  29.389   8.619
 1436POPC   D2A21556  26.791  29.188   8.285
 1436POPC   C3A21557  27.036  29.323   7.960
 1436POPC   C4A21558  27.035  29.046   7.633
 1436POPC   C1B21559  26.500  29.165   8.736
 1436POPC   C2B21560  26.242  29.375   8.437
 1436POPC   C3B21561  26.240  29.512   8.030
 1436POPC   C4B21562  26.555  29.220   7.811
 1437POPC   NC321563  13.842  43.790   9.319
 1437POPC   PO421564  13.201  43.776   9.313
 1437POPC   GL121565  13.463  43.714   8.986
 1437POPC   GL221566  13.511  43.395   9.168
 1437POPC   C1A21567  13.783  43.843   8.676
 1437POPC   D2A21568  13.676  44.021   8.302
 1437POPC   C3A21569  13.931  44.112   7.976
 1437POPC   C4A21570  13.779  43.862   7.702
 1437POPC   C1B21571  13.348  43.277   8.765
 1437POPC   C2B21572  13.518  43.478   8.402
 1437POPC   C3B21573  13.421  43.643   8.005
 1437POPC   C4B21574  13.466  43.445   7.605
 1438POPC   NC321575  19.696  33.960   9.274
 1438POPC   PO421576  19.962  33.446   9.575
 1438POPC   GL121577  20.105  33.698   9.075
 1438POPC   GL221578  20.136  34.063   9.071
 1438POPC   C1A21579  20.008  33.705   8.602
 1438POPC   D2A21580  19.670  33.842   8.265
 1438POPC   C3A21581  19.633  33.711   7.808
 1438POPC   C4A21582  19.999  33.498   7.575
 1438POPC   C1B21583  19.973  34.214   8.701
 1438POPC   C2B21584  20.117  34.129   8.297
 1438POPC   C3B21585  20.065  33.926   7.922
 1438POPC   C4B21586  20.110  34.008   7.496
 1439POPC   NC321587  18.502   9.077   9.476
 1439POPC   PO421588  18.031   8.590   9.695
 1439POPC   GL121589  18.211   8.683   9.252
 1439POPC   GL221590  18.114   9.020   9.110
 1439POPC   C1A21591  18.386   8.729   8.812
 1439POPC   D2A21592  18.203   8.975   8.471
 1439POPC   C3A21593  18.155   8.826   8.071
 1439POPC   C4A21594  18.443   8.699   7.772
 1439POPC   C1B21595  18.414   9.263   8.844
 1439POPC   C2B21596  18.461   9.416   8.416
 1439POPC   C3B21597  18.387   9.300   7.982
 1439POPC   C4B21598  18.446   9.558   7.660
 1440POPC   NC321599  25.130   6.481   9.520
 1440POPC   PO421600  25.668   6.862   9.564
 1440POPC   GL121601  25.452   6.782   9.169
 1440POPC   GL221602  25.463   6.421   9.115
 1440POPC   C1A21603  25.166   6.778   8.790
 1440POPC   D2A21604  24.973   6.667   8.387
 1440POPC   C3A21605  25.026   6.837   8.004
 1440POPC   C4A21606  25.017   6.555   7.648
 1440POPC   C1B21607  25.556   6.420   8.690
 1440POPC   C2B21608  25.492   6.603   8.317
 1440POPC   C3B21609  25.494   6.685   7.911
 1440POPC   C4B21610  25.371   6.920   7.584
 1441POPC   NC321611  19.284  35.386   9.607
 1441POPC   PO421612  18.683  35.720   9.624
 1441POPC   GL121613  18.816  35.347   9.290
 1441POPC   GL221614  19.169  35.270   9.117
 1441POPC   C1A21615  18.763  35.280   8.823
 1441POPC   D2A21616  18.787  35.553   8.454
 1441POPC   C3A21617  18.878  35.338   8.083
 1441POPC   C4A21618  18.563  35.284   7.759
 1441POPC   C1B21619  19.253  35.517   8.749
 1441POPC   C2B21620  19.259  35.740   8.371
 1441POPC   C3B21621  19.274  35.739   7.940
 1441POPC   C4B21622  19.122  35.541   7.559
 1442POPC   NC321623   5.342  32.031   9.460
 1442POPC   PO421624   4.979  32.576   9.639
 1442POPC   GL121625   4.946  32.306   9.257
 1442POPC   GL221626   5.267  32.378   9.081
 1442POPC   C1A21627   4.902  32.147   8.813
 1442POPC   D2A21628   5.078  32.233   8.419
 1442POPC   C3A21629   4.862  32.072   8.044
 1442POPC   C4A21630   4.836  32.301   7.676
 1442POPC   C1B21631   5.442  32.077   8.784
 1442POPC   C2B21632   5.566  32.036   8.366
 1442POPC   C3B21633   5.378  32.199   8.011
 1442POPC   C4B21634   5.254  32.018   7.690
 1443POPC   NC321635  43.507  16.690   9.453
 1443POPC   PO421636  44.200  16.590   9.464
 1443POPC   GL121637  44.020  16.726   9.075
 1443POPC   GL221638  43.773  16.534   9.055
 1443POPC   C1A21639  43.779  16.876   8.674
 1443POPC   D2A21640  43.756  16.681   8.244
 1443POPC   C3A21641  43.723  16.934   7.862
 1443POPC   C4A21642  43.851  17.041   7.429
 1443POPC   C1B21643  43.992  16.400   8.689
 1443POPC   C2B21644  44.135  16.275   8.320
 1443POPC   C3B21645  44.154  16.379   7.905
 1443POPC   C4B21646  43.984  16.591   7.587
 1444POPC   NC321647  44.117  32.375   9.509
 1444POPC   PO421648  43.652  31.847   9.558
 1444POPC   GL121649  43.879  32.009   9.204
 1444POPC   GL221650  43.763  32.368   9.147
 1444POPC   C1A21651  44.049  32.097   8.796
 1444POPC   D2A21652  43.859  32.245   8.422
 1444POPC   C3A21653  43.984  32.104   8.047
 1444POPC   C4A21654  43.917  32.043   7.638
 1444POPC   C1B21655  43.549  32.576   8.807
 1444POPC   C2B21656  43.668  32.734   8.403
 1444POPC   C3B21657  43.654  32.514   8.009
 1444POPC   C4B21658  43.644  32.465   7.559
 1445POPC   NC321659  39.721  25.443   9.508
 1445POPC   PO421660  40.294  25.081   9.525
 1445POPC   GL121661  40.052  25.232   9.183
 1445POPC   GL221662  39.745  25.001   9.210
 1445POPC   C1A21663  40.018  25.552   8.846
 1445POPC   D2A21664  40.122  25.359   8.455
 1445POPC   C3A21665  39.930  25.493   8.094
 1445POPC   C4A21666  40.057  25.394   7.698
 1445POPC   C1B21667  39.710  25.138   8.782
 1445POPC   C2B21668  39.721  25.034   8.341
 1445POPC   C3B21669  39.865  25.001   7.934
 1445POPC   C4B21670  39.710  25.118   7.463
 1446POPC   NC321671  40.983  32.384   9.451
 1446POPC   PO421672  40.809  31.741   9.713
 1446POPC   GL121673  40.643  32.084   9.267
 1446POPC   GL221674  40.616  31.950   8.986
 1446POPC   C1A21675  40.715  32.417   8.843
 1446POPC   D2A21676  40.686  32.663   8.417
 1446POPC   C3A21677  40.870  32.564   7.984
 1446POPC   C4A21678  40.738  32.472   7.522
 1446POPC   C1B21679  40.902  31.985   8.636
 1446POPC   C2B21680  40.965  32.127   8.231
 1446POPC   C3B21681  40.738  32.094   7.862
 1446POPC   C4B21682  40.997  32.032   7.554
 1447POPC   NC321683  19.825  38.139   9.509
 1447POPC   PO421684  19.496  38.573   9.421
 1447POPC   GL121685  19.916  38.477   9.133
 1447POPC   GL221686  19.950  38.121   9.013
 1447POPC   C1A21687  20.133  38.505   8.709
 1447POPC   D2A21688  19.920  38.619   8.311
 1447POPC   C3A21689  19.997  38.455   7.907
 1447POPC   C4A21690  20.185  38.717   7.671
 1447POPC   C1B21691  19.706  38.239   8.639
 1447POPC   C2B21692  19.631  38.198   8.187
 1447POPC   C3B21693  19.507  38.361   7.793
 1447POPC   C4B21694  19.268  38.386   7.409
 1448POPC   NC321695  40.563  17.006   9.492
 1448POPC   PO421696  41.074  16.588   9.476
 1448POPC   GL121697  40.788  16.621   9.164
 1448POPC   GL221698  40.658  16.326   9.218
 1448POPC   C1A21699  40.615  16.822   8.814
 1448POPC   D2A21700  40.678  17.042   8.436
 1448POPC   C3A21701  40.563  16.971   8.053
 1448POPC   C4A21702  40.960  16.927   7.846
 1448POPC   C1B21703  40.593  16.294   8.777
 1448POPC   C2B21704  40.508  16.552   8.395
 1448POPC   C3B21705  40.634  16.486   7.946
 1448POPC   C4B21706  40.442  16.349   7.559
 1449POPC   NC321707   0.041  34.352   9.567
 1449POPC   PO421708   0.406  34.978   9.541
 1449POPC   GL121709   0.347  34.838   9.182
 1449POPC   GL221710   0.355  34.525   9.179
 1449POPC   C1A21711   0.457  34.854   8.789
 1449POPC   D2A21712   0.252  34.980   8.439
 1449POPC   C3A21713   0.229  34.638   8.164
 1449POPC   C4A21714   0.456  34.682   7.785
 1449POPC   C1B21715   0.680  34.394   8.892
 1449POPC   C2B21716   0.639  34.447   8.473
 1449POPC   C3B21717   0.616  34.292   8.077
 1449POPC   C4B21718   0.315  34.185   7.769
 1450POPC   NC321719  26.646  18.012   9.386
 1450POPC   PO421720  27.067  18.543   9.511
 1450POPC   GL121721  27.016  18.307   9.153
 1450POPC   GL221722  26.702  18.395   9.054
 1450POPC   C1A21723  27.071  18.268   8.691
 1450POPC   D2A21724  27.061  18.067   8.231
 1450POPC   C3A21725  26.933  18.238   7.793
 1450POPC   C4A21726  27.084  18.381   7.348
 1450POPC   C1B21727  26.557  18.131   8.739
 1450POPC   C2B21728  26.603  17.869   8.418
 1450POPC   C3B21729  26.540  18.014   8.014
 1450POPC   C4B21730  26.352  18.285   7.737
 1451POPC   NC321731  37.261  28.316   9.473
 1451POPC   PO421732  36.585  28.560   9.571
 1451POPC   GL121733  36.776  28.635   9.169
 1451POPC   GL221734  37.137  28.690   9.122
 1451POPC   C1A21735  36.824  28.452   8.753
 1451POPC   D2A21736  36.989  28.138   8.455
 1451POPC   C3A21737  36.718  28.146   8.095
 1451POPC   C4A21738  36.743  28.423   7.758
 1451POPC   C1B21739  37.334  28.370   8.826
 1451POPC   C2B21740  37.426  28.426   8.405
 1451POPC   C3B21741  37.178  28.491   8.044
 1451POPC   C4B21742  37.150  28.110   7.821
 1452POPC   NC321743  42.557  41.912   9.365
 1452POPC   PO421744  42.201  42.581   9.316
 1452POPC   GL121745  42.384  42.361   9.051
 1452POPC   GL221746  42.252  42.045   8.985
 1452POPC   C1A21747  42.377  42.521   8.628
 1452POPC   D2A21748  42.161  42.508   8.244
 1452POPC   C3A21749  42.486  42.543   7.867
 1452POPC   C4A21750  42.627  42.551   7.401
 1452POPC   C1B21751  42.618  42.064   8.708
 1452POPC   C2B21752  42.594  42.231   8.287
 1452POPC   C3B21753  42.295  42.094   7.977
 1452POPC   C4B21754  42.531  42.048   7.649
 1453POPC   NC321755   0.125  10.951   9.470
 1453POPC   PO421756   0.571  11.411   9.314
 1453POPC   GL121757   0.405  11.094   9.053
 1453POPC   GL221758   0.037  11.149   9.014
 1453POPC   C1A21759   0.469  11.084   8.607
 1453POPC   D2A21760   0.695  11.245   8.228
 1453POPC   C3A21761   0.437  11.262   7.865
 1453POPC   C4A21762   0.291  11.616   7.582
 1453POPC   C1B21763   0.160  11.501   8.778
 1453POPC   C2B21764   0.304  11.557   8.370
 1453POPC   C3B21765   0.038  11.562   8.010
 1453POPC   C4B21766  44.916  11.140   7.857
 1454POPC   NC321767   0.296   9.501   9.603
 1454POPC   PO421768   0.768   9.993   9.503
 1454POPC   GL121769   0.609   9.759   9.171
 1454POPC   GL221770   0.279   9.746   9.142
 1454POPC   C1A21771   0.671   9.596   8.766
 1454POPC   D2A21772   0.493   9.748   8.371
 1454POPC   C3A21773   0.721   9.696   7.992
 1454POPC   C4A21774   0.623   9.873   7.577
 1454POPC   C1B21775   0.086   9.716   8.739
 1454POPC   C2B21776  44.983   9.938   8.352
 1454POPC   C3B21777   0.132   9.906   7.925
 1454POPC   C4B21778   0.302   9.525   7.762
 1455POPC   NC321779  40.280   2.887   9.802
 1455POPC   PO421780  40.372   3.087   9.223
 1455POPC   GL121781  40.025   2.802   9.116
 1455POPC   GL221782  39.788   3.008   9.080
 1455POPC   C1A21783  40.120   2.600   8.737
 1455POPC   D2A21784  40.364   2.810   8.408
 1455POPC   C3A21785  40.227   2.728   8.039
 1455POPC   C4A21786  40.177   2.812   7.654
 1455POPC   C1B21787  39.963   3.077   8.674
 1455POPC   C2B21788  39.824   2.749   8.365
 1455POPC   C3B21789  39.727   2.853   7.969
 1455POPC   C4B21790  39.578   3.239   7.803
 1456POPC   NC321791  27.039   2.730   9.764
 1456POPC   PO421792  26.694   3.268   9.662
 1456POPC   GL121793  26.953   3.037   9.339
 1456POPC   GL221794  26.751   2.775   9.227
 1456POPC   C1A21795  27.062   2.997   8.887
 1456POPC   D2A21796  26.923   2.712   8.530
 1456POPC   C3A21797  27.019   2.802   8.077
 1456POPC   C4A21798  27.300   2.863   7.722
 1456POPC   C1B21799  26.523   2.917   8.826
 1456POPC   C2B21800  26.520   2.974   8.347
 1456POPC   C3B21801  26.553   2.617   8.036
 1456POPC   C4B21802  26.406   2.508   7.602
 1457POPC   NC321803  24.105  32.599   9.432
 1457POPC   PO421804  24.558  32.277   9.754
 1457POPC   GL121805  24.516  32.217   9.288
 1457POPC   GL221806  24.175  32.170   9.129
 1457POPC   C1A21807  24.579  32.103   8.843
 1457POPC   D2A21808  24.364  32.336   8.523
 1457POPC   C3A21809  24.504  32.614   8.171
 1457POPC   C4A21810  24.339  32.618   7.752
 1457POPC   C1B21811  23.936  32.154   8.736
 1457POPC   C2B21812  23.953  32.134   8.308
 1457POPC   C3B21813  24.310  32.139   8.039
 1457POPC   C4B21814  24.309  32.153   7.592
 1458POPC   NC321815   6.350  41.049   9.417
 1458POPC   PO421816   6.842  40.580   9.475
 1458POPC   GL121817   6.691  40.749   9.136
 1458POPC   GL221818   6.388  40.595   9.124
 1458POPC   C1A21819   6.575  40.975   8.763
 1458POPC   D2A21820   6.756  41.058   8.362
 1458POPC   C3A21821   6.877  40.739   8.125
 1458POPC   C4A21822   6.832  40.843   7.732
 1458POPC   C1B21823   6.517  40.457   8.749
 1458POPC   C2B21824   6.431  40.620   8.364
 1458POPC   C3B21825   6.379  40.619   7.947
 1458POPC   C4B21826   6.195  40.387   7.650
 1459POPC   NC321827  39.452   3.235   9.365
 1459POPC   PO421828  39.299   3.692   9.830
 1459POPC   GL121829  39.387   3.724   9.291
 1459POPC   GL221830  39.211   3.474   9.019
 1459POPC   C1A21831  39.361   3.866   8.784
 1459POPC   D2A21832  39.255   3.570   8.414
 1459POPC   C3A21833  39.272   3.683   7.990
 1459POPC   C4A21834  39.551   3.888   7.737
 1459POPC   C1B21835  39.474   3.219   8.726
 1459POPC   C2B21836  39.589   3.191   8.335
 1459POPC   C3B21837  39.245   3.078   8.148
 1459POPC   C4B21838  39.079   3.251   7.811
 1460POPC   NC321839   0.947   2.406   9.726
 1460POPC   PO421840   1.364   1.912   9.696
 1460POPC   GL121841   1.480   1.821   9.231
 1460POPC   GL221842   1.182   1.713   9.204
 1460POPC   C1A21843   1.396   2.035   8.807
 1460POPC   D2A21844   1.074   2.096   8.467
 1460POPC   C3A21845   1.249   2.116   8.056
 1460POPC   C4A21846   1.410   2.267   7.675
 1460POPC   C1B21847   1.055   1.648   8.802
 1460POPC   C2B21848   1.207   1.602   8.406
 1460POPC   C3B21849   0.997   1.671   8.020
 1460POPC   C4B21850   0.990   1.931   7.655
 1461POPC   NC321851   4.303  28.875   9.446
 1461POPC   PO421852   4.263  29.533   9.402
 1461POPC   GL121853   4.448  29.271   9.093
 1461POPC   GL221854   4.655  28.963   9.073
 1461POPC   C1A21855   4.448  29.419   8.671
 1461POPC   D2A21856   4.332  29.552   8.250
 1461POPC   C3A21857   4.406  29.227   7.947
 1461POPC   C4A21858   4.232  29.263   7.546
 1461POPC   C1B21859   4.395  28.916   8.709
 1461POPC   C2B21860   4.167  28.758   8.358
 1461POPC   C3B21861   4.313  28.690   7.964
 1461POPC   C4B21862   4.409  28.793   7.567
 1462POPC   NC321863  44.044   8.595   9.593
 1462POPC   PO421864  43.430   8.380   9.640
 1462POPC   GL121865  43.676   8.198   9.255
 1462POPC   GL221866  43.940   8.388   9.117
 1462POPC   C1A21867  43.698   8.099   8.768
 1462POPC   D2A21868  43.876   7.851   8.395
 1462POPC   C3A21869  43.768   7.964   7.966
 1462POPC   C4A21870  43.576   8.326   7.801
 1462POPC   C1B21871  44.203   8.074   8.848
 1462POPC   C2B21872  44.344   8.130   8.423
 1462POPC   C3B21873  44.231   8.226   7.993
 1462POPC   C4B21874  44.229   7.874   7.720
 1463POPC   NC321875  12.821   3.785   9.584
 1463POPC   PO421876  13.008   3.185   9.806
 1463POPC   GL121877  12.947   3.189   9.307
 1463POPC   GL221878  12.719   3.460   9.201
 1463POPC   C1A21879  12.779   3.137   8.827
 1463POPC   D2A21880  12.635   3.287   8.395
 1463POPC   C3A21881  12.919   3.480   8.041
 1463POPC   C4A21882  13.265   3.617   7.744
 1463POPC   C1B21883  12.920   3.631   8.809
 1463POPC   C2B21884  13.037   3.816   8.387
 1463POPC   C3B21885  12.959   3.979   7.919
 1463POPC   C4B21886  12.911   3.878   7.427
 1464POPC   NC321887  39.058  31.293   9.769
 1464POPC   PO421888  39.201  31.669   9.215
 1464POPC   GL121889  39.437  31.668   8.923
 1464POPC   GL221890  39.717  31.452   9.088
 1464POPC   C1A21891  39.205  31.545   8.532
 1464POPC   D2A21892  39.045  31.268   8.230
 1464POPC   C3A21893  38.992  31.523   7.902
 1464POPC   C4A21894  38.987  31.356   7.503
 1464POPC   C1B21895  39.568  31.245   8.698
 1464POPC   C2B21896  39.548  31.228   8.245
 1464POPC   C3B21897  39.407  31.256   7.843
 1464POPC   C4B21898  39.472  31.196   7.412
 1465POPC   NC321899   1.516  14.424   9.671
 1465POPC   PO421900   0.959  14.612   9.508
 1465POPC   GL121901   1.187  14.334   9.212
 1465POPC   GL221902   1.015  14.019   9.115
 1465POPC   C1A21903   1.241  14.338   8.746
 1465POPC   D2A21904   1.069  14.601   8.414
 1465POPC   C3A21905   1.097  14.506   7.971
 1465POPC   C4A21906   0.816  14.450   7.657
 1465POPC   C1B21907   1.006  13.884   8.669
 1465POPC   C2B21908   1.135  14.063   8.258
 1465POPC   C3B21909   1.148  14.028   7.792
 1465POPC   C4B21910   1.227  13.829   7.382
 1466POPC   NC321911  11.413  10.983   9.565
 1466POPC   PO421912  11.089  10.332   9.598
 1466POPC   GL121913  11.310  10.319   9.223
 1466POPC   GL221914  11.301  10.658   9.192
 1466POPC   C1A21915  11.156  10.308   8.808
 1466POPC   D2A21916  11.185  10.611   8.502
 1466POPC   C3A21917  11.295  10.439   8.109
 1466POPC   C4A21918  11.111  10.371   7.689
 1466POPC   C1B21919  11.572  10.619   8.853
 1466POPC   C2B21920  11.640  10.846   8.466
 1466POPC   C3B21921  11.802  10.835   8.063
 1466POPC   C4B21922  11.597  10.597   7.729
 1467POPC   NC321923  15.377  24.127   9.344
 1467POPC   PO421924  15.178  24.812   9.595
 1467POPC   GL121925  15.199  24.628   9.127
 1467POPC   GL221926  14.899  24.482   9.079
 1467POPC   C1A21927  15.245  24.327   8.733
 1467POPC   D2A21928  14.927  24.258   8.393
 1467POPC   C3A21929  15.019  24.446   7.991
 1467POPC   C4A21930  15.197  24.362   7.566
 1467POPC   C1B21931  14.927  24.723   8.677
 1467POPC   C2B21932  14.658  24.703   8.316
 1467POPC   C3B21933  14.642  24.806   7.893
 1467POPC   C4B21934  14.932  24.815   7.555
 1468POPC   NC321935  24.052  31.797   9.585
 1468POPC   PO421936  23.434  31.387   9.620
 1468POPC   GL121937  23.619  31.679   9.324
 1468POPC   GL221938  23.860  31.429   9.244
 1468POPC   C1A21939  23.659  31.749   8.866
 1468POPC   D2A21940  23.537  31.862   8.433
 1468POPC   C3A21941  23.788  31.715   8.081
 1468POPC   C4A21942  23.914  31.356   7.862
 1468POPC   C1B21943  23.864  31.276   8.817
 1468POPC   C2B21944  23.997  31.349   8.394
 1468POPC   C3B21945  24.285  31.121   8.112
 1468POPC   C4B21946  24.172  30.868   7.742
 1469POPC   NC321947  31.940  23.977   9.400
 1469POPC   PO421948  31.295  23.643   9.535
 1469POPC   GL121949  31.461  23.928   9.245
 1469POPC   GL221950  31.637  23.632   9.117
 1469POPC   C1A21951  31.558  24.023   8.822
 1469POPC   D2A21952  31.592  23.683   8.538
 1469POPC   C3A21953  31.467  23.854   8.182
 1469POPC   C4A21954  31.607  24.138   7.855
 1469POPC   C1B21955  31.294  23.404   8.909
 1469POPC   C2B21956  31.228  23.279   8.460
 1469POPC   C3B21957  31.198  23.442   8.047
 1469POPC   C4B21958  31.425  23.654   7.726
 1470POPC   NC321959  22.298  39.648   9.451
 1470POPC   PO421960  21.885  39.057   9.475
 1470POPC   GL121961  22.218  38.987   9.179
 1470POPC   GL221962  22.467  39.224   9.154
 1470POPC   C1A21963  22.305  38.979   8.748
 1470POPC   D2A21964  21.914  38.902   8.477
 1470POPC   C3A21965  21.932  39.075   8.083
 1470POPC   C4A21966  22.073  39.189   7.742
 1470POPC   C1B21967  22.376  39.479   8.792
 1470POPC   C2B21968  22.288  39.293   8.368
 1470POPC   C3B21969  22.487  39.353   7.990
 1470POPC   C4B21970  22.439  39.496   7.565
 1471POPC   NC321971  44.140  34.705   9.763
 1471POPC   PO421972  43.826  34.259   9.565
 1471POPC   GL121973  44.027  34.437   9.180
 1471POPC   GL221974  44.195  34.741   9.240
 1471POPC   C1A21975  43.918  34.308   8.742
 1471POPC   D2A21976  43.821  34.307   8.292
 1471POPC   C3A21977  43.931  34.092   7.912
 1471POPC   C4A21978  43.804  34.372   7.619
 1471POPC   C1B21979  44.182  34.748   8.765
 1471POPC   C2B21980  44.225  34.682   8.308
 1471POPC   C3B21981  44.171  34.709   7.849
 1471POPC   C4B21982  44.146  35.060   7.546
 1472POPC   NC321983  35.151  12.916   9.648
 1472POPC   PO421984  35.702  12.545   9.574
 1472POPC   GL121985  35.452  12.775   9.223
 1472POPC   GL221986  35.118  12.649   9.160
 1472POPC   C1A21987  35.326  12.904   8.772
 1472POPC   D2A21988  35.119  13.097   8.399
 1472POPC   C3A21989  35.353  13.084   8.031
 1472POPC   C4A21990  35.244  13.052   7.612
 1472POPC   C1B21991  35.095  12.420   8.758
 1472POPC   C2B21992  35.229  12.547   8.319
 1472POPC   C3B21993  35.411  12.564   7.879
 1472POPC   C4B21994  35.463  12.650   7.412
 1473POPC   NC321995  12.400  44.991   9.408
 1473POPC   PO421996  12.044   0.630   9.517
 1473POPC   GL121997  12.231   0.478   9.142
 1473POPC   GL221998  12.446   0.752   9.035
 1473POPC   C1A21999  12.090   0.324   8.728
 1473POPC   D2A22000  11.885   0.390   8.325
 1473POPC   C3A22001  12.126   0.194   7.952
 1473POPC   C4A22002  11.920   0.150   7.526
 1473POPC   C1B22003  12.315   0.848   8.617
 1473POPC   C2B22004  12.316   0.639   8.218
 1473POPC   C3B22005  12.035   0.696   7.869
 1473POPC   C4B22006  11.978   0.647   7.413
 1474POPC   NC322007  28.179  40.978   9.491
 1474POPC   PO422008  28.703  40.534   9.531
 1474POPC   GL122009  28.564  40.796   9.199
 1474POPC   GL222010  28.271  40.640   9.131
 1474POPC   C1A22011  28.539  40.771   8.726
 1474POPC   D2A22012  28.435  40.595   8.320
 1474POPC   C3A22013  28.631  40.784   7.938
 1474POPC   C4A22014  28.634  40.711   7.468
 1474POPC   C1B22015  28.059  40.925   8.845
 1474POPC   C2B22016  28.219  41.070   8.448
 1474POPC   C3B22017  28.093  40.908   8.060
 1474POPC   C4B22018  28.230  40.925   7.668
 1475POPC   NC322019   2.106  32.504   9.411
 1475POPC   PO422020   1.839  31.893   9.354
 1475POPC   GL122021   1.854  32.187   9.075
 1475POPC   GL222022   2.206  32.173   9.017
 1475POPC   C1A22023   1.786  32.073   8.683
 1475POPC   D2A22024   1.773  32.293   8.344
 1475POPC   C3A22025   1.938  32.086   8.015
 1475POPC   C4A22026   1.749  32.161   7.636
 1475POPC   C1B22027   2.146  32.454   8.659
 1475POPC   C2B22028   2.132  32.625   8.212
 1475POPC   C3B22029   2.060  32.535   7.785
 1475POPC   C4B22030   2.261  32.443   7.399
 1476POPC   NC322031  12.650   1.602   9.758
 1476POPC   PO422032  12.795   2.241   9.455
 1476POPC   GL122033  12.761   2.226   9.026
 1476POPC   GL222034  12.476   2.020   9.070
 1476POPC   C1A22035  12.560   2.322   8.615
 1476POPC   D2A22036  12.441   2.144   8.182
 1476POPC   C3A22037  12.740   2.136   7.806
 1476POPC   C4A22038  12.693   2.359   7.374
 1476POPC   C1B22039  12.674   1.841   8.688
 1476POPC   C2B22040  12.909   1.968   8.332
 1476POPC   C3B22041  13.117   1.850   7.971
 1476POPC   C4B22042  12.983   1.774   7.506
 1477POPC   NC322043  12.950  18.529   9.478
 1477POPC   PO422044  12.400  17.958   9.497
 1477POPC   GL122045  12.690  18.187   9.185
 1477POPC   GL222046  12.639  18.536   9.053
 1477POPC   C1A22047  12.907  18.100   8.786
 1477POPC   D2A22048  12.749  17.983   8.392
 1477POPC   C3A22049  12.963  18.138   8.094
 1477POPC   C4A22050  12.976  17.913   7.744
 1477POPC   C1B22051  13.056  18.582   8.851
 1477POPC   C2B22052  13.216  18.553   8.439
 1477POPC   C3B22053  13.051  18.650   8.075
 1477POPC   C4B22054  12.894  18.691   7.693
 1478POPC   NC322055  23.441   6.657   9.505
 1478POPC   PO422056  24.047   6.407   9.467
 1478POPC   GL122057  24.039   6.547   9.066
 1478POPC   GL222058  23.688   6.557   9.016
 1478POPC   C1A22059  24.066   6.412   8.687
 1478POPC   D2A22060  23.882   6.496   8.301
 1478POPC   C3A22061  24.032   6.414   7.923
 1478POPC   C4A22062  23.916   6.467   7.523
 1478POPC   C1B22063  23.689   6.825   8.638
 1478POPC   C2B22064  23.550   6.911   8.196
 1478POPC   C3B22065  23.704   6.885   7.751
 1478POPC   C4B22066  23.886   7.054   7.337
 1479POPC   NC322067   1.098   8.941   9.618
 1479POPC   PO422068   1.341   8.461   9.294
 1479POPC   GL122069   1.140   8.821   9.095
 1479POPC   GL222070   0.806   8.849   9.225
 1479POPC   C1A22071   0.918   9.148   8.809
 1479POPC   D2A22072   0.837   9.294   8.349
 1479POPC   C3A22073   1.124   9.136   8.004
 1479POPC   C4A22074   1.502   9.257   7.762
 1479POPC   C1B22075   0.698   8.691   8.830
 1479POPC   C2B22076   0.926   8.782   8.446
 1479POPC   C3B22077   0.780   8.777   8.064
 1479POPC   C4B22078   0.968   8.771   7.663
 1480POPC   NC322079   2.939  29.281   9.535
 1480POPC   PO422080   2.366  29.493   9.242
 1480POPC   GL122081   2.602  29.212   9.080
 1480POPC   GL222082   2.868  29.442   9.039
 1480POPC   C1A22083   2.757  29.047   8.703
 1480POPC   D2A22084   2.619  28.799   8.372
 1480POPC   C3A22085   2.877  28.772   8.053
 1480POPC   C4A22086   3.012  28.996   7.720
 1480POPC   C1B22087   2.641  29.658   8.690
 1480POPC   C2B22088   2.713  29.449   8.319
 1480POPC   C3B22089   2.596  29.203   7.968
 1480POPC   C4B22090   2.613  29.374   7.523
 1481POPC   NC322091   7.717   7.218   9.640
 1481POPC   PO422092   7.120   7.387   9.553
 1481POPC   GL122093   7.417   7.464   9.204
 1481POPC   GL222094   7.140   7.496   9.017
 1481POPC   C1A22095   7.575   7.411   8.758
 1481POPC   D2A22096   7.804   7.298   8.349
 1481POPC   C3A22097   7.646   7.372   7.937
 1481POPC   C4A22098   7.335   7.455   7.662
 1481POPC   C1B22099   7.079   7.428   8.581
 1481POPC   C2B22100   7.183   7.306   8.158
 1481POPC   C3B22101   6.963   7.148   7.781
 1481POPC   C4B22102   7.226   6.992   7.420
 1482POPC   NC322103  23.656  40.822   9.589
 1482POPC   PO422104  24.107  40.407   9.466
 1482POPC   GL122105  23.845  40.615   9.161
 1482POPC   GL222106  23.514  40.500   9.186
 1482POPC   C1A22107  23.823  40.736   8.745
 1482POPC   D2A22108  24.188  40.876   8.494
 1482POPC   C3A22109  24.136  40.910   8.029
 1482POPC   C4A22110  23.957  40.933   7.600
 1482POPC   C1B22111  23.511  40.276   8.778
 1482POPC   C2B22112  23.616  40.280   8.311
 1482POPC   C3B22113  23.767  40.547   7.946
 1482POPC   C4B22114  23.641  40.562   7.480
 1483POPC   NC322115  12.692  16.866   9.555
 1483POPC   PO422116  13.046  16.409   9.470
 1483POPC   GL122117  13.010  16.729   9.141
 1483POPC   GL222118  12.723  17.003   9.082
 1483POPC   C1A22119  12.793  16.573   8.792
 1483POPC   D2A22120  12.675  16.660   8.401
 1483POPC   C3A22121  13.017  16.678   8.132
 1483POPC   C4A22122  12.732  16.598   7.805
 1483POPC   C1B22123  12.940  17.058   8.733
 1483POPC   C2B22124  12.911  17.161   8.335
 1483POPC   C3B22125  12.722  17.082   7.996
 1483POPC   C4B22126  13.014  17.007   7.712
 1484POPC   NC322127  38.785   4.449   9.304
 1484POPC   PO422128  38.263   4.061   9.555
 1484POPC   GL122129  38.300   4.194   9.164
 1484POPC   GL222130  38.592   4.046   9.069
 1484POPC   C1A22131  38.195   4.407   8.783
 1484POPC   D2A22132  38.075   4.602   8.408
 1484POPC   C3A22133  38.331   4.630   8.026
 1484POPC   C4A22134  38.224   4.345   7.725
 1484POPC   C1B22135  38.511   4.020   8.682
 1484POPC   C2B22136  38.427   4.182   8.305
 1484POPC   C3B22137  38.635   4.141   7.943
 1484POPC   C4B22138  38.745   4.497   7.722
 1485POPC   NC322139  18.581  31.013   9.547
 1485POPC   PO422140  17.972  30.855   9.535
 1485POPC   GL122141  18.204  30.832   9.170
 1485POPC   GL222142  18.329  31.139   9.128
 1485POPC   C1A22143  18.262  30.725   8.745
 1485POPC   D2A22144  18.110  30.931   8.372
 1485POPC   C3A22145  18.294  30.840   7.990
 1485POPC   C4A22146  18.091  30.784   7.593
 1485POPC   C1B22147  18.648  31.091   8.842
 1485POPC   C2B22148  18.683  31.215   8.421
 1485POPC   C3B22149  18.702  31.171   7.979
 1485POPC   C4B22150  18.602  30.968   7.607
 1486POPC   NC322151  11.483  42.977   9.827
 1486POPC   PO422152  10.986  43.386   9.545
 1486POPC   GL122153  11.195  43.220   9.205
 1486POPC   GL222154  11.492  43.065   9.301
 1486POPC   C1A22155  11.081  43.102   8.786
 1486POPC   D2A22156  10.785  43.190   8.440
 1486POPC   C3A22157  11.042  43.131   8.089
 1486POPC   C4A22158  11.116  43.285   7.708
 1486POPC   C1B22159  11.571  43.010   8.866
 1486POPC   C2B22160  11.439  42.982   8.409
 1486POPC   C3B22161  11.555  43.129   7.968
 1486POPC   C4B22162  11.711  43.122   7.540
 1487POPC   NC322163   3.005  34.765   9.498
 1487POPC   PO422164   2.648  34.143   9.589
 1487POPC   GL122165   2.814  34.330   9.204
 1487POPC   GL222166   2.659  34.669   9.115
 1487POPC   C1A22167   2.958  34.442   8.775
 1487POPC   D2A22168   2.949  34.851   8.533
 1487POPC   C3A22169   2.936  34.822   8.065
 1487POPC   C4A22170   2.888  34.544   7.717
 1487POPC   C1B22171   2.455  34.518   8.715
 1487POPC   C2B22172   2.598  34.417   8.280
 1487POPC   C3B22173   2.394  34.413   7.857
 1487POPC   C4B22174   2.457  34.688   7.485
 1488POPC   NC322175  37.471  33.029   9.405
 1488POPC   PO422176  37.922  33.502   9.464
 1488POPC   GL122177  37.687  33.365   9.088
 1488POPC   GL222178  37.794  32.987   9.025
 1488POPC   C1A22179  37.565  33.220   8.647
 1488POPC   D2A22180  37.741  32.903   8.370
 1488POPC   C3A22181  37.575  32.985   7.956
 1488POPC   C4A22182  37.507  33.373   7.721
 1488POPC   C1B22183  38.105  33.232   8.819
 1488POPC   C2B22184  38.261  33.240   8.422
 1488POPC   C3B22185  38.070  33.119   8.048
 1488POPC   C4B22186  38.004  32.697   7.928
 1489POPC   NC322187  40.294  28.073   9.422
 1489POPC   PO422188  39.942  28.650   9.369
 1489POPC   GL122189  39.945  28.294   9.065
 1489POPC   GL222190  40.233  28.108   8.922
 1489POPC   C1A22191  39.780  28.150   8.666
 1489POPC   D2A22192  39.565  28.081   8.283
 1489POPC   C3A22193  39.838  28.241   7.961
 1489POPC   C4A22194  39.879  28.640   7.815
 1489POPC   C1B22195  40.217  28.424   8.610
 1489POPC   C2B22196  40.208  28.687   8.227
 1489POPC   C3B22197  40.381  28.478   7.869
 1489POPC   C4B22198  40.302  28.011   7.803
 1490POPC   NC322199  14.620  13.672   9.377
 1490POPC   PO422200  14.072  13.795   9.729
 1490POPC   GL122201  14.165  13.773   9.194
 1490POPC   GL222202  14.045  13.971   8.999
 1490POPC   C1A22203  14.369  13.658   8.749
 1490POPC   D2A22204  14.600  13.484   8.388
 1490POPC   C3A22205  14.457  13.545   7.973
 1490POPC   C4A22206  14.518  13.859   7.699
 1490POPC   C1B22207  13.886  13.813   8.673
 1490POPC   C2B22208  14.065  13.645   8.303
 1490POPC   C3B22209  14.059  13.860   7.901
 1490POPC   C4B22210  14.090  13.934   7.423
 1491POPC   NC322211   9.849  35.290   9.476
 1491POPC   PO422212   9.902  35.944   9.558
 1491POPC   GL122213   9.732  35.644   9.123
 1491POPC   GL222214   9.602  35.271   9.004
 1491POPC   C1A22215   9.733  35.618   8.664
 1491POPC   D2A22216   9.730  35.174   8.436
 1491POPC   C3A22217   9.835  35.215   7.992
 1491POPC   C4A22218  10.036  35.496   7.683
 1491POPC   C1B22219   9.294  35.387   8.640
 1491POPC   C2B22220   9.443  35.535   8.207
 1491POPC   C3B22221   9.548  35.600   7.756
 1491POPC   C4B22222   9.341  35.505   7.328
 1492POPC   NC322223   9.948  12.252   9.381
 1492POPC   PO422224   9.368  11.923   9.411
 1492POPC   GL122225   9.599  11.972   9.051
 1492POPC   GL222226   9.664  12.341   8.989
 1492POPC   C1A22227   9.514  12.040   8.617
 1492POPC   D2A22228   9.703  12.318   8.332
 1492POPC   C3A22229   9.672  12.006   8.062
 1492POPC   C4A22230   9.504  11.910   7.694
 1492POPC   C1B22231   9.996  12.183   8.726
 1492POPC   C2B22232  10.220  12.315   8.384
 1492POPC   C3B22233  10.117  12.277   7.959
 1492POPC   C4B22234   9.798  12.326   7.689
 1493POPC   NC322235  10.146   5.987   9.609
 1493POPC   PO422236   9.515   5.823   9.601
 1493POPC   GL122237   9.857   5.659   9.344
 1493POPC   GL222238   9.893   5.990   9.172
 1493POPC   C1A22239   9.985   5.570   8.911
 1493POPC   D2A22240   9.719   5.534   8.540
 1493POPC   C3A22241   9.784   5.600   8.118
 1493POPC   C4A22242   9.517   5.591   7.759
 1493POPC   C1B22243   9.725   6.015   8.765
 1493POPC   C2B22244   9.918   6.046   8.340
 1493POPC   C3B22245   9.799   6.056   7.890
 1493POPC   C4B22246   9.925   6.322   7.546
 1494POPC   NC322247  11.992   3.237   9.473
 1494POPC   PO422248  12.352   3.875   9.499
 1494POPC   GL122249  12.072   3.644   9.165
 1494POPC   GL222250  12.239   3.341   9.030
 1494POPC   C1A22251  11.835   3.436   8.768
 1494POPC   D2A22252  12.068   3.341   8.399
 1494POPC   C3A22253  11.907   3.487   7.994
 1494POPC   C4A22254  12.122   3.416   7.589
 1494POPC   C1B22255  12.401   3.618   8.769
 1494POPC   C2B22256  12.353   3.776   8.386
 1494POPC   C3B22257  12.396   3.553   8.036
 1494POPC   C4B22258  12.568   3.675   7.718
 1495POPC   NC322259  25.587  39.603   9.543
 1495POPC   PO422260  25.017  39.158   9.596
 1495POPC   GL122261  25.171  39.450   9.273
 1495POPC   GL222262  25.145  39.164   9.058
 1495POPC   C1A22263  25.209  39.657   8.859
 1495POPC   D2A22264  25.025  39.620   8.471
 1495POPC   C3A22265  25.202  39.333   8.225
 1495POPC   C4A22266  25.152  39.497   7.802
 1495POPC   C1B22267  25.207  38.952   8.655
 1495POPC   C2B22268  25.055  38.747   8.272
 1495POPC   C3B22269  25.106  38.966   7.889
 1495POPC   C4B22270  25.520  39.143   7.813
 1496POPC   NC322271  24.465  37.241   9.626
 1496POPC   PO422272  24.218  37.791   9.543
 1496POPC   GL122273  24.384  37.903   9.155
 1496POPC   GL222274  24.709  37.782   9.206
 1496POPC   C1A22275  24.265  37.858   8.750
 1496POPC   D2A22276  24.467  37.886   8.365
 1496POPC   C3A22277  24.184  37.854   8.014
 1496POPC   C4A22278  24.212  37.620   7.617
 1496POPC   C1B22279  24.731  37.600   8.786
 1496POPC   C2B22280  24.700  37.424   8.360
 1496POPC   C3B22281  24.640  37.595   7.915
 1496POPC   C4B22282  24.696  37.607   7.431
 1497POPC   NC322283  10.199  18.522   9.446
 1497POPC   PO422284  10.825  18.345   9.611
 1497POPC   GL122285  10.538  18.218   9.219
 1497POPC   GL222286  10.336  18.469   8.974
 1497POPC   C1A22287  10.475  18.027   8.813
 1497POPC   D2A22288  10.732  17.971   8.437
 1497POPC   C3A22289  10.700  18.253   8.123
 1497POPC   C4A22290  10.404  18.221   7.773
 1497POPC   C1B22291  10.511  18.499   8.562
 1497POPC   C2B22292  10.917  18.650   8.420
 1497POPC   C3B22293  11.094  18.629   8.024
 1497POPC   C4B22294  10.873  18.440   7.683
 1498POPC   NC322295  22.584  21.610   9.378
 1498POPC   PO422296  21.997  21.281   9.527
 1498POPC   GL122297  21.937  21.277   9.087
 1498POPC   GL222298  22.311  21.243   9.081
 1498POPC   C1A22299  22.058  21.308   8.652
 1498POPC   D2A22300  22.146  21.554   8.280
 1498POPC   C3A22301  21.821  21.501   7.963
 1498POPC   C4A22302  21.852  21.292   7.569
 1498POPC   C1B22303  22.569  21.385   8.715
 1498POPC   C2B22304  22.656  21.730   8.427
 1498POPC   C3B22305  22.623  21.593   8.008
 1498POPC   C4B22306  22.276  21.610   7.695
 1499POPC   NC322307  35.602   9.957   9.533
 1499POPC   PO422308  35.137   9.474   9.544
 1499POPC   GL122309  35.330   9.679   9.193
 1499POPC   GL222310  35.559   9.413   9.121
 1499POPC   C1A22311  35.170   9.943   8.836
 1499POPC   D2A22312  35.269  10.171   8.462
 1499POPC   C3A22313  35.230   9.997   8.067
 1499POPC   C4A22314  35.461   9.925   7.737
 1499POPC   C1B22315  35.287   9.450   8.741
 1499POPC   C2B22316  35.252   9.587   8.352
 1499POPC   C3B22317  35.536   9.515   8.003
 1499POPC   C4B22318  35.502   9.326   7.562
 1500POPC   NC322319   2.034   7.508   9.448
 1500POPC   PO422320   1.549   7.029   9.288
 1500POPC   GL122321   1.835   7.268   9.055
 1500POPC   GL222322   2.167   7.124   9.046
 1500POPC   C1A22323   1.929   7.621   8.793
 1500POPC   D2A22324   1.830   7.506   8.370
 1500POPC   C3A22325   1.766   7.821   8.103
 1500POPC   C4A22326   1.747   7.757   7.688
 1500POPC   C1B22327   2.214   7.253   8.606
 1500POPC   C2B22328   2.335   7.578   8.309
 1500POPC   C3B22329   2.157   7.526   7.904
 1500POPC   C4B22330   2.225   7.098   7.794
 1501POPC   NC322331  17.828  23.672   9.453
 1501POPC   PO422332  17.431  24.191   9.513
 1501POPC   GL122333  17.537  23.945   9.117
 1501POPC   GL222334  17.475  23.591   9.003
 1501POPC   C1A22335  17.745  23.917   8.706
 1501POPC   D2A22336  17.579  24.008   8.294
 1501POPC   C3A22337  17.737  23.971   7.880
 1501POPC   C4A22338  17.425  23.999   7.527
 1501POPC   C1B22339  17.675  23.391   8.645
 1501POPC   C2B22340  17.859  23.542   8.303
 1501POPC   C3B22341  17.599  23.509   7.986
 1501POPC   C4B22342  17.520  23.498   7.564
 1502POPC   NC322343   4.982  44.908   9.508
 1502POPC   PO422344   5.388  44.367   9.547
 1502POPC   GL122345   5.184  44.394   9.159
 1502POPC   GL222346   4.832  44.532   9.171
 1502POPC   C1A22347   5.147  44.654   8.783
 1502POPC   D2A22348   4.947  44.616   8.401
 1502POPC   C3A22349   5.143  44.506   8.000
 1502POPC   C4A22350   5.017  44.441   7.552
 1502POPC   C1B22351   4.711  44.910   8.879
 1502POPC   C2B22352   4.553  44.922   8.437
 1502POPC   C3B22353   4.720  44.899   8.011
 1502POPC   C4B22354   5.053  44.932   7.722
 1503POPC   NC322355  44.835   8.006   9.615
 1503POPC   PO422356  44.142   8.145   9.518
 1503POPC   GL122357  44.473   8.292   9.256
 1503POPC   GL222358  44.400   8.606   9.228
 1503POPC   C1A22359  44.710   8.265   8.837
 1503POPC   D2A22360  44.807   7.893   8.559
 1503POPC   C3A22361  44.982   7.992   8.149
 1503POPC   C4A22362  44.766   7.998   7.733
 1503POPC   C1B22363  44.295   8.577   8.787
 1503POPC   C2B22364  44.549   8.586   8.415
 1503POPC   C3B22365  44.718   8.418   8.032
 1503POPC   C4B22366  44.807   8.625   7.658
 1504POPC   NC322367  21.208  16.511   9.570
 1504POPC   PO422368  21.390  17.089   9.456
 1504POPC   GL122369  21.444  16.721   9.173
 1504POPC   GL222370  21.712  16.837   9.042
 1504POPC   C1A22371  21.359  16.626   8.716
 1504POPC   D2A22372  21.438  16.777   8.283
 1504POPC   C3A22373  21.128  16.770   7.957
 1504POPC   C4A22374  20.834  16.600   7.657
 1504POPC   C1B22375  21.873  16.613   8.754
 1504POPC   C2B22376  21.943  16.811   8.381
 1504POPC   C3B22377  21.804  16.929   7.960
 1504POPC   C4B22378  21.558  16.645   7.706
 1505POPC   NC322379   1.315  24.465   9.473
 1505POPC   PO422380   0.835  24.032   9.201
 1505POPC   GL122381   1.117  24.334   8.998
 1505POPC   GL222382   1.199  24.686   9.032
 1505POPC   C1A22383   1.360  24.388   8.646
 1505POPC   D2A22384   1.246  24.451   8.264
 1505POPC   C3A22385   1.355  24.135   8.038
 1505POPC   C4A22386   1.260  24.239   7.640
 1505POPC   C1B22387   0.995  24.755   8.652
 1505POPC   C2B22388   1.097  24.932   8.265
 1505POPC   C3B22389   1.148  24.748   7.855
 1505POPC   C4B22390   0.879  24.557   7.572
 1506POPC   NC322391  33.146   6.937   9.555
 1506POPC   PO422392  32.876   7.633   9.528
 1506POPC   GL122393  33.016   7.381   9.188
 1506POPC   GL222394  32.773   7.552   9.026
 1506POPC   C1A22395  33.186   7.470   8.746
 1506POPC   D2A22396  33.141   7.732   8.357
 1506POPC   C3A22397  33.239   7.432   8.046
 1506POPC   C4A22398  33.080   7.136   7.781
 1506POPC   C1B22399  32.712   7.755   8.695
 1506POPC   C2B22400  32.637   7.520   8.347
 1506POPC   C3B22401  32.771   7.597   7.949
 1506POPC   C4B22402  32.864   7.510   7.507
 1507POPC   NC322403   7.613  42.126   9.598
 1507POPC   PO422404   7.163  42.643   9.417
 1507POPC   GL122405   7.287  42.468   9.039
 1507POPC   GL222406   7.605  42.407   9.165
 1507POPC   C1A22407   7.266  42.179   8.722
 1507POPC   D2A22408   7.288  41.915   8.415
 1507POPC   C3A22409   7.441  42.077   8.021
 1507POPC   C4A22410   7.290  42.228   7.619
 1507POPC   C1B22411   7.771  42.343   8.766
 1507POPC   C2B22412   7.609  42.432   8.353
 1507POPC   C3B22413   7.668  42.536   7.921
 1507POPC   C4B22414   7.791  42.278   7.539
 1508POPC   NC322415  35.076  33.902   9.468
 1508POPC   PO422416  35.491  33.387   9.609
 1508POPC   GL122417  35.437  33.678   9.178
 1508POPC   GL222418  35.127  33.705   8.996
 1508POPC   C1A22419  35.511  33.975   8.805
 1508POPC   D2A22420  35.405  33.773   8.428
 1508POPC   C3A22421  35.415  33.889   8.010
 1508POPC   C4A22422  35.209  33.894   7.592
 1508POPC   C1B22423  35.014  34.094   8.734
 1508POPC   C2B22424  34.804  34.269   8.337
 1508POPC   C3B22425  34.721  34.165   7.866
 1508POPC   C4B22426  34.897  34.277   7.452
 1509POPC   NC322427  33.509  40.756   9.415
 1509POPC   PO422428  34.176  40.782   9.496
 1509POPC   GL122429  33.902  41.000   9.194
 1509POPC   GL222430  33.965  40.738   8.978
 1509POPC   C1A22431  33.648  41.051   8.769
 1509POPC   D2A22432  33.944  40.996   8.439
 1509POPC   C3A22433  33.778  40.761   8.123
 1509POPC   C4A22434  33.649  40.851   7.717
 1509POPC   C1B22435  33.886  40.493   8.590
 1509POPC   C2B22436  33.489  40.461   8.414
 1509POPC   C3B22437  33.361  40.508   8.011
 1509POPC   C4B22438  33.276  40.527   7.607
 1510POPC   NC322439  44.112  44.826   9.631
 1510POPC   PO422440  43.749  44.299   9.453
 1510POPC   GL122441  43.943  44.532   9.109
 1510POPC   GL222442  44.049  44.905   9.139
 1510POPC   C1A22443  43.875  44.385   8.685
 1510POPC   D2A22444  43.871  44.057   8.371
 1510POPC   C3A22445  44.010  44.286   8.012
 1510POPC   C4A22446  43.889  44.409   7.619
 1510POPC   C1B22447  44.000  44.891   8.708
 1510POPC   C2B22448  44.126  44.685   8.329
 1510POPC   C3B22449  44.023  44.828   7.907
 1510POPC   C4B22450  44.041  44.884   7.474
 1511POPC   NC322451  17.181  23.306   9.340
 1511POPC   PO422452  17.621  22.860   9.645
 1511POPC   GL122453  17.545  22.763   9.164
 1511POPC   GL222454  17.391  23.022   8.964
 1511POPC   C1A22455  17.719  22.627   8.720
 1511POPC   D2A22456  17.811  22.652   8.275
 1511POPC   C3A22457  17.779  23.033   8.060
 1511POPC   C4A22458  17.683  23.017   7.607
 1511POPC   C1B22459  17.163  23.289   8.685
 1511POPC   C2B22460  17.296  23.177   8.291
 1511POPC   C3B22461  17.263  23.143   7.878
 1511POPC   C4B22462  17.193  23.113   7.444
 1512POPC   NC322463  27.339  32.863   9.453
 1512POPC   PO422464  28.073  32.688   9.448
 1512POPC   GL122465  27.772  32.906   9.159
 1512POPC   GL222466  27.430  32.791   8.975
 1512POPC   C1A22467  27.847  33.035   8.749
 1512POPC   D2A22468  27.905  32.776   8.399
 1512POPC   C3A22469  27.851  33.054   8.055
 1512POPC   C4A22470  27.659  32.959   7.688
 1512POPC   C1B22471  27.348  33.166   8.793
 1512POPC   C2B22472  27.496  33.284   8.400
 1512POPC   C3B22473  27.349  33.209   7.982
 1512POPC   C4B22474  27.223  33.398   7.578
 1513POPC   NC322475  35.051   3.837   9.498
 1513POPC   PO422476  35.458   3.420   9.564
 1513POPC   GL122477  35.342   3.387   9.165
 1513POPC   GL222478  34.987   3.459   9.158
 1513POPC   C1A22479  35.540   3.509   8.761
 1513POPC   D2A22480  35.509   3.771   8.386
 1513POPC   C3A22481  35.676   3.643   7.982
 1513POPC   C4A22482  35.631   3.331   7.650
 1513POPC   C1B22483  35.031   3.603   8.763
 1513POPC   C2B22484  35.143   3.420   8.387
 1513POPC   C3B22485  35.173   3.574   8.007
 1513POPC   C4B22486  35.302   3.726   7.636
 1514POPC   NC322487  36.042   1.869   9.493
 1514POPC   PO422488  36.501   2.294   9.483
 1514POPC   GL122489  36.215   2.209   9.133
 1514POPC   GL222490  36.252   1.869   9.023
 1514POPC   C1A22491  35.912   2.328   8.794
 1514POPC   D2A22492  35.742   2.203   8.364
 1514POPC   C3A22493  35.942   2.182   7.971
 1514POPC   C4A22494  35.953   1.982   7.515
 1514POPC   C1B22495  36.052   1.878   8.626
 1514POPC   C2B22496  36.250   1.777   8.274
 1514POPC   C3B22497  36.237   1.789   7.862
 1514POPC   C4B22498  36.459   2.085   7.590
 1515POPC   NC322499  15.778  32.467   9.606
 1515POPC   PO422500  16.449  32.586   9.456
 1515POPC   GL122501  16.100  32.359   9.190
 1515POPC   GL222502  15.723  32.451   9.114
 1515POPC   C1A22503  15.953  32.107   8.823
 1515POPC   D2A22504  15.655  31.923   8.520
 1515POPC   C3A22505  15.698  32.146   8.159
 1515POPC   C4A22506  15.998  32.098   7.838
 1515POPC   C1B22507  15.546  32.397   8.717
 1515POPC   C2B22508  15.813  32.597   8.439
 1515POPC   C3B22509  15.747  32.666   8.042
 1515POPC   C4B22510  15.436  32.449   7.807
 1516POPC   NC322511  40.468   5.377   9.430
 1516POPC   PO422512  40.759   4.756   9.463
 1516POPC   GL122513  40.810   5.055   9.165
 1516POPC   GL222514  40.462   5.034   9.054
 1516POPC   C1A22515  40.962   5.062   8.762
 1516POPC   D2A22516  40.795   4.893   8.388
 1516POPC   C3A22517  40.990   5.008   8.014
 1516POPC   C4A22518  41.010   5.199   7.645
 1516POPC   C1B22519  40.524   5.326   8.703
 1516POPC   C2B22520  40.622   5.360   8.259
 1516POPC   C3B22521  40.542   5.212   7.845
 1516POPC   C4B22522  40.457   5.400   7.440
 1517POPC   NC322523  29.375  23.483   9.569
 1517POPC   PO422524  29.008  24.073   9.437
 1517POPC   GL122525  29.072  23.670   9.191
 1517POPC   GL222526  28.845  23.354   9.171
 1517POPC   C1A22527  29.224  23.489   8.796
 1517POPC   D2A22528  29.049  23.420   8.363
 1517POPC   C3A22529  29.299  23.477   7.976
 1517POPC   C4A22530  29.226  23.639   7.548
 1517POPC   C1B22531  28.726  23.634   8.808
 1517POPC   C2B22532  28.755  23.889   8.430
 1517POPC   C3B22533  28.739  23.719   8.029
 1517POPC   C4B22534  28.758  23.910   7.641
 1518POPC   NC322535  39.397  40.932   9.520
 1518POPC   PO422536  38.931  40.414   9.467
 1518POPC   GL122537  39.078  40.682   9.166
 1518POPC   GL222538  39.421  40.611   9.123
 1518POPC   C1A22539  39.124  40.759   8.736
 1518POPC   D2A22540  38.960  40.917   8.390
 1518POPC   C3A22541  39.185  40.793   8.046
 1518POPC   C4A22542  39.076  40.624   7.704
 1518POPC   C1B22543  39.624  40.656   8.763
 1518POPC   C2B22544  39.572  40.881   8.391
 1518POPC   C3B22545  39.690  40.884   7.992
 1518POPC   C4B22546  39.510  40.863   7.595
 1519POPC   NC322547  42.170  41.138   9.505
 1519POPC   PO422548  42.076  41.756   9.504
 1519POPC   GL122549  42.213  41.544   9.156
 1519POPC   GL222550  42.497  41.334   9.168
 1519POPC   C1A22551  42.332  41.588   8.743
 1519POPC   D2A22552  42.331  41.791   8.370
 1519POPC   C3A22553  42.335  41.590   7.952
 1519POPC   C4A22554  42.086  41.755   7.625
 1519POPC   C1B22555  42.600  41.160   8.769
 1519POPC   C2B22556  42.532  41.308   8.353
 1519POPC   C3B22557  42.507  41.115   7.955
 1519POPC   C4B22558  42.709  41.217   7.595
 1520POPC   NC322559  11.674  27.530   9.507
 1520POPC   PO422560  12.304  27.378   9.321
 1520POPC   GL122561  12.127  27.553   9.030
 1520POPC   GL222562  11.877  27.719   9.095
 1520POPC   C1A22563  12.263  27.606   8.657
 1520POPC   D2A22564  12.605  27.590   8.364
 1520POPC   C3A22565  12.424  27.376   8.031
 1520POPC   C4A22566  12.170  27.557   7.759
 1520POPC   C1B22567  11.739  27.677   8.682
 1520POPC   C2B22568  11.892  27.597   8.261
 1520POPC   C3B22569  11.739  27.799   7.885
 1520POPC   C4B22570  11.859  27.797   7.439
 1521POPC   NC322571  18.306   1.336   9.526
 1521POPC   PO422572  18.764   1.815   9.389
 1521POPC   GL122573  18.551   1.484   9.115
 1521POPC   GL222574  18.499   1.098   9.108
 1521POPC   C1A22575  18.292   1.434   8.745
 1521POPC   D2A22576  18.082   1.477   8.342
 1521POPC   C3A22577  18.264   1.170   8.083
 1521POPC   C4A22578  18.406   1.002   7.684
 1521POPC   C1B22579  18.188   0.890   8.805
 1521POPC   C2B22580  17.877   1.027   8.478
 1521POPC   C3B22581  17.750   1.133   8.065
 1521POPC   C4B22582  17.849   0.961   7.646
 1522POPC   NC322583  28.300  40.265   9.497
 1522POPC   PO422584  28.700  39.760   9.415
 1522POPC   GL122585  28.528  40.021   9.105
 1522POPC   GL222586  28.691  40.316   9.081
 1522POPC   C1A22587  28.272  39.929   8.752
 1522POPC   D2A22588  28.232  40.073   8.352
 1522POPC   C3A22589  28.176  39.776   8.061
 1522POPC   C4A22590  28.474  39.691   7.732
 1522POPC   C1B22591  28.656  40.275   8.662
 1522POPC   C2B22592  28.777  40.111   8.292
 1522POPC   C3B22593  28.540  40.183   7.952
 1522POPC   C4B22594  28.248  40.455   7.872
 1523POPC   NC322595  18.507  13.528   9.610
 1523POPC   PO422596  17.988  13.147   9.394
 1523POPC   GL122597  18.329  13.378   9.094
 1523POPC   GL222598  18.457  13.695   9.115
 1523POPC   C1A22599  18.293  13.448   8.701
 1523POPC   D2A22600  18.400  13.576   8.363
 1523POPC   C3A22601  18.055  13.501   8.114
 1523POPC   C4A22602  18.257  13.702   7.840
 1523POPC   C1B22603  18.480  13.946   8.689
 1523POPC   C2B22604  18.569  14.053   8.228
 1523POPC   C3B22605  18.330  14.202   7.846
 1523POPC   C4B22606  18.041  14.010   7.509
 1524POPC   NC322607  42.580   1.542   9.928
 1524POPC   PO422608  42.220   2.056   9.534
 1524POPC   GL122609  42.372   2.132   9.138
 1524POPC   GL222610  42.296   1.820   9.037
 1524POPC   C1A22611  42.182   2.198   8.730
 1524POPC   D2A22612  41.937   2.032   8.399
 1524POPC   C3A22613  42.280   2.021   8.115
 1524POPC   C4A22614  42.681   2.091   7.879
 1524POPC   C1B22615  42.219   1.534   8.690
 1524POPC   C2B22616  42.196   1.542   8.297
 1524POPC   C3B22617  42.277   1.495   7.900
 1524POPC   C4B22618  42.312   1.843   7.640
 1525POPC   NC322619  20.240  35.654   9.489
 1525POPC   PO422620  20.039  34.978   9.398
 1525POPC   GL122621  20.013  35.344   9.145
 1525POPC   GL222622  19.665  35.396   9.068
 1525POPC   C1A22623  20.011  35.604   8.766
 1525POPC   D2A22624  19.751  35.577   8.399
 1525POPC   C3A22625  19.882  35.245   8.142
 1525POPC   C4A22626  19.988  35.223   7.711
 1525POPC   C1B22627  19.614  35.166   8.665
 1525POPC   C2B22628  19.372  35.238   8.265
 1525POPC   C3B22629  19.469  35.282   7.820
 1525POPC   C4B22630  19.574  35.283   7.367
 1526POPC   NC322631  27.593  24.269   9.460
 1526POPC   PO422632  27.575  24.905   9.587
 1526POPC   GL122633  27.625  24.751   9.112
 1526POPC   GL222634  27.583  24.396   8.988
 1526POPC   C1A22635  27.409  24.724   8.680
 1526POPC   D2A22636  27.626  24.677   8.293
 1526POPC   C3A22637  27.434  24.591   7.898
 1526POPC   C4A22638  27.735  24.725   7.628
 1526POPC   C1B22639  27.688  24.139   8.691
 1526POPC   C2B22640  27.591  24.189   8.311
 1526POPC   C3B22641  27.845  24.290   7.989
 1526POPC   C4B22642  27.719  24.226   7.644
 1527POPC   NC322643  15.717  20.425   9.504
 1527POPC   PO422644  15.807  21.010   9.813
 1527POPC   GL122645  15.908  20.929   9.292
 1527POPC   GL222646  15.668  20.812   9.061
 1527POPC   C1A22647  16.097  21.033   8.842
 1527POPC   D2A22648  16.226  20.872   8.419
 1527POPC   C3A22649  15.886  20.780   8.107
 1527POPC   C4A22650  15.855  20.798   7.650
 1527POPC   C1B22651  15.735  20.677   8.611
 1527POPC   C2B22652  15.553  20.399   8.268
 1527POPC   C3B22653  15.752  20.312   7.851
 1527POPC   C4B22654  15.974  20.309   7.451
 1528POPC   NC322655  38.044  27.831   9.425
 1528POPC   PO422656  38.687  27.653   9.587
 1528POPC   GL122657  38.436  27.512   9.234
 1528POPC   GL222658  38.617  27.187   9.237
 1528POPC   C1A22659  38.341  27.707   8.800
 1528POPC   D2A22660  38.452  27.826   8.368
 1528POPC   C3A22661  38.209  27.820   7.996
 1528POPC   C4A22662  38.277  27.874   7.574
 1528POPC   C1B22663  38.787  27.371   8.869
 1528POPC   C2B22664  38.796  27.384   8.427
 1528POPC   C3B22665  38.712  27.187   8.030
 1528POPC   C4B22666  38.428  27.383   7.743
 1529POPC   NC322667   3.137  36.510   9.388
 1529POPC   PO422668   2.596  36.160   9.653
 1529POPC   GL122669   2.628  36.131   9.210
 1529POPC   GL222670   2.967  36.031   9.126
 1529POPC   C1A22671   2.592  35.958   8.799
 1529POPC   D2A22672   2.594  36.145   8.420
 1529POPC   C3A22673   2.763  35.892   8.113
 1529POPC   C4A22674   2.623  36.000   7.696
 1529POPC   C1B22675   2.932  36.361   8.784
 1529POPC   C2B22676   3.008  36.444   8.343
 1529POPC   C3B22677   2.885  36.349   7.933
 1529POPC   C4B22678   2.886  36.380   7.462
 1530POPC   NC322679   0.084  18.002   9.363
 1530POPC   PO422680   0.599  18.434   9.618
 1530POPC   GL122681   0.533  18.238   9.243
 1530POPC   GL222682   0.639  17.871   9.334
 1530POPC   C1A22683   0.329  18.391   8.863
 1530POPC   D2A22684   0.141  18.560   8.453
 1530POPC   C3A22685   0.448  18.511   8.185
 1530POPC   C4A22686   0.456  18.321   7.802
 1530POPC   C1B22687   0.768  17.925   8.901
 1530POPC   C2B22688   0.669  18.181   8.534
 1530POPC   C3B22689   0.827  18.172   8.129
 1530POPC   C4B22690   0.877  18.030   7.732
 1531POPC   NC322691  23.165   2.667   9.534
 1531POPC   PO422692  22.586   3.005   9.409
 1531POPC   GL122693  22.992   2.929   9.124
 1531POPC   GL222694  23.070   2.578   9.047
 1531POPC   C1A22695  22.984   2.957   8.685
 1531POPC   D2A22696  22.617   2.727   8.551
 1531POPC   C3A22697  22.555   2.687   8.104
 1531POPC   C4A22698  22.742   2.591   7.730
 1531POPC   C1B22699  23.162   2.481   8.615
 1531POPC   C2B22700  23.102   2.590   8.187
 1531POPC   C3B22701  23.247   2.648   7.779
 1531POPC   C4B22702  23.127   2.382   7.442
 1532POPC   NC322703  23.233  32.452   9.385
 1532POPC   PO422704  23.835  32.205   9.497
 1532POPC   GL122705  23.623  32.179   9.153
 1532POPC   GL222706  23.747  32.496   9.066
 1532POPC   C1A22707  23.423  32.244   8.763
 1532POPC   D2A22708  23.550  32.438   8.425
 1532POPC   C3A22709  23.490  32.200   8.048
 1532POPC   C4A22710  23.459  32.362   7.631
 1532POPC   C1B22711  23.952  32.681   8.710
 1532POPC   C2B22712  24.012  32.633   8.258
 1532POPC   C3B22713  23.912  32.397   7.873
 1532POPC   C4B22714  23.908  32.462   7.436
 1533POPC   NC322715  17.635  21.568   9.521
 1533POPC   PO422716  17.278  21.007   9.341
 1533POPC   GL122717  17.522  21.250   9.101
 1533POPC   GL222718  17.330  21.527   9.089
 1533POPC   C1A22719  17.657  21.230   8.667
 1533POPC   D2A22720  17.516  21.378   8.287
 1533POPC   C3A22721  17.619  21.119   7.941
 1533POPC   C4A22722  17.543  21.224   7.535
 1533POPC   C1B22723  17.759  21.656   8.895
 1533POPC   C2B22724  17.912  21.698   8.500
 1533POPC   C3B22725  17.786  21.771   8.109
 1533POPC   C4B22726  17.461  21.641   7.834
 1534POPC   NC322727   4.232  27.261   9.564
 1534POPC   PO422728   3.848  27.816   9.362
 1534POPC   GL122729   4.191  27.684   9.119
 1534POPC   GL222730   4.511  27.705   9.251
 1534POPC   C1A22731   4.441  27.899   8.782
 1534POPC   D2A22732   4.222  27.898   8.428
 1534POPC   C3A22733   4.336  27.824   8.031
 1534POPC   C4A22734   4.122  27.540   7.784
 1534POPC   C1B22735   4.546  27.424   8.844
 1534POPC   C2B22736   4.632  27.553   8.378
 1534POPC   C3B22737   4.609  27.385   7.919
 1534POPC   C4B22738   4.649  27.351   7.432
 1535POPC   NC322739  11.157  31.410   9.609
 1535POPC   PO422740  11.747  31.368   9.315
 1535POPC   GL122741  11.358  31.349   9.076
 1535POPC   GL222742  10.985  31.276   9.162
 1535POPC   C1A22743  11.390  31.429   8.635
 1535POPC   D2A22744  11.418  31.732   8.272
 1535POPC   C3A22745  11.583  31.483   7.910
 1535POPC   C4A22746  11.302  31.125   7.803
 1535POPC   C1B22747  10.911  31.539   8.799
 1535POPC   C2B22748  10.977  31.428   8.345
 1535POPC   C3B22749  11.046  31.582   7.939
 1535POPC   C4B22750  10.816  31.756   7.606
 1536POPC   NC322751  29.228  27.238   9.392
 1536POPC   PO422752  29.347  26.529   9.360
 1536POPC   GL122753  29.046  26.816   9.141
 1536POPC   GL222754  29.301  27.030   8.940
 1536POPC   C1A22755  28.845  26.918   8.745
 1536POPC   D2A22756  29.193  26.945   8.427
 1536POPC   C3A22757  29.089  26.768   8.035
 1536POPC   C4A22758  29.076  26.899   7.628
 1536POPC   C1B22759  29.491  27.339   8.667
 1536POPC   C2B22760  29.662  27.297   8.260
 1536POPC   C3B22761  29.399  27.166   7.932
 1536POPC   C4B22762  29.342  27.321   7.509
 1537POPC   NC322763   0.103  22.451   9.446
 1537POPC   PO422764  44.527  22.172   9.581
 1537POPC   GL122765  44.755  22.173   9.187
 1537POPC   GL222766  44.489  22.392   9.107
 1537POPC   C1A22767  44.995  22.351   8.799
 1537POPC   D2A22768  44.912  22.494   8.369
 1537POPC   C3A22769   0.032  22.206   8.029
 1537POPC   C4A22770  44.956  21.988   7.652
 1537POPC   C1B22771  44.505  22.359   8.693
 1537POPC   C2B22772  44.372  22.138   8.354
 1537POPC   C3B22773  44.461  22.144   7.929
 1537POPC   C4B22774  44.433  22.136   7.486
 1538POPC   NC322775  30.095   9.278   9.410
 1538POPC   PO422776  29.762   8.743   9.410
 1538POPC   GL122777  29.862   8.952   9.079
 1538POPC   GL222778  30.216   8.896   9.060
 1538POPC   C1A22779  29.722   9.101   8.700
 1538POPC   D2A22780  29.595   8.914   8.368
 1538POPC   C3A22781  29.690   9.135   8.011
 1538POPC   C4A22782  29.660   8.989   7.578
 1538POPC   C1B22783  30.241   9.139   8.701
 1538POPC   C2B22784  30.134   9.132   8.266
 1538POPC   C3B22785  30.126   9.019   7.809
 1538POPC   C4B22786  30.117   8.803   7.426
 1539POPC   NC322787  12.557  35.217   9.586
 1539POPC   PO422788  13.207  35.259   9.596
 1539POPC   GL122789  12.950  35.105   9.202
 1539POPC   GL222790  12.569  35.060   9.117
 1539POPC   C1A22791  13.012  35.172   8.753
 1539POPC   D2A22792  13.085  35.467   8.459
 1539POPC   C3A22793  13.038  35.422   8.046
 1539POPC   C4A22794  13.101  35.010   7.873
 1539POPC   C1B22795  12.506  35.199   8.702
 1539POPC   C2B22796  12.703  35.055   8.317
 1539POPC   C3B22797  12.621  35.145   7.914
 1539POPC   C4B22798  12.398  35.499   7.812
 1540POPC   NC322799   0.032  21.091   9.627
 1540POPC   PO422800   0.450  21.656   9.708
 1540POPC   GL122801   0.329  21.392   9.287
 1540POPC   GL222802  45.000  21.232   9.142
 1540POPC   C1A22803   0.425  21.354   8.814
 1540POPC   D2A22804   0.606  21.184   8.416
 1540POPC   C3A22805   0.765  21.402   8.038
 1540POPC   C4A22806   0.715  21.423   7.589
 1540POPC   C1B22807  44.946  21.511   8.766
 1540POPC   C2B22808   0.151  21.524   8.359
 1540POPC   C3B22809   0.243  21.353   7.943
 1540POPC   C4B22810   0.230  21.562   7.557
 1541POPC   NC322811  29.809   2.805   9.615
 1541POPC   PO422812  29.039   2.807   9.549
 1541POPC   GL122813  29.042   2.824   9.073
 1541POPC   GL222814  29.273   3.045   8.911
 1541POPC   C1A22815  29.059   2.717   8.607
 1541POPC   D2A22816  29.400   2.590   8.371
 1541POPC   C3A22817  29.323   2.776   7.987
 1541POPC   C4A22818  29.011   2.622   7.703
 1541POPC   C1B22819  28.884   3.174   8.656
 1541POPC   C2B22820  28.876   3.033   8.188
 1541POPC   C3B22821  29.024   3.119   7.735
 1541POPC   C4B22822  28.933   3.340   7.339
 1542POPC   NC322823  10.920  12.352   9.381
 1542POPC   PO422824  11.516  12.207   9.593
 1542POPC   GL122825  11.554  12.002   9.183
 1542POPC   GL222826  11.187  11.959   9.095
 1542POPC   C1A22827  11.526  12.256   8.844
 1542POPC   D2A22828  11.227  12.302   8.556
 1542POPC   C3A22829  11.377  12.419   8.163
 1542POPC   C4A22830  11.480  12.220   7.770
 1542POPC   C1B22831  10.866  11.903   8.764
 1542POPC   C2B22832  10.994  11.885   8.332
 1542POPC   C3B22833  11.022  12.092   7.925
 1542POPC   C4B22834  10.844  11.882   7.565
 1543POPC   NC322835  24.203  38.253   9.480
 1543POPC   PO422836  24.877  38.433   9.486
 1543POPC   GL122837  24.624  38.508   9.117
 1543POPC   GL222838  24.736  38.853   8.961
 1543POPC   C1A22839  24.615  38.248   8.765
 1543POPC   D2A22840  24.866  38.240   8.384
 1543POPC   C3A22841  24.654  38.211   8.008
 1543POPC   C4A22842  24.496  38.038   7.655
 1543POPC   C1B22843  24.368  38.841   8.713
 1543POPC   C2B22844  24.305  38.491   8.421
 1543POPC   C3B22845  24.272  38.558   7.988
 1543POPC   C4B22846  24.630  38.753   7.806
 1544POPC   NC322847  44.963  29.603   9.237
 1544POPC   PO422848  44.507  30.139   9.451
 1544POPC   GL122849  44.573  29.925   9.089
 1544POPC   GL222850  44.895  30.079   9.083
 1544POPC   C1A22851  44.601  29.642   8.720
 1544POPC   D2A22852  44.859  29.453   8.370
 1544POPC   C3A22853  44.686  29.633   8.001
 1544POPC   C4A22854  44.398  29.667   7.654
 1544POPC   C1B22855  44.817  30.104   8.646
 1544POPC   C2B22856   0.103  29.949   8.336
 1544POPC   C3B22857   0.056  29.983   7.915
 1544POPC   C4B22858  44.648  30.104   7.766
 1545POPC   NC322859  34.033  10.260   9.286
 1545POPC   PO422860  33.614  10.750   9.481
 1545POPC   GL122861  33.823  10.717   9.095
 1545POPC   GL222862  34.167  10.720   9.106
 1545POPC   C1A22863  33.747  10.599   8.669
 1545POPC   D2A22864  33.810  10.381   8.269
 1545POPC   C3A22865  33.707  10.569   7.856
 1545POPC   C4A22866  33.588  10.378   7.448
 1545POPC   C1B22867  34.266  10.627   8.683
 1545POPC   C2B22868  34.239  10.678   8.236
 1545POPC   C3B22869  34.163  10.383   7.863
 1545POPC   C4B22870  34.058  10.546   7.398
 1546POPC   NC322871  20.550  19.892   9.444
 1546POPC   PO422872  21.194  19.738   9.406
 1546POPC   GL122873  20.903  19.950   9.097
 1546POPC   GL222874  20.767  20.301   9.160
 1546POPC   C1A22875  20.748  19.946   8.678
 1546POPC   D2A22876  20.712  20.063   8.259
 1546POPC   C3A22877  20.738  19.797   7.917
 1546POPC   C4A22878  20.992  19.771   7.568
 1546POPC   C1B22879  20.383  20.250   8.874
 1546POPC   C2B22880  20.214  20.137   8.432
 1546POPC   C3B22881  20.314  20.181   7.965
 1546POPC   C4B22882  20.234  20.444   7.585
 1547POPC   NC322883  11.941  11.991   9.517
 1547POPC   PO422884  12.336  12.526   9.280
 1547POPC   GL122885  12.021  12.278   9.079
 1547POPC   GL222886  12.084  11.903   9.024
 1547POPC   C1A22887  11.997  12.261   8.651
 1547POPC   D2A22888  12.169  11.947   8.429
 1547POPC   C3A22889  12.152  12.136   8.041
 1547POPC   C4A22890  12.199  11.917   7.660
 1547POPC   C1B22891  11.749  11.803   8.727
 1547POPC   C2B22892  11.655  11.989   8.314
 1547POPC   C3B22893  11.763  11.836   7.893
 1547POPC   C4B22894  11.758  11.942   7.403
 1548POPC   NC322895  28.473   2.876   9.640
 1548POPC   PO422896  28.010   2.975   9.212
 1548POPC   GL122897  28.451   2.882   9.110
 1548POPC   GL222898  28.625   2.564   9.236
 1548POPC   C1A22899  28.410   3.006   8.652
 1548POPC   D2A22900  28.044   2.906   8.354
 1548POPC   C3A22901  28.195   2.749   7.955
 1548POPC   C4A22902  28.548   2.938   7.802
 1548POPC   C1B22903  28.506   2.515   8.784
 1548POPC   C2B22904  28.576   2.640   8.350
 1548POPC   C3B22905  28.627   2.429   7.988
 1548POPC   C4B22906  28.542   2.471   7.593
 1549POPC   NC322907  14.533  30.803   9.565
 1549POPC   PO422908  13.895  30.997   9.656
 1549POPC   GL122909  14.184  30.727   9.220
 1549POPC   GL222910  14.566  30.813   9.075
 1549POPC   C1A22911  14.227  30.802   8.718
 1549POPC   D2A22912  14.271  31.002   8.324
 1549POPC   C3A22913  14.127  30.750   7.978
 1549POPC   C4A22914  14.110  30.847   7.567
 1549POPC   C1B22915  14.717  30.647   8.673
 1549POPC   C2B22916  14.554  30.577   8.246
 1549POPC   C3B22917  14.614  30.879   7.898
 1549POPC   C4B22918  14.610  30.885   7.431
 1550POPC   NC322919  33.476   7.747   9.433
 1550POPC   PO422920  33.584   7.088   9.529
 1550POPC   GL122921  33.889   7.261   9.243
 1550POPC   GL222922  34.027   7.007   9.043
 1550POPC   C1A22923  33.825   7.427   8.819
 1550POPC   D2A22924  33.942   7.268   8.411
 1550POPC   C3A22925  33.724   7.526   8.174
 1550POPC   C4A22926  33.674   7.643   7.782
 1550POPC   C1B22927  33.685   6.921   8.715
 1550POPC   C2B22928  33.507   7.035   8.273
 1550POPC   C3B22929  33.591   7.136   7.819
 1550POPC   C4B22930  33.836   6.958   7.498
 1551POPC   NC322931  42.081   2.558   9.324
 1551POPC   PO422932  42.482   3.020   9.569
 1551POPC   GL122933  42.428   2.907   9.137
 1551POPC   GL222934  42.625   2.592   9.183
 1551POPC   C1A22935  42.246   2.722   8.721
 1551POPC   D2A22936  42.068   2.525   8.332
 1551POPC   C3A22937  42.111   2.788   7.966
 1551POPC   C4A22938  42.273   3.009   7.619
 1551POPC   C1B22939  42.777   2.310   8.843
 1551POPC   C2B22940  42.674   2.210   8.412
 1551POPC   C3B22941  42.532   2.516   8.120
 1551POPC   C4B22942  42.514   2.555   7.688
 1552POPC   NC322943  34.235  30.703   9.332
 1552POPC   PO422944  33.570  30.635   9.538
 1552POPC   GL122945  33.769  30.691   9.121
 1552POPC   GL222946  33.950  30.381   9.022
 1552POPC   C1A22947  33.995  30.811   8.724
 1552POPC   D2A22948  34.030  30.597   8.344
 1552POPC   C3A22949  34.060  30.899   8.109
 1552POPC   C4A22950  33.739  30.836   7.884
 1552POPC   C1B22951  33.628  30.436   8.667
 1552POPC   C2B22952  33.569  30.427   8.192
 1552POPC   C3B22953  33.616  30.336   7.749
 1552POPC   C4B22954  33.515  30.277   7.308
 1553POPC   NC322955  20.025  40.528   9.293
 1553POPC   PO422956  19.986  41.151   9.450
 1553POPC   GL122957  19.949  41.202   9.025
 1553POPC   GL222958  20.272  41.099   9.019
 1553POPC   C1A22959  19.945  41.138   8.572
 1553POPC   D2A22960  20.190  40.903   8.231
 1553POPC   C3A22961  20.002  40.931   7.823
 1553POPC   C4A22962  19.647  40.728   7.631
 1553POPC   C1B22963  20.249  40.769   8.726
 1553POPC   C2B22964  20.155  40.421   8.468
 1553POPC   C3B22965  19.962  40.429   8.065
 1553POPC   C4B22966  20.212  40.466   7.739
 1554POPC   NC322967  30.647  26.606   9.572
 1554POPC   PO422968  30.530  27.283   9.559
 1554POPC   GL122969  30.851  27.031   9.290
 1554POPC   GL222970  30.890  26.660   9.151
 1554POPC   C1A22971  30.796  27.056   8.857
 1554POPC   D2A22972  30.471  26.990   8.555
 1554POPC   C3A22973  30.560  26.969   8.102
 1554POPC   C4A22974  30.990  27.056   7.914
 1554POPC   C1B22975  30.740  26.540   8.781
 1554POPC   C2B22976  30.565  26.511   8.387
 1554POPC   C3B22977  30.809  26.519   8.029
 1554POPC   C4B22978  30.733  26.694   7.666
 1555POPC   NC322979  19.244  30.851   9.500
 1555POPC   PO422980  18.614  30.564   9.404
 1555POPC   GL122981  18.926  30.750   9.107
 1555POPC   GL222982  19.250  30.561   9.076
 1555POPC   C1A22983  18.985  30.751   8.651
 1555POPC   D2A22984  18.753  30.727   8.263
 1555POPC   C3A22985  18.986  30.762   7.884
 1555POPC   C4A22986  18.879  30.547   7.524
 1555POPC   C1B22987  19.311  30.351   8.669
 1555POPC   C2B22988  19.285  30.526   8.247
 1555POPC   C3B22989  19.193  30.301   7.856
 1555POPC   C4B22990  19.287  30.128   7.448
 1556POPC   NC322991   3.715   9.078   9.496
 1556POPC   PO422992   3.228   8.734   9.733
 1556POPC   GL122993   3.345   8.937   9.182
 1556POPC   GL222994   3.160   9.145   9.034
 1556POPC   C1A22995   3.614   9.230   8.861
 1556POPC   D2A22996   3.749   9.442   8.492
 1556POPC   C3A22997   3.722   9.265   8.080
 1556POPC   C4A22998   3.947   9.097   7.705
 1556POPC   C1B22999   3.257   8.897   8.667
 1556POPC   C2B23000   3.251   8.994   8.216
 1556POPC   C3B23001   3.483   8.871   7.836
 1556POPC   C4B23002   3.511   9.137   7.438
 1557POPC   NC323003  43.255  13.610   9.511
 1557POPC   PO423004  42.654  13.407   9.472
 1557POPC   GL123005  42.943  13.569   9.090
 1557POPC   GL223006  43.272  13.769   9.051
 1557POPC   C1A23007  43.054  13.633   8.628
 1557POPC   D2A23008  43.419  13.423   8.442
 1557POPC   C3A23009  43.325  13.400   8.060
 1557POPC   C4A23010  42.975  13.698   7.932
 1557POPC   C1B23011  43.520  13.839   8.709
 1557POPC   C2B23012  43.422  13.934   8.326
 1557POPC   C3B23013  43.438  13.879   7.923
 1557POPC   C4B23014  43.265  13.856   7.473
 1558POPC   NC323015  21.596  21.042   9.408
 1558POPC   PO423016  21.346  21.695   9.419
 1558POPC   GL123017  21.368  21.423   9.072
 1558POPC   GL223018  21.233  21.072   9.075
 1558POPC   C1A23019  21.110  21.328   8.677
 1558POPC   D2A23020  21.051  21.357   8.282
 1558POPC   C3A23021  21.363  21.239   8.013
 1558POPC   C4A23022  21.123  21.421   7.711
 1558POPC   C1B23023  21.582  21.145   8.726
 1558POPC   C2B23024  21.790  21.077   8.291
 1558POPC   C3B23025  21.734  20.909   7.887
 1558POPC   C4B23026  21.414  21.022   7.559
 1559POPC   NC323027  12.156  44.305   9.432
 1559POPC   PO423028  11.907  44.917   9.473
 1559POPC   GL123029  11.999  44.687   9.142
 1559POPC   GL223030  11.756  44.431   9.141
 1559POPC   C1A23031  12.235  44.669   8.780
 1559POPC   D2A23032  12.251  44.885   8.395
 1559POPC   C3A23033  12.101  44.663   8.041
 1559POPC   C4A23034  11.800  44.685   7.712
 1559POPC   C1B23035  11.880  44.274   8.761
 1559POPC   C2B23036  11.758  44.382   8.354
 1559POPC   C3B23037  11.825  44.223   7.941
 1559POPC   C4B23038  12.162  44.333   7.630
 1560POPC   NC323039  26.413  31.097   9.406
 1560POPC   PO423040  26.923  31.494   9.471
 1560POPC   GL123041  27.035  31.457   9.062
 1560POPC   GL223042  27.036  31.110   9.090
 1560POPC   C1A23043  26.805  31.576   8.723
 1560POPC   D2A23044  26.730  31.874   8.425
 1560POPC   C3A23045  26.673  31.677   8.022
 1560POPC   C4A23046  26.741  31.529   7.613
 1560POPC   C1B23047  26.992  31.105   8.656
 1560POPC   C2B23048  26.712  31.081   8.303
 1560POPC   C3B23049  26.879  31.115   7.882
 1560POPC   C4B23050  27.043  31.146   7.432
 1561POPC   NC323051   8.457  39.231   9.608
 1561POPC   PO423052   7.921  39.081   9.298
 1561POPC   GL123053   8.153  38.904   9.046
 1561POPC   GL223054   8.490  38.930   9.190
 1561POPC   C1A23055   8.098  38.995   8.616
 1561POPC   D2A23056   7.977  39.390   8.412
 1561POPC   C3A23057   7.837  39.310   7.990
 1561POPC   C4A23058   8.015  39.214   7.545
 1561POPC   C1B23059   8.466  39.270   8.911
 1561POPC   C2B23060   8.533  39.261   8.505
 1561POPC   C3B23061   8.336  39.175   8.117
 1561POPC   C4B23062   8.418  39.003   7.760
 1562POPC   NC323063  31.236  42.338   9.712
 1562POPC   PO423064  31.808  42.063   9.445
 1562POPC   GL123065  31.670  42.234   9.081
 1562POPC   GL223066  31.400  42.383   9.203
 1562POPC   C1A23067  31.780  42.305   8.660
 1562POPC   D2A23068  31.722  42.416   8.246
 1562POPC   C3A23069  31.721  42.110   7.943
 1562POPC   C4A23070  31.442  42.191   7.606
 1562POPC   C1B23071  31.283  42.400   8.776
 1562POPC   C2B23072  31.195  42.597   8.399
 1562POPC   C3B23073  31.284  42.519   7.976
 1562POPC   C4B23074  31.284  42.679   7.529
 1563POPC   NC323075  12.970  37.884   9.538
 1563POPC   PO423076  12.621  37.299   9.493
 1563POPC   GL123077  12.688  37.650   9.184
 1563POPC   GL223078  13.025  37.800   9.038
 1563POPC   C1A23079  12.605  37.688   8.766
 1563POPC   D2A23080  12.442  37.525   8.412
 1563POPC   C3A23081  12.686  37.638   8.087
 1563POPC   C4A23082  12.609  37.466   7.686
 1563POPC   C1B23083  13.012  37.386   8.818
 1563POPC   C2B23084  13.008  37.306   8.362
 1563POPC   C3B23085  13.073  37.364   7.902
 1563POPC   C4B23086  13.064  37.386   7.429
 1564POPC   NC323087  25.799  27.224   9.495
 1564POPC   PO423088  26.181  27.784   9.764
 1564POPC   GL123089  26.104  27.724   9.252
 1564POPC   GL223090  26.005  27.436   9.102
 1564POPC   C1A23091  26.171  27.781   8.746
 1564POPC   D2A23092  26.332  27.753   8.321
 1564POPC   C3A23093  26.005  27.904   8.033
 1564POPC   C4A23094  25.885  27.741   7.631
 1564POPC   C1B23095  25.937  27.328   8.712
 1564POPC   C2B23096  25.879  27.501   8.350
 1564POPC   C3B23097  25.969  27.375   7.977
 1564POPC   C4B23098  25.968  27.159   7.611
 1565POPC   NC323099   0.645  12.594   9.566
 1565POPC   PO423100   0.250  13.102   9.664
 1565POPC   GL123101   0.188  12.859   9.277
 1565POPC   GL223102  44.994  13.043   9.036
 1565POPC   C1A23103   0.357  12.731   8.868
 1565POPC   D2A23104   0.616  12.797   8.519
 1565POPC   C3A23105   0.468  12.574   8.165
 1565POPC   C4A23106   0.481  12.724   7.764
 1565POPC   C1B23107   0.139  13.270   8.650
 1565POPC   C2B23108   0.270  13.071   8.237
 1565POPC   C3B23109   0.265  13.187   7.806
 1565POPC   C4B23110   0.144  13.208   7.385
 1566POPC   NC323111  37.375  13.962   9.331
 1566POPC   PO423112  37.511  14.524   9.660
 1566POPC   GL123113  37.623  14.629   9.225
 1566POPC   GL223114  37.705  14.317   9.128
 1566POPC   C1A23115  37.609  14.647   8.744
 1566POPC   D2A23116  37.635  14.453   8.341
 1566POPC   C3A23117  37.583  14.683   7.948
 1566POPC   C4A23118  37.478  14.488   7.525
 1566POPC   C1B23119  37.918  14.239   8.739
 1566POPC   C2B23120  38.132  14.219   8.370
 1566POPC   C3B23121  37.996  14.356   7.992
 1566POPC   C4B23122  37.929  14.196   7.578
 1567POPC   NC323123   8.396  42.883   9.342
 1567POPC   PO423124   8.002  42.359   9.517
 1567POPC   GL123125   8.120  42.488   9.137
 1567POPC   GL223126   7.935  42.811   9.076
 1567POPC   C1A23127   8.323  42.231   8.804
 1567POPC   D2A23128   8.515  42.084   8.400
 1567POPC   C3A23129   8.591  42.335   8.043
 1567POPC   C4A23130   8.474  42.115   7.661
 1567POPC   C1B23131   8.187  42.712   8.701
 1567POPC   C2B23132   8.121  42.408   8.374
 1567POPC   C3B23133   8.089  42.277   7.979
 1567POPC   C4B23134   8.104  42.640   7.687
 1568POPC   NC323135   3.095  31.202   9.829
 1568POPC   PO423136   2.626  31.423   9.417
 1568POPC   GL123137   2.750  31.268   9.046
 1568POPC   GL223138   3.063  31.397   9.104
 1568POPC   C1A23139   2.555  31.365   8.673
 1568POPC   D2A23140   2.754  31.435   8.305
 1568POPC   C3A23141   2.558  31.363   7.945
 1568POPC   C4A23142   2.702  31.589   7.582
 1568POPC   C1B23143   3.119  31.304   8.678
 1568POPC   C2B23144   3.271  31.304   8.284
 1568POPC   C3B23145   3.102  31.403   7.896
 1568POPC   C4B23146   2.887  31.113   7.623
 1569POPC   NC323147   2.118  22.763   9.482
 1569POPC   PO423148   1.796  23.243   9.098
 1569POPC   GL123149   1.904  22.861   8.971
 1569POPC   GL223150   2.249  22.753   9.005
 1569POPC   C1A23151   1.692  22.815   8.581
 1569POPC   D2A23152   1.884  22.712   8.213
 1569POPC   C3A23153   2.054  23.043   7.971
 1569POPC   C4A23154   1.752  23.315   7.794
 1569POPC   C1B23155   2.266  22.856   8.603
 1569POPC   C2B23156   2.344  22.542   8.352
 1569POPC   C3B23157   2.416  22.645   7.952
 1569POPC   C4B23158   2.302  22.790   7.554
 1570POPC   NC323159  36.174  39.587   9.599
 1570POPC   PO423160  35.819  39.038   9.532
 1570POPC   GL123161  36.145  39.055   9.212
 1570POPC   GL223162  36.365  39.344   9.194
 1570POPC   C1A23163  36.042  39.035   8.785
 1570POPC   D2A23164  35.898  39.215   8.408
 1570POPC   C3A23165  36.058  39.168   8.004
 1570POPC   C4A23166  36.009  39.508   7.714
 1570POPC   C1B23167  36.093  39.522   8.904
 1570POPC   C2B23168  36.280  39.559   8.501
 1570POPC   C3B23169  36.401  39.549   8.080
 1570POPC   C4B23170  36.467  39.310   7.704
 1571POPC   NC323171  36.697  41.539   9.808
 1571POPC   PO423172  36.971  41.143   9.348
 1571POPC   GL123173  36.807  41.536   9.191
 1571POPC   GL223174  36.502  41.386   9.283
 1571POPC   C1A23175  36.950  41.685   8.768
 1571POPC   D2A23176  36.950  41.459   8.343
 1571POPC   C3A23177  37.000  41.708   7.950
 1571POPC   C4A23178  37.081  41.758   7.482
 1571POPC   C1B23179  36.484  41.442   8.818
 1571POPC   C2B23180  36.427  41.330   8.418
 1571POPC   C3B23181  36.526  41.485   7.994
 1571POPC   C4B23182  36.780  41.329   7.657
 1572POPC   NC323183  23.010  29.560   9.474
 1572POPC   PO423184  22.597  29.095   9.563
 1572POPC   GL123185  22.956  28.988   9.233
 1572POPC   GL223186  23.243  29.224   9.144
 1572POPC   C1A23187  23.074  28.928   8.768
 1572POPC   D2A23188  22.927  29.125   8.363
 1572POPC   C3A23189  23.069  28.930   7.963
 1572POPC   C4A23190  23.216  28.735   7.587
 1572POPC   C1B23191  23.136  29.450   8.757
 1572POPC   C2B23192  23.096  29.642   8.348
 1572POPC   C3B23193  23.074  29.441   7.925
 1572POPC   C4B23194  23.121  29.233   7.511
 1573POPC   NC323195  18.173  10.922   9.511
 1573POPC   PO423196  18.278  10.262   9.555
 1573POPC   GL123197  18.134  10.512   9.180
 1573POPC   GL223198  18.394  10.362   8.987
 1573POPC   C1A23199  18.122  10.721   8.734
 1573POPC   D2A23200  18.339  10.657   8.339
 1573POPC   C3A23201  18.102  10.494   8.010
 1573POPC   C4A23202  18.116  10.784   7.685
 1573POPC   C1B23203  18.580  10.280   8.610
 1573POPC   C2B23204  18.761  10.362   8.187
 1573POPC   C3B23205  18.563  10.554   7.825
 1573POPC   C4B23206  18.360  10.402   7.432
 1574POPC   NC323207  28.347   9.368   9.263
 1574POPC   PO423208  28.598   9.906   9.536
 1574POPC   GL123209  28.577   9.784   9.128
 1574POPC   GL223210  28.201   9.861   9.163
 1574POPC   C1A23211  28.657   9.571   8.722
 1574POPC   D2A23212  28.552   9.763   8.295
 1574POPC   C3A23213  28.667   9.594   7.870
 1574POPC   C4A23214  28.373   9.415   7.558
 1574POPC   C1B23215  28.250   9.894   8.725
 1574POPC   C2B23216  28.069   9.871   8.327
 1574POPC   C3B23217  28.187   9.787   7.890
 1574POPC   C4B23218  27.983   9.796   7.492
 1575POPC   NC323219  44.321  40.035   9.570
 1575POPC   PO423220  44.915  39.867   9.528
 1575POPC   GL123221  44.715  39.990   9.160
 1575POPC   GL223222  44.734  40.325   9.240
 1575POPC   C1A23223  44.712  39.874   8.711
 1575POPC   D2A23224  44.857  39.883   8.272
 1575POPC   C3A23225  44.611  39.876   7.858
 1575POPC   C4A23226  44.775  39.646   7.469
 1575POPC   C1B23227  44.618  40.373   8.788
 1575POPC   C2B23228  44.867  40.386   8.416
 1575POPC   C3B23229  44.755  40.369   7.980
 1575POPC   C4B23230  44.544  40.346   7.590
 1576POPC   NC323231  11.992   2.230   9.691
 1576POPC   PO423232  12.020   2.826   9.692
 1576POPC   GL123233  11.884   2.623   9.245
 1576POPC   GL223234  11.781   2.950   9.093
 1576POPC   C1A23235  12.082   2.457   8.820
 1576POPC   D2A23236  12.043   2.409   8.410
 1576POPC   C3A23237  12.260   2.654   8.110
 1576POPC   C4A23238  12.365   2.453   7.752
 1576POPC   C1B23239  11.883   2.916   8.654
 1576POPC   C2B23240  11.669   3.039   8.271
 1576POPC   C3B23241  11.810   3.030   7.842
 1576POPC   C4B23242  12.206   2.919   7.648
 1577POPC   NC323243   3.990  18.428   9.508
 1577POPC   PO423244   4.169  17.833   9.743
 1577POPC   GL123245   4.176  18.019   9.270
 1577POPC   GL223246   4.445  18.243   9.203
 1577POPC   C1A23247   4.137  18.268   8.812
 1577POPC   D2A23248   4.343  18.375   8.387
 1577POPC   C3A23249   4.064  18.223   8.054
 1577POPC   C4A23250   3.921  18.331   7.649
 1577POPC   C1B23251   4.612  18.528   8.834
 1577POPC   C2B23252   4.830  18.535   8.400
 1577POPC   C3B23253   4.765  18.452   7.947
 1577POPC   C4B23254   4.395  18.456   7.767
 1578POPC   NC323255  35.626  36.851   9.443
 1578POPC   PO423256  36.294  37.144   9.405
 1578POPC   GL123257  36.196  37.230   8.994
 1578POPC   GL223258  35.818  37.181   9.064
 1578POPC   C1A23259  36.083  37.085   8.574
 1578POPC   D2A23260  36.070  36.655   8.433
 1578POPC   C3A23261  36.245  36.613   8.041
 1578POPC   C4A23262  36.092  36.778   7.672
 1578POPC   C1B23263  35.669  36.842   8.792
 1578POPC   C2B23264  35.580  36.770   8.382
 1578POPC   C3B23265  35.796  36.958   8.055
 1578POPC   C4B23266  35.761  37.287   7.739
 1579POPC   NC323267  29.594  35.395   9.835
 1579POPC   PO423268  30.216  35.227   9.492
 1579POPC   GL123269  29.797  35.221   9.285
 1579POPC   GL223270  29.673  35.543   9.281
 1579POPC   C1A23271  29.616  35.215   8.835
 1579POPC   D2A23272  29.961  35.318   8.482
 1579POPC   C3A23273  30.024  35.195   8.055
 1579POPC   C4A23274  29.679  35.407   7.902
 1579POPC   C1B23275  29.960  35.596   8.921
 1579POPC   C2B23276  29.985  35.864   8.549
 1579POPC   C3B23277  29.956  35.903   8.127
 1579POPC   C4B23278  30.122  35.650   7.836
 1580POPC   NC323279  28.564  12.721   9.515
 1580POPC   PO423280  28.217  13.321   9.401
 1580POPC   GL123281  28.464  13.080   9.138
 1580POPC   GL223282  28.332  12.747   9.080
 1580POPC   C1A23283  28.407  13.047   8.691
 1580POPC   D2A23284  28.388  12.866   8.304
 1580POPC   C3A23285  28.182  13.106   7.997
 1580POPC   C4A23286  28.411  12.879   7.686
 1580POPC   C1B23287  28.471  12.507   8.729
 1580POPC   C2B23288  28.267  12.371   8.360
 1580POPC   C3B23289  28.477  12.443   7.964
 1580POPC   C4B23290  28.343  12.316   7.556
 1581POPC   NC323291  41.197  17.776   9.415
 1581POPC   PO423292  41.728  17.332   9.435
 1581POPC   GL123293  41.457  17.321   9.086
 1581POPC   GL223294  41.491  17.688   8.974
 1581POPC   C1A23295  41.544  17.283   8.648
 1581POPC   D2A23296  41.651  17.480   8.277
 1581POPC   C3A23297  41.454  17.491   7.914
 1581POPC   C4A23298  41.664  17.490   7.575
 1581POPC   C1B23299  41.290  17.747   8.544
 1581POPC   C2B23300  41.395  17.959   8.136
 1581POPC   C3B23301  41.403  17.974   7.672
 1581POPC   C4B23302  41.421  17.764   7.225
 1582POPC   NC323303  42.337  31.392   9.702
 1582POPC   PO423304  42.679  31.933   9.342
 1582POPC   GL123305  42.462  31.719   9.022
 1582POPC   GL223306  42.343  31.410   9.147
 1582POPC   C1A23307  42.301  31.565   8.645
 1582POPC   D2A23308  42.295  31.770   8.253
 1582POPC   C3A23309  42.496  31.569   7.913
 1582POPC   C4A23310  42.181  31.583   7.641
 1582POPC   C1B23311  42.247  31.077   8.832
 1582POPC   C2B23312  42.407  31.019   8.433
 1582POPC   C3B23313  42.217  31.182   8.085
 1582POPC   C4B23314  42.270  31.091   7.673
 1583POPC   NC323315  43.494  44.717   9.306
 1583POPC   PO423316  42.929  44.464   9.545
 1583POPC   GL123317  43.136  44.449   9.045
 1583POPC   GL223318  43.472  44.279   9.019
 1583POPC   C1A23319  43.071  44.606   8.637
 1583POPC   D2A23320  42.712  44.716   8.410
 1583POPC   C3A23321  42.918  44.754   8.012
 1583POPC   C4A23322  43.141   0.117   7.818
 1583POPC   C1B23323  43.398  44.154   8.624
 1583POPC   C2B23324  43.478  44.386   8.276
 1583POPC   C3B23325  43.380  44.405   7.860
 1583POPC   C4B23326  43.168  44.658   7.548
 1584POPC   NC323327  17.049   4.023   9.370
 1584POPC   PO423328  17.707   4.204   9.564
 1584POPC   GL123329  17.763   4.262   9.155
 1584POPC   GL223330  17.469   4.093   9.030
 1584POPC   C1A23331  17.858   4.321   8.741
 1584POPC   D2A23332  17.599   4.181   8.432
 1584POPC   C3A23333  17.633   4.463   8.099
 1584POPC   C4A23334  17.720   4.408   7.679
 1584POPC   C1B23335  17.173   4.010   8.675
 1584POPC   C2B23336  17.111   4.199   8.246
 1584POPC   C3B23337  17.200   4.280   7.800
 1584POPC   C4B23338  16.979   4.178   7.391
 1585POPC   NC323339  25.554   3.193   9.467
 1585POPC   PO423340  25.104   2.666   9.494
 1585POPC   GL123341  25.464   2.763   9.172
 1585POPC   GL223342  25.195   2.816   9.023
 1585POPC   C1A23343  25.532   2.924   8.689
 1585POPC   D2A23344  25.448   3.110   8.293
 1585POPC   C3A23345  25.539   2.856   7.969
 1585POPC   C4A23346  25.456   2.784   7.549
 1585POPC   C1B23347  24.981   2.619   8.732
 1585POPC   C2B23348  25.183   2.642   8.400
 1585POPC   C3B23349  25.111   2.608   8.013
 1585POPC   C4B23350  25.148   2.398   7.676
 1586POPC   NC323351  11.522  10.050   9.605
 1586POPC   PO423352  11.057   9.575   9.504
 1586POPC   GL123353  11.258   9.804   9.205
 1586POPC   GL223354  11.620   9.732   9.207
 1586POPC   C1A23355  11.258   9.803   8.780
 1586POPC   D2A23356  11.347  10.008   8.405
 1586POPC   C3A23357  11.135   9.950   8.029
 1586POPC   C4A23358  11.287   9.883   7.635
 1586POPC   C1B23359  11.638   9.484   8.826
 1586POPC   C2B23360  11.412   9.476   8.410
 1586POPC   C3B23361  11.545   9.624   8.021
 1586POPC   C4B23362  11.487   9.415   7.653
 1587POPC   NC323363  17.228  42.164   9.343
 1587POPC   PO423364  17.556  42.672   9.583
 1587POPC   GL123365  17.591  42.492   9.172
 1587POPC   GL223366  17.778  42.188   9.219
 1587POPC   C1A23367  17.345  42.510   8.752
 1587POPC   D2A23368  17.255  42.569   8.279
 1587POPC   C3A23369  17.438  42.717   7.866
 1587POPC   C4A23370  17.458  42.474   7.463
 1587POPC   C1B23371  17.660  42.100   8.759
 1587POPC   C2B23372  17.481  42.119   8.316
 1587POPC   C3B23373  17.596  42.208   7.870
 1587POPC   C4B23374  17.788  42.081   7.455
 1588POPC   NC323375  41.669  28.397   9.502
 1588POPC   PO423376  41.399  27.835   9.452
 1588POPC   GL123377  41.354  28.125   9.076
 1588POPC   GL223378  41.423  28.493   9.061
 1588POPC   C1A23379  41.568  28.216   8.664
 1588POPC   D2A23380  41.874  28.521   8.482
 1588POPC   C3A23381  41.887  28.619   8.043
 1588POPC   C4A23382  41.713  28.446   7.669
 1588POPC   C1B23383  41.109  28.417   8.712
 1588POPC   C2B23384  41.080  28.151   8.322
 1588POPC   C3B23385  41.291  28.330   7.955
 1588POPC   C4B23386  41.369  28.769   7.945
 1589POPC   NC323387  43.519   4.529   9.812
 1589POPC   PO423388  43.803   4.109   9.364
 1589POPC   GL123389  43.951   4.052   8.937
 1589POPC   GL223390  44.300   3.924   8.855
 1589POPC   C1A23391  43.889   4.002   8.519
 1589POPC   D2A23392  43.901   4.297   8.270
 1589POPC   C3A23393  43.835   4.214   7.873
 1589POPC   C4A23394  43.770   4.519   7.629
 1589POPC   C1B23395  44.404   4.346   8.751
 1589POPC   C2B23396  44.297   4.581   8.402
 1589POPC   C3B23397  44.332   4.363   8.010
 1589POPC   C4B23398  44.305   4.409   7.589
 1590POPC   NC323399  39.417  40.260   9.503
 1590POPC   PO423400  39.045  39.884   9.831
 1590POPC   GL123401  39.104  39.899   9.249
 1590POPC   GL223402  39.155  40.171   9.089
 1590POPC   C1A23403  38.894  39.854   8.820
 1590POPC   D2A23404  39.103  39.959   8.413
 1590POPC   C3A23405  38.988  39.814   7.995
 1590POPC   C4A23406  39.021  39.955   7.567
 1590POPC   C1B23407  39.350  40.234   8.763
 1590POPC   C2B23408  39.357  40.421   8.377
 1590POPC   C3B23409  39.327  40.233   7.971
 1590POPC   C4B23410  39.640  40.404   7.728
 1591POPC   NC323411  28.259  15.681   9.785
 1591POPC   PO423412  28.821  15.688   9.613
 1591POPC   GL123413  28.506  15.896   9.303
 1591POPC   GL223414  28.177  15.742   9.193
 1591POPC   C1A23415  28.551  15.841   8.840
 1591POPC   D2A23416  28.444  15.658   8.427
 1591POPC   C3A23417  28.412  16.016   8.178
 1591POPC   C4A23418  28.540  16.142   7.786
 1591POPC   C1B23419  28.036  15.826   8.734
 1591POPC   C2B23420  27.947  15.804   8.252
 1591POPC   C3B23421  28.042  15.943   7.806
 1591POPC   C4B23422  27.853  15.917   7.371
 1592POPC   NC323423  28.744  35.121   9.386
 1592POPC   PO423424  29.203  35.541   9.555
 1592POPC   GL123425  29.222  35.333   9.189
 1592POPC   GL223426  29.321  35.004   9.287
 1592POPC   C1A23427  29.142  35.479   8.773
 1592POPC   D2A23428  28.817  35.418   8.468
 1592POPC   C3A23429  28.973  35.301   8.058
 1592POPC   C4A23430  29.205  35.566   7.767
 1592POPC   C1B23431  29.117  34.958   8.860
 1592POPC   C2B23432  29.216  35.055   8.455
 1592POPC   C3B23433  29.452  34.997   8.099
 1592POPC   C4B23434  29.258  35.051   7.689
 1593POPC   NC323435  11.897  18.045   9.562
 1593POPC   PO423436  11.746  18.715   9.494
 1593POPC   GL123437  11.812  18.379   9.181
 1593POPC   GL223438  12.167  18.292   9.138
 1593POPC   C1A23439  11.687  18.172   8.783
 1593POPC   D2A23440  11.740  18.029   8.339
 1593POPC   C3A23441  11.994  18.257   8.020
 1593POPC   C4A23442  11.720  18.097   7.752
 1593POPC   C1B23443  12.399  18.231   8.734
 1593POPC   C2B23444  12.682  18.494   8.456
 1593POPC   C3B23445  12.577  18.443   8.011
 1593POPC   C4B23446  12.433  18.085   7.786
 1594POPC   NC323447  29.458  33.641   9.627
 1594POPC   PO423448  29.042  34.011   9.531
 1594POPC   GL123449  29.201  33.866   9.159
 1594POPC   GL223450  29.434  34.076   9.161
 1594POPC   C1A23451  29.091  33.699   8.743
 1594POPC   D2A23452  29.076  33.375   8.402
 1594POPC   C3A23453  29.160  33.447   7.974
 1594POPC   C4A23454  28.990  33.728   7.697
 1594POPC   C1B23455  29.477  34.177   8.743
 1594POPC   C2B23456  29.267  34.027   8.376
 1594POPC   C3B23457  29.059  34.174   8.022
 1594POPC   C4B23458  29.256  34.153   7.636
 1595POPC   NC323459  33.344  17.695   9.474
 1595POPC   PO423460  32.761  17.522   9.844
 1595POPC   GL123461  32.835  17.659   9.352
 1595POPC   GL223462  32.896  17.928   9.139
 1595POPC   C1A23463  32.963  17.508   8.870
 1595POPC   D2A23464  33.038  17.321   8.431
 1595POPC   C3A23465  33.280  17.363   8.041
 1595POPC   C4A23466  33.027  17.406   7.674
 1595POPC   C1B23467  33.262  17.939   8.837
 1595POPC   C2B23468  33.398  17.694   8.471
 1595POPC   C3B23469  33.407  17.857   8.065
 1595POPC   C4B23470  33.323  17.828   7.644
 1596POPC   NC323471  29.325  35.934   9.361
 1596POPC   PO423472  29.478  36.546   9.314
 1596POPC   GL123473  29.270  36.327   9.002
 1596POPC   GL223474  28.949  36.221   9.094
 1596POPC   C1A23475  29.215  35.994   8.685
 1596POPC   D2A23476  29.193  35.820   8.268
 1596POPC   C3A23477  29.136  36.189   8.017
 1596POPC   C4A23478  29.261  36.301   7.607
 1596POPC   C1B23479  28.762  35.865   8.887
 1596POPC   C2B23480  28.702  35.908   8.432
 1596POPC   C3B23481  28.737  35.758   8.028
 1596POPC   C4B23482  28.886  35.952   7.654
 1597POPC   NC323483  10.063  40.694   9.520
 1597POPC   PO423484   9.343  40.581   9.585
 1597POPC   GL123485   9.645  40.530   9.206
 1597POPC   GL223486   9.995  40.494   9.063
 1597POPC   C1A23487   9.586  40.707   8.800
 1597POPC   D2A23488   9.411  40.635   8.391
 1597POPC   C3A23489   9.450  41.018   8.182
 1597POPC   C4A23490   9.748  41.048   7.859
 1597POPC   C1B23491  10.089  40.741   8.704
 1597POPC   C2B23492   9.908  40.812   8.315
 1597POPC   C3B23493  10.146  40.753   7.939
 1597POPC   C4B23494   9.987  40.627   7.577
 1598POPC   NC323495   5.815   0.093   9.492
 1598POPC   PO423496   6.306   0.525   9.375
 1598POPC   GL123497   5.995   0.343   9.081
 1598POPC   GL223498   6.051  44.978   9.042
 1598POPC   C1A23499   5.763   0.479   8.687
 1598POPC   D2A23500   5.633   0.375   8.246
 1598POPC   C3A23501   5.612   0.701   7.887
 1598POPC   C4A23502   5.624   0.688   7.432
 1598POPC   C1B23503   5.931   0.001   8.601
 1598POPC   C2B23504   6.046   0.048   8.166
 1598POPC   C3B23505   5.961   0.334   7.816
 1598POPC   C4B23506   6.193   0.413   7.443
 1599POPC   NC323507   9.200  34.981   9.514
 1599POPC   PO423508   8.910  34.381   9.497
 1599POPC   GL123509   8.920  34.600   9.086
 1599POPC   GL223510   9.219  34.848   9.022
 1599POPC   C1A23511   8.810  34.438   8.641
 1599POPC   D2A23512   8.999  34.438   8.202
 1599POPC   C3A23513   8.798  34.246   7.829
 1599POPC   C4A23514   8.598  34.452   7.463
 1599POPC   C1B23515   9.311  34.531   8.725
 1599POPC   C2B23516   9.505  34.504   8.328
 1599POPC   C3B23517   9.408  34.734   7.954
 1599POPC   C4B23518   9.054  34.640   7.667
 1600POPC   NC323519  10.068  36.353   9.391
 1600POPC   PO423520  10.674  36.121   9.624
 1600POPC   GL123521  10.738  36.055   9.235
 1600POPC   GL223522  10.534  36.297   9.137
 1600POPC   C1A23523  10.778  35.972   8.802
 1600POPC   D2A23524  10.675  35.744   8.428
 1600POPC   C3A23525  10.714  36.014   8.083
 1600POPC   C4A23526  10.640  35.969   7.672
 1600POPC   C1B23527  10.360  36.317   8.731
 1600POPC   C2B23528  10.491  36.467   8.333
 1600POPC   C3B23529  10.374  36.415   7.903
 1600POPC   C4B23530  10.063  36.576   7.621
 1601POPC   NC323531  28.114   7.585   9.524
 1601POPC   PO423532  28.648   7.294   9.498
 1601POPC   GL123533  28.394   7.313   9.155
 1601POPC   GL223534  28.361   7.668   9.101
 1601POPC   C1A23535  28.455   7.191   8.731
 1601POPC   D2A23536  28.276   7.303   8.311
 1601POPC   C3A23537  28.264   7.105   7.905
 1601POPC   C4A23538  28.539   7.161   7.540
 1601POPC   C1B23539  28.177   7.602   8.712
 1601POPC   C2B23540  28.280   7.804   8.324
 1601POPC   C3B23541  28.420   7.599   7.925
 1601POPC   C4B23542  28.185   7.517   7.573
 1602POPC   NC323543  22.889  37.220   9.377
 1602POPC   PO423544  23.044  36.614   9.694
 1602POPC   GL123545  23.127  36.786   9.188
 1602POPC   GL223546  22.848  36.977   8.941
 1602POPC   C1A23547  23.303  36.886   8.747
 1602POPC   D2A23548  22.983  36.886   8.454
 1602POPC   C3A23549  22.975  37.023   8.062
 1602POPC   C4A23550  23.260  36.953   7.748
 1602POPC   C1B23551  22.651  37.244   8.597
 1602POPC   C2B23552  22.544  37.423   8.191
 1602POPC   C3B23553  22.534  37.173   7.813
 1602POPC   C4B23554  22.593  37.198   7.366
 1603POPC   NC323555  12.743  33.669   9.422
 1603POPC   PO423556  13.053  34.262   9.420
 1603POPC   GL123557  12.765  34.050   9.116
 1603POPC   GL223558  13.071  33.866   9.062
 1603POPC   C1A23559  12.771  33.696   8.725
 1603POPC   D2A23560  12.969  33.558   8.324
 1603POPC   C3A23561  12.786  33.801   7.971
 1603POPC   C4A23562  12.619  33.847   7.547
 1603POPC   C1B23563  13.295  33.696   8.727
 1603POPC   C2B23564  13.459  33.763   8.300
 1603POPC   C3B23565  13.280  33.673   7.913
 1603POPC   C4B23566  13.141  33.858   7.514
 1604POPC   NC323567  44.832  31.251   9.478
 1604POPC   PO423568  44.206  31.089   9.535
 1604POPC   GL123569  44.407  31.308   9.182
 1604POPC   GL223570  44.721  31.282   8.981
 1604POPC   C1A23571  44.340  31.650   8.879
 1604POPC   D2A23572  44.211  31.723   8.441
 1604POPC   C3A23573  44.358  31.403   8.134
 1604POPC   C4A23574  44.534  31.583   7.759
 1604POPC   C1B23575  44.955  31.165   8.603
 1604POPC   C2B23576   0.014  31.420   8.233
 1604POPC   C3B23577  44.988  31.370   7.803
 1604POPC   C4B23578   0.025  31.350   7.351
 1605POPC   NC323579   8.578  27.681   9.587
 1605POPC   PO423580   9.182  27.905   9.632
 1605POPC   GL123581   8.988  27.940   9.222
 1605POPC   GL223582   8.895  27.599   9.181
 1605POPC   C1A23583   9.116  27.846   8.776
 1605POPC   D2A23584   9.103  27.793   8.317
 1605POPC   C3A23585   8.775  27.924   8.076
 1605POPC   C4A23586   8.705  27.880   7.640
 1605POPC   C1B23587   8.779  27.425   8.767
 1605POPC   C2B23588   8.758  27.433   8.313
 1605POPC   C3B23589   8.975  27.475   7.876
 1605POPC   C4B23590   9.035  27.365   7.416
 1606POPC   NC323591   3.034  33.898   9.460
 1606POPC   PO423592   2.419  33.752   9.207
 1606POPC   GL123593   2.784  33.820   9.013
 1606POPC   GL223594   2.912  33.492   9.142
 1606POPC   C1A23595   2.896  33.954   8.593
 1606POPC   D2A23596   2.999  33.820   8.174
 1606POPC   C3A23597   2.831  34.091   7.883
 1606POPC   C4A23598   2.601  34.157   7.460
 1606POPC   C1B23599   3.179  33.534   8.772
 1606POPC   C2B23600   3.272  33.397   8.353
 1606POPC   C3B23601   3.155  33.415   7.881
 1606POPC   C4B23602   2.848  33.660   7.618
 1607POPC   NC323603  31.683  10.077   9.242
 1607POPC   PO423604  31.248   9.617   9.592
 1607POPC   GL123605  31.523   9.548   9.138
 1607POPC   GL223606  31.234   9.422   9.077
 1607POPC   C1A23607  31.528   9.696   8.676
 1607POPC   D2A23608  31.247   9.960   8.431
 1607POPC   C3A23609  31.462  10.144   8.104
 1607POPC   C4A23610  31.476   9.976   7.698
 1607POPC   C1B23611  31.252   9.192   8.724
 1607POPC   C2B23612  31.304   9.377   8.346
 1607POPC   C3B23613  31.297   9.647   8.035
 1607POPC   C4B23614  31.272   9.472   7.669
 1608POPC   NC323615  36.488  14.102   9.427
 1608POPC   PO423616  36.183  13.416   9.401
 1608POPC   GL123617  36.102  13.611   9.023
 1608POPC   GL223618  36.164  13.976   9.027
 1608POPC   C1A23619  36.156  13.414   8.634
 1608POPC   D2A23620  36.319  13.242   8.263
 1608POPC   C3A23621  36.147  13.413   7.927
 1608POPC   C4A23622  36.049  13.768   7.692
 1608POPC   C1B23623  36.408  13.878   8.686
 1608POPC   C2B23624  36.258  13.788   8.286
 1608POPC   C3B23625  36.344  14.040   7.978
 1608POPC   C4B23626  36.575  14.002   7.646
 1609POPC   NC323627  40.767  33.244   9.519
 1609POPC   PO423628  40.535  32.631   9.425
 1609POPC   GL123629  40.728  32.955   9.092
 1609POPC   GL223630  40.641  33.347   9.050
 1609POPC   C1A23631  41.055  33.135   8.817
 1609POPC   D2A23632  41.136  32.951   8.417
 1609POPC   C3A23633  40.951  33.058   8.010
 1609POPC   C4A23634  41.035  32.881   7.585
 1609POPC   C1B23635  40.586  33.200   8.631
 1609POPC   C2B23636  40.486  33.405   8.240
 1609POPC   C3B23637  40.244  33.219   7.922
 1609POPC   C4B23638  40.500  32.872   7.809
 1610POPC   NC323639  30.577  21.045   9.567
 1610POPC   PO423640  31.065  21.448   9.659
 1610POPC   GL123641  30.859  21.331   9.207
 1610POPC   GL223642  30.492  21.278   9.129
 1610POPC   C1A23643  30.875  21.315   8.763
 1610POPC   D2A23644  30.992  21.377   8.329
 1610POPC   C3A23645  30.784  21.288   7.929
 1610POPC   C4A23646  30.653  21.670   7.724
 1610POPC   C1B23647  30.397  21.515   8.759
 1610POPC   C2B23648  30.103  21.615   8.458
 1610POPC   C3B23649  30.231  21.707   8.059
 1610POPC   C4B23650  30.273  21.346   7.801
 1611POPC   NC323651   3.016   7.586   9.617
 1611POPC   PO423652   2.440   7.237   9.475
 1611POPC   GL123653   2.616   7.513   9.180
 1611POPC   GL223654   2.982   7.427   9.152
 1611POPC   C1A23655   2.661   7.473   8.726
 1611POPC   D2A23656   2.758   7.204   8.368
 1611POPC   C3A23657   2.647   7.394   7.953
 1611POPC   C4A23658   2.572   7.366   7.503
 1611POPC   C1B23659   3.173   7.441   8.788
 1611POPC   C2B23660   3.056   7.656   8.420
 1611POPC   C3B23661   3.140   7.431   8.051
 1611POPC   C4B23662   3.022   7.587   7.654
 1612POPC   NC323663  34.011  29.453   9.390
 1612POPC   PO423664  33.521  29.142   9.721
 1612POPC   GL123665  33.471  29.224   9.252
 1612POPC   GL223666  33.755  29.075   9.092
 1612POPC   C1A23667  33.417  29.321   8.772
 1612POPC   D2A23668  33.328  29.144   8.350
 1612POPC   C3A23669  33.532  29.349   8.029
 1612POPC   C4A23670  33.407  29.515   7.657
 1612POPC   C1B23671  33.949  29.347   8.766
 1612POPC   C2B23672  33.897  29.218   8.375
 1612POPC   C3B23673  33.773  28.874   8.137
 1612POPC   C4B23674  33.841  29.020   7.735
 1613POPC   NC323675   2.617  30.930   9.402
 1613POPC   PO423676   3.066  30.710   9.853
 1613POPC   GL123677   2.990  30.641   9.269
 1613POPC   GL223678   2.641  30.662   8.997
 1613POPC   C1A23679   3.070  30.825   8.842
 1613POPC   D2A23680   2.806  30.959   8.497
 1613POPC   C3A23681   2.938  30.932   8.090
 1613POPC   C4A23682   2.964  30.621   7.752
 1613POPC   C1B23683   2.345  30.876   8.714
 1613POPC   C2B23684   2.313  30.993   8.260
 1613POPC   C3B23685   2.484  30.842   7.855
 1613POPC   C4B23686   2.545  30.694   7.416
 1614POPC   NC323687  38.781   5.268   9.530
 1614POPC   PO423688  38.411   4.703   9.386
 1614POPC   GL123689  38.686   4.956   9.132
 1614POPC   GL223690  38.426   5.227   9.127
 1614POPC   C1A23691  38.788   5.195   8.739
 1614POPC   D2A23692  38.776   5.344   8.289
 1614POPC   C3A23693  38.775   4.963   7.975
 1614POPC   C4A23694  38.837   4.965   7.499
 1614POPC   C1B23695  38.311   4.931   8.784
 1614POPC   C2B23696  38.422   4.986   8.389
 1614POPC   C3B23697  38.328   5.207   8.050
 1614POPC   C4B23698  38.347   5.062   7.658
 1615POPC   NC323699  20.897  21.804   9.504
 1615POPC   PO423700  20.536  21.151   9.592
 1615POPC   GL123701  20.535  21.326   9.187
 1615POPC   GL223702  20.866  21.459   9.134
 1615POPC   C1A23703  20.611  21.222   8.780
 1615POPC   D2A23704  20.617  21.509   8.483
 1615POPC   C3A23705  20.520  21.308   8.109
 1615POPC   C4A23706  20.621  21.404   7.702
 1615POPC   C1B23707  21.004  21.800   8.836
 1615POPC   C2B23708  20.967  21.926   8.413
 1615POPC   C3B23709  20.784  21.772   8.032
 1615POPC   C4B23710  20.861  21.857   7.594
 1616POPC   NC323711  39.715  20.481   9.465
 1616POPC   PO423712  40.207  20.928   9.504
 1616POPC   GL123713  39.942  20.832   9.153
 1616POPC   GL223714  39.600  20.926   9.051
 1616POPC   C1A23715  40.035  20.633   8.766
 1616POPC   D2A23716  40.159  20.336   8.436
 1616POPC   C3A23717  40.141  20.522   8.016
 1616POPC   C4A23718  40.034  20.368   7.619
 1616POPC   C1B23719  39.529  20.638   8.705
 1616POPC   C2B23720  39.739  20.772   8.336
 1616POPC   C3B23721  39.638  21.043   8.001
 1616POPC   C4B23722  39.671  20.708   7.762
 1617POPC   NC323723  43.306  22.376   9.416
 1617POPC   PO423724  42.699  22.048   9.467
 1617POPC   GL123725  42.915  22.223   9.095
 1617POPC   GL223726  43.231  22.048   9.040
 1617POPC   C1A23727  42.990  22.227   8.625
 1617POPC   D2A23728  43.232  22.339   8.237
 1617POPC   C3A23729  43.077  22.237   7.814
 1617POPC   C4A23730  43.225  21.931   7.530
 1617POPC   C1B23731  43.499  22.287   8.738
 1617POPC   C2B23732  43.692  22.101   8.376
 1617POPC   C3B23733  43.602  22.091   7.957
 1617POPC   C4B23734  43.520  22.485   7.796
 1618POPC   NC323735  30.316  24.860   9.359
 1618POPC   PO423736  30.864  24.533   9.668
 1618POPC   GL123737  30.753  24.643   9.265
 1618POPC   GL223738  30.525  24.379   9.253
 1618POPC   C1A23739  30.689  24.656   8.806
 1618POPC   D2A23740  30.370  24.768   8.464
 1618POPC   C3A23741  30.483  24.717   8.010
 1618POPC   C4A23742  30.850  24.633   7.782
 1618POPC   C1B23743  30.432  24.207   8.854
 1618POPC   C2B23744  30.504  24.098   8.440
 1618POPC   C3B23745  30.640  24.210   8.032
 1618POPC   C4B23746  30.409  24.287   7.701
 1619POPC   NC323747   8.161  17.778   9.528
 1619POPC   PO423748   8.073  17.127   9.497
 1619POPC   GL123749   7.970  17.389   9.176
 1619POPC   GL223750   8.287  17.511   9.081
 1619POPC   C1A23751   7.894  17.478   8.733
 1619POPC   D2A23752   8.112  17.437   8.350
 1619POPC   C3A23753   7.905  17.559   7.985
 1619POPC   C4A23754   8.062  17.494   7.584
 1619POPC   C1B23755   8.548  17.609   8.703
 1619POPC   C2B23756   8.429  17.847   8.311
 1619POPC   C3B23757   8.365  17.822   7.854
 1619POPC   C4B23758   8.518  17.725   7.433
 1620POPC   NC323759  15.587  22.705   9.505
 1620POPC   PO423760  16.090  22.426   9.364
 1620POPC   GL123761  16.049  22.781   9.084
 1620POPC   GL223762  15.813  23.064   9.173
 1620POPC   C1A23763  16.150  22.865   8.645
 1620POPC   D2A23764  16.343  22.873   8.258
 1620POPC   C3A23765  16.040  22.923   7.950
 1620POPC   C4A23766  15.998  22.705   7.557
 1620POPC   C1B23767  15.663  22.989   8.752
 1620POPC   C2B23768  15.775  23.158   8.346
 1620POPC   C3B23769  15.550  23.033   7.973
 1620POPC   C4B23770  15.490  22.790   7.595
 1621POPC   NC323771  20.244  30.646   9.466
 1621POPC   PO423772  19.671  30.753   9.407
 1621POPC   GL123773  19.813  31.036   9.123
 1621POPC   GL223774  19.476  31.026   9.040
 1621POPC   C1A23775  20.007  30.911   8.731
 1621POPC   D2A23776  20.132  30.575   8.437
 1621POPC   C3A23777  19.920  30.562   8.029
 1621POPC   C4A23778  19.970  30.874   7.737
 1621POPC   C1B23779  19.507  30.823   8.675
 1621POPC   C2B23780  19.680  30.916   8.315
 1621POPC   C3B23781  19.498  30.884   7.923
 1621POPC   C4B23782  19.554  30.573   7.616
 1622POPC   NC323783  42.758  28.704   9.347
 1622POPC   PO423784  42.110  28.504   9.435
 1622POPC   GL123785  42.408  28.447   9.097
 1622POPC   GL223786  42.479  28.120   8.965
 1622POPC   C1A23787  42.602  28.564   8.722
 1622POPC   D2A23788  42.359  28.399   8.411
 1622POPC   C3A23789  42.404  28.472   8.003
 1622POPC   C4A23790  42.364  28.127   7.768
 1622POPC   C1B23791  42.079  28.133   8.792
 1622POPC   C2B23792  41.934  27.974   8.417
 1622POPC   C3B23793  41.912  28.117   8.024
 1622POPC   C4B23794  41.880  27.939   7.632
 1623POPC   NC323795  15.192  42.226   9.396
 1623POPC   PO423796  15.327  42.852   9.541
 1623POPC   GL123797  15.074  42.674   9.110
 1623POPC   GL223798  14.982  42.289   8.951
 1623POPC   C1A23799  14.995  42.670   8.636
 1623POPC   D2A23800  15.177  42.372   8.347
 1623POPC   C3A23801  15.000  42.352   7.937
 1623POPC   C4A23802  15.165  42.397   7.541
 1623POPC   C1B23803  15.395  42.168   8.774
 1623POPC   C2B23804  15.519  41.992   8.381
 1623POPC   C3B23805  15.566  42.154   7.975
 1623POPC   C4B23806  15.604  42.069   7.557
 1624POPC   NC323807   1.126  27.764   9.503
 1624POPC   PO423808   1.545  27.263   9.543
 1624POPC   GL123809   1.453  27.398   9.146
 1624POPC   GL223810   1.114  27.377   9.160
 1624POPC   C1A23811   1.513  27.493   8.702
 1624POPC   D2A23812   1.444  27.676   8.284
 1624POPC   C3A23813   1.400  27.446   7.916
 1624POPC   C4A23814   1.268  27.543   7.485
 1624POPC   C1B23815   0.995  27.614   8.793
 1624POPC   C2B23816   0.922  27.859   8.437
 1624POPC   C3B23817   0.986  27.738   8.030
 1624POPC   C4B23818   1.151  27.989   7.746
 1625POPC   NC323819  44.252  34.085   9.482
 1625POPC   PO423820  44.702  33.575   9.400
 1625POPC   GL123821  44.458  33.785   9.122
 1625POPC   GL223822  44.756  33.842   8.972
 1625POPC   C1A23823  44.331  33.783   8.712
 1625POPC   D2A23824  44.572  33.810   8.313
 1625POPC   C3A23825  44.354  33.773   7.941
 1625POPC   C4A23826  44.694  33.581   7.816
 1625POPC   C1B23827  44.850  34.078   8.653
 1625POPC   C2B23828   0.205  34.133   8.413
 1625POPC   C3B23829   0.050  33.904   8.083
 1625POPC   C4B23830  44.785  34.068   7.775
 1626POPC   NC323831  16.937   9.457   9.688
 1626POPC   PO423832  17.355  10.072   9.625
 1626POPC   GL123833  17.328   9.890   9.226
 1626POPC   GL223834  17.109  10.186   9.182
 1626POPC   C1A23835  17.571   9.756   8.824
 1626POPC   D2A23836  17.353   9.680   8.437
 1626POPC   C3A23837  17.507   9.503   8.064
 1626POPC   C4A23838  17.487   9.454   7.650
 1626POPC   C1B23839  17.296  10.178   8.796
 1626POPC   C2B23840  17.508  10.180   8.403
 1626POPC   C3B23841  17.363  10.011   8.023
 1626POPC   C4B23842  17.553   9.962   7.626
 1627POPC   NC323843  29.947   7.640   9.524
 1627POPC   PO423844  29.605   7.013   9.433
 1627POPC   GL123845  29.727   7.334   9.175
 1627POPC   GL223846  30.075   7.316   9.098
 1627POPC   C1A23847  29.692   7.520   8.770
 1627POPC   D2A23848  29.686   7.668   8.355
 1627POPC   C3A23849  29.759   7.281   8.119
 1627POPC   C4A23850  29.888   7.285   7.704
 1627POPC   C1B23851  30.158   7.688   8.910
 1627POPC   C2B23852  30.178   7.826   8.499
 1627POPC   C3B23853  30.159   7.602   8.107
 1627POPC   C4B23854  30.325   7.561   7.704
 1628POPC   NC323855  19.046  22.642   9.763
 1628POPC   PO423856  18.903  22.041   9.444
 1628POPC   GL123857  18.969  22.147   9.069
 1628POPC   GL223858  18.679  22.390   9.085
 1628POPC   C1A23859  19.193  22.291   8.703
 1628POPC   D2A23860  19.413  22.420   8.349
 1628POPC   C3A23861  19.258  22.131   8.071
 1628POPC   C4A23862  19.564  22.008   7.824
 1628POPC   C1B23863  18.676  22.194   8.670
 1628POPC   C2B23864  18.844  21.929   8.387
 1628POPC   C3B23865  18.761  21.956   7.992
 1628POPC   C4B23866  18.842  22.233   7.688
 1629POPC   NC323867  24.093  24.396   9.662
 1629POPC   PO423868  24.687  24.539   9.421
 1629POPC   GL123869  24.298  24.444   9.177
 1629POPC   GL223870  24.012  24.696   9.241
 1629POPC   C1A23871  24.311  24.255   8.760
 1629POPC   D2A23872  24.534  24.534   8.493
 1629POPC   C3A23873  24.489  24.477   8.075
 1629POPC   C4A23874  24.815  24.352   7.782
 1629POPC   C1B23875  23.921  24.577   8.805
 1629POPC   C2B23876  23.971  24.410   8.369
 1629POPC   C3B23877  24.019  24.313   7.908
 1629POPC   C4B23878  24.347  24.462   7.590
 1630POPC   NC323879   8.384   6.639   9.704
 1630POPC   PO423880   8.136   6.232   9.293
 1630POPC   GL123881   8.341   6.622   9.134
 1630POPC   GL223882   8.555   6.906   9.299
 1630POPC   C1A23883   8.311   6.631   8.668
 1630POPC   D2A23884   8.412   6.612   8.219
 1630POPC   C3A23885   8.043   6.815   7.964
 1630POPC   C4A23886   7.662   6.754   7.693
 1630POPC   C1B23887   8.627   6.959   8.867
 1630POPC   C2B23888   8.539   7.064   8.462
 1630POPC   C3B23889   8.484   7.082   8.017
 1630POPC   C4B23890   8.491   6.743   7.731
 1631POPC   NC323891  18.433  20.985   9.673
 1631POPC   PO423892  18.112  21.527   9.526
 1631POPC   GL123893  18.326  21.461   9.165
 1631POPC   GL223894  18.544  21.191   9.197
 1631POPC   C1A23895  18.191  21.361   8.778
 1631POPC   D2A23896  18.374  21.474   8.399
 1631POPC   C3A23897  18.072  21.336   8.130
 1631POPC   C4A23898  17.955  21.449   7.738
 1631POPC   C1B23899  18.612  21.079   8.745
 1631POPC   C2B23900  18.589  21.036   8.254
 1631POPC   C3B23901  18.509  21.294   7.836
 1631POPC   C4B23902  18.450  21.296   7.358
 1632POPC   NC323903  20.637   8.584   9.408
 1632POPC   PO423904  20.833   7.941   9.492
 1632POPC   GL123905  20.729   8.129   9.130
 1632POPC   GL223906  20.972   8.379   9.080
 1632POPC   C1A23907  20.488   8.031   8.771
 1632POPC   D2A23908  20.398   8.116   8.358
 1632POPC   C3A23909  20.612   7.926   7.996
 1632POPC   C4A23910  20.440   8.028   7.603
 1632POPC   C1B23911  20.871   8.331   8.632
 1632POPC   C2B23912  20.794   8.376   8.171
 1632POPC   C3B23913  20.862   8.462   7.739
 1632POPC   C4B23914  20.971   8.483   7.264
 1633POPC   NC323915   1.442  17.272   9.588
 1633POPC   PO423916   1.057  17.719   9.643
 1633POPC   GL123917   1.150  17.705   9.208
 1633POPC   GL223918   1.252  17.375   9.128
 1633POPC   C1A23919   1.300  17.898   8.837
 1633POPC   D2A23920   1.099  17.898   8.446
 1633POPC   C3A23921   1.251  17.814   8.027
 1633POPC   C4A23922   1.546  17.669   7.725
 1633POPC   C1B23923   1.125  17.443   8.700
 1633POPC   C2B23924   1.364  17.416   8.321
 1633POPC   C3B23925   1.333  17.256   7.897
 1633POPC   C4B23926   1.397  17.269   7.403
 1634POPC   NC323927  13.338   9.899   9.514
 1634POPC   PO423928  13.856  10.310   9.524
 1634POPC   GL123929  13.637  10.046   9.107
 1634POPC   GL223930  13.429   9.677   9.073
 1634POPC   C1A23931  13.537   9.924   8.645
 1634POPC   D2A23932  13.479   9.587   8.294
 1634POPC   C3A23933  13.562   9.658   7.836
 1634POPC   C4A23934  13.810   9.767   7.457
 1634POPC   C1B23935  13.163   9.416   8.726
 1634POPC   C2B23936  13.230   9.132   8.340
 1634POPC   C3B23937  13.483   9.145   7.930
 1634POPC   C4B23938  13.574   9.269   7.475
 1635POPC   NC323939   1.452  11.993   9.640
 1635POPC   PO423940   0.956  12.265   9.543
 1635POPC   GL123941   1.163  12.041   9.180
 1635POPC   GL223942   1.479  11.881   9.135
 1635POPC   C1A23943   1.061  12.000   8.745
 1635POPC   D2A23944   0.797  12.280   8.460
 1635POPC   C3A23945   0.837  12.225   8.005
 1635POPC   C4A23946   1.063  11.889   7.885
 1635POPC   C1B23947   1.479  11.692   8.744
 1635POPC   C2B23948   1.331  11.869   8.319
 1635POPC   C3B23949   1.497  12.118   7.928
 1635POPC   C4B23950   1.575  12.013   7.484
 1636POPC   NC323951  33.991   9.551   9.348
 1636POPC   PO423952  33.711   8.949   9.542
 1636POPC   GL123953  33.758   9.044   9.153
 1636POPC   GL223954  34.095   8.908   9.194
 1636POPC   C1A23955  33.563   8.842   8.776
 1636POPC   D2A23956  33.724   8.617   8.426
 1636POPC   C3A23957  33.610   8.836   8.087
 1636POPC   C4A23958  33.450   8.599   7.816
 1636POPC   C1B23959  34.059   8.850   8.765
 1636POPC   C2B23960  34.015   9.035   8.376
 1636POPC   C3B23961  34.083   9.001   7.962
 1636POPC   C4B23962  34.052   9.272   7.652
 1637POPC   NC323963  34.847   0.622   9.521
 1637POPC   PO423964  34.378   0.163   9.277
 1637POPC   GL123965  34.611   0.428   9.072
 1637POPC   GL223966  34.730   0.769   9.052
 1637POPC   C1A23967  34.525   0.489   8.634
 1637POPC   D2A23968  34.361   0.171   8.379
 1637POPC   C3A23969  34.279   0.361   8.014
 1637POPC   C4A23970  34.510   0.364   7.690
 1637POPC   C1B23971  35.006   0.463   8.797
 1637POPC   C2B23972  34.980   0.425   8.368
 1637POPC   C3B23973  34.703   0.654   8.101
 1637POPC   C4B23974  34.773   0.816   7.702
 1638POPC   NC323975  15.707  34.479   9.518
 1638POPC   PO423976  15.079  34.595   9.508
 1638POPC   GL123977  15.356  34.554   9.162
 1638POPC   GL223978  15.362  34.224   9.046
 1638POPC   C1A23979  15.252  34.694   8.777
 1638POPC   D2A23980  14.950  34.733   8.462
 1638POPC   C3A23981  15.105  34.782   8.028
 1638POPC   C4A23982  14.802  34.711   7.679
 1638POPC   C1B23983  15.217  34.194   8.634
 1638POPC   C2B23984  15.143  34.317   8.215
 1638POPC   C3B23985  15.151  34.311   7.770
 1638POPC   C4B23986  15.538  34.175   7.693
 1639POPC   NC323987  29.602  37.309   9.490
 1639POPC   PO423988  29.898  37.890   9.335
 1639POPC   GL123989  30.084  37.634   9.053
 1639POPC   GL223990  29.824  37.423   9.054
 1639POPC   C1A23991  30.162  37.710   8.625
 1639POPC   D2A23992  29.897  37.771   8.280
 1639POPC   C3A23993  30.054  37.590   7.959
 1639POPC   C4A23994  30.066  37.776   7.609
 1639POPC   C1B23995  29.665  37.548   8.674
 1639POPC   C2B23996  29.566  37.372   8.268
 1639POPC   C3B23997  29.656  37.289   7.830
 1639POPC   C4B23998  29.646  37.545   7.456
 1640POPC   NC323999  39.597  41.865   9.525
 1640POPC   PO424000  40.261  41.562   9.527
 1640POPC   GL124001  39.921  41.507   9.271
 1640POPC   GL224002  40.141  41.411   9.030
 1640POPC   C1A24003  39.715  41.587   8.856
 1640POPC   D2A24004  39.993  41.497   8.499
 1640POPC   C3A24005  39.777  41.399   8.126
 1640POPC   C4A24006  39.772  41.670   7.758
 1640POPC   C1B24007  40.401  41.178   8.746
 1640POPC   C2B24008  40.477  41.389   8.351
 1640POPC   C3B24009  40.229  41.627   8.039
 1640POPC   C4B24010  40.278  41.495   7.658
 1641POPC   NC324011  31.336  40.895   9.372
 1641POPC   PO424012  31.802  40.451   9.449
 1641POPC   GL124013  31.599  40.561   9.073
 1641POPC   GL224014  31.766  40.883   9.097
 1641POPC   C1A24015  31.227  40.634   8.763
 1641POPC   D2A24016  31.202  40.928   8.399
 1641POPC   C3A24017  31.399  40.772   8.057
 1641POPC   C4A24018  31.356  40.616   7.636
 1641POPC   C1B24019  31.613  40.972   8.734
 1641POPC   C2B24020  31.677  41.143   8.375
 1641POPC   C3B24021  31.813  41.080   7.997
 1641POPC   C4B24022  31.870  40.784   7.715
 1642POPC   NC324023  38.375  38.983   9.776
 1642POPC   PO424024  38.597  39.477   9.410
 1642POPC   GL124025  38.346  39.352   9.058
 1642POPC   GL224026  38.195  39.001   9.091
 1642POPC   C1A24027  38.323  39.395   8.605
 1642POPC   D2A24028  38.682  39.262   8.368
 1642POPC   C3A24029  38.627  39.278   7.935
 1642POPC   C4A24030  38.749  39.515   7.589
 1642POPC   C1B24031  38.391  38.910   8.671
 1642POPC   C2B24032  38.290  38.947   8.240
 1642POPC   C3B24033  38.347  38.862   7.818
 1642POPC   C4B24034  38.467  39.072   7.441
 1643POPC   NC324035   5.212   8.640   9.263
 1643POPC   PO424036   5.111   8.218   9.721
 1643POPC   GL124037   5.015   8.207   9.168
 1643POPC   GL224038   5.365   8.267   8.958
 1643POPC   C1A24039   4.957   8.440   8.717
 1643POPC   D2A24040   5.336   8.432   8.465
 1643POPC   C3A24041   5.219   8.436   8.044
 1643POPC   C4A24042   5.339   8.309   7.647
 1643POPC   C1B24043   5.129   7.964   8.718
 1643POPC   C2B24044   4.974   8.063   8.323
 1643POPC   C3B24045   5.032   7.934   7.891
 1643POPC   C4B24046   5.312   7.610   7.791
 1644POPC   NC324047  31.076  36.207   9.377
 1644POPC   PO424048  30.391  36.202   9.355
 1644POPC   GL124049  30.656  36.214   9.051
 1644POPC   GL224050  30.800  35.908   9.030
 1644POPC   C1A24051  30.766  36.216   8.635
 1644POPC   D2A24052  30.848  35.954   8.306
 1644POPC   C3A24053  30.835  36.286   7.972
 1644POPC   C4A24054  30.760  36.175   7.535
 1644POPC   C1B24055  30.462  35.801   8.721
 1644POPC   C2B24056  30.417  35.638   8.285
 1644POPC   C3B24057  30.636  35.752   7.877
 1644POPC   C4B24058  30.401  35.833   7.479
 1645POPC   NC324059  26.661   5.879   9.471
 1645POPC   PO424060  27.264   5.655   9.523
 1645POPC   GL124061  26.959   5.774   9.107
 1645POPC   GL224062  26.882   6.176   9.121
 1645POPC   C1A24063  26.790   5.630   8.677
 1645POPC   D2A24064  26.802   5.628   8.216
 1645POPC   C3A24065  26.882   6.038   8.085
 1645POPC   C4A24066  27.054   6.191   7.706
 1645POPC   C1B24067  26.557   6.095   8.807
 1645POPC   C2B24068  26.407   6.175   8.381
 1645POPC   C3B24069  26.394   6.065   7.930
 1645POPC   C4B24070  26.429   6.013   7.463
 1646POPC   NC324071  37.064  32.195   9.596
 1646POPC   PO424072  36.491  32.577   9.554
 1646POPC   GL124073  36.611  32.247   9.234
 1646POPC   GL224074  36.995  32.212   9.102
 1646POPC   C1A24075  36.628  32.334   8.788
 1646POPC   D2A24076  37.022  32.404   8.584
 1646POPC   C3A24077  36.933  32.501   8.167
 1646POPC   C4A24078  36.836  32.331   7.765
 1646POPC   C1B24079  36.884  31.917   8.767
 1646POPC   C2B24080  36.711  32.029   8.359
 1646POPC   C3B24081  36.741  31.875   7.945
 1646POPC   C4B24082  36.711  31.665   7.553
 1647POPC   NC324083  27.466  35.203   9.365
 1647POPC   PO424084  27.890  35.761   9.619
 1647POPC   GL124085  27.786  35.592   9.259
 1647POPC   GL224086  27.942  35.251   9.240
 1647POPC   C1A24087  27.495  35.653   8.913
 1647POPC   D2A24088  27.530  35.602   8.482
 1647POPC   C3A24089  27.362  35.268   8.243
 1647POPC   C4A24090  27.351  35.136   7.838
 1647POPC   C1B24091  27.933  35.374   8.807
 1647POPC   C2B24092  27.890  35.167   8.417
 1647POPC   C3B24093  27.868  35.283   7.999
 1647POPC   C4B24094  27.805  35.060   7.635
 1648POPC   NC324095  32.474  12.057   9.451
 1648POPC   PO424096  31.889  11.966   9.660
 1648POPC   GL124097  31.985  12.043   9.170
 1648POPC   GL224098  32.289  12.174   9.003
 1648POPC   C1A24099  31.900  12.091   8.680
 1648POPC   D2A24100  31.972  12.274   8.247
 1648POPC   C3A24101  32.290  12.280   7.933
 1648POPC   C4A24102  32.082  12.456   7.590
 1648POPC   C1B24103  32.379  11.932   8.635
 1648POPC   C2B24104  32.278  11.843   8.244
 1648POPC   C3B24105  32.141  11.585   7.955
 1648POPC   C4B24106  32.368  11.644   7.562
 1649POPC   NC324107   0.052  41.395   9.477
 1649POPC   PO424108  44.367  41.405   9.669
 1649POPC   GL124109  44.573  41.649   9.288
 1649POPC   GL224110  44.881  41.619   9.048
 1649POPC   C1A24111  44.416  41.737   8.860
 1649POPC   D2A24112  44.367  41.427   8.502
 1649POPC   C3A24113  44.520  41.534   8.112
 1649POPC   C4A24114  44.488  41.558   7.689
 1649POPC   C1B24115  44.943  41.366   8.651
 1649POPC   C2B24116   0.005  41.407   8.191
 1649POPC   C3B24117  44.958  41.668   7.843
 1649POPC   C4B24118  44.909  41.703   7.391
 1650POPC   NC324119  33.440  28.642   9.562
 1650POPC   PO424120  34.056  28.301   9.645
 1650POPC   GL124121  34.101  28.411   9.209
 1650POPC   GL224122  33.781  28.551   9.143
 1650POPC   C1A24123  34.130  28.290   8.773
 1650POPC   D2A24124  33.945  28.436   8.397
 1650POPC   C3A24125  33.874  28.217   8.027
 1650POPC   C4A24126  33.836  28.514   7.720
 1650POPC   C1B24127  33.588  28.324   8.788
 1650POPC   C2B24128  33.512  28.131   8.395
 1650POPC   C3B24129  33.292  28.176   8.028
 1650POPC   C4B24130  33.403  28.284   7.630
 1651POPC   NC324131  39.312  14.151   9.691
 1651POPC   PO424132  39.417  14.813   9.533
 1651POPC   GL124133  39.280  14.433   9.224
 1651POPC   GL224134  39.297  14.025   9.184
 1651POPC   C1A24135  39.384  14.298   8.760
 1651POPC   D2A24136  39.454  14.248   8.282
 1651POPC   C3A24137  39.435  14.265   7.807
 1651POPC   C4A24138  39.600  14.081   7.381
 1651POPC   C1B24139  38.995  13.936   8.852
 1651POPC   C2B24140  39.002  14.049   8.420
 1651POPC   C3B24141  39.053  13.928   7.967
 1651POPC   C4B24142  39.158  13.900   7.495
 1652POPC   NC324143  31.218  37.194   9.454
 1652POPC   PO424144  31.303  36.577   9.216
 1652POPC   GL124145  31.468  36.920   9.048
 1652POPC   GL224146  31.709  37.050   9.250
 1652POPC   C1A24147  31.640  36.813   8.649
 1652POPC   D2A24148  31.359  36.861   8.310
 1652POPC   C3A24149  31.323  36.586   7.992
 1652POPC   C4A24150  31.522  36.588   7.630
 1652POPC   C1B24151  31.855  37.240   8.893
 1652POPC   C2B24152  31.903  37.218   8.458
 1652POPC   C3B24153  31.843  36.965   8.119
 1652POPC   C4B24154  31.622  37.063   7.767
 1653POPC   NC324155  23.927  14.452   9.538
 1653POPC   PO424156  23.452  14.050   9.438
 1653POPC   GL124157  23.637  14.334   9.098
 1653POPC   GL224158  23.945  14.567   9.046
 1653POPC   C1A24159  23.727  14.320   8.647
 1653POPC   D2A24160  23.927  14.156   8.275
 1653POPC   C3A24161  23.644  14.079   7.936
 1653POPC   C4A24162  23.681  14.219   7.505
 1653POPC   C1B24163  23.872  14.824   8.658
 1653POPC   C2B24164  23.955  14.681   8.252
 1653POPC   C3B24165  23.941  14.483   7.857
 1653POPC   C4B24166  24.114  14.492   7.435
 1654POPC   NC324167   8.085  44.452   9.519
 1654POPC   PO424168   8.693  44.892   9.545
 1654POPC   GL124169   8.484  44.843   9.128
 1654POPC   GL224170   8.275  44.604   9.091
 1654POPC   C1A24171   8.377  44.938   8.710
 1654POPC   D2A24172   8.415   0.028   8.286
 1654POPC   C3A24173   8.421  44.689   7.998
 1654POPC   C4A24174   8.089  44.874   7.778
 1654POPC   C1B24175   8.326  44.399   8.725
 1654POPC   C2B24176   8.093  44.556   8.396
 1654POPC   C3B24177   7.954  44.421   8.015
 1654POPC   C4B24178   8.087  44.384   7.611
 1655POPC   NC324179  36.128  27.003   9.590
 1655POPC   PO424180  35.957  26.359   9.479
 1655POPC   GL124181  35.948  26.719   9.205
 1655POPC   GL224182  36.284  26.790   9.136
 1655POPC   C1A24183  35.909  26.935   8.784
 1655POPC   D2A24184  36.152  26.952   8.385
 1655POPC   C3A24185  35.905  26.942   8.001
 1655POPC   C4A24186  35.690  27.293   7.819
 1655POPC   C1B24187  36.196  26.506   8.804
 1655POPC   C2B24188  36.310  26.466   8.375
 1655POPC   C3B24189  36.299  26.479   7.945
 1655POPC   C4B24190  36.308  26.609   7.523
 1656POPC   NC324191  22.344  31.264   9.506
 1656POPC   PO424192  22.102  30.604   9.658
 1656POPC   GL124193  22.072  30.662   9.211
 1656POPC   GL224194  22.376  30.818   9.110
 1656POPC   C1A24195  22.047  30.659   8.744
 1656POPC   D2A24196  22.053  30.896   8.330
 1656POPC   C3A24197  22.250  30.680   7.978
 1656POPC   C4A24198  22.037  30.385   7.677
 1656POPC   C1B24199  22.384  31.043   8.684
 1656POPC   C2B24200  22.485  31.207   8.286
 1656POPC   C3B24201  22.827  31.171   8.016
 1656POPC   C4B24202  22.690  30.833   7.732
 1657POPC   NC324203   6.106  31.216   9.377
 1657POPC   PO424204   5.655  31.685   9.514
 1657POPC   GL124205   5.692  31.462   9.154
 1657POPC   GL224206   6.006  31.660   9.094
 1657POPC   C1A24207   5.664  31.273   8.731
 1657POPC   D2A24208   5.842  31.229   8.306
 1657POPC   C3A24209   5.750  31.397   7.880
 1657POPC   C4A24210   5.825  31.264   7.403
 1657POPC   C1B24211   6.158  31.522   8.711
 1657POPC   C2B24212   6.127  31.690   8.303
 1657POPC   C3B24213   6.330  31.669   7.903
 1657POPC   C4B24214   6.042  31.676   7.565
 1658POPC   NC324215  44.431  43.186   9.742
 1658POPC   PO424216  43.837  42.912   9.694
 1658POPC   GL124217  43.890  43.094   9.290
 1658POPC   GL224218  44.149  42.911   9.138
 1658POPC   C1A24219  43.754  43.190   8.863
 1658POPC   D2A24220  43.786  43.002   8.461
 1658POPC   C3A24221  43.959  43.297   8.158
 1658POPC   C4A24222  43.825  43.203   7.767
 1658POPC   C1B24223  44.232  42.998   8.713
 1658POPC   C2B24224  44.273  42.909   8.286
 1658POPC   C3B24225  43.946  42.778   8.011
 1658POPC   C4B24226  44.031  42.778   7.573
 1659POPC   NC324227  13.077  25.009   9.475
 1659POPC   PO424228  12.746  25.555   9.418
 1659POPC   GL124229  12.713  25.237   9.123
 1659POPC   GL224230  13.005  25.247   9.030
 1659POPC   C1A24231  12.597  25.164   8.699
 1659POPC   D2A24232  12.531  25.429   8.357
 1659POPC   C3A24233  12.581  25.282   7.946
 1659POPC   C4A24234  12.589  25.588   7.629
 1659POPC   C1B24235  13.193  25.215   8.681
 1659POPC   C2B24236  13.064  25.193   8.276
 1659POPC   C3B24237  13.105  25.252   7.872
 1659POPC   C4B24238  13.120  25.483   7.506
 1660POPC   NC324239  35.585  32.698   9.380
 1660POPC   PO424240  36.194  33.042   9.274
 1660POPC   GL124241  35.814  33.014   9.043
 1660POPC   GL224242  35.805  33.361   9.066
 1660POPC   C1A24243  35.854  33.108   8.613
 1660POPC   D2A24244  36.251  33.272   8.436
 1660POPC   C3A24245  36.202  33.135   8.021
 1660POPC   C4A24246  35.854  33.021   7.739
 1660POPC   C1B24247  35.843  33.615   8.692
 1660POPC   C2B24248  35.867  33.581   8.256
 1660POPC   C3B24249  35.895  33.528   7.835
 1660POPC   C4B24250  36.194  33.400   7.593
 1661POPC   NC324251  19.460  42.964   9.542
 1661POPC   PO424252  19.960  43.332   9.480
 1661POPC   GL124253  19.827  43.042   9.143
 1661POPC   GL224254  19.484  43.138   9.072
 1661POPC   C1A24255  19.762  42.843   8.713
 1661POPC   D2A24256  19.690  42.963   8.279
 1661POPC   C3A24257  19.936  43.313   8.168
 1661POPC   C4A24258  20.153  43.404   7.800
 1661POPC   C1B24259  19.386  43.184   8.661
 1661POPC   C2B24260  19.449  43.475   8.344
 1661POPC   C3B24261  19.448  43.315   7.938
 1661POPC   C4B24262  19.729  43.019   7.756
 1662POPC   NC324263  37.244  26.614   9.243
 1662POPC   PO424264  36.600  26.786   9.539
 1662POPC   GL124265  36.797  26.825   9.152
 1662POPC   GL224266  36.755  26.474   9.143
 1662POPC   C1A24267  36.986  26.981   8.759
 1662POPC   D2A24268  37.303  26.897   8.417
 1662POPC   C3A24269  37.175  26.992   7.974
 1662POPC   C4A24270  37.142  26.702   7.637
 1662POPC   C1B24271  36.692  26.552   8.729
 1662POPC   C2B24272  36.804  26.721   8.344
 1662POPC   C3B24273  36.963  26.486   8.038
 1662POPC   C4B24274  36.720  26.320   7.694
 1663POPC   NC324275  19.573  34.951   9.326
 1663POPC   PO424276  19.953  34.386   9.469
 1663POPC   GL124277  19.908  34.552   9.113
 1663POPC   GL224278  19.554  34.478   9.084
 1663POPC   C1A24279  19.876  34.722   8.714
 1663POPC   D2A24280  19.969  34.618   8.294
 1663POPC   C3A24281  19.726  34.325   8.032
 1663POPC   C4A24282  19.750  34.361   7.597
 1663POPC   C1B24283  19.340  34.729   8.761
 1663POPC   C2B24284  19.471  34.737   8.349
 1663POPC   C3B24285  19.643  34.824   7.956
 1663POPC   C4B24286  19.453  34.802   7.599
 1664POPC   NC324287  30.197  23.252   9.598
 1664POPC   PO424288  29.900  22.653   9.426
 1664POPC   GL124289  29.877  22.933   9.124
 1664POPC   GL224290  30.196  23.059   9.144
 1664POPC   C1A24291  29.978  22.929   8.708
 1664POPC   D2A24292  29.927  23.136   8.355
 1664POPC   C3A24293  30.055  22.867   8.058
 1664POPC   C4A24294  30.030  22.725   7.666
 1664POPC   C1B24295  30.332  23.287   8.821
 1664POPC   C2B24296  30.419  23.123   8.428
 1664POPC   C3B24297  30.304  23.296   8.030
 1664POPC   C4B24298  30.430  23.021   7.737
 1665POPC   NC324299  10.790  10.712   9.603
 1665POPC   PO424300  10.351  10.283   9.499
 1665POPC   GL124301  10.490  10.549   9.196
 1665POPC   GL224302  10.804  10.402   9.175
 1665POPC   C1A24303  10.363  10.739   8.812
 1665POPC   D2A24304  10.352  10.540   8.379
 1665POPC   C3A24305  10.367  10.711   7.989
 1665POPC   C4A24306  10.392  10.471   7.633
 1665POPC   C1B24307  10.861  10.764   8.911
 1665POPC   C2B24308  10.720  10.911   8.504
 1665POPC   C3B24309  10.844  10.718   8.138
 1665POPC   C4B24310  10.897  10.847   7.743
 1666POPC   NC324311  30.281  12.103   9.729
 1666POPC   PO424312  30.903  12.048   9.686
 1666POPC   GL124313  30.822  12.096   9.248
 1666POPC   GL224314  31.073  11.841   9.176
 1666POPC   C1A24315  30.916  12.245   8.818
 1666POPC   D2A24316  30.819  12.070   8.446
 1666POPC   C3A24317  30.589  12.238   8.144
 1666POPC   C4A24318  30.450  12.034   7.790
 1666POPC   C1B24319  31.114  11.738   8.732
 1666POPC   C2B24320  31.163  11.759   8.250
 1666POPC   C3B24321  30.918  11.881   7.901
 1666POPC   C4B24322  30.796  11.921   7.429
 1667POPC   NC324323  19.641   5.292   9.333
 1667POPC   PO424324  20.060   4.681   9.399
 1667POPC   GL124325  19.859   4.948   9.061
 1667POPC   GL224326  19.962   5.376   8.976
 1667POPC   C1A24327  19.771   5.007   8.656
 1667POPC   D2A24328  19.703   4.717   8.351
 1667POPC   C3A24329  19.554   4.922   8.006
 1667POPC   C4A24330  19.697   4.916   7.606
 1667POPC   C1B24331  20.057   5.459   8.559
 1667POPC   C2B24332  20.037   5.166   8.247
 1667POPC   C3B24333  19.955   5.254   7.868
 1667POPC   C4B24334  19.851   5.388   7.457
 1668POPC   NC324335   4.579  35.222   9.561
 1668POPC   PO424336   4.224  35.752   9.513
 1668POPC   GL124337   4.229  35.427   9.204
 1668POPC   GL224338   3.939  35.207   9.270
 1668POPC   C1A24339   4.377  35.287   8.796
 1668POPC   D2A24340   4.550  35.454   8.415
 1668POPC   C3A24341   4.357  35.325   8.056
 1668POPC   C4A24342   4.548  35.193   7.700
 1668POPC   C1B24343   3.853  35.366   8.848
 1668POPC   C2B24344   3.934  35.235   8.427
 1668POPC   C3B24345   3.840  35.365   8.001
 1668POPC   C4B24346   3.913  35.629   7.669
 1669POPC   NC324347  15.464  28.604   9.424
 1669POPC   PO424348  15.182  27.990   9.548
 1669POPC   GL124349  15.123  28.299   9.180
 1669POPC   GL224350  14.947  28.640   9.234
 1669POPC   C1A24351  15.258  28.197   8.731
 1669POPC   D2A24352  15.139  28.141   8.272
 1669POPC   C3A24353  15.434  28.207   7.914
 1669POPC   C4A24354  15.498  28.093   7.445
 1669POPC   C1B24355  15.031  28.647   8.782
 1669POPC   C2B24356  15.218  28.671   8.359
 1669POPC   C3B24357  15.281  28.705   7.909
 1669POPC   C4B24358  15.550  28.581   7.573
 1670POPC   NC324359  13.330  23.548   9.474
 1670POPC   PO424360  13.919  24.011   9.458
 1670POPC   GL124361  13.694  23.742   9.171
 1670POPC   GL224362  13.358  23.859   9.077
 1670POPC   C1A24363  13.698  23.581   8.753
 1670POPC   D2A24364  13.767  23.693   8.307
 1670POPC   C3A24365  13.592  23.420   7.989
 1670POPC   C4A24366  13.717  23.186   7.632
 1670POPC   C1B24367  13.325  23.965   8.665
 1670POPC   C2B24368  13.287  23.862   8.254
 1670POPC   C3B24369  13.287  23.787   7.836
 1670POPC   C4B24370  13.260  23.551   7.449
 1671POPC   NC324371  22.629  40.579   9.607
 1671POPC   PO424372  23.219  40.865   9.494
 1671POPC   GL124373  22.818  40.943   9.262
 1671POPC   GL224374  22.721  40.618   9.099
 1671POPC   C1A24375  22.760  41.068   8.837
 1671POPC   D2A24376  22.803  40.764   8.506
 1671POPC   C3A24377  22.853  40.923   8.111
 1671POPC   C4A24378  22.674  40.863   7.735
 1671POPC   C1B24379  23.146  40.716   8.887
 1671POPC   C2B24380  23.326  40.679   8.487
 1671POPC   C3B24381  23.268  40.628   8.037
 1671POPC   C4B24382  23.166  40.770   7.614
 1672POPC   NC324383   7.608  13.360   9.574
 1672POPC   PO424384   7.094  13.668   9.580
 1672POPC   GL124385   7.257  13.439   9.203
 1672POPC   GL224386   7.538  13.604   9.147
 1672POPC   C1A24387   7.418  13.275   8.782
 1672POPC   D2A24388   7.286  13.105   8.392
 1672POPC   C3A24389   7.341  13.402   8.063
 1672POPC   C4A24390   7.651  13.371   7.700
 1672POPC   C1B24391   7.471  13.803   8.774
 1672POPC   C2B24392   7.785  13.801   8.475
 1672POPC   C3B24393   7.788  13.656   8.081
 1672POPC   C4B24394   7.432  13.823   7.787
 1673POPC   NC324395  43.539  18.562   9.348
 1673POPC   PO424396  43.909  18.049   9.526
 1673POPC   GL124397  44.027  17.960   9.124
 1673POPC   GL224398  43.954  18.338   9.062
 1673POPC   C1A24399  44.208  18.038   8.725
 1673POPC   D2A24400  43.924  18.217   8.440
 1673POPC   C3A24401  43.959  18.164   8.013
 1673POPC   C4A24402  43.762  18.249   7.598
 1673POPC   C1B24403  44.049  18.647   8.722
 1673POPC   C2B24404  44.065  18.670   8.263
 1673POPC   C3B24405  44.051  18.622   7.824
 1673POPC   C4B24406  44.145  18.485   7.370
 1674POPC   NC324407  13.120  28.256   9.599
 1674POPC   PO424408  12.451  28.362   9.419
 1674POPC   GL124409  12.795  28.300   9.185
 1674POPC   GL224410  13.009  28.584   9.187
 1674POPC   C1A24411  12.753  28.244   8.769
 1674POPC   D2A24412  12.648  28.469   8.418
 1674POPC   C3A24413  12.809  28.317   8.075
 1674POPC   C4A24414  13.002  28.225   7.715
 1674POPC   C1B24415  12.941  28.710   8.769
 1674POPC   C2B24416  13.126  28.690   8.357
 1674POPC   C3B24417  12.978  28.781   7.917
 1674POPC   C4B24418  12.676  28.652   7.659
 1675POPC   NC324419  14.531  38.468   9.864
 1675POPC   PO424420  14.021  38.662   9.618
 1675POPC   GL124421  13.881  38.446   9.185
 1675POPC   GL224422  13.859  38.075   9.185
 1675POPC   C1A24423  14.015  38.414   8.696
 1675POPC   D2A24424  14.235  38.633   8.319
 1675POPC   C3A24425  14.225  38.555   7.847
 1675POPC   C4A24426  14.225  38.597   7.379
 1675POPC   C1B24427  14.035  37.910   8.761
 1675POPC   C2B24428  14.217  38.094   8.336
 1675POPC   C3B24429  14.513  38.164   7.996
 1675POPC   C4B24430  14.569  38.246   7.558
 1676POPC   NC324431  26.487   7.510   9.467
 1676POPC   PO424432  27.120   7.146   9.443
 1676POPC   GL124433  26.836   7.202   9.146
 1676POPC   GL224434  26.866   7.484   9.094
 1676POPC   C1A24435  26.647   7.137   8.771
 1676POPC   D2A24436  26.720   6.968   8.371
 1676POPC   C3A24437  26.519   7.160   8.022
 1676POPC   C4A24438  26.639   7.360   7.637
 1676POPC   C1B24439  26.884   7.612   8.724
 1676POPC   C2B24440  26.752   7.481   8.356
 1676POPC   C3B24441  26.973   7.515   8.007
 1676POPC   C4B24442  26.977   7.736   7.631
 1677POPC   NC324443  11.597  37.102   9.719
 1677POPC   PO424444  11.200  36.587   9.557
 1677POPC   GL124445  11.387  36.746   9.168
 1677POPC   GL224446  11.375  37.097   9.133
 1677POPC   C1A24447  11.532  36.510   8.818
 1677POPC   D2A24448  11.461  36.378   8.402
 1677POPC   C3A24449  11.581  36.700   8.136
 1677POPC   C4A24450  11.653  36.717   7.720
 1677POPC   C1B24451  11.242  36.928   8.698
 1677POPC   C2B24452  11.158  36.910   8.249
 1677POPC   C3B24453  11.182  36.907   7.778
 1677POPC   C4B24454  10.981  36.575   7.488
 1678POPC   NC324455   0.896  11.074   9.359
 1678POPC   PO424456   1.242  11.606   9.489
 1678POPC   GL124457   1.077  11.516   9.088
 1678POPC   GL224458   1.325  11.254   9.106
 1678POPC   C1A24459   1.071  11.428   8.621
 1678POPC   D2A24460   1.456  11.372   8.336
 1678POPC   C3A24461   1.390  11.504   7.901
 1678POPC   C4A24462   0.929  11.427   7.803
 1678POPC   C1B24463   1.188  10.958   8.806
 1678POPC   C2B24464   1.051  10.935   8.412
 1678POPC   C3B24465   1.190  11.058   8.015
 1678POPC   C4B24466   1.259  11.156   7.539
 1679POPC   NC324467   3.890  37.447   9.466
 1679POPC   PO424468   3.315  37.808   9.531
 1679POPC   GL124469   3.482  37.784   9.151
 1679POPC   GL224470   3.499  37.432   9.085
 1679POPC   C1A24471   3.629  37.829   8.725
 1679POPC   D2A24472   3.843  37.711   8.367
 1679POPC   C3A24473   3.744  37.895   7.982
 1679POPC   C4A24474   3.514  37.634   7.700
 1679POPC   C1B24475   3.839  37.326   8.793
 1679POPC   C2B24476   3.967  37.196   8.391
 1679POPC   C3B24477   3.795  37.344   8.010
 1679POPC   C4B24478   3.991  37.390   7.617
 1680POPC   NC324479  37.449  30.197   9.397
 1680POPC   PO424480  37.915  29.692   9.483
 1680POPC   GL124481  37.733  29.819   9.133
 1680POPC   GL224482  38.022  30.075   9.129
 1680POPC   C1A24483  37.612  29.634   8.719
 1680POPC   D2A24484  37.425  29.735   8.337
 1680POPC   C3A24485  37.543  29.527   8.009
 1680POPC   C4A24486  37.502  29.788   7.690
 1680POPC   C1B24487  37.799  30.152   8.744
 1680POPC   C2B24488  37.803  30.328   8.330
 1680POPC   C3B24489  37.818  30.166   7.910
 1680POPC   C4B24490  37.677  30.210   7.460
 1681POPC   NC324491  25.794  26.363   9.408
 1681POPC   PO424492  26.096  25.663   9.375
 1681POPC   GL124493  25.854  25.790   9.046
 1681POPC   GL224494  25.518  25.667   8.932
 1681POPC   C1A24495  26.057  25.996   8.715
 1681POPC   D2A24496  26.331  25.869   8.423
 1681POPC   C3A24497  26.090  25.952   8.073
 1681POPC   C4A24498  26.242  25.889   7.701
 1681POPC   C1B24499  25.562  26.101   8.771
 1681POPC   C2B24500  25.730  26.373   8.471
 1681POPC   C3B24501  25.770  26.379   8.031
 1681POPC   C4B24502  25.794  26.124   7.668
 1682POPC   NC324503  41.936  18.439   9.532
 1682POPC   PO424504  41.248  18.225   9.304
 1682POPC   GL124505  41.604  18.412   9.151
 1682POPC   GL224506  41.841  18.140   9.117
 1682POPC   C1A24507  41.773  18.650   8.839
 1682POPC   D2A24508  41.733  18.734   8.421
 1682POPC   C3A24509  41.718  18.396   8.132
 1682POPC   C4A24510  41.727  18.373   7.705
 1682POPC   C1B24511  41.638  18.141   8.702
 1682POPC   C2B24512  41.847  17.946   8.368
 1682POPC   C3B24513  41.867  17.839   7.918
 1682POPC   C4B24514  41.882  17.941   7.467
 1683POPC   NC324515  44.991  30.267   9.555
 1683POPC   PO424516   0.696  30.505   9.576
 1683POPC   GL124517   0.346  30.521   9.209
 1683POPC   GL224518   0.198  30.908   9.071
 1683POPC   C1A24519   0.547  30.564   8.816
 1683POPC   D2A24520   0.666  30.721   8.398
 1683POPC   C3A24521   0.695  30.549   8.001
 1683POPC   C4A24522   0.565  30.694   7.594
 1683POPC   C1B24523   0.476  31.052   8.753
 1683POPC   C2B24524   0.464  31.185   8.356
 1683POPC   C3B24525   0.308  30.961   8.007
 1683POPC   C4B24526   0.131  30.928   7.610
 1684POPC   NC324527  26.692  40.514   9.799
 1684POPC   PO424528  26.789  41.108   9.557
 1684POPC   GL124529  26.928  40.877   9.184
 1684POPC   GL224530  26.812  40.524   9.119
 1684POPC   C1A24531  26.758  40.864   8.757
 1684POPC   D2A24532  26.615  40.812   8.385
 1684POPC   C3A24533  26.650  41.014   7.987
 1684POPC   C4A24534  26.796  40.771   7.596
 1684POPC   C1B24535  26.577  40.302   8.781
 1684POPC   C2B24536  26.345  40.391   8.366
 1684POPC   C3B24537  26.548  40.519   7.987
 1684POPC   C4B24538  26.442  40.410   7.607
 1685POPC   NC324539  23.118  41.944   9.482
 1685POPC   PO424540  22.831  42.444   9.414
 1685POPC   GL124541  22.771  42.362   9.010
 1685POPC   GL224542  22.792  42.032   9.028
 1685POPC   C1A24543  22.766  42.515   8.594
 1685POPC   D2A24544  23.168  42.565   8.398
 1685POPC   C3A24545  23.267  42.415   7.971
 1685POPC   C4A24546  23.253  42.696   7.639
 1685POPC   C1B24547  22.918  42.008   8.617
 1685POPC   C2B24548  22.881  42.161   8.202
 1685POPC   C3B24549  22.869  42.166   7.754
 1685POPC   C4B24550  22.767  42.021   7.289
 1686POPC   NC324551  43.135  24.028   9.465
 1686POPC   PO424552  43.266  23.434   9.650
 1686POPC   GL124553  43.203  23.523   9.186
 1686POPC   GL224554  43.329  23.828   9.053
 1686POPC   C1A24555  42.991  23.444   8.779
 1686POPC   D2A24556  42.797  23.607   8.431
 1686POPC   C3A24557  43.001  23.739   8.073
 1686POPC   C4A24558  42.955  23.681   7.646
 1686POPC   C1B24559  43.131  23.917   8.690
 1686POPC   C2B24560  42.913  24.134   8.405
 1686POPC   C3B24561  42.736  24.213   8.035
 1686POPC   C4B24562  42.880  24.208   7.645
 1687POPC   NC324563  22.360  44.530   9.399
 1687POPC   PO424564  21.774  44.674   9.575
 1687POPC   GL124565  21.884  44.668   9.121
 1687POPC   GL224566  22.158  44.916   9.081
 1687POPC   C1A24567  22.071  44.551   8.691
 1687POPC   D2A24568  22.367  44.434   8.321
 1687POPC   C3A24569  22.248  44.605   7.897
 1687POPC   C4A24570  21.809  44.598   7.804
 1687POPC   C1B24571  21.885   0.132   8.761
 1687POPC   C2B24572  21.900   0.285   8.320
 1687POPC   C3B24573  21.990   0.068   7.955
 1687POPC   C4B24574  22.069  44.979   7.516
 1688POPC   NC324575  22.425  20.525   9.359
 1688POPC   PO424576  21.796  20.611   9.505
 1688POPC   GL124577  22.043  20.781   9.129
 1688POPC   GL224578  22.249  20.480   8.906
 1688POPC   C1A24579  21.932  20.781   8.687
 1688POPC   D2A24580  22.107  20.486   8.401
 1688POPC   C3A24581  22.161  20.609   7.982
 1688POPC   C4A24582  22.136  20.340   7.606
 1688POPC   C1B24583  22.432  20.867   8.733
 1688POPC   C2B24584  22.382  21.071   8.321
 1688POPC   C3B24585  22.205  21.133   7.907
 1688POPC   C4B24586  22.087  20.844   7.532
 1689POPC   NC324587  34.799  44.817   9.347
 1689POPC   PO424588  34.331  44.656   9.813
 1689POPC   GL124589  34.394  44.489   9.295
 1689POPC   GL224590  34.473  44.756   8.980
 1689POPC   C1A24591  34.262  44.342   8.826
 1689POPC   D2A24592  34.269  44.612   8.420
 1689POPC   C3A24593  34.495  44.536   8.000
 1689POPC   C4A24594  34.552  44.809   7.664
 1689POPC   C1B24595  34.748  44.997   8.676
 1689POPC   C2B24596  34.796  44.934   8.208
 1689POPC   C3B24597  35.046  44.816   7.831
 1689POPC   C4B24598  34.927  44.995   7.404
 1690POPC   NC324599   5.500  17.676   9.593
 1690POPC   PO424600   4.917  17.737   9.583
 1690POPC   GL124601   5.191  17.643   9.179
 1690POPC   GL224602   5.529  17.434   9.151
 1690POPC   C1A24603   5.029  17.731   8.755
 1690POPC   D2A24604   4.962  17.498   8.405
 1690POPC   C3A24605   4.955  17.668   8.006
 1690POPC   C4A24606   4.984  17.335   7.746
 1690POPC   C1B24607   5.416  17.400   8.735
 1690POPC   C2B24608   5.425  17.258   8.347
 1690POPC   C3B24609   5.433  17.473   7.989
 1690POPC   C4B24610   5.452  17.391   7.565
 1691POPC   NC324611  27.412  10.170   9.301
 1691POPC   PO424612  27.217  10.789   9.639
 1691POPC   GL124613  27.556  10.658   9.279
 1691POPC   GL224614  27.869  10.385   9.183
 1691POPC   C1A24615  27.631  10.657   8.814
 1691POPC   D2A24616  27.908  10.600   8.458
 1691POPC   C3A24617  27.716  10.676   8.051
 1691POPC   C4A24618  27.362  10.699   7.741
 1691POPC   C1B24619  27.787  10.159   8.759
 1691POPC   C2B24620  27.513  10.292   8.416
 1691POPC   C3B24621  27.433  10.249   7.996
 1691POPC   C4B24622  27.700  10.295   7.679
 1692POPC   NC324623   8.250  37.136   9.778
 1692POPC   PO424624   8.292  37.673   9.395
 1692POPC   GL124625   8.138  37.710   9.045
 1692POPC   GL224626   8.332  37.424   8.948
 1692POPC   C1A24627   8.020  37.677   8.640
 1692POPC   D2A24628   8.069  37.907   8.298
 1692POPC   C3A24629   8.084  37.564   8.008
 1692POPC   C4A24630   8.383  37.555   7.703
 1692POPC   C1B24631   8.538  37.710   8.672
 1692POPC   C2B24632   8.538  37.699   8.239
 1692POPC   C3B24633   8.668  37.938   7.957
 1692POPC   C4B24634   8.618  38.053   7.580
 1693POPC   NC324635  15.354  13.088   9.529
 1693POPC   PO424636  14.953  12.503   9.379
 1693POPC   GL124637  15.274  12.777   9.131
 1693POPC   GL224638  15.159  13.152   9.051
 1693POPC   C1A24639  15.540  12.989   8.799
 1693POPC   D2A24640  15.487  13.223   8.396
 1693POPC   C3A24641  15.490  13.013   8.016
 1693POPC   C4A24642  15.529  12.702   7.697
 1693POPC   C1B24643  15.005  12.892   8.716
 1693POPC   C2B24644  15.232  12.705   8.415
 1693POPC   C3B24645  15.117  12.658   8.019
 1693POPC   C4B24646  15.030  12.913   7.711
 1694POPC   NC324647  21.307  41.177   9.369
 1694POPC   PO424648  21.534  40.562   9.577
 1694POPC   GL124649  21.347  40.712   9.155
 1694POPC   GL224650  21.471  40.960   8.942
 1694POPC   C1A24651  21.083  40.706   8.737
 1694POPC   D2A24652  21.204  40.595   8.300
 1694POPC   C3A24653  21.029  40.826   7.962
 1694POPC   C4A24654  21.188  41.159   7.706
 1694POPC   C1B24655  21.184  41.202   8.684
 1694POPC   C2B24656  21.188  41.221   8.245
 1694POPC   C3B24657  21.501  40.981   8.058
 1694POPC   C4B24658  21.699  41.017   7.713
 1695POPC   NC324659  28.426  27.079   9.609
 1695POPC   PO424660  28.384  26.416   9.605
 1695POPC   GL124661  28.467  26.693   9.237
 1695POPC   GL224662  28.697  26.437   9.129
 1695POPC   C1A24663  28.251  26.881   8.841
 1695POPC   D2A24664  28.073  26.696   8.420
 1695POPC   C3A24665  28.213  26.886   8.027
 1695POPC   C4A24666  28.618  26.946   7.860
 1695POPC   C1B24667  28.543  26.486   8.725
 1695POPC   C2B24668  28.702  26.604   8.344
 1695POPC   C3B24669  28.613  26.457   7.966
 1695POPC   C4B24670  28.347  26.555   7.669
 1696POPC   NC324671  33.171  32.125   9.569
 1696POPC   PO424672  33.095  32.761   9.332
 1696POPC   GL124673  33.199  32.401   9.108
 1696POPC   GL224674  33.018  32.066   9.082
 1696POPC   C1A24675  33.227  32.431   8.676
 1696POPC   D2A24676  32.983  32.307   8.321
 1696POPC   C3A24677  32.989  32.574   7.977
 1696POPC   C4A24678  32.832  32.361   7.604
 1696POPC   C1B24679  33.170  31.925   8.674
 1696POPC   C2B24680  33.434  32.077   8.328
 1696POPC   C3B24681  33.320  32.182   7.909
 1696POPC   C4B24682  33.248  32.070   7.493
 1697POPC   NC324683  41.716   3.869   9.594
 1697POPC   PO424684  41.334   3.350   9.507
 1697POPC   GL124685  41.434   3.647   9.177
 1697POPC   GL224686  41.777   3.525   9.156
 1697POPC   C1A24687  41.333   3.795   8.730
 1697POPC   D2A24688  41.191   3.771   8.271
 1697POPC   C3A24689  41.487   3.679   7.932
 1697POPC   C4A24690  41.527   3.341   7.655
 1697POPC   C1B24691  41.622   3.381   8.771
 1697POPC   C2B24692  41.698   3.456   8.355
 1697POPC   C3B24693  41.891   3.281   8.007
 1697POPC   C4B24694  42.035   3.454   7.668
 1698POPC   NC324695   0.987  40.129   9.845
 1698POPC   PO424696   1.574  39.837   9.490
 1698POPC   GL124697   1.344  39.982   9.149
 1698POPC   GL224698   1.065  40.223   9.189
 1698POPC   C1A24699   1.250  40.015   8.719
 1698POPC   D2A24700   1.360  40.209   8.332
 1698POPC   C3A24701   1.225  39.981   7.944
 1698POPC   C4A24702   1.385  40.029   7.513
 1698POPC   C1B24703   0.902  40.389   8.769
 1698POPC   C2B24704   0.966  40.534   8.324
 1698POPC   C3B24705   1.043  40.451   7.876
 1698POPC   C4B24706   0.923  40.226   7.508
 1699POPC   NC324707  32.066  15.637   9.551
 1699POPC   PO424708  32.313  14.993   9.624
 1699POPC   GL124709  32.244  15.178   9.223
 1699POPC   GL224710  32.326  15.513   9.129
 1699POPC   C1A24711  32.164  15.099   8.800
 1699POPC   D2A24712  31.859  14.899   8.531
 1699POPC   C3A24713  32.096  14.910   8.159
 1699POPC   C4A24714  32.461  15.175   8.051
 1699POPC   C1B24715  32.162  15.648   8.739
 1699POPC   C2B24716  32.352  15.620   8.339
 1699POPC   C3B24717  32.220  15.635   7.934
 1699POPC   C4B24718  32.029  15.275   7.812
 1700POPC   NC324719   0.669  31.700   9.486
 1700POPC   PO424720   0.532  32.418   9.568
 1700POPC   GL124721   0.493  32.544   9.150
 1700POPC   GL224722   0.129  32.632   9.170
 1700POPC   C1A24723   0.660  32.233   8.821
 1700POPC   D2A24724   0.784  32.104   8.407
 1700POPC   C3A24725   0.475  32.049   8.073
 1700POPC   C4A24726   0.664  31.959   7.698
 1700POPC   C1B24727   0.149  32.264   8.864
 1700POPC   C2B24728   0.289  32.347   8.463
 1700POPC   C3B24729   0.402  32.548   8.110
 1700POPC   C4B24730   0.378  32.389   7.702
 1701POPC   NC324731   5.192   6.811   9.697
 1701POPC   PO424732   4.570   6.685   9.581
 1701POPC   GL124733   4.855   6.816   9.171
 1701POPC   GL224734   5.171   6.633   9.054
 1701POPC   C1A24735   4.880   6.858   8.681
 1701POPC   D2A24736   4.759   6.917   8.222
 1701POPC   C3A24737   5.053   6.736   7.932
 1701POPC   C4A24738   5.522   6.723   7.977
 1701POPC   C1B24739   5.369   6.512   8.617
 1701POPC   C2B24740   5.263   6.329   8.185
 1701POPC   C3B24741   5.291   6.334   7.697
 1701POPC   C4B24742   5.235   6.260   7.228
 1702POPC   NC324743  30.230  20.731   9.375
 1702POPC   PO424744  29.679  20.775   9.441
 1702POPC   GL124745  29.800  20.595   9.096
 1702POPC   GL224746  29.937  20.299   9.219
 1702POPC   C1A24747  29.866  20.641   8.690
 1702POPC   D2A24748  29.707  20.560   8.335
 1702POPC   C3A24749  29.757  20.824   7.999
 1702POPC   C4A24750  29.743  20.732   7.562
 1702POPC   C1B24751  30.156  20.245   8.835
 1702POPC   C2B24752  30.148  20.217   8.405
 1702POPC   C3B24753  30.107  20.421   8.021
 1702POPC   C4B24754  30.083  20.158   7.648
 1703POPC   NC324755   2.548  38.657   9.379
 1703POPC   PO424756   3.013  38.447   9.818
 1703POPC   GL124757   2.892  38.287   9.335
 1703POPC   GL224758   3.175  38.253   9.115
 1703POPC   C1A24759   2.724  38.235   8.886
 1703POPC   D2A24760   2.940  38.234   8.495
 1703POPC   C3A24761   2.769  38.138   8.096
 1703POPC   C4A24762   2.714  38.386   7.747
 1703POPC   C1B24763   3.073  38.619   8.798
 1703POPC   C2B24764   3.148  38.718   8.412
 1703POPC   C3B24765   3.105  38.521   8.084
 1703POPC   C4B24766   3.198  38.509   7.695
 1704POPC   NC324767  24.331  34.143   9.609
 1704POPC   PO424768  24.488  34.842   9.555
 1704POPC   GL124769  24.417  34.664   9.144
 1704POPC   GL224770  24.269  34.334   9.142
 1704POPC   C1A24771  24.558  34.637   8.706
 1704POPC   D2A24772  24.311  34.559   8.332
 1704POPC   C3A24773  24.583  34.566   7.995
 1704POPC   C4A24774  24.614  34.881   7.704
 1704POPC   C1B24775  24.391  34.148   8.768
 1704POPC   C2B24776  24.656  34.162   8.419
 1704POPC   C3B24777  24.421  34.083   8.069
 1704POPC   C4B24778  24.552  34.112   7.676
 1705POPC   NC324779  17.011  24.216   9.718
 1705POPC   PO424780  17.052  23.746   9.229
 1705POPC   GL124781  16.632  23.836   9.043
 1705POPC   GL224782  16.321  23.968   9.178
 1705POPC   C1A24783  16.633  23.691   8.620
 1705POPC   D2A24784  17.063  23.748   8.469
 1705POPC   C3A24785  17.123  23.648   8.062
 1705POPC   C4A24786  16.977  23.527   7.696
 1705POPC   C1B24787  16.170  23.869   8.745
 1705POPC   C2B24788  16.237  23.895   8.298
 1705POPC   C3B24789  16.549  23.732   7.998
 1705POPC   C4B24790  16.513  23.663   7.536
 1706POPC   NC324791  30.553  42.180   9.391
 1706POPC   PO424792  31.071  42.672   9.452
 1706POPC   GL124793  30.888  42.453   9.124
 1706POPC   GL224794  30.947  42.101   9.018
 1706POPC   C1A24795  30.768  42.499   8.717
 1706POPC   D2A24796  30.799  42.301   8.336
 1706POPC   C3A24797  30.709  42.667   8.134
 1706POPC   C4A24798  30.842  42.669   7.762
 1706POPC   C1B24799  30.594  42.010   8.723
 1706POPC   C2B24800  30.445  41.913   8.312
 1706POPC   C3B24801  30.533  42.128   7.922
 1706POPC   C4B24802  30.933  42.175   7.799
 1707POPC   NC324803  39.601  35.670   9.591
 1707POPC   PO424804  40.032  35.078   9.609
 1707POPC   GL124805  39.819  35.209   9.154
 1707POPC   GL224806  39.599  35.522   9.106
 1707POPC   C1A24807  39.886  35.292   8.667
 1707POPC   D2A24808  40.072  35.081   8.251
 1707POPC   C3A24809  40.291  35.357   7.916
 1707POPC   C4A24810  40.096  35.662   7.587
 1707POPC   C1B24811  39.380  35.353   8.775
 1707POPC   C2B24812  39.483  35.111   8.422
 1707POPC   C3B24813  39.629  35.285   8.071
 1707POPC   C4B24814  39.872  35.172   7.742
 1708POPC   NC324815   4.711   9.162   9.464
 1708POPC   PO424816   4.064   9.393   9.520
 1708POPC   GL124817   4.250   9.091   9.190
 1708POPC   GL224818   4.200   8.712   9.205
 1708POPC   C1A24819   4.300   8.969   8.731
 1708POPC   D2A24820   4.212   9.158   8.309
 1708POPC   C3A24821   4.415   9.001   7.899
 1708POPC   C4A24822   4.620   8.645   7.631
 1708POPC   C1B24823   3.840   8.779   8.901
 1708POPC   C2B24824   3.787   8.906   8.470
 1708POPC   C3B24825   3.931   8.741   8.056
 1708POPC   C4B24826   4.131   8.575   7.659
 1709POPC   NC324827  14.085  19.653   9.528
 1709POPC   PO424828  14.531  20.108   9.705
 1709POPC   GL124829  14.483  19.883   9.275
 1709POPC   GL224830  14.166  20.043   9.187
 1709POPC   C1A24831  14.363  19.592   8.896
 1709POPC   D2A24832  14.206  19.664   8.442
 1709POPC   C3A24833  14.389  19.732   8.005
 1709POPC   C4A24834  14.238  19.482   7.654
 1709POPC   C1B24835  14.250  20.060   8.752
 1709POPC   C2B24836  14.020  20.142   8.360
 1709POPC   C3B24837  14.100  20.151   7.925
 1709POPC   C4B24838  14.283  20.083   7.510
 1710POPC   NC324839  23.588  19.548   9.461
 1710POPC   PO424840  24.157  19.910   9.540
 1710POPC   GL124841  23.939  19.981   9.118
 1710POPC   GL224842  23.560  20.003   9.069
 1710POPC   C1A24843  23.828  19.834   8.683
 1710POPC   D2A24844  23.557  19.851   8.377
 1710POPC   C3A24845  23.865  19.775   8.096
 1710POPC   C4A24846  24.053  19.875   7.726
 1710POPC   C1B24847  23.363  19.644   8.825
 1710POPC   C2B24848  23.470  19.359   8.504
 1710POPC   C3B24849  23.442  19.498   8.032
 1710POPC   C4B24850  23.476  19.934   7.798
 1711POPC   NC324851  35.669  40.443   9.491
 1711POPC   PO424852  36.338  40.542   9.608
 1711POPC   GL124853  36.094  40.726   9.282
 1711POPC   GL224854  36.082  41.081   9.231
 1711POPC   C1A24855  35.998  40.617   8.865
 1711POPC   D2A24856  36.102  40.389   8.484
 1711POPC   C3A24857  36.056  40.645   8.140
 1711POPC   C4A24858  35.991  40.792   7.734
 1711POPC   C1B24859  36.404  40.949   8.920
 1711POPC   C2B24860  36.385  40.823   8.488
 1711POPC   C3B24861  36.422  40.986   8.056
 1711POPC   C4B24862  36.467  40.936   7.629
 1712POPC   NC324863  37.589  21.898   9.337
 1712POPC   PO424864  37.734  21.141   9.526
 1712POPC   GL124865  37.550  21.359   9.217
 1712POPC   GL224866  37.839  21.529   9.102
 1712POPC   C1A24867  37.405  21.477   8.810
 1712POPC   D2A24868  37.621  21.559   8.445
 1712POPC   C3A24869  37.368  21.556   8.064
 1712POPC   C4A24870  37.578  21.644   7.680
 1712POPC   C1B24871  37.919  21.239   8.778
 1712POPC   C2B24872  38.107  21.290   8.385
 1712POPC   C3B24873  37.909  21.454   8.035
 1712POPC   C4B24874  38.029  21.441   7.639
 1713POPC   NC324875  12.240  40.952   9.576
 1713POPC   PO424876  11.792  40.473   9.708
 1713POPC   GL124877  12.022  40.545   9.301
 1713POPC   GL224878  11.940  40.892   9.152
 1713POPC   C1A24879  12.017  40.474   8.847
 1713POPC   D2A24880  12.062  40.469   8.381
 1713POPC   C3A24881  11.708  40.621   8.105
 1713POPC   C4A24882  11.723  40.595   7.653
 1713POPC   C1B24883  11.914  41.147   8.755
 1713POPC   C2B24884  11.972  41.064   8.293
 1713POPC   C3B24885  12.111  40.864   7.895
 1713POPC   C4B24886  12.159  40.980   7.446
 1714POPC   NC324887   8.055  33.481   9.418
 1714POPC   PO424888   8.333  34.119   9.584
 1714POPC   GL124889   8.220  34.116   9.168
 1714POPC   GL224890   7.857  34.122   9.088
 1714POPC   C1A24891   8.510  34.019   8.838
 1714POPC   D2A24892   8.579  33.804   8.442
 1714POPC   C3A24893   8.419  34.003   8.079
 1714POPC   C4A24894   8.282  34.110   7.687
 1714POPC   C1B24895   7.976  33.815   8.797
 1714POPC   C2B24896   8.056  33.762   8.364
 1714POPC   C3B24897   7.943  33.777   7.946
 1714POPC   C4B24898   8.007  33.460   7.648
 1715POPC   NC324899  30.644  15.371   9.394
 1715POPC   PO424900  30.897  14.772   9.495
 1715POPC   GL124901  30.711  14.925   9.138
 1715POPC   GL224902  30.973  15.161   9.073
 1715POPC   C1A24903  30.463  15.091   8.803
 1715POPC   D2A24904  30.422  15.238   8.411
 1715POPC   C3A24905  30.546  15.007   8.117
 1715POPC   C4A24906  30.530  15.133   7.726
 1715POPC   C1B24907  30.938  15.035   8.653
 1715POPC   C2B24908  30.928  15.337   8.360
 1715POPC   C3B24909  30.805  15.449   8.016
 1715POPC   C4B24910  31.073  15.308   7.711
 1716POPC   NC324911   9.065   7.915   9.373
 1716POPC   PO424912   8.563   8.313   9.472
 1716POPC   GL124913   8.827   8.330   9.159
 1716POPC   GL224914   9.149   8.437   9.288
 1716POPC   C1A24915   8.874   8.136   8.791
 1716POPC   D2A24916   8.900   8.158   8.381
 1716POPC   C3A24917   8.839   7.850   8.116
 1716POPC   C4A24918   8.906   8.015   7.739
 1716POPC   C1B24919   9.247   8.508   8.851
 1716POPC   C2B24920   9.356   8.382   8.424
 1716POPC   C3B24921   9.212   8.504   8.001
 1716POPC   C4B24922   9.372   8.739   7.646
 1717POPC   NC324923  22.003  20.903   9.783
 1717POPC   PO424924  21.292  20.712   9.595
 1717POPC   GL124925  21.431  20.596   9.137
 1717POPC   GL224926  21.748  20.388   9.067
 1717POPC   C1A24927  21.444  20.661   8.708
 1717POPC   D2A24928  21.301  20.896   8.373
 1717POPC   C3A24929  21.300  20.689   7.986
 1717POPC   C4A24930  21.075  20.573   7.651
 1717POPC   C1B24931  21.735  20.239   8.682
 1717POPC   C2B24932  21.588  20.375   8.292
 1717POPC   C3B24933  21.712  20.372   7.882
 1717POPC   C4B24934  21.622  20.563   7.489
 1718POPC   NC324935  22.026   1.551   9.553
 1718POPC   PO424936  21.970   2.206   9.330
 1718POPC   GL124937  22.225   1.855   9.184
 1718POPC   GL224938  21.941   1.700   9.085
 1718POPC   C1A24939  22.347   1.698   8.776
 1718POPC   D2A24940  22.346   1.961   8.427
 1718POPC   C3A24941  22.677   1.804   8.202
 1718POPC   C4A24942  22.492   1.654   7.863
 1718POPC   C1B24943  21.883   1.960   8.722
 1718POPC   C2B24944  21.829   2.104   8.325
 1718POPC   C3B24945  22.065   1.962   7.976
 1718POPC   C4B24946  22.451   2.172   7.902
 1719POPC   NC324947   0.219   7.210   9.509
 1719POPC   PO424948   0.823   7.603   9.300
 1719POPC   GL124949   0.412   7.512   9.147
 1719POPC   GL224950   0.334   7.198   9.025
 1719POPC   C1A24951   0.412   7.641   8.733
 1719POPC   D2A24952   0.793   7.581   8.460
 1719POPC   C3A24953   0.502   7.422   8.149
 1719POPC   C4A24954   0.210   7.644   7.838
 1719POPC   C1B24955   0.666   7.182   8.753
 1719POPC   C2B24956   0.853   7.086   8.353
 1719POPC   C3B24957   0.743   7.014   7.946
 1719POPC   C4B24958   0.367   7.153   7.731
 1720POPC   NC324959   6.023  34.663   9.432
 1720POPC   PO424960   5.664  34.018   9.444
 1720POPC   GL124961   5.764  34.336   9.132
 1720POPC   GL224962   6.115  34.303   9.054
 1720POPC   C1A24963   5.862  34.598   8.745
 1720POPC   D2A24964   5.934  34.435   8.305
 1720POPC   C3A24965   5.978  34.697   7.933
 1720POPC   C4A24966   5.742  34.788   7.556
 1720POPC   C1B24967   6.314  34.323   8.679
 1720POPC   C2B24968   6.374  34.147   8.282
 1720POPC   C3B24969   6.234  34.252   7.877
 1720POPC   C4B24970   6.175  34.450   7.453
 1721POPC   NC324971   0.235  10.226   9.331
 1721POPC   PO424972   0.567  10.764   9.471
 1721POPC   GL124973   0.531  10.587   9.059
 1721POPC   GL224974   0.694  10.296   9.123
 1721POPC   C1A24975   0.288  10.434   8.662
 1721POPC   D2A24976   0.319  10.333   8.205
 1721POPC   C3A24977   0.548  10.688   7.956
 1721POPC   C4A24978   0.820  10.934   7.688
 1721POPC   C1B24979   0.677  10.095   8.753
 1721POPC   C2B24980   0.799  10.224   8.360
 1721POPC   C3B24981   0.732  10.205   7.941
 1721POPC   C4B24982   0.829  10.419   7.564
 1722POPC   NC324983   2.508  21.843   9.504
 1722POPC   PO424984   3.115  22.165   9.381
 1722POPC   GL124985   2.829  22.181   9.065
 1722POPC   GL224986   2.528  22.364   9.205
 1722POPC   C1A24987   2.868  22.241   8.607
 1722POPC   D2A24988   2.820  22.489   8.230
 1722POPC   C3A24989   2.862  22.307   7.827
 1722POPC   C4A24990   2.988  21.871   7.955
 1722POPC   C1B24991   2.379  22.126   8.835
 1722POPC   C2B24992   2.509  21.900   8.457
 1722POPC   C3B24993   2.488  22.076   8.057
 1722POPC   C4B24994   2.394  22.260   7.639
 1723POPC   NC324995  10.043   7.710   9.358
 1723POPC   PO424996   9.376   7.588   9.314
 1723POPC   GL124997   9.717   7.356   9.106
 1723POPC   GL224998   9.436   7.199   8.958
 1723POPC   C1A24999  10.009   7.452   8.717
 1723POPC   D2A25000  10.100   7.747   8.331
 1723POPC   C3A25001  10.095   7.578   7.872
 1723POPC   C4A25002   9.867   7.311   7.531
 1723POPC   C1B25003   9.506   7.472   8.656
 1723POPC   C2B25004   9.721   7.419   8.268
 1723POPC   C3B25005   9.594   7.594   7.897
 1723POPC   C4B25006   9.242   7.678   7.619
 1724POPC   NC325007  32.903   3.170   9.540
 1724POPC   PO425008  33.027   3.827   9.401
 1724POPC   GL125009  32.977   3.637   9.056
 1724POPC   GL225010  32.699   3.405   9.121
 1724POPC   C1A25011  33.138   3.673   8.645
 1724POPC   D2A25012  33.287   3.531   8.252
 1724POPC   C3A25013  33.143   3.737   7.898
 1724POPC   C4A25014  33.346   3.407   7.695
 1724POPC   C1B25015  32.808   3.289   8.708
 1724POPC   C2B25016  32.797   3.482   8.296
 1724POPC   C3B25017  32.841   3.321   7.865
 1724POPC   C4B25018  32.463   3.183   7.621
 1725POPC   NC325019  29.425  30.256   9.544
 1725POPC   PO425020  28.973  29.813   9.522
 1725POPC   GL125021  29.110  29.777   9.110
 1725POPC   GL225022  29.415  29.975   9.101
 1725POPC   C1A25023  29.000  30.044   8.748
 1725POPC   D2A25024  28.844  30.186   8.336
 1725POPC   C3A25025  29.149  30.109   8.010
 1725POPC   C4A25026  28.918  29.834   7.770
 1725POPC   C1B25027  29.430  30.335   8.841
 1725POPC   C2B25028  29.596  30.255   8.446
 1725POPC   C3B25029  29.586  30.442   8.065
 1725POPC   C4B25030  29.396  30.458   7.683
 1726POPC   NC325031  10.699   5.209   9.632
 1726POPC   PO425032  10.216   4.755   9.561
 1726POPC   GL125033  10.437   5.030   9.237
 1726POPC   GL225034  10.804   5.028   9.166
 1726POPC   C1A25035  10.400   5.240   8.876
 1726POPC   D2A25036  10.441   5.040   8.488
 1726POPC   C3A25037  10.384   5.183   8.082
 1726POPC   C4A25038  10.113   5.049   7.788
 1726POPC   C1B25039  10.888   5.169   8.738
 1726POPC   C2B25040  10.779   5.383   8.345
 1726POPC   C3B25041  10.864   5.169   7.959
 1726POPC   C4B25042  10.600   5.056   7.624
 1727POPC   NC325043  41.657  12.968   9.596
 1727POPC   PO425044  42.035  13.333   9.200
 1727POPC   GL125045  41.800  12.933   9.064
 1727POPC   GL225046  41.676  12.613   9.226
 1727POPC   C1A25047  41.617  12.799   8.646
 1727POPC   D2A25048  41.387  12.994   8.282
 1727POPC   C3A25049  41.608  13.163   7.904
 1727POPC   C4A25050  41.324  13.074   7.563
 1727POPC   C1B25051  41.831  12.392   8.875
 1727POPC   C2B25052  41.601  12.286   8.541
 1727POPC   C3B25053  41.488  12.486   8.191
 1727POPC   C4B25054  41.569  12.682   7.800
 1728POPC   NC325055  26.569  25.734   9.347
 1728POPC   PO425056  26.866  26.261   9.596
 1728POPC   GL125057  26.853  26.146   9.163
 1728POPC   GL225058  27.053  25.824   9.113
 1728POPC   C1A25059  26.533  26.198   8.805
 1728POPC   D2A25060  26.712  26.269   8.389
 1728POPC   C3A25061  26.592  26.073   8.024
 1728POPC   C4A25062  26.673  26.134   7.584
 1728POPC   C1B25063  26.903  25.876   8.730
 1728POPC   C2B25064  27.156  25.994   8.427
 1728POPC   C3B25065  27.108  26.022   7.992
 1728POPC   C4B25066  27.307  25.776   7.688
 1729POPC   NC325067  26.593  15.951   9.514
 1729POPC   PO425068  27.197  16.076   9.417
 1729POPC   GL125069  26.921  16.030   9.084
 1729POPC   GL225070  26.527  16.074   9.023
 1729POPC   C1A25071  26.888  16.238   8.701
 1729POPC   D2A25072  26.714  16.085   8.350
 1729POPC   C3A25073  27.001  16.108   8.030
 1729POPC   C4A25074  26.910  16.202   7.636
 1729POPC   C1B25075  26.640  15.731   8.778
 1729POPC   C2B25076  26.715  15.524   8.391
 1729POPC   C3B25077  26.684  15.688   8.000
 1729POPC   C4B25078  26.740  15.732   7.596
 1730POPC   NC325079  30.935  30.700   9.645
 1730POPC   PO425080  30.390  31.004   9.621
 1730POPC   GL125081  30.683  30.905   9.249
 1730POPC   GL225082  31.090  30.996   9.273
 1730POPC   C1A25083  30.550  30.762   8.835
 1730POPC   D2A25084  30.737  30.564   8.498
 1730POPC   C3A25085  30.492  30.653   8.149
 1730POPC   C4A25086  30.356  30.923   7.809
 1730POPC   C1B25087  31.046  30.827   8.881
 1730POPC   C2B25088  31.101  30.957   8.476
 1730POPC   C3B25089  30.978  30.836   8.098
 1730POPC   C4B25090  30.791  30.659   7.727
 1731POPC   NC325091  41.874  30.919   9.376
 1731POPC   PO425092  41.249  30.871   9.490
 1731POPC   GL125093  41.374  30.768   9.098
 1731POPC   GL225094  41.635  30.483   9.113
 1731POPC   C1A25095  41.620  30.884   8.744
 1731POPC   D2A25096  41.907  30.938   8.429
 1731POPC   C3A25097  41.740  30.869   8.046
 1731POPC   C4A25098  41.755  30.477   7.791
 1731POPC   C1B25099  41.354  30.439   8.715
 1731POPC   C2B25100  41.284  30.733   8.349
 1731POPC   C3B25101  41.276  30.834   7.877
 1731POPC   C4B25102  41.377  30.696   7.483
 1732POPC   NC325103  33.146  19.462   9.636
 1732POPC   PO425104  33.247  18.801   9.508
 1732POPC   GL125105  33.186  19.003   9.132
 1732POPC   GL225106  33.039  19.326   9.164
 1732POPC   C1A25107  33.388  19.005   8.720
 1732POPC   D2A25108  33.600  18.911   8.334
 1732POPC   C3A25109  33.271  19.087   8.077
 1732POPC   C4A25110  32.847  18.979   7.979
 1732POPC   C1B25111  32.926  19.295   8.754
 1732POPC   C2B25112  32.959  19.505   8.365
 1732POPC   C3B25113  32.679  19.480   8.024
 1732POPC   C4B25114  32.772  19.363   7.638
 1733POPC   NC325115   3.659   6.835   9.468
 1733POPC   PO425116   3.703   6.188   9.606
 1733POPC   GL125117   3.652   6.397   9.139
 1733POPC   GL225118   3.390   6.615   9.092
 1733POPC   C1A25119   3.589   6.627   8.652
 1733POPC   D2A25120   3.300   6.912   8.428
 1733POPC   C3A25121   3.204   6.667   8.061
 1733POPC   C4A25122   3.478   6.590   7.733
 1733POPC   C1B25123   3.253   6.261   8.803
 1733POPC   C2B25124   3.098   6.190   8.359
 1733POPC   C3B25125   3.240   6.170   7.909
 1733POPC   C4B25126   3.272   6.233   7.433
 1734POPC   NC325127  20.259  17.874   9.610
 1734POPC   PO425128  20.825  17.849   9.495
 1734POPC   GL125129  20.729  17.594   9.164
 1734POPC   GL225130  20.448  17.426   9.310
 1734POPC   C1A25131  20.745  17.662   8.729
 1734POPC   D2A25132  20.911  17.855   8.382
 1734POPC   C3A25133  20.780  17.623   8.042
 1734POPC   C4A25134  20.640  17.826   7.677
 1734POPC   C1B25135  20.324  17.399   8.862
 1734POPC   C2B25136  20.258  17.389   8.405
 1734POPC   C3B25137  20.490  17.199   8.058
 1734POPC   C4B25138  20.786  17.100   7.763
 1735POPC   NC325139   2.269  31.741   9.437
 1735POPC   PO425140   1.840  31.193   9.559
 1735POPC   GL125141   1.886  31.400   9.163
 1735POPC   GL225142   2.227  31.334   9.076
 1735POPC   C1A25143   1.704  31.492   8.745
 1735POPC   D2A25144   1.751  31.314   8.315
 1735POPC   C3A25145   2.060  31.582   8.129
 1735POPC   C4A25146   2.211  31.677   7.711
 1735POPC   C1B25147   2.170  31.705   8.796
 1735POPC   C2B25148   2.226  31.943   8.444
 1735POPC   C3B25149   2.500  31.868   8.101
 1735POPC   C4B25150   2.418  32.169   7.813
 1736POPC   NC325151  36.854  29.056  10.007
 1736POPC   PO425152  37.184  29.439   9.532
 1736POPC   GL125153  36.906  29.225   9.170
 1736POPC   GL225154  36.555  29.332   9.105
 1736POPC   C1A25155  36.784  28.976   8.789
 1736POPC   D2A25156  37.052  28.811   8.462
 1736POPC   C3A25157  36.869  28.921   8.093
 1736POPC   C4A25158  36.975  28.879   7.698
 1736POPC   C1B25159  36.658  29.465   8.699
 1736POPC   C2B25160  36.955  29.331   8.407
 1736POPC   C3B25161  37.045  29.414   8.014
 1736POPC   C4B25162  36.670  29.407   7.807
 1737POPC   NC325163  35.830  24.246   9.530
 1737POPC   PO425164  35.287  24.706   9.757
 1737POPC   GL125165  35.454  24.601   9.309
 1737POPC   GL225166  35.511  24.257   9.129
 1737POPC   C1A25167  35.521  24.690   8.872
 1737POPC   D2A25168  35.573  24.326   8.594
 1737POPC   C3A25169  35.488  24.390   8.171
 1737POPC   C4A25170  35.465  24.292   7.754
 1737POPC   C1B25171  35.124  24.370   8.952
 1737POPC   C2B25172  34.963  24.296   8.535
 1737POPC   C3B25173  34.981  24.301   8.080
 1737POPC   C4B25174  35.076  24.617   7.784
 1738POPC   NC325175  43.796  27.254   9.547
 1738POPC   PO425176  44.195  27.750   9.786
 1738POPC   GL125177  44.063  27.664   9.309
 1738POPC   GL225178  43.695  27.731   9.251
 1738POPC   C1A25179  43.959  27.522   8.840
 1738POPC   D2A25180  44.063  27.577   8.379
 1738POPC   C3A25181  43.903  27.282   8.053
 1738POPC   C4A25182  43.758  27.361   7.631
 1738POPC   C1B25183  43.524  27.861   8.843
 1738POPC   C2B25184  43.615  27.964   8.427
 1738POPC   C3B25185  43.719  27.788   8.041
 1738POPC   C4B25186  43.612  27.829   7.639
 1739POPC   NC325187  37.640  29.337   9.521
 1739POPC   PO425188  37.498  28.731   9.605
 1739POPC   GL125189  37.546  28.993   9.161
 1739POPC   GL225190  37.404  29.369   9.089
 1739POPC   C1A25191  37.800  29.129   8.776
 1739POPC   D2A25192  37.989  29.294   8.377
 1739POPC   C3A25193  37.908  29.168   7.934
 1739POPC   C4A25194  37.833  29.415   7.560
 1739POPC   C1B25195  37.266  29.181   8.772
 1739POPC   C2B25196  37.450  29.191   8.393
 1739POPC   C3B25197  37.390  29.010   8.018
 1739POPC   C4B25198  37.350  29.224   7.629
 1740POPC   NC325199   9.723   8.598   9.689
 1740POPC   PO425200  10.175   8.135   9.561
 1740POPC   GL125201   9.859   8.319   9.262
 1740POPC   GL225202   9.555   8.100   9.232
 1740POPC   C1A25203   9.758   8.378   8.806
 1740POPC   D2A25204   9.927   8.268   8.389
 1740POPC   C3A25205   9.834   8.054   8.005
 1740POPC   C4A25206   9.955   8.235   7.655
 1740POPC   C1B25207   9.406   8.007   8.806
 1740POPC   C2B25208   9.537   7.907   8.399
 1740POPC   C3B25209   9.325   8.009   8.036
 1740POPC   C4B25210   9.420   8.197   7.642
 1741POPC   NC325211  39.380  10.778   9.629
 1741POPC   PO425212  38.877  10.426   9.428
 1741POPC   GL125213  39.251  10.503   9.179
 1741POPC   GL225214  39.359  10.850   9.126
 1741POPC   C1A25215  39.372  10.458   8.747
 1741POPC   D2A25216  39.415  10.219   8.336
 1741POPC   C3A25217  39.404  10.407   7.903
 1741POPC   C4A25218  39.172  10.588   7.561
 1741POPC   C1B25219  39.458  10.963   8.721
 1741POPC   C2B25220  39.450  10.754   8.333
 1741POPC   C3B25221  39.233  10.871   7.993
 1741POPC   C4B25222  39.509  10.947   7.683
 1742POPC   NC325223  22.477  34.721   9.496
 1742POPC   PO425224  22.057  34.227   9.567
 1742POPC   GL125225  22.060  34.521   9.224
 1742POPC   GL225226  21.790  34.738   9.247
 1742POPC   C1A25227  22.224  34.741   8.852
 1742POPC   D2A25228  22.452  34.569   8.529
 1742POPC   C3A25229  22.324  34.554   8.085
 1742POPC   C4A25230  22.514  34.639   7.675
 1742POPC   C1B25231  21.726  34.672   8.801
 1742POPC   C2B25232  21.941  34.596   8.411
 1742POPC   C3B25233  21.828  34.374   8.015
 1742POPC   C4B25234  21.728  34.514   7.553
 1743POPC   NC325235  27.767  25.278   9.772
 1743POPC   PO425236  27.197  25.455   9.444
 1743POPC   GL125237  27.531  25.373   9.143
 1743POPC   GL225238  27.801  25.213   9.262
 1743POPC   C1A25239  27.518  25.220   8.722
 1743POPC   D2A25240  27.322  25.072   8.325
 1743POPC   C3A25241  27.572  25.085   7.979
 1743POPC   C4A25242  27.570  25.220   7.570
 1743POPC   C1B25243  27.982  25.117   8.872
 1743POPC   C2B25244  27.912  25.086   8.419
 1743POPC   C3B25245  28.050  25.236   8.007
 1743POPC   C4B25246  28.166  24.989   7.635
 1744POPC   NC325247  18.043   5.677   9.585
 1744POPC   PO425248  18.551   6.117   9.623
 1744POPC   GL125249  18.286   6.032   9.239
 1744POPC   GL225250  18.377   5.700   9.183
 1744POPC   C1A25251  18.145   5.935   8.763
 1744POPC   D2A25252  18.378   5.771   8.374
 1744POPC   C3A25253  18.330   5.885   7.954
 1744POPC   C4A25254  18.273   5.655   7.560
 1744POPC   C1B25255  17.995   5.501   8.943
 1744POPC   C2B25256  17.972   5.459   8.465
 1744POPC   C3B25257  17.993   5.473   7.986
 1744POPC   C4B25258  17.783   5.648   7.591
 1745POPC   NC325259  23.758   1.868   9.434
 1745POPC   PO425260  23.596   2.482   9.522
 1745POPC   GL125261  23.809   2.297   9.163
 1745POPC   GL225262  23.550   2.420   8.988
 1745POPC   C1A25263  23.782   2.022   8.773
 1745POPC   D2A25264  23.588   1.727   8.478
 1745POPC   C3A25265  23.716   1.654   8.063
 1745POPC   C4A25266  23.920   1.973   7.858
 1745POPC   C1B25267  23.846   2.522   8.665
 1745POPC   C2B25268  23.603   2.298   8.383
 1745POPC   C3B25269  23.466   2.237   8.005
 1745POPC   C4B25270  23.678   2.378   7.641
 1746POPC   NC325271  17.256  10.546   9.646
 1746POPC   PO425272  17.654  11.019   9.495
 1746POPC   GL125273  17.544  10.667   9.234
 1746POPC   GL225274  17.629  10.320   9.229
 1746POPC   C1A25275  17.214  10.669   8.923
 1746POPC   D2A25276  17.115  10.547   8.470
 1746POPC   C3A25277  17.292  10.627   8.066
 1746POPC   C4A25278  17.630  10.419   7.863
 1746POPC   C1B25279  17.676  10.502   8.775
 1746POPC   C2B25280  17.738  10.668   8.327
 1746POPC   C3B25281  17.679  10.928   7.914
 1746POPC   C4B25282  17.714  10.942   7.431
 1747POPC   NC325283  22.507  27.928   9.394
 1747POPC   PO425284  22.941  27.518   9.696
 1747POPC   GL125285  22.960  27.507   9.224
 1747POPC   GL225286  23.054  27.860   9.217
 1747POPC   C1A25287  22.984  27.273   8.788
 1747POPC   D2A25288  22.826  27.157   8.344
 1747POPC   C3A25289  22.911  27.421   7.958
 1747POPC   C4A25290  23.244  27.724   7.790
 1747POPC   C1B25291  23.170  27.761   8.786
 1747POPC   C2B25292  22.984  27.685   8.406
 1747POPC   C3B25293  22.901  27.943   8.063
 1747POPC   C4B25294  22.716  27.965   7.648
 1748POPC   NC325295   8.320   0.159   9.490
 1748POPC   PO425296   8.124   0.670   9.276
 1748POPC   GL125297   8.212   0.355   9.015
 1748POPC   GL225298   8.024   0.098   9.058
 1748POPC   C1A25299   8.102   0.378   8.585
 1748POPC   D2A25300   7.948   0.570   8.205
 1748POPC   C3A25301   8.147   0.393   7.860
 1748POPC   C4A25302   8.411   0.629   7.586
 1748POPC   C1B25303   7.863  44.931   8.690
 1748POPC   C2B25304   7.896   0.023   8.266
 1748POPC   C3B25305   7.664   0.171   7.955
 1748POPC   C4B25306   7.762   0.194   7.533
 1749POPC   NC325307  40.226  16.223   9.456
 1749POPC   PO425308  39.699  15.772   9.498
 1749POPC   GL125309  39.930  15.975   9.120
 1749POPC   GL225310  40.297  15.934   9.029
 1749POPC   C1A25311  39.757  15.972   8.695
 1749POPC   D2A25312  39.867  15.923   8.287
 1749POPC   C3A25313  39.712  15.690   7.969
 1749POPC   C4A25314  39.643  16.113   7.834
 1749POPC   C1B25315  40.305  15.904   8.590
 1749POPC   C2B25316  40.325  16.116   8.238
 1749POPC   C3B25317  40.145  16.054   7.849
 1749POPC   C4B25318  40.307  15.810   7.546
 1750POPC   NC325319  30.428   3.639   9.470
 1750POPC   PO425320  31.115   3.529   9.572
 1750POPC   GL125321  30.886   3.618   9.232
 1750POPC   GL225322  30.858   3.259   9.133
 1750POPC   C1A25323  30.809   3.623   8.785
 1750POPC   D2A25324  30.859   3.367   8.417
 1750POPC   C3A25325  30.996   3.564   8.056
 1750POPC   C4A25326  31.044   3.424   7.621
 1750POPC   C1B25327  30.564   3.110   8.760
 1750POPC   C2B25328  30.460   2.996   8.307
 1750POPC   C3B25329  30.650   3.183   7.931
 1750POPC   C4B25330  30.553   3.630   7.785
 1751POPC   NC325331  25.909  31.988   9.361
 1751POPC   PO425332  25.961  31.262   9.502
 1751POPC   GL125333  26.045  31.250   9.084
 1751POPC   GL225334  25.711  31.069   9.088
 1751POPC   C1A25335  26.182  31.566   8.734
 1751POPC   D2A25336  26.199  31.876   8.347
 1751POPC   C3A25337  26.161  31.648   7.939
 1751POPC   C4A25338  26.362  31.237   7.872
 1751POPC   C1B25339  25.733  31.300   8.697
 1751POPC   C2B25340  25.826  31.521   8.346
 1751POPC   C3B25341  25.854  31.254   8.022
 1751POPC   C4B25342  25.778  31.326   7.633
 1752POPC   NC325343  24.035  26.819   9.468
 1752POPC   PO425344  24.736  26.571   9.569
 1752POPC   GL125345  24.437  26.680   9.200
 1752POPC   GL225346  24.473  27.011   8.998
 1752POPC   C1A25347  24.236  26.645   8.781
 1752POPC   D2A25348  24.486  26.847   8.491
 1752POPC   C3A25349  24.274  26.865   8.134
 1752POPC   C4A25350  24.117  26.641   7.814
 1752POPC   C1B25351  24.802  27.190   8.752
 1752POPC   C2B25352  24.938  27.086   8.372
 1752POPC   C3B25353  24.673  27.183   8.036
 1752POPC   C4B25354  24.401  27.063   7.674
 1753POPC   NC325355  35.568   4.518   9.503
 1753POPC   PO425356  34.908   4.263   9.447
 1753POPC   GL125357  35.264   4.245   9.160
 1753POPC   GL225358  35.346   3.902   9.075
 1753POPC   C1A25359  35.377   4.473   8.767
 1753POPC   D2A25360  35.169   4.422   8.369
 1753POPC   C3A25361  35.199   4.594   7.983
 1753POPC   C4A25362  35.242   4.375   7.597
 1753POPC   C1B25363  35.667   4.066   8.783
 1753POPC   C2B25364  35.669   4.252   8.370
 1753POPC   C3B25365  35.478   4.130   7.992
 1753POPC   C4B25366  35.703   4.036   7.615
 1754POPC   NC325367   9.479  40.137   9.493
 1754POPC   PO425368  10.089  40.218   9.493
 1754POPC   GL125369   9.923  39.975   9.101
 1754POPC   GL225370   9.572  39.877   9.075
 1754POPC   C1A25371   9.862  39.814   8.635
 1754POPC   D2A25372  10.035  39.971   8.248
 1754POPC   C3A25373   9.819  40.349   8.054
 1754POPC   C4A25374   9.832  40.164   7.660
 1754POPC   C1B25375   9.589  40.211   8.767
 1754POPC   C2B25376   9.442  40.129   8.359
 1754POPC   C3B25377   9.568  39.918   8.007
 1754POPC   C4B25378   9.566  39.722   7.642
 1755POPC   NC325379  44.368  19.971   9.339
 1755POPC   PO425380  44.974  19.903   9.514
 1755POPC   GL125381  44.952  19.972   9.128
 1755POPC   GL225382  44.813  20.293   9.167
 1755POPC   C1A25383  44.740  19.662   8.843
 1755POPC   D2A25384  44.595  19.442   8.478
 1755POPC   C3A25385  44.524  19.604   8.078
 1755POPC   C4A25386  44.478  19.795   7.676
 1755POPC   C1B25387  44.659  20.199   8.777
 1755POPC   C2B25388  44.658  19.973   8.432
 1755POPC   C3B25389  44.523  20.120   8.073
 1755POPC   C4B25390  44.648  20.278   7.695
 1756POPC   NC325391  24.580  19.640   9.551
 1756POPC   PO425392  24.627  20.250   9.291
 1756POPC   GL125393  24.482  19.893   9.129
 1756POPC   GL225394  24.755  19.660   9.075
 1756POPC   C1A25395  24.312  19.754   8.790
 1756POPC   D2A25396  24.298  19.707   8.349
 1756POPC   C3A25397  24.395  19.480   7.951
 1756POPC   C4A25398  24.264  19.478   7.494
 1756POPC   C1B25399  24.792  19.913   8.705
 1756POPC   C2B25400  24.728  20.073   8.307
 1756POPC   C3B25401  24.430  20.094   8.027
 1756POPC   C4B25402  24.570  19.889   7.682
 1757POPC   NC325403   8.971  11.722   9.314
 1757POPC   PO425404   8.622  12.237   9.334
 1757POPC   GL125405   8.939  12.155   9.058
 1757POPC   GL225406   9.195  12.349   9.180
 1757POPC   C1A25407   8.981  12.041   8.637
 1757POPC   D2A25408   8.705  12.136   8.299
 1757POPC   C3A25409   8.796  12.266   7.898
 1757POPC   C4A25410   8.996  12.030   7.591
 1757POPC   C1B25411   9.245  12.459   8.740
 1757POPC   C2B25412   9.203  12.321   8.288
 1757POPC   C3B25413   9.325  12.348   7.890
 1757POPC   C4B25414   9.349  12.330   7.431
 1758POPC   NC325415  25.795  40.180   9.520
 1758POPC   PO425416  26.444  40.334   9.452
 1758POPC   GL125417  26.170  40.081   9.161
 1758POPC   GL225418  26.274  39.762   9.036
 1758POPC   C1A25419  26.090  40.146   8.739
 1758POPC   D2A25420  25.931  39.986   8.353
 1758POPC   C3A25421  25.746  40.207   8.043
 1758POPC   C4A25422  26.004  40.165   7.690
 1758POPC   C1B25423  26.183  39.634   8.655
 1758POPC   C2B25424  26.440  39.904   8.411
 1758POPC   C3B25425  26.418  40.030   8.002
 1758POPC   C4B25426  26.305  39.731   7.743
 1759POPC   NC325427  24.721  31.166   9.730
 1759POPC   PO425428  24.685  30.625   9.384
 1759POPC   GL125429  24.435  30.787   9.074
 1759POPC   GL225430  24.254  30.496   9.105
 1759POPC   C1A25431  24.447  30.675   8.639
 1759POPC   D2A25432  24.701  30.535   8.337
 1759POPC   C3A25433  24.606  30.743   7.983
 1759POPC   C4A25434  24.621  30.525   7.619
 1759POPC   C1B25435  24.221  30.243   8.789
 1759POPC   C2B25436  23.993  30.303   8.443
 1759POPC   C3B25437  24.219  30.413   8.067
 1759POPC   C4B25438  24.245  30.162   7.677
 1760POPC   NC325439  39.255  12.391   9.703
 1760POPC   PO425440  39.161  13.026   9.517
 1760POPC   GL125441  38.989  13.038   9.124
 1760POPC   GL225442  38.860  12.693   9.190
 1760POPC   C1A25443  39.152  12.987   8.696
 1760POPC   D2A25444  39.307  12.663   8.401
 1760POPC   C3A25445  39.365  12.878   8.025
 1760POPC   C4A25446  39.373  13.065   7.577
 1760POPC   C1B25447  39.011  12.480   8.826
 1760POPC   C2B25448  38.826  12.453   8.422
 1760POPC   C3B25449  38.938  12.419   7.981
 1760POPC   C4B25450  39.223  12.568   7.666
 1761POPC   NC325451  22.327  30.270   9.416
 1761POPC   PO425452  21.750  30.167   9.322
 1761POPC   GL125453  21.935  30.221   8.969
 1761POPC   GL225454  22.181  29.959   9.025
 1761POPC   C1A25455  21.975  30.071   8.546
 1761POPC   D2A25456  22.337  29.792   8.413
 1761POPC   C3A25457  22.353  29.682   7.956
 1761POPC   C4A25458  22.009  29.870   7.698
 1761POPC   C1B25459  22.424  30.228   8.772
 1761POPC   C2B25460  22.331  30.410   8.407
 1761POPC   C3B25461  22.252  30.171   8.074
 1761POPC   C4B25462  22.470  30.119   7.681
 1762POPC   NC325463  29.078  17.070   9.474
 1762POPC   PO425464  29.304  16.406   9.509
 1762POPC   GL125465  29.005  16.548   9.228
 1762POPC   GL225466  29.249  16.766   9.110
 1762POPC   C1A25467  28.873  16.582   8.801
 1762POPC   D2A25468  29.017  16.511   8.392
 1762POPC   C3A25469  28.853  16.853   8.198
 1762POPC   C4A25470  28.810  17.030   7.822
 1762POPC   C1B25471  29.384  16.693   8.725
 1762POPC   C2B25472  29.325  16.946   8.409
 1762POPC   C3B25473  29.381  16.820   8.020
 1762POPC   C4B25474  29.284  16.930   7.632
 1763POPC   NC325475   2.548   6.774   9.423
 1763POPC   PO425476   3.212   6.734   9.548
 1763POPC   GL125477   2.990   6.908   9.174
 1763POPC   GL225478   2.679   7.037   9.013
 1763POPC   C1A25479   2.918   6.636   8.815
 1763POPC   D2A25480   2.831   6.659   8.392
 1763POPC   C3A25481   2.713   6.368   8.070
 1763POPC   C4A25482   2.880   6.444   7.669
 1763POPC   C1B25483   2.457   6.832   8.690
 1763POPC   C2B25484   2.389   6.849   8.233
 1763POPC   C3B25485   2.739   6.897   7.928
 1763POPC   C4B25486   2.753   6.908   7.469
 1764POPC   NC325487  30.279  44.908   9.647
 1764POPC   PO425488  29.748  44.514   9.526
 1764POPC   GL125489  29.894  44.501   9.100
 1764POPC   GL225490  30.218  44.654   9.191
 1764POPC   C1A25491  29.893  44.255   8.680
 1764POPC   D2A25492  29.906  44.291   8.260
 1764POPC   C3A25493  29.856  44.697   8.125
 1764POPC   C4A25494  29.659  44.748   7.771
 1764POPC   C1B25495  30.333  44.399   8.856
 1764POPC   C2B25496  30.412  44.269   8.421
 1764POPC   C3B25497  30.336  44.482   8.043
 1764POPC   C4B25498  30.010  44.375   7.741
 1765POPC   NC325499  30.232   0.196   9.190
 1765POPC   PO425500  29.780   0.493   9.525
 1765POPC   GL125501  29.844   0.626   9.089
 1765POPC   GL225502  30.168   0.680   9.040
 1765POPC   C1A25503  29.853   0.410   8.671
 1765POPC   D2A25504  29.721   0.200   8.278
 1765POPC   C3A25505  29.853   0.360   7.896
 1765POPC   C4A25506  29.693   0.630   7.580
 1765POPC   C1B25507  30.345   0.549   8.664
 1765POPC   C2B25508  30.265   0.259   8.316
 1765POPC   C3B25509  30.374   0.355   7.890
 1765POPC   C4B25510  30.192   0.427   7.490
 1766POPC   NC325511  20.084  31.390   9.430
 1766POPC   PO425512  19.537  31.744   9.432
 1766POPC   GL125513  19.749  31.588   9.093
 1766POPC   GL225514  20.004  31.812   9.107
 1766POPC   C1A25515  19.728  31.354   8.724
 1766POPC   D2A25516  19.536  31.409   8.358
 1766POPC   C3A25517  19.779  31.311   8.011
 1766POPC   C4A25518  19.628  31.330   7.617
 1766POPC   C1B25519  20.125  31.697   8.743
 1766POPC   C2B25520  19.941  31.737   8.402
 1766POPC   C3B25521  20.185  31.760   8.096
 1766POPC   C4B25522  19.960  31.724   7.784
 1767POPC   NC325523  28.576  32.499   9.469
 1767POPC   PO425524  28.276  31.961   9.692
 1767POPC   GL125525  28.242  32.181   9.281
 1767POPC   GL225526  28.569  32.050   9.199
 1767POPC   C1A25527  28.295  32.431   8.877
 1767POPC   D2A25528  28.473  32.487   8.457
 1767POPC   C3A25529  28.376  32.204   8.109
 1767POPC   C4A25530  28.304  32.372   7.719
 1767POPC   C1B25531  28.682  32.104   8.772
 1767POPC   C2B25532  28.750  31.938   8.369
 1767POPC   C3B25533  28.834  31.956   7.928
 1767POPC   C4B25534  28.838  32.371   7.747
 1768POPC   NC325535  20.463   6.859   9.554
 1768POPC   PO425536  20.749   6.245   9.403
 1768POPC   GL125537  20.650   6.552   9.115
 1768POPC   GL225538  20.796   6.881   9.178
 1768POPC   C1A25539  20.681   6.373   8.716
 1768POPC   D2A25540  20.417   6.265   8.393
 1768POPC   C3A25541  20.668   6.318   8.066
 1768POPC   C4A25542  20.648   6.459   7.689
 1768POPC   C1B25543  20.629   7.091   8.841
 1768POPC   C2B25544  20.453   7.065   8.452
 1768POPC   C3B25545  20.507   6.849   8.073
 1768POPC   C4B25546  20.656   6.998   7.709
 1769POPC   NC325547  39.402   8.840   9.436
 1769POPC   PO425548  39.307   9.528   9.334
 1769POPC   GL125549  39.183   9.180   9.115
 1769POPC   GL225550  39.521   9.145   9.038
 1769POPC   C1A25551  39.194   8.838   8.802
 1769POPC   D2A25552  39.427   8.815   8.405
 1769POPC   C3A25553  39.201   8.615   8.073
 1769POPC   C4A25554  39.127   8.817   7.668
 1769POPC   C1B25555  39.482   9.295   8.631
 1769POPC   C2B25556  39.583   9.304   8.194
 1769POPC   C3B25557  39.547   9.103   7.751
 1769POPC   C4B25558  39.299   9.204   7.362
 1770POPC   NC325559  33.420  23.173   9.450
 1770POPC   PO425560  34.004  22.853   9.586
 1770POPC   GL125561  33.721  22.676   9.243
 1770POPC   GL225562  33.500  22.872   9.061
 1770POPC   C1A25563  33.801  22.629   8.766
 1770POPC   D2A25564  33.588  22.853   8.406
 1770POPC   C3A25565  33.922  23.102   8.234
 1770POPC   C4A25566  34.200  22.839   7.950
 1770POPC   C1B25567  33.564  23.199   8.777
 1770POPC   C2B25568  33.427  23.335   8.349
 1770POPC   C3B25569  33.388  23.116   7.958
 1770POPC   C4B25570  33.738  22.983   7.784
 1771POPC   NC325571  41.876  23.008   9.555
 1771POPC   PO425572  41.328  22.499   9.478
 1771POPC   GL125573  41.381  22.832   9.141
 1771POPC   GL225574  41.649  23.133   9.130
 1771POPC   C1A25575  41.373  23.008   8.729
 1771POPC   D2A25576  41.802  23.009   8.502
 1771POPC   C3A25577  41.724  23.058   8.090
 1771POPC   C4A25578  41.345  22.885   7.866
 1771POPC   C1B25579  41.671  23.412   8.790
 1771POPC   C2B25580  41.491  23.414   8.412
 1771POPC   C3B25581  41.588  23.546   8.007
 1771POPC   C4B25582  41.589  23.306   7.664
 1772POPC   NC325583  43.401  23.097   9.382
 1772POPC   PO425584  44.022  22.988   9.568
 1772POPC   GL125585  43.961  22.989   9.155
 1772POPC   GL225586  44.043  22.656   9.078
 1772POPC   C1A25587  43.857  23.106   8.731
 1772POPC   D2A25588  44.016  23.009   8.331
 1772POPC   C3A25589  43.753  22.864   8.048
 1772POPC   C4A25590  43.535  22.981   7.693
 1772POPC   C1B25591  44.277  22.814   8.744
 1772POPC   C2B25592  44.420  22.693   8.328
 1772POPC   C3B25593  44.288  22.804   7.943
 1772POPC   C4B25594  44.059  22.962   7.645
 1773POPC   NC325595  43.648  40.380   9.534
 1773POPC   PO425596  43.917  39.826   9.563
 1773POPC   GL125597  43.909  40.098   9.180
 1773POPC   GL225598  44.231  40.176   9.105
 1773POPC   C1A25599  43.721  40.063   8.741
 1773POPC   D2A25600  43.907  39.899   8.337
 1773POPC   C3A25601  43.745  40.016   7.941
 1773POPC   C4A25602  43.654  39.996   7.489
 1773POPC   C1B25603  44.230  40.035   8.722
 1773POPC   C2B25604  44.411  40.106   8.345
 1773POPC   C3B25605  44.239  40.210   7.983
 1773POPC   C4B25606  44.034  40.321   7.623
 1774POPC   NC325607  30.037   0.869   9.518
 1774POPC   PO425608  29.734   1.466   9.569
 1774POPC   GL125609  29.750   1.428   9.112
 1774POPC   GL225610  30.004   1.168   9.069
 1774POPC   C1A25611  29.834   1.383   8.639
 1774POPC   D2A25612  29.917   1.187   8.231
 1774POPC   C3A25613  29.931   1.472   7.898
 1774POPC   C4A25614  29.841   1.417   7.477
 1774POPC   C1B25615  29.975   0.909   8.658
 1774POPC   C2B25616  30.006   0.691   8.255
 1774POPC   C3B25617  30.112   0.826   7.833
 1774POPC   C4B25618  30.043   0.928   7.374
 1775POPC   NC325619  36.009  38.608   9.476
 1775POPC   PO425620  35.644  38.035   9.647
 1775POPC   GL125621  35.904  38.125   9.259
 1775POPC   GL225622  36.263  38.265   9.185
 1775POPC   C1A25623  35.966  38.111   8.803
 1775POPC   D2A25624  36.239  38.216   8.479
 1775POPC   C3A25625  36.044  38.269   8.120
 1775POPC   C4A25626  36.075  38.209   7.710
 1775POPC   C1B25627  36.250  38.586   8.831
 1775POPC   C2B25628  36.151  38.742   8.366
 1775POPC   C3B25629  36.237  38.690   7.896
 1775POPC   C4B25630  36.496  38.547   7.518
 1776POPC   NC325631  33.973  42.415   9.328
 1776POPC   PO425632  34.652  42.447   9.433
 1776POPC   GL125633  34.446  42.237   9.095
 1776POPC   GL225634  34.462  42.556   8.973
 1776POPC   C1A25635  34.593  42.164   8.663
 1776POPC   D2A25636  34.412  42.147   8.256
 1776POPC   C3A25637  34.690  42.297   7.961
 1776POPC   C4A25638  35.063  42.138   7.855
 1776POPC   C1B25639  34.829  42.642   8.720
 1776POPC   C2B25640  34.633  42.650   8.343
 1776POPC   C3B25641  34.291  42.609   8.106
 1776POPC   C4B25642  34.185  42.316   7.808
 1777POPC   NC325643  14.976  32.619   9.310
 1777POPC   PO425644  15.428  32.174   9.442
 1777POPC   GL125645  15.227  32.184   9.065
 1777POPC   GL225646  14.956  31.983   9.099
 1777POPC   C1A25647  15.170  31.965   8.650
 1777POPC   D2A25648  14.984  32.124   8.291
 1777POPC   C3A25649  15.164  32.031   7.934
 1777POPC   C4A25650  15.525  31.959   7.714
 1777POPC   C1B25651  14.809  32.308   8.752
 1777POPC   C2B25652  14.844  32.613   8.404
 1777POPC   C3B25653  14.934  32.538   7.959
 1777POPC   C4B25654  14.665  32.523   7.615
 1778POPC   NC325655  12.792   1.570   9.266
 1778POPC   PO425656  12.947   1.051   9.688
 1778POPC   GL125657  12.821   1.077   9.146
 1778POPC   GL225658  12.963   1.337   8.870
 1778POPC   C1A25659  12.813   0.919   8.689
 1778POPC   D2A25660  12.828   1.170   8.291
 1778POPC   C3A25661  12.839   0.935   7.925
 1778POPC   C4A25662  12.488   0.803   7.692
 1778POPC   C1B25663  12.526   1.358   8.662
 1778POPC   C2B25664  12.499   1.615   8.257
 1778POPC   C3B25665  12.743   1.505   7.896
 1778POPC   C4B25666  13.136   1.364   7.772
 1779POPC   NC325667   6.223  37.923   9.574
 1779POPC   PO425668   6.821  37.613   9.473
 1779POPC   GL125669   6.528  37.689   9.166
 1779POPC   GL225670   6.314  38.022   9.103
 1779POPC   C1A25671   6.672  37.541   8.750
 1779POPC   D2A25672   6.568  37.400   8.348
 1779POPC   C3A25673   6.806  37.410   7.966
 1779POPC   C4A25674   6.533  37.613   7.688
 1779POPC   C1B25675   6.586  38.043   8.806
 1779POPC   C2B25676   6.900  38.018   8.531
 1779POPC   C3B25677   6.775  37.880   8.159
 1779POPC   C4B25678   6.972  37.876   7.787
 1780POPC   NC325679  10.867  33.898   9.604
 1780POPC   PO425680  11.512  34.033   9.471
 1780POPC   GL125681  11.301  33.855   9.149
 1780POPC   GL225682  11.138  33.583   9.286
 1780POPC   C1A25683  11.350  33.930   8.705
 1780POPC   D2A25684  11.407  33.698   8.320
 1780POPC   C3A25685  11.441  33.911   7.931
 1780POPC   C4A25686  11.451  33.737   7.519
 1780POPC   C1B25687  10.987  33.598   8.823
 1780POPC   C2B25688  10.882  33.738   8.394
 1780POPC   C3B25689  10.986  33.671   7.975
 1780POPC   C4B25690  10.955  33.800   7.563
 1781POPC   NC325691  33.188  21.674   9.616
 1781POPC   PO425692  32.566  21.699   9.497
 1781POPC   GL125693  32.724  21.497   9.136
 1781POPC   GL225694  33.086  21.432   9.183
 1781POPC   C1A25695  32.732  21.473   8.695
 1781POPC   D2A25696  33.044  21.469   8.405
 1781POPC   C3A25697  33.068  21.573   7.985
 1781POPC   C4A25698  33.254  21.299   7.683
 1781POPC   C1B25699  33.130  21.197   8.846
 1781POPC   C2B25700  33.184  20.989   8.445
 1781POPC   C3B25701  33.038  21.040   8.063
 1781POPC   C4B25702  33.017  20.836   7.691
 1782POPC   NC325703  20.749  38.469   9.410
 1782POPC   PO425704  20.256  37.969   9.474
 1782POPC   GL125705  20.432  38.266   9.081
 1782POPC   GL225706  20.503  38.669   9.026
 1782POPC   C1A25707  20.629  38.320   8.659
 1782POPC   D2A25708  20.403  38.422   8.264
 1782POPC   C3A25709  20.479  38.253   7.890
 1782POPC   C4A25710  20.510  38.384   7.483
 1782POPC   C1B25711  20.906  38.742   8.768
 1782POPC   C2B25712  20.895  38.622   8.286
 1782POPC   C3B25713  20.704  38.721   7.874
 1782POPC   C4B25714  20.895  38.730   7.455
 1783POPC   NC325715  24.664   7.271   9.511
 1783POPC   PO425716  24.016   7.404   9.452
 1783POPC   GL125717  24.348   7.505   9.142
 1783POPC   GL225718  24.698   7.550   9.103
 1783POPC   C1A25719  24.430   7.337   8.720
 1783POPC   D2A25720  24.186   7.281   8.340
 1783POPC   C3A25721  24.497   7.279   7.997
 1783POPC   C4A25722  24.575   7.478   7.631
 1783POPC   C1B25723  24.705   7.773   8.728
 1783POPC   C2B25724  24.565   7.643   8.349
 1783POPC   C3B25725  24.692   7.785   8.008
 1783POPC   C4B25726  24.897   7.855   7.664
 1784POPC   NC325727  25.577   4.774   9.492
 1784POPC   PO425728  25.082   5.180   9.724
 1784POPC   GL125729  25.128   5.166   9.247
 1784POPC   GL225730  24.818   5.371   9.181
 1784POPC   C1A25731  25.386   5.080   8.816
 1784POPC   D2A25732  25.538   5.051   8.367
 1784POPC   C3A25733  25.258   4.764   8.119
 1784POPC   C4A25734  25.099   4.786   7.691
 1784POPC   C1B25735  24.969   5.373   8.770
 1784POPC   C2B25736  25.061   5.196   8.350
 1784POPC   C3B25737  25.052   5.368   7.933
 1784POPC   C4B25738  24.807   5.507   7.580
 1785POPC   NC325739  40.420   3.475   9.451
 1785POPC   PO425740  39.758   3.430   9.643
 1785POPC   GL125741  39.988   3.441   9.198
 1785POPC   GL225742  39.750   3.551   8.994
 1785POPC   C1A25743  40.224   3.591   8.810
 1785POPC   D2A25744  40.233   3.546   8.381
 1785POPC   C3A25745  40.095   3.203   8.181
 1785POPC   C4A25746  40.073   3.289   7.781
 1785POPC   C1B25747  39.757   3.638   8.558
 1785POPC   C2B25748  39.785   3.621   8.108
 1785POPC   C3B25749  40.042   3.829   7.792
 1785POPC   C4B25750  40.060   4.052   7.378
 1786POPC   NC325751  34.880  12.268   9.410
 1786POPC   PO425752  34.492  11.766   9.449
 1786POPC   GL125753  34.504  12.033   9.152
 1786POPC   GL225754  34.209  12.208   9.164
 1786POPC   C1A25755  34.630  12.061   8.745
 1786POPC   D2A25756  34.508  11.796   8.406
 1786POPC   C3A25757  34.583  11.987   8.000
 1786POPC   C4A25758  34.848  12.057   7.639
 1786POPC   C1B25759  34.133  11.969   8.773
 1786POPC   C2B25760  34.132  12.157   8.360
 1786POPC   C3B25761  34.194  12.342   7.950
 1786POPC   C4B25762  34.360  12.187   7.566
 1787POPC   NC325763  39.255   6.324   9.526
 1787POPC   PO425764  38.977   5.696   9.441
 1787POPC   GL125765  39.193   5.942   9.135
 1787POPC   GL225766  38.977   6.217   9.121
 1787POPC   C1A25767  39.280   5.804   8.704
 1787POPC   D2A25768  39.363   5.610   8.310
 1787POPC   C3A25769  39.048   5.773   8.095
 1787POPC   C4A25770  39.112   5.825   7.676
 1787POPC   C1B25771  38.827   6.107   8.738
 1787POPC   C2B25772  38.866   6.230   8.317
 1787POPC   C3B25773  38.767   6.130   7.885
 1787POPC   C4B25774  38.943   6.283   7.469
 1788POPC   NC325775  24.283  27.816   9.481
 1788POPC   PO425776  24.366  27.135   9.465
 1788POPC   GL125777  24.572  27.441   9.228
 1788POPC   GL225778  24.932  27.499   9.194
 1788POPC   C1A25779  24.427  27.533   8.796
 1788POPC   D2A25780  24.312  27.313   8.404
 1788POPC   C3A25781  24.219  27.449   7.978
 1788POPC   C4A25782  24.204  27.876   7.791
 1788POPC   C1B25783  24.961  27.683   8.750
 1788POPC   C2B25784  24.755  27.603   8.371
 1788POPC   C3B25785  24.686  27.683   7.951
 1788POPC   C4B25786  24.932  27.444   7.676
 1789POPC   NC325787  19.096  20.009   9.692
 1789POPC   PO425788  18.581  19.832   9.594
 1789POPC   GL125789  18.826  19.880   9.176
 1789POPC   GL225790  19.193  19.871   9.170
 1789POPC   C1A25791  18.826  19.858   8.691
 1789POPC   D2A25792  19.069  19.945   8.315
 1789POPC   C3A25793  18.884  19.952   7.896
 1789POPC   C4A25794  19.145  19.959   7.529
 1789POPC   C1B25795  19.095  19.492   8.902
 1789POPC   C2B25796  19.113  19.432   8.441
 1789POPC   C3B25797  19.158  19.533   7.974
 1789POPC   C4B25798  19.284  19.463   7.515
 1790POPC   NC325799   0.494  33.521   9.530
 1790POPC   PO425800   0.476  34.205   9.539
 1790POPC   GL125801   0.209  33.899   9.281
 1790POPC   GL225802   0.219  34.078   8.989
 1790POPC   C1A25803   0.188  33.556   8.926
 1790POPC   D2A25804   0.302  33.577   8.481
 1790POPC   C3A25805   0.086  33.403   8.125
 1790POPC   C4A25806   0.183  33.481   7.687
 1790POPC   C1B25807   0.601  33.871   8.872
 1790POPC   C2B25808   0.685  33.923   8.465
 1790POPC   C3B25809   0.559  33.786   8.063
 1790POPC   C4B25810   0.890  33.675   7.800
 1791POPC   NC325811  44.198  17.068   9.399
 1791POPC   PO425812  44.903  16.775   9.539
 1791POPC   GL125813  44.919  16.675   9.121
 1791POPC   GL225814  44.550  16.751   9.083
 1791POPC   C1A25815  44.881  16.680   8.669
 1791POPC   D2A25816   0.043  16.827   8.273
 1791POPC   C3A25817  44.957  16.598   7.908
 1791POPC   C4A25818  44.560  16.643   7.756
 1791POPC   C1B25819  44.317  16.841   8.683
 1791POPC   C2B25820  44.268  16.789   8.233
 1791POPC   C3B25821  44.216  17.009   7.832
 1791POPC   C4B25822  44.388  17.013   7.422
 1792POPC   NC325823  18.053  22.722   9.671
 1792POPC   PO425824  17.716  23.258   9.292
 1792POPC   GL125825  17.911  23.036   8.925
 1792POPC   GL225826  18.052  22.705   9.090
 1792POPC   C1A25827  18.110  22.923   8.554
 1792POPC   D2A25828  18.487  22.961   8.358
 1792POPC   C3A25829  18.347  23.028   7.962
 1792POPC   C4A25830  18.087  22.713   7.779
 1792POPC   C1B25831  18.304  22.526   8.780
 1792POPC   C2B25832  18.312  22.479   8.351
 1792POPC   C3B25833  18.534  22.546   7.984
 1792POPC   C4B25834  18.702  22.780   7.668
 1793POPC   NC325835  40.536  26.239   9.712
 1793POPC   PO425836  40.874  25.734   9.723
 1793POPC   GL125837  40.779  25.989   9.325
 1793POPC   GL225838  40.685  25.762   9.137
 1793POPC   C1A25839  40.902  26.152   8.877
 1793POPC   D2A25840  40.990  26.268   8.449
 1793POPC   C3A25841  40.912  25.946   8.161
 1793POPC   C4A25842  40.955  26.164   7.828
 1793POPC   C1B25843  40.479  25.795   8.784
 1793POPC   C2B25844  40.577  25.636   8.408
 1793POPC   C3B25845  40.416  25.719   8.036
 1793POPC   C4B25846  40.542  25.899   7.695
 1794POPC   NC325847   1.503  44.839   9.416
 1794POPC   PO425848   0.832  44.523   9.459
 1794POPC   GL125849   1.093  44.658   9.132
 1794POPC   GL225850   1.028   0.002   9.186
 1794POPC   C1A25851   1.320  44.597   8.754
 1794POPC   D2A25852   1.382  44.401   8.344
 1794POPC   C3A25853   1.008  44.407   8.123
 1794POPC   C4A25854   0.902  44.430   7.718
 1794POPC   C1B25855   1.217   0.115   8.786
 1794POPC   C2B25856   1.191  44.928   8.392
 1794POPC   C3B25857   1.297  44.821   8.016
 1794POPC   C4B25858   1.138   0.002   7.686
 1795POPC   NC325859  33.427  16.695   9.419
 1795POPC   PO425860  32.967  17.190   9.456
 1795POPC   GL125861  32.949  16.813   9.208
 1795POPC   GL225862  33.148  16.572   9.035
 1795POPC   C1A25863  32.970  16.972   8.782
 1795POPC   D2A25864  32.676  16.949   8.425
 1795POPC   C3A25865  32.877  17.017   8.033
 1795POPC   C4A25866  32.817  16.887   7.652
 1795POPC   C1B25867  33.405  16.697   8.724
 1795POPC   C2B25868  33.181  16.767   8.357
 1795POPC   C3B25869  33.177  16.506   8.003
 1795POPC   C4B25870  33.032  16.426   7.609
 1796POPC   NC325871  27.220  21.829   9.691
 1796POPC   PO425872  26.634  21.500   9.470
 1796POPC   GL125873  26.805  21.470   9.064
 1796POPC   GL225874  26.748  21.108   9.046
 1796POPC   C1A25875  27.140  21.412   8.749
 1796POPC   D2A25876  27.324  21.647   8.388
 1796POPC   C3A25877  27.352  21.617   7.913
 1796POPC   C4A25878  27.016  21.623   7.582
 1796POPC   C1B25879  26.644  21.193   8.644
 1796POPC   C2B25880  26.848  21.415   8.331
 1796POPC   C3B25881  26.977  21.276   7.971
 1796POPC   C4B25882  26.751  21.113   7.624
 1797POPC   NC325883   8.511  18.708   9.344
 1797POPC   PO425884   8.259  18.201   9.689
 1797POPC   GL125885   8.416  18.015   9.194
 1797POPC   GL225886   8.636  18.246   9.163
 1797POPC   C1A25887   8.164  17.936   8.774
 1797POPC   D2A25888   7.918  17.957   8.359
 1797POPC   C3A25889   8.081  18.226   8.003
 1797POPC   C4A25890   8.332  18.415   7.638
 1797POPC   C1B25891   8.648  18.117   8.751
 1797POPC   C2B25892   8.488  18.356   8.411
 1797POPC   C3B25893   8.620  18.259   8.026
 1797POPC   C4B25894   8.753  18.122   7.620
 1798POPC   NC325895  40.265  10.471   9.491
 1798POPC   PO425896  40.888  10.269   9.543
 1798POPC   GL125897  40.751  10.472   9.195
 1798POPC   GL225898  40.498  10.214   9.134
 1798POPC   C1A25899  40.601  10.657   8.799
 1798POPC   D2A25900  40.393  10.706   8.385
 1798POPC   C3A25901  40.730  10.719   8.075
 1798POPC   C4A25902  40.822  10.577   7.705
 1798POPC   C1B25903  40.700  10.164   8.770
 1798POPC   C2B25904  40.781  10.321   8.388
 1798POPC   C3B25905  40.738  10.169   7.980
 1798POPC   C4B25906  41.068  10.123   7.650
 1799POPC   NC325907   9.562  27.532   9.686
 1799POPC   PO425908  10.066  27.884   9.550
 1799POPC   GL125909   9.833  27.903   9.213
 1799POPC   GL225910   9.856  27.538   9.187
 1799POPC   C1A25911   9.740  27.840   8.789
 1799POPC   D2A25912   9.524  27.594   8.502
 1799POPC   C3A25913   9.545  27.818   8.085
 1799POPC   C4A25914   9.205  27.928   7.793
 1799POPC   C1B25915  10.004  27.319   8.792
 1799POPC   C2B25916   9.835  27.146   8.390
 1799POPC   C3B25917   9.543  27.304   8.059
 1799POPC   C4B25918   9.487  27.529   7.659
 1800POPC   NC325919  21.968   7.822   9.613
 1800POPC   PO425920  22.293   8.394   9.547
 1800POPC   GL125921  22.005   8.198   9.229
 1800POPC   GL225922  21.801   7.879   9.116
 1800POPC   C1A25923  22.222   8.079   8.870
 1800POPC   D2A25924  22.266   8.032   8.427
 1800POPC   C3A25925  22.467   7.898   8.066
 1800POPC   C4A25926  22.529   8.176   7.766
 1800POPC   C1B25927  21.835   7.831   8.641
 1800POPC   C2B25928  21.943   7.711   8.206
 1800POPC   C3B25929  21.985   7.972   7.816
 1800POPC   C4B25930  21.879   7.890   7.371
 1801POPC   NC325931  21.040  35.054   9.506
 1801POPC   PO425932  21.453  35.497   9.465
 1801POPC   GL125933  21.126  35.398   9.150
 1801POPC   GL225934  20.884  35.611   9.045
 1801POPC   C1A25935  21.072  35.260   8.708
 1801POPC   D2A25936  21.274  35.128   8.299
 1801POPC   C3A25937  21.600  35.317   8.097
 1801POPC   C4A25938  21.735  35.231   7.695
 1801POPC   C1B25939  21.267  35.733   8.800
 1801POPC   C2B25940  21.479  35.717   8.422
 1801POPC   C3B25941  21.230  35.659   8.051
 1801POPC   C4B25942  21.271  35.469   7.681
 1802POPC   NC325943  34.176  23.243   9.394
 1802POPC   PO425944  34.539  23.678   9.769
 1802POPC   GL125945  34.430  23.639   9.202
 1802POPC   GL225946  34.664  23.878   8.915
 1802POPC   C1A25947  34.273  23.609   8.803
 1802POPC   D2A25948  34.472  23.777   8.439
 1802POPC   C3A25949  34.259  23.639   8.078
 1802POPC   C4A25950  34.379  23.719   7.655
 1802POPC   C1B25951  34.779  23.488   8.760
 1802POPC   C2B25952  34.890  23.404   8.356
 1802POPC   C3B25953  34.785  23.674   8.022
 1802POPC   C4B25954  34.854  23.567   7.616
 1803POPC   NC325955  41.442   5.351   9.659
 1803POPC   PO425956  41.681   4.783   9.434
 1803POPC   GL125957  41.350   4.925   9.197
 1803POPC   GL225958  41.358   5.280   9.072
 1803POPC   C1A25959  41.426   4.819   8.780
 1803POPC   D2A25960  41.334   4.965   8.390
 1803POPC   C3A25961  41.673   5.090   8.143
 1803POPC   C4A25962  41.652   4.922   7.752
 1803POPC   C1B25963  41.635   5.301   8.661
 1803POPC   C2B25964  41.875   5.528   8.336
 1803POPC   C3B25965  41.794   5.587   7.890
 1803POPC   C4B25966  41.785   5.346   7.489
 1804POPC   NC325967  37.198  24.887   9.543
 1804POPC   PO425968  36.973  24.181   9.471
 1804POPC   GL125969  36.930  24.570   9.199
 1804POPC   GL225970  37.242  24.727   9.080
 1804POPC   C1A25971  36.800  24.818   8.813
 1804POPC   D2A25972  36.874  24.770   8.351
 1804POPC   C3A25973  36.665  24.468   8.083
 1804POPC   C4A25974  36.719  24.301   7.645
 1804POPC   C1B25975  37.220  24.524   8.705
 1804POPC   C2B25976  37.341  24.554   8.269
 1804POPC   C3B25977  37.165  24.420   7.878
 1804POPC   C4B25978  37.241  24.602   7.434
 1805POPC   NC325979  44.430   4.015   9.911
 1805POPC   PO425980  44.842   3.477   9.576
 1805POPC   GL125981  44.790   3.341   9.154
 1805POPC   GL225982  44.508   3.577   9.195
 1805POPC   C1A25983  44.779   3.034   8.768
 1805POPC   D2A25984  44.929   2.926   8.321
 1805POPC   C3A25985  44.961   3.256   8.061
 1805POPC   C4A25986  44.861   3.397   7.688
 1805POPC   C1B25987  44.467   3.434   8.784
 1805POPC   C2B25988  44.770   3.482   8.482
 1805POPC   C3B25989  44.601   3.595   8.098
 1805POPC   C4B25990  44.357   3.461   7.769
 1806POPC   NC325991  12.300  26.914   9.343
 1806POPC   PO425992  11.814  26.578   9.670
 1806POPC   GL125993  11.837  26.723   9.206
 1806POPC   GL225994  11.855  27.102   9.163
 1806POPC   C1A25995  12.079  26.685   8.789
 1806POPC   D2A25996  11.946  26.742   8.379
 1806POPC   C3A25997  12.002  26.552   7.993
 1806POPC   C4A25998  11.803  26.623   7.603
 1806POPC   C1B25999  11.926  27.185   8.749
 1806POPC   C2B26000  12.223  27.152   8.442
 1806POPC   C3B26001  11.980  27.127   8.053
 1806POPC   C4B26002  12.160  27.002   7.700
 1807POPC   NC326003  28.245  11.847   9.424
 1807POPC   PO426004  28.096  12.504   9.483
 1807POPC   GL126005  28.247  12.249   9.120
 1807POPC   GL226006  28.590  12.232   9.254
 1807POPC   C1A26007  28.296  11.964   8.737
 1807POPC   D2A26008  27.997  11.922   8.358
 1807POPC   C3A26009  28.211  12.000   7.994
 1807POPC   C4A26010  28.367  11.677   7.769
 1807POPC   C1B26011  28.804  12.140   8.868
 1807POPC   C2B26012  28.710  12.101   8.443
 1807POPC   C3B26013  28.709  11.982   8.033
 1807POPC   C4B26014  28.765  11.989   7.599
 1808POPC   NC326015  34.451   9.021   9.593
 1808POPC   PO426016  34.897   8.736   9.256
 1808POPC   GL126017  34.578   8.881   9.033
 1808POPC   GL226018  34.502   9.227   9.121
 1808POPC   C1A26019  34.516   8.694   8.622
 1808POPC   D2A26020  34.804   8.618   8.292
 1808POPC   C3A26021  34.658   8.664   7.878
 1808POPC   C4A26022  34.743   8.619   7.432
 1808POPC   C1B26023  34.398   9.207   8.681
 1808POPC   C2B26024  34.530   9.064   8.254
 1808POPC   C3B26025  34.542   9.171   7.795
 1808POPC   C4B26026  34.636   9.102   7.367
 1809POPC   NC326027  20.926  35.761   9.519
 1809POPC   PO426028  20.294  36.148   9.546
 1809POPC   GL126029  20.584  36.020   9.216
 1809POPC   GL226030  20.727  36.332   9.089
 1809POPC   C1A26031  20.649  35.952   8.763
 1809POPC   D2A26032  20.542  36.144   8.385
 1809POPC   C3A26033  20.594  35.906   8.025
 1809POPC   C4A26034  20.284  35.663   7.833
 1809POPC   C1B26035  20.458  36.490   8.785
 1809POPC   C2B26036  20.421  36.660   8.383
 1809POPC   C3B26037  20.444  36.466   7.985
 1809POPC   C4B26038  20.198  36.154   7.804
 1810POPC   NC326039  31.091   0.445   9.417
 1810POPC   PO426040  30.382   0.541   9.459
 1810POPC   GL126041  30.680   0.562   9.108
 1810POPC   GL226042  30.937   0.848   9.102
 1810POPC   C1A26043  30.842   0.407   8.710
 1810POPC   D2A26044  30.686   0.554   8.297
 1810POPC   C3A26045  30.887   0.408   7.960
 1810POPC   C4A26046  30.765   0.404   7.538
 1810POPC   C1B26047  30.900   0.917   8.637
 1810POPC   C2B26048  30.866   1.016   8.199
 1810POPC   C3B26049  30.662   0.849   7.840
 1810POPC   C4B26050  30.985   0.839   7.578
 1811POPC   NC326051  23.176  36.182   9.567
 1811POPC   PO426052  22.668  35.801   9.589
 1811POPC   GL126053  22.901  35.963   9.211
 1811POPC   GL226054  22.940  36.312   9.130
 1811POPC   C1A26055  23.013  35.925   8.792
 1811POPC   D2A26056  22.906  36.080   8.377
 1811POPC   C3A26057  23.048  35.944   7.982
 1811POPC   C4A26058  22.959  36.001   7.542
 1811POPC   C1B26059  23.071  36.441   8.746
 1811POPC   C2B26060  23.274  36.457   8.356
 1811POPC   C3B26061  23.126  36.475   7.934
 1811POPC   C4B26062  23.153  36.479   7.479
 1812POPC   NC326063  32.070  18.949   9.628
 1812POPC   PO426064  32.629  19.307   9.494
 1812POPC   GL126065  32.306  19.235   9.232
 1812POPC   GL226066  32.380  18.910   9.176
 1812POPC   C1A26067  32.352  19.285   8.773
 1812POPC   D2A26068  32.566  19.136   8.401
 1812POPC   C3A26069  32.343  19.045   8.000
 1812POPC   C4A26070  32.272  19.137   7.551
 1812POPC   C1B26071  32.082  18.833   8.879
 1812POPC   C2B26072  32.155  18.774   8.446
 1812POPC   C3B26073  31.883  18.878   8.120
 1812POPC   C4B26074  31.760  18.691   7.768
 1813POPC   NC326075  33.386  13.410   9.427
 1813POPC   PO426076  32.671  13.487   9.412
 1813POPC   GL126077  32.951  13.420   9.096
 1813POPC   GL226078  33.119  13.735   9.105
 1813POPC   C1A26079  32.865  13.280   8.685
 1813POPC   D2A26080  32.859  13.557   8.315
 1813POPC   C3A26081  33.005  13.557   7.889
 1813POPC   C4A26082  33.002  13.240   7.515
 1813POPC   C1B26083  33.184  13.676   8.674
 1813POPC   C2B26084  33.287  13.848   8.247
 1813POPC   C3B26085  33.125  14.051   7.880
 1813POPC   C4B26086  32.781  13.939   7.587
 1814POPC   NC326087  25.685  34.990   9.534
 1814POPC   PO426088  25.579  35.536   9.288
 1814POPC   GL126089  25.432  35.169   9.112
 1814POPC   GL226090  25.093  35.250   9.088
 1814POPC   C1A26091  25.384  35.108   8.678
 1814POPC   D2A26092  25.142  35.260   8.338
 1814POPC   C3A26093  25.403  35.220   7.987
 1814POPC   C4A26094  25.417  35.400   7.621
 1814POPC   C1B26095  24.829  35.088   8.753
 1814POPC   C2B26096  24.703  34.978   8.312
 1814POPC   C3B26097  25.014  34.906   7.973
 1814POPC   C4B26098  25.072  35.039   7.531
 1815POPC   NC326099  34.960  29.168   9.523
 1815POPC   PO426100  35.662  28.927   9.456
 1815POPC   GL126101  35.571  29.203   9.090
 1815POPC   GL226102  35.254  29.298   9.128
 1815POPC   C1A26103  35.568  29.172   8.627
 1815POPC   D2A26104  35.476  28.906   8.283
 1815POPC   C3A26105  35.460  29.105   7.868
 1815POPC   C4A26106  35.648  29.192   7.445
 1815POPC   C1B26107  35.132  29.438   8.728
 1815POPC   C2B26108  35.197  29.357   8.305
 1815POPC   C3B26109  35.077  29.533   7.946
 1815POPC   C4B26110  35.116  29.416   7.538
 1816POPC   NC326111  22.654  23.291   9.567
 1816POPC   PO426112  22.254  23.748   9.511
 1816POPC   GL126113  22.006  23.748   9.146
 1816POPC   GL226114  21.975  23.391   9.126
 1816POPC   C1A26115  21.935  23.804   8.709
 1816POPC   D2A26116  22.194  23.855   8.345
 1816POPC   C3A26117  22.029  23.801   7.954
 1816POPC   C4A26118  22.166  23.990   7.604
 1816POPC   C1B26119  21.974  23.301   8.687
 1816POPC   C2B26120  21.874  23.451   8.281
 1816POPC   C3B26121  21.887  23.297   7.862
 1816POPC   C4B26122  21.971  23.434   7.441
 1817POPC   NC326123   7.384  16.529   9.671
 1817POPC   PO426124   7.168  17.055   9.328
 1817POPC   GL126125   7.431  16.769   9.125
 1817POPC   GL226126   7.775  16.727   9.243
 1817POPC   C1A26127   7.452  16.692   8.676
 1817POPC   D2A26128   7.403  16.379   8.365
 1817POPC   C3A26129   7.213  16.471   7.984
 1817POPC   C4A26130   7.168  16.815   7.753
 1817POPC   C1B26131   7.844  16.973   8.848
 1817POPC   C2B26132   7.730  17.049   8.413
 1817POPC   C3B26133   7.650  16.765   8.048
 1817POPC   C4B26134   7.738  16.888   7.646
 1818POPC   NC326135  35.112  16.897   9.498
 1818POPC   PO426136  35.702  16.624   9.404
 1818POPC   GL126137  35.546  16.581   9.002
 1818POPC   GL226138  35.194  16.660   9.040
 1818POPC   C1A26139  35.456  16.661   8.601
 1818POPC   D2A26140  35.308  16.410   8.301
 1818POPC   C3A26141  35.279  16.700   8.054
 1818POPC   C4A26142  35.264  16.736   7.685
 1818POPC   C1B26143  35.000  16.404   8.710
 1818POPC   C2B26144  34.820  16.505   8.286
 1818POPC   C3B26145  34.927  16.354   7.819
 1818POPC   C4B26146  34.794  16.245   7.357
 1819POPC   NC326147  20.805   0.689   9.654
 1819POPC   PO426148  20.348   0.200   9.652
 1819POPC   GL126149  20.570   0.298   9.236
 1819POPC   GL226150  20.694   0.641   9.141
 1819POPC   C1A26151  20.484   0.377   8.769
 1819POPC   D2A26152  20.224   0.509   8.424
 1819POPC   C3A26153  20.456   0.413   8.031
 1819POPC   C4A26154  20.904   0.415   7.946
 1819POPC   C1B26155  20.607   0.858   8.707
 1819POPC   C2B26156  20.652   0.833   8.246
 1819POPC   C3B26157  20.622   0.817   7.769
 1819POPC   C4B26158  20.454   0.680   7.369
 1820POPC   NC326159  36.479  10.096   9.568
 1820POPC   PO426160  36.129  10.735   9.527
 1820POPC   GL126161  35.950  10.559   9.150
 1820POPC   GL226162  35.677  10.389   9.266
 1820POPC   C1A26163  36.106  10.645   8.717
 1820POPC   D2A26164  36.188  10.475   8.267
 1820POPC   C3A26165  36.045  10.650   7.875
 1820POPC   C4A26166  36.257  10.843   7.546
 1820POPC   C1B26167  35.580  10.283   8.863
 1820POPC   C2B26168  35.739  10.364   8.480
 1820POPC   C3B26169  35.657  10.327   8.050
 1820POPC   C4B26170  35.863  10.194   7.641
 1821POPC   NC326171  43.592  19.341   9.321
 1821POPC   PO426172  43.989  18.841   9.372
 1821POPC   GL126173  43.985  19.147   9.038
 1821POPC   GL226174  43.660  19.048   8.899
 1821POPC   C1A26175  43.963  19.340   8.632
 1821POPC   D2A26176  43.731  19.065   8.364
 1821POPC   C3A26177  43.830  19.087   7.946
 1821POPC   C4A26178  44.118  19.294   7.686
 1821POPC   C1B26179  43.544  18.683   8.671
 1821POPC   C2B26180  43.552  18.539   8.257
 1821POPC   C3B26181  43.540  18.647   7.827
 1821POPC   C4B26182  43.791  18.849   7.468
 1822POPC   NC326183  32.502  33.156   9.382
 1822POPC   PO426184  32.142  32.487   9.460
 1822POPC   GL126185  32.299  32.718   9.163
 1822POPC   GL226186  32.013  32.892   9.068
 1822POPC   C1A26187  32.499  32.804   8.776
 1822POPC   D2A26188  32.720  32.741   8.390
 1822POPC   C3A26189  32.473  32.903   8.063
 1822POPC   C4A26190  32.412  33.174   7.728
 1822POPC   C1B26191  31.836  33.203   8.782
 1822POPC   C2B26192  31.902  33.360   8.337
 1822POPC   C3B26193  31.924  33.189   7.908
 1822POPC   C4B26194  31.678  33.313   7.551
 1823POPC   NC326195  11.172   6.671   9.498
 1823POPC   PO426196  11.803   7.126   9.598
 1823POPC   GL126197  11.569   6.897   9.209
 1823POPC   GL226198  11.480   6.518   9.143
 1823POPC   C1A26199  11.318   6.875   8.796
 1823POPC   D2A26200  11.413   6.665   8.374
 1823POPC   C3A26201  11.238   6.831   7.962
 1823POPC   C4A26202  10.928   7.130   7.727
 1823POPC   C1B26203  11.176   6.381   8.793
 1823POPC   C2B26204  10.947   6.455   8.365
 1823POPC   C3B26205  11.101   6.317   7.947
 1823POPC   C4B26206  11.016   6.294   7.481
 1824POPC   NC326207  42.911  10.245   9.604
 1824POPC   PO426208  43.308  10.755   9.578
 1824POPC   GL126209  43.212  10.467   9.239
 1824POPC   GL226210  42.875  10.503   9.145
 1824POPC   C1A26211  43.317  10.445   8.804
 1824POPC   D2A26212  43.303  10.693   8.396
 1824POPC   C3A26213  43.247  10.542   7.960
 1824POPC   C4A26214  43.274  10.783   7.568
 1824POPC   C1B26215  42.854  10.621   8.687
 1824POPC   C2B26216  42.794  10.501   8.247
 1824POPC   C3B26217  42.757  10.383   7.795
 1824POPC   C4B26218  42.890  10.481   7.380
 1825POPC   NC326219  23.898  29.733   9.461
 1825POPC   PO426220  23.983  30.381   9.522
 1825POPC   GL126221  23.875  30.143   9.165
 1825POPC   GL226222  23.561  30.000   9.213
 1825POPC   C1A26223  23.878  29.875   8.795
 1825POPC   D2A26224  23.918  29.691   8.392
 1825POPC   C3A26225  23.895  30.001   8.042
 1825POPC   C4A26226  23.881  29.814   7.667
 1825POPC   C1B26227  23.382  29.896   8.812
 1825POPC   C2B26228  23.497  29.975   8.387
 1825POPC   C3B26229  23.527  29.657   8.032
 1825POPC   C4B26230  23.447  29.600   7.577
 1826POPC   NC326231  40.601  18.671   9.594
 1826POPC   PO426232  41.006  19.187   9.429
 1826POPC   GL126233  40.731  19.136   9.081
 1826POPC   GL226234  40.482  19.411   9.075
 1826POPC   C1A26235  40.757  18.907   8.681
 1826POPC   D2A26236  40.603  18.986   8.271
 1826POPC   C3A26237  40.952  19.111   8.057
 1826POPC   C4A26238  41.113  19.041   7.677
 1826POPC   C1B26239  40.523  19.354   8.636
 1826POPC   C2B26240  40.658  19.496   8.234
 1826POPC   C3B26241  40.653  19.438   7.799
 1826POPC   C4B26242  40.456  19.048   7.748
 1827POPC   NC326243  30.710  39.484   9.531
 1827POPC   PO426244  30.311  39.084   9.471
 1827POPC   GL126245  30.679  39.120   9.146
 1827POPC   GL226246  30.933  39.360   9.109
 1827POPC   C1A26247  30.685  38.986   8.678
 1827POPC   D2A26248  30.751  38.720   8.378
 1827POPC   C3A26249  30.668  38.891   8.020
 1827POPC   C4A26250  30.415  39.148   7.880
 1827POPC   C1B26251  30.945  39.435   8.693
 1827POPC   C2B26252  30.808  39.406   8.260
 1827POPC   C3B26253  30.866  39.399   7.810
 1827POPC   C4B26254  30.862  39.391   7.364
 1828POPC   NC326255   3.849  29.766   9.412
 1828POPC   PO426256   3.453  30.297   9.412
 1828POPC   GL126257   3.612  30.091   9.072
 1828POPC   GL226258   3.862  30.307   9.075
 1828POPC   C1A26259   3.614  29.776   8.728
 1828POPC   D2A26260   3.288  29.627   8.398
 1828POPC   C3A26261   3.286  29.875   8.025
 1828POPC   C4A26262   3.575  29.788   7.709
 1828POPC   C1B26263   3.906  30.261   8.650
 1828POPC   C2B26264   3.931  30.103   8.239
 1828POPC   C3B26265   3.875  30.228   7.802
 1828POPC   C4B26266   3.689  30.173   7.382
 1829POPC   NC326267  32.662  19.742   9.351
 1829POPC   PO426268  33.194  19.901   9.750
 1829POPC   GL126269  33.149  19.856   9.274
 1829POPC   GL226270  33.399  19.693   9.155
 1829POPC   C1A26271  32.993  19.829   8.814
 1829POPC   D2A26272  33.057  20.029   8.421
 1829POPC   C3A26273  32.927  19.919   8.015
 1829POPC   C4A26274  33.071  19.805   7.622
 1829POPC   C1B26275  33.391  19.541   8.760
 1829POPC   C2B26276  33.464  19.673   8.363
 1829POPC   C3B26277  33.369  19.572   7.958
 1829POPC   C4B26278  33.479  19.458   7.552
 1830POPC   NC326279  19.296  20.940   9.572
 1830POPC   PO426280  19.468  20.286   9.679
 1830POPC   GL126281  19.427  20.517   9.286
 1830POPC   GL226282  19.085  20.383   9.215
 1830POPC   C1A26283  19.319  20.739   8.875
 1830POPC   D2A26284  18.984  20.795   8.536
 1830POPC   C3A26285  19.069  20.807   8.083
 1830POPC   C4A26286  19.300  20.803   7.694
 1830POPC   C1B26287  19.087  20.296   8.748
 1830POPC   C2B26288  19.312  20.412   8.365
 1830POPC   C3B26289  19.212  20.343   7.927
 1830POPC   C4B26290  18.804  20.424   7.719
 1831POPC   NC326291  33.466  38.376   9.573
 1831POPC   PO426292  34.166  38.191   9.478
 1831POPC   GL126293  34.043  38.474   9.178
 1831POPC   GL226294  33.745  38.330   9.118
 1831POPC   C1A26295  34.086  38.420   8.721
 1831POPC   D2A26296  33.791  38.375   8.375
 1831POPC   C3A26297  33.858  38.645   8.011
 1831POPC   C4A26298  34.138  38.760   7.709
 1831POPC   C1B26299  33.545  38.111   8.789
 1831POPC   C2B26300  33.350  38.087   8.360
 1831POPC   C3B26301  33.474  38.309   7.970
 1831POPC   C4B26302  33.770  38.299   7.623
 1832POPC   NC326303  22.478   0.931  10.007
 1832POPC   PO426304  22.584   0.415   9.461
 1832POPC   GL126305  22.254   0.451   9.095
 1832POPC   GL226306  21.887   0.498   9.191
 1832POPC   C1A26307  22.261   0.497   8.634
 1832POPC   D2A26308  22.169   0.721   8.223
 1832POPC   C3A26309  22.339   0.498   7.860
 1832POPC   C4A26310  22.500   0.062   7.824
 1832POPC   C1B26311  21.786   0.661   8.782
 1832POPC   C2B26312  21.695   0.804   8.382
 1832POPC   C3B26313  21.663   0.665   7.987
 1832POPC   C4B26314  21.843   0.446   7.646
 1833POPC   NC326315  33.458  27.136   9.851
 1833POPC   PO426316  32.846  26.823   9.687
 1833POPC   GL126317  32.968  26.976   9.217
 1833POPC   GL226318  32.729  27.130   8.979
 1833POPC   C1A26319  33.215  26.998   8.802
 1833POPC   D2A26320  33.284  26.752   8.466
 1833POPC   C3A26321  33.074  26.868   8.119
 1833POPC   C4A26322  33.240  26.676   7.804
 1833POPC   C1B26323  32.742  26.812   8.662
 1833POPC   C2B26324  32.634  26.616   8.275
 1833POPC   C3B26325  32.736  26.599   7.842
 1833POPC   C4B26326  32.883  26.983   7.632
 1834POPC   NC326327  34.696  42.877   9.608
 1834POPC   PO426328  34.363  43.424   9.408
 1834POPC   GL126329  34.437  43.048   9.160
 1834POPC   GL226330  34.811  42.962   9.116
 1834POPC   C1A26331  34.436  42.987   8.717
 1834POPC   D2A26332  34.374  43.137   8.332
 1834POPC   C3A26333  34.581  43.045   8.010
 1834POPC   C4A26334  34.347  42.915   7.713
 1834POPC   C1B26335  34.754  43.377   8.882
 1834POPC   C2B26336  34.756  43.481   8.443
 1834POPC   C3B26337  34.832  43.485   7.996
 1834POPC   C4B26338  34.943  43.182   7.662
 1835POPC   NC326339  28.593  17.541   9.511
 1835POPC   PO426340  28.097  17.886   9.375
 1835POPC   GL126341  28.365  17.686   9.078
 1835POPC   GL226342  28.262  17.346   9.143
 1835POPC   C1A26343  28.511  17.445   8.724
 1835POPC   D2A26344  28.435  17.639   8.338
 1835POPC   C3A26345  28.576  17.481   7.954
 1835POPC   C4A26346  28.308  17.648   7.652
 1835POPC   C1B26347  28.058  17.217   8.765
 1835POPC   C2B26348  27.909  17.305   8.392
 1835POPC   C3B26349  28.055  17.429   8.037
 1835POPC   C4B26350  27.931  17.286   7.656
 1836POPC   NC326351  31.616   7.452   9.479
 1836POPC   PO426352  31.009   7.359   9.541
 1836POPC   GL126353  31.227   7.511   9.154
 1836POPC   GL226354  31.374   7.180   9.080
 1836POPC   C1A26355  31.172   7.495   8.709
 1836POPC   D2A26356  31.240   7.167   8.416
 1836POPC   C3A26357  31.382   7.287   8.012
 1836POPC   C4A26358  31.357   7.675   7.788
 1836POPC   C1B26359  31.701   7.368   8.796
 1836POPC   C2B26360  31.785   7.736   8.536
 1836POPC   C3B26361  31.799   7.696   8.078
 1836POPC   C4B26362  31.834   7.346   7.767
 1837POPC   NC326363   4.198  19.212   9.437
 1837POPC   PO426364   4.479  18.635   9.531
 1837POPC   GL126365   4.682  18.982   9.244
 1837POPC   GL226366   4.625  19.373   9.177
 1837POPC   C1A26367   4.715  19.027   8.788
 1837POPC   D2A26368   4.462  18.906   8.479
 1837POPC   C3A26369   4.618  18.906   8.104
 1837POPC   C4A26370   4.549  18.928   7.703
 1837POPC   C1B26371   4.389  19.426   8.811
 1837POPC   C2B26372   4.128  19.438   8.484
 1837POPC   C3B26373   4.214  19.220   8.147
 1837POPC   C4B26374   4.068  19.026   7.810
 1838POPC   NC326375  19.846  36.212   9.633
 1838POPC   PO426376  19.687  35.609   9.535
 1838POPC   GL126377  19.887  35.865   9.203
 1838POPC   GL226378  19.699  36.143   9.127
 1838POPC   C1A26379  20.155  36.085   8.893
 1838POPC   D2A26380  20.066  36.268   8.492
 1838POPC   C3A26381  20.077  35.923   8.225
 1838POPC   C4A26382  19.788  35.712   7.904
 1838POPC   C1B26383  19.662  35.986   8.684
 1838POPC   C2B26384  19.602  36.087   8.216
 1838POPC   C3B26385  19.697  36.261   7.782
 1838POPC   C4B26386  19.633  36.499   7.359
 1839POPC   NC326387  38.263  33.891   9.484
 1839POPC   PO426388  38.784  33.448   9.458
 1839POPC   GL126389  38.570  33.675   9.135
 1839POPC   GL226390  38.731  33.975   9.187
 1839POPC   C1A26391  38.271  33.721   8.787
 1839POPC   D2A26392  38.092  33.761   8.346
 1839POPC   C3A26393  38.307  33.561   8.023
 1839POPC   C4A26394  38.471  33.681   7.668
 1839POPC   C1B26395  38.659  34.184   8.803
 1839POPC   C2B26396  38.543  33.988   8.442
 1839POPC   C3B26397  38.473  34.033   8.056
 1839POPC   C4B26398  38.630  34.187   7.677
 1840POPC   NC326399  17.980  34.019   9.510
 1840POPC   PO426400  17.264  33.805   9.490
 1840POPC   GL126401  17.572  33.968   9.194
 1840POPC   GL226402  17.816  33.679   9.137
 1840POPC   C1A26403  17.574  33.981   8.755
 1840POPC   D2A26404  17.303  33.811   8.465
 1840POPC   C3A26405  17.330  33.836   8.020
 1840POPC   C4A26406  17.439  33.931   7.582
 1840POPC   C1B26407  17.894  33.575   8.690
 1840POPC   C2B26408  17.835  33.743   8.261
 1840POPC   C3B26409  17.721  33.549   7.863
 1840POPC   C4B26410  17.744  33.543   7.419
 1841POPC   NC326411  29.397  31.134   9.395
 1841POPC   PO426412  28.991  30.529   9.495
 1841POPC   GL126413  29.131  30.765   9.197
 1841POPC   GL226414  28.837  30.893   9.110
 1841POPC   C1A26415  29.351  30.857   8.806
 1841POPC   D2A26416  29.626  30.801   8.476
 1841POPC   C3A26417  29.410  30.915   8.142
 1841POPC   C4A26418  29.216  31.035   7.806
 1841POPC   C1B26419  28.935  30.550   8.793
 1841POPC   C2B26420  29.175  30.546   8.410
 1841POPC   C3B26421  29.003  30.598   7.992
 1841POPC   C4B26422  28.741  30.856   7.728
 1842POPC   NC326423  27.569  16.252   9.610
 1842POPC   PO426424  27.823  15.676   9.579
 1842POPC   GL126425  27.688  15.908   9.221
 1842POPC   GL226426  27.923  16.193   9.209
 1842POPC   C1A26427  27.524  15.924   8.801
 1842POPC   D2A26428  27.365  16.145   8.440
 1842POPC   C3A26429  27.447  15.871   8.083
 1842POPC   C4A26430  27.379  16.009   7.662
 1842POPC   C1B26431  27.882  16.327   8.778
 1842POPC   C2B26432  27.864  16.309   8.352
 1842POPC   C3B26433  27.609  16.345   8.012
 1842POPC   C4B26434  27.755  16.353   7.646
 1843POPC   NC326435  33.244  25.546   9.527
 1843POPC   PO426436  32.704  25.118   9.520
 1843POPC   GL126437  32.976  25.266   9.184
 1843POPC   GL226438  33.329  25.197   9.144
 1843POPC   C1A26439  33.080  25.521   8.810
 1843POPC   D2A26440  32.880  25.439   8.437
 1843POPC   C3A26441  33.077  25.493   8.065
 1843POPC   C4A26442  32.932  25.396   7.646
 1843POPC   C1B26443  33.128  25.032   8.755
 1843POPC   C2B26444  33.198  25.053   8.315
 1843POPC   C3B26445  32.886  24.992   8.000
 1843POPC   C4B26446  32.900  24.886   7.585
 1844POPC   NC326447  18.824   4.263   9.362
 1844POPC   PO426448  19.189   4.849   9.431
 1844POPC   GL126449  19.073   4.597   9.068
 1844POPC   GL226450  18.695   4.631   9.025
 1844POPC   C1A26451  19.290   4.337   8.723
 1844POPC   D2A26452  19.459   4.261   8.284
 1844POPC   C3A26453  19.282   4.060   7.930
 1844POPC   C4A26454  18.838   4.008   7.885
 1844POPC   C1B26455  18.787   4.374   8.660
 1844POPC   C2B26456  18.785   4.400   8.211
 1844POPC   C3B26457  19.041   4.508   7.857
 1844POPC   C4B26458  19.201   4.722   7.507
 1845POPC   NC326459   2.671  27.474   9.475
 1845POPC   PO426460   3.135  27.908   9.703
 1845POPC   GL126461   3.033  27.692   9.208
 1845POPC   GL226462   2.699  27.790   9.056
 1845POPC   C1A26463   2.829  27.366   8.848
 1845POPC   D2A26464   2.553  27.320   8.468
 1845POPC   C3A26465   2.741  27.534   8.149
 1845POPC   C4A26466   2.866  27.333   7.801
 1845POPC   C1B26467   2.530  28.030   8.708
 1845POPC   C2B26468   2.367  27.875   8.320
 1845POPC   C3B26469   2.334  27.735   7.901
 1845POPC   C4B26470   2.386  27.483   7.566
 1846POPC   NC326471  35.625   5.235   9.370
 1846POPC   PO426472  35.243   4.829   9.681
 1846POPC   GL126473  35.234   4.763   9.177
 1846POPC   GL226474  35.593   4.813   9.087
 1846POPC   C1A26475  35.245   4.979   8.707
 1846POPC   D2A26476  35.470   5.269   8.369
 1846POPC   C3A26477  35.396   5.073   7.964
 1846POPC   C4A26478  34.966   5.096   7.811
 1846POPC   C1B26479  35.742   5.000   8.713
 1846POPC   C2B26480  35.561   4.756   8.356
 1846POPC   C3B26481  35.715   4.605   7.962
 1846POPC   C4B26482  35.807   4.922   7.667
 1847POPC   NC326483  23.933  25.746   9.392
 1847POPC   PO426484  23.943  26.394   9.300
 1847POPC   GL126485  23.703  26.269   9.019
 1847POPC   GL226486  23.602  25.955   9.069
 1847POPC   C1A26487  23.767  26.131   8.605
 1847POPC   D2A26488  23.650  26.016   8.197
 1847POPC   C3A26489  23.968  26.147   7.898
 1847POPC   C4A26490  24.016  25.916   7.483
 1847POPC   C1B26491  23.352  25.839   8.727
 1847POPC   C2B26492  23.194  25.758   8.320
 1847POPC   C3B26493  23.188  25.813   7.905
 1847POPC   C4B26494  23.529  26.011   7.706
 1848POPC   NC326495  44.566  27.892   9.566
 1848POPC   PO426496  44.861  27.298   9.470
 1848POPC   GL126497  44.560  27.499   9.192
 1848POPC   GL226498  44.783  27.761   9.101
 1848POPC   C1A26499  44.495  27.525   8.728
 1848POPC   D2A26500  44.783  27.373   8.398
 1848POPC   C3A26501  44.603  27.432   7.985
 1848POPC   C4A26502  44.240  27.502   7.732
 1848POPC   C1B26503  44.934  27.829   8.687
 1848POPC   C2B26504  44.765  27.857   8.277
 1848POPC   C3B26505   0.060  27.686   7.988
 1848POPC   C4B26506  44.941  27.522   7.585
 1849POPC   NC326507   2.885  38.889   9.810
 1849POPC   PO426508   2.439  39.241   9.584
 1849POPC   GL126509   2.409  39.167   9.180
 1849POPC   GL226510   2.342  39.540   9.143
 1849POPC   C1A26511   2.681  38.983   8.825
 1849POPC   D2A26512   3.095  39.161   8.652
 1849POPC   C3A26513   3.071  39.178   8.183
 1849POPC   C4A26514   2.912  38.922   7.813
 1849POPC   C1B26515   2.661  39.489   8.839
 1849POPC   C2B26516   2.658  39.319   8.436
 1849POPC   C3B26517   2.518  39.229   8.041
 1849POPC   C4B26518   2.703  39.391   7.744
 1850POPC   NC326519  19.097   1.576   9.574
 1850POPC   PO426520  19.296   2.249   9.449
 1850POPC   GL126521  19.067   2.122   9.113
 1850POPC   GL226522  18.833   2.328   9.077
 1850POPC   C1A26523  19.139   2.050   8.699
 1850POPC   D2A26524  18.993   1.923   8.319
 1850POPC   C3A26525  19.205   2.059   7.971
 1850POPC   C4A26526  19.030   1.865   7.665
 1850POPC   C1B26527  18.656   2.249   8.688
 1850POPC   C2B26528  18.633   2.295   8.294
 1850POPC   C3B26529  18.690   2.162   7.929
 1850POPC   C4B26530  18.719   2.262   7.509
 1851POPC   NC326531  15.345  12.119   9.436
 1851POPC   PO426532  14.788  11.663   9.532
 1851POPC   GL126533  14.935  11.768   9.126
 1851POPC   GL226534  15.279  11.837   9.007
 1851POPC   C1A26535  14.833  11.955   8.742
 1851POPC   D2A26536  15.052  12.232   8.455
 1851POPC   C3A26537  14.924  12.184   8.050
 1851POPC   C4A26538  15.012  11.933   7.727
 1851POPC   C1B26539  15.429  12.235   8.818
 1851POPC   C2B26540  15.664  12.266   8.478
 1851POPC   C3B26541  15.523  12.378   8.108
 1851POPC   C4B26542  15.445  12.187   7.724
 1852POPC   NC326543  40.270  13.725   9.501
 1852POPC   PO426544  39.655  13.896   9.550
 1852POPC   GL126545  39.743  13.710   9.095
 1852POPC   GL226546  40.071  13.535   9.062
 1852POPC   C1A26547  39.883  13.609   8.616
 1852POPC   D2A26548  40.163  13.551   8.328
 1852POPC   C3A26549  40.046  13.623   7.931
 1852POPC   C4A26550  40.331  13.517   7.659
 1852POPC   C1B26551  39.754  13.208   8.870
 1852POPC   C2B26552  39.542  13.236   8.447
 1852POPC   C3B26553  39.653  13.286   7.995
 1852POPC   C4B26554  39.847  13.265   7.588
 1853POPC   NC326555  33.036   4.625   9.738
 1853POPC   PO426556  33.361   4.144   9.715
 1853POPC   GL126557  33.001   4.326   9.333
 1853POPC   GL226558  32.830   4.133   9.066
 1853POPC   C1A26559  33.008   4.612   8.949
 1853POPC   D2A26560  33.146   4.763   8.543
 1853POPC   C3A26561  33.160   4.606   8.137
 1853POPC   C4A26562  33.039   4.576   7.718
 1853POPC   C1B26563  32.979   4.148   8.699
 1853POPC   C2B26564  33.124   4.084   8.315
 1853POPC   C3B26565  32.870   4.193   8.011
 1853POPC   C4B26566  32.847   4.089   7.642
 1854POPC   NC326567  44.642  16.390   9.456
 1854POPC   PO426568  44.330  15.795   9.419
 1854POPC   GL126569  44.530  16.000   9.120
 1854POPC   GL226570  44.299  16.275   9.074
 1854POPC   C1A26571  44.716  15.839   8.744
 1854POPC   D2A26572  44.838  15.920   8.308
 1854POPC   C3A26573  44.692  15.666   7.898
 1854POPC   C4A26574  44.851  15.778   7.455
 1854POPC   C1B26575  44.513  16.320   8.694
 1854POPC   C2B26576  44.634  16.420   8.276
 1854POPC   C3B26577  44.683  16.178   7.914
 1854POPC   C4B26578  44.463  16.076   7.573
 1855POPC   NC326579  26.865   8.436   9.449
 1855POPC   PO426580  26.897   7.731   9.520
 1855POPC   GL126581  26.979   7.981   9.180
 1855POPC   GL226582  26.618   7.929   9.075
 1855POPC   C1A26583  26.966   8.130   8.754
 1855POPC   D2A26584  26.737   7.993   8.384
 1855POPC   C3A26585  26.970   8.086   8.007
 1855POPC   C4A26586  27.031   8.449   7.716
 1855POPC   C1B26587  26.387   7.664   8.755
 1855POPC   C2B26588  26.298   7.723   8.296
 1855POPC   C3B26589  26.535   7.802   7.917
 1855POPC   C4B26590  26.650   8.119   7.593
 1856POPC   NC326591   2.545  11.024   9.552
 1856POPC   PO426592   3.083  11.219   9.319
 1856POPC   GL126593   2.715  10.993   9.083
 1856POPC   GL226594   2.366  11.189   9.090
 1856POPC   C1A26595   2.582  10.990   8.664
 1856POPC   D2A26596   2.955  11.182   8.421
 1856POPC   C3A26597   2.923  11.154   7.965
 1856POPC   C4A26598   2.548  11.012   7.811
 1856POPC   C1B26599   2.474  11.468   8.710
 1856POPC   C2B26600   2.502  11.345   8.248
 1856POPC   C3B26601   2.565  11.516   7.826
 1856POPC   C4B26602   2.878  11.672   7.527
 1857POPC   NC326603  20.820   3.068   9.498
 1857POPC   PO426604  20.195   2.703   9.528
 1857POPC   GL126605  20.389   2.904   9.176
 1857POPC   GL226606  20.346   3.253   9.096
 1857POPC   C1A26607  20.536   2.748   8.776
 1857POPC   D2A26608  20.416   2.833   8.360
 1857POPC   C3A26609  20.629   2.657   8.004
 1857POPC   C4A26610  20.373   2.734   7.648
 1857POPC   C1B26611  20.695   3.258   8.830
 1857POPC   C2B26612  20.769   3.272   8.384
 1857POPC   C3B26613  20.602   3.154   7.978
 1857POPC   C4B26614  20.913   2.983   7.699
 1858POPC   NC326615  13.624  17.057   9.485
 1858POPC   PO426616  13.719  16.424   9.699
 1858POPC   GL126617  13.640  16.566   9.261
 1858POPC   GL226618  13.794  16.310   9.095
 1858POPC   C1A26619  13.581  16.838   8.860
 1858POPC   D2A26620  13.388  17.056   8.503
 1858POPC   C3A26621  13.467  16.995   8.050
 1858POPC   C4A26622  13.398  16.673   7.750
 1858POPC   C1B26623  13.886  16.466   8.686
 1858POPC   C2B26624  14.112  16.514   8.332
 1858POPC   C3B26625  13.886  16.601   7.982
 1858POPC   C4B26626  13.750  16.305   7.733
 1859POPC   NC326627  15.900  42.789   9.710
 1859POPC   PO426628  15.972  42.088   9.510
 1859POPC   GL126629  15.754  42.232   9.152
 1859POPC   GL226630  15.570  42.536   9.195
 1859POPC   C1A26631  15.854  42.424   8.752
 1859POPC   D2A26632  15.732  42.493   8.347
 1859POPC   C3A26633  16.047  42.466   8.017
 1859POPC   C4A26634  16.089  42.143   7.727
 1859POPC   C1B26635  15.483  42.769   8.803
 1859POPC   C2B26636  15.407  42.907   8.381
 1859POPC   C3B26637  15.403  42.666   8.000
 1859POPC   C4B26638  15.658  42.589   7.696
 1860POPC   NC326639  41.155   1.903   9.410
 1860POPC   PO426640  40.580   1.617   9.692
 1860POPC   GL126641  40.574   1.974   9.331
 1860POPC   GL226642  40.783   2.238   9.203
 1860POPC   C1A26643  40.513   1.954   8.859
 1860POPC   D2A26644  40.733   1.972   8.439
 1860POPC   C3A26645  40.567   1.945   8.035
 1860POPC   C4A26646  40.681   2.104   7.654
 1860POPC   C1B26647  41.010   2.200   8.816
 1860POPC   C2B26648  41.052   2.354   8.390
 1860POPC   C3B26649  41.161   2.311   7.952
 1860POPC   C4B26650  41.088   2.355   7.498
 1861POPC   NC326651  12.427  17.494   9.358
 1861POPC   PO426652  11.906  17.627   9.764
 1861POPC   GL126653  11.902  17.517   9.327
 1861POPC   GL226654  12.048  17.788   9.140
 1861POPC   C1A26655  11.790  17.415   8.882
 1861POPC   D2A26656  11.727  17.511   8.431
 1861POPC   C3A26657  12.062  17.318   8.227
 1861POPC   C4A26658  12.271  17.234   7.850
 1861POPC   C1B26659  12.056  17.830   8.696
 1861POPC   C2B26660  12.239  17.902   8.291
 1861POPC   C3B26661  12.070  17.736   7.905
 1861POPC   C4B26662  12.248  17.606   7.512
 1862POPC   NC326663  37.557  10.704   9.604
 1862POPC   PO426664  37.732  10.130   9.573
 1862POPC   GL126665  37.731  10.419   9.202
 1862POPC   GL226666  37.781  10.807   9.162
 1862POPC   C1A26667  37.661  10.495   8.763
 1862POPC   D2A26668  37.511  10.285   8.400
 1862POPC   C3A26669  37.416  10.520   8.018
 1862POPC   C4A26670  37.656  10.597   7.639
 1862POPC   C1B26671  37.867  10.968   8.772
 1862POPC   C2B26672  37.606  10.876   8.406
 1862POPC   C3B26673  37.584  11.010   7.989
 1862POPC   C4B26674  37.667  11.160   7.557
 1863POPC   NC326675  35.776  35.238   9.471
 1863POPC   PO426676  35.118  34.990   9.400
 1863POPC   GL126677  35.337  35.280   9.128
 1863POPC   GL226678  35.065  35.519   8.996
 1863POPC   C1A26679  35.460  35.434   8.732
 1863POPC   D2A26680  35.262  35.494   8.399
 1863POPC   C3A26681  35.359  35.232   8.116
 1863POPC   C4A26682  35.537  35.292   7.778
 1863POPC   C1B26683  34.936  35.222   8.717
 1863POPC   C2B26684  34.777  35.366   8.317
 1863POPC   C3B26685  34.948  35.520   7.923
 1863POPC   C4B26686  35.230  35.650   7.582
 1864POPC   NC326687   8.094   9.376   9.499
 1864POPC   PO426688   7.887   9.961   9.528
 1864POPC   GL126689   8.086   9.806   9.177
 1864POPC   GL226690   7.895   9.527   9.066
 1864POPC   C1A26691   8.375   9.622   8.873
 1864POPC   D2A26692   8.557   9.532   8.446
 1864POPC   C3A26693   8.443   9.755   8.091
 1864POPC   C4A26694   8.377   9.555   7.741
 1864POPC   C1B26695   7.880   9.789   8.710
 1864POPC   C2B26696   7.960   9.737   8.300
 1864POPC   C3B26697   7.928   9.701   7.898
 1864POPC   C4B26698   8.071  10.034   7.727
 1865POPC   NC326699  37.074  16.177   9.339
 1865POPC   PO426700  36.434  15.956   9.538
 1865POPC   GL126701  36.614  15.952   9.137
 1865POPC   GL226702  36.912  15.739   9.141
 1865POPC   C1A26703  36.687  16.024   8.717
 1865POPC   D2A26704  36.546  15.906   8.314
 1865POPC   C3A26705  36.703  16.259   8.108
 1865POPC   C4A26706  36.960  16.184   7.786
 1865POPC   C1B26707  36.799  15.517   8.795
 1865POPC   C2B26708  37.070  15.411   8.486
 1865POPC   C3B26709  37.327  15.523   8.154
 1865POPC   C4B26710  37.175  15.557   7.716
 1866POPC   NC326711  29.877  43.437   9.372
 1866POPC   PO426712  30.158  42.870   9.596
 1866POPC   GL126713  30.166  43.081   9.164
 1866POPC   GL226714  29.990  42.872   9.027
 1866POPC   C1A26715  30.106  43.324   8.762
 1866POPC   D2A26716  29.891  43.288   8.358
 1866POPC   C3A26717  30.017  43.452   7.980
 1866POPC   C4A26718  30.176  43.296   7.589
 1866POPC   C1B26719  29.821  42.862   8.633
 1866POPC   C2B26720  29.837  42.792   8.173
 1866POPC   C3B26721  29.803  42.831   7.723
 1866POPC   C4B26722  29.496  42.865   7.370
 1867POPC   NC326723   2.508  10.061   9.457
 1867POPC   PO426724   2.838  10.654   9.521
 1867POPC   GL126725   2.973  10.513   9.108
 1867POPC   GL226726   2.957  10.142   9.138
 1867POPC   C1A26727   2.964  10.661   8.661
 1867POPC   D2A26728   2.723  10.764   8.239
 1867POPC   C3A26729   2.925  10.592   7.893
 1867POPC   C4A26730   3.299  10.815   7.785
 1867POPC   C1B26731   2.641  10.264   8.819
 1867POPC   C2B26732   2.722  10.287   8.402
 1867POPC   C3B26733   2.468  10.366   8.051
 1867POPC   C4B26734   2.447  10.552   7.682
 1868POPC   NC326735  16.076  13.445   9.459
 1868POPC   PO426736  15.660  13.957   9.535
 1868POPC   GL126737  15.703  13.671   9.178
 1868POPC   GL226738  16.071  13.664   9.007
 1868POPC   C1A26739  15.673  13.497   8.776
 1868POPC   D2A26740  15.949  13.655   8.459
 1868POPC   C3A26741  15.806  13.484   8.050
 1868POPC   C4A26742  15.690  13.674   7.668
 1868POPC   C1B26743  16.313  13.938   8.755
 1868POPC   C2B26744  16.493  13.953   8.374
 1868POPC   C3B26745  16.419  13.658   8.057
 1868POPC   C4B26746  16.205  13.678   7.678
 1869POPC   NC326747   3.354   8.489   9.352
 1869POPC   PO426748   2.911   8.048   9.599
 1869POPC   GL126749   2.905   7.938   9.198
 1869POPC   GL226750   2.974   8.237   9.097
 1869POPC   C1A26751   2.634   7.978   8.827
 1869POPC   D2A26752   2.601   8.219   8.462
 1869POPC   C3A26753   2.748   7.998   8.098
 1869POPC   C4A26754   2.617   8.314   7.798
 1869POPC   C1B26755   3.024   8.407   8.728
 1869POPC   C2B26756   3.104   8.217   8.379
 1869POPC   C3B26757   3.104   8.360   7.969
 1869POPC   C4B26758   3.168   8.515   7.585
 1870POPC   NC326759  12.719  26.006   9.315
 1870POPC   PO426760  13.384  26.322   9.387
 1870POPC   GL126761  13.172  26.095   9.084
 1870POPC   GL226762  13.139  25.730   9.137
 1870POPC   C1A26763  12.932  26.127   8.707
 1870POPC   D2A26764  12.640  26.015   8.404
 1870POPC   C3A26765  12.840  26.196   8.051
 1870POPC   C4A26766  12.720  26.070   7.674
 1870POPC   C1B26767  13.298  25.740   8.734
 1870POPC   C2B26768  12.979  25.649   8.482
 1870POPC   C3B26769  12.900  25.684   8.057
 1870POPC   C4B26770  13.196  25.882   7.803
 1871POPC   NC326771  31.645  16.788   9.361
 1871POPC   PO426772  31.093  16.481   9.586
 1871POPC   GL126773  31.108  16.777   9.125
 1871POPC   GL226774  31.356  17.025   9.031
 1871POPC   C1A26775  31.168  16.767   8.653
 1871POPC   D2A26776  31.427  16.677   8.295
 1871POPC   C3A26777  31.246  16.898   7.988
 1871POPC   C4A26778  31.152  16.800   7.585
 1871POPC   C1B26779  31.678  16.922   8.689
 1871POPC   C2B26780  31.901  16.899   8.267
 1871POPC   C3B26781  31.922  16.644   7.930
 1871POPC   C4B26782  31.567  16.539   7.747
 1872POPC   NC326783  26.387  20.344   9.509
 1872POPC   PO426784  25.946  20.774   9.306
 1872POPC   GL126785  26.231  20.488   9.051
 1872POPC   GL226786  26.401  20.761   9.085
 1872POPC   C1A26787  26.150  20.407   8.605
 1872POPC   D2A26788  25.827  20.700   8.447
 1872POPC   C3A26789  25.915  20.775   8.029
 1872POPC   C4A26790  25.973  20.368   7.833
 1872POPC   C1B26791  26.555  20.700   8.717
 1872POPC   C2B26792  26.359  20.815   8.362
 1872POPC   C3B26793  26.405  20.618   7.996
 1872POPC   C4B26794  26.288  20.901   7.668
 1873POPC   NC326795  33.898  30.351   9.713
 1873POPC   PO426796  33.959  29.717   9.758
 1873POPC   GL126797  33.940  29.960   9.338
 1873POPC   GL226798  34.251  29.871   9.182
 1873POPC   C1A26799  33.762  29.917   8.882
 1873POPC   D2A26800  33.663  29.690   8.467
 1873POPC   C3A26801  33.570  29.889   8.034
 1873POPC   C4A26802  33.769  29.878   7.589
 1873POPC   C1B26803  34.277  29.933   8.765
 1873POPC   C2B26804  34.008  30.094   8.445
 1873POPC   C3B26805  34.027  30.152   8.011
 1873POPC   C4B26806  34.110  30.505   7.785
 1874POPC   NC326807  26.549  39.859   9.440
 1874POPC   PO426808  27.061  40.390   9.545
 1874POPC   GL126809  27.035  40.079   9.187
 1874POPC   GL226810  27.021  39.719   9.187
 1874POPC   C1A26811  27.100  40.166   8.744
 1874POPC   D2A26812  26.876  40.347   8.363
 1874POPC   C3A26813  26.943  40.215   7.933
 1874POPC   C4A26814  27.304  40.332   7.688
 1874POPC   C1B26815  26.774  39.738   8.798
 1874POPC   C2B26816  26.941  39.815   8.384
 1874POPC   C3B26817  26.806  39.691   7.986
 1874POPC   C4B26818  26.782  39.854   7.586
 1875POPC   NC326819  34.513  21.019   9.531
 1875POPC   PO426820  34.900  21.534   9.436
 1875POPC   GL126821  34.546  21.407   9.155
 1875POPC   GL226822  34.753  21.137   9.102
 1875POPC   C1A26823  34.423  21.207   8.727
 1875POPC   D2A26824  34.547  21.350   8.288
 1875POPC   C3A26825  34.400  21.142   7.906
 1875POPC   C4A26826  34.316  21.205   7.461
 1875POPC   C1B26827  34.886  21.402   8.745
 1875POPC   C2B26828  35.059  21.506   8.344
 1875POPC   C3B26829  34.896  21.719   7.996
 1875POPC   C4B26830  34.759  21.436   7.751
 1876POPC   NC326831  29.393   9.018   9.480
 1876POPC   PO426832  28.791   9.263   9.345
 1876POPC   GL126833  29.037   8.923   9.122
 1876POPC   GL226834  29.324   8.636   9.165
 1876POPC   C1A26835  29.242   8.887   8.735
 1876POPC   D2A26836  29.079   8.885   8.327
 1876POPC   C3A26837  29.228   8.983   7.952
 1876POPC   C4A26838  29.172   9.181   7.539
 1876POPC   C1B26839  29.492   8.442   8.844
 1876POPC   C2B26840  29.312   8.433   8.477
 1876POPC   C3B26841  29.472   8.519   8.091
 1876POPC   C4B26842  29.370   8.602   7.678
 1877POPC   NC326843  36.137  12.941   9.483
 1877POPC   PO426844  36.491  12.443   9.314
 1877POPC   GL126845  36.310  12.714   9.045
 1877POPC   GL226846  36.483  13.031   9.100
 1877POPC   C1A26847  35.980  12.942   8.801
 1877POPC   D2A26848  35.740  13.118   8.433
 1877POPC   C3A26849  35.886  12.971   8.028
 1877POPC   C4A26850  35.892  12.688   7.680
 1877POPC   C1B26851  36.487  12.994   8.669
 1877POPC   C2B26852  36.297  12.746   8.346
 1877POPC   C3B26853  36.343  12.757   7.910
 1877POPC   C4B26854  36.388  12.678   7.475
 1878POPC   NC326855   0.803  10.421   9.666
 1878POPC   PO426856   1.349  10.810   9.501
 1878POPC   GL126857   1.074  10.622   9.215
 1878POPC   GL226858   1.299  10.373   9.184
 1878POPC   C1A26859   1.006  10.489   8.779
 1878POPC   D2A26860   1.255  10.470   8.429
 1878POPC   C3A26861   1.066  10.579   8.032
 1878POPC   C4A26862   1.283  10.665   7.660
 1878POPC   C1B26863   1.551  10.590   8.849
 1878POPC   C2B26864   1.790  10.444   8.488
 1878POPC   C3B26865   1.607  10.470   8.061
 1878POPC   C4B26866   1.559  10.226   7.720
 1879POPC   NC326867  23.430  15.280   9.355
 1879POPC   PO426868  24.002  14.911   9.448
 1879POPC   GL126869  23.797  15.053   9.105
 1879POPC   GL226870  23.482  14.849   9.042
 1879POPC   C1A26871  23.892  15.381   8.850
 1879POPC   D2A26872  23.884  15.503   8.448
 1879POPC   C3A26873  24.080  15.175   8.181
 1879POPC   C4A26874  23.826  14.971   7.845
 1879POPC   C1B26875  23.446  15.137   8.693
 1879POPC   C2B26876  23.577  15.115   8.281
 1879POPC   C3B26877  23.364  15.194   7.909
 1879POPC   C4B26878  23.080  14.886   7.804
 1880POPC   NC326879  39.362   3.263   9.984
 1880POPC   PO426880  39.061   2.752   9.586
 1880POPC   GL126881  39.368   2.745   9.251
 1880POPC   GL226882  39.155   2.943   9.016
 1880POPC   C1A26883  39.535   2.670   8.829
 1880POPC   D2A26884  39.274   2.708   8.499
 1880POPC   C3A26885  39.354   2.512   8.107
 1880POPC   C4A26886  39.252   2.754   7.746
 1880POPC   C1B26887  38.961   3.132   8.616
 1880POPC   C2B26888  38.724   3.179   8.204
 1880POPC   C3B26889  38.646   3.024   7.773
 1880POPC   C4B26890  38.878   2.861   7.389
 1881POPC   NC326891   0.823  29.947   9.539
 1881POPC   PO426892   0.156  29.812   9.590
 1881POPC   GL126893   0.378  29.931   9.205
 1881POPC   GL226894   0.365  29.650   8.940
 1881POPC   C1A26895   0.311  30.126   8.795
 1881POPC   D2A26896   0.544  30.234   8.432
 1881POPC   C3A26897   0.555  30.012   8.073
 1881POPC   C4A26898   0.486  30.194   7.672
 1881POPC   C1B26899   0.694  29.794   8.650
 1881POPC   C2B26900   0.949  29.554   8.418
 1881POPC   C3B26901   0.782  29.412   8.056
 1881POPC   C4B26902   0.704  29.694   7.708
 1882POPC   NC326903  20.079  42.257   9.480
 1882POPC   PO426904  19.371  42.498   9.499
 1882POPC   GL126905  19.598  42.500   9.080
 1882POPC   GL226906  19.968  42.540   9.072
 1882POPC   C1A26907  19.790  42.286   8.687
 1882POPC   D2A26908  20.102  42.341   8.408
 1882POPC   C3A26909  19.869  42.493   8.088
 1882POPC   C4A26910  19.747  42.215   7.783
 1882POPC   C1B26911  20.276  42.737   8.777
 1882POPC   C2B26912  20.209  42.832   8.352
 1882POPC   C3B26913  20.177  42.870   7.928
 1882POPC   C4B26914  20.140  42.511   7.657
 1883POPC   NC326915  21.086   7.536   9.470
 1883POPC   PO426916  21.715   7.471   9.439
 1883POPC   GL126917  21.594   7.228   9.141
 1883POPC   GL226918  21.272   7.093   9.251
 1883POPC   C1A26919  21.661   7.353   8.740
 1883POPC   D2A26920  21.427   7.277   8.394
 1883POPC   C3A26921  21.566   7.408   8.025
 1883POPC   C4A26922  21.494   7.736   7.766
 1883POPC   C1B26923  21.141   7.255   8.849
 1883POPC   C2B26924  20.929   7.245   8.450
 1883POPC   C3B26925  21.044   7.106   8.048
 1883POPC   C4B26926  21.225   7.257   7.680
 1884POPC   NC326927   7.723  38.899   9.672
 1884POPC   PO426928   7.494  38.276   9.409
 1884POPC   GL126929   7.325  38.406   9.029
 1884POPC   GL226930   7.177  38.699   9.150
 1884POPC   C1A26931   7.539  38.496   8.641
 1884POPC   D2A26932   7.595  38.256   8.324
 1884POPC   C3A26933   7.531  38.493   8.034
 1884POPC   C4A26934   7.526  38.356   7.671
 1884POPC   C1B26935   7.137  38.803   8.710
 1884POPC   C2B26936   7.113  38.498   8.337
 1884POPC   C3B26937   7.053  38.599   7.899
 1884POPC   C4B26938   7.194  38.764   7.490
 1885POPC   NC326939  28.677  21.044   9.506
 1885POPC   PO426940  28.428  21.736   9.561
 1885POPC   GL126941  28.457  21.429   9.199
 1885POPC   GL226942  28.291  21.097   9.152
 1885POPC   C1A26943  28.463  21.340   8.748
 1885POPC   D2A26944  28.182  21.374   8.414
 1885POPC   C3A26945  28.465  21.462   8.100
 1885POPC   C4A26946  28.652  21.743   7.838
 1885POPC   C1B26947  28.047  21.010   8.772
 1885POPC   C2B26948  27.909  20.929   8.343
 1885POPC   C3B26949  28.167  21.053   7.971
 1885POPC   C4B26950  28.553  21.142   7.738
 1886POPC   NC326951  44.196  41.853   9.573
 1886POPC   PO426952  43.826  41.219   9.440
 1886POPC   GL126953  44.068  41.484   9.206
 1886POPC   GL226954  43.884  41.799   9.172
 1886POPC   C1A26955  43.958  41.513   8.777
 1886POPC   D2A26956  43.786  41.395   8.411
 1886POPC   C3A26957  44.027  41.396   8.038
 1886POPC   C4A26958  43.850  41.315   7.636
 1886POPC   C1B26959  43.715  42.083   8.852
 1886POPC   C2B26960  43.845  41.941   8.455
 1886POPC   C3B26961  43.776  41.884   8.021
 1886POPC   C4B26962  44.019  41.775   7.675
 1887POPC   NC326963  10.747  25.817   9.522
 1887POPC   PO426964  10.379  26.377   9.745
 1887POPC   GL126965  10.541  26.166   9.213
 1887POPC   GL226966  10.637  25.838   9.045
 1887POPC   C1A26967  10.864  26.124   8.746
 1887POPC   D2A26968  10.831  25.820   8.406
 1887POPC   C3A26969  10.704  26.015   8.020
 1887POPC   C4A26970  10.291  26.019   7.797
 1887POPC   C1B26971  10.365  26.022   8.734
 1887POPC   C2B26972  10.287  25.917   8.315
 1887POPC   C3B26973  10.458  25.570   8.075
 1887POPC   C4B26974  10.778  25.576   7.783
 1888POPC   NC326975  44.419  23.058   9.862
 1888POPC   PO426976   0.018  22.907   9.517
 1888POPC   GL126977  44.677  22.846   9.259
 1888POPC   GL226978  44.454  23.111   9.331
 1888POPC   C1A26979  44.724  22.998   8.844
 1888POPC   D2A26980  44.871  23.183   8.474
 1888POPC   C3A26981  44.788  22.969   8.091
 1888POPC   C4A26982  44.716  22.564   7.875
 1888POPC   C1B26983  44.320  23.302   8.950
 1888POPC   C2B26984  44.374  23.333   8.496
 1888POPC   C3B26985  44.309  23.313   8.022
 1888POPC   C4B26986  44.573  23.156   7.667
 1889POPC   NC326987   3.601  23.260   9.603
 1889POPC   PO426988   3.238  23.816   9.524
 1889POPC   GL126989   3.273  23.586   9.188
 1889POPC   GL226990   3.608  23.676   9.113
 1889POPC   C1A26991   3.216  23.704   8.778
 1889POPC   D2A26992   3.476  23.628   8.496
 1889POPC   C3A26993   3.392  23.725   8.095
 1889POPC   C4A26994   3.334  23.545   7.714
 1889POPC   C1B26995   3.897  23.783   8.762
 1889POPC   C2B26996   3.950  23.581   8.344
 1889POPC   C3B26997   3.835  23.471   7.943
 1889POPC   C4B26998   3.781  23.789   7.672
 1890POPC   NC326999   3.705  33.192   9.430
 1890POPC   PO427000   3.397  32.584   9.564
 1890POPC   GL127001   3.509  32.763   9.147
 1890POPC   GL227002   3.843  32.896   8.997
 1890POPC   C1A27003   3.410  33.046   8.786
 1890POPC   D2A27004   3.696  33.054   8.449
 1890POPC   C3A27005   3.518  33.076   8.046
 1890POPC   C4A27006   3.537  32.881   7.676
 1890POPC   C1B27007   3.956  33.326   8.812
 1890POPC   C2B27008   3.878  33.524   8.382
 1890POPC   C3B27009   4.011  33.241   8.076
 1890POPC   C4B27010   3.907  33.202   7.685
 1891POPC   NC327011  40.498  20.492   9.474
 1891POPC   PO427012  40.995  21.000   9.413
 1891POPC   GL127013  40.725  20.926   9.077
 1891POPC   GL227014  41.013  21.036   8.858
 1891POPC   C1A27015  40.544  20.541   8.836
 1891POPC   D2A27016  40.672  20.233   8.541
 1891POPC   C3A27017  40.662  20.374   8.126
 1891POPC   C4A27018  40.567  20.402   7.675
 1891POPC   C1B27019  40.967  20.668   8.569
 1891POPC   C2B27020  41.181  20.338   8.366
 1891POPC   C3B27021  41.132  20.417   7.917
 1891POPC   C4B27022  41.174  20.825   7.710
 1892POPC   NC327023  42.398  15.027   9.401
 1892POPC   PO427024  42.731  15.650   9.544
 1892POPC   GL127025  42.532  15.437   9.135
 1892POPC   GL227026  42.847  15.258   9.165
 1892POPC   C1A27027  42.219  15.124   8.800
 1892POPC   D2A27028  42.028  14.918   8.381
 1892POPC   C3A27029  42.041  15.081   7.928
 1892POPC   C4A27030  41.951  14.979   7.428
 1892POPC   C1B27031  42.731  15.148   8.759
 1892POPC   C2B27032  42.536  15.072   8.405
 1892POPC   C3B27033  42.514  15.226   8.033
 1892POPC   C4B27034  42.663  15.046   7.718
 1893POPC   NC327035  10.117  17.568   9.511
 1893POPC   PO427036   9.403  17.815   9.408
 1893POPC   GL127037   9.738  17.630   9.171
 1893POPC   GL227038  10.023  17.834   9.031
 1893POPC   C1A27039   9.669  17.556   8.752
 1893POPC   D2A27040   9.536  17.753   8.380
 1893POPC   C3A27041   9.502  17.439   8.047
 1893POPC   C4A27042   9.395  17.342   7.627
 1893POPC   C1B27043  10.145  17.687   8.613
 1893POPC   C2B27044   9.957  17.451   8.315
 1893POPC   C3B27045  10.024  17.402   7.895
 1893POPC   C4B27046  10.384  17.701   7.815
 1894POPC   NC327047  42.063  27.087   9.373
 1894POPC   PO427048  42.645  26.758   9.388
 1894POPC   GL127049  42.454  26.806   9.018
 1894POPC   GL227050  42.256  26.532   9.069
 1894POPC   C1A27051  42.374  26.903   8.586
 1894POPC   D2A27052  42.596  26.859   8.188
 1894POPC   C3A27053  42.267  26.783   7.920
 1894POPC   C4A27054  42.078  26.817   7.529
 1894POPC   C1B27055  42.602  26.380   8.764
 1894POPC   C2B27056  42.799  26.392   8.340
 1894POPC   C3B27057  42.638  26.411   7.921
 1894POPC   C4B27058  42.405  26.427   7.530
 1895POPC   NC327059  33.157  42.067   9.409
 1895POPC   PO427060  32.936  42.695   9.623
 1895POPC   GL127061  33.128  42.616   9.150
 1895POPC   GL227062  32.984  42.326   9.014
 1895POPC   C1A27063  33.035  42.667   8.656
 1895POPC   D2A27064  32.893  42.330   8.335
 1895POPC   C3A27065  33.015  42.403   7.892
 1895POPC   C4A27066  32.929  42.190   7.474
 1895POPC   C1B27067  32.961  41.962   8.746
 1895POPC   C2B27068  33.165  41.881   8.375
 1895POPC   C3B27069  33.015  41.905   7.962
 1895POPC   C4B27070  33.250  41.811   7.580
 1896POPC   NC327071  38.468  40.570   9.443
 1896POPC   PO427072  38.603  41.210   9.419
 1896POPC   GL127073  38.353  40.984   9.093
 1896POPC   GL227074  38.161  40.633   9.061
 1896POPC   C1A27075  38.575  40.798   8.762
 1896POPC   D2A27076  38.493  40.645   8.360
 1896POPC   C3A27077  38.650  40.793   7.996
 1896POPC   C4A27078  38.379  41.065   7.808
 1896POPC   C1B27079  38.283  40.363   8.734
 1896POPC   C2B27080  38.323  40.170   8.337
 1896POPC   C3B27081  38.250  40.303   7.952
 1896POPC   C4B27082  38.370  40.551   7.647
 1897POPC   NC327083   7.352  44.584   9.441
 1897POPC   PO427084   7.897  44.949   9.513
 1897POPC   GL127085   7.751  44.674   9.144
 1897POPC   GL227086   7.472  44.932   9.082
 1897POPC   C1A27087   7.543  44.547   8.732
 1897POPC   D2A27088   7.561  44.288   8.332
 1897POPC   C3A27089   7.455  44.404   7.914
 1897POPC   C4A27090   7.614  44.723   7.673
 1897POPC   C1B27091   7.328   0.005   8.658
 1897POPC   C2B27092   7.431  44.800   8.252
 1897POPC   C3B27093   7.164  44.846   7.863
 1897POPC   C4B27094   7.052   0.047   7.433
 1898POPC   NC327095  16.695  40.807   9.630
 1898POPC   PO427096  17.065  40.518   9.611
 1898POPC   GL127097  16.900  40.661   9.170
 1898POPC   GL227098  16.521  40.657   9.132
 1898POPC   C1A27099  16.799  40.708   8.708
 1898POPC   D2A27100  16.561  40.679   8.323
 1898POPC   C3A27101  16.777  40.767   7.909
 1898POPC   C4A27102  16.979  40.636   7.491
 1898POPC   C1B27103  16.324  40.931   8.787
 1898POPC   C2B27104  16.097  40.948   8.382
 1898POPC   C3B27105  16.259  40.872   7.939
 1898POPC   C4B27106  16.536  41.175   7.689
 1899POPC   NC327107  15.904  35.468   9.607
 1899POPC   PO427108  16.515  35.246   9.464
 1899POPC   GL127109  16.255  35.089   9.120
 1899POPC   GL227110  15.890  35.143   9.202
 1899POPC   C1A27111  16.216  34.986   8.661
 1899POPC   D2A27112  15.884  35.150   8.352
 1899POPC   C3A27113  15.981  35.298   7.934
 1899POPC   C4A27114  15.760  35.113   7.626
 1899POPC   C1B27115  15.907  35.363   8.820
 1899POPC   C2B27116  15.622  35.573   8.536
 1899POPC   C3B27117  15.548  35.494   8.129
 1899POPC   C4B27118  15.608  35.597   7.710
 1900POPC   NC327119  39.138  30.573   9.291
 1900POPC   PO427120  39.286  30.016   9.679
 1900POPC   GL127121  39.248  30.058   9.201
 1900POPC   GL227122  39.033  29.844   9.123
 1900POPC   C1A27123  39.426  29.947   8.769
 1900POPC   D2A27124  39.280  29.732   8.372
 1900POPC   C3A27125  39.413  29.828   7.911
 1900POPC   C4A27126  39.297  29.649   7.503
 1900POPC   C1B27127  38.911  30.069   8.745
 1900POPC   C2B27128  38.735  29.919   8.372
 1900POPC   C3B27129  38.913  29.794   8.021
 1900POPC   C4B27130  38.917  29.948   7.611
 1901POPC   NC327131  13.592  32.443   9.502
 1901POPC   PO427132  13.887  31.805   9.547
 1901POPC   GL127133  13.909  32.044   9.126
 1901POPC   GL227134  13.586  32.126   9.123
 1901POPC   C1A27135  13.799  32.221   8.660
 1901POPC   D2A27136  13.796  32.504   8.315
 1901POPC   C3A27137  13.896  32.334   7.918
 1901POPC   C4A27138  13.798  32.449   7.490
 1901POPC   C1B27139  13.347  32.360   8.826
 1901POPC   C2B27140  13.340  32.266   8.400
 1901POPC   C3B27141  13.397  32.294   7.967
 1901POPC   C4B27142  13.259  32.567   7.651
 1902POPC   NC327143   1.962  37.871   9.576
 1902POPC   PO427144   2.097  37.205   9.641
 1902POPC   GL127145   2.090  37.495   9.226
 1902POPC   GL227146   2.239  37.866   9.164
 1902POPC   C1A27147   1.979  37.651   8.794
 1902POPC   D2A27148   1.932  37.901   8.386
 1902POPC   C3A27149   1.960  37.696   7.993
 1902POPC   C4A27150   1.732  37.623   7.661
 1902POPC   C1B27151   2.263  38.071   8.755
 1902POPC   C2B27152   2.339  38.238   8.355
 1902POPC   C3B27153   2.252  38.175   7.929
 1902POPC   C4B27154   2.157  37.952   7.550
 1903POPC   NC327155  17.114  12.269   9.223
 1903POPC   PO427156  16.510  12.150   9.501
 1903POPC   GL127157  16.547  12.046   9.054
 1903POPC   GL227158  16.841  11.933   8.990
 1903POPC   C1A27159  16.541  12.024   8.583
 1903POPC   D2A27160  16.682  12.368   8.317
 1903POPC   C3A27161  16.861  12.316   7.906
 1903POPC   C4A27162  16.713  11.967   7.667
 1903POPC   C1B27163  17.072  12.024   8.614
 1903POPC   C2B27164  16.950  11.913   8.220
 1903POPC   C3B27165  17.194  11.922   7.858
 1903POPC   C4B27166  17.180  12.123   7.453
 1904POPC   NC327167   7.033  17.424   9.579
 1904POPC   PO427168   6.395  17.760   9.595
 1904POPC   GL127169   6.691  17.656   9.293
 1904POPC   GL227170   6.492  17.448   9.195
 1904POPC   C1A27171   6.888  17.472   8.877
 1904POPC   D2A27172   6.792  17.314   8.449
 1904POPC   C3A27173   6.983  17.363   8.042
 1904POPC   C4A27174   6.867  17.554   7.705
 1904POPC   C1B27175   6.400  17.656   8.847
 1904POPC   C2B27176   6.320  17.523   8.432
 1904POPC   C3B27177   6.448  17.372   8.038
 1904POPC   C4B27178   6.390  17.471   7.628
 1905POPC   NC327179   5.149  35.068   9.645
 1905POPC   PO427180   5.019  35.767   9.607
 1905POPC   GL127181   4.976  35.364   9.272
 1905POPC   GL227182   5.205  35.065   9.134
 1905POPC   C1A27183   4.931  35.351   8.804
 1905POPC   D2A27184   4.905  35.059   8.451
 1905POPC   C3A27185   4.960  35.181   8.003
 1905POPC   C4A27186   4.974  35.491   7.667
 1905POPC   C1B27187   5.390  35.134   8.691
 1905POPC   C2B27188   5.287  35.401   8.322
 1905POPC   C3B27189   5.418  35.464   7.891
 1905POPC   C4B27190   5.396  35.253   7.457
 1906POPC   NC327191  26.271  23.369   9.382
 1906POPC   PO427192  25.879  23.824   9.573
 1906POPC   GL127193  26.067  23.876   9.166
 1906POPC   GL227194  25.756  24.030   9.089
 1906POPC   C1A27195  26.259  23.624   8.787
 1906POPC   D2A27196  26.071  23.351   8.438
 1906POPC   C3A27197  26.218  23.436   8.007
 1906POPC   C4A27198  26.154  23.561   7.599
 1906POPC   C1B27199  25.812  23.844   8.681
 1906POPC   C2B27200  26.117  23.869   8.350
 1906POPC   C3B27201  26.219  23.964   7.944
 1906POPC   C4B27202  25.964  24.050   7.574
 1907POPC   NC327203  37.093  40.053   9.856
 1907POPC   PO427204  36.634  39.616   9.572
 1907POPC   GL127205  36.972  39.827   9.282
 1907POPC   GL227206  36.876  40.130   9.063
 1907POPC   C1A27207  37.049  39.702   8.833
 1907POPC   D2A27208  36.797  39.568   8.470
 1907POPC   C3A27209  36.801  39.865   8.131
 1907POPC   C4A27210  36.885  39.898   7.738
 1907POPC   C1B27211  37.222  40.257   8.813
 1907POPC   C2B27212  37.190  40.043   8.414
 1907POPC   C3B27213  37.246  40.143   7.971
 1907POPC   C4B27214  36.948  40.397   7.666
 1908POPC   NC327215  41.153   4.483   9.448
 1908POPC   PO427216  41.689   4.268   9.812
 1908POPC   GL127217  41.643   4.284   9.302
 1908POPC   GL227218  41.839   4.031   9.131
 1908POPC   C1A27219  41.621   4.328   8.797
 1908POPC   D2A27220  41.678   4.554   8.367
 1908POPC   C3A27221  41.397   4.526   7.977
 1908POPC   C4A27222  41.194   4.727   7.602
 1908POPC   C1B27223  41.846   3.839   8.714
 1908POPC   C2B27224  41.675   4.010   8.317
 1908POPC   C3B27225  41.730   4.135   7.868
 1908POPC   C4B27226  41.728   3.831   7.488
 1909POPC   NC327227  10.702  32.199   9.465
 1909POPC   PO427228  10.224  32.600   9.651
 1909POPC   GL127229  10.398  32.610   9.195
 1909POPC   GL227230  10.718  32.714   8.974
 1909POPC   C1A27231  10.311  32.461   8.774
 1909POPC   D2A27232  10.543  32.319   8.406
 1909POPC   C3A27233  10.687  32.511   8.067
 1909POPC   C4A27234  10.294  32.391   7.818
 1909POPC   C1B27235  10.779  32.238   8.831
 1909POPC   C2B27236  10.835  31.914   8.436
 1909POPC   C3B27237  10.635  31.991   8.014
 1909POPC   C4B27238  10.759  32.251   7.642
 1910POPC   NC327239  42.046  34.006   9.546
 1910POPC   PO427240  42.664  33.974   9.398
 1910POPC   GL127241  42.299  33.773   9.143
 1910POPC   GL227242  42.035  33.560   9.239
 1910POPC   C1A27243  42.133  33.936   8.752
 1910POPC   D2A27244  42.478  34.126   8.484
 1910POPC   C3A27245  42.512  34.036   8.046
 1910POPC   C4A27246  42.661  33.818   7.700
 1910POPC   C1B27247  42.011  33.425   8.816
 1910POPC   C2B27248  42.019  33.549   8.397
 1910POPC   C3B27249  41.875  33.706   8.010
 1910POPC   C4B27250  42.214  33.583   7.737
 1911POPC   NC327251  37.370   6.671   9.423
 1911POPC   PO427252  37.989   6.385   9.473
 1911POPC   GL127253  37.849   6.637   9.110
 1911POPC   GL227254  37.561   6.815   8.976
 1911POPC   C1A27255  37.988   6.641   8.719
 1911POPC   D2A27256  37.968   6.362   8.400
 1911POPC   C3A27257  37.769   6.483   8.022
 1911POPC   C4A27258  37.750   6.549   7.583
 1911POPC   C1B27259  37.481   6.668   8.573
 1911POPC   C2B27260  37.539   6.892   8.211
 1911POPC   C3B27261  37.686   6.975   7.804
 1911POPC   C4B27262  37.600   6.976   7.308
 1912POPC   NC327263  19.068  31.687   9.548
 1912POPC   PO427264  18.971  31.087   9.771
 1912POPC   GL127265  18.963  31.250   9.259
 1912POPC   GL227266  19.246  31.452   9.125
 1912POPC   C1A27267  18.856  31.562   8.848
 1912POPC   D2A27268  19.043  31.592   8.372
 1912POPC   C3A27269  18.781  31.659   7.975
 1912POPC   C4A27270  18.555  31.692   7.539
 1912POPC   C1B27271  19.181  31.218   8.701
 1912POPC   C2B27272  19.159  31.063   8.275
 1912POPC   C3B27273  19.211  31.329   7.925
 1912POPC   C4B27274  19.461  31.712   7.954
 1913POPC   NC327275  18.203  35.723   9.556
 1913POPC   PO427276  18.072  35.078   9.396
 1913POPC   GL127277  18.308  35.314   9.153
 1913POPC   GL227278  18.090  35.572   9.089
 1913POPC   C1A27279  18.282  35.141   8.749
 1913POPC   D2A27280  18.389  35.236   8.321
 1913POPC   C3A27281  18.069  35.096   8.041
 1913POPC   C4A27282  18.029  35.262   7.656
 1913POPC   C1B27283  18.371  35.626   8.754
 1913POPC   C2B27284  18.244  35.737   8.384
 1913POPC   C3B27285  18.056  35.604   8.041
 1913POPC   C4B27286  18.288  35.702   7.727
 1914POPC   NC327287  10.962  42.137   9.432
 1914POPC   PO427288  11.375  42.621   9.557
 1914POPC   GL127289  11.191  42.547   9.158
 1914POPC   GL227290  11.468  42.306   9.094
 1914POPC   C1A27291  11.041  42.315   8.781
 1914POPC   D2A27292  11.203  42.260   8.358
 1914POPC   C3A27293  11.135  42.593   8.056
 1914POPC   C4A27294  11.002  42.416   7.684
 1914POPC   C1B27295  11.524  42.523   8.682
 1914POPC   C2B27296  11.646  42.540   8.234
 1914POPC   C3B27297  11.514  42.311   7.872
 1914POPC   C4B27298  11.473  42.368   7.408
 1915POPC   NC327299  13.464  35.618   9.443
 1915POPC   PO427300  13.751  34.976   9.494
 1915POPC   GL127301  13.459  35.144   9.123
 1915POPC   GL227302  13.238  35.502   9.032
 1915POPC   C1A27303  13.520  35.267   8.680
 1915POPC   D2A27304  13.578  35.520   8.312
 1915POPC   C3A27305  13.536  35.304   7.954
 1915POPC   C4A27306  13.545  35.028   7.630
 1915POPC   C1B27307  13.360  35.803   8.711
 1915POPC   C2B27308  13.239  35.920   8.277
 1915POPC   C3B27309  13.389  35.817   7.857
 1915POPC   C4B27310  13.517  35.554   7.498
 1916POPC   NC327311   6.752  28.760   9.413
 1916POPC   PO427312   6.336  29.351   9.361
 1916POPC   GL127313   6.571  29.109   9.079
 1916POPC   GL227314   6.338  28.849   9.084
 1916POPC   C1A27315   6.801  28.953   8.693
 1916POPC   D2A27316   6.893  28.925   8.224
 1916POPC   C3A27317   6.717  29.252   7.937
 1916POPC   C4A27318   6.816  29.346   7.488
 1916POPC   C1B27319   6.262  28.975   8.684
 1916POPC   C2B27320   6.381  29.078   8.310
 1916POPC   C3B27321   6.406  28.838   7.967
 1916POPC   C4B27322   6.370  29.005   7.603
 1917POPC   NC327323  40.385  31.830   9.593
 1917POPC   PO427324  39.863  32.177   9.625
 1917POPC   GL127325  39.896  32.151   9.202
 1917POPC   GL227326  40.209  32.304   9.151
 1917POPC   C1A27327  39.796  32.409   8.850
 1917POPC   D2A27328  39.706  32.457   8.427
 1917POPC   C3A27329  39.865  32.107   8.176
 1917POPC   C4A27330  39.842  32.356   7.840
 1917POPC   C1B27331  40.255  32.214   8.721
 1917POPC   C2B27332  40.216  32.445   8.356
 1917POPC   C3B27333  40.338  32.411   7.949
 1917POPC   C4B27334  40.244  32.002   7.796
 1918POPC   NC327335  30.218   2.692   9.228
 1918POPC   PO427336  29.570   2.805   9.216
 1918POPC   GL127337  29.801   2.698   8.938
 1918POPC   GL227338  29.867   2.370   9.049
 1918POPC   C1A27339  30.011   2.795   8.565
 1918POPC   D2A27340  29.781   2.978   8.222
 1918POPC   C3A27341  29.954   2.816   7.891
 1918POPC   C4A27342  30.192   2.474   7.869
 1918POPC   C1B27343  29.781   2.313   8.626
 1918POPC   C2B27344  29.862   2.403   8.241
 1918POPC   C3B27345  29.649   2.402   7.878
 1918POPC   C4B27346  29.671   2.636   7.491
 1919POPC   NC327347  26.068  30.158   9.388
 1919POPC   PO427348  25.930  29.522   9.468
 1919POPC   GL127349  25.817  29.807   9.120
 1919POPC   GL227350  26.134  29.927   8.948
 1919POPC   C1A27351  25.710  29.904   8.715
 1919POPC   D2A27352  26.029  29.870   8.411
 1919POPC   C3A27353  25.803  29.905   8.048
 1919POPC   C4A27354  25.892  29.821   7.639
 1919POPC   C1B27355  26.379  30.169   8.634
 1919POPC   C2B27356  26.231  30.313   8.236
 1919POPC   C3B27357  26.277  30.040   7.893
 1919POPC   C4B27358  26.313  30.090   7.438
 1920POPC   NC327359  26.699  26.791   9.544
 1920POPC   PO427360  27.363  26.749   9.416
 1920POPC   GL127361  27.016  26.723   9.143
 1920POPC   GL227362  26.711  26.957   9.078
 1920POPC   C1A27363  26.855  26.585   8.769
 1920POPC   D2A27364  26.522  26.767   8.563
 1920POPC   C3A27365  26.554  26.787   8.130
 1920POPC   C4A27366  26.845  26.504   7.936
 1920POPC   C1B27367  26.942  27.112   8.758
 1920POPC   C2B27368  27.004  26.968   8.360
 1920POPC   C3B27369  26.921  27.155   7.969
 1920POPC   C4B27370  26.588  27.149   7.607
 1921POPC   NC327371  30.985  18.498   9.507
 1921POPC   PO427372  30.572  18.009   9.448
 1921POPC   GL127373  30.915  18.121   9.150
 1921POPC   GL227374  30.868  18.451   9.031
 1921POPC   C1A27375  31.016  18.059   8.718
 1921POPC   D2A27376  30.744  18.136   8.353
 1921POPC   C3A27377  30.952  18.207   7.964
 1921POPC   C4A27378  31.149  17.918   7.688
 1921POPC   C1B27379  30.543  18.614   8.816
 1921POPC   C2B27380  30.557  18.683   8.406
 1921POPC   C3B27381  30.433  18.492   8.057
 1921POPC   C4B27382  30.496  18.250   7.731
 1922POPC   NC327383  31.657  38.652   9.536
 1922POPC   PO427384  31.043  39.064   9.511
 1922POPC   GL127385  31.300  38.758   9.195
 1922POPC   GL227386  31.623  38.877   9.080
 1922POPC   C1A27387  31.494  38.523   8.758
 1922POPC   D2A27388  31.461  38.363   8.282
 1922POPC   C3A27389  31.651  38.257   7.806
 1922POPC   C4A27390  31.624  38.268   7.300
 1922POPC   C1B27391  31.647  39.001   8.665
 1922POPC   C2B27392  31.757  38.791   8.303
 1922POPC   C3B27393  31.528  38.746   7.948
 1922POPC   C4B27394  31.593  38.713   7.545
 1923POPC   NC327395  14.113  20.486   9.560
 1923POPC   PO427396  14.590  20.370   9.205
 1923POPC   GL127397  14.245  20.531   8.981
 1923POPC   GL227398  13.931  20.743   9.019
 1923POPC   C1A27399  14.365  20.494   8.541
 1923POPC   D2A27400  14.533  20.126   8.323
 1923POPC   C3A27401  14.615  20.217   7.927
 1923POPC   C4A27402  14.464  20.517   7.700
 1923POPC   C1B27403  14.219  20.960   8.718
 1923POPC   C2B27404  14.426  20.950   8.309
 1923POPC   C3B27405  14.322  20.962   7.890
 1923POPC   C4B27406  14.158  21.003   7.505
 1924POPC   NC327407   2.731  39.819   9.476
 1924POPC   PO427408   2.950  40.554   9.469
 1924POPC   GL127409   2.876  40.202   9.175
 1924POPC   GL227410   2.537  40.226   9.187
 1924POPC   C1A27411   2.994  39.901   8.825
 1924POPC   D2A27412   3.093  39.638   8.436
 1924POPC   C3A27413   3.034  39.819   8.020
 1924POPC   C4A27414   2.802  40.111   7.720
 1924POPC   C1B27415   2.462  39.961   8.857
 1924POPC   C2B27416   2.630  39.854   8.470
 1924POPC   C3B27417   2.542  39.766   8.070
 1924POPC   C4B27418   2.417  39.792   7.662
 1925POPC   NC327419  30.131  17.973   9.570
 1925POPC   PO427420  29.611  18.343   9.709
 1925POPC   GL127421  29.813  18.222   9.280
 1925POPC   GL227422  29.844  18.476   9.084
 1925POPC   C1A27423  30.015  18.070   8.867
 1925POPC   D2A27424  30.278  18.244   8.543
 1925POPC   C3A27425  30.254  18.007   8.161
 1925POPC   C4A27426  29.983  18.242   7.915
 1925POPC   C1B27427  29.657  18.405   8.663
 1925POPC   C2B27428  29.594  18.243   8.261
 1925POPC   C3B27429  29.502  18.467   7.914
 1925POPC   C4B27430  29.620  18.596   7.526
 1926POPC   NC327431  30.496  31.553   9.676
 1926POPC   PO427432  31.143  31.412   9.670
 1926POPC   GL127433  30.803  31.411   9.299
 1926POPC   GL227434  30.850  31.623   9.067
 1926POPC   C1A27435  30.518  31.268   8.896
 1926POPC   D2A27436  30.609  31.104   8.433
 1926POPC   C3A27437  30.416  31.354   8.074
 1926POPC   C4A27438  30.455  31.442   7.625
 1926POPC   C1B27439  30.961  31.425   8.709
 1926POPC   C2B27440  30.760  31.591   8.377
 1926POPC   C3B27441  30.929  31.539   7.965
 1926POPC   C4B27442  30.859  31.174   7.758
 1927POPC   NC327443  22.684  17.994   9.558
 1927POPC   PO427444  23.285  18.338   9.383
 1927POPC   GL127445  23.008  18.480   9.046
 1927POPC   GL227446  22.680  18.467   9.160
 1927POPC   C1A27447  22.824  18.591   8.673
 1927POPC   D2A27448  22.866  18.265   8.382
 1927POPC   C3A27449  22.850  18.367   7.959
 1927POPC   C4A27450  22.739  18.701   7.656
 1927POPC   C1B27451  22.651  18.108   8.829
 1927POPC   C2B27452  22.481  17.936   8.426
 1927POPC   C3B27453  22.399  18.063   8.009
 1927POPC   C4B27454  22.608  18.061   7.634
 1928POPC   NC327455  33.041  20.458   9.622
 1928POPC   PO427456  33.143  21.191   9.633
 1928POPC   GL127457  33.285  20.900   9.273
 1928POPC   GL227458  33.117  20.572   9.143
 1928POPC   C1A27459  33.423  20.790   8.833
 1928POPC   D2A27460  33.190  20.497   8.567
 1928POPC   C3A27461  33.241  20.552   8.108
 1928POPC   C4A27462  33.148  20.351   7.694
 1928POPC   C1B27463  32.821  20.298   8.936
 1928POPC   C2B27464  32.662  20.342   8.530
 1928POPC   C3B27465  32.763  20.393   8.136
 1928POPC   C4B27466  32.641  20.324   7.745
 1929POPC   NC327467  24.264  17.909   9.504
 1929POPC   PO427468  24.659  18.438   9.469
 1929POPC   GL127469  24.412  18.304   9.151
 1929POPC   GL227470  24.599  17.996   9.074
 1929POPC   C1A27471  24.532  18.443   8.737
 1929POPC   D2A27472  24.718  18.415   8.338
 1929POPC   C3A27473  24.453  18.521   7.962
 1929POPC   C4A27474  24.413  18.532   7.479
 1929POPC   C1B27475  24.256  18.003   8.772
 1929POPC   C2B27476  24.244  18.211   8.387
 1929POPC   C3B27477  24.244  18.053   8.035
 1929POPC   C4B27478  24.305  18.084   7.656
 1930POPC   NC327479  35.845  30.636   9.616
 1930POPC   PO427480  36.377  30.959   9.324
 1930POPC   GL127481  36.212  30.670   9.050
 1930POPC   GL227482  36.513  30.646   8.867
 1930POPC   C1A27483  35.899  30.651   8.738
 1930POPC   D2A27484  35.778  30.533   8.349
 1930POPC   C3A27485  35.961  30.727   7.990
 1930POPC   C4A27486  35.813  30.850   7.601
 1930POPC   C1B27487  36.321  30.361   8.612
 1930POPC   C2B27488  36.182  30.240   8.235
 1930POPC   C3B27489  36.433  30.322   7.924
 1930POPC   C4B27490  36.529  30.774   7.953
 1931POPC   NC327491  19.613   4.688   9.537
 1931POPC   PO427492  19.812   4.055   9.657
 1931POPC   GL127493  19.622   4.065   9.185
 1931POPC   GL227494  19.678   4.439   9.066
 1931POPC   C1A27495  19.717   4.039   8.726
 1931POPC   D2A27496  19.946   4.262   8.396
 1931POPC   C3A27497  19.892   4.229   7.963
 1931POPC   C4A27498  19.558   4.460   7.780
 1931POPC   C1B27499  20.030   4.576   8.762
 1931POPC   C2B27500  20.226   4.704   8.367
 1931POPC   C3B27501  20.044   4.735   7.951
 1931POPC   C4B27502  20.045   4.513   7.548
 1932POPC   NC327503  37.776  17.630   9.357
 1932POPC   PO427504  37.211  17.250   9.521
 1932POPC   GL127505  37.407  17.373   9.107
 1932POPC   GL227506  37.333  17.725   9.095
 1932POPC   C1A27507  37.666  17.272   8.703
 1932POPC   D2A27508  37.738  17.213   8.251
 1932POPC   C3A27509  37.877  17.607   8.029
 1932POPC   C4A27510  37.779  17.708   7.604
 1932POPC   C1B27511  37.118  17.606   8.703
 1932POPC   C2B27512  37.251  17.393   8.325
 1932POPC   C3B27513  37.370  17.529   7.920
 1932POPC   C4B27514  37.162  17.755   7.569
 1933POPC   NC327515  21.783  15.286   9.329
 1933POPC   PO427516  21.203  15.066   9.471
 1933POPC   GL127517  21.416  15.070   9.046
 1933POPC   GL227518  21.734  14.892   8.975
 1933POPC   C1A27519  21.418  15.154   8.600
 1933POPC   D2A27520  21.365  15.215   8.131
 1933POPC   C3A27521  21.532  14.908   7.824
 1933POPC   C4A27522  21.511  14.853   7.337
 1933POPC   C1B27523  21.889  15.301   8.719
 1933POPC   C2B27524  21.752  15.467   8.358
 1933POPC   C3B27525  21.827  15.476   7.925
 1933POPC   C4B27526  21.692  15.303   7.524
 1934POPC   NC327527   3.661  34.829   9.506
 1934POPC   PO427528   3.316  34.295   9.483
 1934POPC   GL127529   3.351  34.538   9.140
 1934POPC   GL227530   3.707  34.538   9.095
 1934POPC   C1A27531   3.430  34.595   8.696
 1934POPC   D2A27532   3.307  34.566   8.314
 1934POPC   C3A27533   3.379  34.246   8.096
 1934POPC   C4A27534   3.369  34.403   7.719
 1934POPC   C1B27535   3.875  34.834   8.767
 1934POPC   C2B27536   3.850  34.643   8.369
 1934POPC   C3B27537   3.810  34.591   7.939
 1934POPC   C4B27538   4.043  34.479   7.559
 1935POPC   NC327539  36.431  18.176   9.447
 1935POPC   PO427540  37.116  18.073   9.396
 1935POPC   GL127541  37.027  18.141   8.977
 1935POPC   GL227542  36.927  18.473   9.039
 1935POPC   C1A27543  37.137  18.384   8.591
 1935POPC   D2A27544  37.305  18.698   8.343
 1935POPC   C3A27545  37.187  18.487   7.961
 1935POPC   C4A27546  36.973  18.105   7.859
 1935POPC   C1B27547  36.620  18.377   8.680
 1935POPC   C2B27548  36.614  18.213   8.218
 1935POPC   C3B27549  36.656  18.480   7.798
 1935POPC   C4B27550  36.459  18.418   7.361
 1936POPC   NC327551  38.525   2.895   9.524
 1936POPC   PO427552  37.932   2.696   9.547
 1936POPC   GL127553  38.207   2.689   9.178
 1936POPC   GL227554  38.522   2.483   9.165
 1936POPC   C1A27555  38.439   2.898   8.834
 1936POPC   D2A27556  38.535   2.752   8.418
 1936POPC   C3A27557  38.264   2.882   8.083
 1936POPC   C4A27558  38.186   2.842   7.651
 1936POPC   C1B27559  38.336   2.390   8.748
 1936POPC   C2B27560  38.406   2.126   8.403
 1936POPC   C3B27561  38.392   2.374   8.033
 1936POPC   C4B27562  38.746   2.541   7.788
 1937POPC   NC327563   9.973  26.571   9.700
 1937POPC   PO427564   9.902  27.214   9.673
 1937POPC   GL127565   9.978  27.044   9.237
 1937POPC   GL227566  10.049  26.722   9.243
 1937POPC   C1A27567   9.840  26.832   8.804
 1937POPC   D2A27568   9.619  26.652   8.432
 1937POPC   C3A27569   9.688  26.802   8.012
 1937POPC   C4A27570   9.991  27.096   7.899
 1937POPC   C1B27571  10.181  26.451   8.955
 1937POPC   C2B27572  10.081  26.435   8.543
 1937POPC   C3B27573  10.153  26.716   8.222
 1937POPC   C4B27574  10.127  26.627   7.796
 1938POPC   NC327575  41.439  29.465   9.327
 1938POPC   PO427576  41.504  28.823   9.563
 1938POPC   GL127577  41.503  28.983   9.158
 1938POPC   GL227578  41.783  29.144   9.074
 1938POPC   C1A27579  41.575  28.860   8.723
 1938POPC   D2A27580  41.664  29.002   8.314
 1938POPC   C3A27581  41.373  29.257   8.133
 1938POPC   C4A27582  41.298  29.223   7.684
 1938POPC   C1B27583  41.846  29.394   8.734
 1938POPC   C2B27584  41.796  29.534   8.287
 1938POPC   C3B27585  41.737  29.453   7.828
 1938POPC   C4B27586  41.899  29.513   7.383
 1939POPC   NC327587  14.610  27.411   9.641
 1939POPC   PO427588  14.229  26.839   9.519
 1939POPC   GL127589  14.311  26.970   9.120
 1939POPC   GL227590  14.604  27.149   9.151
 1939POPC   C1A27591  14.530  26.722   8.855
 1939POPC   D2A27592  14.440  26.477   8.500
 1939POPC   C3A27593  14.537  26.607   8.093
 1939POPC   C4A27594  14.649  26.545   7.667
 1939POPC   C1B27595  14.754  27.263   8.735
 1939POPC   C2B27596  14.603  27.320   8.328
 1939POPC   C3B27597  14.793  27.069   8.002
 1939POPC   C4B27598  14.765  27.039   7.581
 1940POPC   NC327599   1.341  39.476   9.309
 1940POPC   PO427600   0.720  39.321   9.458
 1940POPC   GL127601   1.026  39.160   9.071
 1940POPC   GL227602   1.188  39.432   8.831
 1940POPC   C1A27603   1.287  38.896   8.769
 1940POPC   D2A27604   1.357  39.071   8.345
 1940POPC   C3A27605   1.330  38.925   7.912
 1940POPC   C4A27606   0.926  38.903   7.706
 1940POPC   C1B27607   1.618  39.298   8.727
 1940POPC   C2B27608   1.807  39.278   8.359
 1940POPC   C3B27609   1.542  39.460   8.058
 1940POPC   C4B27610   1.259  39.527   7.708
 1941POPC   NC327611  41.588  41.712   9.511
 1941POPC   PO427612  41.685  41.019   9.484
 1941POPC   GL127613  41.747  41.331   9.203
 1941POPC   GL227614  41.394  41.393   9.149
 1941POPC   C1A27615  41.816  41.564   8.821
 1941POPC   D2A27616  41.942  41.456   8.404
 1941POPC   C3A27617  41.791  41.577   8.013
 1941POPC   C4A27618  41.599  41.544   7.615
 1941POPC   C1B27619  41.306  41.664   8.803
 1941POPC   C2B27620  41.432  41.649   8.389
 1941POPC   C3B27621  41.237  41.549   8.007
 1941POPC   C4B27622  41.117  41.780   7.665
 1942POPC   NC327623  13.912  18.801   9.455
 1942POPC   PO427624  13.252  18.909   9.499
 1942POPC   GL127625  13.514  18.826   9.123
 1942POPC   GL227626  13.657  19.163   9.153
 1942POPC   C1A27627  13.619  18.899   8.681
 1942POPC   D2A27628  13.441  18.971   8.265
 1942POPC   C3A27629  13.563  18.656   8.001
 1942POPC   C4A27630  13.741  18.802   7.616
 1942POPC   C1B27631  13.480  19.405   8.787
 1942POPC   C2B27632  13.270  19.458   8.397
 1942POPC   C3B27633  13.452  19.431   8.000
 1942POPC   C4B27634  13.704  19.340   7.656
 1943POPC   NC327635   6.899  39.445   9.516
 1943POPC   PO427636   6.363  39.041   9.466
 1943POPC   GL127637   6.556  39.287   9.142
 1943POPC   GL227638   6.865  39.099   9.105
 1943POPC   C1A27639   6.822  39.490   8.801
 1943POPC   D2A27640   7.029  39.268   8.473
 1943POPC   C3A27641   6.766  39.367   8.133
 1943POPC   C4A27642   6.802  39.541   7.724
 1943POPC   C1B27643   6.655  38.998   8.708
 1943POPC   C2B27644   6.762  38.863   8.286
 1943POPC   C3B27645   6.562  38.957   7.899
 1943POPC   C4B27646   6.592  39.109   7.477
 1944POPC   NC327647   4.905  36.252   9.351
 1944POPC   PO427648   5.490  36.013   9.288
 1944POPC   GL127649   5.178  36.039   8.954
 1944POPC   GL227650   4.935  35.825   9.095
 1944POPC   C1A27651   4.860  36.302   8.676
 1944POPC   D2A27652   4.781  36.452   8.238
 1944POPC   C3A27653   5.108  36.274   7.974
 1944POPC   C4A27654   5.297  35.919   7.736
 1944POPC   C1B27655   4.727  35.814   8.729
 1944POPC   C2B27656   4.927  35.851   8.345
 1944POPC   C3B27657   4.804  35.882   7.937
 1944POPC   C4B27658   4.859  36.003   7.481
 1945POPC   NC327659  11.227   3.789   9.805
 1945POPC   PO427660  11.562   4.189   9.392
 1945POPC   GL127661  11.384   4.345   9.067
 1945POPC   GL227662  11.136   4.557   9.116
 1945POPC   C1A27663  11.495   4.270   8.669
 1945POPC   D2A27664  11.399   4.087   8.319
 1945POPC   C3A27665  11.509   4.389   8.066
 1945POPC   C4A27666  11.440   4.271   7.688
 1945POPC   C1B27667  11.002   4.255   8.766
 1945POPC   C2B27668  10.860   4.135   8.419
 1945POPC   C3B27669  11.008   4.237   8.040
 1945POPC   C4B27670  10.918   4.277   7.672
 1946POPC   NC327671  12.860   9.087   9.520
 1946POPC   PO427672  12.584   8.483   9.522
 1946POPC   GL127673  12.729   8.781   9.122
 1946POPC   GL227674  12.694   9.169   9.055
 1946POPC   C1A27675  12.861   8.935   8.661
 1946POPC   D2A27676  12.706   9.089   8.236
 1946POPC   C3A27677  12.990   8.953   7.891
 1946POPC   C4A27678  13.128   9.012   7.433
 1946POPC   C1B27679  12.617   9.406   8.665
 1946POPC   C2B27680  12.314   9.420   8.339
 1946POPC   C3B27681  12.437   9.478   7.921
 1946POPC   C4B27682  12.663   9.242   7.647
 1947POPC   NC327683  18.290   3.017   9.797
 1947POPC   PO427684  18.349   3.543   9.408
 1947POPC   GL127685  18.431   3.507   9.014
 1947POPC   GL227686  18.591   3.212   8.953
 1947POPC   C1A27687  18.251   3.536   8.627
 1947POPC   D2A27688  18.032   3.369   8.297
 1947POPC   C3A27689  18.097   3.568   7.984
 1947POPC   C4A27690  18.039   3.423   7.625
 1947POPC   C1B27691  18.757   3.510   8.600
 1947POPC   C2B27692  18.618   3.556   8.157
 1947POPC   C3B27693  18.535   3.586   7.723
 1947POPC   C4B27694  18.482   3.282   7.414
 1948POPC   NC327695  40.288  33.851   9.377
 1948POPC   PO427696  40.928  33.671   9.414
 1948POPC   GL127697  40.729  33.861   9.071
 1948POPC   GL227698  40.823  34.183   9.114
 1948POPC   C1A27699  40.715  33.696   8.652
 1948POPC   D2A27700  40.986  33.441   8.374
 1948POPC   C3A27701  40.870  33.537   7.913
 1948POPC   C4A27702  40.488  33.750   7.813
 1948POPC   C1B27703  41.018  34.106   8.684
 1948POPC   C2B27704  40.898  33.936   8.226
 1948POPC   C3B27705  41.041  33.990   7.767
 1948POPC   C4B27706  40.993  34.218   7.337
 1949POPC   NC327707  13.261  22.760   9.479
 1949POPC   PO427708  13.706  23.261   9.452
 1949POPC   GL127709  13.879  22.977   9.161
 1949POPC   GL227710  13.567  22.880   9.092
 1949POPC   C1A27711  13.921  22.900   8.725
 1949POPC   D2A27712  13.803  23.175   8.417
 1949POPC   C3A27713  13.733  22.917   8.075
 1949POPC   C4A27714  13.988  22.737   7.733
 1949POPC   C1B27715  13.426  22.810   8.690
 1949POPC   C2B27716  13.417  22.549   8.374
 1949POPC   C3B27717  13.265  22.664   7.995
 1949POPC   C4B27718  13.497  22.717   7.664
 1950POPC   NC327719  31.800  34.623   9.503
 1950POPC   PO427720  32.426  34.438   9.563
 1950POPC   GL127721  32.354  34.703   9.225
 1950POPC   GL227722  32.655  34.870   9.157
 1950POPC   C1A27723  32.118  34.614   8.847
 1950POPC   D2A27724  32.148  34.351   8.489
 1950POPC   C3A27725  31.992  34.444   8.109
 1950POPC   C4A27726  32.148  34.476   7.726
 1950POPC   C1B27727  32.558  34.960   8.756
 1950POPC   C2B27728  32.698  35.083   8.337
 1950POPC   C3B27729  32.534  34.952   7.918
 1950POPC   C4B27730  32.251  34.942   7.519
 1951POPC   NC327731  12.163  18.811   9.318
 1951POPC   PO427732  11.987  19.417   9.579
 1951POPC   GL127733  11.932  19.312   9.137
 1951POPC   GL227734  12.295  19.246   9.025
 1951POPC   C1A27735  11.940  19.378   8.661
 1951POPC   D2A27736  11.866  19.070   8.320
 1951POPC   C3A27737  11.883  19.116   7.888
 1951POPC   C4A27738  11.619  18.924   7.535
 1951POPC   C1B27739  12.159  18.910   8.692
 1951POPC   C2B27740  12.263  18.748   8.273
 1951POPC   C3B27741  12.199  18.720   7.824
 1951POPC   C4B27742  12.405  18.493   7.464
 1952POPC   NC327743  14.923  20.196   9.475
 1952POPC   PO427744  15.525  20.029   9.612
 1952POPC   GL127745  15.376  20.179   9.200
 1952POPC   GL227746  15.089  19.984   9.047
 1952POPC   C1A27747  15.409  20.266   8.764
 1952POPC   D2A27748  15.203  19.981   8.484
 1952POPC   C3A27749  15.078  20.169   8.122
 1952POPC   C4A27750  15.262  20.142   7.724
 1952POPC   C1B27751  14.756  19.884   8.752
 1952POPC   C2B27752  14.759  19.669   8.352
 1952POPC   C3B27753  14.894  19.637   7.908
 1952POPC   C4B27754  14.730  19.442   7.505
 1953POPC   NC327755  43.011   9.495   9.537
 1953POPC   PO427756  42.679  10.038   9.280
 1953POPC   GL127757  43.059   9.982   9.134
 1953POPC   GL227758  43.167   9.637   9.100
 1953POPC   C1A27759  43.201   9.953   8.718
 1953POPC   D2A27760  43.040   9.757   8.384
 1953POPC   C3A27761  43.013  10.049   8.102
 1953POPC   C4A27762  42.825   9.829   7.799
 1953POPC   C1B27763  43.276   9.444   8.720
 1953POPC   C2B27764  43.521   9.613   8.362
 1953POPC   C3B27765  43.340   9.672   7.945
 1953POPC   C4B27766  43.078   9.375   7.677
 1954POPC   NC327767   0.289   5.630   9.900
 1954POPC   PO427768   0.454   5.009   9.619
 1954POPC   GL127769   0.446   5.051   9.188
 1954POPC   GL227770   0.122   4.969   9.185
 1954POPC   C1A27771   0.302   5.318   8.812
 1954POPC   D2A27772   0.116   5.233   8.420
 1954POPC   C3A27773   0.391   5.233   8.058
 1954POPC   C4A27774   0.340   5.417   7.698
 1954POPC   C1B27775   0.174   4.832   8.796
 1954POPC   C2B27776   0.209   4.734   8.402
 1954POPC   C3B27777   0.191   4.771   8.011
 1954POPC   C4B27778   0.536   4.689   7.795
 1955POPC   NC327779   6.514  18.873   9.249
 1955POPC   PO427780   6.633  19.334   9.743
 1955POPC   GL127781   6.885  19.277   9.251
 1955POPC   GL227782   6.997  18.974   9.082
 1955POPC   C1A27783   6.738  19.231   8.744
 1955POPC   D2A27784   6.781  19.025   8.396
 1955POPC   C3A27785   6.530  19.117   8.061
 1955POPC   C4A27786   6.763  19.279   7.717
 1955POPC   C1B27787   7.213  18.894   8.690
 1955POPC   C2B27788   7.154  18.700   8.273
 1955POPC   C3B27789   6.857  18.768   7.925
 1955POPC   C4B27790   6.898  18.737   7.454
 1956POPC   NC327791  39.785   7.092   9.446
 1956POPC   PO427792  39.714   7.790   9.422
 1956POPC   GL127793  39.942   7.549   9.103
 1956POPC   GL227794  40.257   7.334   9.101
 1956POPC   C1A27795  40.032   7.532   8.675
 1956POPC   D2A27796  40.305   7.402   8.377
 1956POPC   C3A27797  40.213   7.647   8.050
 1956POPC   C4A27798  39.856   7.720   7.786
 1956POPC   C1B27799  40.176   7.030   8.739
 1956POPC   C2B27800  39.897   7.079   8.396
 1956POPC   C3B27801  39.878   7.253   7.999
 1956POPC   C4B27802  40.173   7.312   7.670
 1957POPC   NC327803  24.130  39.944   9.520
 1957POPC   PO427804  23.522  39.634   9.501
 1957POPC   GL127805  23.654  39.933   9.151
 1957POPC   GL227806  23.943  40.131   9.081
 1957POPC   C1A27807  23.850  39.802   8.728
 1957POPC   D2A27808  23.656  39.718   8.372
 1957POPC   C3A27809  23.793  39.807   7.943
 1957POPC   C4A27810  23.653  40.118   7.706
 1957POPC   C1B27811  24.015  40.279   8.666
 1957POPC   C2B27812  24.078  40.044   8.294
 1957POPC   C3B27813  24.151  40.192   7.840
 1957POPC   C4B27814  24.054  40.196   7.372
 1958POPC   NC327815  31.300  14.995   9.540
 1958POPC   PO427816  31.521  15.602   9.578
 1958POPC   GL127817  31.733  15.502   9.179
 1958POPC   GL227818  31.469  15.286   9.156
 1958POPC   C1A27819  31.735  15.367   8.734
 1958POPC   D2A27820  31.873  15.389   8.308
 1958POPC   C3A27821  31.574  15.224   8.005
 1958POPC   C4A27822  31.584  15.266   7.573
 1958POPC   C1B27823  31.429  14.967   8.859
 1958POPC   C2B27824  31.393  15.110   8.455
 1958POPC   C3B27825  31.156  14.961   8.129
 1958POPC   C4B27826  31.286  14.845   7.729
 1959POPC   NC327827  31.640  17.752   9.628
 1959POPC   PO427828  31.250  17.276   9.507
 1959POPC   GL127829  31.451  17.509   9.192
 1959POPC   GL227830  31.297  17.783   9.079
 1959POPC   C1A27831  31.515  17.421   8.757
 1959POPC   D2A27832  31.342  17.211   8.421
 1959POPC   C3A27833  31.615  17.278   8.085
 1959POPC   C4A27834  31.632  17.066   7.709
 1959POPC   C1B27835  31.540  17.934   8.740
 1959POPC   C2B27836  31.684  17.736   8.352
 1959POPC   C3B27837  31.600  17.767   7.914
 1959POPC   C4B27838  31.495  17.548   7.563
 1960POPC   NC327839   2.551  18.761   9.465
 1960POPC   PO427840   3.085  18.342   9.533
 1960POPC   GL127841   2.809  18.404   9.176
 1960POPC   GL227842   2.524  18.179   9.157
 1960POPC   C1A27843   2.680  18.502   8.748
 1960POPC   D2A27844   3.014  18.400   8.456
 1960POPC   C3A27845   3.011  18.236   8.038
 1960POPC   C4A27846   2.834  18.448   7.716
 1960POPC   C1B27847   2.331  18.004   8.754
 1960POPC   C2B27848   2.210  18.125   8.305
 1960POPC   C3B27849   2.434  18.185   7.935
 1960POPC   C4B27850   2.369  18.062   7.532
 1961POPC   NC327851  41.835   5.190   9.264
 1961POPC   PO427852  42.411   4.864   9.462
 1961POPC   GL127853  42.360   5.230   9.176
 1961POPC   GL227854  42.677   5.267   8.975
 1961POPC   C1A27855  42.223   5.422   8.770
 1961POPC   D2A27856  42.130   5.116   8.449
 1961POPC   C3A27857  42.211   5.256   8.031
 1961POPC   C4A27858  42.154   5.042   7.659
 1961POPC   C1B27859  42.838   5.013   8.625
 1961POPC   C2B27860  42.684   4.707   8.305
 1961POPC   C3B27861  42.544   4.779   7.875
 1961POPC   C4B27862  42.638   5.192   7.685
 1962POPC   NC327863  25.414  35.929   9.473
 1962POPC   PO427864  25.038  36.399   9.154
 1962POPC   GL127865  25.221  36.065   9.017
 1962POPC   GL227866  25.035  35.817   9.155
 1962POPC   C1A27867  25.351  36.125   8.624
 1962POPC   D2A27868  25.084  36.289   8.351
 1962POPC   C3A27869  25.311  36.243   7.980
 1962POPC   C4A27870  25.274  36.427   7.588
 1962POPC   C1B27871  25.099  35.623   8.759
 1962POPC   C2B27872  25.078  35.763   8.367
 1962POPC   C3B27873  25.290  35.726   7.996
 1962POPC   C4B27874  25.486  35.893   7.627
 1963POPC   NC327875  29.517  25.429   9.260
 1963POPC   PO427876  30.173  25.226   9.649
 1963POPC   GL127877  29.971  25.211   9.232
 1963POPC   GL227878  29.982  25.489   8.991
 1963POPC   C1A27879  29.918  25.014   8.808
 1963POPC   D2A27880  29.832  25.064   8.362
 1963POPC   C3A27881  30.176  25.120   8.106
 1963POPC   C4A27882  30.205  25.084   7.678
 1963POPC   C1B27883  29.782  25.545   8.622
 1963POPC   C2B27884  29.943  25.574   8.236
 1963POPC   C3B27885  29.811  25.419   7.864
 1963POPC   C4B27886  29.451  25.448   7.647
 1964POPC   NC327887  42.717  18.565   9.425
 1964POPC   PO427888  42.206  18.049   9.531
 1964POPC   GL127889  42.381  18.223   9.147
 1964POPC   GL227890  42.205  18.518   9.114
 1964POPC   C1A27891  42.646  18.355   8.762
 1964POPC   D2A27892  42.572  18.624   8.389
 1964POPC   C3A27893  42.566  18.555   7.940
 1964POPC   C4A27894  42.733  18.221   7.712
 1964POPC   C1B27895  42.134  18.335   8.673
 1964POPC   C2B27896  42.221  18.267   8.222
 1964POPC   C3B27897  42.200  18.226   7.775
 1964POPC   C4B27898  42.388  17.994   7.410
 1965POPC   NC327899  20.954  10.092   9.526
 1965POPC   PO427900  20.669   9.523   9.383
 1965POPC   GL127901  20.438   9.684   9.022
 1965POPC   GL227902  20.272  10.012   9.109
 1965POPC   C1A27903  20.488   9.572   8.585
 1965POPC   D2A27904  20.720   9.299   8.299
 1965POPC   C3A27905  20.727   9.473   7.914
 1965POPC   C4A27906  20.969   9.839   7.867
 1965POPC   C1B27907  20.538  10.089   8.694
 1965POPC   C2B27908  20.685  10.054   8.228
 1965POPC   C3B27909  20.523  10.076   7.765
 1965POPC   C4B27910  20.428  10.054   7.294
 1966POPC   NC327911  29.955  36.398   9.396
 1966POPC   PO427912  30.092  37.100   9.479
 1966POPC   GL127913  29.813  36.915   9.166
 1966POPC   GL227914  29.842  36.604   8.957
 1966POPC   C1A27915  29.658  37.032   8.766
 1966POPC   D2A27916  29.583  36.842   8.380
 1966POPC   C3A27917  29.927  37.001   8.172
 1966POPC   C4A27918  30.166  37.095   7.817
 1966POPC   C1B27919  30.120  36.795   8.663
 1966POPC   C2B27920  30.320  36.667   8.277
 1966POPC   C3B27921  30.074  36.599   7.890
 1966POPC   C4B27922  30.028  36.621   7.441
 1967POPC   NC327923   8.864  30.183   9.389
 1967POPC   PO427924   8.608  29.579   9.517
 1967POPC   GL127925   8.838  29.720   9.134
 1967POPC   GL227926   9.176  29.818   9.196
 1967POPC   C1A27927   8.804  30.007   8.741
 1967POPC   D2A27928   8.801  30.265   8.344
 1967POPC   C3A27929   8.706  30.015   7.987
 1967POPC   C4A27930   8.924  29.666   7.860
 1967POPC   C1B27931   9.313  29.934   8.796
 1967POPC   C2B27932   9.149  29.839   8.383
 1967POPC   C3B27933   9.310  29.993   8.021
 1967POPC   C4B27934   9.277  29.943   7.602
 1968POPC   NC327935  38.622   7.762   9.391
 1968POPC   PO427936  38.255   7.294   9.469
 1968POPC   GL127937  38.453   7.335   9.092
 1968POPC   GL227938  38.267   7.615   8.999
 1968POPC   C1A27939  38.687   7.430   8.727
 1968POPC   D2A27940  38.657   7.705   8.412
 1968POPC   C3A27941  38.549   7.398   8.117
 1968POPC   C4A27942  38.525   7.509   7.729
 1968POPC   C1B27943  38.190   7.510   8.562
 1968POPC   C2B27944  38.187   7.734   8.164
 1968POPC   C3B27945  38.055   7.733   7.751
 1968POPC   C4B27946  38.177   7.505   7.367
 1969POPC   NC327947  31.544  11.692   9.490
 1969POPC   PO427948  31.343  12.306   9.271
 1969POPC   GL127949  31.462  12.174   8.920
 1969POPC   GL227950  31.554  11.838   8.993
 1969POPC   C1A27951  31.351  12.161   8.490
 1969POPC   D2A27952  31.243  12.274   8.054
 1969POPC   C3A27953  31.639  12.312   7.837
 1969POPC   C4A27954  31.944  11.973   7.712
 1969POPC   C1B27955  31.593  11.707   8.574
 1969POPC   C2B27956  31.701  11.848   8.181
 1969POPC   C3B27957  31.463  11.812   7.839
 1969POPC   C4B27958  31.184  11.632   7.557
 1970POPC   NC327959  20.369  23.473   9.797
 1970POPC   PO427960  20.911  23.801   9.538
 1970POPC   GL127961  20.737  23.801   9.124
 1970POPC   GL227962  20.395  23.669   9.186
 1970POPC   C1A27963  20.653  23.508   8.760
 1970POPC   D2A27964  20.687  23.288   8.362
 1970POPC   C3A27965  20.697  23.584   8.008
 1970POPC   C4A27966  20.403  23.842   7.797
 1970POPC   C1B27967  20.397  23.923   8.783
 1970POPC   C2B27968  20.712  23.903   8.443
 1970POPC   C3B27969  20.709  24.137   8.104
 1970POPC   C4B27970  20.905  24.032   7.765
 1971POPC   NC327971  34.040  11.725   9.398
 1971POPC   PO427972  33.676  12.290   9.522
 1971POPC   GL127973  33.710  12.122   9.132
 1971POPC   GL227974  33.595  11.797   9.119
 1971POPC   C1A27975  33.824  12.355   8.763
 1971POPC   D2A27976  33.638  12.324   8.359
 1971POPC   C3A27977  33.750  12.061   8.022
 1971POPC   C4A27978  33.839  12.177   7.594
 1971POPC   C1B27979  33.602  11.893   8.673
 1971POPC   C2B27980  33.346  11.891   8.313
 1971POPC   C3B27981  33.373  11.715   7.919
 1971POPC   C4B27982  33.699  11.704   7.640
 1972POPC   NC327983  29.017   9.748   9.434
 1972POPC   PO427984  29.612   9.448   9.495
 1972POPC   GL127985  29.284   9.481   9.118
 1972POPC   GL227986  29.080   9.837   8.962
 1972POPC   C1A27987  29.154   9.397   8.716
 1972POPC   D2A27988  29.354   9.363   8.341
 1972POPC   C3A27989  29.164   9.491   7.972
 1972POPC   C4A27990  29.134   9.731   7.583
 1972POPC   C1B27991  28.744  10.054   8.721
 1972POPC   C2B27992  29.024   9.819   8.416
 1972POPC   C3B27993  28.990   9.969   8.021
 1972POPC   C4B27994  28.567  10.125   7.924
 1973POPC   NC327995  40.602  24.716   9.526
 1973POPC   PO427996  41.178  24.329   9.612
 1973POPC   GL127997  41.003  24.533   9.160
 1973POPC   GL227998  40.612  24.578   9.061
 1973POPC   C1A27999  40.833  24.353   8.692
 1973POPC   D2A28000  40.475  24.344   8.393
 1973POPC   C3A28001  40.688  24.396   8.010
 1973POPC   C4A28002  40.973  24.139   7.824
 1973POPC   C1B28003  40.859  24.863   8.788
 1973POPC   C2B28004  41.010  24.842   8.375
 1973POPC   C3B28005  40.806  24.887   7.988
 1973POPC   C4B28006  40.510  24.891   7.630
 1974POPC   NC328007  43.605  20.013   9.573
 1974POPC   PO428008  44.090  19.589   9.345
 1974POPC   GL128009  43.900  19.886   9.095
 1974POPC   GL228010  43.579  19.822   9.077
 1974POPC   C1A28011  43.867  19.868   8.657
 1974POPC   D2A28012  44.190  19.760   8.434
 1974POPC   C3A28013  44.021  19.565   8.111
 1974POPC   C4A28014  44.041  19.919   7.881
 1974POPC   C1B28015  43.467  19.517   8.741
 1974POPC   C2B28016  43.565  19.558   8.358
 1974POPC   C3B28017  43.584  19.890   8.091
 1974POPC   C4B28018  43.638  19.611   7.746
 1975POPC   NC328019  36.517   7.644   9.539
 1975POPC   PO428020  36.112   7.097   9.404
 1975POPC   GL128021  36.184   7.492   9.181
 1975POPC   GL228022  35.885   7.716   9.221
 1975POPC   C1A28023  36.461   7.670   8.865
 1975POPC   D2A28024  36.289   7.481   8.500
 1975POPC   C3A28025  36.370   7.573   8.091
 1975POPC   C4A28026  36.300   7.460   7.688
 1975POPC   C1B28027  35.969   7.802   8.778
 1975POPC   C2B28028  36.038   7.901   8.301
 1975POPC   C3B28029  35.965   7.865   7.823
 1975POPC   C4B28030  35.880   7.640   7.420
 1976POPC   NC328031  33.462  15.037   9.538
 1976POPC   PO428032  33.588  15.761   9.650
 1976POPC   GL128033  33.721  15.407   9.283
 1976POPC   GL228034  33.703  15.063   9.109
 1976POPC   C1A28035  33.754  15.490   8.801
 1976POPC   D2A28036  33.774  15.307   8.374
 1976POPC   C3A28037  33.746  15.550   7.993
 1976POPC   C4A28038  33.804  15.387   7.557
 1976POPC   C1B28039  33.546  15.010   8.721
 1976POPC   C2B28040  33.643  14.810   8.315
 1976POPC   C3B28041  33.641  14.993   7.928
 1976POPC   C4B28042  33.362  15.208   7.698
 1977POPC   NC328043   9.459  35.942   9.419
 1977POPC   PO428044   8.928  36.287   9.497
 1977POPC   GL128045   8.883  36.162   9.093
 1977POPC   GL228046   9.228  36.092   9.008
 1977POPC   C1A28047   8.907  36.294   8.675
 1977POPC   D2A28048   8.701  36.213   8.332
 1977POPC   C3A28049   8.900  36.368   8.033
 1977POPC   C4A28050   8.868  36.112   7.711
 1977POPC   C1B28051   9.287  35.917   8.608
 1977POPC   C2B28052   9.121  35.934   8.209
 1977POPC   C3B28053   9.339  36.053   7.881
 1977POPC   C4B28054   9.330  35.980   7.474
 1978POPC   NC328055   6.979  42.197   9.357
 1978POPC   PO428056   6.341  42.193   9.474
 1978POPC   GL128057   6.438  42.341   9.076
 1978POPC   GL228058   6.706  42.541   9.109
 1978POPC   C1A28059   6.386  42.679   8.728
 1978POPC   D2A28060   6.565  42.605   8.282
 1978POPC   C3A28061   6.361  42.428   7.913
 1978POPC   C4A28062   6.349  42.203   7.493
 1978POPC   C1B28063   6.850  42.483   8.722
 1978POPC   C2B28064   7.137  42.589   8.456
 1978POPC   C3B28065   7.183  42.563   8.045
 1978POPC   C4B28066   6.856  42.479   7.796
 1979POPC   NC328067  43.751  31.076   9.580
 1979POPC   PO428068  43.790  30.343   9.537
 1979POPC   GL128069  43.849  30.698   9.233
 1979POPC   GL228070  44.165  30.815   9.112
 1979POPC   C1A28071  43.723  30.866   8.819
 1979POPC   D2A28072  43.479  30.772   8.449
 1979POPC   C3A28073  43.688  30.624   8.100
 1979POPC   C4A28074  43.557  30.609   7.688
 1979POPC   C1B28075  44.134  30.524   8.811
 1979POPC   C2B28076  44.096  30.755   8.441
 1979POPC   C3B28077  44.276  30.814   8.051
 1979POPC   C4B28078  44.070  30.620   7.706
 1980POPC   NC328079  31.289   3.131   9.458
 1980POPC   PO428080  31.258   2.468   9.567
 1980POPC   GL128081  31.523   2.595   9.210
 1980POPC   GL228082  31.725   2.925   9.234
 1980POPC   C1A28083  31.533   2.680   8.799
 1980POPC   D2A28084  31.453   2.874   8.449
 1980POPC   C3A28085  31.383   2.623   8.140
 1980POPC   C4A28086  31.372   2.639   7.741
 1980POPC   C1B28087  31.673   3.153   8.845
 1980POPC   C2B28088  31.867   3.161   8.400
 1980POPC   C3B28089  31.692   3.009   7.993
 1980POPC   C4B28090  31.937   3.107   7.633
 1981POPC   NC328091   1.495  15.786   9.834
 1981POPC   PO428092   0.915  16.039   9.623
 1981POPC   GL128093   1.169  16.032   9.279
 1981POPC   GL228094   0.968  15.749   9.153
 1981POPC   C1A28095   1.251  16.083   8.831
 1981POPC   D2A28096   1.092  15.969   8.410
 1981POPC   C3A28097   1.220  16.076   7.993
 1981POPC   C4A28098   1.323  15.821   7.605
 1981POPC   C1B28099   1.100  15.577   8.744
 1981POPC   C2B28100   1.212  15.463   8.273
 1981POPC   C3B28101   1.092  15.378   7.818
 1981POPC   C4B28102   0.905  15.555   7.419
 1982POPC   NC328103  25.369  16.551   9.485
 1982POPC   PO428104  24.727  16.938   9.402
 1982POPC   GL128105  24.976  16.968   9.049
 1982POPC   GL228106  25.290  16.767   9.043
 1982POPC   C1A28107  24.835  16.982   8.630
 1982POPC   D2A28108  25.124  16.905   8.309
 1982POPC   C3A28109  25.046  16.855   7.864
 1982POPC   C4A28110  25.305  16.782   7.512
 1982POPC   C1B28111  25.249  16.387   8.810
 1982POPC   C2B28112  25.307  16.326   8.346
 1982POPC   C3B28113  25.283  16.399   7.884
 1982POPC   C4B28114  25.536  16.307   7.518
 1983POPC   NC328115  39.969  30.976   9.508
 1983POPC   PO428116  39.595  30.447   9.241
 1983POPC   GL128117  40.001  30.684   9.068
 1983POPC   GL228118  40.148  31.054   9.060
 1983POPC   C1A28119  40.216  30.726   8.658
 1983POPC   D2A28120  40.225  30.699   8.187
 1983POPC   C3A28121  39.794  30.681   8.112
 1983POPC   C4A28122  39.610  30.818   7.733
 1983POPC   C1B28123  40.067  31.295   8.736
 1983POPC   C2B28124  40.012  31.116   8.379
 1983POPC   C3B28125  39.967  31.126   7.949
 1983POPC   C4B28126  39.983  31.205   7.506
 1984POPC   NC328127   0.198  18.734   9.512
 1984POPC   PO428128   0.671  19.241   9.429
 1984POPC   GL128129   0.573  18.880   9.151
 1984POPC   GL228130   0.252  18.991   9.076
 1984POPC   C1A28131   0.495  18.838   8.669
 1984POPC   D2A28132   0.303  19.092   8.349
 1984POPC   C3A28133   0.241  18.891   7.945
 1984POPC   C4A28134   0.483  18.879   7.549
 1984POPC   C1B28135   0.438  19.334   8.818
 1984POPC   C2B28136   0.540  19.560   8.459
 1984POPC   C3B28137   0.398  19.503   8.033
 1984POPC   C4B28138   0.254  19.323   7.664
 1985POPC   NC328139  10.014  29.043   9.453
 1985POPC   PO428140   9.431  29.467   9.457
 1985POPC   GL128141   9.703  29.294   9.100
 1985POPC   GL228142   9.798  28.931   9.015
 1985POPC   C1A28143   9.909  29.300   8.688
 1985POPC   D2A28144  10.035  28.934   8.440
 1985POPC   C3A28145   9.998  29.019   8.002
 1985POPC   C4A28146   9.950  29.391   7.745
 1985POPC   C1B28147   9.391  28.869   8.827
 1985POPC   C2B28148   9.233  28.681   8.443
 1985POPC   C3B28149   9.293  28.823   8.017
 1985POPC   C4B28150   9.575  29.042   7.710
 1986POPC   NC328151  38.197  34.792   9.754
 1986POPC   PO428152  38.597  34.224   9.609
 1986POPC   GL128153  38.348  34.339   9.200
 1986POPC   GL228154  38.365  34.708   9.163
 1986POPC   C1A28155  38.149  34.247   8.772
 1986POPC   D2A28156  38.346  34.463   8.430
 1986POPC   C3A28157  38.438  34.533   7.999
 1986POPC   C4A28158  38.589  34.771   7.654
 1986POPC   C1B28159  38.178  34.807   8.757
 1986POPC   C2B28160  38.019  34.859   8.336
 1986POPC   C3B28161  38.178  34.943   7.911
 1986POPC   C4B28162  37.998  34.605   7.660
 1987POPC   NC328163  34.932  15.255   9.568
 1987POPC   PO428164  35.600  15.040   9.514
 1987POPC   GL128165  35.439  15.134   9.154
 1987POPC   GL228166  35.089  15.058   9.139
 1987POPC   C1A28167  35.490  14.925   8.770
 1987POPC   D2A28168  35.597  15.102   8.382
 1987POPC   C3A28169  35.434  14.928   8.002
 1987POPC   C4A28170  35.547  15.203   7.676
 1987POPC   C1B28171  35.133  15.309   8.785
 1987POPC   C2B28172  35.078  15.134   8.390
 1987POPC   C3B28173  35.164  15.362   8.013
 1987POPC   C4B28174  35.035  15.117   7.678
 1988POPC   NC328175  41.878   7.960   9.877
 1988POPC   PO428176  42.426   8.090   9.485
 1988POPC   GL128177  42.318   8.115   9.090
 1988POPC   GL228178  42.024   7.947   9.149
 1988POPC   C1A28179  42.367   8.259   8.665
 1988POPC   D2A28180  42.727   8.405   8.412
 1988POPC   C3A28181  42.578   8.452   7.990
 1988POPC   C4A28182  42.379   8.199   7.699
 1988POPC   C1B28183  41.870   8.182   8.808
 1988POPC   C2B28184  41.911   8.357   8.408
 1988POPC   C3B28185  41.922   8.168   8.016
 1988POPC   C4B28186  41.876   8.335   7.624
 1989POPC   NC328187  28.537  43.730   9.813
 1989POPC   PO428188  28.955  44.082   9.705
 1989POPC   GL128189  28.645  43.938   9.335
 1989POPC   GL228190  28.254  43.934   9.359
 1989POPC   C1A28191  28.454  43.904   8.883
 1989POPC   D2A28192  28.317  43.941   8.418
 1989POPC   C3A28193  28.687  43.875   8.125
 1989POPC   C4A28194  28.825  43.847   7.703
 1989POPC   C1B28195  27.956  44.046   8.971
 1989POPC   C2B28196  27.747  43.976   8.539
 1989POPC   C3B28197  27.885  43.786   8.126
 1989POPC   C4B28198  28.239  43.919   7.869
 1990POPC   NC328199  36.596  10.823   9.465
 1990POPC   PO428200  36.908  10.263   9.450
 1990POPC   GL128201  37.221  10.409   9.114
 1990POPC   GL228202  37.384  10.108   8.943
 1990POPC   C1A28203  37.166  10.669   8.703
 1990POPC   D2A28204  36.850  10.863   8.392
 1990POPC   C3A28205  36.929  10.740   7.950
 1990POPC   C4A28206  37.162  10.679   7.553
 1990POPC   C1B28207  36.952  10.164   8.763
 1990POPC   C2B28208  36.656  10.364   8.456
 1990POPC   C3B28209  36.643  10.283   8.000
 1990POPC   C4B28210  37.041  10.222   7.757
 1991POPC   NC328211  40.380  24.006   9.352
 1991POPC   PO428212  39.858  23.540   9.476
 1991POPC   GL128213  39.710  23.621   9.070
 1991POPC   GL228214  40.016  23.794   9.056
 1991POPC   C1A28215  39.734  23.461   8.658
 1991POPC   D2A28216  39.896  23.626   8.259
 1991POPC   C3A28217  39.642  23.861   8.005
 1991POPC   C4A28218  39.433  23.643   7.696
 1991POPC   C1B28219  40.188  23.721   8.674
 1991POPC   C2B28220  40.377  23.772   8.299
 1991POPC   C3B28221  40.329  24.034   7.971
 1991POPC   C4B28222  40.071  23.789   7.754
 1992POPC   NC328223  39.900  44.546   9.544
 1992POPC   PO428224  39.672   0.124   9.411
 1992POPC   GL128225  39.848  44.922   9.078
 1992POPC   GL228226  40.160  44.747   9.155
 1992POPC   C1A28227  39.736  44.626   8.777
 1992POPC   D2A28228  39.859  44.532   8.354
 1992POPC   C3A28229  39.890  44.889   8.054
 1992POPC   C4A28230  39.770  44.697   7.661
 1992POPC   C1B28231  40.254  44.589   8.759
 1992POPC   C2B28232  40.334  44.728   8.366
 1992POPC   C3B28233  40.253  44.540   7.993
 1992POPC   C4B28234  40.345  44.690   7.604
 1993POPC   NC328235  37.178  43.306   9.852
 1993POPC   PO428236  36.729  42.830   9.759
 1993POPC   GL128237  36.659  42.957   9.271
 1993POPC   GL228238  36.893  42.795   9.081
 1993POPC   C1A28239  36.742  43.230   8.867
 1993POPC   D2A28240  36.969  43.107   8.472
 1993POPC   C3A28241  36.809  43.202   8.074
 1993POPC   C4A28242  36.610  43.151   7.651
 1993POPC   C1B28243  37.103  42.626   8.731
 1993POPC   C2B28244  37.325  42.722   8.390
 1993POPC   C3B28245  37.300  42.788   7.969
 1993POPC   C4B28246  37.124  43.070   7.701
 1994POPC   NC328247  40.567  12.990   9.581
 1994POPC   PO428248  41.246  12.796   9.497
 1994POPC   GL128249  40.872  12.792   9.210
 1994POPC   GL228250  40.978  12.514   9.049
 1994POPC   C1A28251  40.717  12.884   8.767
 1994POPC   D2A28252  40.849  13.073   8.372
 1994POPC   C3A28253  40.647  12.935   8.002
 1994POPC   C4A28254  40.781  13.076   7.612
 1994POPC   C1B28255  41.156  12.526   8.669
 1994POPC   C2B28256  40.892  12.542   8.331
 1994POPC   C3B28257  41.070  12.676   7.971
 1994POPC   C4B28258  41.086  12.618   7.581
 1995POPC   NC328259  35.680  27.634   9.469
 1995POPC   PO428260  36.297  27.430   9.501
 1995POPC   GL128261  36.065  27.263   9.161
 1995POPC   GL228262  35.751  27.371   9.046
 1995POPC   C1A28263  36.316  27.240   8.800
 1995POPC   D2A28264  36.415  27.463   8.432
 1995POPC   C3A28265  36.125  27.422   8.103
 1995POPC   C4A28266  36.219  27.618   7.736
 1995POPC   C1B28267  35.937  27.670   8.766
 1995POPC   C2B28268  35.783  27.827   8.357
 1995POPC   C3B28269  35.878  28.027   7.947
 1995POPC   C4B28270  35.879  27.911   7.522
 1996POPC   NC328271  39.851   3.838   9.448
 1996POPC   PO428272  39.842   4.435   9.699
 1996POPC   GL128273  39.953   4.314   9.243
 1996POPC   GL228274  39.657   4.164   9.126
 1996POPC   C1A28275  40.042   4.093   8.794
 1996POPC   D2A28276  40.006   4.033   8.328
 1996POPC   C3A28277  40.242   4.246   8.004
 1996POPC   C4A28278  40.223   4.478   7.644
 1996POPC   C1B28279  39.582   4.319   8.720
 1996POPC   C2B28280  39.509   4.134   8.301
 1996POPC   C3B28281  39.706   4.328   7.927
 1996POPC   C4B28282  39.642   4.316   7.466
 1997POPC   NC328283   3.680  40.120   9.532
 1997POPC   PO428284   3.218  39.608   9.434
 1997POPC   GL128285   3.377  39.964   9.149
 1997POPC   GL228286   3.374  40.342   9.170
 1997POPC   C1A28287   3.485  40.093   8.736
 1997POPC   D2A28288   3.525  39.911   8.358
 1997POPC   C3A28289   3.594  40.183   8.029
 1997POPC   C4A28290   3.351  40.029   7.691
 1997POPC   C1B28291   3.117  40.421   8.794
 1997POPC   C2B28292   3.076  40.191   8.408
 1997POPC   C3B28293   3.108  40.364   8.023
 1997POPC   C4B28294   3.127  40.507   7.627
 1998POPC   NC328295  32.830  34.663   9.597
 1998POPC   PO428296  33.478  34.882   9.547
 1998POPC   GL128297  33.179  34.599   9.223
 1998POPC   GL228298  32.831  34.377   9.184
 1998POPC   C1A28299  33.029  34.686   8.799
 1998POPC   D2A28300  33.215  34.841   8.416
 1998POPC   C3A28301  32.996  34.746   8.064
 1998POPC   C4A28302  32.963  34.447   7.796
 1998POPC   C1B28303  32.597  34.407   8.809
 1998POPC   C2B28304  32.606  34.585   8.424
 1998POPC   C3B28305  32.525  34.470   8.055
 1998POPC   C4B28306  32.566  34.151   7.779
 1999POPC   NC328307  14.233   0.767   9.521
 1999POPC   PO428308  14.789   0.801   9.230
 1999POPC   GL128309  14.478   0.452   9.177
 1999POPC   GL228310  14.129   0.545   9.081
 1999POPC   C1A28311  14.446   0.223   8.772
 1999POPC   D2A28312  14.580   0.361   8.343
 1999POPC   C3A28313  14.471   0.175   7.935
 1999POPC   C4A28314  14.638   0.479   7.703
 1999POPC   C1B28315  14.366   0.728   8.741
 1999POPC   C2B28316  14.252   0.740   8.324
 1999POPC   C3B28317  14.119   0.541   7.956
 1999POPC   C4B28318  14.163   0.396   7.532
 2000POPC   NC328319  39.954  11.090   9.453
 2000POPC   PO428320  39.978  11.716   9.467
 2000POPC   GL128321  39.843  11.470   9.105
 2000POPC   GL228322  40.074  11.205   8.979
 2000POPC   C1A28323  39.708  11.400   8.685
 2000POPC   D2A28324  39.902  11.488   8.273
 2000POPC   C3A28325  39.816  11.312   7.871
 2000POPC   C4A28326  39.756  11.514   7.447
 2000POPC   C1B28327  40.202  11.530   8.689
 2000POPC   C2B28328  40.438  11.468   8.320
 2000POPC   C3B28329  40.328  11.134   8.054
 2000POPC   C4B28330  40.198  11.086   7.619
 2001POPC   NC328331  22.562  14.946   9.386
 2001POPC   PO428332  23.004  15.418   9.476
 2001POPC   GL128333  22.930  15.192   9.086
 2001POPC   GL228334  22.655  14.968   8.904
 2001POPC   C1A28335  22.932  15.373   8.680
 2001POPC   D2A28336  22.742  15.471   8.293
 2001POPC   C3A28337  22.884  15.376   7.898
 2001POPC   C4A28338  23.055  15.473   7.537
 2001POPC   C1B28339  23.008  14.864   8.701
 2001POPC   C2B28340  23.009  15.004   8.295
 2001POPC   C3B28341  22.598  15.006   8.046
 2001POPC   C4B28342  22.658  15.008   7.590
 2002POPC   NC328343  29.566   3.872   9.436
 2002POPC   PO428344  29.731   3.251   9.647
 2002POPC   GL128345  29.742   3.410   9.203
 2002POPC   GL228346  29.975   3.147   9.119
 2002POPC   C1A28347  29.693   3.727   8.810
 2002POPC   D2A28348  29.428   3.900   8.448
 2002POPC   C3A28349  29.575   3.889   8.032
 2002POPC   C4A28350  29.681   3.561   7.763
 2002POPC   C1B28351  29.734   3.209   8.720
 2002POPC   C2B28352  29.724   3.491   8.352
 2002POPC   C3B28353  30.054   3.662   8.095
 2002POPC   C4B28354  30.161   3.293   7.870
 2003POPC   NC328355  36.317  14.759   9.564
 2003POPC   PO428356  35.982  14.208   9.428
 2003POPC   GL128357  36.017  14.490   9.078
 2003POPC   GL228358  36.337  14.702   9.075
 2003POPC   C1A28359  35.954  14.323   8.641
 2003POPC   D2A28360  35.900  14.170   8.205
 2003POPC   C3A28361  35.915  14.319   7.769
 2003POPC   C4A28362  36.105  14.172   7.392
 2003POPC   C1B28363  36.435  14.390   8.820
 2003POPC   C2B28364  36.426  14.317   8.416
 2003POPC   C3B28365  36.259  14.538   8.102
 2003POPC   C4B28366  36.392  14.484   7.704
 2004POPC   NC328367  36.532  15.530   9.412
 2004POPC   PO428368  37.214  15.431   9.441
 2004POPC   GL128369  37.073  15.200   9.086
 2004POPC   GL228370  36.766  15.008   9.218
 2004POPC   C1A28371  37.225  14.978   8.714
 2004POPC   D2A28372  37.241  14.955   8.248
 2004POPC   C3A28373  36.939  15.225   8.032
 2004POPC   C4A28374  36.758  15.244   7.644
 2004POPC   C1B28375  36.743  14.817   8.800
 2004POPC   C2B28376  36.553  14.845   8.387
 2004POPC   C3B28377  36.695  14.801   7.956
 2004POPC   C4B28378  37.105  14.831   7.740
 2005POPC   NC328379   6.976  30.438   9.325
 2005POPC   PO428380   6.412  30.863   9.481
 2005POPC   GL128381   6.472  30.760   9.085
 2005POPC   GL228382   6.790  30.886   9.085
 2005POPC   C1A28383   6.459  30.752   8.633
 2005POPC   D2A28384   6.320  31.109   8.431
 2005POPC   C3A28385   6.399  31.155   8.015
 2005POPC   C4A28386   6.325  30.841   7.703
 2005POPC   C1B28387   6.935  30.693   8.747
 2005POPC   C2B28388   6.871  30.568   8.332
 2005POPC   C3B28389   6.742  30.748   7.987
 2005POPC   C4B28390   6.764  30.608   7.580
 2006POPC   NC328391  32.509  11.433   9.463
 2006POPC   PO428392  31.876  11.498   9.252
 2006POPC   GL128393  32.186  11.303   9.093
 2006POPC   GL228394  32.312  11.637   9.035
 2006POPC   C1A28395  32.157  11.084   8.763
 2006POPC   D2A28396  32.117  11.335   8.433
 2006POPC   C3A28397  32.255  11.107   8.086
 2006POPC   C4A28398  32.222  11.152   7.659
 2006POPC   C1B28399  32.545  11.446   8.722
 2006POPC   C2B28400  32.593  11.434   8.324
 2006POPC   C3B28401  32.623  11.427   7.932
 2006POPC   C4B28402  32.857  11.477   7.617
 2007POPC   NC328403   8.687  18.030   9.627
 2007POPC   PO428404   9.088  18.519   9.536
 2007POPC   GL128405   9.013  18.615   9.182
 2007POPC   GL228406   9.125  18.272   9.076
 2007POPC   C1A28407   8.834  18.587   8.796
 2007POPC   D2A28408   9.009  18.371   8.467
 2007POPC   C3A28409   9.025  18.558   8.084
 2007POPC   C4A28410   8.819  18.603   7.683
 2007POPC   C1B28411   9.378  18.521   8.827
 2007POPC   C2B28412   9.527  18.325   8.463
 2007POPC   C3B28413   9.315  18.121   8.117
 2007POPC   C4B28414   9.268  18.280   7.741
 2008POPC   NC328415  20.775  32.385   9.517
 2008POPC   PO428416  20.286  31.835   9.507
 2008POPC   GL128417  20.544  32.053   9.174
 2008POPC   GL228418  20.900  32.084   9.127
 2008POPC   C1A28419  20.630  32.007   8.721
 2008POPC   D2A28420  20.616  32.186   8.313
 2008POPC   C3A28421  20.576  32.015   7.892
 2008POPC   C4A28422  20.695  32.380   7.725
 2008POPC   C1B28423  21.142  32.407   8.909
 2008POPC   C2B28424  21.046  32.631   8.559
 2008POPC   C3B28425  21.040  32.481   8.149
 2008POPC   C4B28426  21.061  32.741   7.820
 2009POPC   NC328427  20.552   5.015   9.635
 2009POPC   PO428428  20.019   5.386   9.580
 2009POPC   GL128429  20.301   5.104   9.219
 2009POPC   GL228430  20.678   5.054   9.095
 2009POPC   C1A28431  20.285   5.033   8.764
 2009POPC   D2A28432  20.521   5.203   8.421
 2009POPC   C3A28433  20.513   5.075   7.977
 2009POPC   C4A28434  20.899   4.901   7.773
 2009POPC   C1B28435  20.950   5.352   8.867
 2009POPC   C2B28436  20.956   5.474   8.443
 2009POPC   C3B28437  21.048   5.314   8.058
 2009POPC   C4B28438  20.841   5.431   7.699
 2010POPC   NC328439  32.542  12.879   9.870
 2010POPC   PO428440  32.181  12.589   9.398
 2010POPC   GL128441  32.182  12.692   9.023
 2010POPC   GL228442  32.534  12.621   8.974
 2010POPC   C1A28443  32.156  12.532   8.638
 2010POPC   D2A28444  32.485  12.526   8.341
 2010POPC   C3A28445  32.371  12.803   7.997
 2010POPC   C4A28446  32.172  13.240   7.910
 2010POPC   C1B28447  32.447  12.955   8.663
 2010POPC   C2B28448  32.479  13.214   8.326
 2010POPC   C3B28449  32.708  13.166   7.949
 2010POPC   C4B28450  32.519  13.111   7.550
 2011POPC   NC328451   4.868  40.989   9.379
 2011POPC   PO428452   5.151  40.552   9.869
 2011POPC   GL128453   5.184  40.559   9.332
 2011POPC   GL228454   5.511  40.672   9.227
 2011POPC   C1A28455   5.096  40.669   8.820
 2011POPC   D2A28456   5.094  40.925   8.387
 2011POPC   C3A28457   5.004  40.768   7.928
 2011POPC   C4A28458   4.995  40.622   7.476
 2011POPC   C1B28459   5.576  40.553   8.765
 2011POPC   C2B28460   5.367  40.480   8.341
 2011POPC   C3B28461   5.263  40.342   7.899
 2011POPC   C4B28462   5.515  40.234   7.516
 2012POPC   NC328463  20.908  30.795   9.629
 2012POPC   PO428464  20.484  30.294   9.625
 2012POPC   GL128465  20.698  30.507   9.226
 2012POPC   GL228466  20.784  30.837   9.160
 2012POPC   C1A28467  20.480  30.720   8.805
 2012POPC   D2A28468  20.524  30.969   8.406
 2012POPC   C3A28469  20.399  30.754   8.025
 2012POPC   C4A28470  20.317  30.514   7.628
 2012POPC   C1B28471  20.880  31.048   8.780
 2012POPC   C2B28472  21.037  30.907   8.376
 2012POPC   C3B28473  20.838  31.071   8.005
 2012POPC   C4B28474  20.591  30.990   7.625
 2013POPC   NC328475  22.771   8.178   9.481
 2013POPC   PO428476  23.131   8.653   9.170
 2013POPC   GL128477  22.836   8.328   8.995
 2013POPC   GL228478  22.506   8.440   9.086
 2013POPC   C1A28479  22.713   7.969   8.698
 2013POPC   D2A28480  22.942   7.778   8.341
 2013POPC   C3A28481  23.010   8.012   7.950
 2013POPC   C4A28482  23.241   8.219   7.601
 2013POPC   C1B28483  22.504   8.448   8.630
 2013POPC   C2B28484  22.727   8.303   8.265
 2013POPC   C3B28485  22.911   8.509   7.884
 2013POPC   C4B28486  22.817   8.497   7.442
 2014POPC   NC328487   5.067  28.607   9.404
 2014POPC   PO428488   5.438  27.985   9.485
 2014POPC   GL128489   5.261  28.225   9.103
 2014POPC   GL228490   5.343  28.621   8.994
 2014POPC   C1A28491   5.144  28.248   8.676
 2014POPC   D2A28492   5.208  28.506   8.310
 2014POPC   C3A28493   5.240  28.219   7.978
 2014POPC   C4A28494   5.068  28.138   7.586
 2014POPC   C1B28495   4.948  28.717   8.743
 2014POPC   C2B28496   4.715  28.723   8.333
 2014POPC   C3B28497   4.836  28.605   7.922
 2014POPC   C4B28498   5.213  28.624   7.691
 2015POPC   NC328499  37.207  34.670   9.524
 2015POPC   PO428500  36.596  34.459   9.563
 2015POPC   GL128501  36.853  34.422   9.203
 2015POPC   GL228502  36.908  34.758   9.100
 2015POPC   C1A28503  37.007  34.330   8.778
 2015POPC   D2A28504  36.850  34.482   8.400
 2015POPC   C3A28505  37.016  34.493   7.989
 2015POPC   C4A28506  36.790  34.550   7.623
 2015POPC   C1B28507  36.824  34.920   8.686
 2015POPC   C2B28508  37.054  34.947   8.297
 2015POPC   C3B28509  36.876  35.005   7.873
 2015POPC   C4B28510  37.027  34.989   7.452
 2016POPC   NC328511  43.718  25.116   9.394
 2016POPC   PO428512  44.315  25.342   9.705
 2016POPC   GL128513  44.077  25.430   9.204
 2016POPC   GL228514  43.944  25.118   8.941
 2016POPC   C1A28515  43.769  25.561   8.846
 2016POPC   D2A28516  43.510  25.295   8.560
 2016POPC   C3A28517  43.711  25.234   8.161
 2016POPC   C4A28518  43.949  25.326   7.789
 2016POPC   C1B28519  43.654  24.808   8.777
 2016POPC   C2B28520  43.612  24.736   8.337
 2016POPC   C3B28521  43.872  24.785   7.953
 2016POPC   C4B28522  43.558  24.952   7.699
 2017POPC   NC328523  23.240  21.945   9.401
 2017POPC   PO428524  22.566  22.103   9.555
 2017POPC   GL128525  22.766  22.131   9.165
 2017POPC   GL228526  23.043  22.364   9.191
 2017POPC   C1A28527  22.914  22.134   8.726
 2017POPC   D2A28528  23.127  22.045   8.334
 2017POPC   C3A28529  22.837  22.098   8.008
 2017POPC   C4A28530  22.670  21.939   7.625
 2017POPC   C1B28531  23.217  22.545   8.830
 2017POPC   C2B28532  23.044  22.547   8.425
 2017POPC   C3B28533  23.220  22.459   8.022
 2017POPC   C4B28534  23.152  22.212   7.628
 2018POPC   NC328535  38.774  25.478   9.389
 2018POPC   PO428536  39.384  25.048   9.588
 2018POPC   GL128537  39.242  25.232   9.237
 2018POPC   GL228538  39.244  24.949   9.034
 2018POPC   C1A28539  39.299  25.468   8.854
 2018POPC   D2A28540  39.511  25.490   8.438
 2018POPC   C3A28541  39.223  25.528   8.084
 2018POPC   C4A28542  39.245  25.467   7.634
 2018POPC   C1B28543  39.350  24.800   8.623
 2018POPC   C2B28544  39.204  25.013   8.267
 2018POPC   C3B28545  39.370  25.069   7.884
 2018POPC   C4B28546  39.237  24.946   7.427
 2019POPC   NC328547   0.157  42.334   9.152
 2019POPC   PO428548   0.808  42.150   9.510
 2019POPC   GL128549   0.682  42.294   9.119
 2019POPC   GL228550   0.740  42.632   9.074
 2019POPC   C1A28551   0.706  42.134   8.697
 2019POPC   D2A28552   0.784  41.861   8.343
 2019POPC   C3A28553   0.712  42.055   7.947
 2019POPC   C4A28554   0.264  42.075   7.817
 2019POPC   C1B28555   0.512  42.619   8.686
 2019POPC   C2B28556   0.487  42.410   8.275
 2019POPC   C3B28557   0.320  42.575   7.863
 2019POPC   C4B28558   0.215  42.905   7.601
 2020POPC   NC328559   4.255   6.534   9.906
 2020POPC   PO428560   4.049   7.106   9.519
 2020POPC   GL128561   4.157   6.753   9.258
 2020POPC   GL228562   3.943   6.794   9.022
 2020POPC   C1A28563   4.437   6.686   8.875
 2020POPC   D2A28564   4.292   6.751   8.433
 2020POPC   C3A28565   4.424   6.589   8.027
 2020POPC   C4A28566   4.581   6.840   7.709
 2020POPC   C1B28567   4.027   6.422   8.753
 2020POPC   C2B28568   3.928   6.407   8.292
 2020POPC   C3B28569   3.985   6.416   7.834
 2020POPC   C4B28570   4.306   6.472   7.489
 2021POPC   NC328571   2.417  29.930   9.388
 2021POPC   PO428572   1.747  29.734   9.402
 2021POPC   GL128573   1.991  29.796   9.048
 2021POPC   GL228574   2.044  30.158   9.114
 2021POPC   C1A28575   1.920  29.801   8.590
 2021POPC   D2A28576   1.814  30.175   8.307
 2021POPC   C3A28577   1.580  30.031   7.959
 2021POPC   C4A28578   1.696  29.615   7.861
 2021POPC   C1B28579   2.317  30.104   8.741
 2021POPC   C2B28580   2.344  29.983   8.304
 2021POPC   C3B28581   2.146  30.036   7.888
 2021POPC   C4B28582   2.215  30.309   7.502
 2022POPC   NC328583  39.490   5.577   9.380
 2022POPC   PO428584  39.184   4.996   9.566
 2022POPC   GL128585  39.174   5.185   9.163
 2022POPC   GL228586  39.506   5.083   9.150
 2022POPC   C1A28587  39.312   5.268   8.712
 2022POPC   D2A28588  39.214   5.096   8.300
 2022POPC   C3A28589  39.134   5.316   7.911
 2022POPC   C4A28590  38.746   5.430   7.761
 2022POPC   C1B28591  39.634   4.846   8.787
 2022POPC   C2B28592  39.717   5.018   8.380
 2022POPC   C3B28593  39.598   5.112   7.955
 2022POPC   C4B28594  39.350   5.061   7.533
 2023POPC   NC328595   5.194  19.257   9.517
 2023POPC   PO428596   5.125  18.656   9.249
 2023POPC   GL128597   5.340  18.995   9.084
 2023POPC   GL228598   5.098  19.221   9.037
 2023POPC   C1A28599   5.365  19.087   8.646
 2023POPC   D2A28600   5.043  19.053   8.359
 2023POPC   C3A28601   5.127  18.826   7.997
 2023POPC   C4A28602   5.026  18.855   7.573
 2023POPC   C1B28603   4.970  19.468   8.723
 2023POPC   C2B28604   4.671  19.407   8.383
 2023POPC   C3B28605   4.664  19.387   7.937
 2023POPC   C4B28606   4.797  19.330   7.531
 2024POPC   NC328607  24.676  41.376   9.757
 2024POPC   PO428608  25.225  41.128   9.334
 2024POPC   GL128609  25.176  41.311   8.967
 2024POPC   GL228610  25.015  41.632   9.050
 2024POPC   C1A28611  25.090  41.450   8.586
 2024POPC   D2A28612  25.262  41.515   8.206
 2024POPC   C3A28613  25.033  41.454   7.849
 2024POPC   C4A28614  25.159  41.545   7.425
 2024POPC   C1B28615  25.258  41.907   8.731
 2024POPC   C2B28616  25.348  42.016   8.285
 2024POPC   C3B28617  25.336  41.880   7.830
 2024POPC   C4B28618  25.634  41.757   7.491
 2025POPC   NC328619  25.606  25.471   9.390
 2025POPC   PO428620  25.021  25.173   9.525
 2025POPC   GL128621  25.196  25.270   9.146
 2025POPC   GL228622  25.322  24.967   9.023
 2025POPC   C1A28623  25.118  25.384   8.737
 2025POPC   D2A28624  25.043  25.548   8.338
 2025POPC   C3A28625  24.975  25.196   8.042
 2025POPC   C4A28626  24.921  25.265   7.607
 2025POPC   C1B28627  25.586  25.170   8.717
 2025POPC   C2B28628  25.462  25.233   8.318
 2025POPC   C3B28629  25.405  25.467   7.979
 2025POPC   C4B28630  25.408  25.173   7.657
 2026POPC   NC328631  43.169  31.890   9.586
 2026POPC   PO428632  43.160  32.568   9.589
 2026POPC   GL128633  43.128  32.435   9.164
 2026POPC   GL228634  43.320  32.119   9.163
 2026POPC   C1A28635  43.078  32.254   8.741
 2026POPC   D2A28636  43.372  32.192   8.429
 2026POPC   C3A28637  43.192  32.263   8.088
 2026POPC   C4A28638  43.197  32.508   7.746
 2026POPC   C1B28639  43.382  31.858   8.805
 2026POPC   C2B28640  43.179  31.723   8.408
 2026POPC   C3B28641  43.368  31.702   7.980
 2026POPC   C4B28642  43.409  32.018   7.705
 2027POPC   NC328643  21.615  36.337   9.487
 2027POPC   PO428644  20.956  36.229   9.535
 2027POPC   GL128645  21.164  36.082   9.172
 2027POPC   GL228646  21.479  35.928   9.207
 2027POPC   C1A28647  21.124  36.214   8.748
 2027POPC   D2A28648  21.029  35.988   8.384
 2027POPC   C3A28649  21.048  36.158   7.964
 2027POPC   C4A28650  21.264  35.973   7.629
 2027POPC   C1B28651  21.641  36.144   8.834
 2027POPC   C2B28652  21.700  36.230   8.417
 2027POPC   C3B28653  21.560  36.055   8.047
 2027POPC   C4B28654  21.718  35.727   7.820
 2028POPC   NC328655  22.512  22.421   9.894
 2028POPC   PO428656  21.967  22.280   9.504
 2028POPC   GL128657  22.204  22.080   9.182
 2028POPC   GL228658  22.114  21.736   9.213
 2028POPC   C1A28659  22.407  22.253   8.803
 2028POPC   D2A28660  22.533  22.276   8.388
 2028POPC   C3A28661  22.337  22.011   8.076
 2028POPC   C4A28662  22.284  22.320   7.778
 2028POPC   C1B28663  22.222  21.777   8.768
 2028POPC   C2B28664  21.986  22.046   8.475
 2028POPC   C3B28665  21.888  22.249   8.070
 2028POPC   C4B28666  21.897  21.957   7.723
 2029POPC   NC328667  35.030   2.182   9.378
 2029POPC   PO428668  35.591   1.813   9.472
 2029POPC   GL128669  35.312   1.777   9.171
 2029POPC   GL228670  34.992   1.567   9.234
 2029POPC   C1A28671  35.360   2.036   8.796
 2029POPC   D2A28672  35.121   2.004   8.436
 2029POPC   C3A28673  35.290   2.142   8.083
 2029POPC   C4A28674  35.510   2.073   7.750
 2029POPC   C1B28675  35.080   1.582   8.776
 2029POPC   C2B28676  34.979   1.526   8.358
 2029POPC   C3B28677  35.241   1.620   8.018
 2029POPC   C4B28678  35.153   1.744   7.610
 2030POPC   NC328679   1.209  16.448   9.625
 2030POPC   PO428680   1.759  16.933   9.616
 2030POPC   GL128681   1.359  16.867   9.282
 2030POPC   GL228682   1.227  16.543   9.134
 2030POPC   C1A28683   1.168  16.954   8.841
 2030POPC   D2A28684   1.033  17.025   8.370
 2030POPC   C3A28685   1.212  16.785   8.017
 2030POPC   C4A28686   1.066  16.943   7.616
 2030POPC   C1B28687   0.927  16.480   8.802
 2030POPC   C2B28688   0.979  16.477   8.366
 2030POPC   C3B28689   0.831  16.452   7.940
 2030POPC   C4B28690   1.151  16.427   7.623
 2031POPC   NC328691  42.658  26.285   9.423
 2031POPC   PO428692  42.025  25.999   9.567
 2031POPC   GL128693  41.968  26.100   9.138
 2031POPC   GL228694  42.319  26.014   9.108
 2031POPC   C1A28695  42.111  26.224   8.691
 2031POPC   D2A28696  42.298  26.429   8.335
 2031POPC   C3A28697  42.064  26.316   7.998
 2031POPC   C4A28698  42.039  26.073   7.640
 2031POPC   C1B28699  42.511  25.833   8.755
 2031POPC   C2B28700  42.498  25.956   8.383
 2031POPC   C3B28701  42.417  25.944   8.001
 2031POPC   C4B28702  42.634  25.994   7.624
 2032POPC   NC328703  12.548  40.319   9.622
 2032POPC   PO428704  13.157  40.092   9.774
 2032POPC   GL128705  12.821  40.048   9.331
 2032POPC   GL228706  12.854  40.409   9.207
 2032POPC   C1A28707  12.747  39.982   8.846
 2032POPC   D2A28708  13.051  40.101   8.527
 2032POPC   C3A28709  13.022  40.095   8.087
 2032POPC   C4A28710  13.125  39.823   7.776
 2032POPC   C1B28711  12.533  40.423   8.876
 2032POPC   C2B28712  12.586  40.463   8.413
 2032POPC   C3B28713  12.629  40.385   7.940
 2032POPC   C4B28714  12.912  40.278   7.605
 2033POPC   NC328715  22.232  32.933   9.824
 2033POPC   PO428716  21.625  33.032   9.560
 2033POPC   GL128717  21.900  33.070   9.180
 2033POPC   GL228718  22.256  32.983   9.292
 2033POPC   C1A28719  21.930  33.256   8.726
 2033POPC   D2A28720  21.787  33.254   8.260
 2033POPC   C3A28721  22.110  33.204   7.908
 2033POPC   C4A28722  22.054  33.208   7.418
 2033POPC   C1B28723  22.293  32.918   8.830
 2033POPC   C2B28724  22.156  32.913   8.394
 2033POPC   C3B28725  22.238  32.717   8.008
 2033POPC   C4B28726  22.402  32.898   7.639
 2034POPC   NC328727  22.748  42.874   9.536
 2034POPC   PO428728  22.798  43.499   9.371
 2034POPC   GL128729  22.730  43.153   9.065
 2034POPC   GL228730  22.982  42.891   8.996
 2034POPC   C1A28731  22.672  43.039   8.612
 2034POPC   D2A28732  22.911  42.990   8.225
 2034POPC   C3A28733  22.775  42.846   7.819
 2034POPC   C4A28734  22.887  43.001   7.419
 2034POPC   C1B28735  23.219  43.099   8.627
 2034POPC   C2B28736  23.239  43.398   8.251
 2034POPC   C3B28737  23.171  43.242   7.819
 2034POPC   C4B28738  23.375  43.141   7.419
 2035POPC   NC328739  44.420   4.771   9.722
 2035POPC   PO428740  44.755   5.336   9.627
 2035POPC   GL128741  44.652   5.087   9.306
 2035POPC   GL228742  44.337   5.138   9.265
 2035POPC   C1A28743  44.772   5.198   8.870
 2035POPC   D2A28744  44.602   5.306   8.450
 2035POPC   C3A28745  44.752   5.047   8.096
 2035POPC   C4A28746  44.925   5.081   7.679
 2035POPC   C1B28747  44.278   4.943   8.858
 2035POPC   C2B28748  44.145   5.072   8.467
 2035POPC   C3B28749  44.256   5.191   8.067
 2035POPC   C4B28750  44.413   4.981   7.691
 2036POPC   NC328751   0.636  32.884   9.589
 2036POPC   PO428752   0.142  33.286   9.716
 2036POPC   GL128753   0.284  33.123   9.273
 2036POPC   GL228754   0.633  33.053   9.119
 2036POPC   C1A28755   0.221  33.024   8.825
 2036POPC   D2A28756   0.369  33.032   8.412
 2036POPC   C3A28757   0.056  32.904   8.120
 2036POPC   C4A28758   0.277  32.910   7.767
 2036POPC   C1B28759   0.660  33.330   8.775
 2036POPC   C2B28760   0.782  33.385   8.337
 2036POPC   C3B28761   0.571  33.283   7.956
 2036POPC   C4B28762   0.577  33.190   7.489
 2037POPC   NC328763  30.909  10.927   9.570
 2037POPC   PO428764  30.772  10.265   9.739
 2037POPC   GL128765  30.768  10.419   9.286
 2037POPC   GL228766  30.900  10.727   9.116
 2037POPC   C1A28767  30.530  10.453   8.877
 2037POPC   D2A28768  30.320  10.557   8.474
 2037POPC   C3A28769  30.617  10.598   8.126
 2037POPC   C4A28770  30.696  10.790   7.736
 2037POPC   C1B28771  31.031  10.470   8.783
 2037POPC   C2B28772  31.112  10.456   8.374
 2037POPC   C3B28773  30.960  10.216   8.054
 2037POPC   C4B28774  31.037  10.361   7.661
 2038POPC   NC328775  19.260  14.090   9.267
 2038POPC   PO428776  18.842  14.539   9.481
 2038POPC   GL128777  19.022  14.485   9.062
 2038POPC   GL228778  19.376  14.460   8.936
 2038POPC   C1A28779  18.965  14.297   8.647
 2038POPC   D2A28780  19.237  14.436   8.310
 2038POPC   C3A28781  19.073  14.507   7.918
 2038POPC   C4A28782  18.942  14.341   7.540
 2038POPC   C1B28783  19.414  14.073   8.642
 2038POPC   C2B28784  19.514  13.992   8.218
 2038POPC   C3B28785  19.394  14.099   7.783
 2038POPC   C4B28786  19.331  14.078   7.341
 2039POPC   NC328787   8.538  12.648   9.489
 2039POPC   PO428788   8.005  13.111   9.539
 2039POPC   GL128789   8.251  12.981   9.205
 2039POPC   GL228790   8.567  13.132   9.275
 2039POPC   C1A28791   8.236  12.677   8.860
 2039POPC   D2A28792   7.926  12.665   8.526
 2039POPC   C3A28793   7.981  12.642   8.126
 2039POPC   C4A28794   8.125  12.978   7.878
 2039POPC   C1B28795   8.614  13.077   8.831
 2039POPC   C2B28796   8.403  12.927   8.439
 2039POPC   C3B28797   8.482  12.634   8.102
 2039POPC   C4B28798   8.517  12.718   7.667
 2040POPC   NC328799  23.866   5.195   9.520
 2040POPC   PO428800  23.456   4.744   9.448
 2040POPC   GL128801  23.761   4.880   9.137
 2040POPC   GL228802  24.045   4.667   9.075
 2040POPC   C1A28803  23.691   5.068   8.728
 2040POPC   D2A28804  23.708   4.878   8.325
 2040POPC   C3A28805  23.635   5.162   7.982
 2040POPC   C4A28806  23.476   5.199   7.567
 2040POPC   C1B28807  24.126   4.684   8.639
 2040POPC   C2B28808  24.070   4.545   8.219
 2040POPC   C3B28809  23.875   4.706   7.834
 2040POPC   C4B28810  24.069   4.644   7.412
 2041POPC   NC328811  43.416   1.947   9.558
 2041POPC   PO428812  44.047   1.806   9.408
 2041POPC   GL128813  43.912   2.187   9.172
 2041POPC   GL228814  44.196   2.274   8.927
 2041POPC   C1A28815  43.696   2.189   8.795
 2041POPC   D2A28816  43.893   1.970   8.471
 2041POPC   C3A28817  43.731   2.149   8.113
 2041POPC   C4A28818  43.951   2.243   7.754
 2041POPC   C1B28819  44.278   1.799   8.796
 2041POPC   C2B28820  44.442   1.654   8.379
 2041POPC   C3B28821  44.197   1.849   8.030
 2041POPC   C4B28822  44.140   1.776   7.584
 2042POPC   NC328823  42.448   5.840   9.714
 2042POPC   PO428824  41.796   5.614   9.486
 2042POPC   GL128825  42.129   5.736   9.185
 2042POPC   GL228826  42.503   5.717   9.205
 2042POPC   C1A28827  42.288   5.955   8.801
 2042POPC   D2A28828  42.512   5.934   8.405
 2042POPC   C3A28829  42.239   5.798   8.072
 2042POPC   C4A28830  42.033   6.075   7.806
 2042POPC   C1B28831  42.767   5.737   8.828
 2042POPC   C2B28832  42.856   5.525   8.448
 2042POPC   C3B28833  42.685   5.567   8.024
 2042POPC   C4B28834  42.588   5.903   7.725
 2043POPC   NC328835  26.901  31.966   9.489
 2043POPC   PO428836  26.411  32.387   9.753
 2043POPC   GL128837  26.728  32.435   9.299
 2043POPC   GL228838  27.091  32.356   9.125
 2043POPC   C1A28839  26.729  32.366   8.792
 2043POPC   D2A28840  26.963  32.342   8.403
 2043POPC   C3A28841  26.768  32.196   8.031
 2043POPC   C4A28842  26.751  32.514   7.757
 2043POPC   C1B28843  27.132  32.006   8.788
 2043POPC   C2B28844  27.252  31.941   8.338
 2043POPC   C3B28845  27.297  32.174   7.945
 2043POPC   C4B28846  27.441  32.132   7.505
 2044POPC   NC328847  43.520  20.921   9.164
 2044POPC   PO428848  43.755  20.462   9.620
 2044POPC   GL128849  43.725  20.361   9.188
 2044POPC   GL228850  43.887  20.615   9.013
 2044POPC   C1A28851  43.612  20.290   8.754
 2044POPC   D2A28852  43.601  20.559   8.408
 2044POPC   C3A28853  43.662  20.447   7.990
 2044POPC   C4A28854  43.663  20.851   7.781
 2044POPC   C1B28855  44.039  20.781   8.611
 2044POPC   C2B28856  44.042  20.796   8.143
 2044POPC   C3B28857  44.154  20.887   7.697
 2044POPC   C4B28858  44.338  20.694   7.315
 2045POPC   NC328859  11.547  25.572   9.412
 2045POPC   PO428860  10.940  25.404   9.614
 2045POPC   GL128861  11.093  25.482   9.186
 2045POPC   GL228862  11.316  25.166   9.155
 2045POPC   C1A28863  11.309  25.508   8.751
 2045POPC   D2A28864  11.459  25.679   8.334
 2045POPC   C3A28865  11.575  25.480   7.932
 2045POPC   C4A28866  11.206  25.308   7.756
 2045POPC   C1B28867  11.483  25.018   8.747
 2045POPC   C2B28868  11.481  25.154   8.329
 2045POPC   C3B28869  11.458  24.917   7.959
 2045POPC   C4B28870  11.520  24.925   7.500
 2046POPC   NC328871   9.967  14.036   9.433
 2046POPC   PO428872   9.517  13.481   9.502
 2046POPC   GL128873   9.621  13.490   9.106
 2046POPC   GL228874   9.967  13.547   9.163
 2046POPC   C1A28875   9.471  13.641   8.709
 2046POPC   D2A28876   9.332  13.835   8.342
 2046POPC   C3A28877   9.609  13.803   8.015
 2046POPC   C4A28878   9.564  13.602   7.623
 2046POPC   C1B28879   9.968  13.794   8.783
 2046POPC   C2B28880  10.111  13.726   8.367
 2046POPC   C3B28881  10.160  14.015   8.034
 2046POPC   C4B28882   9.938  13.975   7.632
 2047POPC   NC328883  23.522  16.976   9.437
 2047POPC   PO428884  23.319  16.342   9.454
 2047POPC   GL128885  23.538  16.583   9.081
 2047POPC   GL228886  23.571  16.937   8.945
 2047POPC   C1A28887  23.845  16.573   8.707
 2047POPC   D2A28888  23.862  16.878   8.343
 2047POPC   C3A28889  23.721  16.709   7.942
 2047POPC   C4A28890  23.910  16.386   7.720
 2047POPC   C1B28891  23.406  16.862   8.533
 2047POPC   C2B28892  23.410  17.078   8.114
 2047POPC   C3B28893  23.443  17.032   7.660
 2047POPC   C4B28894  23.474  16.984   7.202
 2048POPC   NC328895  26.069  28.187   9.493
 2048POPC   PO428896  25.370  28.314   9.522
 2048POPC   GL128897  25.686  28.384   9.178
 2048POPC   GL228898  25.924  28.169   9.009
 2048POPC   C1A28899  25.665  28.542   8.744
 2048POPC   D2A28900  25.760  28.707   8.328
 2048POPC   C3A28901  26.049  28.507   8.014
 2048POPC   C4A28902  25.991  28.265   7.632
 2048POPC   C1B28903  26.164  28.425   8.717
 2048POPC   C2B28904  26.341  28.264   8.357
 2048POPC   C3B28905  26.436  28.139   7.933
 2048POPC   C4B28906  26.464  28.448   7.648
 2049POPC   NC328907  27.013  33.628   9.418
 2049POPC   PO428908  26.487  34.040   9.443
 2049POPC   GL128909  26.599  33.795   9.094
 2049POPC   GL228910  26.564  33.431   9.180
 2049POPC   C1A28911  26.872  34.004   8.774
 2049POPC   D2A28912  26.831  34.208   8.384
 2049POPC   C3A28913  27.011  34.051   8.023
 2049POPC   C4A28914  26.884  33.847   7.648
 2049POPC   C1B28915  26.394  33.449   8.770
 2049POPC   C2B28916  26.596  33.576   8.395
 2049POPC   C3B28917  26.498  33.677   7.977
 2049POPC   C4B28918  26.254  33.411   7.757
 2050POPC   NC328919   1.752  20.369   9.426
 2050POPC   PO428920   1.205  20.808   9.222
 2050POPC   GL128921   1.724  20.796   9.136
 2050POPC   GL228922   2.106  20.637   9.169
 2050POPC   C1A28923   1.955  20.928   8.767
 2050POPC   D2A28924   1.824  20.741   8.380
 2050POPC   C3A28925   1.986  20.845   7.975
 2050POPC   C4A28926   1.773  20.925   7.611
 2050POPC   C1B28927   2.134  20.438   8.753
 2050POPC   C2B28928   1.965  20.258   8.391
 2050POPC   C3B28929   1.856  20.335   8.003
 2050POPC   C4B28930   2.175  20.295   7.718
 2051POPC   NC328931  30.637  21.632   9.526
 2051POPC   PO428932  30.758  22.256   9.438
 2051POPC   GL128933  30.517  22.015   9.170
 2051POPC   GL228934  30.742  21.777   9.030
 2051POPC   C1A28935  30.381  22.041   8.760
 2051POPC   D2A28936  30.586  21.864   8.419
 2051POPC   C3A28937  30.546  22.126   8.080
 2051POPC   C4A28938  30.805  22.147   7.752
 2051POPC   C1B28939  30.895  22.111   8.797
 2051POPC   C2B28940  30.756  22.375   8.489
 2051POPC   C3B28941  30.992  22.463   8.122
 2051POPC   C4B28942  30.966  22.661   7.744
 2052POPC   NC328943  44.022  31.578   9.495
 2052POPC   PO428944  43.344  31.191   9.425
 2052POPC   GL128945  43.648  31.454   9.187
 2052POPC   GL228946  43.903  31.245   9.125
 2052POPC   C1A28947  43.825  31.616   8.782
 2052POPC   D2A28948  43.707  31.751   8.350
 2052POPC   C3A28949  43.929  31.603   7.926
 2052POPC   C4A28950  44.129  31.627   7.455
 2052POPC   C1B28951  44.133  31.189   8.760
 2052POPC   C2B28952  43.934  31.262   8.403
 2052POPC   C3B28953  43.851  31.101   8.034
 2052POPC   C4B28954  43.714  31.089   7.612
 2053POPC   NC328955  19.297   9.001   9.431
 2053POPC   PO428956  18.682   8.627   9.438
 2053POPC   GL128957  18.773   8.938   9.068
 2053POPC   GL228958  19.127   9.033   8.959
 2053POPC   C1A28959  18.779   8.988   8.609
 2053POPC   D2A28960  19.045   8.880   8.295
 2053POPC   C3A28961  18.775   8.989   8.020
 2053POPC   C4A28962  18.749   9.131   7.611
 2053POPC   C1B28963  19.339   8.701   8.675
 2053POPC   C2B28964  19.354   8.476   8.253
 2053POPC   C3B28965  19.434   8.795   7.920
 2053POPC   C4B28966  19.206   9.212   7.850
 2054POPC   NC328967  28.463   6.870   9.496
 2054POPC   PO428968  28.144   6.314   9.336
 2054POPC   GL128969  28.380   6.554   9.098
 2054POPC   GL228970  28.712   6.488   9.200
 2054POPC   C1A28971  28.391   6.680   8.709
 2054POPC   D2A28972  28.271   6.811   8.359
 2054POPC   C3A28973  28.531   6.686   8.067
 2054POPC   C4A28974  28.404   6.664   7.658
 2054POPC   C1B28975  28.733   6.326   8.793
 2054POPC   C2B28976  28.660   6.100   8.423
 2054POPC   C3B28977  28.921   6.084   8.097
 2054POPC   C4B28978  28.813   6.369   7.787
 2055POPC   NC328979   9.752  20.798   9.875
 2055POPC   PO428980   9.792  20.286   9.450
 2055POPC   GL128981   9.569  20.358   9.073
 2055POPC   GL228982   9.782  20.629   9.001
 2055POPC   C1A28983   9.530  20.297   8.630
 2055POPC   D2A28984   9.624  20.629   8.404
 2055POPC   C3A28985   9.729  20.594   7.984
 2055POPC   C4A28986   9.505  20.325   7.752
 2055POPC   C1B28987  10.107  20.761   8.719
 2055POPC   C2B28988  10.085  20.824   8.284
 2055POPC   C3B28989  10.064  20.972   7.860
 2055POPC   C4B28990  10.128  20.700   7.492
 2056POPC   NC328991  42.034   4.536   9.636
 2056POPC   PO428992  42.173   3.894   9.518
 2056POPC   GL128993  42.297   4.233   9.222
 2056POPC   GL228994  42.075   4.529   9.149
 2056POPC   C1A28995  42.188   4.211   8.771
 2056POPC   D2A28996  42.202   4.022   8.356
 2056POPC   C3A28997  42.347   4.308   8.052
 2056POPC   C4A28998  42.491   4.297   7.642
 2056POPC   C1B28999  41.973   4.717   8.787
 2056POPC   C2B29000  42.188   4.609   8.438
 2056POPC   C3B29001  42.063   4.749   8.069
 2056POPC   C4B29002  42.016   4.546   7.711
 2057POPC   NC329003  42.839  24.587   9.473
 2057POPC   PO429004  43.469  24.713   9.450
 2057POPC   GL129005  43.235  24.464   9.133
 2057POPC   GL229006  42.926  24.255   9.078
 2057POPC   C1A29007  43.312  24.387   8.708
 2057POPC   D2A29008  43.424  24.267   8.306
 2057POPC   C3A29009  43.186  24.452   8.022
 2057POPC   C4A29010  43.066  24.731   7.732
 2057POPC   C1B29011  42.800  24.482   8.755
 2057POPC   C2B29012  42.623  24.576   8.402
 2057POPC   C3B29013  42.633  24.785   8.050
 2057POPC   C4B29014  42.579  24.647   7.657
 2058POPC   NC329015  29.840   5.023   9.617
 2058POPC   PO429016  30.143   5.606   9.383
 2058POPC   GL129017  30.105   5.176   9.147
 2058POPC   GL229018  29.814   4.910   9.133
 2058POPC   C1A29019  30.150   4.884   8.769
 2058POPC   D2A29020  30.039   4.716   8.364
 2058POPC   C3A29021  29.994   5.027   8.050
 2058POPC   C4A29022  30.331   5.086   7.741
 2058POPC   C1B29023  29.634   5.147   8.809
 2058POPC   C2B29024  29.679   5.300   8.401
 2058POPC   C3B29025  29.642   5.422   7.993
 2058POPC   C4B29026  29.761   5.194   7.602
 2059POPC   NC329027   5.653  21.259   9.438
 2059POPC   PO429028   6.177  20.932   9.667
 2059POPC   GL129029   6.009  20.974   9.181
 2059POPC   GL229030   5.925  21.291   9.015
 2059POPC   C1A29031   5.669  20.954   8.789
 2059POPC   D2A29032   5.662  21.339   8.524
 2059POPC   C3A29033   5.685  21.454   8.064
 2059POPC   C4A29034   5.467  21.342   7.697
 2059POPC   C1B29035   6.145  21.145   8.665
 2059POPC   C2B29036   6.094  21.185   8.246
 2059POPC   C3B29037   6.214  21.455   7.888
 2059POPC   C4B29038   6.098  21.724   7.513
 2060POPC   NC329039   2.452  37.137   9.346
 2060POPC   PO429040   1.913  36.674   9.458
 2060POPC   GL129041   2.027  36.966   9.134
 2060POPC   GL229042   2.213  36.720   8.929
 2060POPC   C1A29043   2.236  37.208   8.755
 2060POPC   D2A29044   2.143  37.408   8.373
 2060POPC   C3A29045   2.143  37.200   7.972
 2060POPC   C4A29046   1.854  37.125   7.612
 2060POPC   C1B29047   1.866  36.885   8.664
 2060POPC   C2B29048   1.580  36.838   8.349
 2060POPC   C3B29049   1.641  36.782   7.935
 2060POPC   C4B29050   2.051  36.717   7.844
 2061POPC   NC329051  36.304  42.879   9.619
 2061POPC   PO429052  35.968  43.412   9.472
 2061POPC   GL129053  36.123  43.105   9.204
 2061POPC   GL229054  35.841  42.881   9.261
 2061POPC   C1A29055  36.287  42.929   8.833
 2061POPC   D2A29056  36.440  43.111   8.473
 2061POPC   C3A29057  36.310  43.030   8.091
 2061POPC   C4A29058  36.113  43.209   7.724
 2061POPC   C1B29059  35.752  43.058   8.840
 2061POPC   C2B29060  35.904  42.953   8.417
 2061POPC   C3B29061  35.811  42.845   7.976
 2061POPC   C4B29062  35.815  42.801   7.515
 2062POPC   NC329063  22.106   4.034   9.582
 2062POPC   PO429064  22.616   4.522   9.442
 2062POPC   GL129065  22.319   4.362   9.196
 2062POPC   GL229066  22.404   4.030   9.187
 2062POPC   C1A29067  22.126   4.475   8.800
 2062POPC   D2A29068  22.057   4.329   8.378
 2062POPC   C3A29069  22.145   4.461   7.955
 2062POPC   C4A29070  22.506   4.567   7.757
 2062POPC   C1B29071  22.022   3.976   8.927
 2062POPC   C2B29072  21.985   3.845   8.503
 2062POPC   C3B29073  22.109   3.920   8.076
 2062POPC   C4B29074  21.987   4.017   7.672
 2063POPC   NC329075  15.345  26.759   9.519
 2063POPC   PO429076  15.062  27.340   9.762
 2063POPC   GL129077  15.094  27.108   9.288
 2063POPC   GL229078  15.421  27.109   9.138
 2063POPC   C1A29079  15.029  26.836   8.894
 2063POPC   D2A29080  14.822  26.816   8.454
 2063POPC   C3A29081  15.045  26.634   8.059
 2063POPC   C4A29082  15.198  26.763   7.645
 2063POPC   C1B29083  15.292  27.242   8.767
 2063POPC   C2B29084  15.297  26.940   8.442
 2063POPC   C3B29085  15.322  27.050   8.041
 2063POPC   C4B29086  15.292  27.277   7.706
 2064POPC   NC329087  44.200  22.523   9.562
 2064POPC   PO429088  43.662  22.062   9.457
 2064POPC   GL129089  44.016  22.144   9.216
 2064POPC   GL229090  44.265  21.919   9.230
 2064POPC   C1A29091  44.032  22.193   8.786
 2064POPC   D2A29092  43.926  22.534   8.504
 2064POPC   C3A29093  44.004  22.402   8.093
 2064POPC   C4A29094  44.053  22.426   7.674
 2064POPC   C1B29095  44.117  21.678   8.893
 2064POPC   C2B29096  44.057  21.745   8.480
 2064POPC   C3B29097  44.208  21.703   8.071
 2064POPC   C4B29098  44.052  21.918   7.739
 2065POPC   NC329099  11.772  33.673   9.365
 2065POPC   PO429100  12.332  33.963   9.438
 2065POPC   GL129101  12.132  33.844   9.060
 2065POPC   GL229102  11.778  34.009   8.992
 2065POPC   C1A29103  12.279  33.742   8.676
 2065POPC   D2A29104  12.436  33.489   8.352
 2065POPC   C3A29105  12.293  33.718   7.990
 2065POPC   C4A29106  12.349  34.131   7.855
 2065POPC   C1B29107  11.788  33.643   8.706
 2065POPC   C2B29108  11.921  33.561   8.314
 2065POPC   C3B29109  11.793  33.550   7.912
 2065POPC   C4B29110  11.907  33.875   7.660
 2066POPC   NC329111  19.306  17.950   9.315
 2066POPC   PO429112  19.825  17.838   9.514
 2066POPC   GL129113  20.008  17.682   9.148
 2066POPC   GL229114  20.302  17.875   9.100
 2066POPC   C1A29115  19.871  17.603   8.710
 2066POPC   D2A29116  19.880  17.771   8.277
 2066POPC   C3A29117  19.756  17.456   7.978
 2066POPC   C4A29118  19.993  17.097   8.033
 2066POPC   C1B29119  20.285  17.891   8.666
 2066POPC   C2B29120  20.389  17.853   8.258
 2066POPC   C3B29121  20.238  17.614   7.920
 2066POPC   C4B29122  20.198  17.718   7.485
 2067POPC   NC329123   5.930  29.568   9.390
 2067POPC   PO429124   5.778  30.188   9.610
 2067POPC   GL129125   5.671  29.970   9.231
 2067POPC   GL229126   5.445  30.166   9.134
 2067POPC   C1A29127   5.826  29.809   8.807
 2067POPC   D2A29128   5.726  29.815   8.378
 2067POPC   C3A29129   5.960  29.997   8.018
 2067POPC   C4A29130   6.157  29.970   7.604
 2067POPC   C1B29131   5.616  30.267   8.756
 2067POPC   C2B29132   5.464  30.349   8.384
 2067POPC   C3B29133   5.665  30.409   8.064
 2067POPC   C4B29134   5.551  30.173   7.730
 2068POPC   NC329135  20.270  33.821   9.520
 2068POPC   PO429136  20.938  33.600   9.422
 2068POPC   GL129137  20.810  33.521   9.016
 2068POPC   GL229138  20.595  33.813   9.069
 2068POPC   C1A29139  20.713  33.546   8.561
 2068POPC   D2A29140  20.383  33.678   8.259
 2068POPC   C3A29141  20.438  33.537   7.872
 2068POPC   C4A29142  20.831  33.599   7.640
 2068POPC   C1B29143  20.476  33.980   8.658
 2068POPC   C2B29144  20.617  34.150   8.252
 2068POPC   C3B29145  20.551  34.015   7.862
 2068POPC   C4B29146  20.622  34.126   7.475
 2069POPC   NC329147  40.609   0.357   9.545
 2069POPC   PO429148  41.250   0.484   9.370
 2069POPC   GL129149  40.875   0.652   9.168
 2069POPC   GL229150  40.717   0.342   9.055
 2069POPC   C1A29151  40.617   0.766   8.795
 2069POPC   D2A29152  40.714   0.657   8.372
 2069POPC   C3A29153  40.589   0.561   7.970
 2069POPC   C4A29154  40.862   0.597   7.636
 2069POPC   C1B29155  40.935   0.325   8.682
 2069POPC   C2B29156  40.853   0.104   8.297
 2069POPC   C3B29157  40.920   0.148   7.876
 2069POPC   C4B29158  41.073   0.174   7.455
 2070POPC   NC329159  40.688   9.827   9.533
 2070POPC   PO429160  40.971   9.178   9.456
 2070POPC   GL129161  40.980   9.555   9.153
 2070POPC   GL229162  40.955   9.952   9.148
 2070POPC   C1A29163  40.678   9.659   8.824
 2070POPC   D2A29164  40.719   9.814   8.393
 2070POPC   C3A29165  40.601   9.642   7.987
 2070POPC   C4A29166  40.576   9.881   7.596
 2070POPC   C1B29167  41.152   9.908   8.800
 2070POPC   C2B29168  41.332   9.867   8.436
 2070POPC   C3B29169  41.125   9.848   8.075
 2070POPC   C4B29170  41.039   9.629   7.717
 2071POPC   NC329171  16.152  21.255   9.606
 2071POPC   PO429172  15.566  21.575   9.406
 2071POPC   GL129173  15.735  21.361   9.088
 2071POPC   GL229174  16.086  21.472   9.141
 2071POPC   C1A29175  15.615  21.176   8.701
 2071POPC   D2A29176  15.480  21.337   8.331
 2071POPC   C3A29177  15.671  21.223   7.925
 2071POPC   C4A29178  15.925  21.572   7.843
 2071POPC   C1B29179  16.025  21.544   8.690
 2071POPC   C2B29180  15.990  21.313   8.313
 2071POPC   C3B29181  16.200  21.154   7.945
 2071POPC   C4B29182  16.364  21.097   7.541
 2072POPC   NC329183  31.491  42.876   9.395
 2072POPC   PO429184  31.741  43.531   9.451
 2072POPC   GL129185  31.469  43.363   9.134
 2072POPC   GL229186  31.674  43.127   9.003
 2072POPC   C1A29187  31.230  43.256   8.748
 2072POPC   D2A29188  30.915  43.142   8.428
 2072POPC   C3A29189  31.133  43.008   8.067
 2072POPC   C4A29190  31.292  43.168   7.706
 2072POPC   C1B29191  31.648  42.795   8.742
 2072POPC   C2B29192  31.577  42.906   8.360
 2072POPC   C3B29193  31.667  42.915   7.968
 2072POPC   C4B29194  31.732  42.584   7.743
 2073POPC   NC329195  37.515   2.846   9.685
 2073POPC   PO429196  36.920   2.826   9.471
 2073POPC   GL129197  36.983   2.856   9.076
 2073POPC   GL229198  36.949   3.184   9.025
 2073POPC   C1A29199  36.976   2.580   8.705
 2073POPC   D2A29200  37.108   2.767   8.301
 2073POPC   C3A29201  36.889   2.612   7.922
 2073POPC   C4A29202  36.661   2.547   7.517
 2073POPC   C1B29203  36.694   3.003   8.685
 2073POPC   C2B29204  36.585   2.723   8.340
 2073POPC   C3B29205  36.443   2.873   7.932
 2073POPC   C4B29206  36.642   3.061   7.613
 2074POPC   NC329207   0.747   1.499   9.387
 2074POPC   PO429208   0.148   1.106   9.536
 2074POPC   GL129209   0.286   1.286   9.186
 2074POPC   GL229210   0.552   1.078   9.103
 2074POPC   C1A29211   0.217   1.271   8.752
 2074POPC   D2A29212   0.366   1.433   8.353
 2074POPC   C3A29213   0.232   1.229   7.991
 2074POPC   C4A29214   0.343   1.335   7.556
 2074POPC   C1B29215   0.719   1.273   8.736
 2074POPC   C2B29216   0.861   1.245   8.323
 2074POPC   C3B29217   0.729   1.246   7.915
 2074POPC   C4B29218   0.825   1.464   7.566
 2075POPC   NC329219  31.139  26.217   9.763
 2075POPC   PO429220  31.658  25.916   9.561
 2075POPC   GL129221  31.436  25.991   9.185
 2075POPC   GL229222  31.249  26.286   9.272
 2075POPC   C1A29223  31.450  25.761   8.799
 2075POPC   D2A29224  31.313  25.844   8.408
 2075POPC   C3A29225  31.476  25.695   8.044
 2075POPC   C4A29226  31.313  25.828   7.648
 2075POPC   C1B29227  31.295  26.369   8.841
 2075POPC   C2B29228  31.501  26.354   8.439
 2075POPC   C3B29229  31.403  26.217   7.994
 2075POPC   C4B29230  31.051  26.257   7.654
 2076POPC   NC329231   5.562  18.576   9.318
 2076POPC   PO429232   6.226  18.466   9.458
 2076POPC   GL129233   5.968  18.360   9.122
 2076POPC   GL229234   6.151  18.518   8.920
 2076POPC   C1A29235   5.697  18.372   8.730
 2076POPC   D2A29236   5.726  18.206   8.320
 2076POPC   C3A29237   5.696  18.485   7.956
 2076POPC   C4A29238   5.687  18.353   7.534
 2076POPC   C1B29239   6.111  18.076   8.718
 2076POPC   C2B29240   6.218  17.998   8.292
 2076POPC   C3B29241   6.034  18.115   7.900
 2076POPC   C4B29242   6.169  18.421   7.629
 2077POPC   NC329243   8.781  33.966   9.648
 2077POPC   PO429244   9.187  33.475   9.723
 2077POPC   GL129245   9.113  33.625   9.249
 2077POPC   GL229246   8.979  33.987   9.182
 2077POPC   C1A29247   8.967  33.685   8.784
 2077POPC   D2A29248   9.071  33.631   8.338
 2077POPC   C3A29249   8.848  33.759   7.983
 2077POPC   C4A29250   8.486  33.623   7.719
 2077POPC   C1B29251   9.340  34.022   8.918
 2077POPC   C2B29252   9.260  34.075   8.489
 2077POPC   C3B29253   9.321  34.018   8.051
 2077POPC   C4B29254   9.196  33.903   7.623
 2078POPC   NC329255  26.318   2.609   9.910
 2078POPC   PO429256  25.954   2.976   9.600
 2078POPC   GL129257  26.008   3.007   9.160
 2078POPC   GL229258  25.802   3.222   8.996
 2078POPC   C1A29259  25.987   2.728   8.791
 2078POPC   D2A29260  26.176   2.577   8.406
 2078POPC   C3A29261  26.041   2.704   7.990
 2078POPC   C4A29262  26.329   2.983   7.780
 2078POPC   C1B29263  26.122   3.206   8.655
 2078POPC   C2B29264  26.066   3.177   8.185
 2078POPC   C3B29265  25.871   3.180   7.763
 2078POPC   C4B29266  25.690   3.192   7.342
 2079POPC   NC329267  23.196   1.085   9.484
 2079POPC   PO429268  22.545   1.409   9.514
 2079POPC   GL129269  22.775   1.238   9.199
 2079POPC   GL229270  23.026   1.482   9.088
 2079POPC   C1A29271  22.701   1.299   8.760
 2079POPC   D2A29272  22.914   1.120   8.400
 2079POPC   C3A29273  22.869   1.364   8.048
 2079POPC   C4A29274  22.771   1.259   7.645
 2079POPC   C1B29275  23.153   1.527   8.647
 2079POPC   C2B29276  23.358   1.318   8.285
 2079POPC   C3B29277  23.272   1.102   7.943
 2079POPC   C4B29278  23.276   1.412   7.703
 2080POPC   NC329279  21.423   3.916   9.490
 2080POPC   PO429280  21.180   3.355   9.534
 2080POPC   GL129281  21.460   3.450   9.214
 2080POPC   GL229282  21.190   3.635   9.092
 2080POPC   C1A29283  21.619   3.653   8.841
 2080POPC   D2A29284  21.661   3.465   8.433
 2080POPC   C3A29285  21.604   3.787   8.104
 2080POPC   C4A29286  21.641   3.657   7.690
 2080POPC   C1B29287  21.190   3.414   8.675
 2080POPC   C2B29288  21.201   3.467   8.184
 2080POPC   C3B29289  21.187   3.431   7.706
 2080POPC   C4B29290  21.076   3.291   7.261
 2081POPC   NC329291  35.011  17.720   9.573
 2081POPC   PO429292  35.589  17.415   9.639
 2081POPC   GL129293  35.394  17.372   9.271
 2081POPC   GL229294  35.518  17.060   9.204
 2081POPC   C1A29295  35.445  17.624   8.902
 2081POPC   D2A29296  35.276  17.616   8.507
 2081POPC   C3A29297  35.496  17.642   8.108
 2081POPC   C4A29298  35.212  17.620   7.739
 2081POPC   C1B29299  35.324  17.130   8.782
 2081POPC   C2B29300  35.391  17.146   8.316
 2081POPC   C3B29301  35.453  17.186   7.859
 2081POPC   C4B29302  35.738  17.172   7.459
 2082POPC   NC329303  31.726   6.457   9.525
 2082POPC   PO429304  31.147   6.651   9.509
 2082POPC   GL129305  31.337   6.459   9.145
 2082POPC   GL229306  31.587   6.689   9.098
 2082POPC   C1A29307  31.456   6.321   8.738
 2082POPC   D2A29308  31.611   6.436   8.324
 2082POPC   C3A29309  31.310   6.285   8.002
 2082POPC   C4A29310  31.435   6.466   7.647
 2082POPC   C1B29311  31.587   6.854   8.693
 2082POPC   C2B29312  31.727   6.967   8.296
 2082POPC   C3B29313  31.698   6.873   7.873
 2082POPC   C4B29314  31.447   6.968   7.569
 2083POPC   NC329315  33.472  44.205   9.403
 2083POPC   PO429316  34.120  43.943   9.664
 2083POPC   GL129317  33.891  43.943   9.266
 2083POPC   GL229318  33.825  44.225   9.044
 2083POPC   C1A29319  33.832  43.749   8.846
 2083POPC   D2A29320  33.912  43.956   8.468
 2083POPC   C3A29321  33.881  43.820   8.034
 2083POPC   C4A29322  34.091  44.040   7.698
 2083POPC   C1B29323  33.483  44.179   8.705
 2083POPC   C2B29324  33.445  44.051   8.245
 2083POPC   C3B29325  33.589  44.157   7.794
 2083POPC   C4B29326  33.496  44.010   7.384
 2084POPC   NC329327  22.084  37.125   9.437
 2084POPC   PO429328  22.663  36.729   9.342
 2084POPC   GL129329  22.331  36.791   9.055
 2084POPC   GL229330  22.349  37.165   9.007
 2084POPC   C1A29331  22.083  36.551   8.722
 2084POPC   D2A29332  21.816  36.734   8.365
 2084POPC   C3A29333  21.913  36.631   7.937
 2084POPC   C4A29334  22.357  36.645   7.885
 2084POPC   C1B29335  22.153  37.053   8.644
 2084POPC   C2B29336  22.240  36.997   8.218
 2084POPC   C3B29337  22.052  37.223   7.859
 2084POPC   C4B29338  21.993  37.239   7.408
 2085POPC   NC329339   1.473  31.630   9.444
 2085POPC   PO429340   0.850  31.225   9.528
 2085POPC   GL129341   1.044  31.441   9.184
 2085POPC   GL229342   1.004  31.797   9.065
 2085POPC   C1A29343   1.181  31.365   8.764
 2085POPC   D2A29344   1.040  31.594   8.379
 2085POPC   C3A29345   1.207  31.453   7.996
 2085POPC   C4A29346   0.917  31.525   7.681
 2085POPC   C1B29347   1.328  31.844   8.712
 2085POPC   C2B29348   1.557  31.795   8.279
 2085POPC   C3B29349   1.656  31.682   7.813
 2085POPC   C4B29350   1.492  31.775   7.365
 2086POPC   NC329351   6.762  16.480   9.388
 2086POPC   PO429352   6.751  17.086   9.718
 2086POPC   GL129353   6.637  16.974   9.249
 2086POPC   GL229354   6.869  16.836   8.989
 2086POPC   C1A29355   6.478  17.131   8.808
 2086POPC   D2A29356   6.391  16.995   8.379
 2086POPC   C3A29357   6.740  16.924   8.117
 2086POPC   C4A29358   6.722  17.076   7.720
 2086POPC   C1B29359   6.577  16.632   8.698
 2086POPC   C2B29360   6.499  16.498   8.255
 2086POPC   C3B29361   6.721  16.494   7.832
 2086POPC   C4B29362   6.518  16.505   7.423
 2087POPC   NC329363  36.615  37.461   9.490
 2087POPC   PO429364  37.137  37.746   9.559
 2087POPC   GL129365  36.879  37.767   9.156
 2087POPC   GL229366  36.676  37.499   8.999
 2087POPC   C1A29367  36.871  37.876   8.720
 2087POPC   D2A29368  36.665  37.980   8.364
 2087POPC   C3A29369  36.879  37.873   8.038
 2087POPC   C4A29370  37.179  37.648   7.836
 2087POPC   C1B29371  37.042  37.389   8.796
 2087POPC   C2B29372  36.969  37.481   8.368
 2087POPC   C3B29373  36.755  37.374   7.989
 2087POPC   C4B29374  37.046  37.136   7.790
 2088POPC   NC329375  18.181   8.165   9.730
 2088POPC   PO429376  18.548   7.767   9.460
 2088POPC   GL129377  18.372   8.158   9.234
 2088POPC   GL229378  18.613   8.318   9.037
 2088POPC   C1A29379  18.188   8.260   8.792
 2088POPC   D2A29380  18.337   8.446   8.375
 2088POPC   C3A29381  18.182   8.292   7.946
 2088POPC   C4A29382  18.218   8.330   7.474
 2088POPC   C1B29383  18.821   7.947   8.798
 2088POPC   C2B29384  18.750   7.658   8.412
 2088POPC   C3B29385  18.597   7.899   8.058
 2088POPC   C4B29386  18.655   8.221   7.758
 2089POPC   NC329387  35.667  31.390   9.479
 2089POPC   PO429388  35.033  31.650   9.509
 2089POPC   GL129389  35.263  31.560   9.098
 2089POPC   GL229390  35.596  31.693   8.954
 2089POPC   C1A29391  35.249  31.519   8.631
 2089POPC   D2A29392  35.588  31.564   8.316
 2089POPC   C3A29393  35.356  31.667   7.957
 2089POPC   C4A29394  35.067  31.356   7.852
 2089POPC   C1B29395  35.684  31.269   8.757
 2089POPC   C2B29396  35.763  31.074   8.340
 2089POPC   C3B29397  35.596  31.216   7.901
 2089POPC   C4B29398  35.732  31.349   7.451
 2090POPC   NC329399  34.839   4.979   9.483
 2090POPC   PO429400  34.228   5.381   9.591
 2090POPC   GL129401  34.451   5.231   9.196
 2090POPC   GL229402  34.683   4.946   9.020
 2090POPC   C1A29403  34.418   5.272   8.749
 2090POPC   D2A29404  34.590   5.230   8.351
 2090POPC   C3A29405  34.322   5.205   7.992
 2090POPC   C4A29406  34.466   5.033   7.604
 2090POPC   C1B29407  34.885   4.636   8.773
 2090POPC   C2B29408  34.676   4.568   8.416
 2090POPC   C3B29409  34.632   4.789   8.067
 2090POPC   C4B29410  34.777   4.633   7.705
 2091POPC   NC329411  35.893   3.575   9.431
 2091POPC   PO429412  36.430   3.219   9.688
 2091POPC   GL129413  36.453   3.352   9.203
 2091POPC   GL229414  36.345   3.670   9.146
 2091POPC   C1A29415  36.300   3.307   8.751
 2091POPC   D2A29416  36.252   3.122   8.355
 2091POPC   C3A29417  35.931   3.192   8.070
 2091POPC   C4A29418  36.138   3.206   7.679
 2091POPC   C1B29419  36.029   3.720   8.814
 2091POPC   C2B29420  36.016   3.779   8.382
 2091POPC   C3B29421  36.174   3.641   7.986
 2091POPC   C4B29422  36.081   3.685   7.530
 2092POPC   NC329423  35.753  12.124   9.745
 2092POPC   PO429424  35.148  11.886   9.472
 2092POPC   GL129425  35.217  12.011   9.094
 2092POPC   GL229426  35.462  12.248   9.165
 2092POPC   C1A29427  35.112  11.902   8.691
 2092POPC   D2A29428  34.953  12.095   8.345
 2092POPC   C3A29429  35.207  12.059   7.998
 2092POPC   C4A29430  35.274  11.732   7.662
 2092POPC   C1B29431  35.613  12.041   8.762
 2092POPC   C2B29432  35.648  12.063   8.301
 2092POPC   C3B29433  35.692  12.022   7.839
 2092POPC   C4B29434  35.801  12.228   7.451
 2093POPC   NC329435   4.937   0.678   9.565
 2093POPC   PO429436   5.359   0.214   9.490
 2093POPC   GL129437   5.026   0.278   9.160
 2093POPC   GL229438   5.077   0.606   9.084
 2093POPC   C1A29439   5.049   0.298   8.697
 2093POPC   D2A29440   5.170   0.654   8.401
 2093POPC   C3A29441   5.148   0.464   8.001
 2093POPC   C4A29442   5.456   0.224   7.789
 2093POPC   C1B29443   4.801   0.758   8.755
 2093POPC   C2B29444   4.655   0.876   8.342
 2093POPC   C3B29445   4.750   0.789   7.884
 2093POPC   C4B29446   5.118   0.720   7.564
 2094POPC   NC329447  28.894  25.463   9.622
 2094POPC   PO429448  28.220  25.245   9.696
 2094POPC   GL129449  28.310  25.251   9.262
 2094POPC   GL229450  28.141  25.591   9.204
 2094POPC   C1A29451  28.509  25.110   8.866
 2094POPC   D2A29452  28.412  25.203   8.402
 2094POPC   C3A29453  28.538  25.131   7.949
 2094POPC   C4A29454  28.595  25.241   7.457
 2094POPC   C1B29455  28.237  25.545   8.769
 2094POPC   C2B29456  28.440  25.711   8.414
 2094POPC   C3B29457  28.456  25.619   7.992
 2094POPC   C4B29458  28.315  25.620   7.611
 2095POPC   NC329459  23.548  18.461   9.745
 2095POPC   PO429460  23.625  19.068   9.444
 2095POPC   GL129461  23.664  19.159   9.024
 2095POPC   GL229462  23.839  19.480   9.033
 2095POPC   C1A29463  23.763  18.922   8.676
 2095POPC   D2A29464  23.646  18.687   8.347
 2095POPC   C3A29465  23.702  18.885   7.948
 2095POPC   C4A29466  23.686  18.849   7.492
 2095POPC   C1B29467  24.038  19.341   8.675
 2095POPC   C2B29468  23.916  19.266   8.271
 2095POPC   C3B29469  23.906  19.338   7.839
 2095POPC   C4B29470  23.696  19.541   7.549
 2096POPC   NC329471  43.525  33.918   9.640
 2096POPC   PO429472  44.150  33.632   9.526
 2096POPC   GL129473  43.951  33.620   9.147
 2096POPC   GL229474  43.921  33.947   9.096
 2096POPC   C1A29475  43.865  33.587   8.710
 2096POPC   D2A29476  43.969  33.797   8.335
 2096POPC   C3A29477  43.878  33.570   7.959
 2096POPC   C4A29478  43.992  33.702   7.545
 2096POPC   C1B29479  43.541  33.961   8.805
 2096POPC   C2B29480  43.443  33.765   8.376
 2096POPC   C3B29481  43.437  33.828   7.903
 2096POPC   C4B29482  43.487  33.514   7.555
 2097POPC   NC329483  42.219  31.847   9.431
 2097POPC   PO429484  42.183  32.532   9.379
 2097POPC   GL129485  42.327  32.248   9.092
 2097POPC   GL229486  42.644  32.327   8.986
 2097POPC   C1A29487  42.227  32.328   8.677
 2097POPC   D2A29488  41.963  32.379   8.337
 2097POPC   C3A29489  42.123  32.359   7.942
 2097POPC   C4A29490  42.358  32.040   7.782
 2097POPC   C1B29491  42.634  32.010   8.615
 2097POPC   C2B29492  42.775  31.955   8.163
 2097POPC   C3B29493  42.832  32.154   7.739
 2097POPC   C4B29494  42.655  32.063   7.300
 2098POPC   NC329495  18.441  32.003   9.542
 2098POPC   PO429496  17.964  32.019   9.143
 2098POPC   GL129497  18.341  32.101   8.928
 2098POPC   GL229498  18.547  32.315   9.117
 2098POPC   C1A29499  18.261  32.125   8.499
 2098POPC   D2A29500  17.858  32.194   8.325
 2098POPC   C3A29501  17.969  32.161   7.899
 2098POPC   C4A29502  18.348  31.935   7.923
 2098POPC   C1B29503  18.352  32.579   8.744
 2098POPC   C2B29504  18.203  32.604   8.311
 2098POPC   C3B29505  18.399  32.439   7.955
 2098POPC   C4B29506  18.411  32.600   7.571
 2099POPC   NC329507   7.998  15.027   9.569
 2099POPC   PO429508   8.209  15.676   9.482
 2099POPC   GL129509   8.287  15.387   9.112
 2099POPC   GL229510   8.398  15.057   9.244
 2099POPC   C1A29511   8.313  15.384   8.626
 2099POPC   D2A29512   8.545  15.439   8.232
 2099POPC   C3A29513   8.273  15.493   7.897
 2099POPC   C4A29514   7.939  15.508   7.631
 2099POPC   C1B29515   8.315  14.918   8.854
 2099POPC   C2B29516   8.238  14.774   8.437
 2099POPC   C3B29517   8.389  14.902   8.024
 2099POPC   C4B29518   8.409  15.077   7.594
 2100POPC   NC329519   1.406   3.211   9.573
 2100POPC   PO429520   1.418   3.855   9.286
 2100POPC   GL129521   1.144   3.538   9.085
 2100POPC   GL229522   0.908   3.281   9.101
 2100POPC   C1A29523   1.227   3.371   8.693
 2100POPC   D2A29524   1.178   3.646   8.384
 2100POPC   C3A29525   1.321   3.478   8.030
 2100POPC   C4A29526   1.418   3.458   7.616
 2100POPC   C1B29527   0.724   3.430   8.743
 2100POPC   C2B29528   0.804   3.318   8.348
 2100POPC   C3B29529   0.817   3.533   7.960
 2100POPC   C4B29530   0.920   3.198   7.683
 2101POPC   NC329531  12.546  23.248   9.490
 2101POPC   PO429532  12.927  23.888   9.437
 2101POPC   GL129533  12.926  23.605   9.098
 2101POPC   GL229534  12.775  23.335   9.046
 2101POPC   C1A29535  12.929  23.632   8.655
 2101POPC   D2A29536  12.801  23.953   8.419
 2101POPC   C3A29537  12.817  23.866   8.024
 2101POPC   C4A29538  12.832  23.536   7.712
 2101POPC   C1B29539  12.456  23.434   8.739
 2101POPC   C2B29540  12.484  23.568   8.330
 2101POPC   C3B29541  12.442  23.326   7.969
 2101POPC   C4B29542  12.410  23.344   7.530
 2102POPC   NC329543   1.141   6.141   9.787
 2102POPC   PO429544   1.207   6.739   9.713
 2102POPC   GL129545   1.141   6.677   9.203
 2102POPC   GL229546   0.814   6.618   9.147
 2102POPC   C1A29547   1.235   6.475   8.763
 2102POPC   D2A29548   1.437   6.622   8.354
 2102POPC   C3A29549   1.487   6.460   7.903
 2102POPC   C4A29550   1.231   6.411   7.510
 2102POPC   C1B29551   0.755   6.689   8.749
 2102POPC   C2B29552   0.897   6.588   8.367
 2102POPC   C3B29553   0.904   6.514   7.941
 2102POPC   C4B29554   0.842   6.691   7.545
 2103POPC   NC329555   6.023  18.046   9.522
 2103POPC   PO429556   5.857  17.397   9.579
 2103POPC   GL129557   6.007  17.640   9.210
 2103POPC   GL229558   5.759  17.893   9.113
 2103POPC   C1A29559   5.915  17.580   8.760
 2103POPC   D2A29560   5.775  17.684   8.352
 2103POPC   C3A29561   5.998  17.614   7.984
 2103POPC   C4A29562   5.883  17.634   7.556
 2103POPC   C1B29563   5.510  17.899   8.749
 2103POPC   C2B29564   5.312  17.888   8.329
 2103POPC   C3B29565   5.533  17.954   7.896
 2103POPC   C4B29566   5.449  17.912   7.448
 2104POPC   NC329567   4.978  43.200   9.351
 2104POPC   PO429568   5.527  42.773   9.513
 2104POPC   GL129569   5.379  42.917   9.102
 2104POPC   GL229570   5.048  42.766   9.106
 2104POPC   C1A29571   5.192  43.100   8.693
 2104POPC   D2A29572   5.266  43.351   8.298
 2104POPC   C3A29573   5.203  43.128   7.897
 2104POPC   C4A29574   5.568  42.905   7.704
 2104POPC   C1B29575   4.791  42.758   8.764
 2104POPC   C2B29576   4.749  42.893   8.355
 2104POPC   C3B29577   4.771  42.827   7.916
 2104POPC   C4B29578   4.707  43.033   7.484
 2105POPC   NC329579  37.092  21.122   9.579
 2105POPC   PO429580  37.185  21.710   9.424
 2105POPC   GL129581  36.820  21.453   9.197
 2105POPC   GL229582  36.915  21.099   9.121
 2105POPC   C1A29583  36.657  21.299   8.765
 2105POPC   D2A29584  36.981  21.218   8.464
 2105POPC   C3A29585  36.862  21.269   8.048
 2105POPC   C4A29586  36.939  21.485   7.698
 2105POPC   C1B29587  37.291  20.981   8.890
 2105POPC   C2B29588  37.488  21.057   8.479
 2105POPC   C3B29589  37.363  21.024   8.036
 2105POPC   C4B29590  37.351  21.194   7.608
 2106POPC   NC329591  29.201  38.507   9.414
 2106POPC   PO429592  28.748  38.127   9.435
 2106POPC   GL129593  28.811  38.433   9.101
 2106POPC   GL229594  29.086  38.209   9.024
 2106POPC   C1A29595  29.032  38.670   8.791
 2106POPC   D2A29596  29.145  38.369   8.512
 2106POPC   C3A29597  29.164  38.535   8.137
 2106POPC   C4A29598  29.331  38.407   7.775
 2106POPC   C1B29599  28.771  38.092   8.718
 2106POPC   C2B29600  28.711  38.123   8.274
 2106POPC   C3B29601  28.941  38.101   7.902
 2106POPC   C4B29602  28.849  38.143   7.436
 2107POPC   NC329603  21.531  23.242   9.400
 2107POPC   PO429604  21.481  23.912   9.453
 2107POPC   GL129605  21.486  23.670   9.099
 2107POPC   GL229606  21.182  23.502   9.112
 2107POPC   C1A29607  21.415  23.793   8.686
 2107POPC   D2A29608  21.610  23.902   8.292
 2107POPC   C3A29609  21.371  23.910   7.946
 2107POPC   C4A29610  21.623  23.723   7.635
 2107POPC   C1B29611  21.115  23.340   8.709
 2107POPC   C2B29612  21.166  23.532   8.318
 2107POPC   C3B29613  21.403  23.408   7.990
 2107POPC   C4B29614  21.118  23.545   7.680
 2108POPC   NC329615  35.663  10.870   9.478
 2108POPC   PO429616  35.239  10.279   9.502
 2108POPC   GL129617  35.158  10.420   9.114
 2108POPC   GL229618  35.318  10.744   9.129
 2108POPC   C1A29619  35.127  10.588   8.715
 2108POPC   D2A29620  35.331  10.668   8.381
 2108POPC   C3A29621  35.142  10.545   8.058
 2108POPC   C4A29622  35.059  10.294   7.706
 2108POPC   C1B29623  35.620  10.801   8.790
 2108POPC   C2B29624  35.807  10.854   8.355
 2108POPC   C3B29625  35.595  10.862   7.990
 2108POPC   C4B29626  35.471  10.603   7.668
 2109POPC   NC329627  42.803  40.671   9.861
 2109POPC   PO429628  43.414  40.783   9.635
 2109POPC   GL129629  43.255  40.855   9.203
 2109POPC   GL229630  42.969  41.106   9.140
 2109POPC   C1A29631  43.265  40.700   8.775
 2109POPC   D2A29632  43.501  40.766   8.410
 2109POPC   C3A29633  43.252  40.705   8.031
 2109POPC   C4A29634  42.836  40.741   7.786
 2109POPC   C1B29635  43.130  41.183   8.710
 2109POPC   C2B29636  43.011  41.112   8.250
 2109POPC   C3B29637  43.157  41.150   7.800
 2109POPC   C4B29638  43.444  41.030   7.490
 2110POPC   NC329639   4.694  32.892   9.458
 2110POPC   PO429640   4.042  32.874   9.455
 2110POPC   GL129641   4.294  33.115   9.190
 2110POPC   GL229642   4.400  32.810   9.030
 2110POPC   C1A29643   4.522  33.284   8.841
 2110POPC   D2A29644   4.362  33.381   8.437
 2110POPC   C3A29645   4.536  33.392   8.012
 2110POPC   C4A29646   4.753  33.326   7.592
 2110POPC   C1B29647   4.215  32.901   8.626
 2110POPC   C2B29648   4.395  32.923   8.200
 2110POPC   C3B29649   4.380  32.994   7.743
 2110POPC   C4B29650   4.492  32.863   7.319
 2111POPC   NC329651  11.088  21.169   9.375
 2111POPC   PO429652  10.424  21.168   9.465
 2111POPC   GL129653  10.684  21.439   9.219
 2111POPC   GL229654  10.474  21.666   9.117
 2111POPC   C1A29655  10.829  21.413   8.789
 2111POPC   D2A29656  10.617  21.370   8.414
 2111POPC   C3A29657  10.797  21.359   7.993
 2111POPC   C4A29658  10.429  21.335   7.699
 2111POPC   C1B29659  10.265  21.802   8.788
 2111POPC   C2B29660  10.193  21.809   8.389
 2111POPC   C3B29661  10.424  21.697   8.075
 2111POPC   C4B29662  10.336  21.852   7.696
 2112POPC   NC329663   2.941  37.996   9.737
 2112POPC   PO429664   2.684  37.404   9.654
 2112POPC   GL129665   2.667  37.597   9.279
 2112POPC   GL229666   2.933  37.792   9.199
 2112POPC   C1A29667   2.545  37.613   8.859
 2112POPC   D2A29668   2.660  37.816   8.500
 2112POPC   C3A29669   2.441  37.745   8.137
 2112POPC   C4A29670   2.429  37.555   7.738
 2112POPC   C1B29671   3.114  37.812   8.787
 2112POPC   C2B29672   3.256  37.581   8.414
 2112POPC   C3B29673   2.948  37.639   8.093
 2112POPC   C4B29674   2.973  37.676   7.649
 2113POPC   NC329675   5.368  31.281   9.580
 2113POPC   PO429676   4.886  31.778   9.580
 2113POPC   GL129677   5.115  31.584   9.268
 2113POPC   GL229678   4.892  31.291   9.259
 2113POPC   C1A29679   5.132  31.677   8.841
 2113POPC   D2A29680   4.934  31.745   8.449
 2113POPC   C3A29681   5.197  31.681   8.086
 2113POPC   C4A29682   5.067  31.551   7.665
 2113POPC   C1B29683   5.183  31.177   8.922
 2113POPC   C2B29684   5.191  31.288   8.468
 2113POPC   C3B29685   5.020  31.194   8.048
 2113POPC   C4B29686   4.821  31.099   7.655
 2114POPC   NC329687  36.469  20.438   9.533
 2114POPC   PO429688  35.817  20.650   9.493
 2114POPC   GL129689  35.981  20.668   9.086
 2114POPC   GL229690  36.234  20.441   9.090
 2114POPC   C1A29691  35.953  20.465   8.661
 2114POPC   D2A29692  36.114  20.641   8.299
 2114POPC   C3A29693  35.882  20.759   7.957
 2114POPC   C4A29694  35.978  20.986   7.613
 2114POPC   C1B29695  36.481  20.362   8.735
 2114POPC   C2B29696  36.602  20.505   8.347
 2114POPC   C3B29697  36.454  20.676   7.911
 2114POPC   C4B29698  36.313  20.593   7.482
 2115POPC   NC329699  21.161   6.185   9.630
 2115POPC   PO429700  21.609   6.738   9.533
 2115POPC   GL129701  21.457   6.631   9.166
 2115POPC   GL229702  21.159   6.521   9.213
 2115POPC   C1A29703  21.534   6.860   8.793
 2115POPC   D2A29704  21.414   6.708   8.405
 2115POPC   C3A29705  21.583   6.895   8.067
 2115POPC   C4A29706  21.598   6.940   7.652
 2115POPC   C1B29707  21.048   6.731   8.789
 2115POPC   C2B29708  20.902   6.696   8.364
 2115POPC   C3B29709  21.101   6.619   7.953
 2115POPC   C4B29710  21.085   6.795   7.538
 2116POPC   NC329711  35.512  18.530   9.616
 2116POPC   PO429712  34.917  18.196   9.560
 2116POPC   GL129713  35.240  18.364   9.203
 2116POPC   GL229714  35.625  18.562   9.138
 2116POPC   C1A29715  35.171  18.111   8.817
 2116POPC   D2A29716  35.375  18.102   8.427
 2116POPC   C3A29717  35.200  18.060   8.034
 2116POPC   C4A29718  35.503  18.032   7.673
 2116POPC   C1B29719  35.520  18.490   8.743
 2116POPC   C2B29720  35.445  18.615   8.340
 2116POPC   C3B29721  35.591  18.487   7.938
 2116POPC   C4B29722  35.477  18.522   7.507
 2117POPC   NC329723   7.459  28.893   9.481
 2117POPC   PO429724   7.017  28.345   9.486
 2117POPC   GL129725   7.187  28.608   9.124
 2117POPC   GL229726   7.558  28.532   9.118
 2117POPC   C1A29727   7.356  28.644   8.666
 2117POPC   D2A29728   7.788  28.566   8.443
 2117POPC   C3A29729   7.729  28.488   7.985
 2117POPC   C4A29730   7.535  28.525   7.547
 2117POPC   C1B29731   7.594  28.213   8.783
 2117POPC   C2B29732   7.437  28.197   8.320
 2117POPC   C3B29733   7.280  28.235   7.873
 2117POPC   C4B29734   7.313  28.073   7.420
 2118POPC   NC329735  19.307  12.293   9.509
 2118POPC   PO429736  19.879  11.877   9.493
 2118POPC   GL129737  19.653  12.093   9.150
 2118POPC   GL229738  19.498  12.410   9.077
 2118POPC   C1A29739  19.738  12.090   8.717
 2118POPC   D2A29740  20.064  11.989   8.454
 2118POPC   C3A29741  19.898  12.127   8.073
 2118POPC   C4A29742  20.025  12.286   7.694
 2118POPC   C1B29743  19.320  12.373   8.691
 2118POPC   C2B29744  19.536  12.452   8.318
 2118POPC   C3B29745  19.409  12.289   7.944
 2118POPC   C4B29746  19.581  12.036   7.647
 2119POPC   NC329747  11.418   4.610   9.528
 2119POPC   PO429748  11.146   5.217   9.524
 2119POPC   GL129749  11.268   5.219   9.096
 2119POPC   GL229750  11.453   4.951   9.089
 2119POPC   C1A29751  11.371   5.317   8.673
 2119POPC   D2A29752  11.266   5.125   8.258
 2119POPC   C3A29753  11.357   5.268   7.799
 2119POPC   C4A29754  11.332   5.210   7.320
 2119POPC   C1B29755  11.284   4.783   8.701
 2119POPC   C2B29756  11.108   4.637   8.324
 2119POPC   C3B29757  11.153   4.723   7.852
 2119POPC   C4B29758  10.934   4.713   7.436
 2120POPC   NC329759  31.401   0.546   9.931
 2120POPC   PO429760  31.727   0.229   9.435
 2120POPC   GL129761  31.562   0.309   9.043
 2120POPC   GL229762  31.478   0.632   9.161
 2120POPC   C1A29763  31.410   0.306   8.616
 2120POPC   D2A29764  31.194   0.595   8.355
 2120POPC   C3A29765  31.348   0.626   7.967
 2120POPC   C4A29766  31.280   0.386   7.634
 2120POPC   C1B29767  31.397   0.824   8.773
 2120POPC   C2B29768  31.668   0.846   8.394
 2120POPC   C3B29769  31.809   0.816   7.950
 2120POPC   C4B29770  31.661   0.700   7.486
 2121POPC   NC329771  21.234  43.378   9.603
 2121POPC   PO429772  21.857  43.388   9.383
 2121POPC   GL129773  21.679  43.231   9.037
 2121POPC   GL229774  21.331  43.175   9.019
 2121POPC   C1A29775  21.596  43.253   8.579
 2121POPC   D2A29776  21.349  43.172   8.247
 2121POPC   C3A29777  21.473  43.295   7.832
 2121POPC   C4A29778  21.203  43.545   7.613
 2121POPC   C1B29779  21.356  42.825   8.676
 2121POPC   C2B29780  21.205  42.657   8.299
 2121POPC   C3B29781  21.371  42.802   7.921
 2121POPC   C4B29782  21.682  42.699   7.698
 2122POPC   NC329783  41.490  20.406   9.566
 2122POPC   PO429784  41.700  19.694   9.572
 2122POPC   GL129785  41.385  19.918   9.290
 2122POPC   GL229786  41.653  19.908   9.106
 2122POPC   C1A29787  41.260  20.036   8.816
 2122POPC   D2A29788  41.452  19.838   8.443
 2122POPC   C3A29789  41.394  20.012   8.038
 2122POPC   C4A29790  41.454  19.884   7.651
 2122POPC   C1B29791  41.822  19.719   8.775
 2122POPC   C2B29792  41.978  19.852   8.406
 2122POPC   C3B29793  41.795  19.715   8.053
 2122POPC   C4B29794  41.921  19.690   7.649
 2123POPC   NC329795  39.826   0.538   9.438
 2123POPC   PO429796  40.387   0.787   9.631
 2123POPC   GL129797  40.304   0.626   9.199
 2123POPC   GL229798  40.211   0.272   9.212
 2123POPC   C1A29799  40.141   0.580   8.755
 2123POPC   D2A29800  40.216   0.709   8.324
 2123POPC   C3A29801  40.087   0.490   7.957
 2123POPC   C4A29802  39.872   0.555   7.564
 2123POPC   C1B29803  40.314   0.105   8.813
 2123POPC   C2B29804  40.370   0.235   8.386
 2123POPC   C3B29805  40.382   0.070   7.966
 2123POPC   C4B29806  40.078   0.106   7.607
 2124POPC   NC329807  24.639   5.222   9.693
 2124POPC   PO429808  24.158   4.790   9.561
 2124POPC   GL129809  24.453   4.984   9.262
 2124POPC   GL229810  24.316   5.333   9.277
 2124POPC   C1A29811  24.623   4.989   8.801
 2124POPC   D2A29812  24.526   4.846   8.361
 2124POPC   C3A29813  24.719   4.988   7.965
 2124POPC   C4A29814  24.739   5.021   7.458
 2124POPC   C1B29815  24.151   5.132   8.899
 2124POPC   C2B29816  24.123   5.180   8.463
 2124POPC   C3B29817  24.160   5.058   8.062
 2124POPC   C4B29818  24.265   5.077   7.644
 2125POPC   NC329819  31.639   2.196   9.520
 2125POPC   PO429820  31.189   1.624   9.445
 2125POPC   GL129821  31.445   1.730   9.138
 2125POPC   GL229822  31.746   1.875   9.134
 2125POPC   C1A29823  31.343   1.886   8.761
 2125POPC   D2A29824  31.169   1.879   8.362
 2125POPC   C3A29825  31.398   1.664   8.082
 2125POPC   C4A29826  31.357   1.827   7.709
 2125POPC   C1B29827  31.732   2.222   8.846
 2125POPC   C2B29828  31.513   2.265   8.464
 2125POPC   C3B29829  31.606   2.157   8.051
 2125POPC   C4B29830  31.876   2.431   7.861
 2126POPC   NC329831  29.692  16.321   9.271
 2126POPC   PO429832  29.742  16.934   9.236
 2126POPC   GL129833  30.045  16.931   8.953
 2126POPC   GL229834  30.153  16.594   9.116
 2126POPC   C1A29835  29.850  16.891   8.549
 2126POPC   D2A29836  29.702  16.536   8.329
 2126POPC   C3A29837  29.904  16.623   7.974
 2126POPC   C4A29838  29.791  16.961   7.734
 2126POPC   C1B29839  30.231  16.558   8.677
 2126POPC   C2B29840  30.348  16.906   8.403
 2126POPC   C3B29841  30.268  17.005   7.979
 2126POPC   C4B29842  30.292  16.713   7.650
 2127POPC   NC329843   1.048  18.943   9.457
 2127POPC   PO429844   1.597  19.264   9.526
 2127POPC   GL129845   1.312  19.263   9.156
 2127POPC   GL229846   1.274  18.894   9.015
 2127POPC   C1A29847   1.318  19.330   8.719
 2127POPC   D2A29848   1.324  18.932   8.498
 2127POPC   C3A29849   1.212  18.986   8.076
 2127POPC   C4A29850   1.325  19.366   7.884
 2127POPC   C1B29851   0.916  19.056   8.817
 2127POPC   C2B29852   0.841  19.166   8.412
 2127POPC   C3B29853   0.705  19.092   8.007
 2127POPC   C4B29854   0.928  19.123   7.635
 2128POPC   NC329855  30.121  34.776   9.412
 2128POPC   PO429856  30.701  34.609   9.610
 2128POPC   GL129857  30.677  34.461   9.170
 2128POPC   GL229858  30.308  34.422   9.109
 2128POPC   C1A29859  30.919  34.434   8.748
 2128POPC   D2A29860  31.122  34.654   8.360
 2128POPC   C3A29861  30.917  34.571   7.944
 2128POPC   C4A29862  30.789  34.240   7.621
 2128POPC   C1B29863  30.453  34.684   8.767
 2128POPC   C2B29864  30.598  34.623   8.372
 2128POPC   C3B29865  30.408  34.662   8.013
 2128POPC   C4B29866  30.287  34.875   7.665
 2129POPC   NC329867  14.766  24.891   9.795
 2129POPC   PO429868  15.222  25.266   9.336
 2129POPC   GL129869  15.198  25.123   8.955
 2129POPC   GL229870  14.915  25.367   8.915
 2129POPC   C1A29871  15.169  25.176   8.527
 2129POPC   D2A29872  14.878  25.165   8.226
 2129POPC   C3A29873  15.141  24.948   7.987
 2129POPC   C4A29874  15.428  25.047   7.677
 2129POPC   C1B29875  15.290  25.613   8.792
 2129POPC   C2B29876  15.477  25.587   8.409
 2129POPC   C3B29877  15.333  25.441   8.032
 2129POPC   C4B29878  15.005  25.373   7.761
 2130POPC   NC329879   5.289   1.513   9.987
 2130POPC   PO429880   4.933   1.126   9.665
 2130POPC   GL129881   4.941   1.084   9.194
 2130POPC   GL229882   4.738   1.365   9.082
 2130POPC   C1A29883   5.259   0.994   8.819
 2130POPC   D2A29884   5.312   1.186   8.404
 2130POPC   C3A29885   5.212   1.008   8.005
 2130POPC   C4A29886   5.450   1.130   7.635
 2130POPC   C1B29887   4.867   1.262   8.657
 2130POPC   C2B29888   4.850   1.334   8.207
 2130POPC   C3B29889   4.710   1.294   7.762
 2130POPC   C4B29890   4.715   1.613   7.420
 2131POPC   NC329891  13.697  33.201   9.447
 2131POPC   PO429892  13.862  32.608   9.171
 2131POPC   GL129893  13.688  32.953   8.954
 2131POPC   GL229894  13.437  33.247   9.015
 2131POPC   C1A29895  13.421  32.853   8.590
 2131POPC   D2A29896  13.352  32.742   8.169
 2131POPC   C3A29897  13.684  32.818   7.890
 2131POPC   C4A29898  13.817  33.232   7.727
 2131POPC   C1B29899  13.629  33.332   8.616
 2131POPC   C2B29900  13.498  33.247   8.207
 2131POPC   C3B29901  13.277  33.148   7.855
 2131POPC   C4B29902  13.340  33.358   7.504
 2132POPC   NC329903  40.934   3.544   9.425
 2132POPC   PO429904  40.300   3.925   9.394
 2132POPC   GL129905  40.639   3.771   9.079
 2132POPC   GL229906  40.688   3.400   9.005
 2132POPC   C1A29907  40.829   3.711   8.652
 2132POPC   D2A29908  40.739   3.473   8.284
 2132POPC   C3A29909  40.492   3.615   7.919
 2132POPC   C4A29910  40.515   3.970   7.612
 2132POPC   C1B29911  41.108   3.282   8.836
 2132POPC   C2B29912  41.235   3.248   8.413
 2132POPC   C3B29913  41.120   3.322   7.996
 2132POPC   C4B29914  40.978   3.683   7.755
 2133POPC   NC329915  11.194  30.421   9.470
 2133POPC   PO429916  11.385  31.020   9.660
 2133POPC   GL129917  11.320  30.859   9.239
 2133POPC   GL229918  10.998  30.747   9.117
 2133POPC   C1A29919  11.382  30.899   8.807
 2133POPC   D2A29920  11.168  30.968   8.436
 2133POPC   C3A29921  11.206  30.703   8.079
 2133POPC   C4A29922  11.443  30.635   7.685
 2133POPC   C1B29923  10.984  30.534   8.689
 2133POPC   C2B29924  10.845  30.275   8.309
 2133POPC   C3B29925  10.913  30.342   7.853
 2133POPC   C4B29926  10.931  30.736   7.585
 2134POPC   NC329927   3.805  30.554   9.552
 2134POPC   PO429928   3.255  31.045   9.426
 2134POPC   GL129929   3.482  30.744   9.166
 2134POPC   GL229930   3.793  30.797   9.098
 2134POPC   C1A29931   3.489  30.552   8.752
 2134POPC   D2A29932   3.330  30.801   8.403
 2134POPC   C3A29933   3.438  30.790   7.977
 2134POPC   C4A29934   3.410  31.077   7.648
 2134POPC   C1B29935   3.948  30.759   8.699
 2134POPC   C2B29936   3.829  30.645   8.296
 2134POPC   C3B29937   3.954  30.764   7.885
 2134POPC   C4B29938   3.912  30.631   7.474
 2135POPC   NC329939  13.897  40.088   9.525
 2135POPC   PO429940  13.282  40.099   9.196
 2135POPC   GL129941  13.652  40.023   9.066
 2135POPC   GL229942  13.829  40.292   9.039
 2135POPC   C1A29943  13.730  39.932   8.666
 2135POPC   D2A29944  13.838  39.684   8.364
 2135POPC   C3A29945  13.543  39.750   8.067
 2135POPC   C4A29946  13.639  39.888   7.659
 2135POPC   C1B29947  14.057  40.328   8.664
 2135POPC   C2B29948  14.026  40.148   8.252
 2135POPC   C3B29949  13.913  40.292   7.835
 2135POPC   C4B29950  13.842  40.375   7.381
 2136POPC   NC329951  15.363  15.202   9.644
 2136POPC   PO429952  14.771  15.158   9.367
 2136POPC   GL129953  15.182  15.038   9.176
 2136POPC   GL229954  15.168  14.723   9.077
 2136POPC   C1A29955  15.540  15.014   8.855
 2136POPC   D2A29956  15.710  15.038   8.397
 2136POPC   C3A29957  15.453  15.168   8.026
 2136POPC   C4A29958  15.058  15.338   7.891
 2136POPC   C1B29959  15.131  14.790   8.629
 2136POPC   C2B29960  14.998  14.880   8.228
 2136POPC   C3B29961  15.128  14.786   7.836
 2136POPC   C4B29962  14.961  15.004   7.512
 2137POPC   NC329963  19.819  32.097   9.488
 2137POPC   PO429964  19.574  32.743   9.407
 2137POPC   GL129965  19.787  32.430   9.115
 2137POPC   GL229966  20.138  32.360   9.209
 2137POPC   C1A29967  19.692  32.070   8.799
 2137POPC   D2A29968  19.478  31.959   8.409
 2137POPC   C3A29969  19.749  32.115   8.070
 2137POPC   C4A29970  19.741  32.478   7.813
 2137POPC   C1B29971  20.185  32.195   8.829
 2137POPC   C2B29972  20.122  32.214   8.402
 2137POPC   C3B29973  20.208  32.356   7.972
 2137POPC   C4B29974  20.089  32.168   7.562
 2138POPC   NC329975  35.786  23.415   9.458
 2138POPC   PO429976  36.269  23.990   9.594
 2138POPC   GL129977  36.159  23.763   9.217
 2138POPC   GL229978  35.906  23.600   9.011
 2138POPC   C1A29979  36.382  23.740   8.805
 2138POPC   D2A29980  36.490  23.975   8.432
 2138POPC   C3A29981  36.297  23.772   8.080
 2138POPC   C4A29982  36.217  23.806   7.631
 2138POPC   C1B29983  35.716  23.704   8.640
 2138POPC   C2B29984  35.670  23.908   8.257
 2138POPC   C3B29985  35.745  23.802   7.819
 2138POPC   C4B29986  35.844  23.544   7.416
 2139POPC   NC329987  31.085   9.155   9.476
 2139POPC   PO429988  30.477   8.987   9.495
 2139POPC   GL129989  30.740   8.833   9.179
 2139POPC   GL229990  30.804   9.136   9.024
 2139POPC   C1A29991  30.749   8.710   8.739
 2139POPC   D2A29992  30.469   8.745   8.375
 2139POPC   C3A29993  30.580   8.981   8.024
 2139POPC   C4A29994  30.609   8.925   7.580
 2139POPC   C1B29995  30.735   9.199   8.576
 2139POPC   C2B29996  30.977   8.966   8.326
 2139POPC   C3B29997  31.123   8.911   7.927
 2139POPC   C4B29998  31.108   9.015   7.531
 2140POPC   NC329999  36.257  44.515   9.686
 2140POPC   PO430000  35.670  44.631   9.425
 2140POPC   GL130001  36.092  44.563   9.185
 2140POPC   GL230002  36.425  44.744   9.212
 2140POPC   C1A30003  36.188  44.432   8.758
 2140POPC   D2A30004  36.141  44.291   8.329
 2140POPC   C3A30005  35.836  44.318   8.060
 2140POPC   C4A30006  36.031  44.417   7.704
 2140POPC   C1B30007  36.241  44.942   8.811
 2140POPC   C2B30008  36.149  44.802   8.364
 2140POPC   C3B30009  36.072  44.940   7.928
 2140POPC   C4B30010  36.270   0.005   7.519
 2141POPC   NC330011   2.462  44.944   9.437
 2141POPC   PO430012   2.086  44.380   9.503
 2141POPC   GL130013   2.126  44.607   9.124
 2141POPC   GL230014   1.978  44.946   9.203
 2141POPC   C1A30015   2.168  44.552   8.663
 2141POPC   D2A30016   2.193  44.687   8.218
 2141POPC   C3A30017   1.883  44.428   8.014
 2141POPC   C4A30018   1.848  44.225   7.647
 2141POPC   C1B30019   1.765  44.840   8.814
 2141POPC   C2B30020   1.712  44.789   8.387
 2141POPC   C3B30021   1.800  44.919   7.978
 2141POPC   C4B30022   1.612  44.716   7.612
 2142POPC   NC330023  26.847  24.905   9.655
 2142POPC   PO430024  27.198  24.481   9.293
 2142POPC   GL130025  26.860  24.545   9.086
 2142POPC   GL230026  26.724  24.875   9.147
 2142POPC   C1A30027  26.930  24.407   8.673
 2142POPC   D2A30028  27.108  24.555   8.292
 2142POPC   C3A30029  26.842  24.383   7.960
 2142POPC   C4A30030  26.446  24.381   7.726
 2142POPC   C1B30031  26.852  24.958   8.699
 2142POPC   C2B30032  26.829  25.112   8.258
 2142POPC   C3B30033  26.998  24.867   7.899
 2142POPC   C4B30034  26.746  24.765   7.519
 2143POPC   NC330035   4.805  20.729   9.479
 2143POPC   PO430036   5.177  20.123   9.501
 2143POPC   GL130037   5.148  20.393   9.165
 2143POPC   GL230038   4.799  20.356   9.136
 2143POPC   C1A30039   5.155  20.690   8.819
 2143POPC   D2A30040   5.227  20.860   8.408
 2143POPC   C3A30041   5.317  20.519   8.134
 2143POPC   C4A30042   5.269  20.529   7.716
 2143POPC   C1B30043   4.702  20.356   8.727
 2143POPC   C2B30044   4.846  20.515   8.367
 2143POPC   C3B30045   4.805  20.611   7.957
 2143POPC   C4B30046   4.794  20.343   7.645
 2144POPC   NC330047  34.940  25.313   9.562
 2144POPC   PO430048  34.346  24.923   9.498
 2144POPC   GL130049  34.535  25.009   9.081
 2144POPC   GL230050  34.718  25.330   9.095
 2144POPC   C1A30051  34.768  25.093   8.663
 2144POPC   D2A30052  34.799  25.410   8.352
 2144POPC   C3A30053  34.695  25.303   7.964
 2144POPC   C4A30054  34.386  25.300   7.711
 2144POPC   C1B30055  34.489  25.524   8.747
 2144POPC   C2B30056  34.078  25.582   8.532
 2144POPC   C3B30057  34.086  25.558   8.081
 2144POPC   C4B30058  33.987  25.594   7.652
 2145POPC   NC330059  28.862  37.596   9.649
 2145POPC   PO430060  29.299  38.069   9.517
 2145POPC   GL130061  29.378  37.786   9.160
 2145POPC   GL230062  29.059  37.601   9.138
 2145POPC   C1A30063  29.284  37.874   8.710
 2145POPC   D2A30064  29.443  38.012   8.295
 2145POPC   C3A30065  29.353  37.745   7.945
 2145POPC   C4A30066  29.307  37.938   7.547
 2145POPC   C1B30067  28.826  37.576   8.720
 2145POPC   C2B30068  28.974  37.699   8.342
 2145POPC   C3B30069  28.767  37.608   8.005
 2145POPC   C4B30070  28.904  37.672   7.646
 2146POPC   NC330071  16.175  28.123   9.628
 2146POPC   PO430072  15.917  28.663   9.473
 2146POPC   GL130073  15.869  28.280   9.229
 2146POPC   GL230074  16.187  28.192   9.076
 2146POPC   C1A30075  15.768  28.158   8.800
 2146POPC   D2A30076  15.629  28.346   8.415
 2146POPC   C3A30077  15.893  28.211   8.123
 2146POPC   C4A30078  15.927  28.202   7.696
 2146POPC   C1B30079  16.052  28.591   8.803
 2146POPC   C2B30080  15.995  28.752   8.339
 2146POPC   C3B30081  16.155  28.630   7.907
 2146POPC   C4B30082  16.426  28.392   7.617
 2147POPC   NC330083  34.238  33.989   9.345
 2147POPC   PO430084  33.768  33.482   9.499
 2147POPC   GL130085  33.722  33.770   9.162
 2147POPC   GL230086  33.760  34.144   9.215
 2147POPC   C1A30087  33.583  33.917   8.764
 2147POPC   D2A30088  33.428  33.997   8.362
 2147POPC   C3A30089  33.693  33.908   7.988
 2147POPC   C4A30090  33.782  33.848   7.542
 2147POPC   C1B30091  33.985  34.222   8.811
 2147POPC   C2B30092  33.946  34.071   8.410
 2147POPC   C3B30093  34.003  34.322   8.053
 2147POPC   C4B30094  33.800  34.362   7.681
 2148POPC   NC330095  19.228  21.695   9.500
 2148POPC   PO430096  18.871  21.089   9.636
 2148POPC   GL130097  19.047  21.287   9.249
 2148POPC   GL230098  18.853  21.611   9.124
 2148POPC   C1A30099  19.122  21.233   8.812
 2148POPC   D2A30100  18.886  21.415   8.480
 2148POPC   C3A30101  18.990  21.302   8.084
 2148POPC   C4A30102  19.006  21.228   7.638
 2148POPC   C1B30103  19.141  21.762   8.773
 2148POPC   C2B30104  19.305  21.668   8.313
 2148POPC   C3B30105  19.190  21.679   7.834
 2148POPC   C4B30106  19.301  21.568   7.374
 2149POPC   NC330107  34.353  37.762   9.514
 2149POPC   PO430108  35.031  37.701   9.365
 2149POPC   GL130109  34.677  37.663   9.123
 2149POPC   GL230110  34.527  37.354   9.180
 2149POPC   C1A30111  34.452  37.587   8.728
 2149POPC   D2A30112  34.457  37.449   8.310
 2149POPC   C3A30113  34.458  37.786   8.000
 2149POPC   C4A30114  34.458  37.815   7.558
 2149POPC   C1B30115  34.802  37.232   8.858
 2149POPC   C2B30116  34.951  37.404   8.492
 2149POPC   C3B30117  34.908  37.418   8.067
 2149POPC   C4B30118  34.893  37.649   7.725
 2150POPC   NC330119  32.745  31.565   9.499
 2150POPC   PO430120  33.404  31.701   9.549
 2150POPC   GL130121  33.139  31.551   9.176
 2150POPC   GL230122  33.218  31.197   9.075
 2150POPC   C1A30123  32.938  31.445   8.747
 2150POPC   D2A30124  33.109  31.251   8.355
 2150POPC   C3A30125  32.897  31.400   7.959
 2150POPC   C4A30126  32.850  31.821   7.748
 2150POPC   C1B30127  33.517  31.008   8.779
 2150POPC   C2B30128  33.608  31.061   8.325
 2150POPC   C3B30129  33.362  31.172   7.900
 2150POPC   C4B30130  33.202  31.195   7.426
 2151POPC   NC330131   7.968  37.953   9.570
 2151POPC   PO430132   8.125  38.645   9.562
 2151POPC   GL130133   8.291  38.437   9.201
 2151POPC   GL230134   8.022  38.224   9.152
 2151POPC   C1A30135   8.434  38.592   8.784
 2151POPC   D2A30136   8.503  38.771   8.402
 2151POPC   C3A30137   8.396  38.603   8.061
 2151POPC   C4A30138   8.353  38.478   7.681
 2151POPC   C1B30139   8.137  38.170   8.760
 2151POPC   C2B30140   8.059  38.447   8.419
 2151POPC   C3B30141   7.991  38.310   7.996
 2151POPC   C4B30142   8.174  38.010   7.786
 2152POPC   NC330143  34.608  19.651   9.606
 2152POPC   PO430144  34.331  20.203   9.732
 2152POPC   GL130145  34.342  20.140   9.255
 2152POPC   GL230146  34.700  19.995   9.161
 2152POPC   C1A30147  34.346  20.023   8.791
 2152POPC   D2A30148  34.388  19.725   8.413
 2152POPC   C3A30149  34.397  19.899   7.977
 2152POPC   C4A30150  34.596  20.215   7.718
 2152POPC   C1B30151  34.716  19.641   8.863
 2152POPC   C2B30152  34.823  19.428   8.474
 2152POPC   C3B30153  34.806  19.553   8.086
 2152POPC   C4B30154  34.747  19.623   7.685
 2153POPC   NC330155   0.516  44.950   9.528
 2153POPC   PO430156   0.122  44.481   9.457
 2153POPC   GL130157   0.264  44.745   9.120
 2153POPC   GL230158   0.592  44.750   9.070
 2153POPC   C1A30159   0.305  44.586   8.679
 2153POPC   D2A30160   0.146  44.384   8.310
 2153POPC   C3A30161   0.415  44.440   7.971
 2153POPC   C4A30162   0.318  44.602   7.562
 2153POPC   C1B30163   0.794  44.825   8.718
 2153POPC   C2B30164   0.661  44.733   8.318
 2153POPC   C3B30165   0.693  44.851   7.886
 2153POPC   C4B30166   0.736  44.825   7.417
 2154POPC   NC330167  32.053  20.381   9.518
 2154POPC   PO430168  32.617  20.742   9.641
 2154POPC   GL130169  32.597  20.678   9.217
 2154POPC   GL230170  32.786  20.980   9.158
 2154POPC   C1A30171  32.333  20.586   8.830
 2154POPC   D2A30172  32.167  20.703   8.383
 2154POPC   C3A30173  32.092  20.404   8.007
 2154POPC   C4A30174  31.918  20.351   7.536
 2154POPC   C1B30175  32.822  20.792   8.769
 2154POPC   C2B30176  32.676  20.852   8.378
 2154POPC   C3B30177  32.563  20.835   7.956
 2154POPC   C4B30178  32.299  20.688   7.653
 2155POPC   NC330179  34.765  41.782   9.418
 2155POPC   PO430180  34.198  41.559   9.505
 2155POPC   GL130181  34.348  41.646   9.106
 2155POPC   GL230182  34.034  41.882   9.123
 2155POPC   C1A30183  34.653  41.464   8.775
 2155POPC   D2A30184  34.797  41.400   8.314
 2155POPC   C3A30185  34.703  41.747   7.985
 2155POPC   C4A30186  34.926  41.747   7.562
 2155POPC   C1B30187  34.146  41.911   8.694
 2155POPC   C2B30188  34.382  41.677   8.413
 2155POPC   C3B30189  34.322  41.386   8.090
 2155POPC   C4B30190  34.311  41.555   7.686
 2156POPC   NC330191   1.001  38.945   9.531
 2156POPC   PO430192   1.230  38.355   9.624
 2156POPC   GL130193   1.256  38.511   9.169
 2156POPC   GL230194   1.595  38.380   9.047
 2156POPC   C1A30195   1.179  38.370   8.734
 2156POPC   D2A30196   1.231  38.133   8.341
 2156POPC   C3A30197   0.895  38.211   8.035
 2156POPC   C4A30198   0.671  38.463   7.695
 2156POPC   C1B30199   1.670  38.319   8.606
 2156POPC   C2B30200   1.451  38.577   8.289
 2156POPC   C3B30201   1.360  38.393   7.892
 2156POPC   C4B30202   1.748  38.125   7.816
 2157POPC   NC330203  18.701  33.776   9.461
 2157POPC   PO430204  18.104  33.526   9.558
 2157POPC   GL130205  18.316  33.446   9.180
 2157POPC   GL230206  18.335  33.812   9.116
 2157POPC   C1A30207  18.406  33.485   8.726
 2157POPC   D2A30208  18.321  33.836   8.448
 2157POPC   C3A30209  18.325  33.785   8.010
 2157POPC   C4A30210  18.211  33.515   7.676
 2157POPC   C1B30211  18.071  34.041   8.858
 2157POPC   C2B30212  17.950  34.238   8.493
 2157POPC   C3B30213  18.041  34.204   8.087
 2157POPC   C4B30214  17.939  33.984   7.726
 2158POPC   NC330215   5.378  36.038   9.735
 2158POPC   PO430216   6.001  36.089   9.557
 2158POPC   GL130217   5.935  36.107   9.051
 2158POPC   GL230218   5.998  35.792   8.854
 2158POPC   C1A30219   5.651  36.138   8.663
 2158POPC   D2A30220   5.461  35.997   8.266
 2158POPC   C3A30221   5.614  36.247   7.922
 2158POPC   C4A30222   5.735  36.130   7.477
 2158POPC   C1B30223   6.187  36.058   8.595
 2158POPC   C2B30224   6.002  36.114   8.231
 2158POPC   C3B30225   6.105  36.293   7.857
 2158POPC   C4B30226   6.291  36.017   7.653
 2159POPC   NC330227  23.245  18.808   9.340
 2159POPC   PO430228  22.627  19.090   9.422
 2159POPC   GL130229  22.841  19.004   9.029
 2159POPC   GL230230  23.163  19.200   9.027
 2159POPC   C1A30231  22.886  19.221   8.617
 2159POPC   D2A30232  23.108  19.158   8.222
 2159POPC   C3A30233  22.896  19.116   7.886
 2159POPC   C4A30234  22.654  19.349   7.658
 2159POPC   C1B30235  23.253  18.887   8.670
 2159POPC   C2B30236  23.144  18.667   8.263
 2159POPC   C3B30237  23.236  18.696   7.818
 2159POPC   C4B30238  23.205  18.740   7.355
 2160POPC   NC330239  43.164  44.109   9.377
 2160POPC   PO430240  43.490  43.666   9.765
 2160POPC   GL130241  43.318  43.557   9.267
 2160POPC   GL230242  43.173  43.826   8.988
 2160POPC   C1A30243  43.234  43.372   8.815
 2160POPC   D2A30244  43.082  43.716   8.495
 2160POPC   C3A30245  43.042  43.785   8.041
 2160POPC   C4A30246  43.224  43.795   7.612
 2160POPC   C1B30247  42.902  44.137   8.728
 2160POPC   C2B30248  42.939  44.250   8.284
 2160POPC   C3B30249  42.880  44.249   7.849
 2160POPC   C4B30250  42.963  44.210   7.419
 2161POPC   NC330251  23.226  15.861   9.522
 2161POPC   PO430252  22.604  16.085   9.549
 2161POPC   GL130253  22.893  16.013   9.150
 2161POPC   GL230254  23.099  15.688   9.066
 2161POPC   C1A30255  22.964  15.962   8.678
 2161POPC   D2A30256  23.148  16.103   8.303
 2161POPC   C3A30257  22.856  16.108   7.991
 2161POPC   C4A30258  22.691  15.828   7.697
 2161POPC   C1B30259  23.391  15.656   8.715
 2161POPC   C2B30260  23.273  15.531   8.325
 2161POPC   C3B30261  23.228  15.730   7.971
 2161POPC   C4B30262  23.506  15.660   7.694
 2162POPC   NC330263  13.128  24.332   9.381
 2162POPC   PO430264  12.628  24.842   9.412
 2162POPC   GL130265  12.811  24.636   9.085
 2162POPC   GL230266  13.127  24.748   9.028
 2162POPC   C1A30267  12.937  24.300   8.775
 2162POPC   D2A30268  13.118  24.341   8.361
 2162POPC   C3A30269  12.766  24.389   8.158
 2162POPC   C4A30270  12.648  24.339   7.780
 2162POPC   C1B30271  12.929  24.787   8.617
 2162POPC   C2B30272  12.671  24.883   8.254
 2162POPC   C3B30273  12.877  24.793   7.851
 2162POPC   C4B30274  13.210  24.441   7.830
 2163POPC   NC330275  42.495  16.679   9.848
 2163POPC   PO430276  43.095  16.572   9.671
 2163POPC   GL130277  43.013  16.638   9.220
 2163POPC   GL230278  42.924  16.350   9.043
 2163POPC   C1A30279  43.179  16.709   8.785
 2163POPC   D2A30280  42.939  16.801   8.400
 2163POPC   C3A30281  43.110  16.509   8.145
 2163POPC   C4A30282  43.238  16.863   7.954
 2163POPC   C1B30283  42.739  16.474   8.703
 2163POPC   C2B30284  42.605  16.395   8.308
 2163POPC   C3B30285  42.677  16.437   7.894
 2163POPC   C4B30286  43.063  16.547   7.605
 2164POPC   NC330287  18.663  10.484   9.393
 2164POPC   PO430288  19.260  10.220   9.369
 2164POPC   GL130289  19.074  10.521   9.078
 2164POPC   GL230290  19.102  10.901   9.154
 2164POPC   C1A30291  19.068  10.488   8.626
 2164POPC   D2A30292  19.225  10.161   8.333
 2164POPC   C3A30293  19.192  10.287   7.894
 2164POPC   C4A30294  19.015  10.663   7.622
 2164POPC   C1B30295  19.457  10.779   8.849
 2164POPC   C2B30296  19.541  10.593   8.433
 2164POPC   C3B30297  19.382  10.731   8.039
 2164POPC   C4B30298  19.521  10.600   7.618
 2165POPC   NC330299  39.348  42.644   9.481
 2165POPC   PO430300  39.114  42.029   9.493
 2165POPC   GL130301  39.402  42.149   9.159
 2165POPC   GL230302  39.179  42.408   9.056
 2165POPC   C1A30303  39.580  42.081   8.760
 2165POPC   D2A30304  39.205  42.206   8.553
 2165POPC   C3A30305  39.197  42.243   8.126
 2165POPC   C4A30306  39.017  42.166   7.731
 2165POPC   C1B30307  39.503  42.569   8.792
 2165POPC   C2B30308  39.656  42.431   8.371
 2165POPC   C3B30309  39.570  42.601   7.964
 2165POPC   C4B30310  39.358  42.600   7.580
 2166POPC   NC330311  14.547  28.999   9.362
 2166POPC   PO430312  14.641  29.668   9.466
 2166POPC   GL130313  14.717  29.428   9.075
 2166POPC   GL230314  14.838  29.090   8.968
 2166POPC   C1A30315  14.418  29.290   8.750
 2166POPC   D2A30316  14.041  29.185   8.534
 2166POPC   C3A30317  14.120  29.307   8.128
 2166POPC   C4A30318  14.429  29.166   7.827
 2166POPC   C1B30319  14.553  28.795   8.718
 2166POPC   C2B30320  14.486  28.954   8.316
 2166POPC   C3B30321  14.822  28.920   8.010
 2166POPC   C4B30322  14.673  28.765   7.624
 2167POPC   NC330323  43.059  26.998   9.382
 2167POPC   PO430324  43.390  26.386   9.490
 2167POPC   GL130325  43.371  26.685   9.120
 2167POPC   GL230326  42.990  26.644   9.014
 2167POPC   C1A30327  43.385  26.828   8.676
 2167POPC   D2A30328  43.306  26.491   8.363
 2167POPC   C3A30329  43.093  26.655   7.999
 2167POPC   C4A30330  43.207  26.796   7.597
 2167POPC   C1B30331  42.882  26.829   8.624
 2167POPC   C2B30332  43.039  27.131   8.306
 2167POPC   C3B30333  42.958  27.165   7.862
 2167POPC   C4B30334  42.690  26.852   7.645
 2168POPC   NC330335  25.672  17.465   9.524
 2168POPC   PO430336  26.353  17.669   9.492
 2168POPC   GL130337  26.146  17.556   9.140
 2168POPC   GL230338  25.832  17.719   9.095
 2168POPC   C1A30339  26.202  17.726   8.728
 2168POPC   D2A30340  26.104  17.873   8.303
 2168POPC   C3A30341  26.321  17.564   8.043
 2168POPC   C4A30342  26.208  17.400   7.654
 2168POPC   C1B30343  25.809  17.380   8.793
 2168POPC   C2B30344  26.025  17.368   8.410
 2168POPC   C3B30345  25.842  17.428   8.003
 2168POPC   C4B30346  25.780  17.127   7.650
 2169POPC   NC330347  37.823  43.962   9.461
 2169POPC   PO430348  37.261  43.651   9.551
 2169POPC   GL130349  37.391  43.914   9.160
 2169POPC   GL230350  37.790  43.932   8.978
 2169POPC   C1A30351  37.389  43.890   8.715
 2169POPC   D2A30352  37.671  43.921   8.403
 2169POPC   C3A30353  37.461  43.935   8.007
 2169POPC   C4A30354  37.613  43.835   7.586
 2169POPC   C1B30355  38.106  43.662   8.807
 2169POPC   C2B30356  38.017  43.503   8.396
 2169POPC   C3B30357  37.919  43.680   8.020
 2169POPC   C4B30358  38.096  43.676   7.645
 2170POPC   NC330359  43.307  14.609   9.489
 2170POPC   PO430360  42.984  14.008   9.449
 2170POPC   GL130361  42.932  14.147   9.051
 2170POPC   GL230362  43.055  14.451   9.056
 2170POPC   C1A30363  43.037  14.157   8.609
 2170POPC   D2A30364  43.186  14.361   8.214
 2170POPC   C3A30365  43.083  14.217   7.796
 2170POPC   C4A30366  43.113  14.326   7.362
 2170POPC   C1B30367  43.188  14.646   8.666
 2170POPC   C2B30368  42.981  14.815   8.326
 2170POPC   C3B30369  43.007  14.734   7.909
 2170POPC   C4B30370  42.726  14.555   7.658
 2171POPC   NC330371  35.407  22.707   9.372
 2171POPC   PO430372  35.359  23.296   9.603
 2171POPC   GL130373  35.166  23.178   9.209
 2171POPC   GL230374  35.484  23.138   9.046
 2171POPC   C1A30375  35.018  23.004   8.799
 2171POPC   D2A30376  35.186  22.699   8.503
 2171POPC   C3A30377  35.237  22.840   8.071
 2171POPC   C4A30378  35.605  22.763   7.788
 2171POPC   C1B30379  35.657  22.926   8.676
 2171POPC   C2B30380  35.730  23.001   8.225
 2171POPC   C3B30381  35.696  23.271   7.849
 2171POPC   C4B30382  35.549  23.132   7.419
 2172POPC   NC330383  35.518  39.753   9.443
 2172POPC   PO430384  35.140  40.352   9.478
 2172POPC   GL130385  35.369  40.151   9.132
 2172POPC   GL230386  35.194  39.822   9.071
 2172POPC   C1A30387  35.581  40.298   8.749
 2172POPC   D2A30388  35.633  40.161   8.326
 2172POPC   C3A30389  35.468  40.335   7.968
 2172POPC   C4A30390  35.506  40.184   7.591
 2172POPC   C1B30391  35.495  39.770   8.763
 2172POPC   C2B30392  35.401  39.674   8.354
 2172POPC   C3B30393  35.394  39.790   7.915
 2172POPC   C4B30394  35.571  39.674   7.524
 2173POPC   NC330395  24.731   3.049   9.497
 2173POPC   PO430396  24.326   2.454   9.567
 2173POPC   GL130397  24.377   2.771   9.226
 2173POPC   GL230398  24.696   2.635   9.147
 2173POPC   C1A30399  24.563   3.035   8.859
 2173POPC   D2A30400  24.432   3.062   8.403
 2173POPC   C3A30401  24.199   2.675   8.156
 2173POPC   C4A30402  24.221   2.393   7.762
 2173POPC   C1B30403  24.433   2.581   8.730
 2173POPC   C2B30404  24.655   2.615   8.339
 2173POPC   C3B30405  24.653   2.799   7.895
 2173POPC   C4B30406  24.959   2.855   7.551
 2174POPC   NC330407   6.557  33.089   9.562
 2174POPC   PO430408   7.092  32.661   9.664
 2174POPC   GL130409   6.888  32.763   9.261
 2174POPC   GL230410   6.524  32.748   9.169
 2174POPC   C1A30411   6.847  32.888   8.823
 2174POPC   D2A30412   6.581  32.993   8.492
 2174POPC   C3A30413   6.794  32.924   8.121
 2174POPC   C4A30414   6.634  32.923   7.735
 2174POPC   C1B30415   6.330  32.575   8.782
 2174POPC   C2B30416   6.104  32.739   8.444
 2174POPC   C3B30417   6.236  32.825   8.062
 2174POPC   C4B30418   6.198  32.560   7.761
 2175POPC   NC330419   0.196   3.794   9.488
 2175POPC   PO430420   0.835   3.534   9.509
 2175POPC   GL130421   0.515   3.575   9.182
 2175POPC   GL230422   0.291   3.312   9.308
 2175POPC   C1A30423   0.344   3.770   8.779
 2175POPC   D2A30424   0.567   3.809   8.366
 2175POPC   C3A30425   0.326   3.732   7.985
 2175POPC   C4A30426   0.519   3.770   7.574
 2175POPC   C1B30427   0.236   3.259   8.853
 2175POPC   C2B30428   0.297   3.366   8.420
 2175POPC   C3B30429   0.450   3.183   8.008
 2175POPC   C4B30430   0.364   3.283   7.587
 2176POPC   NC330431  34.024  12.640   9.429
 2176POPC   PO430432  34.735  12.797   9.455
 2176POPC   GL130433  34.616  12.831   9.063
 2176POPC   GL230434  34.626  12.504   9.028
 2176POPC   C1A30435  34.773  12.809   8.643
 2176POPC   D2A30436  34.613  12.995   8.273
 2176POPC   C3A30437  34.847  12.953   7.925
 2176POPC   C4A30438  34.493  12.745   7.739
 2176POPC   C1B30439  34.341  12.498   8.705
 2176POPC   C2B30440  34.553  12.450   8.309
 2176POPC   C3B30441  34.849  12.445   7.980
 2176POPC   C4B30442  34.978  12.566   7.581
 2177POPC   NC330443   0.370  13.536   9.744
 2177POPC   PO430444   0.357  14.066   9.420
 2177POPC   GL130445   0.329  13.725   9.161
 2177POPC   GL230446   0.311  13.387   9.246
 2177POPC   C1A30447   0.500  13.735   8.766
 2177POPC   D2A30448   0.351  13.896   8.389
 2177POPC   C3A30449   0.322  13.597   8.099
 2177POPC   C4A30450   0.553  13.587   7.721
 2177POPC   C1B30451   0.567  13.227   8.908
 2177POPC   C2B30452   0.643  13.339   8.457
 2177POPC   C3B30453   0.740  13.146   8.047
 2177POPC   C4B30454   0.745  13.139   7.616
 2178POPC   NC330455   7.207  36.517   9.589
 2178POPC   PO430456   7.619  37.037   9.297
 2178POPC   GL130457   7.496  36.682   9.125
 2178POPC   GL230458   7.793  36.456   9.211
 2178POPC   C1A30459   7.431  36.809   8.689
 2178POPC   D2A30460   7.261  36.733   8.302
 2178POPC   C3A30461   7.252  37.009   7.974
 2178POPC   C4A30462   7.340  36.846   7.592
 2178POPC   C1B30463   7.923  36.658   8.803
 2178POPC   C2B30464   7.773  36.590   8.366
 2178POPC   C3B30465   7.750  36.782   7.942
 2178POPC   C4B30466   7.708  37.248   7.802
 2179POPC   NC330467  16.255  25.588   9.449
 2179POPC   PO430468  15.815  26.030   9.586
 2179POPC   GL130469  15.764  26.118   9.156
 2179POPC   GL230470  16.097  25.982   9.133
 2179POPC   C1A30471  15.866  26.217   8.713
 2179POPC   D2A30472  15.756  26.013   8.333
 2179POPC   C3A30473  15.892  26.276   8.018
 2179POPC   C4A30474  15.882  26.246   7.590
 2179POPC   C1B30475  16.283  25.854   8.736
 2179POPC   C2B30476  16.257  25.992   8.306
 2179POPC   C3B30477  16.174  25.878   7.872
 2179POPC   C4B30478  16.334  25.978   7.445
 2180POPC   NC330479  41.296  21.208   9.695
 2180POPC   PO430480  41.585  21.776   9.638
 2180POPC   GL130481  41.369  21.540   9.281
 2180POPC   GL230482  41.404  21.188   9.184
 2180POPC   C1A30483  41.321  21.531   8.818
 2180POPC   D2A30484  41.458  21.674   8.396
 2180POPC   C3A30485  41.768  21.632   8.054
 2180POPC   C4A30486  41.569  21.638   7.640
 2180POPC   C1B30487  41.683  21.154   8.809
 2180POPC   C2B30488  41.714  21.179   8.360
 2180POPC   C3B30489  41.526  21.193   7.933
 2180POPC   C4B30490  41.488  21.173   7.474
 2181POPC   NC330491  23.611   7.639   9.425
 2181POPC   PO430492  23.577   7.001   9.251
 2181POPC   GL130493  23.668   7.306   8.992
 2181POPC   GL230494  23.982   7.205   8.937
 2181POPC   C1A30495  23.684   7.339   8.530
 2181POPC   D2A30496  23.469   7.574   8.225
 2181POPC   C3A30497  23.347   7.310   7.906
 2181POPC   C4A30498  23.085   6.952   7.926
 2181POPC   C1B30499  24.019   7.638   8.774
 2181POPC   C2B30500  24.044   7.789   8.358
 2181POPC   C3B30501  24.169   7.671   7.969
 2181POPC   C4B30502  24.004   7.298   7.812
 2182POPC   NC330503  18.041   3.902   9.402
 2182POPC   PO430504  18.436   4.537   9.457
 2182POPC   GL130505  18.278   4.318   9.144
 2182POPC   GL230506  18.151   4.612   9.036
 2182POPC   C1A30507  18.314   4.062   8.775
 2182POPC   D2A30508  18.530   3.996   8.385
 2182POPC   C3A30509  18.341   4.014   7.954
 2182POPC   C4A30510  18.521   4.031   7.475
 2182POPC   C1B30511  18.318   4.566   8.648
 2182POPC   C2B30512  18.141   4.386   8.310
 2182POPC   C3B30513  18.160   4.497   7.931
 2182POPC   C4B30514  18.549   4.439   7.760
 2183POPC   NC330515  39.499  13.464   9.514
 2183POPC   PO430516  38.943  13.932   9.540
 2183POPC   GL130517  39.026  13.568   9.275
 2183POPC   GL230518  38.692  13.462   9.254
 2183POPC   C1A30519  39.278  13.482   8.899
 2183POPC   D2A30520  39.426  13.805   8.616
 2183POPC   C3A30521  39.454  13.713   8.204
 2183POPC   C4A30522  39.575  13.761   7.782
 2183POPC   C1B30523  38.740  13.434   8.834
 2183POPC   C2B30524  38.983  13.535   8.482
 2183POPC   C3B30525  39.122  13.325   8.145
 2183POPC   C4B30526  39.159  13.469   7.768
 2184POPC   NC330527  12.822   2.788   9.667
 2184POPC   PO430528  12.279   2.909   9.252
 2184POPC   GL130529  12.498   2.747   8.956
 2184POPC   GL230530  12.806   2.719   9.157
 2184POPC   C1A30531  12.456   2.815   8.552
 2184POPC   D2A30532  12.776   2.659   8.289
 2184POPC   C3A30533  12.984   2.982   8.082
 2184POPC   C4A30534  12.643   3.148   7.790
 2184POPC   C1B30535  12.989   2.655   8.775
 2184POPC   C2B30536  13.181   2.372   8.499
 2184POPC   C3B30537  13.127   2.379   8.063
 2184POPC   C4B30538  12.859   2.633   7.758
 2185POPC   NC330539  44.871  32.251   9.478
 2185POPC   PO430540  44.319  31.935   9.498
 2185POPC   GL130541  44.460  32.127   9.123
 2185POPC   GL230542  44.692  32.401   9.030
 2185POPC   C1A30543  44.571  32.072   8.684
 2185POPC   D2A30544  44.366  32.231   8.362
 2185POPC   C3A30545  44.506  32.142   7.953
 2185POPC   C4A30546  44.408  32.065   7.524
 2185POPC   C1B30547  44.855  32.647   8.697
 2185POPC   C2B30548  44.801  32.490   8.303
 2185POPC   C3B30549  44.929  32.430   7.912
 2185POPC   C4B30550  44.927  32.669   7.526
 2186POPC   NC330551  44.298  20.952   9.520
 2186POPC   PO430552  44.849  20.664   9.531
 2186POPC   GL130553  44.666  20.814   9.165
 2186POPC   GL230554  44.382  20.564   9.099
 2186POPC   C1A30555  44.684  20.723   8.721
 2186POPC   D2A30556  44.447  20.543   8.372
 2186POPC   C3A30557  44.579  20.705   7.963
 2186POPC   C4A30558  44.989  20.702   7.722
 2186POPC   C1B30559  44.161  20.288   8.747
 2186POPC   C2B30560  44.034  20.254   8.293
 2186POPC   C3B30561  44.159  20.399   7.842
 2186POPC   C4B30562  44.222  20.188   7.426
 2187POPC   NC330563  41.803  42.819   9.347
 2187POPC   PO430564  41.190  43.226   9.454
 2187POPC   GL130565  41.544  43.263   9.163
 2187POPC   GL230566  41.777  43.568   9.169
 2187POPC   C1A30567  41.552  43.078   8.742
 2187POPC   D2A30568  41.243  42.985   8.416
 2187POPC   C3A30569  41.467  42.961   8.059
 2187POPC   C4A30570  41.662  42.827   7.679
 2187POPC   C1B30571  41.940  43.451   8.737
 2187POPC   C2B30572  41.986  43.453   8.278
 2187POPC   C3B30573  41.810  43.284   7.912
 2187POPC   C4B30574  41.456  43.287   7.600
 2188POPC   NC330575  11.041  13.679   9.496
 2188POPC   PO430576  10.366  13.537   9.493
 2188POPC   GL130577  10.700  13.601   9.140
 2188POPC   GL230578  10.499  13.860   8.990
 2188POPC   C1A30579  10.866  13.692   8.688
 2188POPC   D2A30580  10.614  13.871   8.358
 2188POPC   C3A30581  10.557  13.644   7.978
 2188POPC   C4A30582  10.843  13.657   7.592
 2188POPC   C1B30583  10.349  13.453   8.824
 2188POPC   C2B30584  10.141  13.229   8.539
 2188POPC   C3B30585  10.179  13.203   8.092
 2188POPC   C4B30586  10.042  13.548   7.877
 2189POPC   NC330587  26.650  17.310   9.604
 2189POPC   PO430588  27.145  17.742   9.646
 2189POPC   GL130589  26.939  17.576   9.251
 2189POPC   GL230590  27.008  17.225   9.204
 2189POPC   C1A30591  26.633  17.459   8.890
 2189POPC   D2A30592  26.605  17.306   8.440
 2189POPC   C3A30593  26.828  17.555   8.085
 2189POPC   C4A30594  26.658  17.642   7.651
 2189POPC   C1B30595  27.112  17.288   8.743
 2189POPC   C2B30596  27.116  17.157   8.291
 2189POPC   C3B30597  27.091  17.211   7.824
 2189POPC   C4B30598  27.001  17.256   7.400
 2190POPC   NC330599   2.824  25.900   9.541
 2190POPC   PO430600   2.500  26.444   9.450
 2190POPC   GL130601   2.571  26.147   9.124
 2190POPC   GL230602   2.908  26.128   9.060
 2190POPC   C1A30603   2.617  25.803   8.794
 2190POPC   D2A30604   2.933  25.801   8.471
 2190POPC   C3A30605   2.845  25.966   8.068
 2190POPC   C4A30606   2.761  25.814   7.641
 2190POPC   C1B30607   2.779  26.327   8.666
 2190POPC   C2B30608   2.914  26.476   8.265
 2190POPC   C3B30609   2.937  26.436   7.835
 2190POPC   C4B30610   2.528  26.324   7.768
 2191POPC   NC330611  23.370  34.339   9.412
 2191POPC   PO430612  22.892  34.874   9.636
 2191POPC   GL130613  22.863  34.590   9.208
 2191POPC   GL230614  22.556  34.416   9.084
 2191POPC   C1A30615  22.978  34.495   8.770
 2191POPC   D2A30616  22.925  34.646   8.358
 2191POPC   C3A30617  23.183  34.568   8.016
 2191POPC   C4A30618  23.002  34.813   7.692
 2191POPC   C1B30619  22.631  34.109   8.761
 2191POPC   C2B30620  22.693  34.177   8.337
 2191POPC   C3B30621  22.752  34.312   7.950
 2191POPC   C4B30622  22.930  34.310   7.563
 2192POPC   NC330623  27.238   4.960   9.256
 2192POPC   PO430624  26.591   5.390   9.363
 2192POPC   GL130625  26.795   5.115   9.095
 2192POPC   GL230626  27.049   5.311   8.976
 2192POPC   C1A30627  26.800   4.961   8.681
 2192POPC   D2A30628  26.563   5.210   8.398
 2192POPC   C3A30629  26.669   5.197   7.947
 2192POPC   C4A30630  26.756   4.782   7.790
 2192POPC   C1B30631  27.205   5.310   8.599
 2192POPC   C2B30632  27.071   5.179   8.261
 2192POPC   C3B30633  27.178   5.054   7.896
 2192POPC   C4B30634  27.083   5.333   7.592
 2193POPC   NC330635  36.630  13.336   9.470
 2193POPC   PO430636  36.935  13.913   9.499
 2193POPC   GL130637  36.902  13.838   9.100
 2193POPC   GL230638  36.596  13.702   9.130
 2193POPC   C1A30639  37.124  13.715   8.741
 2193POPC   D2A30640  37.274  13.610   8.344
 2193POPC   C3A30641  37.016  13.824   8.019
 2193POPC   C4A30642  36.951  13.651   7.621
 2193POPC   C1B30643  36.673  13.450   8.799
 2193POPC   C2B30644  36.732  13.580   8.381
 2193POPC   C3B30645  36.624  13.514   7.957
 2193POPC   C4B30646  36.456  13.530   7.510
 2194POPC   NC330647  37.759  25.868   9.599
 2194POPC   PO430648  37.555  26.493   9.580
 2194POPC   GL130649  37.573  26.204   9.244
 2194POPC   GL230650  37.943  26.125   9.200
 2194POPC   C1A30651  37.581  26.151   8.787
 2194POPC   D2A30652  37.658  26.394   8.405
 2194POPC   C3A30653  37.483  26.397   7.994
 2194POPC   C4A30654  37.727  26.273   7.641
 2194POPC   C1B30655  37.976  25.842   8.852
 2194POPC   C2B30656  37.747  25.810   8.451
 2194POPC   C3B30657  37.824  25.990   8.070
 2194POPC   C4B30658  38.039  25.851   7.675
 2195POPC   NC330659  10.606   3.164   9.464
 2195POPC   PO430660  10.618   3.827   9.428
 2195POPC   GL130661  10.639   3.534   9.114
 2195POPC   GL230662  10.967   3.417   9.129
 2195POPC   C1A30663  10.625   3.251   8.756
 2195POPC   D2A30664  10.531   3.438   8.353
 2195POPC   C3A30665  10.667   3.367   7.959
 2195POPC   C4A30666  10.534   3.534   7.587
 2195POPC   C1B30667  10.915   3.683   8.707
 2195POPC   C2B30668  10.987   3.684   8.244
 2195POPC   C3B30669  10.926   3.792   7.812
 2195POPC   C4B30670  10.860   3.863   7.354
 2196POPC   NC330671  22.868  33.393   9.438
 2196POPC   PO430672  23.053  32.778   9.681
 2196POPC   GL130673  23.079  32.922   9.222
 2196POPC   GL230674  23.099  33.246   9.030
 2196POPC   C1A30675  22.829  32.876   8.817
 2196POPC   D2A30676  22.634  33.188   8.549
 2196POPC   C3A30677  22.595  33.075   8.129
 2196POPC   C4A30678  22.847  33.113   7.774
 2196POPC   C1B30679  23.154  33.203   8.613
 2196POPC   C2B30680  23.061  32.875   8.336
 2196POPC   C3B30681  23.248  33.139   8.077
 2196POPC   C4B30682  23.414  33.131   7.690
 2197POPC   NC330683   7.740  21.136   9.382
 2197POPC   PO430684   7.033  21.056   9.394
 2197POPC   GL130685   7.337  21.133   9.073
 2197POPC   GL230686   7.524  21.455   9.039
 2197POPC   C1A30687   7.376  21.151   8.646
 2197POPC   D2A30688   7.299  21.353   8.284
 2197POPC   C3A30689   7.469  21.109   7.982
 2197POPC   C4A30690   7.518  21.171   7.584
 2197POPC   C1B30691   7.763  21.533   8.649
 2197POPC   C2B30692   7.835  21.473   8.225
 2197POPC   C3B30693   7.639  21.608   7.854
 2197POPC   C4B30694   7.748  21.591   7.415
 2198POPC   NC330695  32.884  16.991   9.862
 2198POPC   PO430696  32.275  16.849   9.545
 2198POPC   GL130697  32.300  16.779   9.127
 2198POPC   GL230698  32.528  17.009   9.030
 2198POPC   C1A30699  32.209  16.830   8.680
 2198POPC   D2A30700  32.311  16.596   8.311
 2198POPC   C3A30701  32.367  16.897   7.957
 2198POPC   C4A30702  32.118  16.996   7.587
 2198POPC   C1B30703  32.659  16.584   8.805
 2198POPC   C2B30704  32.802  16.429   8.398
 2198POPC   C3B30705  32.677  16.491   7.971
 2198POPC   C4B30706  32.467  16.523   7.578
 2199POPC   NC330707   7.322  31.361   9.496
 2199POPC   PO430708   7.933  31.214   9.491
 2199POPC   GL130709   7.706  31.493   9.151
 2199POPC   GL230710   7.375  31.644   9.086
 2199POPC   C1A30711   7.571  31.462   8.672
 2199POPC   D2A30712   7.386  31.275   8.277
 2199POPC   C3A30713   7.574  31.272   7.851
 2199POPC   C4A30714   7.366  31.209   7.404
 2199POPC   C1B30715   7.084  31.666   8.715
 2199POPC   C2B30716   7.269  31.742   8.332
 2199POPC   C3B30717   7.264  31.671   7.875
 2199POPC   C4B30718   7.333  31.710   7.432
 2200POPC   NC330719  25.750  22.718   9.506
 2200POPC   PO430720  26.399  22.924   9.424
 2200POPC   GL130721  26.120  22.695   9.144
 2200POPC   GL230722  26.357  22.562   8.942
 2200POPC   C1A30723  25.901  22.616   8.734
 2200POPC   D2A30724  25.775  22.841   8.338
 2200POPC   C3A30725  26.011  22.968   8.007
 2200POPC   C4A30726  26.035  22.726   7.642
 2200POPC   C1B30727  26.292  22.977   8.737
 2200POPC   C2B30728  26.461  23.030   8.319
 2200POPC   C3B30729  26.497  22.841   7.922
 2200POPC   C4B30730  26.363  23.097   7.590
 2201POPC   NC330731  10.263  37.472   9.380
 2201POPC   PO430732  10.771  37.901   9.426
 2201POPC   GL130733  10.599  37.919   9.038
 2201POPC   GL230734  10.267  37.872   9.069
 2201POPC   C1A30735  10.645  37.611   8.709
 2201POPC   D2A30736  10.482  37.421   8.314
 2201POPC   C3A30737  10.666  37.664   7.980
 2201POPC   C4A30738  10.806  37.987   7.686
 2201POPC   C1B30739  10.119  37.644   8.691
 2201POPC   C2B30740  10.002  37.669   8.246
 2201POPC   C3B30741  10.142  37.679   7.797
 2201POPC   C4B30742  10.168  37.657   7.325
 2202POPC   NC330743  17.694  43.136   9.511
 2202POPC   PO430744  17.094  43.365   9.619
 2202POPC   GL130745  17.321  43.296   9.208
 2202POPC   GL230746  17.367  42.943   9.146
 2202POPC   C1A30747  17.369  43.273   8.743
 2202POPC   D2A30748  17.387  43.038   8.369
 2202POPC   C3A30749  17.203  43.187   7.986
 2202POPC   C4A30750  17.415  43.199   7.609
 2202POPC   C1B30751  17.677  42.890   8.791
 2202POPC   C2B30752  17.886  43.106   8.440
 2202POPC   C3B30753  17.767  43.149   7.994
 2202POPC   C4B30754  17.916  42.905   7.657
 2203POPC   NC330755  25.107   3.831   9.264
 2203POPC   PO430756  25.493   4.281   9.572
 2203POPC   GL130757  25.268   4.451   9.135
 2203POPC   GL230758  25.078   4.199   8.916
 2203POPC   C1A30759  25.219   4.593   8.645
 2203POPC   D2A30760  25.223   4.265   8.297
 2203POPC   C3A30761  25.064   4.312   7.870
 2203POPC   C4A30762  25.206   4.362   7.435
 2203POPC   C1B30763  25.498   4.159   8.755
 2203POPC   C2B30764  25.645   4.002   8.366
 2203POPC   C3B30765  25.524   4.038   7.914
 2203POPC   C4B30766  25.681   4.125   7.507
 2204POPC   NC330767  37.389  36.462   9.225
 2204POPC   PO430768  37.366  35.830   9.429
 2204POPC   GL130769  37.651  35.998   9.136
 2204POPC   GL230770  37.942  36.172   9.269
 2204POPC   C1A30771  37.596  36.119   8.709
 2204POPC   D2A30772  37.468  35.987   8.326
 2204POPC   C3A30773  37.627  36.124   7.935
 2204POPC   C4A30774  37.495  35.924   7.547
 2204POPC   C1B30775  38.076  36.132   8.834
 2204POPC   C2B30776  37.985  36.208   8.377
 2204POPC   C3B30777  38.099  35.914   8.037
 2204POPC   C4B30778  38.073  36.042   7.607
 2205POPC   NC330779  41.110   9.250   9.886
 2205POPC   PO430780  40.777   8.726   9.745
 2205POPC   GL130781  40.786   8.788   9.227
 2205POPC   GL230782  40.624   8.682   8.980
 2205POPC   C1A30783  40.792   9.149   8.857
 2205POPC   D2A30784  41.044   9.423   8.544
 2205POPC   C3A30785  40.968   9.314   8.122
 2205POPC   C4A30786  40.902   9.150   7.715
 2205POPC   C1B30787  40.567   8.809   8.562
 2205POPC   C2B30788  40.858   8.811   8.243
 2205POPC   C3B30789  40.751   8.681   7.838
 2205POPC   C4B30790  40.511   8.875   7.560
 2206POPC   NC330791  43.584   6.110   9.550
 2206POPC   PO430792  42.901   5.733   9.534
 2206POPC   GL130793  43.209   5.845   9.203
 2206POPC   GL230794  43.271   6.185   9.168
 2206POPC   C1A30795  43.264   5.838   8.755
 2206POPC   D2A30796  43.440   5.748   8.377
 2206POPC   C3A30797  43.175   5.682   8.080
 2206POPC   C4A30798  43.050   5.716   7.668
 2206POPC   C1B30799  43.505   6.281   8.865
 2206POPC   C2B30800  43.449   6.273   8.435
 2206POPC   C3B30801  43.444   6.104   7.990
 2206POPC   C4B30802  43.384   6.089   7.516
 2207POPC   NC330803  13.185  20.157   9.384
 2207POPC   PO430804  13.660  19.825   9.620
 2207POPC   GL130805  13.621  19.684   9.205
 2207POPC   GL230806  13.246  19.687   9.137
 2207POPC   C1A30807  13.842  19.763   8.813
 2207POPC   D2A30808  13.659  19.789   8.395
 2207POPC   C3A30809  13.885  19.687   8.030
 2207POPC   C4A30810  13.843  19.829   7.616
 2207POPC   C1B30811  13.371  19.977   8.782
 2207POPC   C2B30812  13.477  20.264   8.407
 2207POPC   C3B30813  13.448  20.098   7.967
 2207POPC   C4B30814  13.140  19.793   7.821
 2208POPC   NC330815   6.192  20.454   9.688
 2208POPC   PO430816   6.798  20.199   9.607
 2208POPC   GL130817   6.590  20.546   9.363
 2208POPC   GL230818   6.600  20.296   9.114
 2208POPC   C1A30819   6.530  20.748   8.935
 2208POPC   D2A30820   6.581  20.483   8.567
 2208POPC   C3A30821   6.437  20.690   8.198
 2208POPC   C4A30822   6.633  20.781   7.801
 2208POPC   C1B30823   6.999  20.252   8.897
 2208POPC   C2B30824   7.100  20.375   8.505
 2208POPC   C3B30825   6.826  20.349   8.125
 2208POPC   C4B30826   6.936  20.373   7.717
 2209POPC   NC330827  34.307   5.834   9.658
 2209POPC   PO430828  34.920   6.081   9.767
 2209POPC   GL130829  34.738   5.942   9.366
 2209POPC   GL230830  34.508   6.163   9.228
 2209POPC   C1A30831  34.599   5.718   8.965
 2209POPC   D2A30832  34.476   5.759   8.487
 2209POPC   C3A30833  34.650   5.657   8.061
 2209POPC   C4A30834  34.453   5.588   7.653
 2209POPC   C1B30835  34.315   6.141   8.819
 2209POPC   C2B30836  34.239   6.252   8.410
 2209POPC   C3B30837  34.267   6.013   8.056
 2209POPC   C4B30838  34.310   6.085   7.659
 2210POPC   NC330839  36.261  25.281   9.434
 2210POPC   PO430840  35.572  25.480   9.542
 2210POPC   GL130841  35.752  25.368   9.129
 2210POPC   GL230842  35.841  25.023   9.094
 2210POPC   C1A30843  35.902  25.339   8.686
 2210POPC   D2A30844  36.035  25.191   8.268
 2210POPC   C3A30845  36.094  25.561   8.013
 2210POPC   C4A30846  35.886  25.569   7.634
 2210POPC   C1B30847  36.260  24.991   8.866
 2210POPC   C2B30848  36.492  25.147   8.524
 2210POPC   C3B30849  36.519  25.058   8.080
 2210POPC   C4B30850  36.210  25.158   7.735
 2211POPC   NC330851  43.371  30.367   9.283
 2211POPC   PO430852  42.856  30.626   9.620
 2211POPC   GL130853  42.926  30.749   9.157
 2211POPC   GL230854  42.680  31.015   9.073
 2211POPC   C1A30855  43.092  30.577   8.744
 2211POPC   D2A30856  43.150  30.285   8.392
 2211POPC   C3A30857  43.161  30.537   8.032
 2211POPC   C4A30858  43.084  30.801   7.679
 2211POPC   C1B30859  42.931  31.061   8.736
 2211POPC   C2B30860  42.994  30.969   8.340
 2211POPC   C3B30861  42.711  30.980   8.020
 2211POPC   C4B30862  42.748  31.184   7.629
 2212POPC   NC330863  33.140  15.836   9.475
 2212POPC   PO430864  33.011  16.572   9.659
 2212POPC   GL130865  32.880  16.203   9.241
 2212POPC   GL230866  32.784  15.828   9.102
 2212POPC   C1A30867  32.981  16.168   8.796
 2212POPC   D2A30868  32.929  15.916   8.446
 2212POPC   C3A30869  32.951  16.051   8.054
 2212POPC   C4A30870  32.972  15.932   7.644
 2212POPC   C1B30871  33.158  15.656   8.823
 2212POPC   C2B30872  33.377  15.656   8.423
 2212POPC   C3B30873  33.231  15.606   8.002
 2212POPC   C4B30874  33.409  15.714   7.610
 2213POPC   NC330875   7.720  11.079   9.434
 2213POPC   PO430876   7.292  11.655   9.472
 2213POPC   GL130877   7.154  11.338   9.135
 2213POPC   GL230878   7.311  10.979   9.046
 2213POPC   C1A30879   7.238  11.323   8.689
 2213POPC   D2A30880   7.056  11.207   8.314
 2213POPC   C3A30881   7.318  11.310   8.000
 2213POPC   C4A30882   7.235  11.229   7.624
 2213POPC   C1B30883   7.697  10.802   8.794
 2213POPC   C2B30884   7.925  10.816   8.371
 2213POPC   C3B30885   7.791  10.979   7.941
 2213POPC   C4B30886   7.740  11.394   7.700
 2214POPC   NC330887  10.104  19.977   9.583
 2214POPC   PO430888   9.447  19.700   9.528
 2214POPC   GL130889   9.494  19.858   9.153
 2214POPC   GL230890   9.843  19.871   9.142
 2214POPC   C1A30891   9.567  19.767   8.731
 2214POPC   D2A30892   9.869  19.812   8.433
 2214POPC   C3A30893   9.655  19.756   8.043
 2214POPC   C4A30894   9.748  19.611   7.657
 2214POPC   C1B30895   9.966  20.151   8.842
 2214POPC   C2B30896  10.034  20.314   8.451
 2214POPC   C3B30897   9.945  20.161   8.060
 2214POPC   C4B30898   9.979  20.208   7.623
 2215POPC   NC330899  28.538  24.013   9.432
 2215POPC   PO430900  28.231  23.478   9.700
 2215POPC   GL130901  28.182  23.710   9.228
 2215POPC   GL230902  27.982  23.982   9.083
 2215POPC   C1A30903  28.210  23.682   8.745
 2215POPC   D2A30904  28.393  23.529   8.379
 2215POPC   C3A30905  28.145  23.468   8.019
 2215POPC   C4A30906  28.373  23.593   7.635
 2215POPC   C1B30907  28.186  24.180   8.765
 2215POPC   C2B30908  28.077  23.994   8.365
 2215POPC   C3B30909  28.285  23.967   8.007
 2215POPC   C4B30910  28.216  24.123   7.639
 2216POPC   NC330911  29.113  11.766   9.412
 2216POPC   PO430912  29.365  11.104   9.486
 2216POPC   GL130913  29.222  11.162   9.060
 2216POPC   GL230914  29.023  11.463   9.037
 2216POPC   C1A30915  29.215  11.306   8.608
 2216POPC   D2A30916  29.402  11.528   8.261
 2216POPC   C3A30917  29.407  11.307   7.892
 2216POPC   C4A30918  29.095  11.159   7.735
 2216POPC   C1B30919  28.799  11.633   8.704
 2216POPC   C2B30920  28.908  11.621   8.321
 2216POPC   C3B30921  28.765  11.450   7.974
 2216POPC   C4B30922  28.772  11.480   7.538
 2217POPC   NC330923  11.764  19.071   9.782
 2217POPC   PO430924  11.123  19.299   9.575
 2217POPC   GL130925  11.444  19.110   9.283
 2217POPC   GL230926  11.158  19.033   9.114
 2217POPC   C1A30927  11.518  19.133   8.786
 2217POPC   D2A30928  11.391  18.887   8.386
 2217POPC   C3A30929  11.373  19.088   7.947
 2217POPC   C4A30930  11.284  19.323   7.499
 2217POPC   C1B30931  10.997  19.092   8.701
 2217POPC   C2B30932  11.011  19.227   8.289
 2217POPC   C3B30933  10.873  19.054   7.897
 2217POPC   C4B30934  11.110  18.862   7.556
 2218POPC   NC330935   3.304  39.157   9.346
 2218POPC   PO430936   3.967  38.964   9.520
 2218POPC   GL130937   3.787  39.180   9.163
 2218POPC   GL230938   3.703  39.549   9.205
 2218POPC   C1A30939   3.609  39.048   8.753
 2218POPC   D2A30940   3.633  38.807   8.357
 2218POPC   C3A30941   3.470  38.946   7.970
 2218POPC   C4A30942   3.708  39.190   7.670
 2218POPC   C1B30943   3.457  39.547   8.799
 2218POPC   C2B30944   3.574  39.398   8.376
 2218POPC   C3B30945   3.472  39.542   7.980
 2218POPC   C4B30946   3.212  39.350   7.730
 2219POPC   NC330947  34.128   0.541   9.188
 2219POPC   PO430948  33.486   0.534   9.532
 2219POPC   GL130949  33.613   0.497   9.120
 2219POPC   GL230950  33.740   0.181   9.161
 2219POPC   C1A30951  33.762   0.599   8.700
 2219POPC   D2A30952  34.029   0.572   8.399
 2219POPC   C3A30953  33.848   0.668   8.009
 2219POPC   C4A30954  33.967   0.498   7.621
 2219POPC   C1B30955  33.512   0.158   8.740
 2219POPC   C2B30956  33.530   0.385   8.308
 2219POPC   C3B30957  33.637   0.200   7.909
 2219POPC   C4B30958  33.681  44.777   7.779
 2220POPC   NC330959  33.885  31.907   9.590
 2220POPC   PO430960  33.459  32.438   9.735
 2220POPC   GL130961  33.666  32.331   9.344
 2220POPC   GL230962  33.550  32.019   9.180
 2220POPC   C1A30963  33.773  32.438   8.912
 2220POPC   D2A30964  33.700  32.539   8.485
 2220POPC   C3A30965  33.817  32.349   8.114
 2220POPC   C4A30966  33.715  32.417   7.706
 2220POPC   C1B30967  33.697  31.944   8.757
 2220POPC   C2B30968  33.921  31.888   8.355
 2220POPC   C3B30969  33.776  31.884   7.921
 2220POPC   C4B30970  33.749  31.976   7.477
 2221POPC   NC330971  29.149  24.516   9.430
 2221POPC   PO430972  28.463  24.469   9.444
 2221POPC   GL130973  28.749  24.691   9.149
 2221POPC   GL230974  28.831  24.343   9.024
 2221POPC   C1A30975  28.959  24.732   8.718
 2221POPC   D2A30976  29.023  24.384   8.383
 2221POPC   C3A30977  29.260  24.465   7.985
 2221POPC   C4A30978  29.059  24.452   7.557
 2221POPC   C1B30979  29.109  24.026   8.788
 2221POPC   C2B30980  29.277  23.901   8.383
 2221POPC   C3B30981  29.181  23.972   7.954
 2221POPC   C4B30982  29.415  24.109   7.603
 2222POPC   NC330983  19.115  22.593   9.265
 2222POPC   PO430984  18.562  22.949   9.524
 2222POPC   GL130985  18.771  22.952   9.130
 2222POPC   GL230986  18.504  22.978   8.911
 2222POPC   C1A30987  19.117  23.073   8.821
 2222POPC   D2A30988  19.200  22.892   8.414
 2222POPC   C3A30989  18.920  23.006   8.097
 2222POPC   C4A30990  19.124  23.057   7.723
 2222POPC   C1B30991  18.791  22.693   8.672
 2222POPC   C2B30992  18.910  22.472   8.296
 2222POPC   C3B30993  19.138  22.586   7.909
 2222POPC   C4B30994  19.353  22.384   7.558
 2223POPC   NC330995  32.547  30.085   9.622
 2223POPC   PO430996  32.036  29.900   9.854
 2223POPC   GL130997  32.109  29.896   9.361
 2223POPC   GL230998  32.437  29.875   9.186
 2223POPC   C1A30999  31.997  29.808   8.894
 2223POPC   D2A31000  31.781  29.720   8.495
 2223POPC   C3A31001  31.956  29.971   8.176
 2223POPC   C4A31002  31.969  29.972   7.734
 2223POPC   C1B31003  32.236  30.234   8.970
 2223POPC   C2B31004  32.219  30.261   8.536
 2223POPC   C3B31005  32.389  30.251   8.140
 2223POPC   C4B31006  32.267  30.387   7.744
 2224POPC   NC331007  14.152  16.351   9.539
 2224POPC   PO431008  14.044  16.958   9.350
 2224POPC   GL131009  14.092  16.734   9.047
 2224POPC   GL231010  14.292  16.441   9.060
 2224POPC   C1A31011  14.281  16.831   8.691
 2224POPC   D2A31012  14.429  16.948   8.306
 2224POPC   C3A31013  14.388  16.723   7.927
 2224POPC   C4A31014  14.280  16.878   7.546
 2224POPC   C1B31015  14.475  16.333   8.678
 2224POPC   C2B31016  14.620  16.398   8.258
 2224POPC   C3B31017  14.733  16.339   7.824
 2224POPC   C4B31018  14.626  16.514   7.429
 2225POPC   NC331019  25.116  24.728   9.451
 2225POPC   PO431020  25.441  24.142   9.502
 2225POPC   GL131021  25.349  24.388   9.162
 2225POPC   GL231022  25.629  24.536   9.097
 2225POPC   C1A31023  25.086  24.562   8.822
 2225POPC   D2A31024  25.107  24.906   8.534
 2225POPC   C3A31025  25.276  24.737   8.168
 2225POPC   C4A31026  25.146  24.744   7.743
 2225POPC   C1B31027  25.600  24.660   8.664
 2225POPC   C2B31028  25.795  24.837   8.284
 2225POPC   C3B31029  25.684  24.811   7.875
 2225POPC   C4B31030  25.519  24.395   7.812
 2226POPC   NC331031  27.371  39.401   9.647
 2226POPC   PO431032  26.742  39.428   9.501
 2226POPC   GL131033  26.996  39.201   9.207
 2226POPC   GL231034  26.704  39.171   9.045
 2226POPC   C1A31035  27.118  39.331   8.762
 2226POPC   D2A31036  26.976  39.305   8.313
 2226POPC   C3A31037  27.050  39.247   7.849
 2226POPC   C4A31038  26.815  38.911   7.642
 2226POPC   C1B31039  26.527  39.257   8.684
 2226POPC   C2B31040  26.491  39.415   8.311
 2226POPC   C3B31041  26.501  39.254   7.951
 2226POPC   C4B31042  26.618  39.379   7.574
 2227POPC   NC331043  36.593  40.130   9.486
 2227POPC   PO431044  35.919  39.964   9.492
 2227POPC   GL131045  35.908  40.084   9.081
 2227POPC   GL231046  36.213  40.241   9.155
 2227POPC   C1A31047  35.962  39.933   8.637
 2227POPC   D2A31048  35.889  39.695   8.226
 2227POPC   C3A31049  35.860  39.941   7.907
 2227POPC   C4A31050  35.947  40.298   7.816
 2227POPC   C1B31051  36.417  39.932   8.895
 2227POPC   C2B31052  36.486  40.022   8.491
 2227POPC   C3B31053  36.312  40.062   8.105
 2227POPC   C4B31054  36.374  39.890   7.691
 2228POPC   NC331055  13.550  29.029   9.424
 2228POPC   PO431056  13.892  29.420   9.189
 2228POPC   GL131057  13.823  29.011   8.988
 2228POPC   GL231058  14.158  28.896   9.027
 2228POPC   C1A31059  13.570  28.980   8.618
 2228POPC   D2A31060  13.522  29.423   8.416
 2228POPC   C3A31061  13.588  29.390   7.973
 2228POPC   C4A31062  13.454  28.987   7.777
 2228POPC   C1B31063  14.031  28.655   8.664
 2228POPC   C2B31064  13.829  28.650   8.267
 2228POPC   C3B31065  13.941  28.883   7.891
 2228POPC   C4B31066  13.975  29.278   7.648
 2229POPC   NC331067  21.627  42.122   9.432
 2229POPC   PO431068  21.390  42.741   9.301
 2229POPC   GL131069  21.451  42.409   8.998
 2229POPC   GL231070  21.282  42.102   9.081
 2229POPC   C1A31071  21.508  42.346   8.535
 2229POPC   D2A31072  21.632  42.387   8.125
 2229POPC   C3A31073  21.252  42.329   7.867
 2229POPC   C4A31074  21.186  42.553   7.479
 2229POPC   C1B31075  21.613  41.930   8.767
 2229POPC   C2B31076  21.682  41.894   8.286
 2229POPC   C3B31077  21.580  41.960   7.823
 2229POPC   C4B31078  21.383  41.855   7.421
 2230POPC   NC331079  18.776   0.092   9.521
 2230POPC   PO431080  19.149  44.561   9.621
 2230POPC   GL131081  18.959  44.585   9.227
 2230POPC   GL231082  19.169  44.887   9.137
 2230POPC   C1A31083  18.772  44.762   8.844
 2230POPC   D2A31084  18.941  44.817   8.455
 2230POPC   C3A31085  18.728  44.684   8.115
 2230POPC   C4A31086  18.733  44.883   7.745
 2230POPC   C1B31087  19.259  44.564   8.794
 2230POPC   C2B31088  19.207  44.374   8.389
 2230POPC   C3B31089  19.212  44.554   7.982
 2230POPC   C4B31090  19.282  44.299   7.653
 2231POPC   NC331091   0.857  21.882   9.775
 2231POPC   PO431092   0.247  22.004   9.379
 2231POPC   GL131093   0.380  22.144   9.042
 2231POPC   GL231094   0.461  22.492   9.092
 2231POPC   C1A31095   0.335  21.890   8.696
 2231POPC   D2A31096   0.621  21.748   8.396
 2231POPC   C3A31097   0.419  21.829   8.010
 2231POPC   C4A31098   0.568  21.934   7.633
 2231POPC   C1B31099   0.504  22.468   8.662
 2231POPC   C2B31100   0.424  22.250   8.342
 2231POPC   C3B31101   0.534  22.337   7.954
 2231POPC   C4B31102   0.294  22.356   7.594
 2232POPC   NC331103   3.380  25.073   9.627
 2232POPC   PO431104   3.790  25.478   9.531
 2232POPC   GL131105   3.495  25.315   9.159
 2232POPC   GL231106   3.143  25.196   9.183
 2232POPC   C1A31107   3.394  25.178   8.706
 2232POPC   D2A31108   3.629  25.090   8.316
 2232POPC   C3A31109   3.552  25.212   7.889
 2232POPC   C4A31110   3.439  25.078   7.478
 2232POPC   C1B31111   2.944  25.387   8.832
 2232POPC   C2B31112   2.962  25.278   8.411
 2232POPC   C3B31113   2.944  25.461   8.027
 2232POPC   C4B31114   3.184  25.499   7.684
 2233POPC   NC331115  24.656   2.053   9.537
 2233POPC   PO431116  24.131   1.607   9.414
 2233POPC   GL131117  24.176   1.928   9.083
 2233POPC   GL231118  24.363   2.232   9.124
 2233POPC   C1A31119  24.254   2.108   8.652
 2233POPC   D2A31120  24.268   2.177   8.236
 2233POPC   C3A31121  24.468   1.868   8.007
 2233POPC   C4A31122  24.325   1.813   7.614
 2233POPC   C1B31123  24.719   2.183   8.839
 2233POPC   C2B31124  24.776   2.130   8.386
 2233POPC   C3B31125  24.717   2.294   7.964
 2233POPC   C4B31126  24.698   2.171   7.576
 2234POPC   NC331127   2.123   2.535   9.400
 2234POPC   PO431128   1.467   2.758   9.432
 2234POPC   GL131129   1.712   2.661   9.106
 2234POPC   GL231130   1.928   2.957   9.099
 2234POPC   C1A31131   1.812   2.522   8.713
 2234POPC   D2A31132   1.859   2.778   8.334
 2234POPC   C3A31133   1.708   2.603   7.970
 2234POPC   C4A31134   1.922   2.482   7.608
 2234POPC   C1B31135   2.206   2.909   8.722
 2234POPC   C2B31136   2.354   2.885   8.285
 2234POPC   C3B31137   2.145   2.965   7.869
 2234POPC   C4B31138   2.147   2.974   7.407
 2235POPC   NC331139  15.485  40.697   9.600
 2235POPC   PO431140  14.811  40.754   9.575
 2235POPC   GL131141  14.993  40.794   9.194
 2235POPC   GL231142  15.294  40.945   9.177
 2235POPC   C1A31143  15.026  40.685   8.767
 2235POPC   D2A31144  14.809  40.671   8.381
 2235POPC   C3A31145  15.017  40.614   8.003
 2235POPC   C4A31146  15.392  40.629   7.755
 2235POPC   C1B31147  15.337  41.122   8.778
 2235POPC   C2B31148  15.149  41.058   8.406
 2235POPC   C3B31149  15.290  41.063   8.013
 2235POPC   C4B31150  15.746  41.095   7.988
 2236POPC   NC331151   0.980  20.901   9.625
 2236POPC   PO431152   1.238  21.585   9.483
 2236POPC   GL131153   1.003  21.363   9.127
 2236POPC   GL231154   0.853  21.595   8.909
 2236POPC   C1A31155   1.087  21.225   8.655
 2236POPC   D2A31156   1.068  20.987   8.243
 2236POPC   C3A31157   1.367  21.091   7.900
 2236POPC   C4A31158   1.241  21.329   7.526
 2236POPC   C1B31159   1.249  21.698   8.797
 2236POPC   C2B31160   1.156  21.742   8.380
 2236POPC   C3B31161   1.233  21.610   7.969
 2236POPC   C4B31162   1.049  21.784   7.610
 2237POPC   NC331163  31.679  26.969   9.640
 2237POPC   PO431164  31.106  26.658   9.651
 2237POPC   GL131165  31.352  26.803   9.267
 2237POPC   GL231166  31.656  26.953   9.137
 2237POPC   C1A31167  31.252  26.873   8.823
 2237POPC   D2A31168  31.001  26.837   8.437
 2237POPC   C3A31169  31.291  26.715   8.150
 2237POPC   C4A31170  31.344  26.663   7.729
 2237POPC   C1B31171  31.657  27.153   8.728
 2237POPC   C2B31172  31.450  27.245   8.323
 2237POPC   C3B31173  31.514  27.117   7.907
 2237POPC   C4B31174  31.824  26.845   7.706
 2238POPC   NC331175   4.107  39.408   9.552
 2238POPC   PO431176   4.670  39.048   9.583
 2238POPC   GL131177   4.370  39.108   9.197
 2238POPC   GL231178   4.174  38.831   9.082
 2238POPC   C1A31179   4.130  39.288   8.815
 2238POPC   D2A31180   4.262  39.476   8.422
 2238POPC   C3A31181   4.200  39.274   8.042
 2238POPC   C4A31182   4.152  39.457   7.673
 2238POPC   C1B31183   4.420  38.830   8.740
 2238POPC   C2B31184   4.161  38.905   8.401
 2238POPC   C3B31185   3.995  38.809   7.995
 2238POPC   C4B31186   4.126  38.934   7.603
 2239POPC   NC331187  44.344  33.304   9.279
 2239POPC   PO431188  43.900  32.815   9.470
 2239POPC   GL131189  44.089  32.879   9.098
 2239POPC   GL231190  44.224  32.581   9.054
 2239POPC   C1A31191  43.954  33.080   8.711
 2239POPC   D2A31192  43.762  33.246   8.348
 2239POPC   C3A31193  43.822  33.013   7.972
 2239POPC   C4A31194  43.889  33.209   7.586
 2239POPC   C1B31195  44.115  32.599   8.651
 2239POPC   C2B31196  44.144  32.666   8.210
 2239POPC   C3B31197  44.129  32.537   7.782
 2239POPC   C4B31198  44.221  32.843   7.487
 2240POPC   NC331199   4.612  29.824   9.510
 2240POPC   PO431200   4.099  30.196   9.514
 2240POPC   GL131201   4.235  29.969   9.115
 2240POPC   GL231202   4.529  29.779   9.035
 2240POPC   C1A31203   4.224  29.881   8.660
 2240POPC   D2A31204   4.478  30.057   8.338
 2240POPC   C3A31205   4.328  29.988   7.936
 2240POPC   C4A31206   4.079  29.710   7.724
 2240POPC   C1B31207   4.764  29.880   8.728
 2240POPC   C2B31208   4.811  29.662   8.398
 2240POPC   C3B31209   4.792  29.764   8.009
 2240POPC   C4B31210   4.722  29.536   7.658
 2241POPC   NC331211  24.631  38.881   9.458
 2241POPC   PO431212  24.463  39.570   9.526
 2241POPC   GL131213  24.662  39.335   9.230
 2241POPC   GL231214  24.369  39.177   9.139
 2241POPC   C1A31215  24.740  39.363   8.807
 2241POPC   D2A31216  24.749  39.134   8.446
 2241POPC   C3A31217  24.718  39.370   8.079
 2241POPC   C4A31218  24.697  39.238   7.662
 2241POPC   C1B31219  24.219  39.403   8.795
 2241POPC   C2B31220  24.244  39.297   8.373
 2241POPC   C3B31221  24.252  39.198   7.955
 2241POPC   C4B31222  24.120  39.466   7.627
 2242POPC   NC331223  40.134  12.152   9.457
 2242POPC   PO431224  39.754  12.470   8.987
 2242POPC   GL131225  39.815  12.007   9.056
 2242POPC   GL231226  40.181  11.882   9.038
 2242POPC   C1A31227  39.829  11.884   8.650
 2242POPC   D2A31228  39.829  12.274   8.386
 2242POPC   C3A31229  39.948  12.215   7.960
 2242POPC   C4A31230  39.911  11.805   7.854
 2242POPC   C1B31231  40.309  12.042   8.668
 2242POPC   C2B31232  40.191  11.908   8.282
 2242POPC   C3B31233  40.410  11.768   7.917
 2242POPC   C4B31234  40.431  12.066   7.638
 2243POPC   NC331235   2.427  43.229   9.407
 2243POPC   PO431236   2.992  42.966   9.674
 2243POPC   GL131237   3.058  42.886   9.215
 2243POPC   GL231238   2.747  42.974   9.057
 2243POPC   C1A31239   3.185  42.874   8.765
 2243POPC   D2A31240   2.913  42.940   8.383
 2243POPC   C3A31241   3.071  43.035   7.957
 2243POPC   C4A31242   2.791  43.003   7.601
 2243POPC   C1B31243   2.950  43.329   8.821
 2243POPC   C2B31244   2.830  43.478   8.412
 2243POPC   C3B31245   2.653  43.347   8.022
 2243POPC   C4B31246   2.901  43.485   7.691
 2244POPC   NC331247  42.280   0.741   9.669
 2244POPC   PO431248  42.916   0.659   9.499
 2244POPC   GL131249  42.496   0.618   9.221
 2244POPC   GL231250  42.162   0.415   9.230
 2244POPC   C1A31251  42.423   0.484   8.791
 2244POPC   D2A31252  42.578   0.650   8.409
 2244POPC   C3A31253  42.409   0.478   8.045
 2244POPC   C4A31254  42.329   0.618   7.657
 2244POPC   C1B31255  41.973   0.231   8.822
 2244POPC   C2B31256  41.797   0.087   8.407
 2244POPC   C3B31257  41.805   0.039   7.964
 2244POPC   C4B31258  42.113   0.160   7.706
 2245POPC   NC331259  12.755  32.961   9.678
 2245POPC   PO431260  13.184  33.473   9.443
 2245POPC   GL131261  12.923  33.338   9.077
 2245POPC   GL231262  12.543  33.267   9.140
 2245POPC   C1A31263  13.039  33.196   8.669
 2245POPC   D2A31264  12.955  33.045   8.251
 2245POPC   C3A31265  12.725  33.280   7.980
 2245POPC   C4A31266  12.870  33.435   7.626
 2245POPC   C1B31267  12.597  32.934   8.813
 2245POPC   C2B31268  12.496  32.838   8.377
 2245POPC   C3B31269  12.548  32.804   7.924
 2245POPC   C4B31270  12.524  33.082   7.558
 2246POPC   NC331271   7.653  42.924   9.494
 2246POPC   PO431272   7.392  43.550   9.394
 2246POPC   GL131273   7.590  43.290   9.112
 2246POPC   GL231274   7.412  42.965   9.074
 2246POPC   C1A31275   7.436  43.321   8.716
 2246POPC   D2A31276   7.090  43.403   8.528
 2246POPC   C3A31277   7.191  43.416   8.118
 2246POPC   C4A31278   7.174  43.437   7.689
 2246POPC   C1B31279   7.531  42.812   8.700
 2246POPC   C2B31280   7.397  42.990   8.294
 2246POPC   C3B31281   7.461  43.000   7.846
 2246POPC   C4B31282   7.424  42.704   7.502
 2247POPC   NC331283  14.540  40.388   9.490
 2247POPC   PO431284  14.295  39.849   9.619
 2247POPC   GL131285  14.195  39.935   9.148
 2247POPC   GL231286  14.369  40.219   9.038
 2247POPC   C1A31287  14.238  39.857   8.679
 2247POPC   D2A31288  14.370  39.763   8.243
 2247POPC   C3A31289  14.075  39.760   7.896
 2247POPC   C4A31290  14.123  39.915   7.480
 2247POPC   C1B31291  14.587  40.285   8.654
 2247POPC   C2B31292  14.694  40.184   8.217
 2247POPC   C3B31293  14.414  40.160   7.885
 2247POPC   C4B31294  14.344  40.354   7.511
 2248POPC   NC331295   9.314  21.225   9.655
 2248POPC   PO431296   8.579  21.248   9.654
 2248POPC   GL131297   8.763  21.198   9.233
 2248POPC   GL231298   9.084  21.366   9.179
 2248POPC   C1A31299   8.942  21.087   8.806
 2248POPC   D2A31300   9.210  21.221   8.481
 2248POPC   C3A31301   9.019  21.109   8.096
 2248POPC   C4A31302   8.813  21.116   7.718
 2248POPC   C1B31303   8.775  21.573   8.876
 2248POPC   C2B31304   8.748  21.492   8.438
 2248POPC   C3B31305   9.039  21.627   8.108
 2248POPC   C4B31306   9.109  21.534   7.649
 2249POPC   NC331307   3.781  34.133   9.501
 2249POPC   PO431308   3.402  33.573   9.418
 2249POPC   GL131309   3.784  33.714   9.186
 2249POPC   GL231310   3.986  34.056   9.066
 2249POPC   C1A31311   3.673  33.751   8.782
 2249POPC   D2A31312   3.417  33.897   8.478
 2249POPC   C3A31313   3.517  33.742   8.071
 2249POPC   C4A31314   3.285  33.895   7.734
 2249POPC   C1B31315   3.811  34.231   8.692
 2249POPC   C2B31316   3.853  34.081   8.278
 2249POPC   C3B31317   3.813  34.093   7.834
 2249POPC   C4B31318   4.081  33.956   7.459
 2250POPC   NC331319   2.963  26.726   9.568
 2250POPC   PO431320   2.410  27.087   9.565
 2250POPC   GL131321   2.693  26.982   9.201
 2250POPC   GL231322   2.829  26.632   9.099
 2250POPC   C1A31323   2.581  26.885   8.754
 2250POPC   D2A31324   2.361  26.676   8.434
 2250POPC   C3A31325   2.388  26.943   8.082
 2250POPC   C4A31326   2.662  26.857   7.749
 2250POPC   C1B31327   3.083  26.927   8.852
 2250POPC   C2B31328   3.008  27.065   8.420
 2250POPC   C3B31329   3.099  26.899   8.005
 2250POPC   C4B31330   3.398  26.843   7.627
 2251POPC   NC331331   1.720  28.509   9.503
 2251POPC   PO431332   1.152  28.165   9.724
 2251POPC   GL131333   1.177  28.191   9.228
 2251POPC   GL231334   1.318  27.891   9.053
 2251POPC   C1A31335   1.030  28.248   8.778
 2251POPC   D2A31336   0.901  28.440   8.362
 2251POPC   C3A31337   1.035  28.442   7.914
 2251POPC   C4A31338   1.018  28.582   7.441
 2251POPC   C1B31339   1.469  28.003   8.664
 2251POPC   C2B31340   1.365  28.215   8.306
 2251POPC   C3B31341   1.570  28.297   7.934
 2251POPC   C4B31342   1.453  28.351   7.521
 2252POPC   NC331343  13.244   0.915   9.340
 2252POPC   PO431344  13.805   0.571   9.500
 2252POPC   GL131345  13.602   0.578   9.110
 2252POPC   GL231346  13.707   0.914   9.114
 2252POPC   C1A31347  13.574   0.398   8.671
 2252POPC   D2A31348  13.310   0.467   8.296
 2252POPC   C3A31349  13.477   0.486   7.889
 2252POPC   C4A31350  13.765   0.193   7.755
 2252POPC   C1B31351  13.869   0.816   8.725
 2252POPC   C2B31352  13.743   0.775   8.322
 2252POPC   C3B31353  13.880   0.987   7.993
 2252POPC   C4B31354  13.815   0.783   7.613
 2253POPC   NC331355  14.397  33.333   9.428
 2253POPC   PO431356  13.895  32.799   9.641
 2253POPC   GL131357  14.279  32.862   9.266
 2253POPC   GL231358  14.206  33.135   9.005
 2253POPC   C1A31359  14.489  32.749   8.827
 2253POPC   D2A31360  14.470  32.988   8.426
 2253POPC   C3A31361  14.507  32.825   8.027
 2253POPC   C4A31362  14.183  32.728   7.744
 2253POPC   C1B31363  14.626  33.293   8.791
 2253POPC   C2B31364  14.608  33.498   8.406
 2253POPC   C3B31365  14.425  33.363   8.050
 2253POPC   C4B31366  14.383  33.221   7.658
 2254POPC   NC331367   7.439  29.714   9.351
 2254POPC   PO431368   7.060  29.140   9.368
 2254POPC   GL131369   7.344  29.110   9.023
 2254POPC   GL231370   7.664  29.293   9.092
 2254POPC   C1A31371   7.339  29.138   8.578
 2254POPC   D2A31372   7.582  28.972   8.220
 2254POPC   C3A31373   7.319  28.830   7.900
 2254POPC   C4A31374   7.321  29.064   7.510
 2254POPC   C1B31375   7.573  29.600   8.730
 2254POPC   C2B31376   7.579  29.484   8.305
 2254POPC   C3B31377   7.314  29.358   7.967
 2254POPC   C4B31378   7.647  29.404   7.705
 2255POPC   NC331379   8.035  11.833   9.508
 2255POPC   PO431380   8.720  11.767   9.693
 2255POPC   GL131381   8.479  11.766   9.215
 2255POPC   GL231382   8.144  11.755   9.032
 2255POPC   C1A31383   8.483  12.003   8.765
 2255POPC   D2A31384   8.253  12.284   8.493
 2255POPC   C3A31385   8.237  12.188   8.065
 2255POPC   C4A31386   8.146  12.387   7.720
 2255POPC   C1B31387   7.953  11.868   8.636
 2255POPC   C2B31388   7.830  11.752   8.196
 2255POPC   C3B31389   7.970  11.869   7.773
 2255POPC   C4B31390   7.899  11.831   7.313
 2256POPC   NC331391  15.844  29.083   9.612
 2256POPC   PO431392  16.143  29.666   9.657
 2256POPC   GL131393  16.120  29.370   9.274
 2256POPC   GL231394  16.217  29.020   9.248
 2256POPC   C1A31395  15.814  29.218   8.933
 2256POPC   D2A31396  15.648  29.311   8.493
 2256POPC   C3A31397  15.812  29.284   8.059
 2256POPC   C4A31398  15.857  28.999   7.715
 2256POPC   C1B31399  16.309  29.173   8.815
 2256POPC   C2B31400  16.209  29.312   8.387
 2256POPC   C3B31401  16.314  29.172   7.944
 2256POPC   C4B31402  16.347  28.972   7.520
 2257POPC   NC331403  22.309   3.299   9.656
 2257POPC   PO431404  21.803   3.662   9.552
 2257POPC   GL131405  22.001   3.519   9.205
 2257POPC   GL231406  22.351   3.489   9.192
 2257POPC   C1A31407  22.040   3.396   8.788
 2257POPC   D2A31408  22.197   3.389   8.397
 2257POPC   C3A31409  21.971   3.440   8.020
 2257POPC   C4A31410  21.916   3.202   7.639
 2257POPC   C1B31411  22.450   3.723   8.810
 2257POPC   C2B31412  22.506   3.787   8.403
 2257POPC   C3B31413  22.492   3.554   8.021
 2257POPC   C4B31414  22.328   3.522   7.653
 2258POPC   NC331415  40.553  17.873   9.424
 2258POPC   PO431416  40.971  17.305   9.483
 2258POPC   GL131417  40.722  17.437   9.198
 2258POPC   GL231418  40.993  17.550   8.989
 2258POPC   C1A31419  40.571  17.347   8.815
 2258POPC   D2A31420  40.741  17.552   8.442
 2258POPC   C3A31421  40.493  17.718   8.052
 2258POPC   C4A31422  40.569  17.375   7.727
 2258POPC   C1B31423  40.840  17.923   8.785
 2258POPC   C2B31424  40.885  18.024   8.328
 2258POPC   C3B31425  40.996  17.672   8.016
 2258POPC   C4B31426  41.046  17.634   7.564
 2259POPC   NC331427  42.626  42.747   9.425
 2259POPC   PO431428  42.097  43.218   9.390
 2259POPC   GL131429  42.452  43.182   9.143
 2259POPC   GL231430  42.454  42.870   8.974
 2259POPC   C1A31431  42.447  43.304   8.723
 2259POPC   D2A31432  42.377  43.114   8.340
 2259POPC   C3A31433  42.422  43.327   7.953
 2259POPC   C4A31434  42.550  43.011   7.677
 2259POPC   C1B31435  42.069  42.947   8.738
 2259POPC   C2B31436  41.894  42.951   8.329
 2259POPC   C3B31437  42.109  42.891   7.928
 2259POPC   C4B31438  42.151  42.759   7.505
 2260POPC   NC331439   2.515  44.163   9.580
 2260POPC   PO431440   2.977  44.770   9.525
 2260POPC   GL131441   2.981  44.614   9.154
 2260POPC   GL231442   2.635  44.520   9.197
 2260POPC   C1A31443   3.152  44.689   8.721
 2260POPC   D2A31444   3.130  44.472   8.318
 2260POPC   C3A31445   2.890  44.704   7.950
 2260POPC   C4A31446   2.797  44.459   7.568
 2260POPC   C1B31447   2.639  44.686   8.791
 2260POPC   C2B31448   2.635  44.515   8.392
 2260POPC   C3B31449   2.538  44.331   7.993
 2260POPC   C4B31450   2.288  44.524   7.665
 2261POPC   NC331451  39.555  22.126   9.509
 2261POPC   PO431452  39.030  22.425   9.751
 2261POPC   GL131453  39.153  22.186   9.216
 2261POPC   GL231454  39.186  22.491   8.932
 2261POPC   C1A31455  39.289  22.009   8.752
 2261POPC   D2A31456  39.460  22.211   8.345
 2261POPC   C3A31457  39.383  21.955   7.953
 2261POPC   C4A31458  38.948  21.818   7.857
 2261POPC   C1B31459  38.904  22.333   8.663
 2261POPC   C2B31460  38.936  22.088   8.330
 2261POPC   C3B31461  39.077  22.359   8.036
 2261POPC   C4B31462  39.468  22.545   7.874
 2262POPC   NC331463  10.895  29.004   9.459
 2262POPC   PO431464  10.275  29.446   9.443
 2262POPC   GL131465  10.267  29.247   9.052
 2262POPC   GL231466  10.522  29.015   9.097
 2262POPC   C1A31467  10.429  29.249   8.620
 2262POPC   D2A31468  10.788  29.289   8.321
 2262POPC   C3A31469  10.494  29.155   8.055
 2262POPC   C4A31470  10.436  28.872   7.753
 2262POPC   C1B31471  10.838  28.981   8.768
 2262POPC   C2B31472  10.694  28.790   8.351
 2262POPC   C3B31473  10.735  28.516   7.988
 2262POPC   C4B31474  10.758  28.418   7.521
 2263POPC   NC331475  13.261   2.272   9.336
 2263POPC   PO431476  13.889   2.086   9.545
 2263POPC   GL131477  13.724   1.969   9.138
 2263POPC   GL231478  13.409   1.825   9.154
 2263POPC   C1A31479  13.585   2.161   8.755
 2263POPC   D2A31480  13.464   1.974   8.341
 2263POPC   C3A31481  13.581   2.165   7.961
 2263POPC   C4A31482  13.847   2.134   7.590
 2263POPC   C1B31483  13.189   1.813   8.766
 2263POPC   C2B31484  13.189   1.527   8.424
 2263POPC   C3B31485  13.494   1.484   8.104
 2263POPC   C4B31486  13.514   1.732   7.703
 2264POPC   NC331487  43.105   1.110   9.560
 2264POPC   PO431488  42.573   1.598   9.475
 2264POPC   GL131489  42.898   1.366   9.198
 2264POPC   GL231490  42.826   1.016   9.132
 2264POPC   C1A31491  43.126   1.451   8.817
 2264POPC   D2A31492  43.037   1.397   8.383
 2264POPC   C3A31493  43.277   1.488   7.997
 2264POPC   C4A31494  43.286   1.522   7.538
 2264POPC   C1B31495  43.193   0.944   8.881
 2264POPC   C2B31496  43.336   0.978   8.441
 2264POPC   C3B31497  43.103   1.010   8.054
 2264POPC   C4B31498  43.278   1.023   7.663
 2265POPC   NC331499  18.210  44.292   9.441
 2265POPC   PO431500  18.294   0.008   9.525
 2265POPC   GL131501  18.419  44.716   9.214
 2265POPC   GL231502  18.065  44.701   9.121
 2265POPC   C1A31503  18.376  44.429   8.817
 2265POPC   D2A31504  18.284  44.573   8.400
 2265POPC   C3A31505  18.360  44.322   8.051
 2265POPC   C4A31506  18.259  44.532   7.687
 2265POPC   C1B31507  18.291  44.934   8.765
 2265POPC   C2B31508  18.466   0.063   8.384
 2265POPC   C3B31509  18.282  44.947   7.996
 2265POPC   C4B31510  18.289   0.056   7.570
 2266POPC   NC331511  40.031  32.690   9.470
 2266POPC   PO431512  40.241  33.383   9.555
 2266POPC   GL131513  40.244  33.054   9.208
 2266POPC   GL231514  40.159  33.207   8.931
 2266POPC   C1A31515  40.316  32.754   8.802
 2266POPC   D2A31516  40.238  32.945   8.371
 2266POPC   C3A31517  39.931  32.814   8.076
 2266POPC   C4A31518  40.021  32.799   7.636
 2266POPC   C1B31519  39.844  32.917   8.723
 2266POPC   C2B31520  39.600  33.074   8.402
 2266POPC   C3B31521  39.708  33.305   8.054
 2266POPC   C4B31522  39.723  33.199   7.651
 2267POPC   NC331523  28.619   8.832   9.492
 2267POPC   PO431524  28.010   9.069   9.255
 2267POPC   GL131525  28.192   9.022   8.899
 2267POPC   GL231526  28.524   8.978   9.016
 2267POPC   C1A31527  28.258   9.299   8.564
 2267POPC   D2A31528  28.301   9.344   8.128
 2267POPC   C3A31529  28.255   9.018   7.844
 2267POPC   C4A31530  28.217   8.956   7.395
 2267POPC   C1B31531  28.760   9.066   8.691
 2267POPC   C2B31532  28.802   9.306   8.315
 2267POPC   C3B31533  28.746   9.099   7.949
 2267POPC   C4B31534  28.690   9.018   7.533
 2268POPC   NC331535  12.187  14.866   9.403
 2268POPC   PO431536  12.059  15.520   9.676
 2268POPC   GL131537  11.965  15.328   9.275
 2268POPC   GL231538  12.311  15.330   9.167
 2268POPC   C1A31539  11.954  15.192   8.838
 2268POPC   D2A31540  12.247  14.929   8.576
 2268POPC   C3A31541  12.185  15.004   8.136
 2268POPC   C4A31542  11.763  15.113   7.948
 2268POPC   C1B31543  12.390  15.476   8.717
 2268POPC   C2B31544  12.269  15.627   8.275
 2268POPC   C3B31545  12.284  15.408   7.837
 2268POPC   C4B31546  12.431  15.367   7.358
 2269POPC   NC331547  16.516  29.886   9.471
 2269POPC   PO431548  17.095  29.721   9.358
 2269POPC   GL131549  16.895  30.049   9.070
 2269POPC   GL231550  16.515  30.045   8.996
 2269POPC   C1A31551  16.829  30.100   8.610
 2269POPC   D2A31552  16.737  30.111   8.202
 2269POPC   C3A31553  17.038  29.884   7.980
 2269POPC   C4A31554  17.166  29.894   7.565
 2269POPC   C1B31555  16.589  29.667   8.751
 2269POPC   C2B31556  16.639  29.617   8.302
 2269POPC   C3B31557  16.542  29.731   7.877
 2269POPC   C4B31558  16.381  29.494   7.541
 2270POPC   NC331559  37.649  32.732   9.852
 2270POPC   PO431560  37.738  32.112   9.617
 2270POPC   GL131561  37.507  32.196   9.233
 2270POPC   GL231562  37.528  32.555   9.179
 2270POPC   C1A31563  37.522  32.208   8.766
 2270POPC   D2A31564  37.848  32.110   8.456
 2270POPC   C3A31565  37.835  32.218   8.021
 2270POPC   C4A31566  37.673  32.021   7.640
 2270POPC   C1B31567  37.443  32.697   8.742
 2270POPC   C2B31568  37.454  32.474   8.300
 2270POPC   C3B31569  37.316  32.234   7.918
 2270POPC   C4B31570  37.291  32.312   7.431
 2271POPC   NC331571  32.509  17.263   9.532
 2271POPC   PO431572  32.110  17.833   9.589
 2271POPC   GL131573  32.129  17.562   9.272
 2271POPC   GL231574  32.432  17.505   9.092
 2271POPC   C1A31575  31.978  17.605   8.870
 2271POPC   D2A31576  31.970  17.318   8.530
 2271POPC   C3A31577  32.192  17.360   8.141
 2271POPC   C4A31578  32.000  17.453   7.753
 2271POPC   C1B31579  32.493  17.388   8.656
 2271POPC   C2B31580  32.653  17.655   8.318
 2271POPC   C3B31581  32.578  17.655   7.882
 2271POPC   C4B31582  32.522  17.304   7.653
 2272POPC   NC331583  24.080  29.078   9.482
 2272POPC   PO431584  23.484  29.547   9.468
 2272POPC   GL131585  23.690  29.484   9.061
 2272POPC   GL231586  24.054  29.410   9.033
 2272POPC   C1A31587  23.628  29.300   8.652
 2272POPC   D2A31588  23.411  29.213   8.268
 2272POPC   C3A31589  23.605  29.146   7.864
 2272POPC   C4A31590  24.003  29.286   7.640
 2272POPC   C1B31591  24.007  28.989   8.812
 2272POPC   C2B31592  23.873  28.886   8.370
 2272POPC   C3B31593  24.066  28.827   7.948
 2272POPC   C4B31594  24.213  28.516   7.644
 2273POPC   NC331595   8.570  19.586   9.479
 2273POPC   PO431596   8.009  19.868   9.745
 2273POPC   GL131597   8.074  19.874   9.254
 2273POPC   GL231598   8.405  19.930   9.147
 2273POPC   C1A31599   8.047  19.798   8.810
 2273POPC   D2A31600   8.231  19.756   8.436
 2273POPC   C3A31601   7.998  19.916   8.122
 2273POPC   C4A31602   8.144  19.863   7.705
 2273POPC   C1B31603   8.583  19.673   8.832
 2273POPC   C2B31604   8.753  19.776   8.451
 2273POPC   C3B31605   8.578  19.859   8.049
 2273POPC   C4B31606   8.811  19.807   7.703
 2274POPC   NC331607   2.118  23.328   9.408
 2274POPC   PO431608   1.791  23.904   9.428
 2274POPC   GL131609   1.907  23.740   9.034
 2274POPC   GL231610   2.257  23.757   9.129
 2274POPC   C1A31611   1.830  23.683   8.560
 2274POPC   D2A31612   1.967  23.932   8.186
 2274POPC   C3A31613   1.923  23.818   7.754
 2274POPC   C4A31614   2.121  23.889   7.342
 2274POPC   C1B31615   2.334  23.690   8.707
 2274POPC   C2B31616   2.278  23.495   8.312
 2274POPC   C3B31617   2.389  23.669   7.934
 2274POPC   C4B31618   2.241  23.458   7.581
 2275POPC   NC331619  37.181   5.044   9.576
 2275POPC   PO431620  36.847   5.460   9.249
 2275POPC   GL131621  36.952   5.082   9.073
 2275POPC   GL231622  37.199   4.820   9.120
 2275POPC   C1A31623  36.831   5.006   8.661
 2275POPC   D2A31624  36.946   5.264   8.292
 2275POPC   C3A31625  36.688   5.278   7.942
 2275POPC   C4A31626  36.760   5.198   7.527
 2275POPC   C1B31627  37.133   4.579   8.743
 2275POPC   C2B31628  37.003   4.658   8.315
 2275POPC   C3B31629  37.053   4.884   7.941
 2275POPC   C4B31630  37.140   4.817   7.491
 2276POPC   NC331631  16.883   0.566   9.487
 2276POPC   PO431632  16.250   0.510   9.561
 2276POPC   GL131633  16.517   0.584   9.142
 2276POPC   GL231634  16.680   0.250   9.128
 2276POPC   C1A31635  16.941   0.561   8.834
 2276POPC   D2A31636  16.992   0.398   8.428
 2276POPC   C3A31637  16.896   0.610   8.048
 2276POPC   C4A31638  17.039   0.487   7.637
 2276POPC   C1B31639  16.514   0.299   8.691
 2276POPC   C2B31640  16.524   0.269   8.227
 2276POPC   C3B31641  16.702   0.155   7.823
 2276POPC   C4B31642  16.532   0.133   7.371
 2277POPC   NC331643  22.551  32.467   9.233
 2277POPC   PO431644  22.087  32.516   9.670
 2277POPC   GL131645  22.074  32.245   9.268
 2277POPC   GL231646  22.032  32.552   9.104
 2277POPC   C1A31647  22.308  32.073   8.836
 2277POPC   D2A31648  22.194  31.988   8.424
 2277POPC   C3A31649  22.427  32.101   8.063
 2277POPC   C4A31650  22.267  31.875   7.696
 2277POPC   C1B31651  22.071  32.478   8.661
 2277POPC   C2B31652  21.922  32.416   8.267
 2277POPC   C3B31653  21.984  32.284   7.858
 2277POPC   C4B31654  22.377  32.378   7.622
 2278POPC   NC331655  16.387  10.930   9.333
 2278POPC   PO431656  16.810  10.558   9.769
 2278POPC   GL131657  16.730  10.529   9.294
 2278POPC   GL231658  16.359  10.472   9.152
 2278POPC   C1A31659  16.790  10.384   8.836
 2278POPC   D2A31660  16.629  10.407   8.385
 2278POPC   C3A31661  16.874  10.352   7.994
 2278POPC   C4A31662  17.174  10.299   7.643
 2278POPC   C1B31663  16.344  10.651   8.745
 2278POPC   C2B31664  16.313  10.791   8.344
 2278POPC   C3B31665  16.428  10.631   7.945
 2278POPC   C4B31666  16.326  10.437   7.579
 2279POPC   NC331667  12.992  13.749   9.470
 2279POPC   PO431668  12.390  13.500   9.503
 2279POPC   GL131669  12.627  13.577   9.146
 2279POPC   GL231670  12.962  13.362   9.166
 2279POPC   C1A31671  12.737  13.516   8.725
 2279POPC   D2A31672  12.582  13.306   8.393
 2279POPC   C3A31673  12.671  13.614   8.113
 2279POPC   C4A31674  12.509  13.536   7.711
 2279POPC   C1B31675  13.246  13.478   8.815
 2279POPC   C2B31676  13.113  13.771   8.447
 2279POPC   C3B31677  13.158  13.595   8.023
 2279POPC   C4B31678  12.900  13.212   7.876
 2280POPC   NC331679   2.900  17.168   9.674
 2280POPC   PO431680   2.419  16.846   9.575
 2280POPC   GL131681   2.542  17.063   9.177
 2280POPC   GL231682   2.880  17.207   9.149
 2280POPC   C1A31683   2.632  17.049   8.734
 2280POPC   D2A31684   2.840  16.930   8.348
 2280POPC   C3A31685   2.656  16.818   7.943
 2280POPC   C4A31686   2.554  16.509   7.578
 2280POPC   C1B31687   3.128  16.986   8.800
 2280POPC   C2B31688   3.339  17.031   8.380
 2280POPC   C3B31689   3.227  16.890   7.950
 2280POPC   C4B31690   3.263  17.081   7.545
 2281POPC   NC331691  34.872  14.044   9.465
 2281POPC   PO431692  34.776  14.752   9.563
 2281POPC   GL131693  34.663  14.483   9.251
 2281POPC   GL231694  34.655  14.769   9.078
 2281POPC   C1A31695  34.715  14.291   8.839
 2281POPC   D2A31696  34.431  14.254   8.496
 2281POPC   C3A31697  34.620  14.335   8.094
 2281POPC   C4A31698  34.332  14.296   7.791
 2281POPC   C1B31699  34.435  14.709   8.760
 2281POPC   C2B31700  34.634  14.773   8.386
 2281POPC   C3B31701  34.448  14.803   8.006
 2281POPC   C4B31702  34.551  14.726   7.632
 2282POPC   NC331703  37.203  44.747   9.463
 2282POPC   PO431704  36.644  44.341   9.521
 2282POPC   GL131705  36.897  44.451   9.180
 2282POPC   GL231706  36.957  44.827   9.030
 2282POPC   C1A31707  37.072  44.274   8.837
 2282POPC   D2A31708  37.119  44.500   8.479
 2282POPC   C3A31709  36.994  44.386   8.089
 2282POPC   C4A31710  37.194  44.390   7.730
 2282POPC   C1B31711  36.673  44.647   8.756
 2282POPC   C2B31712  36.587  44.521   8.374
 2282POPC   C3B31713  36.457  44.571   7.964
 2282POPC   C4B31714  36.799  44.756   7.729
 2283POPC   NC331715  37.985  12.959   9.372
 2283POPC   PO431716  37.371  12.755   9.614
 2283POPC   GL131717  37.483  12.915   9.197
 2283POPC   GL231718  37.667  12.602   9.154
 2283POPC   C1A31719  37.703  12.937   8.772
 2283POPC   D2A31720  37.782  12.684   8.390
 2283POPC   C3A31721  37.898  12.856   8.007
 2283POPC   C4A31722  37.665  13.090   7.743
 2283POPC   C1B31723  37.459  12.489   8.767
 2283POPC   C2B31724  37.266  12.722   8.425
 2283POPC   C3B31725  37.332  12.778   7.992
 2283POPC   C4B31726  37.614  12.529   7.739
 2284POPC   NC331727  32.242   3.081   9.439
 2284POPC   PO431728  31.967   2.518   9.447
 2284POPC   GL131729  32.219   2.684   9.120
 2284POPC   GL231730  32.573   2.522   9.047
 2284POPC   C1A31731  32.022   2.795   8.745
 2284POPC   D2A31732  31.900   2.628   8.351
 2284POPC   C3A31733  32.159   2.843   8.035
 2284POPC   C4A31734  32.253   2.703   7.630
 2284POPC   C1B31735  32.519   2.876   8.755
 2284POPC   C2B31736  32.526   3.043   8.338
 2284POPC   C3B31737  32.676   2.855   7.963
 2284POPC   C4B31738  32.714   2.519   7.717
 2285POPC   NC331739  35.035  35.467   9.483
 2285POPC   PO431740  34.380  35.252   9.425
 2285POPC   GL131741  34.573  35.336   9.080
 2285POPC   GL231742  34.610  35.667   9.138
 2285POPC   C1A31743  34.412  35.159   8.710
 2285POPC   D2A31744  34.580  34.891   8.424
 2285POPC   C3A31745  34.454  35.077   8.040
 2285POPC   C4A31746  34.599  35.223   7.643
 2285POPC   C1B31747  34.485  35.683   8.701
 2285POPC   C2B31748  34.280  35.500   8.324
 2285POPC   C3B31749  34.418  35.609   7.914
 2285POPC   C4B31750  34.435  35.775   7.468
 2286POPC   NC331751   4.641  30.637   9.636
 2286POPC   PO431752   4.050  30.879   9.799
 2286POPC   GL131753   4.239  30.678   9.343
 2286POPC   GL231754   4.512  30.897   9.194
 2286POPC   C1A31755   4.323  30.479   8.936
 2286POPC   D2A31756   4.466  30.556   8.527
 2286POPC   C3A31757   4.284  30.480   8.143
 2286POPC   C4A31758   4.351  30.457   7.715
 2286POPC   C1B31759   4.371  31.008   8.747
 2286POPC   C2B31760   4.233  31.000   8.321
 2286POPC   C3B31761   4.349  31.123   7.926
 2286POPC   C4B31762   4.343  30.919   7.533
 2287POPC   NC331763  29.294  12.598   9.529
 2287POPC   PO431764  28.892  13.109   9.457
 2287POPC   GL131765  29.132  12.902   9.160
 2287POPC   GL231766  29.494  12.916   9.175
 2287POPC   C1A31767  29.189  12.947   8.758
 2287POPC   D2A31768  28.885  12.956   8.469
 2287POPC   C3A31769  29.040  12.991   8.064
 2287POPC   C4A31770  28.935  12.845   7.665
 2287POPC   C1B31771  29.658  12.705   8.758
 2287POPC   C2B31772  29.461  12.804   8.353
 2287POPC   C3B31773  29.423  12.675   7.928
 2287POPC   C4B31774  29.438  12.936   7.564
 2288POPC   NC331775   4.577  23.194   9.396
 2288POPC   PO431776   4.141  22.770   9.521
 2288POPC   GL131777   4.088  22.976   9.118
 2288POPC   GL231778   4.009  23.316   9.234
 2288POPC   C1A31779   4.433  22.935   8.792
 2288POPC   D2A31780   4.574  23.039   8.359
 2288POPC   C3A31781   4.591  22.712   8.062
 2288POPC   C4A31782   4.377  22.748   7.693
 2288POPC   C1B31783   4.270  23.428   8.865
 2288POPC   C2B31784   4.433  23.522   8.462
 2288POPC   C3B31785   4.367  23.460   8.017
 2288POPC   C4B31786   4.622  23.180   7.767
 2289POPC   NC331787   0.924  32.382   9.809
 2289POPC   PO431788   1.097  31.862   9.576
 2289POPC   GL131789   1.293  32.165   9.293
 2289POPC   GL231790   0.976  32.349   9.243
 2289POPC   C1A31791   1.339  32.319   8.853
 2289POPC   D2A31792   1.298  32.499   8.413
 2289POPC   C3A31793   1.370  32.224   8.040
 2289POPC   C4A31794   1.200  31.944   7.770
 2289POPC   C1B31795   0.934  32.652   8.872
 2289POPC   C2B31796   0.805  32.646   8.413
 2289POPC   C3B31797   0.876  32.411   7.983
 2289POPC   C4B31798   0.855  32.398   7.504
 2290POPC   NC331799  39.236   0.248   9.526
 2290POPC   PO431800  39.308  44.563   9.616
 2290POPC   GL131801  39.056  44.713   9.261
 2290POPC   GL231802  39.302  44.908   9.150
 2290POPC   C1A31803  39.061  44.667   8.777
 2290POPC   D2A31804  39.352  44.421   8.505
 2290POPC   C3A31805  39.220  44.332   8.089
 2290POPC   C4A31806  39.358  44.343   7.689
 2290POPC   C1B31807  39.418   0.055   8.770
 2290POPC   C2B31808  39.477  44.903   8.369
 2290POPC   C3B31809  39.381  44.899   7.941
 2290POPC   C4B31810  39.556   0.167   7.645
 2291POPC   NC331811  32.077  19.608   9.582
 2291POPC   PO431812  32.445  20.106   9.510
 2291POPC   GL131813  32.334  20.039   9.092
 2291POPC   GL231814  32.188  19.700   9.069
 2291POPC   C1A31815  32.480  19.890   8.699
 2291POPC   D2A31816  32.238  20.075   8.394
 2291POPC   C3A31817  32.421  19.967   8.057
 2291POPC   C4A31818  32.256  20.004   7.689
 2291POPC   C1B31819  32.000  19.693   8.649
 2291POPC   C2B31820  32.240  19.526   8.309
 2291POPC   C3B31821  32.184  19.528   7.884
 2291POPC   C4B31822  31.815  19.717   7.796
 2292POPC   NC331823  19.330  14.061   9.805
 2292POPC   PO431824  18.973  13.568   9.681
 2292POPC   GL131825  19.195  13.567   9.267
 2292POPC   GL231826  18.929  13.536   9.127
 2292POPC   C1A31827  19.339  13.554   8.806
 2292POPC   D2A31828  19.139  13.665   8.396
 2292POPC   C3A31829  19.216  13.391   8.013
 2292POPC   C4A31830  19.217  13.647   7.618
 2292POPC   C1B31831  18.802  13.446   8.736
 2292POPC   C2B31832  18.842  13.260   8.344
 2292POPC   C3B31833  18.715  13.485   7.991
 2292POPC   C4B31834  18.778  13.416   7.576
 2293POPC   NC331835  14.908  34.187   9.328
 2293POPC   PO431836  15.346  33.750   9.738
 2293POPC   GL131837  15.190  33.784   9.265
 2293POPC   GL231838  14.938  33.516   9.146
 2293POPC   C1A31839  15.268  33.706   8.812
 2293POPC   D2A31840  15.353  33.561   8.382
 2293POPC   C3A31841  15.377  33.843   8.065
 2293POPC   C4A31842  15.326  33.709   7.662
 2293POPC   C1B31843  14.773  33.799   8.805
 2293POPC   C2B31844  14.861  33.930   8.361
 2293POPC   C3B31845  14.891  33.856   7.900
 2293POPC   C4B31846  14.851  33.568   7.518
 2294POPC   NC331847   5.209  22.205   9.664
 2294POPC   PO431848   5.415  21.588   9.662
 2294POPC   GL131849   5.199  21.794   9.312
 2294POPC   GL231850   5.113  22.102   9.154
 2294POPC   C1A31851   5.303  21.706   8.896
 2294POPC   D2A31852   5.334  21.719   8.491
 2294POPC   C3A31853   5.004  21.881   8.261
 2294POPC   C4A31854   4.967  22.041   7.847
 2294POPC   C1B31855   5.114  22.178   8.674
 2294POPC   C2B31856   5.029  22.410   8.246
 2294POPC   C3B31857   5.096  22.696   7.880
 2294POPC   C4B31858   4.961  22.855   7.458
 2295POPC   NC331859  25.739  20.430   9.074
 2295POPC   PO431860  25.299  20.510   9.548
 2295POPC   GL131861  25.234  20.596   9.127
 2295POPC   GL231862  25.151  20.932   9.195
 2295POPC   C1A31863  25.056  20.649   8.706
 2295POPC   D2A31864  25.099  20.424   8.322
 2295POPC   C3A31865  25.440  20.575   8.084
 2295POPC   C4A31866  25.480  20.882   7.792
 2295POPC   C1B31867  25.288  21.099   8.793
 2295POPC   C2B31868  25.356  20.978   8.382
 2295POPC   C3B31869  25.042  20.905   8.098
 2295POPC   C4B31870  24.979  21.065   7.719
 2296POPC   NC331871   8.162  20.250   9.554
 2296POPC   PO431872   8.190  20.903   9.353
 2296POPC   GL131873   8.105  20.717   9.014
 2296POPC   GL231874   8.272  20.426   9.088
 2296POPC   C1A31875   8.354  20.710   8.625
 2296POPC   D2A31876   8.567  20.829   8.237
 2296POPC   C3A31877   8.267  20.829   7.897
 2296POPC   C4A31878   7.813  20.731   7.775
 2296POPC   C1B31879   8.053  20.301   8.705
 2296POPC   C2B31880   7.993  20.459   8.275
 2296POPC   C3B31881   8.195  20.333   7.897
 2296POPC   C4B31882   8.500  20.178   7.598
 2297POPC   NC331883   8.569  17.050   9.490
 2297POPC   PO431884   9.239  16.871   9.449
 2297POPC   GL131885   8.930  16.807   9.168
 2297POPC   GL231886   8.790  16.472   9.141
 2297POPC   C1A31887   9.113  16.678   8.754
 2297POPC   D2A31888   9.250  16.827   8.337
 2297POPC   C3A31889   9.055  16.692   7.960
 2297POPC   C4A31890   9.044  16.958   7.613
 2297POPC   C1B31891   8.602  16.706   8.806
 2297POPC   C2B31892   8.731  16.803   8.432
 2297POPC   C3B31893   8.645  16.971   8.086
 2297POPC   C4B31894   8.555  16.802   7.727
 2298POPC   NC331895  36.814  42.474   9.474
 2298POPC   PO431896  37.027  41.786   9.597
 2298POPC   GL131897  37.187  41.992   9.185
 2298POPC   GL231898  36.907  42.237   9.040
 2298POPC   C1A31899  37.272  42.103   8.733
 2298POPC   D2A31900  36.904  42.203   8.489
 2298POPC   C3A31901  37.039  42.325   8.107
 2298POPC   C4A31902  37.307  42.104   7.800
 2298POPC   C1B31903  36.596  42.495   8.776
 2298POPC   C2B31904  36.686  42.678   8.365
 2298POPC   C3B31905  36.748  42.712   7.914
 2298POPC   C4B31906  37.041  42.511   7.634
 2299POPC   NC331907   0.324  27.199   9.446
 2299POPC   PO431908   0.688  27.855   9.384
 2299POPC   GL131909   0.605  27.465   9.127
 2299POPC   GL231910   0.232  27.428   8.997
 2299POPC   C1A31911   0.669  27.215   8.752
 2299POPC   D2A31912   0.868  27.332   8.348
 2299POPC   C3A31913   0.537  27.454   8.045
 2299POPC   C4A31914   0.429  27.348   7.617
 2299POPC   C1B31915   0.459  27.746   8.728
 2299POPC   C2B31916   0.385  27.968   8.350
 2299POPC   C3B31917   0.527  27.960   7.947
 2299POPC   C4B31918   0.319  27.852   7.565
 2300POPC   NC331919  31.755  44.767   9.483
 2300POPC   PO431920  31.253   0.143   9.748
 2300POPC   GL131921  31.256  44.976   9.275
 2300POPC   GL231922  31.443  44.704   9.106
 2300POPC   C1A31923  31.095  44.950   8.837
 2300POPC   D2A31924  31.186  44.795   8.424
 2300POPC   C3A31925  31.405   0.053   8.117
 2300POPC   C4A31926  31.469  44.927   7.695
 2300POPC   C1B31927  31.627  44.511   8.751
 2300POPC   C2B31928  31.465  44.392   8.356
 2300POPC   C3B31929  31.494  44.494   7.932
 2300POPC   C4B31930  31.608  44.404   7.470
 2301POPC   NC331931  41.350  43.664   9.467
 2301POPC   PO431932  41.950  44.001   9.440
 2301POPC   GL131933  41.657  44.085   9.134
 2301POPC   GL231934  41.351  43.926   9.043
 2301POPC   C1A31935  41.602  44.245   8.756
 2301POPC   D2A31936  41.519  43.962   8.477
 2301POPC   C3A31937  41.563  44.096   8.135
 2301POPC   C4A31938  41.512  44.100   7.757
 2301POPC   C1B31939  41.448  43.588   8.787
 2301POPC   C2B31940  41.478  43.441   8.361
 2301POPC   C3B31941  41.456  43.640   7.965
 2301POPC   C4B31942  41.827  43.717   7.678
 2302POPC   NC331943  24.804  39.521   9.832
 2302POPC   PO431944  24.562  40.093   9.599
 2302POPC   GL131945  24.455  40.156   9.167
 2302POPC   GL231946  24.777  40.276   9.097
 2302POPC   C1A31947  24.359  39.923   8.789
 2302POPC   D2A31948  24.530  39.738   8.414
 2302POPC   C3A31949  24.345  39.727   7.997
 2302POPC   C4A31950  24.428  39.855   7.549
 2302POPC   C1B31951  24.861  40.047   8.717
 2302POPC   C2B31952  24.793  40.194   8.320
 2302POPC   C3B31953  24.694  40.112   7.909
 2302POPC   C4B31954  24.734  40.303   7.499
 2303POPC   NC331955  14.053  36.411   9.599
 2303POPC   PO431956  14.589  36.059   9.698
 2303POPC   GL131957  14.419  36.149   9.293
 2303POPC   GL231958  14.775  36.208   9.219
 2303POPC   C1A31959  14.181  36.062   8.895
 2303POPC   D2A31960  14.146  36.312   8.483
 2303POPC   C3A31961  14.214  36.069   8.113
 2303POPC   C4A31962  14.346  36.211   7.694
 2303POPC   C1B31963  14.615  36.317   8.823
 2303POPC   C2B31964  14.638  36.155   8.430
 2303POPC   C3B31965  14.612  36.410   8.063
 2303POPC   C4B31966  14.818  36.439   7.643
 2304POPC   NC331967   1.567   6.582   9.456
 2304POPC   PO431968   2.280   6.398   9.410
 2304POPC   GL131969   2.172   6.587   9.034
 2304POPC   GL231970   1.838   6.704   9.029
 2304POPC   C1A31971   2.045   6.552   8.591
 2304POPC   D2A31972   1.851   6.356   8.271
 2304POPC   C3A31973   1.994   6.597   7.949
 2304POPC   C4A31974   2.379   6.608   7.749
 2304POPC   C1B31975   1.743   6.968   8.660
 2304POPC   C2B31976   1.894   6.999   8.271
 2304POPC   C3B31977   1.728   7.072   7.894
 2304POPC   C4B31978   1.768   6.807   7.554
 2305POPC   NC331979  10.646  19.134   9.597
 2305POPC   PO431980  10.802  18.678   9.168
 2305POPC   GL131981  10.447  18.949   9.132
 2305POPC   GL231982  10.541  19.280   9.023
 2305POPC   C1A31983  10.281  18.974   8.707
 2305POPC   D2A31984  10.546  19.003   8.348
 2305POPC   C3A31985  10.496  18.719   8.002
 2305POPC   C4A31986  10.454  18.902   7.589
 2305POPC   C1B31987  10.645  19.456   8.598
 2305POPC   C2B31988  10.599  19.483   8.134
 2305POPC   C3B31989  10.584  19.396   7.708
 2305POPC   C4B31990  10.805  19.202   7.347
 2306POPC   NC331991   1.959  19.581   9.435
 2306POPC   PO431992   2.292  20.268   9.514
 2306POPC   GL131993   2.053  20.101   9.102
 2306POPC   GL231994   1.845  19.803   8.996
 2306POPC   C1A31995   2.184  19.909   8.657
 2306POPC   D2A31996   2.127  19.619   8.377
 2306POPC   C3A31997   2.185  19.885   8.078
 2306POPC   C4A31998   2.277  19.793   7.680
 2306POPC   C1B31999   1.820  19.422   8.741
 2306POPC   C2B32000   1.653  19.304   8.317
 2306POPC   C3B32001   1.857  19.467   7.945
 2306POPC   C4B32002   1.782  19.883   7.784
 2307POPC   NC332003  40.337  42.059   9.420
 2307POPC   PO432004  39.735  42.371   9.481
 2307POPC   GL132005  39.932  42.313   9.140
 2307POPC   GL232006  39.916  41.986   9.137
 2307POPC   C1A32007  40.017  42.459   8.753
 2307POPC   D2A32008  40.186  42.397   8.371
 2307POPC   C3A32009  40.058  42.656   8.084
 2307POPC   C4A32010  40.091  42.532   7.680
 2307POPC   C1B32011  40.097  41.943   8.756
 2307POPC   C2B32012  39.907  41.966   8.351
 2307POPC   C3B32013  39.898  42.149   7.969
 2307POPC   C4B32014  39.528  42.131   7.732
 2308POPC   NC332015  43.304  42.306   9.557
 2308POPC   PO432016  42.580  42.313   9.583
 2308POPC   GL132017  42.878  42.314   9.200
 2308POPC   GL232018  43.259  42.410   9.075
 2308POPC   C1A32019  42.858  42.508   8.798
 2308POPC   D2A32020  43.167  42.493   8.472
 2308POPC   C3A32021  43.032  42.396   8.069
 2308POPC   C4A32022  42.996  42.666   7.739
 2308POPC   C1B32023  43.154  42.078   8.775
 2308POPC   C2B32024  43.343  42.022   8.378
 2308POPC   C3B32025  43.262  41.947   7.946
 2308POPC   C4B32026  43.516  42.091   7.583
 2309POPC   NC332027  25.497  33.142   9.473
 2309POPC   PO432028  25.746  32.491   9.432
 2309POPC   GL132029  25.439  32.727   9.123
 2309POPC   GL232030  25.183  33.010   9.103
 2309POPC   C1A32031  25.527  33.011   8.727
 2309POPC   D2A32032  25.639  33.141   8.290
 2309POPC   C3A32033  25.505  32.810   7.989
 2309POPC   C4A32034  25.144  32.638   7.801
 2309POPC   C1B32035  24.963  33.069   8.721
 2309POPC   C2B32036  25.135  33.225   8.351
 2309POPC   C3B32037  25.152  33.195   7.927
 2309POPC   C4B32038  25.010  33.434   7.595
 2310POPC   NC332039  20.779  22.598   9.541
 2310POPC   PO432040  20.408  22.031   9.499
 2310POPC   GL132041  20.561  21.886   9.122
 2310POPC   GL232042  20.785  22.169   9.129
 2310POPC   C1A32043  20.522  21.984   8.697
 2310POPC   D2A32044  20.608  22.322   8.428
 2310POPC   C3A32045  20.404  22.366   8.039
 2310POPC   C4A32046  20.428  22.136   7.697
 2310POPC   C1B32047  20.995  22.334   8.772
 2310POPC   C2B32048  21.094  22.434   8.334
 2310POPC   C3B32049  20.912  22.272   7.965
 2310POPC   C4B32050  20.760  22.552   7.655
 2311POPC   NC332051  39.533   8.167   9.677
 2311POPC   PO432052  38.893   8.154   9.468
 2311POPC   GL132053  39.116   8.419   9.166
 2311POPC   GL232054  39.447   8.376   9.186
 2311POPC   C1A32055  39.189   8.307   8.688
 2311POPC   D2A32056  39.098   8.012   8.333
 2311POPC   C3A32057  38.947   8.170   7.924
 2311POPC   C4A32058  38.934   8.102   7.467
 2311POPC   C1B32059  39.633   8.514   8.789
 2311POPC   C2B32060  39.610   8.334   8.367
 2311POPC   C3B32061  39.483   8.134   7.984
 2311POPC   C4B32062  39.333   8.361   7.629
 2312POPC   NC332063  44.821  43.426   9.419
 2312POPC   PO432064  44.688  42.802   9.661
 2312POPC   GL132065  44.647  42.989   9.219
 2312POPC   GL232066  44.919  42.900   9.094
 2312POPC   C1A32067  44.688  43.216   8.737
 2312POPC   D2A32068  44.629  43.316   8.228
 2312POPC   C3A32069  44.353  43.139   7.837
 2312POPC   C4A32070  44.494  42.920   7.430
 2312POPC   C1B32071   0.132  42.960   8.724
 2312POPC   C2B32072   0.190  42.821   8.317
 2312POPC   C3B32073  44.894  42.910   8.013
 2312POPC   C4B32074  44.828  43.212   7.704
 2313POPC   NC332075   0.177  40.587   9.480
 2313POPC   PO432076   0.531  41.223   9.534
 2313POPC   GL132077   0.565  40.977   9.170
 2313POPC   GL232078   0.737  40.643   9.220
 2313POPC   C1A32079   0.365  41.071   8.757
 2313POPC   D2A32080   0.193  40.959   8.352
 2313POPC   C3A32081   0.372  41.101   7.992
 2313POPC   C4A32082   0.440  40.937   7.617
 2313POPC   C1B32083   0.439  40.578   8.862
 2313POPC   C2B32084   0.466  40.531   8.418
 2313POPC   C3B32085   0.483  40.575   7.964
 2313POPC   C4B32086   0.132  40.518   7.646
 2314POPC   NC332087  11.357  43.706   9.482
 2314POPC   PO432088  10.999  44.212   9.590
 2314POPC   GL132089  11.139  44.153   9.161
 2314POPC   GL232090  11.484  43.985   9.058
 2314POPC   C1A32091  11.104  43.990   8.747
 2314POPC   D2A32092  11.480  43.939   8.512
 2314POPC   C3A32093  11.365  44.119   8.152
 2314POPC   C4A32094  11.325  44.040   7.743
 2314POPC   C1B32095  11.351  43.560   8.862
 2314POPC   C2B32096  11.261  43.459   8.448
 2314POPC   C3B32097  11.341  43.610   8.044
 2314POPC   C4B32098  11.540  43.593   7.633
 2315POPC   NC332099   2.169  36.282   9.494
 2315POPC   PO432100   2.317  35.653   9.373
 2315POPC   GL132101   2.162  35.938   9.078
 2315POPC   GL232102   1.860  36.123   9.112
 2315POPC   C1A32103   2.126  36.113   8.664
 2315POPC   D2A32104   1.949  35.947   8.295
 2315POPC   C3A32105   2.243  36.099   8.052
 2315POPC   C4A32106   2.209  36.267   7.675
 2315POPC   C1B32107   1.746  36.415   8.766
 2315POPC   C2B32108   1.921  36.460   8.321
 2315POPC   C3B32109   1.767  36.283   7.925
 2315POPC   C4B32110   1.706  36.488   7.516
 2316POPC   NC332111  31.061  24.064   9.596
 2316POPC   PO432112  30.511  23.631   9.507
 2316POPC   GL132113  30.620  23.853   9.166
 2316POPC   GL232114  30.981  23.828   9.115
 2316POPC   C1A32115  30.632  23.706   8.742
 2316POPC   D2A32116  30.767  23.484   8.379
 2316POPC   C3A32117  30.703  23.572   7.937
 2316POPC   C4A32118  30.573  23.415   7.483
 2316POPC   C1B32119  31.115  23.792   8.662
 2316POPC   C2B32120  30.984  23.940   8.290
 2316POPC   C3B32121  31.057  23.959   7.859
 2316POPC   C4B32122  30.760  23.907   7.582
 2317POPC   NC332123  24.023  43.899   9.879
 2317POPC   PO432124  23.460  44.049   9.710
 2317POPC   GL132125  23.482  43.955   9.241
 2317POPC   GL232126  23.301  44.242   9.124
 2317POPC   C1A32127  23.432  43.781   8.762
 2317POPC   D2A32128  23.571  43.847   8.295
 2317POPC   C3A32129  23.339  43.766   7.886
 2317POPC   C4A32130  23.361  43.648   7.439
 2317POPC   C1B32131  23.338  44.270   8.649
 2317POPC   C2B32132  23.398  44.353   8.201
 2317POPC   C3B32133  23.537  44.365   7.768
 2317POPC   C4B32134  23.774  44.432   7.363
 2318POPC   NC332135   8.711  14.441   9.533
 2318POPC   PO432136   9.326  14.456   9.621
 2318POPC   GL132137   9.120  14.357   9.143
 2318POPC   GL232138   8.760  14.402   9.037
 2318POPC   C1A32139   9.362  14.481   8.716
 2318POPC   D2A32140   9.302  14.345   8.300
 2318POPC   C3A32141   9.242  14.546   7.921
 2318POPC   C4A32142   9.072  14.497   7.519
 2318POPC   C1B32143   8.877  14.607   8.658
 2318POPC   C2B32144   8.810  14.592   8.206
 2318POPC   C3B32145   8.708  14.363   7.820
 2318POPC   C4B32146   8.637  14.267   7.382
 2319POPC   NC332147   1.542  23.504   9.387
 2319POPC   PO432148   1.221  24.054   9.674
 2319POPC   GL132149   1.325  23.933   9.239
 2319POPC   GL232150   1.140  23.619   9.092
 2319POPC   C1A32151   1.445  23.915   8.814
 2319POPC   D2A32152   1.256  23.751   8.449
 2319POPC   C3A32153   1.507  23.642   8.108
 2319POPC   C4A32154   1.433  23.768   7.684
 2319POPC   C1B32155   0.855  23.562   8.733
 2319POPC   C2B32156   0.753  23.615   8.315
 2319POPC   C3B32157   0.999  23.738   7.990
 2319POPC   C4B32158   0.936  23.852   7.607
 2320POPC   NC332159   3.342   4.619   9.428
 2320POPC   PO432160   3.852   4.434   9.389
 2320POPC   GL132161   3.547   4.372   9.026
 2320POPC   GL232162   3.230   4.208   9.108
 2320POPC   C1A32163   3.423   4.418   8.585
 2320POPC   D2A32164   3.518   4.162   8.223
 2320POPC   C3A32165   3.568   4.344   7.823
 2320POPC   C4A32166   3.610   4.653   7.488
 2320POPC   C1B32167   3.181   3.987   8.698
 2320POPC   C2B32168   3.026   4.036   8.278
 2320POPC   C3B32169   3.172   4.017   7.838
 2320POPC   C4B32170   3.423   4.085   7.425
 2321POPC   NC332171  38.751  11.244   9.482
 2321POPC   PO432172  39.441  11.226   9.473
 2321POPC   GL132173  39.318  11.406   9.072
 2321POPC   GL232174  38.969  11.498   9.107
 2321POPC   C1A32175  39.214  11.484   8.631
 2321POPC   D2A32176  39.421  11.267   8.277
 2321POPC   C3A32177  39.320  11.399   7.890
 2321POPC   C4A32178  39.426  11.753   7.749
 2321POPC   C1B32179  38.966  11.085   8.883
 2321POPC   C2B32180  38.993  11.021   8.448
 2321POPC   C3B32181  38.868  11.217   8.054
 2321POPC   C4B32182  38.930  11.198   7.653
 2322POPC   NC332183  31.063  44.684   9.637
 2322POPC   PO432184  30.609  44.976   9.310
 2322POPC   GL132185  30.727  44.653   9.054
 2322POPC   GL232186  30.994  44.492   9.180
 2322POPC   C1A32187  30.718  44.655   8.604
 2322POPC   D2A32188  30.756   0.038   8.325
 2322POPC   C3A32189  30.938  44.903   7.936
 2322POPC   C4A32190  30.656  44.675   7.675
 2322POPC   C1B32191  31.130  44.389   8.787
 2322POPC   C2B32192  30.994  44.213   8.394
 2322POPC   C3B32193  30.977  44.390   7.980
 2322POPC   C4B32194  31.127  44.510   7.570
 2323POPC   NC332195  21.212  24.110   9.780
 2323POPC   PO432196  21.021  24.591   9.348
 2323POPC   GL132197  20.684  24.361   9.115
 2323POPC   GL232198  20.371  24.207   9.218
 2323POPC   C1A32199  20.733  24.331   8.696
 2323POPC   D2A32200  20.568  24.565   8.382
 2323POPC   C3A32201  20.859  24.648   8.081
 2323POPC   C4A32202  20.742  24.509   7.709
 2323POPC   C1B32203  20.225  24.384   8.789
 2323POPC   C2B32204  20.230  24.182   8.346
 2323POPC   C3B32205  20.273  24.332   7.900
 2323POPC   C4B32206  20.282  24.659   7.540
 2324POPC   NC332207  23.078  43.817   9.560
 2324POPC   PO432208  22.801  44.449   9.551
 2324POPC   GL132209  22.787  44.081   9.198
 2324POPC   GL232210  23.031  43.812   9.061
 2324POPC   C1A32211  22.753  43.999   8.716
 2324POPC   D2A32212  23.073  43.907   8.378
 2324POPC   C3A32213  23.006  44.124   7.984
 2324POPC   C4A32214  22.925  43.971   7.587
 2324POPC   C1B32215  22.962  43.522   8.720
 2324POPC   C2B32216  22.744  43.493   8.338
 2324POPC   C3B32217  22.802  43.604   7.924
 2324POPC   C4B32218  22.886  43.493   7.483
 2325POPC   NC332219  38.906  34.867   9.506
 2325POPC   PO432220  39.207  35.481   9.470
 2325POPC   GL132221  39.266  35.125   9.226
 2325POPC   GL232222  38.925  35.205   9.121
 2325POPC   C1A32223  39.204  34.894   8.840
 2325POPC   D2A32224  38.989  35.011   8.461
 2325POPC   C3A32225  39.174  34.968   8.029
 2325POPC   C4A32226  39.340  35.187   7.642
 2325POPC   C1B32227  38.920  35.555   8.830
 2325POPC   C2B32228  39.012  35.518   8.418
 2325POPC   C3B32229  39.162  35.484   8.041
 2325POPC   C4B32230  39.094  35.717   7.709
 2326POPC   NC332231  22.613  36.279   9.507
 2326POPC   PO432232  21.944  36.038   9.412
 2326POPC   GL132233  22.123  35.946   9.033
 2326POPC   GL232234  22.434  36.141   9.035
 2326POPC   C1A32235  22.144  36.042   8.600
 2326POPC   D2A32236  22.212  36.314   8.264
 2326POPC   C3A32237  22.043  36.117   7.914
 2326POPC   C4A32238  21.692  36.223   7.572
 2326POPC   C1B32239  22.569  36.370   8.676
 2326POPC   C2B32240  22.692  36.520   8.258
 2326POPC   C3B32241  22.668  36.265   7.889
 2326POPC   C4B32242  22.473  35.991   7.642
 2327POPC   NC332243  10.711   0.066   9.506
 2327POPC   PO432244  10.396   0.672   9.467
 2327POPC   GL132245  10.385   0.336   9.206
 2327POPC   GL232246  10.726   0.357   9.105
 2327POPC   C1A32247  10.313   0.279   8.772
 2327POPC   D2A32248  10.283   0.479   8.366
 2327POPC   C3A32249  10.366   0.262   7.979
 2327POPC   C4A32250  10.319   0.546   7.637
 2327POPC   C1B32251  10.936   0.240   8.750
 2327POPC   C2B32252  10.763   0.213   8.332
 2327POPC   C3B32253  10.822   0.022   7.926
 2327POPC   C4B32254  10.657   0.159   7.536
 2328POPC   NC332255  33.401  37.381   9.501
 2328POPC   PO432256  34.099  37.346   9.435
 2328POPC   GL132257  34.065  37.641   9.114
 2328POPC   GL232258  33.768  37.832   9.241
 2328POPC   C1A32259  34.005  37.895   8.779
 2328POPC   D2A32260  33.795  37.849   8.418
 2328POPC   C3A32261  33.973  38.007   8.067
 2328POPC   C4A32262  33.961  37.831   7.701
 2328POPC   C1B32263  33.590  37.589   8.878
 2328POPC   C2B32264  33.408  37.512   8.482
 2328POPC   C3B32265  33.478  37.531   8.023
 2328POPC   C4B32266  33.424  37.877   7.730
 2329POPC   NC332267  41.124  42.170   9.269
 2329POPC   PO432268  40.500  42.505   9.396
 2329POPC   GL132269  40.654  42.285   9.076
 2329POPC   GL232270  40.864  42.561   8.989
 2329POPC   C1A32271  40.678  42.145   8.671
 2329POPC   D2A32272  40.426  41.953   8.360
 2329POPC   C3A32273  40.454  42.180   7.959
 2329POPC   C4A32274  40.889  42.247   7.769
 2329POPC   C1B32275  40.531  42.630   8.661
 2329POPC   C2B32276  40.539  42.771   8.201
 2329POPC   C3B32277  40.587  42.701   7.746
 2329POPC   C4B32278  40.881  42.581   7.383
 2330POPC   NC332279  30.764   1.795   9.327
 2330POPC   PO432280  30.419   2.303   9.379
 2330POPC   GL132281  30.773   2.248   9.091
 2330POPC   GL232282  31.135   2.177   9.168
 2330POPC   C1A32283  30.821   2.003   8.715
 2330POPC   D2A32284  30.557   1.954   8.382
 2330POPC   C3A32285  30.653   2.102   7.997
 2330POPC   C4A32286  30.849   1.838   7.675
 2330POPC   C1B32287  31.124   2.407   8.768
 2330POPC   C2B32288  30.981   2.355   8.342
 2330POPC   C3B32289  31.123   2.231   7.929
 2330POPC   C4B32290  30.971   2.344   7.528
 2331POPC   NC332291  11.548  19.564   9.553
 2331POPC   PO432292  11.115  19.970   9.292
 2331POPC   GL132293  11.256  19.897   8.985
 2331POPC   GL232294  11.396  19.561   9.055
 2331POPC   C1A32295  11.303  20.125   8.613
 2331POPC   D2A32296  11.434  19.922   8.290
 2331POPC   C3A32297  11.278  20.040   7.928
 2331POPC   C4A32298  11.685  20.064   7.771
 2331POPC   C1B32299  11.248  19.549   8.632
 2331POPC   C2B32300  11.512  19.423   8.324
 2331POPC   C3B32301  11.518  19.574   7.915
 2331POPC   C4B32302  11.071  19.550   7.888
 2332POPC   NC332303  32.749  44.783   9.376
 2332POPC   PO432304  32.154  44.546   9.448
 2332POPC   GL132305  32.272  44.824   9.127
 2332POPC   GL232306  31.931  44.861   9.024
 2332POPC   C1A32307  32.567  44.867   8.727
 2332POPC   D2A32308  32.776  44.823   8.302
 2332POPC   C3A32309  32.471  44.812   7.968
 2332POPC   C4A32310  32.264  44.481   7.818
 2332POPC   C1B32311  32.129  44.592   8.715
 2332POPC   C2B32312  32.146  44.771   8.340
 2332POPC   C3B32313  31.917  44.834   7.945
 2332POPC   C4B32314  31.950  44.759   7.474
 2333POPC   NC332315   3.447  27.599   9.505
 2333POPC   PO432316   3.801  27.064   9.701
 2333POPC   GL132317   3.797  27.298   9.249
 2333POPC   GL232318   3.479  27.425   9.045
 2333POPC   C1A32319   3.909  27.387   8.786
 2333POPC   D2A32320   3.763  27.646   8.432
 2333POPC   C3A32321   3.644  27.727   7.992
 2333POPC   C4A32322   3.225  27.702   7.747
 2333POPC   C1B32323   3.270  27.575   8.687
 2333POPC   C2B32324   3.250  27.521   8.242
 2333POPC   C3B32325   3.403  27.273   7.883
 2333POPC   C4B32326   3.219  27.284   7.441
 2334POPC   NC332327  38.471   8.478   9.388
 2334POPC   PO432328  38.957   8.883   9.602
 2334POPC   GL132329  38.776   8.865   9.201
 2334POPC   GL232330  38.408   8.945   9.191
 2334POPC   C1A32331  38.700   9.057   8.802
 2334POPC   D2A32332  38.566   9.284   8.456
 2334POPC   C3A32333  38.599   9.080   8.092
 2334POPC   C4A32334  38.419   9.079   7.700
 2334POPC   C1B32335  38.284   8.701   8.804
 2334POPC   C2B32336  38.301   8.795   8.399
 2334POPC   C3B32337  38.174   8.748   8.003
 2334POPC   C4B32338  38.197   8.492   7.612
 2335POPC   NC332339  35.211  33.059   9.796
 2335POPC   PO432340  35.138  32.524   9.351
 2335POPC   GL132341  35.261  32.838   9.033
 2335POPC   GL232342  35.305  33.173   9.161
 2335POPC   C1A32343  35.303  32.887   8.605
 2335POPC   D2A32344  35.028  33.038   8.291
 2335POPC   C3A32345  35.262  32.913   7.931
 2335POPC   C4A32346  35.578  32.605   7.863
 2335POPC   C1B32347  35.396  33.359   8.742
 2335POPC   C2B32348  35.473  33.275   8.280
 2335POPC   C3B32349  35.409  33.405   7.840
 2335POPC   C4B32350  35.540  33.548   7.392
 2336POPC   NC332351  23.330  33.169   9.705
 2336POPC   PO432352  23.995  33.071   9.524
 2336POPC   GL132353  23.618  32.934   9.302
 2336POPC   GL232354  23.548  33.258   9.228
 2336POPC   C1A32355  23.452  32.854   8.862
 2336POPC   D2A32356  23.599  32.974   8.450
 2336POPC   C3A32357  23.584  32.767   8.035
 2336POPC   C4A32358  23.869  32.883   7.719
 2336POPC   C1B32359  23.829  33.251   8.859
 2336POPC   C2B32360  23.820  33.497   8.476
 2336POPC   C3B32361  23.760  33.293   8.091
 2336POPC   C4B32362  23.827  33.421   7.716
 2337POPC   NC332363   0.972  18.158   9.726
 2337POPC   PO432364   1.414  18.572   9.452
 2337POPC   GL132365   1.318  18.379   9.071
 2337POPC   GL232366   1.048  18.217   9.205
 2337POPC   C1A32367   1.263  18.374   8.629
 2337POPC   D2A32368   1.365  18.505   8.229
 2337POPC   C3A32369   1.285  18.303   7.904
 2337POPC   C4A32370   1.489  18.138   7.560
 2337POPC   C1B32371   0.852  18.524   8.881
 2337POPC   C2B32372   0.891  18.649   8.390
 2337POPC   C3B32373   0.879  18.625   7.891
 2337POPC   C4B32374   1.073  18.462   7.490
 2338POPC   NC332375  27.718  37.903   9.627
 2338POPC   PO432376  27.342  37.342   9.642
 2338POPC   GL132377  27.351  37.604   9.272
 2338POPC   GL232378  27.640  37.529   9.067
 2338POPC   C1A32379  27.204  37.630   8.820
 2338POPC   D2A32380  27.142  37.583   8.372
 2338POPC   C3A32381  27.460  37.741   8.100
 2338POPC   C4A32382  27.473  37.398   7.822
 2338POPC   C1B32383  27.684  37.591   8.601
 2338POPC   C2B32384  27.965  37.552   8.229
 2338POPC   C3B32385  27.908  37.682   7.784
 2338POPC   C4B32386  27.924  37.995   7.427
 2339POPC   NC332387  11.591   5.349   9.474
 2339POPC   PO432388  11.327   6.084   9.431
 2339POPC   GL132389  11.234   5.734   9.155
 2339POPC   GL232390  10.873   5.548   9.182
 2339POPC   C1A32391  11.415   5.874   8.743
 2339POPC   D2A32392  11.349   6.134   8.363
 2339POPC   C3A32393  11.443   5.935   7.944
 2339POPC   C4A32394  11.262   5.843   7.529
 2339POPC   C1B32395  10.956   5.675   8.737
 2339POPC   C2B32396  11.198   5.651   8.326
 2339POPC   C3B32397  11.005   5.669   7.932
 2339POPC   C4B32398  10.942   5.436   7.544
 2340POPC   NC332399  24.054  30.843   9.441
 2340POPC   PO432400  23.403  30.801   9.546
 2340POPC   GL132401  23.601  30.577   9.221
 2340POPC   GL232402  23.663  30.890   9.085
 2340POPC   C1A32403  23.614  30.375   8.810
 2340POPC   D2A32404  23.514  30.613   8.462
 2340POPC   C3A32405  23.643  30.487   8.079
 2340POPC   C4A32406  23.848  30.476   7.729
 2340POPC   C1B32407  23.960  30.750   8.784
 2340POPC   C2B32408  23.984  30.815   8.373
 2340POPC   C3B32409  23.651  31.019   8.163
 2340POPC   C4B32410  23.618  30.957   7.743
 2341POPC   NC332411   2.470   4.491   9.388
 2341POPC   PO432412   2.329   3.881   9.387
 2341POPC   GL132413   2.735   4.083   9.201
 2341POPC   GL232414   2.735   3.922   8.896
 2341POPC   C1A32415   2.849   4.413   8.831
 2341POPC   D2A32416   3.009   4.705   8.490
 2341POPC   C3A32417   3.128   4.498   8.105
 2341POPC   C4A32418   2.757   4.317   7.897
 2341POPC   C1B32419   2.578   4.111   8.501
 2341POPC   C2B32420   2.533   3.865   8.126
 2341POPC   C3B32421   2.675   3.841   7.710
 2341POPC   C4B32422   2.908   4.081   7.399
 2342POPC   NC332423  28.921  18.623   9.326
 2342POPC   PO432424  29.233  19.230   9.511
 2342POPC   GL132425  28.994  19.124   9.146
 2342POPC   GL232426  29.262  18.951   9.082
 2342POPC   C1A32427  28.978  19.341   8.722
 2342POPC   D2A32428  29.237  19.255   8.335
 2342POPC   C3A32429  29.067  19.341   7.919
 2342POPC   C4A32430  28.871  19.358   7.477
 2342POPC   C1B32431  29.450  18.987   8.719
 2342POPC   C2B32432  29.431  18.769   8.336
 2342POPC   C3B32433  29.477  18.982   7.935
 2342POPC   C4B32434  29.224  18.961   7.566
 2343POPC   NC332435  13.940  41.073   9.749
 2343POPC   PO432436  14.141  40.558   9.335
 2343POPC   GL132437  14.467  40.754   9.108
 2343POPC   GL232438  14.568  41.100   9.266
 2343POPC   C1A32439  14.379  40.777   8.660
 2343POPC   D2A32440  14.342  40.540   8.270
 2343POPC   C3A32441  14.520  40.663   7.897
 2343POPC   C4A32442  14.119  40.758   7.778
 2343POPC   C1B32443  14.753  41.106   8.866
 2343POPC   C2B32444  14.659  41.150   8.434
 2343POPC   C3B32445  14.341  41.075   8.159
 2343POPC   C4B32446  14.459  41.154   7.741
 2344POPC   NC332447  41.182  10.621   9.538
 2344POPC   PO432448  41.817  10.375   9.525
 2344POPC   GL132449  41.573  10.605   9.209
 2344POPC   GL232450  41.301  10.348   9.142
 2344POPC   C1A32451  41.525  10.740   8.780
 2344POPC   D2A32452  41.601  10.466   8.416
 2344POPC   C3A32453  41.602  10.728   8.028
 2344POPC   C4A32454  41.872  10.681   7.696
 2344POPC   C1B32455  41.103  10.461   8.784
 2344POPC   C2B32456  41.134  10.690   8.409
 2344POPC   C3B32457  41.189  10.448   8.031
 2344POPC   C4B32458  41.343  10.548   7.587
 2345POPC   NC332459  10.063  34.476   9.469
 2345POPC   PO432460   9.642  34.921   9.648
 2345POPC   GL132461   9.727  34.805   9.210
 2345POPC   GL232462   9.583  34.467   9.160
 2345POPC   C1A32463  10.048  34.853   8.866
 2345POPC   D2A32464  10.215  34.858   8.440
 2345POPC   C3A32465   9.924  34.745   8.145
 2345POPC   C4A32466   9.893  34.714   7.707
 2345POPC   C1B32467   9.814  34.396   8.766
 2345POPC   C2B32468   9.980  34.281   8.355
 2345POPC   C3B32469   9.802  34.257   7.973
 2345POPC   C4B32470   9.490  34.313   7.670
 2346POPC   NC332471  35.100  19.413   9.391
 2346POPC   PO432472  35.657  18.966   9.483
 2346POPC   GL132473  35.312  18.970   9.155
 2346POPC   GL232474  34.962  18.832   9.203
 2346POPC   C1A32475  35.216  19.193   8.769
 2346POPC   D2A32476  35.373  19.340   8.348
 2346POPC   C3A32477  35.252  19.354   7.899
 2346POPC   C4A32478  35.559  19.310   7.553
 2346POPC   C1B32479  35.024  18.610   8.801
 2346POPC   C2B32480  34.962  18.411   8.399
 2346POPC   C3B32481  35.053  18.558   7.969
 2346POPC   C4B32482  34.804  18.634   7.599
 2347POPC   NC332483  31.048   6.198   9.465
 2347POPC   PO432484  30.460   6.527   9.613
 2347POPC   GL132485  30.698   6.453   9.219
 2347POPC   GL232486  30.844   6.713   9.119
 2347POPC   C1A32487  30.796   6.397   8.740
 2347POPC   D2A32488  30.838   6.300   8.268
 2347POPC   C3A32489  30.588   6.576   7.975
 2347POPC   C4A32490  30.478   6.655   7.540
 2347POPC   C1B32491  31.080   6.851   8.816
 2347POPC   C2B32492  31.166   6.658   8.447
 2347POPC   C3B32493  31.246   6.779   8.054
 2347POPC   C4B32494  30.985   6.787   7.718
 2348POPC   NC332495   2.514  14.384   9.631
 2348POPC   PO432496   1.950  14.353   9.610
 2348POPC   GL132497   1.714  14.313   9.183
 2348POPC   GL232498   1.583  14.632   9.042
 2348POPC   C1A32499   1.769  14.272   8.703
 2348POPC   D2A32500   2.017  14.486   8.346
 2348POPC   C3A32501   2.070  14.310   7.921
 2348POPC   C4A32502   2.002  14.425   7.485
 2348POPC   C1B32503   1.561  14.718   8.572
 2348POPC   C2B32504   1.521  14.416   8.241
 2348POPC   C3B32505   1.572  14.325   7.807
 2348POPC   C4B32506   1.662  14.059   7.455
 2349POPC   NC332507  10.781   7.580   9.357
 2349POPC   PO432508  10.179   7.256   9.475
 2349POPC   GL132509  10.444   7.154   9.107
 2349POPC   GL232510  10.819   7.165   9.056
 2349POPC   C1A32511  10.534   7.181   8.659
 2349POPC   D2A32512  10.543   7.488   8.359
 2349POPC   C3A32513  10.515   7.309   7.976
 2349POPC   C4A32514  10.377   7.205   7.576
 2349POPC   C1B32515  10.957   7.463   8.727
 2349POPC   C2B32516  11.013   7.649   8.307
 2349POPC   C3B32517  10.912   7.627   7.891
 2349POPC   C4B32518  10.604   7.676   7.614
 2350POPC   NC332519  33.469  23.953   9.394
 2350POPC   PO432520  33.008  23.431   9.490
 2350POPC   GL132521  33.223  23.606   9.134
 2350POPC   GL232522  32.930  23.763   8.994
 2350POPC   C1A32523  33.380  23.781   8.715
 2350POPC   D2A32524  33.222  23.891   8.292
 2350POPC   C3A32525  33.274  23.613   7.943
 2350POPC   C4A32526  33.123  23.511   7.541
 2350POPC   C1B32527  32.878  24.052   8.651
 2350POPC   C2B32528  32.707  24.018   8.226
 2350POPC   C3B32529  32.886  23.922   7.806
 2350POPC   C4B32530  32.897  23.924   7.338
 2351POPC   NC332531   3.824  25.921   9.524
 2351POPC   PO432532   3.262  26.321   9.637
 2351POPC   GL132533   3.371  26.074   9.267
 2351POPC   GL232534   3.201  25.734   9.203
 2351POPC   C1A32535   3.633  26.095   8.897
 2351POPC   D2A32536   3.670  25.987   8.461
 2351POPC   C3A32537   3.307  26.088   8.248
 2351POPC   C4A32538   3.259  26.046   7.808
 2351POPC   C1B32539   3.346  25.691   8.752
 2351POPC   C2B32540   3.391  25.572   8.279
 2351POPC   C3B32541   3.626  25.716   7.882
 2351POPC   C4B32542   4.035  25.722   7.645
 2352POPC   NC332543  37.571  37.896   9.585
 2352POPC   PO432544  37.895  37.477   9.167
 2352POPC   GL132545  37.453  37.605   9.083
 2352POPC   GL232546  37.344  37.987   9.140
 2352POPC   C1A32547  37.515  37.477   8.633
 2352POPC   D2A32548  37.865  37.641   8.391
 2352POPC   C3A32549  37.758  37.617   7.965
 2352POPC   C4A32550  37.537  37.320   7.742
 2352POPC   C1B32551  37.368  37.944   8.721
 2352POPC   C2B32552  37.344  37.842   8.311
 2352POPC   C3B32553  37.335  38.099   7.992
 2352POPC   C4B32554  37.563  38.034   7.679
 2353POPC   NC332555  40.011   6.266   9.430
 2353POPC   PO432556  40.211   6.916   9.382
 2353POPC   GL132557  39.880   6.764   9.080
 2353POPC   GL232558  40.059   6.487   8.991
 2353POPC   C1A32559  39.744   6.670   8.655
 2353POPC   D2A32560  40.129   6.580   8.409
 2353POPC   C3A32561  40.190   6.842   8.050
 2353POPC   C4A32562  39.880   6.830   7.717
 2353POPC   C1B32563  40.108   6.142   8.728
 2353POPC   C2B32564  39.908   6.107   8.351
 2353POPC   C3B32565  39.849   6.368   7.996
 2353POPC   C4B32566  40.001   6.061   7.715
 2354POPC   NC332567  30.163  13.067   9.564
 2354POPC   PO432568  29.738  12.549   9.620
 2354POPC   GL132569  29.958  12.728   9.226
 2354POPC   GL232570  29.990  13.054   9.081
 2354POPC   C1A32571  30.181  12.667   8.835
 2354POPC   D2A32572  30.085  12.463   8.495
 2354POPC   C3A32573  29.938  12.713   8.149
 2354POPC   C4A32574  29.893  12.689   7.720
 2354POPC   C1B32575  29.695  13.198   8.786
 2354POPC   C2B32576  29.814  13.186   8.375
 2354POPC   C3B32577  29.638  13.154   7.974
 2354POPC   C4B32578  29.843  13.267   7.575
 2355POPC   NC332579  15.045  35.976   9.668
 2355POPC   PO432580  15.483  36.501   9.627
 2355POPC   GL132581  15.297  36.185   9.263
 2355POPC   GL232582  15.187  35.807   9.209
 2355POPC   C1A32583  15.099  36.142   8.826
 2355POPC   D2A32584  15.084  36.407   8.469
 2355POPC   C3A32585  15.086  36.240   8.052
 2355POPC   C4A32586  15.339  36.209   7.688
 2355POPC   C1B32587  15.168  35.647   8.762
 2355POPC   C2B32588  15.121  35.836   8.352
 2355POPC   C3B32589  15.154  35.762   7.884
 2355POPC   C4B32590  15.129  35.652   7.429
 2356POPC   NC332591  30.865  16.906   9.530
 2356POPC   PO432592  30.574  16.272   9.261
 2356POPC   GL132593  30.659  16.585   8.972
 2356POPC   GL232594  30.567  16.917   9.090
 2356POPC   C1A32595  30.731  16.551   8.544
 2356POPC   D2A32596  30.988  16.367   8.217
 2356POPC   C3A32597  30.776  16.457   7.836
 2356POPC   C4A32598  30.725  16.597   7.423
 2356POPC   C1B32599  30.739  17.076   8.711
 2356POPC   C2B32600  30.849  17.057   8.277
 2356POPC   C3B32601  30.753  17.001   7.824
 2356POPC   C4B32602  30.726  17.100   7.369
 2357POPC   NC332603   7.743  12.713   9.568
 2357POPC   PO432604   7.126  12.637   9.548
 2357POPC   GL132605   7.374  12.777   9.182
 2357POPC   GL232606   7.628  13.035   9.181
 2357POPC   C1A32607   7.467  12.751   8.735
 2357POPC   D2A32608   7.479  12.609   8.300
 2357POPC   C3A32609   7.177  12.743   8.028
 2357POPC   C4A32610   7.241  13.059   7.704
 2357POPC   C1B32611   7.895  13.077   8.822
 2357POPC   C2B32612   7.877  13.176   8.376
 2357POPC   C3B32613   7.646  13.008   8.041
 2357POPC   C4B32614   7.604  12.686   7.756
 2358POPC   NC332615  12.266  39.365   9.517
 2358POPC   PO432616  11.609  39.650   9.432
 2358POPC   GL132617  11.854  39.297   9.232
 2358POPC   GL232618  12.173  39.290   9.035
 2358POPC   C1A32619  11.775  39.021   8.895
 2358POPC   D2A32620  11.707  39.183   8.473
 2358POPC   C3A32621  12.018  39.154   8.163
 2358POPC   C4A32622  11.914  39.170   7.745
 2358POPC   C1B32623  12.428  39.573   8.847
 2358POPC   C2B32624  12.426  39.456   8.453
 2358POPC   C3B32625  12.334  39.553   8.066
 2358POPC   C4B32626  12.305  39.472   7.679
 2359POPC   NC332627  38.650  39.018   9.285
 2359POPC   PO432628  38.325  38.542   9.641
 2359POPC   GL132629  38.199  38.496   9.217
 2359POPC   GL232630  38.507  38.576   9.054
 2359POPC   C1A32631  38.017  38.600   8.807
 2359POPC   D2A32632  38.104  38.457   8.391
 2359POPC   C3A32633  38.443  38.440   8.157
 2359POPC   C4A32634  38.429  38.357   7.741
 2359POPC   C1B32635  38.717  38.534   8.639
 2359POPC   C2B32636  38.807  38.780   8.264
 2359POPC   C3B32637  38.863  38.561   7.874
 2359POPC   C4B32638  38.859  38.186   7.568
 2360POPC   NC332639  25.890  24.284   9.513
 2360POPC   PO432640  26.567  24.549   9.541
 2360POPC   GL132641  26.276  24.382   9.199
 2360POPC   GL232642  26.113  24.692   9.145
 2360POPC   C1A32643  26.009  24.340   8.784
 2360POPC   D2A32644  26.169  24.405   8.371
 2360POPC   C3A32645  26.002  24.432   7.975
 2360POPC   C4A32646  25.978  24.544   7.530
 2360POPC   C1B32647  26.451  24.616   8.792
 2360POPC   C2B32648  26.608  24.647   8.371
 2360POPC   C3B32649  26.503  24.787   8.011
 2360POPC   C4B32650  26.190  24.935   7.798
 2361POPC   NC332651  38.027  44.660   9.398
 2361POPC   PO432652  37.426  44.327   9.499
 2361POPC   GL132653  37.634  44.385   9.157
 2361POPC   GL232654  37.621  44.714   9.099
 2361POPC   C1A32655  37.580  44.372   8.724
 2361POPC   D2A32656  37.829  44.412   8.386
 2361POPC   C3A32657  37.606  44.423   8.029
 2361POPC   C4A32658  37.825  44.300   7.663
 2361POPC   C1B32659  37.970  44.745   8.775
 2361POPC   C2B32660  38.012  44.898   8.367
 2361POPC   C3B32661  38.043  44.695   7.988
 2361POPC   C4B32662  37.724  44.804   7.699
 2362POPC   NC332663  24.976  32.292   9.548
 2362POPC   PO432664  25.602  31.999   9.706
 2362POPC   GL132665  25.446  32.146   9.209
 2362POPC   GL232666  25.093  32.281   9.070
 2362POPC   C1A32667  25.478  32.360   8.771
 2362POPC   D2A32668  25.288  32.543   8.393
 2362POPC   C3A32669  25.272  32.230   8.052
 2362POPC   C4A32670  25.483  32.260   7.679
 2362POPC   C1B32671  24.885  32.499   8.720
 2362POPC   C2B32672  24.832  32.267   8.315
 2362POPC   C3B32673  24.765  32.296   7.849
 2362POPC   C4B32674  24.871  32.114   7.461
 2363POPC   NC332675   2.434   0.938   9.332
 2363POPC   PO432676   1.738   1.072   9.534
 2363POPC   GL132677   1.920   1.383   9.253
 2363POPC   GL232678   2.028   1.123   9.109
 2363POPC   C1A32679   2.057   1.455   8.771
 2363POPC   D2A32680   2.105   1.156   8.473
 2363POPC   C3A32681   2.103   1.329   8.078
 2363POPC   C4A32682   1.802   1.317   7.768
 2363POPC   C1B32683   1.730   1.021   8.804
 2363POPC   C2B32684   1.791   0.742   8.487
 2363POPC   C3B32685   1.821   0.896   8.099
 2363POPC   C4B32686   1.496   0.792   7.812
 2364POPC   NC332687  10.074   5.216   9.543
 2364POPC   PO432688   9.464   5.038   9.474
 2364POPC   GL132689   9.735   5.174   9.134
 2364POPC   GL232690   9.947   4.921   9.149
 2364POPC   C1A32691   9.943   5.110   8.696
 2364POPC   D2A32692   9.943   5.116   8.279
 2364POPC   C3A32693   9.628   5.136   8.005
 2364POPC   C4A32694   9.651   5.131   7.573
 2364POPC   C1B32695   9.724   4.678   8.832
 2364POPC   C2B32696   9.611   4.736   8.369
 2364POPC   C3B32697   9.662   4.640   7.911
 2364POPC   C4B32698   9.438   4.671   7.502
 2365POPC   NC332699  42.097   1.564   9.432
 2365POPC   PO432700  42.354   1.138   9.907
 2365POPC   GL132701  42.353   1.114   9.353
 2365POPC   GL232702  42.414   1.334   9.091
 2365POPC   C1A32703  42.233   0.946   8.872
 2365POPC   D2A32704  42.065   1.085   8.444
 2365POPC   C3A32705  42.173   0.959   8.045
 2365POPC   C4A32706  42.125   1.081   7.636
 2365POPC   C1B32707  42.645   1.228   8.699
 2365POPC   C2B32708  42.594   1.161   8.245
 2365POPC   C3B32709  42.617   1.114   7.786
 2365POPC   C4B32710  42.470   1.405   7.429
 2366POPC   NC332711  28.160  24.785   9.591
 2366POPC   PO432712  28.017  24.074   9.571
 2366POPC   GL132713  28.028  24.459   9.202
 2366POPC   GL232714  28.225  24.748   9.100
 2366POPC   C1A32715  27.932  24.625   8.724
 2366POPC   D2A32716  28.114  24.517   8.344
 2366POPC   C3A32717  28.322  24.556   7.941
 2366POPC   C4A32718  28.722  24.326   7.934
 2366POPC   C1B32719  28.453  24.610   8.739
 2366POPC   C2B32720  28.612  24.727   8.343
 2366POPC   C3B32721  28.904  24.811   8.031
 2366POPC   C4B32722  28.694  24.780   7.633
 2367POPC   NC332723  35.113  42.489   9.368
 2367POPC   PO432724  35.497  41.912   9.400
 2367POPC   GL132725  35.377  42.126   9.063
 2367POPC   GL232726  35.663  42.299   9.013
 2367POPC   C1A32727  35.203  42.284   8.695
 2367POPC   D2A32728  35.088  42.409   8.299
 2367POPC   C3A32729  35.433  42.458   8.007
 2367POPC   C4A32730  35.397  42.418   7.540
 2367POPC   C1B32731  35.683  42.061   8.624
 2367POPC   C2B32732  35.851  42.144   8.201
 2367POPC   C3B32733  35.896  42.339   7.782
 2367POPC   C4B32734  35.787  42.162   7.393
 2368POPC   NC332735  29.617  15.330   9.384
 2368POPC   PO432736  30.253  15.147   9.409
 2368POPC   GL132737  30.010  15.207   9.054
 2368POPC   GL232738  29.805  14.933   9.112
 2368POPC   C1A32739  29.981  15.094   8.630
 2368POPC   D2A32740  30.023  14.923   8.249
 2368POPC   C3A32741  30.093  15.265   7.986
 2368POPC   C4A32742  30.103  15.345   7.528
 2368POPC   C1B32743  29.681  14.720   8.764
 2368POPC   C2B32744  29.526  14.829   8.376
 2368POPC   C3B32745  29.588  14.932   7.944
 2368POPC   C4B32746  29.613  15.322   7.687
 2369POPC   NC332747  34.154  17.342   9.624
 2369POPC   PO432748  33.718  17.794   9.723
 2369POPC   GL132749  33.873  17.704   9.295
 2369POPC   GL232750  33.914  17.342   9.168
 2369POPC   C1A32751  33.725  17.699   8.873
 2369POPC   D2A32752  33.896  17.470   8.551
 2369POPC   C3A32753  33.928  17.687   8.179
 2369POPC   C4A32754  33.812  17.753   7.769
 2369POPC   C1B32755  33.569  17.185   8.890
 2369POPC   C2B32756  33.526  17.143   8.443
 2369POPC   C3B32757  33.864  17.168   8.117
 2369POPC   C4B32758  33.714  17.263   7.698
 2370POPC   NC332759  11.299  11.765   9.555
 2370POPC   PO432760  10.947  11.152   9.587
 2370POPC   GL132761  11.106  11.153   9.195
 2370POPC   GL232762  11.338  11.423   9.175
 2370POPC   C1A32763  11.273  11.034   8.822
 2370POPC   D2A32764  11.164  11.135   8.461
 2370POPC   C3A32765  11.302  10.961   8.095
 2370POPC   C4A32766  11.348  11.072   7.695
 2370POPC   C1B32767  11.258  11.564   8.763
 2370POPC   C2B32768  11.389  11.561   8.343
 2370POPC   C3B32769  11.272  11.643   7.961
 2370POPC   C4B32770  11.416  11.613   7.586
 2371POPC   NC332771  16.548  22.533   9.289
 2371POPC   PO432772  16.716  23.205   9.399
 2371POPC   GL132773  16.780  22.980   9.049
 2371POPC   GL232774  17.012  22.692   9.091
 2371POPC   C1A32775  16.616  23.135   8.659
 2371POPC   D2A32776  16.788  23.316   8.288
 2371POPC   C3A32777  16.576  23.214   7.925
 2371POPC   C4A32778  16.466  22.844   7.696
 2371POPC   C1B32779  17.014  22.811   8.635
 2371POPC   C2B32780  16.851  22.781   8.201
 2371POPC   C3B32781  16.972  22.752   7.768
 2371POPC   C4B32782  17.277  22.619   7.426
 2372POPC   NC332783  39.636   4.855   9.636
 2372POPC   PO432784  40.008   5.410   9.554
 2372POPC   GL132785  39.990   5.236   9.181
 2372POPC   GL232786  39.976   4.856   9.217
 2372POPC   C1A32787  40.050   5.123   8.769
 2372POPC   D2A32788  40.262   4.965   8.445
 2372POPC   C3A32789  40.135   5.232   8.157
 2372POPC   C4A32790  40.041   5.212   7.741
 2372POPC   C1B32791  40.087   4.608   8.832
 2372POPC   C2B32792  39.926   4.543   8.409
 2372POPC   C3B32793  39.994   4.750   8.022
 2372POPC   C4B32794  39.787   4.768   7.625
 2373POPC   NC332795  13.017  14.682   9.111
 2373POPC   PO432796  12.808  14.175   9.446
 2373POPC   GL132797  13.044  14.179   9.057
 2373POPC   GL232798  13.011  13.877   8.973
 2373POPC   C1A32799  12.973  14.327   8.584
 2373POPC   D2A32800  12.624  14.597   8.321
 2373POPC   C3A32801  12.588  14.514   7.854
 2373POPC   C4A32802  12.973  14.417   7.649
 2373POPC   C1B32803  12.619  14.008   8.798
 2373POPC   C2B32804  12.579  14.080   8.377
 2373POPC   C3B32805  12.885  14.138   8.091
 2373POPC   C4B32806  12.810  13.938   7.717
 2374POPC   NC332807  36.122  32.308   9.611
 2374POPC   PO432808  35.843  31.804   9.374
 2374POPC   GL132809  36.093  32.120   9.126
 2374POPC   GL232810  36.018  32.500   9.146
 2374POPC   C1A32811  36.193  32.097   8.691
 2374POPC   D2A32812  35.949  31.943   8.358
 2374POPC   C3A32813  36.089  32.146   8.009
 2374POPC   C4A32814  35.951  32.340   7.639
 2374POPC   C1B32815  36.211  32.625   8.749
 2374POPC   C2B32816  36.398  32.483   8.337
 2374POPC   C3B32817  36.324  32.609   7.897
 2374POPC   C4B32818  36.452  32.504   7.473
 2375POPC   NC332819  20.021   1.269   9.706
 2375POPC   PO432820  19.456   1.399   9.336
 2375POPC   GL132821  19.801   1.161   9.157
 2375POPC   GL232822  20.093   0.951   9.331
 2375POPC   C1A32823  19.701   1.085   8.715
 2375POPC   D2A32824  19.647   1.341   8.379
 2375POPC   C3A32825  19.806   1.194   8.017
 2375POPC   C4A32826  19.957   1.506   7.753
 2375POPC   C1B32827  20.139   0.897   8.868
 2375POPC   C2B32828  20.164   1.013   8.418
 2375POPC   C3B32829  20.166   0.821   8.028
 2375POPC   C4B32830  19.875   0.731   7.769
 2376POPC   NC332831  33.194  43.033   9.433
 2376POPC   PO432832  32.662  43.451   9.334
 2376POPC   GL132833  32.872  43.197   9.092
 2376POPC   GL232834  32.699  42.903   9.202
 2376POPC   C1A32835  33.115  43.177   8.731
 2376POPC   D2A32836  32.875  43.103   8.384
 2376POPC   C3A32837  33.068  42.928   8.099
 2376POPC   C4A32838  33.201  43.236   7.798
 2376POPC   C1B32839  32.563  42.957   8.778
 2376POPC   C2B32840  32.557  42.694   8.435
 2376POPC   C3B32841  32.619  42.736   8.013
 2376POPC   C4B32842  32.691  43.147   7.848
 2377POPC   NC332843  30.612  28.241   9.480
 2377POPC   PO432844  30.999  28.843   9.468
 2377POPC   GL132845  30.876  28.755   9.067
 2377POPC   GL232846  30.609  28.574   9.086
 2377POPC   C1A32847  30.955  28.513   8.709
 2377POPC   D2A32848  30.796  28.319   8.364
 2377POPC   C3A32849  30.798  28.483   7.992
 2377POPC   C4A32850  30.808  28.361   7.612
 2377POPC   C1B32851  30.455  28.353   8.744
 2377POPC   C2B32852  30.278  28.471   8.410
 2377POPC   C3B32853  30.355  28.754   8.100
 2377POPC   C4B32854  30.470  28.738   7.674
 2378POPC   NC332855  39.032  29.625   9.589
 2378POPC   PO432856  39.353  29.024   9.575
 2378POPC   GL132857  39.087  29.014   9.198
 2378POPC   GL232858  38.971  29.339   9.153
 2378POPC   C1A32859  39.113  29.017   8.735
 2378POPC   D2A32860  39.421  29.184   8.422
 2378POPC   C3A32861  39.306  29.347   8.008
 2378POPC   C4A32862  39.251  29.157   7.608
 2378POPC   C1B32863  38.946  29.528   8.732
 2378POPC   C2B32864  38.914  29.331   8.343
 2378POPC   C3B32865  38.838  29.151   7.944
 2378POPC   C4B32866  38.843  29.449   7.667
 2379POPC   NC332867  12.522  43.035   9.430
 2379POPC   PO432868  11.891  43.101   9.617
 2379POPC   GL132869  12.016  43.102   9.159
 2379POPC   GL232870  12.246  43.362   9.080
 2379POPC   C1A32871  12.013  43.147   8.674
 2379POPC   D2A32872  11.935  42.959   8.270
 2379POPC   C3A32873  12.119  43.138   7.884
 2379POPC   C4A32874  12.141  43.319   7.423
 2379POPC   C1B32875  12.427  43.424   8.669
 2379POPC   C2B32876  12.372  43.557   8.245
 2379POPC   C3B32877  12.430  43.536   7.779
 2379POPC   C4B32878  12.480  43.660   7.299
 2380POPC   NC332879  20.892  14.521   9.584
 2380POPC   PO432880  20.394  14.076   9.505
 2380POPC   GL132881  20.533  14.361   9.211
 2380POPC   GL232882  20.834  14.223   9.180
 2380POPC   C1A32883  20.658  14.506   8.799
 2380POPC   D2A32884  20.788  14.621   8.418
 2380POPC   C3A32885  20.596  14.478   8.039
 2380POPC   C4A32886  20.723  14.504   7.625
 2380POPC   C1B32887  20.995  14.141   8.762
 2380POPC   C2B32888  20.752  14.116   8.407
 2380POPC   C3B32889  20.965  14.141   8.029
 2380POPC   C4B32890  20.862  14.035   7.641
 2381POPC   NC332891  27.912  23.323   9.398
 2381POPC   PO432892  27.386  22.978   9.577
 2381POPC   GL132893  27.548  22.824   9.203
 2381POPC   GL232894  27.287  22.614   9.113
 2381POPC   C1A32895  27.729  22.980   8.820
 2381POPC   D2A32896  27.498  23.160   8.474
 2381POPC   C3A32897  27.651  23.288   8.100
 2381POPC   C4A32898  27.563  23.137   7.732
 2381POPC   C1B32899  27.318  22.714   8.705
 2381POPC   C2B32900  27.636  22.592   8.454
 2381POPC   C3B32901  27.587  22.756   8.078
 2381POPC   C4B32902  27.366  22.649   7.715
 2382POPC   NC332903  31.126  13.316   9.637
 2382POPC   PO432904  30.446  13.422   9.658
 2382POPC   GL132905  30.695  13.618   9.330
 2382POPC   GL232906  31.032  13.531   9.201
 2382POPC   C1A32907  30.603  13.613   8.900
 2382POPC   D2A32908  30.433  13.373   8.571
 2382POPC   C3A32909  30.507  13.608   8.227
 2382POPC   C4A32910  30.570  13.703   7.822
 2382POPC   C1B32911  31.109  13.744   8.849
 2382POPC   C2B32912  30.966  13.609   8.495
 2382POPC   C3B32913  31.035  13.552   8.084
 2382POPC   C4B32914  31.051  13.826   7.748
 2383POPC   NC332915   2.188   1.805   9.578
 2383POPC   PO432916   1.774   2.200   9.348
 2383POPC   GL132917   2.029   2.160   9.082
 2383POPC   GL232918   2.039   1.839   9.090
 2383POPC   C1A32919   2.256   2.276   8.760
 2383POPC   D2A32920   2.113   2.300   8.331
 2383POPC   C3A32921   2.232   1.945   8.053
 2383POPC   C4A32922   2.267   2.094   7.612
 2383POPC   C1B32923   1.893   1.918   8.667
 2383POPC   C2B32924   1.650   2.033   8.357
 2383POPC   C3B32925   1.775   2.099   7.957
 2383POPC   C4B32926   1.816   1.819   7.624
 2384POPC   NC332927  23.348  30.349   9.615
 2384POPC   PO432928  22.719  30.073   9.552
 2384POPC   GL132929  23.018  30.008   9.209
 2384POPC   GL232930  23.186  30.284   9.070
 2384POPC   C1A32931  22.869  29.915   8.783
 2384POPC   D2A32932  22.743  30.088   8.379
 2384POPC   C3A32933  22.845  29.906   7.976
 2384POPC   C4A32934  22.899  29.739   7.549
 2384POPC   C1B32935  23.125  30.326   8.614
 2384POPC   C2B32936  23.176  30.292   8.161
 2384POPC   C3B32937  23.399  30.093   7.803
 2384POPC   C4B32938  23.255  30.048   7.367
 2385POPC   NC332939   3.129  40.919   9.774
 2385POPC   PO432940   3.681  40.612   9.484
 2385POPC   GL132941   3.770  40.701   9.111
 2385POPC   GL232942   3.768  41.072   9.167
 2385POPC   C1A32943   3.584  40.621   8.730
 2385POPC   D2A32944   3.329  40.650   8.379
 2385POPC   C3A32945   3.496  40.764   7.992
 2385POPC   C4A32946   3.389  41.215   7.834
 2385POPC   C1B32947   3.984  41.018   8.786
 2385POPC   C2B32948   3.876  40.876   8.382
 2385POPC   C3B32949   3.877  41.102   8.027
 2385POPC   C4B32950   3.770  40.972   7.619
 2386POPC   NC332951  33.048  29.538   9.765
 2386POPC   PO432952  32.834  29.035   9.380
 2386POPC   GL132953  33.056  28.995   9.012
 2386POPC   GL232954  33.293  28.747   9.095
 2386POPC   C1A32955  32.868  29.115   8.617
 2386POPC   D2A32956  32.710  29.389   8.285
 2386POPC   C3A32957  33.013  29.338   7.963
 2386POPC   C4A32958  33.085  29.132   7.577
 2386POPC   C1B32959  33.461  28.805   8.707
 2386POPC   C2B32960  33.333  28.618   8.321
 2386POPC   C3B32961  33.296  28.763   7.890
 2386POPC   C4B32962  33.478  28.805   7.466
 2387POPC   NC332963  42.118  42.214   9.568
 2387POPC   PO432964  41.496  42.418   9.386
 2387POPC   GL132965  41.822  42.297   9.137
 2387POPC   GL232966  41.773  41.962   9.123
 2387POPC   C1A32967  41.894  42.462   8.738
 2387POPC   D2A32968  41.573  42.585   8.473
 2387POPC   C3A32969  41.657  42.491   8.064
 2387POPC   C4A32970  41.946  42.389   7.768
 2387POPC   C1B32971  41.656  42.026   8.687
 2387POPC   C2B32972  41.808  42.034   8.255
 2387POPC   C3B32973  41.588  42.016   7.835
 2387POPC   C4B32974  41.754  42.067   7.422
 2388POPC   NC332975   7.844  14.257   9.493
 2388POPC   PO432976   8.321  14.697   9.652
 2388POPC   GL132977   8.267  14.542   9.260
 2388POPC   GL232978   7.963  14.664   9.199
 2388POPC   C1A32979   8.284  14.411   8.845
 2388POPC   D2A32980   8.502  14.289   8.504
 2388POPC   C3A32981   8.322  14.377   8.120
 2388POPC   C4A32982   8.198  14.288   7.689
 2388POPC   C1B32983   7.856  14.687   8.785
 2388POPC   C2B32984   7.729  14.806   8.372
 2388POPC   C3B32985   7.901  14.651   8.023
 2388POPC   C4B32986   7.882  14.724   7.612
 2389POPC   NC332987  32.584   9.712   9.599
 2389POPC   PO432988  32.063  10.029   9.475
 2389POPC   GL132989  32.183   9.757   9.157
 2389POPC   GL232990  32.511   9.948   9.087
 2389POPC   C1A32991  32.075   9.714   8.721
 2389POPC   D2A32992  32.375   9.973   8.491
 2389POPC   C3A32993  32.293   9.978   8.040
 2389POPC   C4A32994  31.941   9.733   7.855
 2389POPC   C1B32995  32.566   9.590   8.783
 2389POPC   C2B32996  32.412   9.499   8.316
 2389POPC   C3B32997  32.378   9.442   7.855
 2389POPC   C4B32998  32.562   9.360   7.406
 2390POPC   NC332999  38.863   6.940   9.371
 2390POPC   PO433000  39.531   6.701   9.479
 2390POPC   GL133001  39.399   6.558   9.094
 2390POPC   GL233002  39.335   6.898   9.019
 2390POPC   C1A33003  39.181   6.502   8.709
 2390POPC   D2A33004  39.131   6.691   8.304
 2390POPC   C3A33005  39.168   6.443   7.943
 2390POPC   C4A33006  39.420   6.417   7.617
 2390POPC   C1B33007  39.015   7.023   8.717
 2390POPC   C2B33008  38.746   7.011   8.359
 2390POPC   C3B33009  38.961   7.081   7.960
 2390POPC   C4B33010  39.391   6.926   7.860
 2391POPC   NC333011  21.005  42.567   9.489
 2391POPC   PO433012  20.298  42.666   9.434
 2391POPC   GL133013  20.459  42.338   9.138
 2391POPC   GL233014  20.821  42.331   9.090
 2391POPC   C1A33015  20.520  42.296   8.699
 2391POPC   D2A33016  20.676  42.542   8.387
 2391POPC   C3A33017  20.506  42.487   8.011
 2391POPC   C4A33018  20.662  42.594   7.601
 2391POPC   C1B33019  21.033  42.320   8.708
 2391POPC   C2B33020  21.053  42.141   8.331
 2391POPC   C3B33021  20.805  42.059   7.979
 2391POPC   C4B33022  20.922  42.117   7.542
 2392POPC   NC333023   5.149  10.963   9.438
 2392POPC   PO433024   4.671  10.564   9.620
 2392POPC   GL133025   4.980  10.472   9.239
 2392POPC   GL233026   5.257  10.211   9.178
 2392POPC   C1A33027   5.128  10.578   8.815
 2392POPC   D2A33028   4.975  10.431   8.388
 2392POPC   C3A33029   5.333  10.313   8.099
 2392POPC   C4A33030   5.558  10.608   7.797
 2392POPC   C1B33031   5.172  10.054   8.770
 2392POPC   C2B33032   5.054   9.907   8.372
 2392POPC   C3B33033   4.808  10.005   8.023
 2392POPC   C4B33034   4.809  10.243   7.637
 2393POPC   NC333035  28.536  29.810   9.649
 2393POPC   PO433036  28.119  30.227   9.368
 2393POPC   GL133037  28.517  30.057   9.152
 2393POPC   GL233038  28.599  29.692   9.149
 2393POPC   C1A33039  28.479  30.225   8.716
 2393POPC   D2A33040  28.076  30.219   8.438
 2393POPC   C3A33041  28.215  30.167   8.006
 2393POPC   C4A33042  28.621  30.283   7.781
 2393POPC   C1B33043  28.256  29.755   8.836
 2393POPC   C2B33044  28.067  29.545   8.484
 2393POPC   C3B33045  28.016  29.577   8.054
 2393POPC   C4B33046  28.327  29.746   7.751
 2394POPC   NC333047  25.474  20.057   9.568
 2394POPC   PO433048  25.064  19.546   9.668
 2394POPC   GL133049  25.232  19.652   9.265
 2394POPC   GL233050  25.133  20.006   9.180
 2394POPC   C1A33051  25.187  19.589   8.811
 2394POPC   D2A33052  25.200  19.805   8.393
 2394POPC   C3A33053  24.935  19.669   8.037
 2394POPC   C4A33054  25.074  19.811   7.648
 2394POPC   C1B33055  25.236  20.160   8.774
 2394POPC   C2B33056  25.545  20.214   8.440
 2394POPC   C3B33057  25.440  20.078   8.011
 2394POPC   C4B33058  25.059  20.281   7.823
 2395POPC   NC333059  15.767  41.687   9.614
 2395POPC   PO433060  15.472  41.144   9.610
 2395POPC   GL133061  15.621  41.355   9.184
 2395POPC   GL233062  15.761  41.701   9.111
 2395POPC   C1A33063  15.834  41.310   8.760
 2395POPC   D2A33064  16.031  41.523   8.414
 2395POPC   C3A33065  16.190  41.345   8.044
 2395POPC   C4A33066  16.037  41.242   7.594
 2395POPC   C1B33067  15.893  41.919   8.734
 2395POPC   C2B33068  16.002  42.028   8.289
 2395POPC   C3B33069  15.912  41.741   7.939
 2395POPC   C4B33070  16.341  41.680   7.699
 2396POPC   NC333071  16.860  12.370   9.721
 2396POPC   PO433072  16.609  12.916   9.485
 2396POPC   GL133073  16.807  12.862   9.144
 2396POPC   GL233074  16.686  12.524   9.161
 2396POPC   C1A33075  16.746  12.967   8.736
 2396POPC   D2A33076  16.993  12.727   8.453
 2396POPC   C3A33077  16.907  12.814   8.024
 2396POPC   C4A33078  16.698  12.782   7.625
 2396POPC   C1B33079  16.477  12.512   8.783
 2396POPC   C2B33080  16.346  12.778   8.464
 2396POPC   C3B33081  16.415  12.708   8.042
 2396POPC   C4B33082  16.403  12.391   7.710
 2397POPC   NC333083   7.176  43.767   9.742
 2397POPC   PO433084   7.719  44.149   9.500
 2397POPC   GL133085   7.464  44.173   9.120
 2397POPC   GL233086   7.536  43.832   8.992
 2397POPC   C1A33087   7.258  44.120   8.708
 2397POPC   D2A33088   7.382  43.806   8.419
 2397POPC   C3A33089   7.296  43.907   7.994
 2397POPC   C4A33090   7.286  44.044   7.555
 2397POPC   C1B33091   7.823  43.658   8.685
 2397POPC   C2B33092   7.725  43.407   8.298
 2397POPC   C3B33093   7.638  43.477   7.868
 2397POPC   C4B33094   7.740  43.572   7.465
 2398POPC   NC333095   9.051  37.675   9.514
 2398POPC   PO433096   8.687  37.148   9.623
 2398POPC   GL133097   8.755  37.394   9.220
 2398POPC   GL233098   8.729  37.765   9.137
 2398POPC   C1A33099   8.929  37.358   8.803
 2398POPC   D2A33100   9.215  37.416   8.444
 2398POPC   C3A33101   8.991  37.493   8.063
 2398POPC   C4A33102   8.877  37.567   7.646
 2398POPC   C1B33103   9.095  37.842   8.843
 2398POPC   C2B33104   8.980  37.884   8.421
 2398POPC   C3B33105   9.166  38.023   8.054
 2398POPC   C4B33106   9.114  37.995   7.663
 2399POPC   NC333107  43.084   6.976   9.552
 2399POPC   PO433108  43.470   7.545   9.476
 2399POPC   GL133109  43.186   7.536   9.145
 2399POPC   GL233110  43.018   7.218   9.131
 2399POPC   C1A33111  43.034   7.540   8.733
 2399POPC   D2A33112  42.632   7.419   8.537
 2399POPC   C3A33113  42.690   7.457   8.099
 2399POPC   C4A33114  42.994   7.445   7.742
 2399POPC   C1B33115  42.879   7.023   8.784
 2399POPC   C2B33116  43.036   7.150   8.403
 2399POPC   C3B33117  43.218   7.108   8.058
 2399POPC   C4B33118  43.572   6.968   7.885
 2400POPC   NC333119   3.752  35.772   9.448
 2400POPC   PO433120   3.402  35.189   9.599
 2400POPC   GL133121   3.435  35.344   9.190
 2400POPC   GL233122   3.489  35.027   9.057
 2400POPC   C1A33123   3.362  35.577   8.795
 2400POPC   D2A33124   3.589  35.613   8.389
 2400POPC   C3A33125   3.431  35.701   7.955
 2400POPC   C4A33126   3.385  35.536   7.524
 2400POPC   C1B33127   3.464  35.098   8.626
 2400POPC   C2B33128   3.528  35.008   8.192
 2400POPC   C3B33129   3.451  34.939   7.759
 2400POPC   C4B33130   3.277  35.010   7.329
 2401POPC   NC333131  33.904  24.831   9.596
 2401POPC   PO433132  33.826  24.211   9.542
 2401POPC   GL133133  33.770  24.449   9.167
 2401POPC   GL233134  33.549  24.241   9.004
 2401POPC   C1A33135  33.960  24.574   8.732
 2401POPC   D2A33136  34.054  24.565   8.278
 2401POPC   C3A33137  33.857  24.503   7.872
 2401POPC   C4A33138  33.758  24.308   7.474
 2401POPC   C1B33139  33.390  24.278   8.612
 2401POPC   C2B33140  33.598  24.243   8.232
 2401POPC   C3B33141  33.520  24.052   7.868
 2401POPC   C4B33142  33.257  24.233   7.655
 2402POPC   NC333143  12.116   8.598   9.553
 2402POPC   PO433144  12.400   9.254   9.473
 2402POPC   GL133145  12.239   8.963   9.156
 2402POPC   GL233146  11.898   8.879   9.056
 2402POPC   C1A33147  12.172   9.162   8.756
 2402POPC   D2A33148  11.840   9.216   8.463
 2402POPC   C3A33149  11.919   9.260   8.059
 2402POPC   C4A33150  11.855   9.059   7.691
 2402POPC   C1B33151  11.916   8.729   8.655
 2402POPC   C2B33152  12.196   8.887   8.314
 2402POPC   C3B33153  12.318   8.946   7.905
 2402POPC   C4B33154  12.230   8.641   7.599
 2403POPC   NC333155  34.667  34.892   9.345
 2403POPC   PO433156  34.888  34.304   9.631
 2403POPC   GL133157  34.819  34.262   9.203
 2403POPC   GL233158  34.984  34.547   9.126
 2403POPC   C1A33159  34.555  34.337   8.836
 2403POPC   D2A33160  34.317  34.423   8.466
 2403POPC   C3A33161  34.461  34.556   8.059
 2403POPC   C4A33162  34.205  34.725   7.739
 2403POPC   C1B33163  34.980  34.622   8.705
 2403POPC   C2B33164  35.101  34.872   8.385
 2403POPC   C3B33165  34.939  34.976   8.013
 2403POPC   C4B33166  34.806  34.732   7.696
 2404POPC   NC333167  27.480  18.761   9.449
 2404POPC   PO433168  27.720  19.376   9.543
 2404POPC   GL133169  27.757  19.136   9.192
 2404POPC   GL233170  27.477  19.319   9.041
 2404POPC   C1A33171  27.908  19.148   8.788
 2404POPC   D2A33172  27.618  19.193   8.396
 2404POPC   C3A33173  27.812  19.156   8.008
 2404POPC   C4A33174  27.501  19.022   7.716
 2404POPC   C1B33175  27.454  18.929   8.798
 2404POPC   C2B33176  27.250  18.785   8.457
 2404POPC   C3B33177  27.108  18.854   8.056
 2404POPC   C4B33178  27.269  18.595   7.761
 2405POPC   NC333179  27.902  33.905   9.568
 2405POPC   PO433180  27.269  34.030   9.455
 2405POPC   GL133181  27.508  33.711   9.229
 2405POPC   GL233182  27.726  33.939   9.102
 2405POPC   C1A33183  27.666  33.554   8.810
 2405POPC   D2A33184  27.626  33.807   8.457
 2405POPC   C3A33185  27.643  33.637   8.064
 2405POPC   C4A33186  27.459  33.792   7.734
 2405POPC   C1B33187  27.430  34.139   8.831
 2405POPC   C2B33188  27.339  34.236   8.431
 2405POPC   C3B33189  27.527  34.199   8.068
 2405POPC   C4B33190  27.335  34.267   7.697
 2406POPC   NC333191   4.827   9.975   9.336
 2406POPC   PO433192   5.455   9.945   9.560
 2406POPC   GL133193   5.376   9.651   9.206
 2406POPC   GL233194   5.034   9.590   9.106
 2406POPC   C1A33195   5.355   9.525   8.743
 2406POPC   D2A33196   5.136   9.373   8.382
 2406POPC   C3A33197   5.231   9.611   7.998
 2406POPC   C4A33198   5.238   9.948   7.740
 2406POPC   C1B33199   4.782   9.710   8.758
 2406POPC   C2B33200   4.649   9.544   8.381
 2406POPC   C3B33201   4.762   9.394   7.992
 2406POPC   C4B33202   4.809   9.651   7.634
 2407POPC   NC333203   1.612  38.594   9.514
 2407POPC   PO433204   2.218  38.273   9.489
 2407POPC   GL133205   2.113  38.428   9.092
 2407POPC   GL233206   1.970  38.756   9.127
 2407POPC   C1A33207   2.314  38.608   8.727
 2407POPC   D2A33208   2.641  38.659   8.404
 2407POPC   C3A33209   2.432  38.709   8.015
 2407POPC   C4A33210   2.260  38.581   7.631
 2407POPC   C1B33211   1.815  38.795   8.682
 2407POPC   C2B33212   1.962  38.602   8.270
 2407POPC   C3B33213   1.804  38.626   7.841
 2407POPC   C4B33214   1.556  38.705   7.486
 2408POPC   NC333215  31.222  15.987   9.634
 2408POPC   PO433216  31.463  16.425   9.145
 2408POPC   GL133217  31.488  15.961   9.174
 2408POPC   GL233218  31.186  15.735   9.167
 2408POPC   C1A33219  31.598  15.848   8.766
 2408POPC   D2A33220  31.467  16.174   8.464
 2408POPC   C3A33221  31.533  16.111   8.038
 2408POPC   C4A33222  31.703  15.704   7.879
 2408POPC   C1B33223  31.210  15.516   8.757
 2408POPC   C2B33224  31.382  15.623   8.325
 2408POPC   C3B33225  31.191  15.765   7.925
 2408POPC   C4B33226  30.932  15.789   7.561
 2409POPC   NC333227  30.126  44.248   9.489
 2409POPC   PO433228  30.325  43.543   9.358
 2409POPC   GL133229  30.228  43.869   9.143
 2409POPC   GL233230  29.912  43.990   9.104
 2409POPC   C1A33231  30.256  43.888   8.739
 2409POPC   D2A33232  30.114  43.760   8.388
 2409POPC   C3A33233  30.196  43.948   8.042
 2409POPC   C4A33234  30.139  43.835   7.659
 2409POPC   C1B33235  29.757  43.759   8.761
 2409POPC   C2B33236  29.622  43.873   8.333
 2409POPC   C3B33237  29.704  43.983   7.879
 2409POPC   C4B33238  29.775  44.071   7.412
 2410POPC   NC333239  37.142   4.152   9.363
 2410POPC   PO433240  36.789   4.750   9.471
 2410POPC   GL133241  36.654   4.677   9.050
 2410POPC   GL233242  36.746   4.338   9.024
 2410POPC   C1A33243  36.571   4.548   8.603
 2410POPC   D2A33244  36.692   4.209   8.321
 2410POPC   C3A33245  36.788   4.373   7.916
 2410POPC   C4A33246  36.662   4.722   7.664
 2410POPC   C1B33247  36.969   4.041   8.745
 2410POPC   C2B33248  37.064   3.818   8.372
 2410POPC   C3B33249  36.849   3.837   7.994
 2410POPC   C4B33250  36.893   3.900   7.564
 2411POPC   NC333251  10.857  42.880   9.446
 2411POPC   PO433252  10.276  43.180   9.480
 2411POPC   GL133253  10.402  43.415   9.139
 2411POPC   GL233254  10.680  43.227   9.100
 2411POPC   C1A33255  10.358  43.489   8.724
 2411POPC   D2A33256  10.225  43.238   8.407
 2411POPC   C3A33257  10.417  43.241   8.018
 2411POPC   C4A33258  10.192  42.976   7.729
 2411POPC   C1B33259  10.659  42.827   8.839
 2411POPC   C2B33260  10.888  42.701   8.486
 2411POPC   C3B33261  10.654  42.808   8.111
 2411POPC   C4B33262  10.726  42.866   7.695
 2412POPC   NC333263  29.732   9.982   9.521
 2412POPC   PO433264  30.312   9.676   9.337
 2412POPC   GL133265  29.973   9.759   9.089
 2412POPC   GL233266  29.790   9.474   9.023
 2412POPC   C1A33267  30.058   9.667   8.645
 2412POPC   D2A33268  30.331   9.606   8.311
 2412POPC   C3A33269  30.029   9.559   7.977
 2412POPC   C4A33270  30.030   9.714   7.567
 2412POPC   C1B33271  29.553   9.795   8.760
 2412POPC   C2B33272  29.496   9.973   8.338
 2412POPC   C3B33273  29.569   9.869   7.912
 2412POPC   C4B33274  29.583   9.489   7.652
 2413POPC   NC333275   7.767  22.098   9.388
 2413POPC   PO433276   8.413  22.165   9.499
 2413POPC   GL133277   8.219  22.196   9.117
 2413POPC   GL233278   8.206  21.865   9.103
 2413POPC   C1A33279   8.037  22.111   8.688
 2413POPC   D2A33280   7.876  21.987   8.269
 2413POPC   C3A33281   8.033  22.245   7.913
 2413POPC   C4A33282   7.899  22.498   7.534
 2413POPC   C1B33283   8.270  21.649   8.722
 2413POPC   C2B33284   8.311  21.723   8.277
 2413POPC   C3B33285   8.143  21.737   7.861
 2413POPC   C4B33286   8.086  21.975   7.464
 2414POPC   NC333287  44.239  11.425   9.419
 2414POPC   PO433288  44.691  10.907   9.335
 2414POPC   GL133289  44.506  11.189   9.053
 2414POPC   GL233290  44.649  11.537   9.121
 2414POPC   C1A33291  44.668  11.318   8.676
 2414POPC   D2A33292  44.883  11.238   8.368
 2414POPC   C3A33293  44.645  10.901   8.210
 2414POPC   C4A33294  44.428  10.950   7.853
 2414POPC   C1B33295  44.327  11.666   8.799
 2414POPC   C2B33296  44.370  11.601   8.343
 2414POPC   C3B33297  44.474  11.484   7.916
 2414POPC   C4B33298  44.301  11.430   7.473
 2415POPC   NC333299  35.603  25.008   9.569
 2415POPC   PO433300  34.996  24.947   9.297
 2415POPC   GL133301  35.317  25.094   9.143
 2415POPC   GL233302  35.231  25.418   9.152
 2415POPC   C1A33303  35.410  25.201   8.729
 2415POPC   D2A33304  35.317  25.458   8.378
 2415POPC   C3A33305  35.570  25.412   8.009
 2415POPC   C4A33306  35.727  25.066   7.782
 2415POPC   C1B33307  35.026  25.597   8.785
 2415POPC   C2B33308  35.003  25.868   8.382
 2415POPC   C3B33309  35.087  25.639   7.958
 2415POPC   C4B33310  35.160  25.165   7.813
 2416POPC   NC333311  27.078  19.675   9.405
 2416POPC   PO433312  27.515  20.148   9.582
 2416POPC   GL133313  27.591  19.888   9.195
 2416POPC   GL233314  27.865  19.659   9.120
 2416POPC   C1A33315  27.742  20.061   8.789
 2416POPC   D2A33316  27.561  20.085   8.383
 2416POPC   C3A33317  27.766  20.101   7.992
 2416POPC   C4A33318  27.632  20.192   7.599
 2416POPC   C1B33319  27.735  19.598   8.660
 2416POPC   C2B33320  27.767  19.647   8.186
 2416POPC   C3B33321  27.532  19.530   7.822
 2416POPC   C4B33322  27.474  19.415   7.378
 2417POPC   NC333323   5.654  43.233   9.522
 2417POPC   PO433324   6.276  43.022   9.395
 2417POPC   GL133325   5.963  42.982   9.095
 2417POPC   GL233326   5.823  43.305   9.046
 2417POPC   C1A33327   6.020  43.082   8.643
 2417POPC   D2A33328   5.711  43.031   8.315
 2417POPC   C3A33329   5.980  43.034   7.976
 2417POPC   C4A33330   5.992  43.129   7.532
 2417POPC   C1B33331   5.678  43.465   8.639
 2417POPC   C2B33332   5.894  43.509   8.255
 2417POPC   C3B33333   5.638  43.384   7.895
 2417POPC   C4B33334   5.531  43.356   7.462
 2418POPC   NC333335  21.472  20.271   9.523
 2418POPC   PO433336  21.577  19.696   9.843
 2418POPC   GL133337  21.664  19.842   9.305
 2418POPC   GL233338  21.395  20.050   9.071
 2418POPC   C1A33339  21.676  19.733   8.829
 2418POPC   D2A33340  21.385  19.923   8.486
 2418POPC   C3A33341  21.567  19.894   8.062
 2418POPC   C4A33342  21.528  19.633   7.686
 2418POPC   C1B33343  21.124  20.289   8.789
 2418POPC   C2B33344  21.067  20.432   8.376
 2418POPC   C3B33345  21.124  20.198   8.001
 2418POPC   C4B33346  21.344  20.123   7.648
 2419POPC   NC333347  42.696  44.864   9.428
 2419POPC   PO433348  42.039  44.903   9.418
 2419POPC   GL133349  42.283  44.605   9.173
 2419POPC   GL233350  42.634  44.547   9.025
 2419POPC   C1A33351  42.214  44.443   8.762
 2419POPC   D2A33352  42.446  44.217   8.458
 2419POPC   C3A33353  42.438  44.441   8.066
 2419POPC   C4A33354  42.140  44.652   7.763
 2419POPC   C1B33355  42.420  44.932   8.816
 2419POPC   C2B33356  42.331   0.113   8.423
 2419POPC   C3B33357  42.447  44.964   8.025
 2419POPC   C4B33358  42.652   0.182   7.694
 2420POPC   NC333359  10.551  17.113   9.272
 2420POPC   PO433360  10.810  16.466   9.523
 2420POPC   GL133361  10.749  16.458   9.086
 2420POPC   GL233362  10.463  16.700   8.953
 2420POPC   C1A33363  10.833  16.421   8.651
 2420POPC   D2A33364  10.611  16.696   8.443
 2420POPC   C3A33365  10.496  16.667   8.058
 2420POPC   C4A33366  10.662  16.754   7.706
 2420POPC   C1B33367  10.132  16.668   8.585
 2420POPC   C2B33368   9.987  16.556   8.170
 2420POPC   C3B33369  10.048  16.874   7.855
 2420POPC   C4B33370  10.226  16.899   7.474
 2421POPC   NC333371  44.849   0.724   9.480
 2421POPC   PO433372  44.412   0.182   9.532
 2421POPC   GL133373  44.496   0.460   9.226
 2421POPC   GL233374  44.207   0.430   9.018
 2421POPC   C1A33375  44.788   0.487   8.888
 2421POPC   D2A33376  44.851   0.422   8.476
 2421POPC   C3A33377  44.687   0.747   8.210
 2421POPC   C4A33378  44.572   0.741   7.774
 2421POPC   C1B33379  44.451   0.081   8.877
 2421POPC   C2B33380  44.507   0.038   8.462
 2421POPC   C3B33381  44.554   0.254   8.081
 2421POPC   C4B33382  44.334   0.260   7.713
 2422POPC   NC333383   1.894   4.020   9.245
 2422POPC   PO433384   1.804   3.600   9.747
 2422POPC   GL133385   1.945   3.494   9.264
 2422POPC   GL233386   1.631   3.430   9.109
 2422POPC   C1A33387   1.960   3.370   8.768
 2422POPC   D2A33388   1.749   3.391   8.351
 2422POPC   C3A33389   1.995   3.481   7.987
 2422POPC   C4A33390   1.918   3.413   7.553
 2422POPC   C1B33391   1.605   3.737   8.697
 2422POPC   C2B33392   1.566   3.954   8.288
 2422POPC   C3B33393   1.640   3.844   7.855
 2422POPC   C4B33394   1.664   3.843   7.397
 2423POPC   NC333395  11.876  33.437   9.863
 2423POPC   PO433396  12.317  33.030   9.561
 2423POPC   GL133397  12.030  32.961   9.208
 2423POPC   GL233398  11.959  33.290   9.109
 2423POPC   C1A33399  12.098  32.746   8.803
 2423POPC   D2A33400  12.044  32.519   8.419
 2423POPC   C3A33401  12.065  32.696   8.034
 2423POPC   C4A33402  12.082  32.868   7.641
 2423POPC   C1B33403  12.165  33.250   8.750
 2423POPC   C2B33404  12.056  33.079   8.379
 2423POPC   C3B33405  12.201  33.213   7.980
 2423POPC   C4B33406  12.176  33.446   7.581
 2424POPC   NC333407  26.962  41.492   9.745
 2424POPC   PO433408  27.590  41.344   9.509
 2424POPC   GL133409  27.596  41.199   9.072
 2424POPC   GL233410  27.234  41.291   9.091
 2424POPC   C1A33411  27.483  41.294   8.616
 2424POPC   D2A33412  27.401  41.186   8.164
 2424POPC   C3A33413  27.699  41.200   7.850
 2424POPC   C4A33414  27.822  41.586   7.622
 2424POPC   C1B33415  27.048  41.525   8.738
 2424POPC   C2B33416  27.234  41.649   8.319
 2424POPC   C3B33417  27.306  41.601   7.854
 2424POPC   C4B33418  26.990  41.575   7.491
 2425POPC   NC333419  42.631  14.312   9.455
 2425POPC   PO433420  42.004  14.658   9.358
 2425POPC   GL133421  42.262  14.427   9.093
 2425POPC   GL233422  42.520  14.640   9.088
 2425POPC   C1A33423  42.519  14.197   8.785
 2425POPC   D2A33424  42.589  13.994   8.394
 2425POPC   C3A33425  42.620  14.205   8.017
 2425POPC   C4A33426  42.411  14.173   7.630
 2425POPC   C1B33427  42.693  14.658   8.739
 2425POPC   C2B33428  42.539  14.541   8.396
 2425POPC   C3B33429  42.427  14.712   8.050
 2425POPC   C4B33430  42.166  14.625   7.757
 2426POPC   NC333431  31.403  35.598   9.470
 2426POPC   PO433432  31.820  35.086   9.480
 2426POPC   GL133433  31.706  35.335   9.117
 2426POPC   GL233434  31.825  35.672   9.198
 2426POPC   C1A33435  31.583  35.265   8.671
 2426POPC   D2A33436  31.796  35.284   8.282
 2426POPC   C3A33437  31.534  35.112   7.974
 2426POPC   C4A33438  31.248  34.921   7.699
 2426POPC   C1B33439  31.610  35.747   8.801
 2426POPC   C2B33440  31.429  35.705   8.361
 2426POPC   C3B33441  31.587  35.636   7.909
 2426POPC   C4B33442  31.824  35.761   7.506
 2427POPC   NC333443  13.138  35.985   9.854
 2427POPC   PO433444  13.817  35.973   9.565
 2427POPC   GL133445  13.625  36.011   9.134
 2427POPC   GL233446  13.341  36.207   9.017
 2427POPC   C1A33447  13.712  36.185   8.708
 2427POPC   D2A33448  13.751  35.989   8.365
 2427POPC   C3A33449  13.731  36.192   8.021
 2427POPC   C4A33450  13.890  35.944   7.707
 2427POPC   C1B33451  13.322  36.524   8.755
 2427POPC   C2B33452  13.373  36.416   8.336
 2427POPC   C3B33453  13.390  36.551   7.897
 2427POPC   C4B33454  13.502  36.253   7.573
 2428POPC   NC333455  32.260  43.372   9.544
 2428POPC   PO433456  31.948  42.768   9.487
 2428POPC   GL133457  32.161  43.046   9.136
 2428POPC   GL233458  32.085  43.422   9.086
 2428POPC   C1A33459  32.087  43.151   8.671
 2428POPC   D2A33460  32.380  43.181   8.321
 2428POPC   C3A33461  32.202  43.033   7.930
 2428POPC   C4A33462  31.943  43.278   7.737
 2428POPC   C1B33463  32.196  43.655   8.741
 2428POPC   C2B33464  32.073  43.621   8.299
 2428POPC   C3B33465  32.350  43.538   7.948
 2428POPC   C4B33466  32.439  43.443   7.523
 2429POPC   NC333467  42.405  29.601   9.511
 2429POPC   PO433468  41.983  30.192   9.497
 2429POPC   GL133469  42.129  30.132   9.114
 2429POPC   GL233470  42.450  29.971   9.152
 2429POPC   C1A33471  42.275  30.158   8.699
 2429POPC   D2A33472  42.083  29.972   8.347
 2429POPC   C3A33473  42.177  30.181   7.981
 2429POPC   C4A33474  42.479  30.086   7.686
 2429POPC   C1B33475  42.247  29.693   8.859
 2429POPC   C2B33476  42.394  29.562   8.478
 2429POPC   C3B33477  42.294  29.521   8.107
 2429POPC   C4B33478  42.155  29.713   7.806
 2430POPC   NC333479  41.576   0.147   9.401
 2430POPC   PO433480  41.880   0.814   9.427
 2430POPC   GL133481  41.657   0.565   9.111
 2430POPC   GL233482  41.400   0.799   8.908
 2430POPC   C1A33483  41.473   0.336   8.731
 2430POPC   D2A33484  41.508   0.509   8.306
 2430POPC   C3A33485  41.394   0.387   7.868
 2430POPC   C4A33486  41.593   0.236   7.483
 2430POPC   C1B33487  41.816   0.717   8.687
 2430POPC   C2B33488  42.041   0.556   8.386
 2430POPC   C3B33489  41.902   0.532   7.966
 2430POPC   C4B33490  41.783   0.697   7.572
 2431POPC   NC333491  12.803  31.855   9.573
 2431POPC   PO433492  12.829  32.540   9.512
 2431POPC   GL133493  12.770  32.221   9.189
 2431POPC   GL233494  13.084  32.037   9.169
 2431POPC   C1A33495  12.856  32.310   8.765
 2431POPC   D2A33496  12.960  32.604   8.486
 2431POPC   C3A33497  12.924  32.467   8.050
 2431POPC   C4A33498  12.701  32.397   7.649
 2431POPC   C1B33499  13.108  31.883   8.740
 2431POPC   C2B33500  12.920  31.998   8.343
 2431POPC   C3B33501  12.797  31.953   7.934
 2431POPC   C4B33502  13.083  32.062   7.618
 2432POPC   NC333503  11.415  29.805   9.594
 2432POPC   PO433504  11.682  30.410   9.428
 2432POPC   GL133505  11.623  29.971   9.152
 2432POPC   GL233506  11.384  29.698   9.111
 2432POPC   C1A33507  11.617  29.869   8.682
 2432POPC   D2A33508  11.350  30.172   8.415
 2432POPC   C3A33509  11.417  30.250   8.010
 2432POPC   C4A33510  11.471  29.993   7.668
 2432POPC   C1B33511  11.133  29.919   8.811
 2432POPC   C2B33512  11.139  29.710   8.415
 2432POPC   C3B33513  11.088  29.853   8.006
 2432POPC   C4B33514  10.928  29.875   7.585
 2433POPC   NC333515  43.877  26.324   9.559
 2433POPC   PO433516  44.135  26.935   9.600
 2433POPC   GL133517  44.069  26.715   9.238
 2433POPC   GL233518  44.382  26.554   9.199
 2433POPC   C1A33519  43.876  26.882   8.867
 2433POPC   D2A33520  43.869  26.864   8.421
 2433POPC   C3A33521  43.527  26.912   8.161
 2433POPC   C4A33522  43.676  26.877   7.765
 2433POPC   C1B33523  44.206  26.471   8.797
 2433POPC   C2B33524  44.317  26.616   8.400
 2433POPC   C3B33525  44.152  26.535   8.006
 2433POPC   C4B33526  44.040  26.536   7.610
 2434POPC   NC333527  39.188  39.533   9.583
 2434POPC   PO433528  39.012  38.906   9.552
 2434POPC   GL133529  39.136  39.121   9.162
 2434POPC   GL233530  38.978  39.424   9.092
 2434POPC   C1A33531  39.039  39.071   8.704
 2434POPC   D2A33532  39.324  38.986   8.362
 2434POPC   C3A33533  39.215  38.928   7.936
 2434POPC   C4A33534  38.937  39.011   7.606
 2434POPC   C1B33535  39.316  39.587   8.831
 2434POPC   C2B33536  39.381  39.530   8.391
 2434POPC   C3B33537  39.482  39.668   7.978
 2434POPC   C4B33538  39.237  39.424   7.711
 2435POPC   NC333539   7.559  18.265   9.451
 2435POPC   PO433540   8.140  18.427   9.233
 2435POPC   GL133541   7.748  18.586   9.056
 2435POPC   GL233542   7.414  18.699   9.183
 2435POPC   C1A33543   7.543  18.504   8.636
 2435POPC   D2A33544   7.508  18.331   8.214
 2435POPC   C3A33545   7.610  18.639   7.906
 2435POPC   C4A33546   7.846  18.483   7.549
 2435POPC   C1B33547   7.103  18.440   8.911
 2435POPC   C2B33548   7.087  18.212   8.527
 2435POPC   C3B33549   6.978  18.247   8.108
 2435POPC   C4B33550   7.189  18.447   7.764
 2436POPC   NC333551  37.433  16.803   9.505
 2436POPC   PO433552  38.085  16.844   9.421
 2436POPC   GL133553  37.845  16.681   9.072
 2436POPC   GL233554  37.588  16.905   9.040
 2436POPC   C1A33555  37.793  16.731   8.611
 2436POPC   D2A33556  38.057  16.757   8.266
 2436POPC   C3A33557  37.872  16.816   7.874
 2436POPC   C4A33558  37.753  17.209   7.737
 2436POPC   C1B33559  37.340  16.591   8.823
 2436POPC   C2B33560  37.458  16.351   8.454
 2436POPC   C3B33561  37.332  16.450   8.036
 2436POPC   C4B33562  37.370  16.416   7.589
 2437POPC   NC333563  22.995  25.604   9.613
 2437POPC   PO433564  23.158  24.992   9.428
 2437POPC   GL133565  22.912  25.265   9.130
 2437POPC   GL233566  23.098  25.592   9.109
 2437POPC   C1A33567  22.599  25.178   8.755
 2437POPC   D2A33568  22.434  24.993   8.335
 2437POPC   C3A33569  22.708  25.059   7.991
 2437POPC   C4A33570  22.734  25.503   7.844
 2437POPC   C1B33571  22.879  25.618   8.728
 2437POPC   C2B33572  22.846  25.396   8.354
 2437POPC   C3B33573  23.166  25.285   8.059
 2437POPC   C4B33574  23.161  25.398   7.598
 2438POPC   NC333575  16.300  15.213   9.555
 2438POPC   PO433576  15.730  15.459   9.625
 2438POPC   GL133577  15.843  15.290   9.216
 2438POPC   GL233578  16.012  14.993   9.208
 2438POPC   C1A33579  15.939  15.331   8.765
 2438POPC   D2A33580  16.047  15.519   8.368
 2438POPC   C3A33581  16.005  15.256   8.013
 2438POPC   C4A33582  15.839  14.901   7.816
 2438POPC   C1B33583  16.235  14.931   8.830
 2438POPC   C2B33584  16.182  14.846   8.406
 2438POPC   C3B33585  16.334  14.838   8.012
 2438POPC   C4B33586  16.292  15.041   7.637
 2439POPC   NC333587  31.922   8.617   9.373
 2439POPC   PO433588  32.298   8.120   9.555
 2439POPC   GL133589  32.232   8.168   9.125
 2439POPC   GL233590  32.379   8.479   9.110
 2439POPC   C1A33591  32.290   8.061   8.685
 2439POPC   D2A33592  32.250   7.870   8.295
 2439POPC   C3A33593  32.201   8.002   7.848
 2439POPC   C4A33594  32.226   7.974   7.363
 2439POPC   C1B33595  32.287   8.569   8.688
 2439POPC   C2B33596  32.319   8.401   8.290
 2439POPC   C3B33597  32.193   8.509   7.897
 2439POPC   C4B33598  32.336   8.445   7.490
 2440POPC   NC333599  42.248  10.152   9.418
 2440POPC   PO433600  41.850   9.562   9.575
 2440POPC   GL133601  42.207   9.636   9.224
 2440POPC   GL233602  42.584   9.518   9.207
 2440POPC   C1A33603  42.300   9.822   8.786
 2440POPC   D2A33604  42.627  10.051   8.518
 2440POPC   C3A33605  42.463  10.082   8.084
 2440POPC   C4A33606  42.157   9.839   7.822
 2440POPC   C1B33607  42.746   9.540   8.764
 2440POPC   C2B33608  42.658   9.412   8.307
 2440POPC   C3B33609  42.543   9.432   7.841
 2440POPC   C4B33610  42.366   9.586   7.418
 2441POPC   NC333611  29.433  20.378   9.411
 2441POPC   PO433612  28.899  20.642   9.535
 2441POPC   GL133613  29.025  20.600   9.123
 2441POPC   GL233614  28.780  20.880   9.034
 2441POPC   C1A33615  29.336  20.566   8.788
 2441POPC   D2A33616  29.246  20.343   8.418
 2441POPC   C3A33617  29.281  20.586   8.056
 2441POPC   C4A33618  29.179  20.360   7.684
 2441POPC   C1B33619  28.899  20.790   8.632
 2441POPC   C2B33620  28.827  20.600   8.265
 2441POPC   C3B33621  28.849  20.743   7.840
 2441POPC   C4B33622  28.840  20.626   7.420
 2442POPC   NC333623   7.077  40.987   9.417
 2442POPC   PO433624   7.729  41.022   9.334
 2442POPC   GL133625   7.627  40.597   9.110
 2442POPC   GL233626   7.249  40.566   9.100
 2442POPC   C1A33627   7.625  40.416   8.651
 2442POPC   D2A33628   7.532  40.357   8.180
 2442POPC   C3A33629   7.473  40.660   7.826
 2442POPC   C4A33630   7.228  40.632   7.441
 2442POPC   C1B33631   7.310  40.843   8.741
 2442POPC   C2B33632   7.376  40.868   8.289
 2442POPC   C3B33633   7.223  41.081   7.930
 2442POPC   C4B33634   7.150  41.162   7.488
 2443POPC   NC333635  31.223  20.866   9.791
 2443POPC   PO433636  30.629  20.550   9.592
 2443POPC   GL133637  30.661  20.618   9.150
 2443POPC   GL233638  30.497  20.282   9.184
 2443POPC   C1A33639  30.832  20.789   8.747
 2443POPC   D2A33640  30.970  20.833   8.300
 2443POPC   C3A33641  30.580  20.808   8.037
 2443POPC   C4A33642  30.210  20.850   7.753
 2443POPC   C1B33643  30.706  20.264   8.805
 2443POPC   C2B33644  30.702  20.382   8.389
 2443POPC   C3B33645  30.566  20.226   8.024
 2443POPC   C4B33646  30.512  20.456   7.673
 2444POPC   NC333647  21.902  35.584   9.390
 2444POPC   PO433648  22.392  35.146   9.366
 2444POPC   GL133649  22.430  35.335   8.979
 2444POPC   GL233650  22.538  35.637   9.062
 2444POPC   C1A33651  22.126  35.532   8.696
 2444POPC   D2A33652  22.010  35.594   8.253
 2444POPC   C3A33653  22.104  35.165   8.060
 2444POPC   C4A33654  22.067  34.848   7.734
 2444POPC   C1B33655  22.571  35.761   8.608
 2444POPC   C2B33656  22.455  35.844   8.163
 2444POPC   C3B33657  22.307  35.564   7.803
 2444POPC   C4B33658  22.546  35.570   7.360
 2445POPC   NC333659   9.095  24.229   9.545
 2445POPC   PO433660   8.584  24.034   9.435
 2445POPC   GL133661   8.887  24.187   9.073
 2445POPC   GL233662   9.076  24.516   9.112
 2445POPC   C1A33663   9.089  24.290   8.645
 2445POPC   D2A33664   8.979  24.578   8.290
 2445POPC   C3A33665   9.076  24.511   7.850
 2445POPC   C4A33666   8.796  24.686   7.539
 2445POPC   C1B33667   9.178  24.788   8.737
 2445POPC   C2B33668   9.391  24.891   8.333
 2445POPC   C3B33669   9.473  24.817   7.905
 2445POPC   C4B33670   9.233  24.950   7.585
 2446POPC   NC333671   2.827   9.115   9.400
 2446POPC   PO433672   2.874   9.776   9.487
 2446POPC   GL133673   2.908   9.575   9.085
 2446POPC   GL233674   2.610   9.356   9.023
 2446POPC   C1A33675   2.927   9.344   8.639
 2446POPC   D2A33676   2.798   9.253   8.204
 2446POPC   C3A33677   2.938   9.546   7.884
 2446POPC   C4A33678   3.203   9.524   7.506
 2446POPC   C1B33679   2.597   9.751   8.737
 2446POPC   C2B33680   2.791   9.779   8.343
 2446POPC   C3B33681   2.840  10.031   7.979
 2446POPC   C4B33682   2.530  10.045   7.671
 2447POPC   NC333683   2.915   2.752   9.888
 2447POPC   PO433684   2.427   2.951   9.444
 2447POPC   GL133685   2.492   2.672   9.068
 2447POPC   GL233686   2.807   2.823   9.015
 2447POPC   C1A33687   2.624   2.568   8.610
 2447POPC   D2A33688   2.868   2.583   8.219
 2447POPC   C3A33689   2.647   2.805   7.870
 2447POPC   C4A33690   2.427   2.591   7.554
 2447POPC   C1B33691   2.722   3.062   8.613
 2447POPC   C2B33692   2.931   3.089   8.216
 2447POPC   C3B33693   3.149   2.870   7.852
 2447POPC   C4B33694   3.223   3.075   7.438
 2448POPC   NC333695  43.539  10.341   9.613
 2448POPC   PO433696  44.101  10.118   9.512
 2448POPC   GL133697  43.978  10.295   9.115
 2448POPC   GL233698  43.727  10.556   9.159
 2448POPC   C1A33699  44.167  10.292   8.686
 2448POPC   D2A33700  44.306  10.512   8.309
 2448POPC   C3A33701  44.094  10.553   7.894
 2448POPC   C4A33702  43.754  10.805   7.777
 2448POPC   C1B33703  43.791  10.653   8.699
 2448POPC   C2B33704  43.773  10.426   8.301
 2448POPC   C3B33705  43.590  10.167   7.966
 2448POPC   C4B33706  43.576  10.384   7.549
 2449POPC   NC333707  29.783  40.149   9.508
 2449POPC   PO433708  30.347  39.776   9.429
 2449POPC   GL133709  29.983  39.869   9.160
 2449POPC   GL233710  30.049  39.670   8.920
 2449POPC   C1A33711  29.776  40.075   8.803
 2449POPC   D2A33712  29.940  40.100   8.394
 2449POPC   C3A33713  29.682  40.234   8.064
 2449POPC   C4A33714  29.880  40.481   7.733
 2449POPC   C1B33715  29.890  39.574   8.504
 2449POPC   C2B33716  29.784  39.725   8.077
 2449POPC   C3B33717  30.078  39.991   7.812
 2449POPC   C4B33718  30.041  40.156   7.373
 2450POPC   NC333719  35.873  37.645   9.541
 2450POPC   PO433720  36.482  37.904   9.492
 2450POPC   GL133721  36.270  37.742   9.160
 2450POPC   GL233722  35.962  37.670   9.062
 2450POPC   C1A33723  36.356  37.773   8.733
 2450POPC   D2A33724  36.434  37.517   8.383
 2450POPC   C3A33725  36.377  37.764   7.995
 2450POPC   C4A33726  36.196  37.673   7.618
 2450POPC   C1B33727  35.896  37.546   8.686
 2450POPC   C2B33728  35.978  37.781   8.365
 2450POPC   C3B33729  35.858  37.794   7.994
 2450POPC   C4B33730  35.717  37.827   7.632
 2451POPC   NC333731  19.554   5.675   9.694
 2451POPC   PO433732  19.935   5.961   9.235
 2451POPC   GL133733  19.608   5.922   8.967
 2451POPC   GL233734  19.594   6.243   8.886
 2451POPC   C1A33735  19.628   5.919   8.488
 2451POPC   D2A33736  19.989   5.981   8.164
 2451POPC   C3A33737  19.802   5.771   7.814
 2451POPC   C4A33738  19.469   5.424   7.837
 2451POPC   C1B33739  19.949   6.284   8.625
 2451POPC   C2B33740  19.716   6.402   8.273
 2451POPC   C3B33741  19.633   6.420   7.836
 2451POPC   C4B33742  19.639   6.173   7.444
 2452POPC   NC333743  24.307  26.391   9.613
 2452POPC   PO433744  24.576  25.805   9.587
 2452POPC   GL133745  24.520  25.895   9.161
 2452POPC   GL233746  24.682  26.224   9.146
 2452POPC   C1A33747  24.321  25.764   8.745
 2452POPC   D2A33748  24.133  25.874   8.327
 2452POPC   C3A33749  24.322  25.795   7.915
 2452POPC   C4A33750  24.552  25.937   7.559
 2452POPC   C1B33751  24.541  26.247   8.745
 2452POPC   C2B33752  24.337  26.367   8.346
 2452POPC   C3B33753  24.468  26.295   7.937
 2452POPC   C4B33754  24.773  26.416   7.622
 2453POPC   NC333755   8.885  40.581   9.422
 2453POPC   PO433756   9.133  39.846   9.405
 2453POPC   GL133757   8.892  40.136   9.142
 2453POPC   GL233758   9.199  40.295   9.085
 2453POPC   C1A33759   8.662  40.038   8.754
 2453POPC   D2A33760   8.528  40.144   8.324
 2453POPC   C3A33761   8.617  39.932   7.886
 2453POPC   C4A33762   8.751  40.054   7.415
 2453POPC   C1B33763   9.165  39.927   8.759
 2453POPC   C2B33764   8.934  39.809   8.402
 2453POPC   C3B33765   9.085  39.846   8.045
 2453POPC   C4B33766   9.061  39.708   7.662
 2454POPC   NC333767  43.894  21.660   9.504
 2454POPC   PO433768  43.946  21.062   9.254
 2454POPC   GL133769  43.725  21.384   9.076
 2454POPC   GL233770  43.497  21.640   9.194
 2454POPC   C1A33771  43.784  21.314   8.667
 2454POPC   D2A33772  44.078  21.249   8.378
 2454POPC   C3A33773  43.879  21.292   7.995
 2454POPC   C4A33774  44.085  21.394   7.640
 2454POPC   C1B33775  43.610  21.787   8.784
 2454POPC   C2B33776  43.535  21.622   8.367
 2454POPC   C3B33777  43.394  21.623   7.989
 2454POPC   C4B33778  43.641  21.644   7.664
 2455POPC   NC333779  31.970  36.223   9.514
 2455POPC   PO433780  32.628  36.502   9.404
 2455POPC   GL133781  32.325  36.338   9.104
 2455POPC   GL233782  32.138  36.049   9.073
 2455POPC   C1A33783  32.189  36.306   8.662
 2455POPC   D2A33784  32.001  36.541   8.369
 2455POPC   C3A33785  32.141  36.307   8.084
 2455POPC   C4A33786  32.246  36.263   7.706
 2455POPC   C1B33787  32.119  35.738   8.778
 2455POPC   C2B33788  31.939  35.757   8.402
 2455POPC   C3B33789  32.068  35.813   8.001
 2455POPC   C4B33790  32.298  35.766   7.644
 2456POPC   NC333791  36.199  16.281   9.267
 2456POPC   PO433792  36.314  16.836   9.675
 2456POPC   GL133793  36.288  16.911   9.206
 2456POPC   GL233794  36.038  16.735   9.056
 2456POPC   C1A33795  36.333  16.963   8.731
 2456POPC   D2A33796  36.466  16.716   8.360
 2456POPC   C3A33797  36.254  16.795   7.981
 2456POPC   C4A33798  36.154  16.759   7.521
 2456POPC   C1B33799  35.963  16.543   8.646
 2456POPC   C2B33800  35.790  16.591   8.216
 2456POPC   C3B33801  35.757  16.779   7.831
 2456POPC   C4B33802  35.678  16.665   7.397
 2457POPC   NC333803   2.742  20.165   9.422
 2457POPC   PO433804   2.349  19.713   9.208
 2457POPC   GL133805   2.749  19.636   9.000
 2457POPC   GL233806   2.967  19.904   9.023
 2457POPC   C1A33807   2.898  19.613   8.607
 2457POPC   D2A33808   2.631  19.759   8.334
 2457POPC   C3A33809   2.859  19.683   8.011
 2457POPC   C4A33810   2.771  19.744   7.613
 2457POPC   C1B33811   2.652  20.092   8.753
 2457POPC   C2B33812   2.485  20.238   8.356
 2457POPC   C3B33813   2.608  20.128   7.914
 2457POPC   C4B33814   2.570  20.178   7.421
 2458POPC   NC333815  33.366  12.614   9.617
 2458POPC   PO433816  33.787  13.122   9.469
 2458POPC   GL133817  33.727  12.931   9.104
 2458POPC   GL233818  33.560  12.616   9.119
 2458POPC   C1A33819  33.960  12.886   8.758
 2458POPC   D2A33820  33.799  13.040   8.391
 2458POPC   C3A33821  34.022  12.842   8.070
 2458POPC   C4A33822  33.988  13.083   7.734
 2458POPC   C1B33823  33.477  12.711   8.663
 2458POPC   C2B33824  33.408  12.750   8.213
 2458POPC   C3B33825  33.578  12.729   7.773
 2458POPC   C4B33826  33.471  12.475   7.402
 2459POPC   NC333827   0.932   4.799   9.622
 2459POPC   PO433828   1.400   5.236   9.390
 2459POPC   GL133829   1.311   4.915   9.124
 2459POPC   GL233830   0.974   4.985   9.156
 2459POPC   C1A33831   1.495   4.890   8.710
 2459POPC   D2A33832   1.364   5.087   8.330
 2459POPC   C3A33833   1.431   4.878   7.961
 2459POPC   C4A33834   1.607   5.128   7.619
 2459POPC   C1B33835   0.786   5.146   8.824
 2459POPC   C2B33836   0.638   5.037   8.455
 2459POPC   C3B33837   0.888   4.979   8.078
 2459POPC   C4B33838   1.108   5.189   7.751
 2460POPC   NC333839  23.703  38.610   9.201
 2460POPC   PO433840  23.762  38.124   9.507
 2460POPC   GL133841  23.919  38.183   9.057
 2460POPC   GL233842  24.136  38.429   8.938
 2460POPC   C1A33843  23.845  38.121   8.622
 2460POPC   D2A33844  23.873  38.289   8.233
 2460POPC   C3A33845  23.560  38.554   8.039
 2460POPC   C4A33846  23.839  38.429   7.722
 2460POPC   C1B33847  23.868  38.668   8.605
 2460POPC   C2B33848  23.946  38.867   8.225
 2460POPC   C3B33849  23.847  38.922   7.770
 2460POPC   C4B33850  23.841  38.767   7.335
 2461POPC   NC333851  40.758  28.797   9.599
 2461POPC   PO433852  40.992  29.404   9.322
 2461POPC   GL133853  40.982  29.016   9.141
 2461POPC   GL233854  40.688  29.131   8.976
 2461POPC   C1A33855  41.063  28.932   8.705
 2461POPC   D2A33856  40.818  29.109   8.387
 2461POPC   C3A33857  40.930  29.058   7.990
 2461POPC   C4A33858  40.583  29.014   7.817
 2461POPC   C1B33859  40.815  29.494   8.728
 2461POPC   C2B33860  41.024  29.582   8.360
 2461POPC   C3B33861  40.773  29.534   7.986
 2461POPC   C4B33862  40.905  29.521   7.566
 2462POPC   NC333863  42.802   5.125   9.449
 2462POPC   PO433864  43.410   4.884   9.506
 2462POPC   GL133865  43.245   4.973   9.114
 2462POPC   GL233866  43.172   5.334   9.157
 2462POPC   C1A33867  43.307   4.800   8.693
 2462POPC   D2A33868  43.231   4.640   8.278
 2462POPC   C3A33869  43.467   4.818   7.940
 2462POPC   C4A33870  43.316   4.857   7.518
 2462POPC   C1B33871  43.256   5.325   8.718
 2462POPC   C2B33872  43.270   5.189   8.284
 2462POPC   C3B33873  43.219   5.251   7.824
 2462POPC   C4B33874  43.071   5.281   7.394
 2463POPC   NC333875  38.040  31.699   9.629
 2463POPC   PO433876  37.670  31.199   9.486
 2463POPC   GL133877  37.676  31.590   9.260
 2463POPC   GL233878  37.605  31.354   8.984
 2463POPC   C1A33879  37.830  31.816   8.902
 2463POPC   D2A33880  37.771  31.571   8.514
 2463POPC   C3A33881  37.699  31.725   8.086
 2463POPC   C4A33882  37.568  31.523   7.670
 2463POPC   C1B33883  37.967  31.113   8.860
 2463POPC   C2B33884  38.216  31.282   8.538
 2463POPC   C3B33885  38.025  31.329   8.130
 2463POPC   C4B33886  37.929  31.149   7.747
 2464POPC   NC333887   8.493  34.558   9.478
 2464POPC   PO433888   7.843  34.751   9.574
 2464POPC   GL133889   8.041  34.593   9.237
 2464POPC   GL233890   8.164  34.890   9.157
 2464POPC   C1A33891   8.085  34.489   8.808
 2464POPC   D2A33892   8.229  34.256   8.476
 2464POPC   C3A33893   7.999  34.282   8.098
 2464POPC   C4A33894   7.784  34.367   7.755
 2464POPC   C1B33895   8.497  34.823   8.868
 2464POPC   C2B33896   8.541  34.828   8.428
 2464POPC   C3B33897   8.470  34.559   8.088
 2464POPC   C4B33898   8.210  34.631   7.759
 2465POPC   NC333899  16.214   4.198   9.893
 2465POPC   PO433900  15.608   4.098   9.631
 2465POPC   GL133901  15.938   4.005   9.267
 2465POPC   GL233902  15.713   4.081   8.993
 2465POPC   C1A33903  16.185   4.026   8.832
 2465POPC   D2A33904  15.963   4.300   8.510
 2465POPC   C3A33905  16.020   4.364   8.052
 2465POPC   C4A33906  16.064   4.062   7.694
 2465POPC   C1B33907  15.758   3.822   8.616
 2465POPC   C2B33908  15.875   3.890   8.181
 2465POPC   C3B33909  15.600   4.082   7.896
 2465POPC   C4B33910  15.373   4.458   7.737
 2466POPC   NC333911  29.184  27.724   9.708
 2466POPC   PO433912  28.668  27.767   9.398
 2466POPC   GL133913  29.009  27.889   9.090
 2466POPC   GL233914  29.291  27.624   9.058
 2466POPC   C1A33915  29.169  27.871   8.628
 2466POPC   D2A33916  29.201  27.531   8.279
 2466POPC   C3A33917  29.301  27.676   7.868
 2466POPC   C4A33918  28.989  27.686   7.494
 2466POPC   C1B33919  28.976  27.414   8.738
 2466POPC   C2B33920  28.792  27.230   8.299
 2466POPC   C3B33921  28.919  27.332   7.838
 2466POPC   C4B33922  28.894  27.235   7.302
 2467POPC   NC333923  37.976  19.128   9.532
 2467POPC   PO433924  37.309  18.978   9.516
 2467POPC   GL133925  37.612  18.882   9.216
 2467POPC   GL233926  37.659  19.207   9.120
 2467POPC   C1A33927  37.687  18.785   8.798
 2467POPC   D2A33928  37.727  19.003   8.388
 2467POPC   C3A33929  37.533  18.978   7.979
 2467POPC   C4A33930  37.820  18.858   7.706
 2467POPC   C1B33931  37.977  19.214   8.797
 2467POPC   C2B33932  38.180  19.325   8.445
 2467POPC   C3B33933  38.065  19.242   8.055
 2467POPC   C4B33934  37.823  19.368   7.742
 2468POPC   NC333935  37.939  23.326   9.686
 2468POPC   PO433936  37.565  22.804   9.550
 2468POPC   GL133937  37.799  22.884   9.186
 2468POPC   GL233938  37.482  22.958   9.058
 2468POPC   C1A33939  37.947  22.808   8.753
 2468POPC   D2A33940  37.895  22.557   8.345
 2468POPC   C3A33941  37.948  22.844   8.029
 2468POPC   C4A33942  38.050  22.962   7.639
 2468POPC   C1B33943  37.419  22.709   8.746
 2468POPC   C2B33944  37.473  22.850   8.366
 2468POPC   C3B33945  37.449  22.713   7.986
 2468POPC   C4B33946  37.544  22.880   7.615
 2469POPC   NC333947  35.380  36.197   9.381
 2469POPC   PO433948  35.477  35.574   9.530
 2469POPC   GL133949  35.482  35.774   9.122
 2469POPC   GL233950  35.729  35.997   9.049
 2469POPC   C1A33951  35.251  35.930   8.740
 2469POPC   D2A33952  35.059  35.946   8.315
 2469POPC   C3A33953  35.379  35.847   8.026
 2469POPC   C4A33954  35.380  36.173   7.726
 2469POPC   C1B33955  35.658  36.296   8.716
 2469POPC   C2B33956  35.488  36.278   8.305
 2469POPC   C3B33957  35.762  36.433   7.994
 2469POPC   C4B33958  35.829  36.341   7.568
 2470POPC   NC333959  44.968  35.131   9.434
 2470POPC   PO433960  44.550  34.546   9.581
 2470POPC   GL133961  44.854  34.653   9.213
 2470POPC   GL233962  44.626  34.644   8.985
 2470POPC   C1A33963   0.052  34.546   8.761
 2470POPC   D2A33964  44.714  34.513   8.436
 2470POPC   C3A33965  44.699  34.693   8.028
 2470POPC   C4A33966  44.953  34.554   7.716
 2470POPC   C1B33967  44.423  34.279   8.859
 2470POPC   C2B33968  44.301  34.202   8.441
 2470POPC   C3B33969  44.403  34.274   8.040
 2470POPC   C4B33970  44.330  34.294   7.604
 2471POPC   NC333971  38.855  22.836   9.640
 2471POPC   PO433972  38.352  23.182   9.836
 2471POPC   GL133973  38.406  23.030   9.361
 2471POPC   GL233974  38.306  22.673   9.227
 2471POPC   C1A33975  38.387  23.090   8.872
 2471POPC   D2A33976  38.596  23.201   8.446
 2471POPC   C3A33977  38.441  23.123   8.004
 2471POPC   C4A33978  38.718  23.144   7.615
 2471POPC   C1B33979  38.399  22.559   8.784
 2471POPC   C2B33980  38.363  22.752   8.390
 2471POPC   C3B33981  38.375  22.579   7.989
 2471POPC   C4B33982  38.479  22.706   7.603
 2472POPC   NC333983  39.728  18.736   9.374
 2472POPC   PO433984  39.516  19.336   9.331
 2472POPC   GL133985  39.767  19.155   9.025
 2472POPC   GL233986  40.099  19.049   9.113
 2472POPC   C1A33987  39.854  19.037   8.605
 2472POPC   D2A33988  39.757  18.850   8.209
 2472POPC   C3A33989  39.959  19.075   7.899
 2472POPC   C4A33990  40.005  18.967   7.489
 2472POPC   C1B33991  40.269  18.792   8.784
 2472POPC   C2B33992  40.084  18.563   8.478
 2472POPC   C3B33993  40.228  18.688   8.086
 2472POPC   C4B33994  40.282  18.568   7.692
 2473POPC   NC333995  34.432  22.687   9.589
 2473POPC   PO433996  34.646  23.209   9.330
 2473POPC   GL133997  34.537  22.842   9.108
 2473POPC   GL233998  34.199  22.745   9.102
 2473POPC   C1A33999  34.559  22.731   8.692
 2473POPC   D2A34000  34.743  22.914   8.332
 2473POPC   C3A34001  34.715  22.743   7.940
 2473POPC   C4A34002  34.924  23.006   7.663
 2473POPC   C1B34003  34.137  23.060   8.747
 2473POPC   C2B34004  34.390  23.264   8.411
 2473POPC   C3B34005  34.523  23.233   7.944
 2473POPC   C4B34006  34.156  23.265   7.649
 2474POPC   NC334007  18.461  21.862   9.462
 2474POPC   PO434008  17.942  22.310   9.513
 2474POPC   GL134009  18.156  22.208   9.151
 2474POPC   GL234010  18.052  21.908   9.174
 2474POPC   C1A34011  17.961  22.161   8.727
 2474POPC   D2A34012  17.693  22.179   8.406
 2474POPC   C3A34013  17.970  22.243   8.027
 2474POPC   C4A34014  18.285  22.231   7.687
 2474POPC   C1B34015  18.339  21.843   8.800
 2474POPC   C2B34016  18.318  21.976   8.345
 2474POPC   C3B34017  18.283  21.782   7.938
 2474POPC   C4B34018  18.275  21.756   7.472
 2475POPC   NC334019  25.921   4.083   9.577
 2475POPC   PO434020  26.040   4.721   9.540
 2475POPC   GL134021  26.085   4.486   9.181
 2475POPC   GL234022  25.774   4.372   9.173
 2475POPC   C1A34023  26.030   4.287   8.761
 2475POPC   D2A34024  26.153   4.099   8.420
 2475POPC   C3A34025  25.979   4.246   8.070
 2475POPC   C4A34026  26.060   4.473   7.732
 2475POPC   C1B34027  25.684   4.644   8.848
 2475POPC   C2B34028  25.704   4.545   8.426
 2475POPC   C3B34029  25.774   4.737   8.048
 2475POPC   C4B34030  25.563   4.587   7.699
 2476POPC   NC334031  42.320  15.698   9.762
 2476POPC   PO434032  42.370  16.336   9.553
 2476POPC   GL134033  42.538  16.059   9.209
 2476POPC   GL234034  42.286  15.880   9.047
 2476POPC   C1A34035  42.637  15.990   8.736
 2476POPC   D2A34036  42.345  15.981   8.412
 2476POPC   C3A34037  42.549  15.955   8.050
 2476POPC   C4A34038  42.405  16.051   7.688
 2476POPC   C1B34039  42.249  15.611   8.731
 2476POPC   C2B34040  42.158  15.437   8.330
 2476POPC   C3B34041  42.163  15.640   7.934
 2476POPC   C4B34042  41.916  15.963   7.714
 2477POPC   NC334043  11.054  22.889   9.505
 2477POPC   PO434044  11.651  22.504   9.549
 2477POPC   GL134045  11.463  22.741   9.221
 2477POPC   GL234046  11.634  23.040   9.084
 2477POPC   C1A34047  11.249  22.765   8.823
 2477POPC   D2A34048  11.160  22.725   8.392
 2477POPC   C3A34049  11.448  22.924   8.121
 2477POPC   C4A34050  11.518  22.879   7.691
 2477POPC   C1B34051  11.690  23.363   8.780
 2477POPC   C2B34052  11.675  23.360   8.327
 2477POPC   C3B34053  11.567  23.369   7.837
 2477POPC   C4B34054  11.639  23.676   7.462
 2478POPC   NC334055  21.636  30.561   9.553
 2478POPC   PO434056  21.226  31.142   9.580
 2478POPC   GL134057  21.286  30.808   9.229
 2478POPC   GL234058  21.589  30.642   9.037
 2478POPC   C1A34059  21.106  30.591   8.836
 2478POPC   D2A34060  21.128  30.373   8.451
 2478POPC   C3A34061  21.268  30.533   8.060
 2478POPC   C4A34062  21.011  30.693   7.718
 2478POPC   C1B34063  21.577  30.608   8.565
 2478POPC   C2B34064  21.807  30.459   8.227
 2478POPC   C3B34065  21.752  30.731   7.896
 2478POPC   C4B34066  21.510  30.604   7.578
 2479POPC   NC334067  39.710  16.726  10.039
 2479POPC   PO434068  40.121  16.782   9.543
 2479POPC   GL134069  39.924  16.604   9.199
 2479POPC   GL234070  40.245  16.578   9.067
 2479POPC   C1A34071  39.816  16.757   8.770
 2479POPC   D2A34072  40.029  16.921   8.391
 2479POPC   C3A34073  39.842  16.951   7.959
 2479POPC   C4A34074  40.204  16.948   7.680
 2479POPC   C1B34075  40.094  16.336   8.757
 2479POPC   C2B34076  39.936  16.419   8.377
 2479POPC   C3B34077  40.135  16.544   8.018
 2479POPC   C4B34078  39.924  16.507   7.657
 2480POPC   NC334079  24.377   3.666   9.586
 2480POPC   PO434080  24.990   3.444   9.528
 2480POPC   GL134081  24.672   3.605   9.165
 2480POPC   GL234082  24.371   3.447   9.116
 2480POPC   C1A34083  24.685   3.486   8.690
 2480POPC   D2A34084  24.810   3.508   8.273
 2480POPC   C3A34085  24.554   3.328   7.960
 2480POPC   C4A34086  24.541   3.592   7.637
 2480POPC   C1B34087  24.214   3.657   8.753
 2480POPC   C2B34088  24.229   3.530   8.327
 2480POPC   C3B34089  24.247   3.814   7.981
 2480POPC   C4B34090  24.094   3.834   7.560
 2481POPC   NC334091  22.738   7.187   9.611
 2481POPC   PO434092  23.104   7.809   9.515
 2481POPC   GL134093  23.187   7.504   9.173
 2481POPC   GL234094  22.963   7.241   9.135
 2481POPC   C1A34095  23.212   7.465   8.722
 2481POPC   D2A34096  23.129   7.198   8.382
 2481POPC   C3A34097  22.837   7.358   8.089
 2481POPC   C4A34098  22.755   7.610   7.764
 2481POPC   C1B34099  22.718   7.225   8.742
 2481POPC   C2B34100  22.549   7.021   8.368
 2481POPC   C3B34101  22.578   6.959   7.898
 2481POPC   C4B34102  22.484   7.247   7.539
 2482POPC   NC334103  27.330  15.576   9.431
 2482POPC   PO434104  26.653  15.277   9.472
 2482POPC   GL134105  26.833  15.394   9.120
 2482POPC   GL234106  27.137  15.220   9.076
 2482POPC   C1A34107  26.674  15.173   8.771
 2482POPC   D2A34108  26.405  14.964   8.474
 2482POPC   C3A34109  26.469  15.168   8.086
 2482POPC   C4A34110  26.699  15.240   7.715
 2482POPC   C1B34111  27.144  14.975   8.721
 2482POPC   C2B34112  26.924  15.001   8.323
 2482POPC   C3B34113  27.123  15.081   7.923
 2482POPC   C4B34114  27.171  15.523   7.765
 2483POPC   NC334115  31.945  27.876   9.791
 2483POPC   PO434116  32.413  28.308   9.494
 2483POPC   GL134117  32.072  28.371   9.205
 2483POPC   GL234118  32.031  28.730   9.127
 2483POPC   C1A34119  31.963  28.239   8.758
 2483POPC   D2A34120  32.117  27.914   8.459
 2483POPC   C3A34121  32.186  28.079   8.054
 2483POPC   C4A34122  32.473  28.024   7.708
 2483POPC   C1B34123  32.389  28.536   8.835
 2483POPC   C2B34124  32.357  28.434   8.390
 2483POPC   C3B34125  32.415  28.533   7.930
 2483POPC   C4B34126  32.306  28.483   7.494
 2484POPC   NC334127  12.831  30.401   9.435
 2484POPC   PO434128  13.050  31.036   9.351
 2484POPC   GL134129  12.697  30.874   9.078
 2484POPC   GL234130  12.839  30.608   8.987
 2484POPC   C1A34131  12.541  30.862   8.647
 2484POPC   D2A34132  12.772  30.870   8.237
 2484POPC   C3A34133  12.665  30.573   7.909
 2484POPC   C4A34134  12.650  30.647   7.415
 2484POPC   C1B34135  13.077  30.729   8.657
 2484POPC   C2B34136  13.385  30.497   8.407
 2484POPC   C3B34137  13.263  30.371   7.984
 2484POPC   C4B34138  13.102  30.721   7.718
 2485POPC   NC334139  39.301   2.340   9.605
 2485POPC   PO434140  39.061   1.741   9.678
 2485POPC   GL134141  39.306   1.917   9.283
 2485POPC   GL234142  39.239   2.269   9.109
 2485POPC   C1A34143  39.395   1.899   8.817
 2485POPC   D2A34144  39.303   1.724   8.408
 2485POPC   C3A34145  39.421   1.966   8.053
 2485POPC   C4A34146  39.438   1.820   7.663
 2485POPC   C1B34147  38.922   2.444   8.820
 2485POPC   C2B34148  38.862   2.362   8.376
 2485POPC   C3B34149  38.885   2.103   8.018
 2485POPC   C4B34150  39.149   2.249   7.690
 2486POPC   NC334151  24.127  15.432   9.556
 2486POPC   PO434152  24.287  16.117   9.557
 2486POPC   GL134153  24.472  16.072   9.168
 2486POPC   GL234154  24.813  16.225   9.149
 2486POPC   C1A34155  24.328  16.234   8.770
 2486POPC   D2A34156  24.484  16.164   8.342
 2486POPC   C3A34157  24.348  16.133   7.902
 2486POPC   C4A34158  24.453  15.765   7.660
 2486POPC   C1B34159  24.785  15.971   8.772
 2486POPC   C2B34160  24.954  15.944   8.368
 2486POPC   C3B34161  24.849  16.130   7.965
 2486POPC   C4B34162  24.699  16.182   7.512
 2487POPC   NC334163  35.500  43.470   9.558
 2487POPC   PO434164  35.155  42.880   9.593
 2487POPC   GL134165  35.327  43.031   9.210
 2487POPC   GL234166  35.386  42.734   9.011
 2487POPC   C1A34167  35.225  43.200   8.793
 2487POPC   D2A34168  35.474  43.254   8.417
 2487POPC   C3A34169  35.337  43.300   8.003
 2487POPC   C4A34170  35.634  43.303   7.626
 2487POPC   C1B34171  35.371  42.765   8.567
 2487POPC   C2B34172  35.043  42.943   8.296
 2487POPC   C3B34173  34.980  42.732   7.902
 2487POPC   C4B34174  35.356  42.882   7.718
 2488POPC   NC334175  27.805   8.369   9.842
 2488POPC   PO434176  27.330   8.504   9.410
 2488POPC   GL134177  27.388   8.288   9.052
 2488POPC   GL234178  27.526   8.025   9.210
 2488POPC   C1A34179  27.485   8.271   8.624
 2488POPC   D2A34180  27.833   8.213   8.350
 2488POPC   C3A34181  27.699   8.267   7.950
 2488POPC   C4A34182  27.876   8.206   7.575
 2488POPC   C1B34183  27.345   7.794   8.837
 2488POPC   C2B34184  27.237   7.802   8.391
 2488POPC   C3B34185  27.405   7.804   7.975
 2488POPC   C4B34186  27.357   8.067   7.623
 2489POPC   NC334187  32.069  32.032   9.312
 2489POPC   PO434188  32.696  32.069   9.512
 2489POPC   GL134189  32.517  32.228   9.133
 2489POPC   GL234190  32.347  31.963   8.898
 2489POPC   C1A34191  32.690  32.328   8.749
 2489POPC   D2A34192  32.480  32.161   8.399
 2489POPC   C3A34193  32.514  32.368   8.031
 2489POPC   C4A34194  32.378  32.157   7.677
 2489POPC   C1B34195  32.163  32.376   8.755
 2489POPC   C2B34196  32.202  32.600   8.372
 2489POPC   C3B34197  32.011  32.665   7.943
 2489POPC   C4B34198  31.971  32.459   7.518
 2490POPC   NC334199  15.652  44.288   9.514
 2490POPC   PO434200  15.768  43.555   9.521
 2490POPC   GL134201  15.918  43.669   9.136
 2490POPC   GL234202  15.664  43.918   9.156
 2490POPC   C1A34203  15.953  43.903   8.751
 2490POPC   D2A34204  15.716  43.910   8.401
 2490POPC   C3A34205  15.959  43.852   8.051
 2490POPC   C4A34206  15.819  43.593   7.725
 2490POPC   C1B34207  15.603  44.250   8.847
 2490POPC   C2B34208  15.481  44.367   8.433
 2490POPC   C3B34209  15.645  44.268   8.016
 2490POPC   C4B34210  15.875  44.119   7.645
 2491POPC   NC334211  20.273  12.071   9.629
 2491POPC   PO434212  20.840  12.370   9.415
 2491POPC   GL134213  20.500  12.103   9.178
 2491POPC   GL234214  20.159  12.130   9.096
 2491POPC   C1A34215  20.459  11.863   8.800
 2491POPC   D2A34216  20.560  12.090   8.403
 2491POPC   C3A34217  20.425  11.989   7.992
 2491POPC   C4A34218  20.705  11.884   7.633
 2491POPC   C1B34219  20.411  12.409   8.798
 2491POPC   C2B34220  20.590  12.600   8.412
 2491POPC   C3B34221  20.739  12.434   8.017
 2491POPC   C4B34222  20.514  12.375   7.657
 2492POPC   NC334223   7.981  16.746   9.729
 2492POPC   PO434224   8.613  16.583   9.600
 2492POPC   GL134225   8.292  16.664   9.268
 2492POPC   GL234226   8.292  16.971   9.085
 2492POPC   C1A34227   8.115  16.542   8.847
 2492POPC   D2A34228   7.901  16.538   8.432
 2492POPC   C3A34229   8.110  16.534   8.017
 2492POPC   C4A34230   8.016  16.440   7.594
 2492POPC   C1B34231   8.327  17.130   8.707
 2492POPC   C2B34232   8.220  16.922   8.346
 2492POPC   C3B34233   8.133  17.064   7.918
 2492POPC   C4B34234   8.206  17.041   7.442
 2493POPC   NC334235  11.321  22.124   9.552
 2493POPC   PO434236  10.870  22.510   9.328
 2493POPC   GL134237  11.185  22.310   9.064
 2493POPC   GL234238  11.383  21.985   9.065
 2493POPC   C1A34239  11.246  22.223   8.634
 2493POPC   D2A34240  11.169  22.203   8.225
 2493POPC   C3A34241  11.309  22.448   7.909
 2493POPC   C4A34242  11.019  22.243   7.652
 2493POPC   C1B34243  11.698  21.946   8.731
 2493POPC   C2B34244  11.592  21.918   8.318
 2493POPC   C3B34245  11.643  22.076   7.940
 2493POPC   C4B34246  11.463  22.046   7.514
 2494POPC   NC334247  34.755  21.972   9.313
 2494POPC   PO434248  34.236  22.306   9.453
 2494POPC   GL134249  34.406  22.265   9.066
 2494POPC   GL234250  34.314  21.900   9.041
 2494POPC   C1A34251  34.618  22.208   8.673
 2494POPC   D2A34252  34.794  22.411   8.332
 2494POPC   C3A34253  34.819  22.227   7.951
 2494POPC   C4A34254  34.571  22.041   7.686
 2494POPC   C1B34255  34.438  21.731   8.631
 2494POPC   C2B34256  34.398  21.839   8.167
 2494POPC   C3B34257  34.299  21.640   7.750
 2494POPC   C4B34258  34.554  21.658   7.359
 2495POPC   NC334259   8.473  36.285   9.460
 2495POPC   PO434260   8.244  35.667   9.565
 2495POPC   GL134261   8.151  35.957   9.218
 2495POPC   GL234262   8.474  35.852   9.137
 2495POPC   C1A34263   7.986  36.163   8.831
 2495POPC   D2A34264   7.817  36.074   8.404
 2495POPC   C3A34265   7.995  36.249   8.025
 2495POPC   C4A34266   8.396  36.191   7.867
 2495POPC   C1B34267   8.450  35.992   8.741
 2495POPC   C2B34268   8.311  35.892   8.335
 2495POPC   C3B34269   8.599  35.759   8.006
 2495POPC   C4B34270   8.490  35.773   7.565
 2496POPC   NC334271   2.112  24.255   9.512
 2496POPC   PO434272   1.759  24.877   9.493
 2496POPC   GL134273   2.024  24.613   9.142
 2496POPC   GL234274   2.042  24.251   9.017
 2496POPC   C1A34275   2.134  24.681   8.680
 2496POPC   D2A34276   2.439  24.766   8.361
 2496POPC   C3A34277   2.162  24.721   8.004
 2496POPC   C4A34278   1.964  24.837   7.651
 2496POPC   C1B34279   1.850  24.214   8.633
 2496POPC   C2B34280   1.771  24.413   8.241
 2496POPC   C3B34281   1.796  24.320   7.802
 2496POPC   C4B34282   1.679  24.130   7.381
 2497POPC   NC334283  13.356  40.421   9.525
 2497POPC   PO434284  12.714  40.833   9.568
 2497POPC   GL134285  12.490  40.824   9.167
 2497POPC   GL234286  12.800  40.903   9.010
 2497POPC   C1A34287  12.351  40.869   8.728
 2497POPC   D2A34288  12.690  40.988   8.494
 2497POPC   C3A34289  12.732  40.852   8.101
 2497POPC   C4A34290  12.593  40.886   7.704
 2497POPC   C1B34291  12.988  40.596   8.709
 2497POPC   C2B34292  13.122  40.565   8.265
 2497POPC   C3B34293  13.150  40.757   7.835
 2497POPC   C4B34294  13.031  41.034   7.505
 2498POPC   NC334295  27.470   6.822   9.471
 2498POPC   PO434296  27.770   6.345   9.819
 2498POPC   GL134297  27.661   6.395   9.307
 2498POPC   GL234298  27.836   6.690   9.127
 2498POPC   C1A34299  27.432   6.452   8.876
 2498POPC   D2A34300  27.469   6.637   8.449
 2498POPC   C3A34301  27.303   6.560   8.038
 2498POPC   C4A34302  27.449   6.892   7.780
 2498POPC   C1B34303  27.912   6.518   8.703
 2498POPC   C2B34304  27.960   6.428   8.254
 2498POPC   C3B34305  27.923   6.702   7.885
 2498POPC   C4B34306  27.753   6.666   7.438
 2499POPC   NC334307  13.730  10.760   9.498
 2499POPC   PO434308  13.255  10.306   9.317
 2499POPC   GL134309  13.470  10.622   9.080
 2499POPC   GL234310  13.827  10.536   9.050
 2499POPC   C1A34311  13.334  10.856   8.714
 2499POPC   D2A34312  13.227  10.730   8.286
 2499POPC   C3A34313  13.537  10.673   7.972
 2499POPC   C4A34314  13.533  10.566   7.536
 2499POPC   C1B34315  13.635  10.452   8.622
 2499POPC   C2B34316  13.544  10.225   8.228
 2499POPC   C3B34317  13.661  10.156   7.779
 2499POPC   C4B34318  13.523  10.139   7.292
 2500POPC   NC334319   5.442  40.202   9.605
 2500POPC   PO434320   4.938  39.738   9.487
 2500POPC   GL134321   5.128  40.049   9.194
 2500POPC   GL234322   4.902  40.229   9.016
 2500POPC   C1A34323   5.292  40.107   8.723
 2500POPC   D2A34324   5.309  39.759   8.397
 2500POPC   C3A34325   5.077  39.837   8.031
 2500POPC   C4A34326   4.791  40.109   7.871
 2500POPC   C1B34327   4.891  39.806   8.796
 2500POPC   C2B34328   4.789  39.609   8.397
 2500POPC   C3B34329   4.590  39.617   7.996
 2500POPC   C4B34330   4.839  39.649   7.597
 2501POPC   NC334331  13.329  36.397   9.461
 2501POPC   PO434332  13.830  36.829   9.582
 2501POPC   GL134333  13.609  36.808   9.193
 2501POPC   GL234334  13.760  36.505   9.111
 2501POPC   C1A34335  13.418  37.040   8.832
 2501POPC   D2A34336  13.355  36.930   8.396
 2501POPC   C3A34337  13.487  37.048   7.972
 2501POPC   C4A34338  13.793  36.818   7.697
 2501POPC   C1B34339  13.789  36.709   8.686
 2501POPC   C2B34340  13.794  36.681   8.240
 2501POPC   C3B34341  14.110  36.552   7.979
 2501POPC   C4B34342  14.326  36.723   7.622
 2502POPC   NC334343   8.751   8.728   9.494
 2502POPC   PO434344   9.391   8.969   9.561
 2502POPC   GL134345   9.117   8.948   9.173
 2502POPC   GL234346   8.736   9.014   9.084
 2502POPC   C1A34347   9.113   8.995   8.734
 2502POPC   D2A34348   8.967   9.163   8.364
 2502POPC   C3A34349   9.273   9.069   8.044
 2502POPC   C4A34350   9.302   9.250   7.636
 2502POPC   C1B34351   8.742   8.654   8.779
 2502POPC   C2B34352   8.909   8.662   8.366
 2502POPC   C3B34353   8.817   8.852   7.939
 2502POPC   C4B34354   8.443   9.055   7.787
 2503POPC   NC334355  35.377  38.874   9.484
 2503POPC   PO434356  35.122  39.531   9.477
 2503POPC   GL134357  35.400  39.322   9.205
 2503POPC   GL234358  35.156  39.126   9.085
 2503POPC   C1A34359  35.571  39.256   8.798
 2503POPC   D2A34360  35.372  39.167   8.384
 2503POPC   C3A34361  35.560  39.319   7.999
 2503POPC   C4A34362  35.669  39.146   7.612
 2503POPC   C1B34363  35.086  39.427   8.765
 2503POPC   C2B34364  34.884  39.650   8.455
 2503POPC   C3B34365  34.951  39.582   8.038
 2503POPC   C4B34366  35.153  39.409   7.644
 2504POPC   NC334367  36.732  21.929   9.460
 2504POPC   PO434368  37.165  22.393   9.524
 2504POPC   GL134369  36.923  22.302   9.149
 2504POPC   GL234370  36.685  22.552   9.139
 2504POPC   C1A34371  36.807  21.958   8.819
 2504POPC   D2A34372  36.600  21.711   8.475
 2504POPC   C3A34373  36.795  21.784   8.087
 2504POPC   C4A34374  36.683  21.969   7.699
 2504POPC   C1B34375  36.540  22.394   8.763
 2504POPC   C2B34376  36.654  22.212   8.369
 2504POPC   C3B34377  36.542  22.372   7.981
 2504POPC   C4B34378  36.781  22.469   7.629
 2505POPC   NC334379  11.450   8.449   9.497
 2505POPC   PO434380  11.024   7.927   9.565
 2505POPC   GL134381  11.094   8.220   9.200
 2505POPC   GL234382  10.834   8.057   9.092
 2505POPC   C1A34383  11.362   8.394   8.814
 2505POPC   D2A34384  11.561   8.304   8.380
 2505POPC   C3A34385  11.348   8.447   8.011
 2505POPC   C4A34386  11.545   8.661   7.676
 2505POPC   C1B34387  10.976   7.975   8.710
 2505POPC   C2B34388  11.068   8.166   8.347
 2505POPC   C3B34389  10.881   8.149   7.951
 2505POPC   C4B34390  11.008   8.010   7.555
 2506POPC   NC334391  40.449  15.422   9.497
 2506POPC   PO434392  40.985  14.992   9.343
 2506POPC   GL134393  40.964  15.375   9.091
 2506POPC   GL234394  40.593  15.481   9.017
 2506POPC   C1A34395  40.989  15.340   8.647
 2506POPC   D2A34396  40.785  15.034   8.366
 2506POPC   C3A34397  41.034  14.698   8.178
 2506POPC   C4A34398  41.225  14.837   7.806
 2506POPC   C1B34399  40.501  15.444   8.589
 2506POPC   C2B34400  40.736  15.548   8.219
 2506POPC   C3B34401  40.678  15.359   7.813
 2506POPC   C4B34402  40.664  15.459   7.379
 2507POPC   NC334403  43.563   4.496   9.287
 2507POPC   PO434404  43.210   4.072   9.689
 2507POPC   GL134405  42.956   4.222   9.277
 2507POPC   GL234406  43.158   4.401   9.006
 2507POPC   C1A34407  42.694   4.280   8.862
 2507POPC   D2A34408  42.937   4.251   8.459
 2507POPC   C3A34409  42.856   4.315   8.019
 2507POPC   C4A34410  42.933   4.546   7.641
 2507POPC   C1B34411  43.443   4.270   8.657
 2507POPC   C2B34412  43.424   4.156   8.229
 2507POPC   C3B34413  43.338   4.329   7.839
 2507POPC   C4B34414  43.341   4.371   7.375
 2508POPC   NC334415  33.360  27.285   9.334
 2508POPC   PO434416  32.816  27.409   9.665
 2508POPC   GL134417  32.875  27.539   9.238
 2508POPC   GL234418  33.154  27.763   9.224
 2508POPC   C1A34419  33.010  27.490   8.794
 2508POPC   D2A34420  32.931  27.237   8.446
 2508POPC   C3A34421  32.939  27.395   8.034
 2508POPC   C4A34422  32.953  27.807   7.848
 2508POPC   C1B34423  33.297  27.893   8.803
 2508POPC   C2B34424  33.209  27.712   8.375
 2508POPC   C3B34425  33.444  27.678   8.014
 2508POPC   C4B34426  33.524  27.773   7.595
 2509POPC   NC334427  40.638  31.347   9.477
 2509POPC   PO434428  41.059  31.823   9.251
 2509POPC   GL134429  40.946  31.541   8.971
 2509POPC   GL234430  40.882  31.210   9.052
 2509POPC   C1A34431  40.818  31.490   8.567
 2509POPC   D2A34432  40.668  31.698   8.232
 2509POPC   C3A34433  40.932  31.649   7.932
 2509POPC   C4A34434  40.723  31.607   7.546
 2509POPC   C1B34435  40.551  31.103   8.716
 2509POPC   C2B34436  40.504  31.173   8.235
 2509POPC   C3B34437  40.425  31.018   7.780
 2509POPC   C4B34438  40.479  31.200   7.362
 2510POPC   NC334439  31.534  31.322   9.881
 2510POPC   PO434440  31.547  30.728   9.581
 2510POPC   GL134441  31.460  30.632   9.165
 2510POPC   GL234442  31.181  30.415   9.230
 2510POPC   C1A34443  31.514  30.720   8.732
 2510POPC   D2A34444  31.679  30.941   8.392
 2510POPC   C3A34445  31.511  30.789   8.029
 2510POPC   C4A34446  31.275  30.791   7.670
 2510POPC   C1B34447  31.201  30.329   8.775
 2510POPC   C2B34448  31.241  30.487   8.362
 2510POPC   C3B34449  31.137  30.362   7.951
 2510POPC   C4B34450  31.212  30.309   7.507
 2511POPC   NC334451  15.242   2.282   9.445
 2511POPC   PO434452  15.249   1.671   9.407
 2511POPC   GL134453  15.015   1.877   9.076
 2511POPC   GL234454  14.925   2.249   9.068
 2511POPC   C1A34455  15.160   1.862   8.651
 2511POPC   D2A34456  15.533   1.761   8.364
 2511POPC   C3A34457  15.470   1.868   7.958
 2511POPC   C4A34458  15.054   1.786   7.817
 2511POPC   C1B34459  15.298   2.327   8.783
 2511POPC   C2B34460  15.268   2.242   8.330
 2511POPC   C3B34461  15.146   2.275   7.907
 2511POPC   C4B34462  15.463   2.233   7.607
 2512POPC   NC334463  28.599  34.137   9.489
 2512POPC   PO434464  28.155  33.567   9.405
 2512POPC   GL134465  28.442  33.768   9.169
 2512POPC   GL234466  28.226  34.046   9.146
 2512POPC   C1A34467  28.596  33.958   8.787
 2512POPC   D2A34468  28.407  34.077   8.376
 2512POPC   C3A34469  28.613  33.921   8.002
 2512POPC   C4A34470  28.477  33.664   7.633
 2512POPC   C1B34471  28.096  33.844   8.770
 2512POPC   C2B34472  28.102  33.629   8.390
 2512POPC   C3B34473  28.124  33.785   7.989
 2512POPC   C4B34474  27.966  33.601   7.622
 2513POPC   NC334475  16.896  35.494   9.477
 2513POPC   PO434476  17.090  34.782   9.368
 2513POPC   GL134477  16.861  34.969   9.013
 2513POPC   GL234478  16.739  35.294   9.016
 2513POPC   C1A34479  17.020  35.097   8.612
 2513POPC   D2A34480  17.166  35.070   8.185
 2513POPC   C3A34481  16.808  35.217   7.958
 2513POPC   C4A34482  16.400  35.008   7.906
 2513POPC   C1B34483  16.425  35.454   8.736
 2513POPC   C2B34484  16.351  35.375   8.294
 2513POPC   C3B34485  16.431  35.567   7.881
 2513POPC   C4B34486  16.655  35.800   7.539
 2514POPC   NC334487  25.101  30.412   9.401
 2514POPC   PO434488  25.140  31.131   9.524
 2514POPC   GL134489  25.141  30.892   9.140
 2514POPC   GL234490  25.417  30.658   9.111
 2514POPC   C1A34491  25.008  30.704   8.740
 2514POPC   D2A34492  25.170  30.810   8.327
 2514POPC   C3A34493  25.076  30.576   7.984
 2514POPC   C4A34494  25.023  30.862   7.705
 2514POPC   C1B34495  25.540  30.727   8.707
 2514POPC   C2B34496  25.702  30.862   8.341
 2514POPC   C3B34497  25.509  30.868   7.925
 2514POPC   C4B34498  25.452  30.529   7.627
 2515POPC   NC334499  11.643  35.545   9.349
 2515POPC   PO434500  12.270  35.594   9.689
 2515POPC   GL134501  12.259  35.517   9.241
 2515POPC   GL234502  12.065  35.228   9.219
 2515POPC   C1A34503  12.125  35.552   8.802
 2515POPC   D2A34504  12.137  35.593   8.349
 2515POPC   C3A34505  11.805  35.553   8.054
 2515POPC   C4A34506  11.908  35.442   7.653
 2515POPC   C1B34507  11.996  35.029   8.831
 2515POPC   C2B34508  12.162  34.934   8.439
 2515POPC   C3B34509  12.147  35.141   8.083
 2515POPC   C4B34510  12.183  35.017   7.668
 2516POPC   NC334511  38.932  44.300   9.621
 2516POPC   PO434512  38.864  43.676   9.744
 2516POPC   GL134513  39.144  43.637   9.330
 2516POPC   GL234514  39.075  43.968   9.251
 2516POPC   C1A34515  39.255  43.682   8.863
 2516POPC   D2A34516  39.255  43.922   8.461
 2516POPC   C3A34517  39.227  43.800   8.032
 2516POPC   C4A34518  39.081  43.462   7.775
 2516POPC   C1B34519  39.032  44.166   8.862
 2516POPC   C2B34520  38.853  44.259   8.444
 2516POPC   C3B34521  38.758  44.040   8.080
 2516POPC   C4B34522  38.822  44.221   7.669
 2517POPC   NC334523   0.730   3.086   9.572
 2517POPC   PO434524   0.515   2.531   9.635
 2517POPC   GL134525   0.286   2.753   9.286
 2517POPC   GL234526   0.549   2.925   9.096
 2517POPC   C1A34527   0.177   2.721   8.826
 2517POPC   D2A34528   0.418   2.868   8.463
 2517POPC   C3A34529   0.345   2.684   8.049
 2517POPC   C4A34530   0.513   2.785   7.635
 2517POPC   C1B34531   0.854   2.926   8.741
 2517POPC   C2B34532   0.876   2.589   8.432
 2517POPC   C3B34533   0.772   2.330   8.062
 2517POPC   C4B34534   0.903   2.423   7.636
 2518POPC   NC334535   5.507  19.795   9.628
 2518POPC   PO434536   4.859  19.558   9.587
 2518POPC   GL134537   5.048  19.721   9.194
 2518POPC   GL234538   5.392  19.607   9.166
 2518POPC   C1A34539   5.200  19.982   8.825
 2518POPC   D2A34540   5.432  20.034   8.404
 2518POPC   C3A34541   5.215  20.001   7.982
 2518POPC   C4A34542   4.876  19.803   7.710
 2518POPC   C1B34543   5.531  19.587   8.736
 2518POPC   C2B34544   5.302  19.525   8.339
 2518POPC   C3B34545   5.203  19.438   7.912
 2518POPC   C4B34546   5.426  19.699   7.606
 2519POPC   NC334547   8.623  20.743   9.444
 2519POPC   PO434548   9.356  20.709   9.640
 2519POPC   GL134549   9.155  20.653   9.218
 2519POPC   GL234550   8.833  20.593   9.006
 2519POPC   C1A34551   9.304  20.735   8.807
 2519POPC   D2A34552   9.026  20.717   8.466
 2519POPC   C3A34553   9.202  20.592   8.107
 2519POPC   C4A34554   9.178  20.756   7.736
 2519POPC   C1B34555   8.626  20.245   8.775
 2519POPC   C2B34556   8.458  20.233   8.381
 2519POPC   C3B34557   8.704  20.359   8.059
 2519POPC   C4B34558   9.001  20.277   7.741
 2520POPC   NC334559  12.578  28.807   9.347
 2520POPC   PO434560  12.897  29.440   9.379
 2520POPC   GL134561  12.874  29.132   9.078
 2520POPC   GL234562  13.231  29.038   9.024
 2520POPC   C1A34563  12.563  29.063   8.749
 2520POPC   D2A34564  12.690  28.957   8.346
 2520POPC   C3A34565  12.633  29.259   8.084
 2520POPC   C4A34566  12.641  29.148   7.694
 2520POPC   C1B34567  13.087  29.167   8.605
 2520POPC   C2B34568  13.156  29.169   8.171
 2520POPC   C3B34569  13.098  29.342   7.753
 2520POPC   C4B34570  13.039  29.428   7.307
 2521POPC   NC334571  23.804  35.726   9.472
 2521POPC   PO434572  23.581  36.357   9.477
 2521POPC   GL134573  23.549  36.066   9.164
 2521POPC   GL234574  23.929  36.015   9.060
 2521POPC   C1A34575  23.495  36.124   8.742
 2521POPC   D2A34576  23.678  35.939   8.414
 2521POPC   C3A34577  23.554  36.136   8.062
 2521POPC   C4A34578  23.442  36.078   7.660
 2521POPC   C1B34579  24.169  35.960   8.662
 2521POPC   C2B34580  24.116  35.733   8.251
 2521POPC   C3B34581  23.884  35.807   7.817
 2521POPC   C4B34582  24.109  35.914   7.403
 2522POPC   NC334583  27.428   6.084   9.650
 2522POPC   PO434584  27.732   5.519   9.771
 2522POPC   GL134585  27.698   5.815   9.298
 2522POPC   GL234586  27.381   6.016   9.159
 2522POPC   C1A34587  27.791   6.028   8.878
 2522POPC   D2A34588  27.600   6.148   8.498
 2522POPC   C3A34589  27.600   6.078   8.071
 2522POPC   C4A34590  27.792   5.812   7.786
 2522POPC   C1B34591  27.174   6.014   8.732
 2522POPC   C2B34592  27.259   5.774   8.372
 2522POPC   C3B34593  27.237   5.716   7.931
 2522POPC   C4B34594  27.286   5.793   7.498
 2523POPC   NC334595  26.225  13.175   9.345
 2523POPC   PO434596  26.082  13.815   9.514
 2523POPC   GL134597  26.002  13.848   9.095
 2523POPC   GL234598  26.099  13.543   9.022
 2523POPC   C1A34599  25.902  13.832   8.653
 2523POPC   D2A34600  26.077  13.867   8.254
 2523POPC   C3A34601  26.152  13.624   7.905
 2523POPC   C4A34602  25.964  13.669   7.528
 2523POPC   C1B34603  26.063  13.354   8.631
 2523POPC   C2B34604  25.872  13.346   8.218
 2523POPC   C3B34605  25.889  13.195   7.749
 2523POPC   C4B34606  25.915  13.238   7.260
 2524POPC   NC334607  42.271  43.659   9.406
 2524POPC   PO434608  42.915  43.754   9.527
 2524POPC   GL134609  42.697  43.998   9.177
 2524POPC   GL234610  42.338  44.099   9.125
 2524POPC   C1A34611  42.541  43.800   8.781
 2524POPC   D2A34612  42.441  43.667   8.372
 2524POPC   C3A34613  42.512  43.912   8.031
 2524POPC   C4A34614  42.693  43.821   7.632
 2524POPC   C1B34615  42.045  43.957   8.768
 2524POPC   C2B34616  42.016  43.965   8.316
 2524POPC   C3B34617  42.017  44.161   7.908
 2524POPC   C4B34618  42.350  44.188   7.631
 2525POPC   NC334619  15.844  26.437   9.762
 2525POPC   PO434620  15.722  27.037   9.540
 2525POPC   GL134621  15.741  26.688   9.210
 2525POPC   GL234622  16.061  26.524   9.262
 2525POPC   C1A34623  15.572  26.655   8.768
 2525POPC   D2A34624  15.782  26.825   8.362
 2525POPC   C3A34625  15.685  26.730   7.915
 2525POPC   C4A34626  15.877  26.779   7.512
 2525POPC   C1B34627  16.085  26.680   8.805
 2525POPC   C2B34628  16.186  26.521   8.365
 2525POPC   C3B34629  16.207  26.699   7.923
 2525POPC   C4B34630  16.320  26.507   7.524
 2526POPC   NC334631  17.296  30.579   9.534
 2526POPC   PO434632  17.371  31.254   9.395
 2526POPC   GL134633  17.617  30.931   9.163
 2526POPC   GL234634  17.372  30.705   9.054
 2526POPC   C1A34635  17.740  30.809   8.719
 2526POPC   D2A34636  17.628  30.675   8.286
 2526POPC   C3A34637  17.712  30.921   7.898
 2526POPC   C4A34638  17.554  30.760   7.448
 2526POPC   C1B34639  17.082  30.806   8.708
 2526POPC   C2B34640  17.164  30.897   8.277
 2526POPC   C3B34641  17.211  30.783   7.851
 2526POPC   C4B34642  17.159  30.361   7.749
 2527POPC   NC334643   8.152  30.865   9.750
 2527POPC   PO434644   8.445  30.355   9.464
 2527POPC   GL134645   8.338  30.531   9.095
 2527POPC   GL234646   8.443  30.841   9.215
 2527POPC   C1A34647   8.053  30.463   8.732
 2527POPC   D2A34648   7.894  30.446   8.303
 2527POPC   C3A34649   8.221  30.462   8.024
 2527POPC   C4A34650   8.266  30.731   7.708
 2527POPC   C1B34651   8.350  30.955   8.795
 2527POPC   C2B34652   8.227  30.839   8.395
 2527POPC   C3B34653   8.213  31.099   8.037
 2527POPC   C4B34654   8.558  31.168   7.749
 2528POPC   NC334655  28.876   4.543   9.510
 2528POPC   PO434656  29.484   4.333   9.506
 2528POPC   GL134657  29.208   4.390   9.159
 2528POPC   GL234658  28.869   4.202   9.125
 2528POPC   C1A34659  29.258   4.233   8.781
 2528POPC   D2A34660  29.187   4.380   8.402
 2528POPC   C3A34661  29.089   4.088   8.101
 2528POPC   C4A34662  29.248   4.105   7.696
 2528POPC   C1B34663  28.841   4.529   8.779
 2528POPC   C2B34664  28.890   4.812   8.434
 2528POPC   C3B34665  28.999   4.694   8.063
 2528POPC   C4B34666  28.874   4.440   7.794
 2529POPC   NC334667  13.194  39.736   9.475
 2529POPC   PO434668  12.712  39.268   9.626
 2529POPC   GL134669  12.688  39.293   9.186
 2529POPC   GL234670  12.852  39.579   9.123
 2529POPC   C1A34671  12.687  39.105   8.771
 2529POPC   D2A34672  12.803  39.108   8.321
 2529POPC   C3A34673  13.208  39.308   8.119
 2529POPC   C4A34674  13.215  39.343   7.663
 2529POPC   C1B34675  12.958  39.540   8.663
 2529POPC   C2B34676  12.838  39.641   8.223
 2529POPC   C3B34677  12.761  39.379   7.856
 2529POPC   C4B34678  12.680  39.246   7.416
 2530POPC   NC334679  34.437  28.569   9.571
 2530POPC   PO434680  34.292  27.915   9.334
 2530POPC   GL134681  34.564  28.199   9.049
 2530POPC   GL234682  34.571  28.560   9.078
 2530POPC   C1A34683  34.591  28.103   8.595
 2530POPC   D2A34684  34.331  27.993   8.245
 2530POPC   C3A34685  34.581  28.085   7.906
 2530POPC   C4A34686  34.796  28.415   7.726
 2530POPC   C1B34687  34.730  28.577   8.683
 2530POPC   C2B34688  34.678  28.526   8.237
 2530POPC   C3B34689  34.312  28.524   7.967
 2530POPC   C4B34690  34.311  28.407   7.532
 2531POPC   NC334691  36.585   9.403   9.264
 2531POPC   PO434692  36.059   9.739   9.555
 2531POPC   GL134693  36.045   9.589   9.172
 2531POPC   GL234694  35.840   9.883   9.090
 2531POPC   C1A34695  36.231   9.700   8.775
 2531POPC   D2A34696  36.273   9.961   8.424
 2531POPC   C3A34697  36.416   9.733   8.081
 2531POPC   C4A34698  36.348   9.940   7.714
 2531POPC   C1B34699  35.675   9.767   8.724
 2531POPC   C2B34700  35.675   9.882   8.335
 2531POPC   C3B34701  35.925   9.872   8.024
 2531POPC   C4B34702  35.917   9.630   7.680
 2532POPC   NC334703  10.451   9.028   9.470
 2532POPC   PO434704  11.005   8.675   9.474
 2532POPC   GL134705  10.846   8.920   9.111
 2532POPC   GL234706  10.782   9.282   9.176
 2532POPC   C1A34707  10.519   8.850   8.759
 2532POPC   D2A34708  10.458   9.081   8.348
 2532POPC   C3A34709  10.355   8.928   7.928
 2532POPC   C4A34710  10.616   8.840   7.572
 2532POPC   C1B34711  10.523   9.348   8.809
 2532POPC   C2B34712  10.375   9.578   8.450
 2532POPC   C3B34713  10.242   9.469   8.010
 2532POPC   C4B34714  10.537   9.362   7.685
 2533POPC   NC334715   3.673   0.826   9.415
 2533POPC   PO434716   3.619   0.149   9.446
 2533POPC   GL134717   3.551   0.394   9.088
 2533POPC   GL234718   3.295   0.633   9.114
 2533POPC   C1A34719   3.481   0.439   8.651
 2533POPC   D2A34720   3.705   0.546   8.272
 2533POPC   C3A34721   3.481   0.365   7.942
 2533POPC   C4A34722   3.526   0.330   7.486
 2533POPC   C1B34723   3.245   0.883   8.743
 2533POPC   C2B34724   3.222   0.745   8.326
 2533POPC   C3B34725   3.407   0.847   7.946
 2533POPC   C4B34726   3.193   0.695   7.629
 2534POPC   NC334727   2.147  25.132   9.452
 2534POPC   PO434728   1.688  25.550   9.249
 2534POPC   GL134729   2.021  25.416   9.039
 2534POPC   GL234730   2.013  25.086   8.963
 2534POPC   C1A34731   2.094  25.499   8.630
 2534POPC   D2A34732   2.032  25.163   8.314
 2534POPC   C3A34733   1.942  25.285   7.881
 2534POPC   C4A34734   2.200  25.240   7.461
 2534POPC   C1B34735   1.671  24.778   8.829
 2534POPC   C2B34736   1.547  24.827   8.448
 2534POPC   C3B34737   1.620  24.870   8.028
 2534POPC   C4B34738   1.474  25.125   7.696
 2535POPC   NC334739  38.314  15.429   9.457
 2535POPC   PO434740  38.467  14.810   9.593
 2535POPC   GL134741  38.561  15.012   9.216
 2535POPC   GL234742  38.233  14.996   9.143
 2535POPC   C1A34743  38.720  15.235   8.833
 2535POPC   D2A34744  38.895  15.136   8.398
 2535POPC   C3A34745  38.567  15.144   8.054
 2535POPC   C4A34746  38.462  14.968   7.650
 2535POPC   C1B34747  38.287  14.955   8.707
 2535POPC   C2B34748  38.068  14.756   8.380
 2535POPC   C3B34749  38.073  14.875   7.962
 2535POPC   C4B34750  37.947  14.706   7.590
 2536POPC   NC334751  42.846  19.366   9.495
 2536POPC   PO434752  43.314  18.963   9.272
 2536POPC   GL134753  42.908  19.003   9.133
 2536POPC   GL234754  43.045  19.348   9.021
 2536POPC   C1A34755  42.804  18.996   8.710
 2536POPC   D2A34756  43.215  19.116   8.526
 2536POPC   C3A34757  43.283  18.993   8.116
 2536POPC   C4A34758  43.383  19.126   7.688
 2536POPC   C1B34759  42.862  19.503   8.633
 2536POPC   C2B34760  42.802  19.270   8.244
 2536POPC   C3B34761  42.521  19.080   7.947
 2536POPC   C4B34762  42.611  18.926   7.559
 2537POPC   NC334763  25.951  34.556   9.667
 2537POPC   PO434764  26.362  34.915   9.245
 2537POPC   GL134765  26.029  34.618   9.176
 2537POPC   GL234766  25.728  34.732   9.108
 2537POPC   C1A34767  25.950  34.366   8.825
 2537POPC   D2A34768  26.160  34.484   8.467
 2537POPC   C3A34769  25.878  34.533   8.142
 2537POPC   C4A34770  25.915  34.466   7.722
 2537POPC   C1B34771  25.899  34.877   8.709
 2537POPC   C2B34772  25.784  35.038   8.288
 2537POPC   C3B34773  25.983  34.973   7.863
 2537POPC   C4B34774  25.960  34.884   7.410
 2538POPC   NC334775   7.018  19.071   9.691
 2538POPC   PO434776   7.648  18.992   9.639
 2538POPC   GL134777   7.725  19.112   9.200
 2538POPC   GL234778   7.408  19.262   9.235
 2538POPC   C1A34779   7.786  18.961   8.725
 2538POPC   D2A34780   7.591  18.961   8.319
 2538POPC   C3A34781   7.709  19.172   7.932
 2538POPC   C4A34782   7.766  18.975   7.526
 2538POPC   C1B34783   7.196  19.388   8.870
 2538POPC   C2B34784   7.242  19.337   8.443
 2538POPC   C3B34785   7.159  19.182   8.064
 2538POPC   C4B34786   7.272  19.011   7.691
 2539POPC   NC334787  21.788  16.872   9.533
 2539POPC   PO434788  22.398  16.717   9.543
 2539POPC   GL134789  22.206  16.740   9.160
 2539POPC   GL234790  22.285  17.088   9.160
 2539POPC   C1A34791  22.372  16.590   8.755
 2539POPC   D2A34792  22.205  16.340   8.416
 2539POPC   C3A34793  22.105  16.521   7.998
 2539POPC   C4A34794  22.051  16.675   7.572
 2539POPC   C1B34795  22.508  17.080   8.763
 2539POPC   C2B34796  22.410  16.973   8.316
 2539POPC   C3B34797  22.361  16.997   7.861
 2539POPC   C4B34798  22.474  16.903   7.401
 2540POPC   NC334799  20.120  12.856   9.658
 2540POPC   PO434800  19.467  12.775   9.524
 2540POPC   GL134801  19.775  12.828   9.259
 2540POPC   GL234802  19.936  12.516   9.324
 2540POPC   C1A34803  19.830  13.076   8.896
 2540POPC   D2A34804  19.778  12.888   8.488
 2540POPC   C3A34805  19.686  13.066   8.117
 2540POPC   C4A34806  19.854  13.184   7.775
 2540POPC   C1B34807  19.924  12.546   8.857
 2540POPC   C2B34808  20.079  12.489   8.424
 2540POPC   C3B34809  19.994  12.648   8.045
 2540POPC   C4B34810  19.694  12.663   7.768
 2541POPC   NC334811  42.995  16.113   9.473
 2541POPC   PO434812  43.626  15.749   9.469
 2541POPC   GL134813  43.245  15.811   9.143
 2541POPC   GL234814  43.343  15.676   8.870
 2541POPC   C1A34815  43.144  16.077   8.688
 2541POPC   D2A34816  43.087  15.865   8.284
 2541POPC   C3A34817  43.016  16.066   7.864
 2541POPC   C4A34818  42.826  15.916   7.455
 2541POPC   C1B34819  42.938  15.597   8.757
 2541POPC   C2B34820  42.655  15.582   8.380
 2541POPC   C3B34821  42.866  15.564   7.919
 2541POPC   C4B34822  43.319  15.655   7.832
 2542POPC   NC334823   9.856  32.267   9.739
 2542POPC   PO434824   9.404  32.656   9.604
 2542POPC   GL134825   9.607  32.466   9.237
 2542POPC   GL234826   9.958  32.344   9.250
 2542POPC   C1A34827   9.465  32.189   8.881
 2542POPC   D2A34828   9.598  31.977   8.486
 2542POPC   C3A34829   9.653  32.197   8.083
 2542POPC   C4A34830   9.534  32.281   7.638
 2542POPC   C1B34831   9.970  32.087   8.881
 2542POPC   C2B34832  10.082  32.107   8.444
 2542POPC   C3B34833  10.122  31.938   8.047
 2542POPC   C4B34834   9.941  31.975   7.647
 2543POPC   NC334835  41.981  20.061   9.490
 2543POPC   PO434836  42.500  19.685   9.455
 2543POPC   GL134837  42.207  19.731   9.130
 2543POPC   GL234838  42.129  20.049   9.009
 2543POPC   C1A34839  42.387  19.746   8.710
 2543POPC   D2A34840  42.395  19.556   8.344
 2543POPC   C3A34841  42.299  19.768   7.989
 2543POPC   C4A34842  42.388  19.505   7.647
 2543POPC   C1B34843  42.263  20.232   8.627
 2543POPC   C2B34844  42.231  20.286   8.192
 2543POPC   C3B34845  42.426  20.242   7.796
 2543POPC   C4B34846  42.293  20.010   7.466
 2544POPC   NC334847  26.857  37.406   9.733
 2544POPC   PO434848  26.552  36.741   9.526
 2544POPC   GL134849  26.761  36.736   9.140
 2544POPC   GL234850  26.627  37.006   8.966
 2544POPC   C1A34851  26.931  36.699   8.712
 2544POPC   D2A34852  26.711  36.975   8.402
 2544POPC   C3A34853  26.911  36.983   8.005
 2544POPC   C4A34854  26.704  36.910   7.633
 2544POPC   C1B34855  26.278  37.146   8.739
 2544POPC   C2B34856  26.200  37.100   8.323
 2544POPC   C3B34857  26.414  37.149   7.968
 2544POPC   C4B34858  26.348  37.293   7.564
 2545POPC   NC334859   3.232  20.433   9.511
 2545POPC   PO434860   3.843  20.654   9.445
 2545POPC   GL134861   3.748  20.587   9.052
 2545POPC   GL234862   3.423  20.652   9.079
 2545POPC   C1A34863   3.810  20.768   8.626
 2545POPC   D2A34864   3.862  20.809   8.194
 2545POPC   C3A34865   3.536  20.523   8.091
 2545POPC   C4A34866   3.566  20.258   7.749
 2545POPC   C1B34867   3.222  20.801   8.718
 2545POPC   C2B34868   3.287  20.956   8.328
 2545POPC   C3B34869   3.160  20.836   7.915
 2545POPC   C4B34870   3.572  20.867   7.730
 2546POPC   NC334871  36.168  34.342   9.680
 2546POPC   PO434872  35.542  34.086   9.448
 2546POPC   GL134873  35.905  34.399   9.252
 2546POPC   GL234874  36.265  34.457   9.187
 2546POPC   C1A34875  35.946  34.694   8.870
 2546POPC   D2A34876  36.085  34.707   8.464
 2546POPC   C3A34877  35.960  34.516   8.107
 2546POPC   C4A34878  35.811  34.626   7.703
 2546POPC   C1B34879  36.471  34.507   8.800
 2546POPC   C2B34880  36.374  34.302   8.409
 2546POPC   C3B34881  36.465  34.497   8.033
 2546POPC   C4B34882  36.288  34.482   7.653
 2547POPC   NC334883   7.742  38.650   9.222
 2547POPC   PO434884   7.217  39.063   9.525
 2547POPC   GL134885   7.322  39.333   9.198
 2547POPC   GL234886   7.491  39.090   9.026
 2547POPC   C1A34887   7.342  39.534   8.785
 2547POPC   D2A34888   7.493  39.526   8.359
 2547POPC   C3A34889   7.272  39.419   8.001
 2547POPC   C4A34890   7.038  39.103   7.807
 2547POPC   C1B34891   7.559  39.069   8.593
 2547POPC   C2B34892   7.337  38.952   8.216
 2547POPC   C3B34893   7.530  38.947   7.823
 2547POPC   C4B34894   7.952  38.783   7.814
 2548POPC   NC334895  30.238  13.837   9.562
 2548POPC   PO434896  29.776  13.295   9.465
 2548POPC   GL134897  29.893  13.560   9.133
 2548POPC   GL234898  29.949  13.906   9.150
 2548POPC   C1A34899  29.768  13.690   8.723
 2548POPC   D2A34900  30.026  13.669   8.377
 2548POPC   C3A34901  30.057  13.456   7.997
 2548POPC   C4A34902  29.675  13.667   7.839
 2548POPC   C1B34903  30.231  13.954   8.768
 2548POPC   C2B34904  30.287  14.089   8.323
 2548POPC   C3B34905  30.119  13.949   7.909
 2548POPC   C4B34906  29.862  13.964   7.474
 2549POPC   NC334907   4.004  41.484   9.571
 2549POPC   PO434908   3.430  41.200   9.551
 2549POPC   GL134909   3.514  41.523   9.203
 2549POPC   GL234910   3.230  41.743   9.061
 2549POPC   C1A34911   3.622  41.431   8.768
 2549POPC   D2A34912   3.506  41.327   8.340
 2549POPC   C3A34913   3.710  41.579   8.021
 2549POPC   C4A34914   3.953  41.468   7.671
 2549POPC   C1B34915   3.129  41.590   8.629
 2549POPC   C2B34916   3.228  41.770   8.183
 2549POPC   C3B34917   3.342  41.751   7.714
 2549POPC   C4B34918   3.312  41.801   7.253
 2550POPC   NC334919  36.458   6.963   9.126
 2550POPC   PO434920  36.121   6.528   9.527
 2550POPC   GL134921  36.063   6.618   9.108
 2550POPC   GL234922  35.904   6.926   8.977
 2550POPC   C1A34923  35.911   6.486   8.727
 2550POPC   D2A34924  36.145   6.589   8.373
 2550POPC   C3A34925  35.857   6.648   8.047
 2550POPC   C4A34926  36.029   6.562   7.659
 2550POPC   C1B34927  35.992   7.042   8.550
 2550POPC   C2B34928  36.085   7.126   8.101
 2550POPC   C3B34929  36.363   6.941   7.767
 2550POPC   C4B34930  36.389   6.804   7.299
 2551POPC   NC334931  13.360   1.060   9.912
 2551POPC   PO434932  13.214   1.378   9.340
 2551POPC   GL134933  13.454   1.339   8.997
 2551POPC   GL234934  13.758   1.437   9.068
 2551POPC   C1A34935  13.559   1.201   8.604
 2551POPC   D2A34936  13.271   0.963   8.404
 2551POPC   C3A34937  13.371   0.976   7.986
 2551POPC   C4A34938  13.613   1.238   7.649
 2551POPC   C1B34939  13.699   1.679   8.697
 2551POPC   C2B34940  13.917   1.686   8.308
 2551POPC   C3B34941  13.984   1.499   7.898
 2551POPC   C4B34942  13.923   1.619   7.444
 2552POPC   NC334943  31.960  18.217   9.382
 2552POPC   PO434944  31.310  18.067   9.506
 2552POPC   GL134945  31.455  18.271   9.146
 2552POPC   GL234946  31.363  18.609   9.161
 2552POPC   C1A34947  31.748  18.431   8.809
 2552POPC   D2A34948  31.645  18.547   8.402
 2552POPC   C3A34949  31.667  18.250   8.080
 2552POPC   C4A34950  31.864  18.173   7.691
 2552POPC   C1B34951  31.253  18.510   8.731
 2552POPC   C2B34952  31.081  18.558   8.333
 2552POPC   C3B34953  31.297  18.614   7.971
 2552POPC   C4B34954  31.385  18.367   7.634
 2553POPC   NC334955  42.751  20.097   9.438
 2553POPC   PO434956  43.290  19.669   9.479
 2553POPC   GL134957  43.085  19.869   9.119
 2553POPC   GL234958  42.764  19.783   9.042
 2553POPC   C1A34959  43.227  19.954   8.700
 2553POPC   D2A34960  43.115  19.807   8.303
 2553POPC   C3A34961  43.197  19.500   8.000
 2553POPC   C4A34962  42.881  19.350   7.727
 2553POPC   C1B34963  42.748  20.115   8.739
 2553POPC   C2B34964  42.649  20.028   8.304
 2553POPC   C3B34965  42.796  19.847   7.913
 2553POPC   C4B34966  43.211  19.953   7.738
 2554POPC   NC334967  31.293   5.416   9.411
 2554POPC   PO434968  31.518   6.046   9.487
 2554POPC   GL134969  31.615   5.953   9.103
 2554POPC   GL234970  31.830   6.192   9.086
 2554POPC   C1A34971  31.619   5.767   8.700
 2554POPC   D2A34972  31.405   5.946   8.360
 2554POPC   C3A34973  31.417   5.731   7.987
 2554POPC   C4A34974  31.705   5.635   7.685
 2554POPC   C1B34975  31.954   6.155   8.670
 2554POPC   C2B34976  31.894   6.012   8.268
 2554POPC   C3B34977  31.781   6.127   7.867
 2554POPC   C4B34978  31.835   6.082   7.441
 2555POPC   NC334979   6.314  17.212   9.607
 2555POPC   PO434980   6.311  16.541   9.354
 2555POPC   GL134981   6.191  16.793   9.034
 2555POPC   GL234982   6.087  17.125   9.162
 2555POPC   C1A34983   6.058  16.694   8.614
 2555POPC   D2A34984   5.717  16.730   8.318
 2555POPC   C3A34985   5.909  16.658   7.915
 2555POPC   C4A34986   6.319  16.791   7.830
 2555POPC   C1B34987   5.819  17.090   8.822
 2555POPC   C2B34988   5.925  17.194   8.414
 2555POPC   C3B34989   5.814  17.143   8.013
 2555POPC   C4B34990   6.018  17.151   7.672
 2556POPC   NC334991   2.595  43.342   9.959
 2556POPC   PO434992   2.851  43.931   9.813
 2556POPC   GL134993   2.930  44.101   9.312
 2556POPC   GL234994   2.606  44.020   9.096
 2556POPC   C1A34995   2.954  44.219   8.817
 2556POPC   D2A34996   2.727  44.023   8.456
 2556POPC   C3A34997   2.941  43.876   8.102
 2556POPC   C4A34998   2.937  43.993   7.694
 2556POPC   C1B34999   2.549  43.678   8.794
 2556POPC   C2B35000   2.366  43.667   8.354
 2556POPC   C3B35001   2.458  43.820   7.934
 2556POPC   C4B35002   2.532  43.772   7.480
 2557POPC   NC335003  34.838   6.458   9.525
 2557POPC   PO435004  34.390   6.914   9.409
 2557POPC   GL135005  34.601   6.657   9.109
 2557POPC   GL235006  34.542   6.920   8.927
 2557POPC   C1A35007  34.648   6.515   8.666
 2557POPC   D2A35008  34.497   6.749   8.312
 2557POPC   C3A35009  34.444   6.504   7.986
 2557POPC   C4A35010  34.706   6.431   7.649
 2557POPC   C1B35011  34.797   7.019   8.634
 2557POPC   C2B35012  35.032   6.877   8.293
 2557POPC   C3B35013  34.889   6.870   7.879
 2557POPC   C4B35014  35.055   6.782   7.480
 2558POPC   NC335015  16.896  10.129   9.649
 2558POPC   PO435016  16.484   9.614   9.716
 2558POPC   GL135017  16.759   9.758   9.310
 2558POPC   GL235018  16.603  10.037   9.213
 2558POPC   C1A35019  16.896   9.852   8.837
 2558POPC   D2A35020  16.987  10.043   8.406
 2558POPC   C3A35021  16.881   9.833   7.991
 2558POPC   C4A35022  17.089   9.773   7.585
 2558POPC   C1B35023  16.389  10.083   8.797
 2558POPC   C2B35024  16.481   9.928   8.383
 2558POPC   C3B35025  16.417  10.101   7.980
 2558POPC   C4B35026  16.165   9.946   7.644
 2559POPC   NC335027  26.460  21.870   9.701
 2559POPC   PO435028  25.989  22.310   9.499
 2559POPC   GL135029  26.078  22.166   9.122
 2559POPC   GL235030  26.325  21.929   9.161
 2559POPC   C1A35031  25.849  22.092   8.750
 2559POPC   D2A35032  25.982  22.257   8.353
 2559POPC   C3A35033  25.772  22.080   8.006
 2559POPC   C4A35034  25.771  22.296   7.641
 2559POPC   C1B35035  26.380  22.126   8.701
 2559POPC   C2B35036  26.480  22.110   8.249
 2559POPC   C3B35037  26.260  22.249   7.864
 2559POPC   C4B35038  26.174  21.938   7.552
 2560POPC   NC335039  27.792   8.536   9.290
 2560POPC   PO435040  27.866   7.962   9.608
 2560POPC   GL135041  28.093   8.105   9.211
 2560POPC   GL235042  28.297   8.450   9.215
 2560POPC   C1A35043  28.306   8.089   8.784
 2560POPC   D2A35044  28.337   8.307   8.372
 2560POPC   C3A35045  28.579   8.118   8.041
 2560POPC   C4A35046  28.335   8.020   7.678
 2560POPC   C1B35047  28.408   8.577   8.788
 2560POPC   C2B35048  28.424   8.833   8.397
 2560POPC   C3B35049  28.518   8.638   8.021
 2560POPC   C4B35050  28.377   8.521   7.622
 2561POPC   NC335051  20.753  11.012   9.476
 2561POPC   PO435052  20.431  11.641   9.528
 2561POPC   GL135053  20.376  11.321   9.175
 2561POPC   GL235054  20.687  11.281   9.053
 2561POPC   C1A35055  20.277  11.268   8.718
 2561POPC   D2A35056  20.436  11.585   8.383
 2561POPC   C3A35057  20.531  11.471   7.975
 2561POPC   C4A35058  20.343  11.071   7.873
 2561POPC   C1B35059  20.779  11.300   8.632
 2561POPC   C2B35060  20.758  11.087   8.233
 2561POPC   C3B35061  20.869  11.134   7.791
 2561POPC   C4B35062  20.891  11.406   7.426
 2562POPC   NC335063  35.260  30.121   9.481
 2562POPC   PO435064  35.383  30.721   9.611
 2562POPC   GL135065  35.399  30.585   9.226
 2562POPC   GL235066  35.727  30.460   9.162
 2562POPC   C1A35067  35.418  30.834   8.850
 2562POPC   D2A35068  35.247  30.991   8.468
 2562POPC   C3A35069  35.396  30.788   8.108
 2562POPC   C4A35070  35.248  30.873   7.729
 2562POPC   C1B35071  35.497  30.340   8.797
 2562POPC   C2B35072  35.305  30.358   8.439
 2562POPC   C3B35073  35.423  30.286   8.045
 2562POPC   C4B35074  35.513  30.446   7.675
 2563POPC   NC335075  37.135  22.837   9.418
 2563POPC   PO435076  36.614  23.227   9.531
 2563POPC   GL135077  36.764  23.049   9.151
 2563POPC   GL235078  37.033  23.235   9.083
 2563POPC   C1A35079  36.893  22.835   8.766
 2563POPC   D2A35080  36.683  22.727   8.398
 2563POPC   C3A35081  36.933  22.703   8.064
 2563POPC   C4A35082  36.713  22.940   7.820
 2563POPC   C1B35083  37.230  23.248   8.682
 2563POPC   C2B35084  37.059  23.139   8.281
 2563POPC   C3B35085  37.170  23.157   7.831
 2563POPC   C4B35086  37.305  23.279   7.380
 2564POPC   NC335087  34.119   1.889   9.385
 2564POPC   PO435088  33.465   2.054   9.390
 2564POPC   GL135089  33.775   2.192   9.125
 2564POPC   GL235090  33.805   1.871   8.997
 2564POPC   C1A35091  33.928   2.265   8.698
 2564POPC   D2A35092  33.687   2.140   8.374
 2564POPC   C3A35093  33.877   2.068   7.980
 2564POPC   C4A35094  33.730   2.216   7.579
 2564POPC   C1B35095  34.146   1.790   8.719
 2564POPC   C2B35096  34.262   1.898   8.310
 2564POPC   C3B35097  34.265   1.698   7.925
 2564POPC   C4B35098  34.014   1.773   7.588
 2565POPC   NC335099  25.978  17.957   9.540
 2565POPC   PO435100  26.407  18.399   9.492
 2565POPC   GL135101  26.192  18.437   9.150
 2565POPC   GL235102  26.208  18.085   9.104
 2565POPC   C1A35103  26.326  18.590   8.761
 2565POPC   D2A35104  26.311  18.375   8.343
 2565POPC   C3A35105  26.085  18.594   8.049
 2565POPC   C4A35106  25.779  18.470   7.756
 2565POPC   C1B35107  26.013  18.203   8.724
 2565POPC   C2B35108  25.758  18.300   8.357
 2565POPC   C3B35109  25.687  18.035   8.014
 2565POPC   C4B35110  25.997  17.868   7.740
 2566POPC   NC335111  12.190  26.281   9.623
 2566POPC   PO435112  12.031  25.623   9.470
 2566POPC   GL135113  12.037  25.992   9.184
 2566POPC   GL235114  11.741  26.190   9.321
 2566POPC   C1A35115  12.283  26.212   8.814
 2566POPC   D2A35116  12.345  26.425   8.388
 2566POPC   C3A35117  12.331  26.169   8.009
 2566POPC   C4A35118  12.019  26.087   7.720
 2566POPC   C1B35119  11.739  26.317   8.888
 2566POPC   C2B35120  11.888  26.190   8.481
 2566POPC   C3B35121  11.703  26.062   8.111
 2566POPC   C4B35122  11.484  26.309   7.844
 2567POPC   NC335123  27.871  20.766   9.446
 2567POPC   PO435124  27.333  20.800   9.320
 2567POPC   GL135125  27.463  20.450   9.121
 2567POPC   GL235126  27.774  20.367   9.175
 2567POPC   C1A35127  27.343  20.388   8.731
 2567POPC   D2A35128  27.499  20.597   8.372
 2567POPC   C3A35129  27.384  20.450   7.991
 2567POPC   C4A35130  27.381  20.692   7.619
 2567POPC   C1B35131  27.872  20.538   8.764
 2567POPC   C2B35132  27.996  20.408   8.356
 2567POPC   C3B35133  27.879  20.591   7.946
 2567POPC   C4B35134  27.876  20.622   7.507
 2568POPC   NC335135  43.605   5.322   9.541
 2568POPC   PO435136  43.961   4.732   9.693
 2568POPC   GL135137  43.942   4.817   9.248
 2568POPC   GL235138  44.121   4.513   9.160
 2568POPC   C1A35139  43.751   5.032   8.863
 2568POPC   D2A35140  43.729   5.357   8.518
 2568POPC   C3A35141  43.746   5.277   8.060
 2568POPC   C4A35142  44.041   5.474   7.698
 2568POPC   C1B35143  43.910   4.539   8.750
 2568POPC   C2B35144  43.737   4.761   8.407
 2568POPC   C3B35145  43.970   4.765   8.042
 2568POPC   C4B35146  43.917   4.984   7.684
 2569POPC   NC335147   3.969  21.034   9.204
 2569POPC   PO435148   4.536  21.118   9.593
 2569POPC   GL135149   4.430  21.375   9.242
 2569POPC   GL235150   4.125  21.517   9.154
 2569POPC   C1A35151   4.484  21.332   8.790
 2569POPC   D2A35152   4.202  21.144   8.469
 2569POPC   C3A35153   4.222  21.346   8.064
 2569POPC   C4A35154   4.505  21.291   7.708
 2569POPC   C1B35155   4.088  21.633   8.702
 2569POPC   C2B35156   3.929  21.720   8.270
 2569POPC   C3B35157   4.143  21.796   7.839
 2569POPC   C4B35158   4.204  21.570   7.417
 2570POPC   NC335159  10.138  42.704   9.413
 2570POPC   PO435160   9.859  42.084   9.626
 2570POPC   GL135161   9.792  42.323   9.261
 2570POPC   GL235162   9.611  42.084   9.112
 2570POPC   C1A35163   9.853  42.461   8.816
 2570POPC   D2A35164   9.759  42.366   8.364
 2570POPC   C3A35165   9.950  42.394   7.958
 2570POPC   C4A35166   9.543  42.505   7.740
 2570POPC   C1B35167   9.490  42.088   8.685
 2570POPC   C2B35168   9.713  41.844   8.356
 2570POPC   C3B35169   9.880  41.870   7.942
 2570POPC   C4B35170   9.805  42.093   7.561
 2571POPC   NC335171   1.580  11.244   9.578
 2571POPC   PO435172   1.776  11.831   9.917
 2571POPC   GL135173   1.855  11.601   9.347
 2571POPC   GL235174   1.838  11.225   9.152
 2571POPC   C1A35175   1.972  11.525   8.801
 2571POPC   D2A35176   2.053  11.166   8.421
 2571POPC   C3A35177   2.096  11.236   7.926
 2571POPC   C4A35178   2.179  11.436   7.485
 2571POPC   C1B35179   1.662  11.107   8.749
 2571POPC   C2B35180   1.585  10.888   8.351
 2571POPC   C3B35181   1.662  10.948   7.886
 2571POPC   C4B35182   1.757  11.158   7.511
 2572POPC   NC335183  14.060  28.170   9.458
 2572POPC   PO435184  13.420  28.596   9.502
 2572POPC   GL135185  13.509  28.589   9.062
 2572POPC   GL235186  13.841  28.491   9.110
 2572POPC   C1A35187  13.297  28.347   8.722
 2572POPC   D2A35188  13.336  28.201   8.290
 2572POPC   C3A35189  13.392  28.489   7.973
 2572POPC   C4A35190  13.428  28.517   7.553
 2572POPC   C1B35191  13.776  28.165   8.790
 2572POPC   C2B35192  13.838  28.082   8.345
 2572POPC   C3B35193  13.837  28.255   7.936
 2572POPC   C4B35194  13.799  28.060   7.546
 2573POPC   NC335195  43.128  28.599   9.802
 2573POPC   PO435196  42.745  28.174   9.416
 2573POPC   GL135197  42.945  28.299   9.035
 2573POPC   GL235198  43.211  28.485   9.103
 2573POPC   C1A35199  43.087  28.377   8.607
 2573POPC   D2A35200  42.868  28.523   8.230
 2573POPC   C3A35201  42.879  28.210   7.891
 2573POPC   C4A35202  43.299  28.205   7.732
 2573POPC   C1B35203  43.308  28.814   8.798
 2573POPC   C2B35204  43.492  28.809   8.405
 2573POPC   C3B35205  43.384  28.578   8.060
 2573POPC   C4B35206  43.038  28.675   7.749
 2574POPC   NC335207  29.425  14.353   9.453
 2574POPC   PO435208  28.927  14.695   9.667
 2574POPC   GL135209  29.002  14.524   9.195
 2574POPC   GL235210  28.883  14.203   9.050
 2574POPC   C1A35211  29.240  14.465   8.806
 2574POPC   D2A35212  29.394  14.334   8.428
 2574POPC   C3A35213  29.249  14.508   8.080
 2574POPC   C4A35214  29.272  14.500   7.655
 2574POPC   C1B35215  28.800  13.932   8.723
 2574POPC   C2B35216  28.949  13.863   8.298
 2574POPC   C3B35217  28.848  13.831   7.834
 2574POPC   C4B35218  28.913  14.186   7.533
 2575POPC   NC335219  26.110   5.468   9.343
 2575POPC   PO435220  26.232   6.072   9.569
 2575POPC   GL135221  26.149   5.973   9.121
 2575POPC   GL235222  25.982   6.272   8.945
 2575POPC   C1A35223  26.273   5.661   8.772
 2575POPC   D2A35224  26.322   5.682   8.359
 2575POPC   C3A35225  25.989   5.788   8.104
 2575POPC   C4A35226  26.117   5.669   7.711
 2575POPC   C1B35227  25.956   6.010   8.589
 2575POPC   C2B35228  25.762   5.581   8.515
 2575POPC   C3B35229  25.490   5.540   8.153
 2575POPC   C4B35230  25.594   5.774   7.770
 2576POPC   NC335231  11.124   1.786   9.477
 2576POPC   PO435232  11.573   2.379   9.560
 2576POPC   GL135233  11.420   2.130   9.185
 2576POPC   GL235234  11.543   1.761   9.172
 2576POPC   C1A35235  11.135   2.285   8.816
 2576POPC   D2A35236  10.916   2.127   8.443
 2576POPC   C3A35237  11.123   2.122   8.058
 2576POPC   C4A35238  11.324   2.351   7.755
 2576POPC   C1B35239  11.206   1.785   8.837
 2576POPC   C2B35240  11.132   1.644   8.425
 2576POPC   C3B35241  11.070   1.620   8.005
 2576POPC   C4B35242  11.167   1.823   7.599
 2577POPC   NC335243  12.042  28.502   9.583
 2577POPC   PO435244  11.866  27.919   9.710
 2577POPC   GL135245  11.890  28.195   9.233
 2577POPC   GL235246  11.954  28.587   9.105
 2577POPC   C1A35247  12.031  28.115   8.790
 2577POPC   D2A35248  12.382  28.046   8.467
 2577POPC   C3A35249  12.260  28.078   8.036
 2577POPC   C4A35250  11.905  28.304   7.898
 2577POPC   C1B35251  12.279  28.573   8.787
 2577POPC   C2B35252  12.135  28.486   8.381
 2577POPC   C3B35253  12.327  28.617   8.023
 2577POPC   C4B35254  12.131  28.680   7.638
 2578POPC   NC335255  25.977  30.809   9.623
 2578POPC   PO435256  25.614  30.257   9.419
 2578POPC   GL135257  25.924  30.596   9.171
 2578POPC   GL235258  26.255  30.470   9.033
 2578POPC   C1A35259  26.036  30.855   8.782
 2578POPC   D2A35260  26.176  31.106   8.442
 2578POPC   C3A35261  26.151  30.825   8.097
 2578POPC   C4A35262  25.956  30.845   7.687
 2578POPC   C1B35263  25.919  30.358   8.740
 2578POPC   C2B35264  25.728  30.313   8.388
 2578POPC   C3B35265  25.792  30.447   8.004
 2578POPC   C4B35266  25.907  30.326   7.617
 2579POPC   NC335267  42.230  25.587   9.498
 2579POPC   PO435268  42.496  24.940   9.395
 2579POPC   GL135269  42.157  25.125   9.168
 2579POPC   GL235270  42.312  25.438   9.020
 2579POPC   C1A35271  41.965  25.182   8.759
 2579POPC   D2A35272  42.212  25.441   8.454
 2579POPC   C3A35273  42.282  25.307   8.060
 2579POPC   C4A35274  42.473  25.142   7.708
 2579POPC   C1B35275  42.011  25.724   8.806
 2579POPC   C2B35276  41.940  25.873   8.354
 2579POPC   C3B35277  41.943  25.682   7.954
 2579POPC   C4B35278  42.285  25.618   7.645
 2580POPC   NC335279  37.457  39.634   9.400
 2580POPC   PO435280  38.022  39.199   9.526
 2580POPC   GL135281  37.783  39.303   9.153
 2580POPC   GL235282  37.887  39.518   9.000
 2580POPC   C1A35283  37.484  39.375   8.741
 2580POPC   D2A35284  37.689  39.365   8.313
 2580POPC   C3A35285  37.466  39.376   7.912
 2580POPC   C4A35286  37.459  39.155   7.527
 2580POPC   C1B35287  37.913  39.115   8.710
 2580POPC   C2B35288  37.806  38.861   8.377
 2580POPC   C3B35289  37.827  38.992   7.953
 2580POPC   C4B35290  38.095  39.370   7.877
 2581POPC   NC335291  31.643   9.376   9.580
 2581POPC   PO435292  31.481   8.730   9.525
 2581POPC   GL135293  31.288   8.853   9.120
 2581POPC   GL235294  31.585   9.031   9.115
 2581POPC   C1A35295  31.286   8.688   8.674
 2581POPC   D2A35296  31.483   8.909   8.303
 2581POPC   C3A35297  31.627   8.710   7.896
 2581POPC   C4A35298  31.488   8.637   7.452
 2581POPC   C1B35299  31.758   9.258   8.774
 2581POPC   C2B35300  31.884   9.290   8.348
 2581POPC   C3B35301  31.660   9.294   7.961
 2581POPC   C4B35302  31.599   9.116   7.572
 2582POPC   NC335303   7.338  22.931   9.689
 2582POPC   PO435304   7.478  22.468   9.410
 2582POPC   GL135305   7.385  22.811   9.108
 2582POPC   GL235306   7.153  23.084   9.215
 2582POPC   C1A35307   7.497  22.833   8.650
 2582POPC   D2A35308   7.632  22.656   8.221
 2582POPC   C3A35309   7.754  22.923   7.840
 2582POPC   C4A35310   7.718  23.221   7.471
 2582POPC   C1B35311   7.083  23.127   8.742
 2582POPC   C2B35312   7.219  23.069   8.288
 2582POPC   C3B35313   7.251  22.844   7.906
 2582POPC   C4B35314   6.957  22.786   7.539
 2583POPC   NC335315  10.250  13.090   9.471
 2583POPC   PO435316  10.567  12.521   9.622
 2583POPC   GL135317  10.564  12.733   9.221
 2583POPC   GL235318  10.733  13.064   9.231
 2583POPC   C1A35319  10.382  12.873   8.825
 2583POPC   D2A35320  10.535  12.776   8.416
 2583POPC   C3A35321  10.395  12.707   7.965
 2583POPC   C4A35322  10.517  12.752   7.474
 2583POPC   C1B35323  10.801  13.199   8.807
 2583POPC   C2B35324  10.627  13.317   8.413
 2583POPC   C3B35325  10.675  13.106   8.065
 2583POPC   C4B35326  10.543  13.231   7.677
 2584POPC   NC335327  29.343   3.140   9.422
 2584POPC   PO435328  29.088   3.796   9.411
 2584POPC   GL135329  29.248   3.550   9.112
 2584POPC   GL235330  28.951   3.346   9.155
 2584POPC   C1A35331  29.280   3.476   8.681
 2584POPC   D2A35332  29.331   3.133   8.403
 2584POPC   C3A35333  29.322   3.356   8.053
 2584POPC   C4A35334  29.149   3.618   7.725
 2584POPC   C1B35335  28.810   3.665   8.843
 2584POPC   C2B35336  28.566   3.556   8.506
 2584POPC   C3B35337  28.813   3.541   8.134
 2584POPC   C4B35338  28.646   3.442   7.759
 2585POPC   NC335339   4.243   9.756   9.840
 2585POPC   PO435340   4.892   9.589   9.591
 2585POPC   GL135341   4.516   9.581   9.258
 2585POPC   GL235342   4.257   9.834   9.285
 2585POPC   C1A35343   4.325   9.482   8.841
 2585POPC   D2A35344   4.181   9.703   8.471
 2585POPC   C3A35345   4.267   9.560   8.018
 2585POPC   C4A35346   4.323   9.446   7.586
 2585POPC   C1B35347   4.338  10.001   8.868
 2585POPC   C2B35348   4.542  10.073   8.473
 2585POPC   C3B35349   4.304  10.068   8.115
 2585POPC   C4B35350   4.384   9.949   7.703
 2586POPC   NC335351   5.584  41.679   9.289
 2586POPC   PO435352   6.073  41.382   9.628
 2586POPC   GL135353   6.125  41.492   9.222
 2586POPC   GL235354   6.133  41.827   9.193
 2586POPC   C1A35355   6.149  41.297   8.820
 2586POPC   D2A35356   6.257  41.168   8.394
 2586POPC   C3A35357   5.936  41.207   8.095
 2586POPC   C4A35358   5.671  41.269   7.711
 2586POPC   C1B35359   6.250  41.791   8.778
 2586POPC   C2B35360   6.038  41.641   8.393
 2586POPC   C3B35361   5.863  41.681   7.931
 2586POPC   C4B35362   5.552  41.847   7.610
 2587POPC   NC335363  14.055   1.668   9.406
 2587POPC   PO435364  14.469   1.167   9.592
 2587POPC   GL135365  14.470   1.190   9.130
 2587POPC   GL235366  14.163   1.120   9.021
 2587POPC   C1A35367  14.547   1.204   8.667
 2587POPC   D2A35368  14.192   1.236   8.347
 2587POPC   C3A35369  14.376   1.095   7.976
 2587POPC   C4A35370  14.314   0.886   7.602
 2587POPC   C1B35371  14.178   1.526   8.766
 2587POPC   C2B35372  14.441   1.674   8.399
 2587POPC   C3B35373  14.558   1.607   7.952
 2587POPC   C4B35374  14.368   1.401   7.580
 2588POPC   NC335375  34.285  33.289   9.494
 2588POPC   PO435376  34.798  32.885   9.746
 2588POPC   GL135377  34.796  33.012   9.249
 2588POPC   GL235378  34.447  33.042   9.049
 2588POPC   C1A35379  34.820  32.853   8.792
 2588POPC   D2A35380  34.547  32.950   8.458
 2588POPC   C3A35381  34.674  32.773   8.038
 2588POPC   C4A35382  34.815  33.100   7.779
 2588POPC   C1B35383  34.312  33.348   8.734
 2588POPC   C2B35384  34.446  33.456   8.293
 2588POPC   C3B35385  34.388  33.389   7.837
 2588POPC   C4B35386  34.168  33.125   7.532
 2589POPC   NC335387  21.938  27.148   9.654
 2589POPC   PO435388  22.329  26.735   9.585
 2589POPC   GL135389  22.288  26.958   9.185
 2589POPC   GL235390  21.937  26.913   9.150
 2589POPC   C1A35391  22.507  27.023   8.762
 2589POPC   D2A35392  22.442  26.800   8.365
 2589POPC   C3A35393  22.413  26.951   7.933
 2589POPC   C4A35394  22.312  26.642   7.608
 2589POPC   C1B35395  22.026  26.840   8.684
 2589POPC   C2B35396  21.960  26.938   8.223
 2589POPC   C3B35397  21.869  26.849   7.786
 2589POPC   C4B35398  21.537  26.750   7.454
 2590POPC   NC335399   1.671  40.321   9.460
 2590POPC   PO435400   2.273  39.926   9.507
 2590POPC   GL135401   2.035  40.048   9.166
 2590POPC   GL235402   2.060  40.400   9.143
 2590POPC   C1A35403   1.741  40.061   8.825
 2590POPC   D2A35404   1.643  39.771   8.480
 2590POPC   C3A35405   1.727  39.928   8.082
 2590POPC   C4A35406   1.767  39.749   7.685
 2590POPC   C1B35407   2.137  40.352   8.711
 2590POPC   C2B35408   2.159  40.058   8.380
 2590POPC   C3B35409   2.170  40.121   7.941
 2590POPC   C4B35410   2.335  40.291   7.581
 2591POPC   NC335411  19.206  14.830   9.514
 2591POPC   PO435412  19.327  15.405   9.363
 2591POPC   GL135413  19.181  15.043   9.069
 2591POPC   GL235414  18.830  14.949   9.121
 2591POPC   C1A35415  19.134  14.839   8.694
 2591POPC   D2A35416  19.071  15.129   8.380
 2591POPC   C3A35417  19.027  15.012   7.992
 2591POPC   C4A35418  19.357  15.040   7.684
 2591POPC   C1B35419  18.671  15.094   8.693
 2591POPC   C2B35420  18.592  15.174   8.219
 2591POPC   C3B35421  18.527  15.116   7.763
 2591POPC   C4B35422  18.592  15.141   7.288
 2592POPC   NC335423  14.088  14.261   9.871
 2592POPC   PO435424  14.698  14.221   9.472
 2592POPC   GL135425  14.521  14.142   9.097
 2592POPC   GL235426  14.280  14.416   9.114
 2592POPC   C1A35427  14.380  14.160   8.654
 2592POPC   D2A35428  14.448  13.996   8.248
 2592POPC   C3A35429  14.344  14.289   7.921
 2592POPC   C4A35430  14.440  14.298   7.479
 2592POPC   C1B35431  14.268  14.659   8.722
 2592POPC   C2B35432  14.168  14.605   8.308
 2592POPC   C3B35433  14.131  14.762   7.913
 2592POPC   C4B35434  14.224  14.760   7.445
 2593POPC   NC335435  34.449  18.063   9.526
 2593POPC   PO435436  34.626  17.396   9.576
 2593POPC   GL135437  34.420  17.415   9.201
 2593POPC   GL235438  34.376  17.773   9.111
 2593POPC   C1A35439  34.336  17.358   8.792
 2593POPC   D2A35440  34.376  17.684   8.495
 2593POPC   C3A35441  34.421  17.446   8.135
 2593POPC   C4A35442  34.220  17.430   7.758
 2593POPC   C1B35443  34.784  17.623   8.914
 2593POPC   C2B35444  34.819  17.396   8.542
 2593POPC   C3B35445  34.929  17.520   8.132
 2593POPC   C4B35446  34.706  17.623   7.729
 2594POPC   NC335447  18.705  41.198   9.992
 2594POPC   PO435448  19.168  41.562   9.696
 2594POPC   GL135449  19.360  41.684   9.292
 2594POPC   GL235450  19.468  41.385   9.124
 2594POPC   C1A35451  19.313  41.812   8.875
 2594POPC   D2A35452  19.374  41.748   8.442
 2594POPC   C3A35453  19.064  41.835   8.115
 2594POPC   C4A35454  18.931  41.731   7.683
 2594POPC   C1B35455  19.456  41.245   8.697
 2594POPC   C2B35456  19.566  41.316   8.252
 2594POPC   C3B35457  19.266  41.365   7.896
 2594POPC   C4B35458  19.339  41.123   7.497
 2595POPC   NC335459  19.971  32.979   9.528
 2595POPC   PO435460  19.671  33.486   9.138
 2595POPC   GL135461  20.087  33.199   9.062
 2595POPC   GL235462  20.083  32.841   9.050
 2595POPC   C1A35463  20.139  33.098   8.624
 2595POPC   D2A35464  19.815  33.252   8.405
 2595POPC   C3A35465  19.956  33.403   8.066
 2595POPC   C4A35466  19.635  33.199   7.809
 2595POPC   C1B35467  19.958  32.615   8.686
 2595POPC   C2B35468  19.848  32.657   8.285
 2595POPC   C3B35469  20.018  32.888   7.952
 2595POPC   C4B35470  20.142  32.705   7.550
 2596POPC   NC335471   3.583  24.115   9.433
 2596POPC   PO435472   3.231  24.649   9.509
 2596POPC   GL135473   3.329  24.465   9.120
 2596POPC   GL235474   3.219  24.102   9.094
 2596POPC   C1A35475   3.446  24.656   8.706
 2596POPC   D2A35476   3.678  24.572   8.330
 2596POPC   C3A35477   3.495  24.702   7.942
 2596POPC   C4A35478   3.377  24.575   7.520
 2596POPC   C1B35479   3.511  24.127   8.749
 2596POPC   C2B35480   3.720  24.057   8.352
 2596POPC   C3B35481   3.588  24.183   7.959
 2596POPC   C4B35482   3.329  24.045   7.620
 2597POPC   NC335483  38.623  16.272   9.742
 2597POPC   PO435484  38.116  15.853   9.543
 2597POPC   GL135485  38.274  15.940   9.182
 2597POPC   GL235486  38.636  15.934   9.237
 2597POPC   C1A35487  38.379  15.774   8.797
 2597POPC   D2A35488  38.427  16.000   8.441
 2597POPC   C3A35489  38.428  15.783   8.096
 2597POPC   C4A35490  38.352  15.958   7.731
 2597POPC   C1B35491  38.720  16.180   8.837
 2597POPC   C2B35492  38.912  16.184   8.440
 2597POPC   C3B35493  38.725  16.199   8.020
 2597POPC   C4B35494  38.681  16.286   7.550
 2598POPC   NC335495  30.335  19.418   9.349
 2598POPC   PO435496  30.871  18.962   9.584
 2598POPC   GL135497  30.682  18.957   9.178
 2598POPC   GL235498  30.992  18.965   9.063
 2598POPC   C1A35499  30.504  19.131   8.767
 2598POPC   D2A35500  30.265  19.104   8.400
 2598POPC   C3A35501  30.402  18.996   8.016
 2598POPC   C4A35502  30.488  18.812   7.587
 2598POPC   C1B35503  30.963  18.922   8.669
 2598POPC   C2B35504  30.897  19.054   8.290
 2598POPC   C3B35505  30.878  18.896   7.926
 2598POPC   C4B35506  30.932  19.097   7.535
 2599POPC   NC335507  23.858  33.566   9.483
 2599POPC   PO435508  23.894  34.278   9.489
 2599POPC   GL135509  23.833  34.019   9.158
 2599POPC   GL235510  23.543  33.861   9.195
 2599POPC   C1A35511  23.752  34.010   8.728
 2599POPC   D2A35512  24.008  34.044   8.383
 2599POPC   C3A35513  23.792  33.864   8.060
 2599POPC   C4A35514  23.773  33.932   7.641
 2599POPC   C1B35515  23.438  33.593   8.832
 2599POPC   C2B35516  23.321  33.633   8.377
 2599POPC   C3B35517  23.383  33.604   7.912
 2599POPC   C4B35518  23.399  33.615   7.465
 2600POPC   NC335519   4.261  36.945   9.716
 2600POPC   PO435520   4.659  36.626   9.297
 2600POPC   GL135521   4.537  36.925   9.052
 2600POPC   GL235522   4.185  36.940   9.138
 2600POPC   C1A35523   4.648  36.804   8.640
 2600POPC   D2A35524   4.412  36.928   8.317
 2600POPC   C3A35525   4.478  36.769   7.941
 2600POPC   C4A35526   4.524  36.993   7.589
 2600POPC   C1B35527   4.132  36.811   8.736
 2600POPC   C2B35528   3.956  36.669   8.342
 2600POPC   C3B35529   3.999  36.891   7.962
 2600POPC   C4B35530   4.030  36.862   7.533
 2601POPC   NC335531  40.897  44.476   9.498
 2601POPC   PO435532  40.424  44.939   9.551
 2601POPC   GL135533  40.678  44.845   9.178
 2601POPC   GL235534  40.650  44.488   9.059
 2601POPC   C1A35535  40.742  44.843   8.728
 2601POPC   D2A35536  40.801  44.537   8.407
 2601POPC   C3A35537  40.735  44.687   7.990
 2601POPC   C4A35538  40.875  44.719   7.568
 2601POPC   C1B35539  41.091  44.432   8.828
 2601POPC   C2B35540  41.301  44.448   8.387
 2601POPC   C3B35541  41.158  44.403   7.937
 2601POPC   C4B35542  41.014  44.024   7.662
 2602POPC   NC335543   1.432  30.053   9.503
 2602POPC   PO435544   1.054  29.580   9.704
 2602POPC   GL135545   1.252  29.684   9.214
 2602POPC   GL235546   1.075  30.023   9.121
 2602POPC   C1A35547   1.304  29.817   8.737
 2602POPC   D2A35548   1.452  29.679   8.332
 2602POPC   C3A35549   1.180  29.712   7.983
 2602POPC   C4A35550   1.284  29.769   7.598
 2602POPC   C1B35551   0.960  30.231   8.744
 2602POPC   C2B35552   1.026  30.075   8.310
 2602POPC   C3B35553   1.020  30.174   7.855
 2602POPC   C4B35554   0.926  30.076   7.433
 2603POPC   NC335555  25.124  15.353   9.535
 2603POPC   PO435556  24.983  14.722   9.404
 2603POPC   GL135557  25.118  15.018   9.077
 2603POPC   GL235558  25.309  15.328   9.071
 2603POPC   C1A35559  25.174  15.037   8.635
 2603POPC   D2A35560  25.516  15.030   8.349
 2603POPC   C3A35561  25.370  14.955   7.939
 2603POPC   C4A35562  25.009  15.158   7.770
 2603POPC   C1B35563  25.514  15.425   8.726
 2603POPC   C2B35564  25.294  15.499   8.371
 2603POPC   C3B35565  25.550  15.435   8.042
 2603POPC   C4B35566  25.355  15.514   7.706
 2604POPC   NC335567  32.349  13.693   9.680
 2604POPC   PO435568  32.178  13.096   9.670
 2604POPC   GL135569  32.156  13.362   9.229
 2604POPC   GL235570  32.048  13.696   9.155
 2604POPC   C1A35571  32.387  13.486   8.796
 2604POPC   D2A35572  32.417  13.804   8.432
 2604POPC   C3A35573  32.494  13.659   7.997
 2604POPC   C4A35574  32.325  13.733   7.625
 2604POPC   C1B35575  31.875  13.448   8.797
 2604POPC   C2B35576  32.015  13.446   8.396
 2604POPC   C3B35577  31.994  13.723   8.076
 2604POPC   C4B35578  31.861  13.590   7.698
 2605POPC   NC335579   7.349  30.289   9.710
 2605POPC   PO435580   7.075  29.958   9.167
 2605POPC   GL135581   7.475  30.046   8.990
 2605POPC   GL235582   7.471  30.324   9.111
 2605POPC   C1A35583   7.661  30.141   8.630
 2605POPC   D2A35584   7.745  29.961   8.263
 2605POPC   C3A35585   7.360  29.876   8.067
 2605POPC   C4A35586   7.343  29.822   7.673
 2605POPC   C1B35587   7.193  30.289   8.649
 2605POPC   C2B35588   7.366  30.355   8.233
 2605POPC   C3B35589   7.384  30.326   7.793
 2605POPC   C4B35590   7.104  30.281   7.425
 2606POPC   NC335591  32.590  34.015   9.576
 2606POPC   PO435592  32.146  33.485   9.444
 2606POPC   GL135593  32.132  33.816   9.117
 2606POPC   GL235594  32.320  34.143   9.140
 2606POPC   C1A35595  32.288  33.886   8.679
 2606POPC   D2A35596  32.484  34.030   8.299
 2606POPC   C3A35597  32.158  33.985   8.003
 2606POPC   C4A35598  31.931  33.684   7.802
 2606POPC   C1B35599  32.714  33.914   8.945
 2606POPC   C2B35600  32.864  33.768   8.512
 2606POPC   C3B35601  32.688  33.600   8.089
 2606POPC   C4B35602  32.455  33.673   7.700
 2607POPC   NC335603   1.059  37.937   9.690
 2607POPC   PO435604   1.578  37.607   9.584
 2607POPC   GL135605   1.605  37.801   9.160
 2607POPC   GL235606   1.272  37.980   9.126
 2607POPC   C1A35607   1.515  37.832   8.691
 2607POPC   D2A35608   1.413  37.672   8.261
 2607POPC   C3A35609   1.316  37.867   7.873
 2607POPC   C4A35610   1.274  37.706   7.435
 2607POPC   C1B35611   1.010  37.865   8.725
 2607POPC   C2B35612   0.898  37.742   8.262
 2607POPC   C3B35613   0.888  37.605   7.804
 2607POPC   C4B35614   0.733  37.656   7.366
 2608POPC   NC335615  10.286  27.468   9.489
 2608POPC   PO435616  10.918  27.812   9.409
 2608POPC   GL135617  10.636  27.602   9.122
 2608POPC   GL235618  10.321  27.772   9.088
 2608POPC   C1A35619  10.535  27.355   8.759
 2608POPC   D2A35620  10.329  27.288   8.353
 2608POPC   C3A35621  10.460  27.523   8.004
 2608POPC   C4A35622  10.664  27.375   7.631
 2608POPC   C1B35623  10.229  27.751   8.666
 2608POPC   C2B35624   9.980  27.640   8.324
 2608POPC   C3B35625   9.956  27.588   7.895
 2608POPC   C4B35626  10.233  27.700   7.581
 2609POPC   NC335627   8.872  32.043   9.653
 2609POPC   PO435628   8.673  32.622   9.811
 2609POPC   GL135629   8.775  32.481   9.349
 2609POPC   GL235630   9.112  32.335   9.308
 2609POPC   C1A35631   8.899  32.399   8.866
 2609POPC   D2A35632   8.701  32.287   8.490
 2609POPC   C3A35633   8.877  32.272   8.094
 2609POPC   C4A35634   8.734  32.220   7.690
 2609POPC   C1B35635   9.037  31.941   9.030
 2609POPC   C2B35636   9.087  31.875   8.602
 2609POPC   C3B35637   9.198  31.878   8.182
 2609POPC   C4B35638   9.170  31.958   7.770
 2610POPC   NC335639  28.132   4.799   9.419
 2610POPC   PO435640  28.487   4.271   9.541
 2610POPC   GL135641  28.363   4.346   9.140
 2610POPC   GL235642  28.501   4.646   9.114
 2610POPC   C1A35643  28.397   4.309   8.686
 2610POPC   D2A35644  28.653   4.365   8.312
 2610POPC   C3A35645  28.446   4.234   7.957
 2610POPC   C4A35646  28.730   3.943   7.761
 2610POPC   C1B35647  28.181   4.759   8.780
 2610POPC   C2B35648  28.299   4.728   8.366
 2610POPC   C3B35649  28.114   4.629   7.977
 2610POPC   C4B35650  28.087   4.894   7.659
 2611POPC   NC335651  42.765  25.306   9.259
 2611POPC   PO435652  43.350  25.401   9.328
 2611POPC   GL135653  43.236  25.005   9.082
 2611POPC   GL235654  42.886  24.859   9.058
 2611POPC   C1A35655  43.161  24.866   8.642
 2611POPC   D2A35656  43.080  24.961   8.225
 2611POPC   C3A35657  43.210  25.379   8.121
 2611POPC   C4A35658  43.454  25.456   7.772
 2611POPC   C1B35659  42.652  25.009   8.679
 2611POPC   C2B35660  42.707  25.349   8.382
 2611POPC   C3B35661  42.730  25.514   7.970
 2611POPC   C4B35662  42.968  25.238   7.689
 2612POPC   NC335663  10.570  11.459   9.504
 2612POPC   PO435664  10.032  11.834   9.568
 2612POPC   GL135665  10.217  11.467   9.164
 2612POPC   GL235666  10.521  11.107   9.157
 2612POPC   C1A35667  10.267  11.258   8.755
 2612POPC   D2A35668  10.089  11.308   8.380
 2612POPC   C3A35669  10.363  11.239   8.055
 2612POPC   C4A35670  10.507  11.609   7.854
 2612POPC   C1B35671  10.780  11.329   8.851
 2612POPC   C2B35672  10.710  11.449   8.435
 2612POPC   C3B35673  10.881  11.278   8.068
 2612POPC   C4B35674  10.934  11.390   7.673
 2613POPC   NC335675   9.568  31.346   9.476
 2613POPC   PO435676  10.008  31.860   9.569
 2613POPC   GL135677   9.845  31.693   9.188
 2613POPC   GL235678   9.902  31.340   9.083
 2613POPC   C1A35679   9.510  31.648   8.866
 2613POPC   D2A35680   9.524  31.473   8.428
 2613POPC   C3A35681   9.650  31.696   8.006
 2613POPC   C4A35682   9.530  31.674   7.550
 2613POPC   C1B35683  10.000  31.586   8.710
 2613POPC   C2B35684  10.029  31.493   8.297
 2613POPC   C3B35685   9.807  31.207   8.056
 2613POPC   C4B35686   9.900  31.342   7.675
 2614POPC   NC335687  14.411  15.465   9.483
 2614POPC   PO435688  14.534  16.105   9.487
 2614POPC   GL135689  14.166  15.959   9.204
 2614POPC   GL235690  14.162  15.650   9.060
 2614POPC   C1A35691  14.075  16.008   8.734
 2614POPC   D2A35692  14.288  16.002   8.337
 2614POPC   C3A35693  14.239  16.198   7.946
 2614POPC   C4A35694  14.090  15.878   7.721
 2614POPC   C1B35695  14.536  15.822   8.835
 2614POPC   C2B35696  14.771  15.924   8.434
 2614POPC   C3B35697  14.653  15.852   7.981
 2614POPC   C4B35698  14.659  15.524   7.638
 2615POPC   NC335699  19.666   7.133   9.539
 2615POPC   PO435700  19.909   7.737   9.428
 2615POPC   GL135701  19.878   7.481   9.080
 2615POPC   GL235702  19.693   7.156   9.044
 2615POPC   C1A35703  19.687   7.515   8.674
 2615POPC   D2A35704  19.577   7.677   8.259
 2615POPC   C3A35705  19.749   7.478   7.884
 2615POPC   C4A35706  19.748   7.585   7.441
 2615POPC   C1B35707  20.029   7.133   8.746
 2615POPC   C2B35708  19.971   7.239   8.316
 2615POPC   C3B35709  20.028   7.028   7.927
 2615POPC   C4B35710  19.939   7.124   7.508
 2616POPC   NC335711  34.086  13.511   9.505
 2616POPC   PO435712  33.510  13.861   9.410
 2616POPC   GL135713  33.833  13.693   9.100
 2616POPC   GL235714  33.585  13.566   8.976
 2616POPC   C1A35715  33.982  13.417   8.705
 2616POPC   D2A35716  34.216  13.352   8.268
 2616POPC   C3A35717  34.089  13.583   7.851
 2616POPC   C4A35718  33.946  13.489   7.421
 2616POPC   C1B35719  33.662  13.786   8.598
 2616POPC   C2B35720  33.712  13.584   8.184
 2616POPC   C3B35721  33.593  13.757   7.744
 2616POPC   C4B35722  33.609  13.894   7.257
 2617POPC   NC335723  40.083  26.550   9.324
 2617POPC   PO435724  39.930  25.879   9.487
 2617POPC   GL135725  39.975  26.083   9.133
 2617POPC   GL235726  40.325  26.140   9.170
 2617POPC   C1A35727  40.032  26.110   8.719
 2617POPC   D2A35728  40.080  25.867   8.407
 2617POPC   C3A35729  40.020  26.099   8.042
 2617POPC   C4A35730  40.050  25.887   7.694
 2617POPC   C1B35731  40.457  26.357   8.803
 2617POPC   C2B35732  40.492  26.164   8.420
 2617POPC   C3B35733  40.495  26.280   8.033
 2617POPC   C4B35734  40.341  26.393   7.663
 2618POPC   NC335735   7.241  20.340   9.588
 2618POPC   PO435736   7.792  20.765   9.686
 2618POPC   GL135737   7.633  20.621   9.264
 2618POPC   GL235738   7.715  20.253   9.218
 2618POPC   C1A35739   7.369  20.672   8.868
 2618POPC   D2A35740   7.520  20.685   8.434
 2618POPC   C3A35741   7.294  20.580   8.075
 2618POPC   C4A35742   7.316  20.703   7.667
 2618POPC   C1B35743   7.557  20.214   8.787
 2618POPC   C2B35744   7.558  20.164   8.325
 2618POPC   C3B35745   7.657  20.253   7.910
 2618POPC   C4B35746   7.807  20.227   7.516
 2619POPC   NC335747  17.405   1.411   9.599
 2619POPC   PO435748  17.900   0.926   9.489
 2619POPC   GL135749  17.497   1.134   9.177
 2619POPC   GL235750  17.167   1.401   9.170
 2619POPC   C1A35751  17.206   1.037   8.829
 2619POPC   D2A35752  17.337   1.228   8.446
 2619POPC   C3A35753  17.244   1.051   8.046
 2619POPC   C4A35754  17.430   1.257   7.683
 2619POPC   C1B35755  17.334   1.592   8.831
 2619POPC   C2B35756  17.264   1.755   8.461
 2619POPC   C3B35757  17.409   1.598   8.083
 2619POPC   C4B35758  17.384   1.784   7.720
 2620POPC   NC335759  18.713   4.946   9.461
 2620POPC   PO435760  19.228   5.387   9.534
 2620POPC   GL135761  19.144   5.239   9.107
 2620POPC   GL235762  18.838   5.434   9.070
 2620POPC   C1A35763  19.266   4.924   8.745
 2620POPC   D2A35764  19.187   4.701   8.341
 2620POPC   C3A35765  19.039   4.999   8.023
 2620POPC   C4A35766  18.985   5.319   7.701
 2620POPC   C1B35767  18.770   5.068   8.802
 2620POPC   C2B35768  18.703   4.846   8.447
 2620POPC   C3B35769  18.529   4.855   8.047
 2620POPC   C4B35770  18.706   4.899   7.648
 2621POPC   NC335771  13.768   2.460   9.807
 2621POPC   PO435772  13.234   2.720   9.480
 2621POPC   GL135773  13.577   2.753   9.225
 2621POPC   GL235774  13.793   2.466   9.196
 2621POPC   C1A35775  13.514   2.678   8.795
 2621POPC   D2A35776  13.359   2.846   8.430
 2621POPC   C3A35777  13.550   2.701   8.085
 2621POPC   C4A35778  13.372   2.678   7.719
 2621POPC   C1B35779  13.983   2.495   8.789
 2621POPC   C2B35780  13.848   2.376   8.371
 2621POPC   C3B35781  13.995   2.447   7.970
 2621POPC   C4B35782  13.874   2.684   7.638
 2622POPC   NC335783  40.125  39.884   9.579
 2622POPC   PO435784  39.545  39.795   9.449
 2622POPC   GL135785  39.772  40.115   9.176
 2622POPC   GL235786  40.099  40.292   9.262
 2622POPC   C1A35787  39.817  40.038   8.753
 2622POPC   D2A35788  39.619  39.993   8.371
 2622POPC   C3A35789  39.851  40.063   8.020
 2622POPC   C4A35790  39.975  39.778   7.709
 2622POPC   C1B35791  40.299  40.163   8.862
 2622POPC   C2B35792  40.201  40.056   8.408
 2622POPC   C3B35793  40.372  40.134   7.972
 2622POPC   C4B35794  40.214  40.201   7.560
 2623POPC   NC335795  10.957   0.920   9.825
 2623POPC   PO435796  11.400   1.395   9.535
 2623POPC   GL135797  11.277   1.238   9.181
 2623POPC   GL235798  11.608   1.252   9.032
 2623POPC   C1A35799  11.202   1.281   8.766
 2623POPC   D2A35800  11.452   1.145   8.433
 2623POPC   C3A35801  11.275   1.158   8.022
 2623POPC   C4A35802  11.025   0.890   7.723
 2623POPC   C1B35803  11.642   1.564   8.694
 2623POPC   C2B35804  11.614   1.585   8.265
 2623POPC   C3B35805  11.552   1.574   7.872
 2623POPC   C4B35806  11.655   1.720   7.514
 2624POPC   NC335807  12.143  11.035   9.307
 2624POPC   PO435808  11.733  11.576   9.477
 2624POPC   GL135809  11.871  11.427   9.099
 2624POPC   GL235810  11.704  11.075   9.065
 2624POPC   C1A35811  12.177  11.449   8.722
 2624POPC   D2A35812  12.330  11.176   8.346
 2624POPC   C3A35813  12.195  11.189   7.893
 2624POPC   C4A35814  11.887  10.969   7.562
 2624POPC   C1B35815  11.690  11.297   8.662
 2624POPC   C2B35816  11.886  11.472   8.294
 2624POPC   C3B35817  11.712  11.338   7.921
 2624POPC   C4B35818  11.907  11.472   7.540
 2625POPC   NC335819  34.691  40.200   9.487
 2625POPC   PO435820  34.327  39.651   9.229
 2625POPC   GL135821  34.672  39.860   9.034
 2625POPC   GL235822  34.865  40.200   9.015
 2625POPC   C1A35823  34.588  40.031   8.630
 2625POPC   D2A35824  34.640  40.204   8.239
 2625POPC   C3A35825  34.464  39.989   7.909
 2625POPC   C4A35826  34.258  40.330   7.755
 2625POPC   C1B35827  35.105  40.090   8.653
 2625POPC   C2B35828  35.119  40.069   8.236
 2625POPC   C3B35829  34.969  40.048   7.840
 2625POPC   C4B35830  35.109  39.946   7.410
 2626POPC   NC335831  19.106   0.832   9.791
 2626POPC   PO435832  19.405   0.406   9.389
 2626POPC   GL135833  19.027   0.422   9.181
 2626POPC   GL235834  18.872   0.756   9.210
 2626POPC   C1A35835  18.996   0.240   8.773
 2626POPC   D2A35836  19.292   0.301   8.428
 2626POPC   C3A35837  19.130   0.094   8.060
 2626POPC   C4A35838  18.998   0.342   7.730
 2626POPC   C1B35839  18.977   0.756   8.758
 2626POPC   C2B35840  19.276   0.919   8.433
 2626POPC   C3B35841  19.295   0.983   7.971
 2626POPC   C4B35842  18.940   0.838   7.675
 2627POPC   NC335843  38.019  32.379   9.361
 2627POPC   PO435844  38.392  31.885   9.398
 2627POPC   GL135845  38.384  32.173   9.067
 2627POPC   GL235846  38.552  32.461   9.206
 2627POPC   C1A35847  38.337  32.259   8.636
 2627POPC   D2A35848  38.547  32.141   8.275
 2627POPC   C3A35849  38.400  32.362   7.919
 2627POPC   C4A35850  38.122  32.254   7.600
 2627POPC   C1B35851  38.782  32.437   8.817
 2627POPC   C2B35852  38.752  32.578   8.376
 2627POPC   C3B35853  38.901  32.477   7.937
 2627POPC   C4B35854  38.732  32.370   7.484
 2628POPC   NC335855  37.318  18.506   9.420
 2628POPC   PO435856  37.817  18.046   9.527
 2628POPC   GL135857  37.737  18.087   9.111
 2628POPC   GL235858  37.505  18.340   8.980
 2628POPC   C1A35859  37.958  18.181   8.741
 2628POPC   D2A35860  37.733  18.431   8.458
 2628POPC   C3A35861  37.697  18.489   8.045
 2628POPC   C4A35862  37.799  18.369   7.635
 2628POPC   C1B35863  37.462  18.000   8.680
 2628POPC   C2B35864  37.302  17.941   8.264
 2628POPC   C3B35865  37.482  18.040   7.863
 2628POPC   C4B35866  37.408  18.167   7.422
 2629POPC   NC335867  25.876   8.298   9.396
 2629POPC   PO435868  26.424   8.554   9.450
 2629POPC   GL135869  26.274   8.306   9.059
 2629POPC   GL235870  26.075   7.982   9.048
 2629POPC   C1A35871  26.276   8.149   8.617
 2629POPC   D2A35872  26.023   8.224   8.259
 2629POPC   C3A35873  26.190   8.249   7.819
 2629POPC   C4A35874  26.264   8.344   7.352
 2629POPC   C1B35875  25.729   8.062   8.717
 2629POPC   C2B35876  25.490   8.174   8.318
 2629POPC   C3B35877  25.676   8.195   7.887
 2629POPC   C4B35878  25.785   8.106   7.471
 2630POPC   NC335879  35.976  17.149   9.537
 2630POPC   PO435880  36.464  17.771   9.686
 2630POPC   GL135881  36.165  17.823   9.201
 2630POPC   GL235882  35.878  17.547   9.175
 2630POPC   C1A35883  36.184  17.608   8.773
 2630POPC   D2A35884  35.996  17.711   8.372
 2630POPC   C3A35885  36.203  17.651   7.987
 2630POPC   C4A35886  35.850  17.624   7.683
 2630POPC   C1B35887  35.865  17.198   8.876
 2630POPC   C2B35888  35.870  17.030   8.473
 2630POPC   C3B35889  35.912  17.222   8.076
 2630POPC   C4B35890  36.173  17.222   7.721
 2631POPC   NC335891  29.662  40.867   9.516
 2631POPC   PO435892  30.168  40.452   9.429
 2631POPC   GL135893  29.892  40.590   9.114
 2631POPC   GL235894  29.988  40.932   9.129
 2631POPC   C1A35895  29.904  40.748   8.664
 2631POPC   D2A35896  29.959  40.609   8.247
 2631POPC   C3A35897  29.927  40.948   7.983
 2631POPC   C4A35898  29.691  40.982   7.612
 2631POPC   C1B35899  30.273  41.071   8.789
 2631POPC   C2B35900  30.316  40.937   8.350
 2631POPC   C3B35901  30.447  41.118   7.937
 2631POPC   C4B35902  30.474  41.306   7.518
 2632POPC   NC335903   9.085  33.016   9.570
 2632POPC   PO435904   8.408  33.128   9.473
 2632POPC   GL135905   8.811  33.185   9.139
 2632POPC   GL235906   8.972  32.859   9.052
 2632POPC   C1A35907   9.018  33.186   8.668
 2632POPC   D2A35908   9.048  32.888   8.298
 2632POPC   C3A35909   9.134  33.079   7.883
 2632POPC   C4A35910   8.986  33.433   7.626
 2632POPC   C1B35911   8.680  32.799   8.642
 2632POPC   C2B35912   8.512  32.687   8.216
 2632POPC   C3B35913   8.759  32.719   7.846
 2632POPC   C4B35914   9.082  32.660   7.571
 2633POPC   NC335915  29.198  15.969   9.598
 2633POPC   PO435916  29.205  15.331   9.570
 2633POPC   GL135917  29.259  15.682   9.197
 2633POPC   GL235918  28.996  15.983   9.140
 2633POPC   C1A35919  29.136  15.709   8.738
 2633POPC   D2A35920  28.866  16.003   8.462
 2633POPC   C3A35921  28.952  15.925   8.018
 2633POPC   C4A35922  29.346  15.817   7.792
 2633POPC   C1B35923  29.231  16.202   8.806
 2633POPC   C2B35924  29.376  16.128   8.373
 2633POPC   C3B35925  29.294  16.314   7.996
 2633POPC   C4B35926  28.957  16.522   7.823
 2634POPC   NC335927   3.477  41.982   9.445
 2634POPC   PO435928   3.394  42.588   9.466
 2634POPC   GL135929   3.603  42.383   9.107
 2634POPC   GL235930   3.692  42.040   9.007
 2634POPC   C1A35931   3.426  42.418   8.701
 2634POPC   D2A35932   3.274  42.290   8.305
 2634POPC   C3A35933   3.391  42.537   7.977
 2634POPC   C4A35934   3.846  42.636   7.917
 2634POPC   C1B35935   3.510  41.921   8.646
 2634POPC   C2B35936   3.701  42.004   8.294
 2634POPC   C3B35937   3.668  42.103   7.890
 2634POPC   C4B35938   3.761  41.918   7.466
 2635POPC   NC335939  10.782   9.972   9.483
 2635POPC   PO435940  10.258   9.456   9.462
 2635POPC   GL135941  10.469   9.708   9.167
 2635POPC   GL235942  10.365  10.030   9.079
 2635POPC   C1A35943  10.760   9.792   8.826
 2635POPC   D2A35944  10.916   9.672   8.418
 2635POPC   C3A35945  10.672   9.737   8.058
 2635POPC   C4A35946  10.793   9.828   7.609
 2635POPC   C1B35947  10.579  10.262   8.748
 2635POPC   C2B35948  10.842  10.232   8.376
 2635POPC   C3B35949  10.685  10.232   7.959
 2635POPC   C4B35950  10.335   9.962   7.754
 2636POPC   NC335951   2.948  42.497   9.558
 2636POPC   PO435952   2.336  42.753   9.411
 2636POPC   GL135953   2.665  42.475   9.134
 2636POPC   GL235954   3.068  42.374   9.087
 2636POPC   C1A35955   2.774  42.549   8.705
 2636POPC   D2A35956   2.520  42.589   8.337
 2636POPC   C3A35957   2.745  42.631   7.956
 2636POPC   C4A35958   2.625  42.526   7.515
 2636POPC   C1B35959   3.025  42.102   8.726
 2636POPC   C2B35960   2.795  42.157   8.333
 2636POPC   C3B35961   2.939  42.166   7.917
 2636POPC   C4B35962   3.023  42.136   7.489
 2637POPC   NC335963  35.922  19.362   9.503
 2637POPC   PO435964  36.068  20.090   9.491
 2637POPC   GL135965  36.179  19.935   9.101
 2637POPC   GL235966  36.155  19.595   9.109
 2637POPC   C1A35967  36.196  19.944   8.680
 2637POPC   D2A35968  36.216  20.145   8.313
 2637POPC   C3A35969  35.851  19.992   8.147
 2637POPC   C4A35970  35.743  19.624   7.897
 2637POPC   C1B35971  36.367  19.453   8.750
 2637POPC   C2B35972  36.451  19.579   8.339
 2637POPC   C3B35973  36.424  19.805   7.961
 2637POPC   C4B35974  36.236  20.194   7.797
 2638POPC   NC335975  41.929  12.322   9.560
 2638POPC   PO435976  41.368  12.052   9.597
 2638POPC   GL135977  41.389  12.160   9.167
 2638POPC   GL235978  41.713  12.020   9.164
 2638POPC   C1A35979  41.298  11.945   8.758
 2638POPC   D2A35980  41.181  12.079   8.343
 2638POPC   C3A35981  41.441  12.005   8.008
 2638POPC   C4A35982  41.420  12.238   7.670
 2638POPC   C1B35983  41.852  11.876   8.739
 2638POPC   C2B35984  41.952  12.016   8.309
 2638POPC   C3B35985  41.885  12.243   7.939
 2638POPC   C4B35986  41.816  11.907   7.643
 2639POPC   NC335987   1.106  20.052   9.598
 2639POPC   PO435988   1.643  19.935   9.441
 2639POPC   GL135989   1.345  19.776   9.147
 2639POPC   GL235990   0.989  19.656   9.274
 2639POPC   C1A35991   1.420  19.843   8.702
 2639POPC   D2A35992   1.652  19.844   8.306
 2639POPC   C3A35993   1.346  20.026   8.012
 2639POPC   C4A35994   1.171  19.813   7.706
 2639POPC   C1B35995   0.919  19.700   8.821
 2639POPC   C2B35996   0.973  19.849   8.393
 2639POPC   C3B35997   0.896  19.574   8.056
 2639POPC   C4B35998   0.702  19.589   7.631
 2640POPC   NC335999  22.537  26.345   9.657
 2640POPC   PO436000  22.589  25.705   9.836
 2640POPC   GL136001  22.776  25.983   9.393
 2640POPC   GL236002  23.156  26.077   9.278
 2640POPC   C1A36003  22.777  26.076   8.943
 2640POPC   D2A36004  22.911  26.125   8.515
 2640POPC   C3A36005  22.751  25.973   8.128
 2640POPC   C4A36006  22.767  26.030   7.681
 2640POPC   C1B36007  23.239  26.316   8.861
 2640POPC   C2B36008  23.346  26.359   8.406
 2640POPC   C3B36009  23.163  26.325   7.964
 2640POPC   C4B36010  23.273  26.403   7.502
 2641POPC   NC336011  17.578   3.770   9.709
 2641POPC   PO436012  17.829   3.229   9.541
 2641POPC   GL136013  17.859   3.458   9.154
 2641POPC   GL236014  17.537   3.587   9.076
 2641POPC   C1A36015  17.748   3.329   8.709
 2641POPC   D2A36016  17.599   3.628   8.389
 2641POPC   C3A36017  17.584   3.518   7.950
 2641POPC   C4A36018  17.243   3.618   7.681
 2641POPC   C1B36019  17.842   3.821   8.793
 2641POPC   C2B36020  18.018   3.905   8.378
 2641POPC   C3B36021  17.814   3.994   7.997
 2641POPC   C4B36022  17.970   3.956   7.599
 2642POPC   NC336023  40.820  42.932   9.490
 2642POPC   PO436024  40.359  43.354   9.751
 2642POPC   GL136025  40.705  43.365   9.290
 2642POPC   GL236026  40.982  43.547   9.129
 2642POPC   C1A36027  40.624  43.074   8.881
 2642POPC   D2A36028  40.281  43.079   8.544
 2642POPC   C3A36029  40.420  43.289   8.166
 2642POPC   C4A36030  40.632  43.217   7.789
 2642POPC   C1B36031  41.039  43.319   8.766
 2642POPC   C2B36032  40.968  43.429   8.356
 2642POPC   C3B36033  41.092  43.288   7.974
 2642POPC   C4B36034  41.072  42.883   7.765
 2643POPC   NC336035   8.605  10.868   9.191
 2643POPC   PO436036   9.114  11.314   9.451
 2643POPC   GL136037   8.964  11.295   9.028
 2643POPC   GL236038   8.825  11.626   8.862
 2643POPC   C1A36039   8.876  11.209   8.606
 2643POPC   D2A36040   8.861  10.923   8.298
 2643POPC   C3A36041   8.987  11.076   7.928
 2643POPC   C4A36042   8.698  11.305   7.715
 2643POPC   C1B36043   9.262  11.611   8.756
 2643POPC   C2B36044   9.133  11.611   8.373
 2643POPC   C3B36045   9.121  11.841   8.040
 2643POPC   C4B36046   9.169  11.536   7.702
 2644POPC   NC336047  20.374  43.142   9.422
 2644POPC   PO436048  21.002  42.983   9.702
 2644POPC   GL136049  20.885  43.083   9.260
 2644POPC   GL236050  20.681  42.823   9.156
 2644POPC   C1A36051  20.683  43.262   8.840
 2644POPC   D2A36052  20.302  43.278   8.570
 2644POPC   C3A36053  20.483  43.214   8.163
 2644POPC   C4A36054  20.898  43.376   7.991
 2644POPC   C1B36055  20.866  42.789   8.795
 2644POPC   C2B36056  20.881  43.029   8.421
 2644POPC   C3B36057  20.861  42.870   7.998
 2644POPC   C4B36058  21.042  43.020   7.604
 2645POPC   NC336059   9.878  43.443   9.472
 2645POPC   PO436060   9.614  42.796   9.400
 2645POPC   GL136061   9.663  43.114   9.117
 2645POPC   GL236062   9.999  43.123   9.048
 2645POPC   C1A36063   9.591  42.980   8.729
 2645POPC   D2A36064   9.899  42.848   8.461
 2645POPC   C3A36065   9.770  42.864   8.055
 2645POPC   C4A36066   9.670  43.006   7.651
 2645POPC   C1B36067   9.836  43.438   8.754
 2645POPC   C2B36068   9.699  43.321   8.353
 2645POPC   C3B36069   9.896  43.360   7.977
 2645POPC   C4B36070   9.799  43.502   7.593
 2646POPC   NC336071  24.504  16.517   9.449
 2646POPC   PO436072  23.942  16.810   9.372
 2646POPC   GL136073  24.225  16.801   8.998
 2646POPC   GL236074  24.564  16.667   8.982
 2646POPC   C1A36075  24.326  16.715   8.541
 2646POPC   D2A36076  24.166  16.523   8.166
 2646POPC   C3A36077  24.211  16.842   7.861
 2646POPC   C4A36078  24.536  17.177   7.842
 2646POPC   C1B36079  24.777  16.469   8.648
 2646POPC   C2B36080  24.765  16.565   8.222
 2646POPC   C3B36081  24.634  16.583   7.804
 2646POPC   C4B36082  24.780  16.677   7.363
 2647POPC   NC336083  38.976  20.396   9.522
 2647POPC   PO436084  39.428  20.932   9.526
 2647POPC   GL136085  39.118  20.814   9.262
 2647POPC   GL236086  39.289  20.510   9.141
 2647POPC   C1A36087  39.070  20.868   8.838
 2647POPC   D2A36088  39.307  21.067   8.513
 2647POPC   C3A36089  39.232  20.815   8.184
 2647POPC   C4A36090  39.077  20.892   7.803
 2647POPC   C1B36091  39.071  20.362   8.761
 2647POPC   C2B36092  39.128  20.323   8.306
 2647POPC   C3B36093  39.185  20.388   7.866
 2647POPC   C4B36094  39.464  20.319   7.503
 2648POPC   NC336095  21.173  18.374   9.645
 2648POPC   PO436096  21.854  18.590   9.554
 2648POPC   GL136097  21.604  18.330   9.268
 2648POPC   GL236098  21.282  18.403   9.144
 2648POPC   C1A36099  21.689  18.269   8.817
 2648POPC   D2A36100  21.703  18.506   8.411
 2648POPC   C3A36101  21.790  18.320   8.017
 2648POPC   C4A36102  21.497  18.215   7.698
 2648POPC   C1B36103  21.204  18.218   8.707
 2648POPC   C2B36104  21.381  18.064   8.292
 2648POPC   C3B36105  21.099  18.018   7.918
 2648POPC   C4B36106  20.976  18.402   7.652
 2649POPC   NC336107   1.245  42.067   9.664
 2649POPC   PO436108   1.158  41.433   9.490
 2649POPC   GL136109   1.300  41.538   9.127
 2649POPC   GL236110   1.526  41.826   9.279
 2649POPC   C1A36111   1.427  41.323   8.719
 2649POPC   D2A36112   1.495  41.391   8.249
 2649POPC   C3A36113   1.320  41.391   7.803
 2649POPC   C4A36114   1.002  41.722   7.610
 2649POPC   C1B36115   1.592  41.801   8.835
 2649POPC   C2B36116   1.283  41.816   8.500
 2649POPC   C3B36117   1.219  41.831   8.069
 2649POPC   C4B36118   1.475  41.864   7.705
 2650POPC   NC336119   0.578  43.319   9.504
 2650POPC   PO436120   0.309  42.716   9.343
 2650POPC   GL136121   0.458  43.051   9.096
 2650POPC   GL236122   0.232  43.313   9.128
 2650POPC   C1A36123   0.610  43.157   8.694
 2650POPC   D2A36124   0.725  42.932   8.341
 2650POPC   C3A36125   0.513  43.056   7.984
 2650POPC   C4A36126   0.703  42.994   7.594
 2650POPC   C1B36127   0.234  43.486   8.760
 2650POPC   C2B36128   0.198  43.326   8.366
 2650POPC   C3B36129   0.126  43.478   7.994
 2650POPC   C4B36130   0.119  43.632   7.579
 2651POPC   NC336131  21.886   6.367   9.487
 2651POPC   PO436132  22.379   6.835   9.527
 2651POPC   GL136133  22.296   6.712   9.108
 2651POPC   GL236134  21.950   6.710   9.101
 2651POPC   C1A36135  22.214   6.667   8.633
 2651POPC   D2A36136  22.464   6.469   8.293
 2651POPC   C3A36137  22.360   6.501   7.843
 2651POPC   C4A36138  22.390   6.738   7.428
 2651POPC   C1B36139  21.759   6.409   8.827
 2651POPC   C2B36140  21.975   6.205   8.546
 2651POPC   C3B36141  21.876   6.495   8.240
 2651POPC   C4B36142  21.853   6.512   7.803
 2652POPC   NC336143  42.800   6.141   9.330
 2652POPC   PO436144  43.347   6.554   9.536
 2652POPC   GL136145  43.302   6.717   9.156
 2652POPC   GL236146  42.979   6.590   9.054
 2652POPC   C1A36147  43.338   6.742   8.739
 2652POPC   D2A36148  43.066   6.649   8.434
 2652POPC   C3A36149  43.249   6.579   8.082
 2652POPC   C4A36150  43.125   6.730   7.735
 2652POPC   C1B36151  42.970   6.246   8.710
 2652POPC   C2B36152  42.984   6.126   8.249
 2652POPC   C3B36153  42.967   6.242   7.782
 2652POPC   C4B36154  42.775   6.505   7.409
 2653POPC   NC336155  19.133  13.127   9.507
 2653POPC   PO436156  18.821  12.458   9.516
 2653POPC   GL136157  19.072  12.692   9.175
 2653POPC   GL236158  18.953  13.018   8.993
 2653POPC   C1A36159  19.393  12.851   8.859
 2653POPC   D2A36160  19.317  13.117   8.498
 2653POPC   C3A36161  19.230  12.844   8.140
 2653POPC   C4A36162  19.301  12.962   7.715
 2653POPC   C1B36163  18.965  12.758   8.605
 2653POPC   C2B36164  18.731  12.747   8.233
 2653POPC   C3B36165  18.803  13.004   7.895
 2653POPC   C4B36166  18.859  12.930   7.476
 2654POPC   NC336167  31.497  36.744   9.594
 2654POPC   PO436168  31.520  36.043   9.500
 2654POPC   GL136169  31.556  36.139   9.115
 2654POPC   GL236170  31.784  36.448   9.065
 2654POPC   C1A36171  31.235  36.071   8.761
 2654POPC   D2A36172  31.221  36.283   8.379
 2654POPC   C3A36173  31.257  36.027   7.980
 2654POPC   C4A36174  31.263  36.166   7.561
 2654POPC   C1B36175  31.694  36.244   8.649
 2654POPC   C2B36176  31.683  36.147   8.222
 2654POPC   C3B36177  31.733  36.162   7.797
 2654POPC   C4B36178  31.841  36.278   7.375
 2655POPC   NC336179  33.339  10.336   9.479
 2655POPC   PO436180  32.904  10.827   9.451
 2655POPC   GL136181  32.982  10.501   9.144
 2655POPC   GL236182  33.332  10.568   9.029
 2655POPC   C1A36183  32.956  10.338   8.728
 2655POPC   D2A36184  32.800  10.189   8.324
 2655POPC   C3A36185  32.905  10.478   8.022
 2655POPC   C4A36186  32.889  10.493   7.609
 2655POPC   C1B36187  33.447  10.184   8.777
 2655POPC   C2B36188  33.326  10.158   8.324
 2655POPC   C3B36189  33.299  10.186   7.850
 2655POPC   C4B36190  33.164  10.132   7.405
 2656POPC   NC336191  17.615  34.932   9.379
 2656POPC   PO436192  17.348  35.584   9.509
 2656POPC   GL136193  17.584  35.404   9.159
 2656POPC   GL236194  17.257  35.321   9.041
 2656POPC   C1A36195  17.797  35.337   8.743
 2656POPC   D2A36196  17.650  35.179   8.334
 2656POPC   C3A36197  17.587  35.347   7.897
 2656POPC   C4A36198  17.469  35.362   7.432
 2656POPC   C1B36199  17.329  35.504   8.625
 2656POPC   C2B36200  17.244  35.588   8.189
 2656POPC   C3B36201  17.268  35.747   7.757
 2656POPC   C4B36202  17.338  35.855   7.320
 2657POPC   NC336203  32.815  40.939   9.480
 2657POPC   PO436204  33.245  40.458   9.660
 2657POPC   GL136205  33.080  40.585   9.212
 2657POPC   GL236206  32.808  40.740   9.023
 2657POPC   C1A36207  33.242  40.717   8.783
 2657POPC   D2A36208  33.127  40.956   8.428
 2657POPC   C3A36209  33.329  41.053   8.064
 2657POPC   C4A36210  33.127  40.987   7.673
 2657POPC   C1B36211  32.835  40.385   8.756
 2657POPC   C2B36212  32.969  40.412   8.329
 2657POPC   C3B36213  32.885  40.712   8.019
 2657POPC   C4B36214  32.649  41.079   8.092
 2658POPC   NC336215  37.601  37.296   9.471
 2658POPC   PO436216  37.739  36.617   9.516
 2658POPC   GL136217  37.715  36.845   9.112
 2658POPC   GL236218  37.417  37.066   9.045
 2658POPC   C1A36219  37.764  36.624   8.702
 2658POPC   D2A36220  37.538  36.502   8.317
 2658POPC   C3A36221  37.829  36.602   7.967
 2658POPC   C4A36222  37.823  36.931   7.655
 2658POPC   C1B36223  37.393  36.982   8.600
 2658POPC   C2B36224  37.523  36.995   8.155
 2658POPC   C3B36225  37.376  36.766   7.770
 2658POPC   C4B36226  37.330  37.041   7.356
 2659POPC   NC336227  33.144  30.446   9.493
 2659POPC   PO436228  32.920  31.120   9.497
 2659POPC   GL136229  32.905  30.808   9.174
 2659POPC   GL236230  33.253  30.682   9.070
 2659POPC   C1A36231  32.951  30.910   8.733
 2659POPC   D2A36232  33.234  30.739   8.453
 2659POPC   C3A36233  33.080  30.788   8.096
 2659POPC   C4A36234  32.905  30.935   7.748
 2659POPC   C1B36235  33.074  30.394   8.781
 2659POPC   C2B36236  33.104  30.243   8.333
 2659POPC   C3B36237  33.113  30.342   7.872
 2659POPC   C4B36238  33.021  30.410   7.425
 2660POPC   NC336239  30.726  11.648   9.535
 2660POPC   PO436240  30.441  11.046   9.709
 2660POPC   GL136241  30.550  11.168   9.288
 2660POPC   GL236242  30.404  10.818   9.231
 2660POPC   C1A36243  30.751  11.395   8.910
 2660POPC   D2A36244  30.701  11.573   8.474
 2660POPC   C3A36245  30.764  11.379   8.070
 2660POPC   C4A36246  30.640  11.495   7.663
 2660POPC   C1B36247  30.440  10.988   8.817
 2660POPC   C2B36248  30.606  11.036   8.418
 2660POPC   C3B36249  30.353  11.060   8.027
 2660POPC   C4B36250  30.237  11.152   7.609
 2661POPC   NC336251  20.082  43.791   9.447
 2661POPC   PO436252  19.454  44.088   9.337
 2661POPC   GL136253  19.630  43.662   9.153
 2661POPC   GL236254  19.872  43.863   8.978
 2661POPC   C1A36255  19.820  43.433   8.752
 2661POPC   D2A36256  19.891  43.795   8.462
 2661POPC   C3A36257  20.008  43.828   8.067
 2661POPC   C4A36258  19.717  43.707   7.787
 2661POPC   C1B36259  19.600  44.152   8.692
 2661POPC   C2B36260  19.717  44.319   8.271
 2661POPC   C3B36261  19.774  44.221   7.834
 2661POPC   C4B36262  20.000  44.347   7.470
 2662POPC   NC336263  44.361  18.053   9.484
 2662POPC   PO436264  44.880  18.408   9.409
 2662POPC   GL136265  44.794  18.362   9.014
 2662POPC   GL236266  44.903  18.661   8.877
 2662POPC   C1A36267  44.920  18.149   8.648
 2662POPC   D2A36268   0.193  18.054   8.272
 2662POPC   C3A36269  44.970  18.146   7.873
 2662POPC   C4A36270  44.714  17.937   7.561
 2662POPC   C1B36271  44.548  18.547   8.599
 2662POPC   C2B36272  44.415  18.264   8.267
 2662POPC   C3B36273  44.469  18.336   7.829
 2662POPC   C4B36274  44.681  18.447   7.452
 2663POPC   NC336275   9.299  18.918   9.595
 2663POPC   PO436276   8.634  19.118   9.527
 2663POPC   GL136277   8.836  19.254   9.166
 2663POPC   GL236278   9.223  19.286   9.234
 2663POPC   C1A36279   8.692  19.160   8.740
 2663POPC   D2A36280   8.773  18.881   8.406
 2663POPC   C3A36281   8.588  18.875   8.049
 2663POPC   C4A36282   8.792  19.094   7.702
 2663POPC   C1B36283   9.151  18.989   8.876
 2663POPC   C2B36284   9.278  18.861   8.469
 2663POPC   C3B36285   9.216  19.013   8.076
 2663POPC   C4B36286   9.268  18.825   7.663
 2664POPC   NC336287   5.782  10.247   9.447
 2664POPC   PO436288   5.918   9.597   9.671
 2664POPC   GL136289   5.887   9.791   9.242
 2664POPC   GL236290   6.171   9.974   9.093
 2664POPC   C1A36291   5.682   9.947   8.845
 2664POPC   D2A36292   5.676   9.744   8.413
 2664POPC   C3A36293   5.732   9.805   7.971
 2664POPC   C4A36294   5.646   9.426   7.735
 2664POPC   C1B36295   6.085   9.657   8.738
 2664POPC   C2B36296   6.273   9.528   8.355
 2664POPC   C3B36297   6.126   9.428   7.959
 2664POPC   C4B36298   6.114   9.653   7.625
 2665POPC   NC336299  21.110  24.138   9.261
 2665POPC   PO436300  21.548  24.430   9.701
 2665POPC   GL136301  21.506  24.457   9.199
 2665POPC   GL236302  21.656  24.159   9.053
 2665POPC   C1A36303  21.286  24.521   8.736
 2665POPC   D2A36304  21.164  24.247   8.328
 2665POPC   C3A36305  21.259  24.407   7.866
 2665POPC   C4A36306  21.183  24.781   7.607
 2665POPC   C1B36307  21.694  24.253   8.641
 2665POPC   C2B36308  21.635  24.433   8.240
 2665POPC   C3B36309  21.759  24.220   7.862
 2665POPC   C4B36310  21.738  24.174   7.416
 2666POPC   NC336311  14.655  20.828   9.263
 2666POPC   PO436312  15.315  20.648   9.399
 2666POPC   GL136313  15.152  20.788   9.031
 2666POPC   GL236314  15.018  20.493   8.997
 2666POPC   C1A36315  15.229  20.723   8.585
 2666POPC   D2A36316  15.369  20.875   8.211
 2666POPC   C3A36317  15.384  20.654   7.839
 2666POPC   C4A36318  15.485  20.477   7.411
 2666POPC   C1B36319  14.884  20.356   8.617
 2666POPC   C2B36320  14.800  20.590   8.274
 2666POPC   C3B36321  14.867  20.762   7.905
 2666POPC   C4B36322  14.989  20.534   7.542
 2667POPC   NC336323   9.271  13.841   9.358
 2667POPC   PO436324   8.606  13.893   9.466
 2667POPC   GL136325   8.678  13.628   9.106
 2667POPC   GL236326   8.885  13.892   9.019
 2667POPC   C1A36327   8.978  13.464   8.759
 2667POPC   D2A36328   9.191  13.323   8.369
 2667POPC   C3A36329   9.009  13.534   8.011
 2667POPC   C4A36330   8.663  13.421   7.739
 2667POPC   C1B36331   8.995  14.096   8.662
 2667POPC   C2B36332   8.871  14.064   8.241
 2667POPC   C3B36333   9.086  14.027   7.884
 2667POPC   C4B36334   8.891  13.833   7.543
 2668POPC   NC336335   1.273  26.884   9.425
 2668POPC   PO436336   1.029  26.243   9.541
 2668POPC   GL136337   1.154  26.472   9.132
 2668POPC   GL236338   1.008  26.800   9.010
 2668POPC   C1A36339   1.385  26.620   8.737
 2668POPC   D2A36340   1.317  26.506   8.334
 2668POPC   C3A36341   1.587  26.522   8.026
 2668POPC   C4A36342   1.493  26.591   7.633
 2668POPC   C1B36343   1.184  27.105   8.747
 2668POPC   C2B36344   1.408  27.082   8.376
 2668POPC   C3B36345   1.256  26.948   8.006
 2668POPC   C4B36346   0.934  27.225   7.803
 2669POPC   NC336347   9.769   9.323   9.485
 2669POPC   PO436348  10.118   8.819   9.697
 2669POPC   GL136349   9.949   8.869   9.271
 2669POPC   GL236350  10.107   9.150   9.084
 2669POPC   C1A36351   9.628   8.894   8.913
 2669POPC   D2A36352   9.512   8.859   8.456
 2669POPC   C3A36353   9.695   8.653   8.096
 2669POPC   C4A36354   9.897   8.753   7.716
 2669POPC   C1B36355   9.854   9.373   8.770
 2669POPC   C2B36356   9.864   9.562   8.367
 2669POPC   C3B36357   9.801   9.200   8.123
 2669POPC   C4B36358   9.805   9.272   7.728
 2670POPC   NC336359  21.989  19.717   9.670
 2670POPC   PO436360  22.411  20.066   9.434
 2670POPC   GL136361  22.123  20.033   9.138
 2670POPC   GL236362  22.123  19.698   9.124
 2670POPC   C1A36363  22.196  20.009   8.704
 2670POPC   D2A36364  22.458  20.003   8.358
 2670POPC   C3A36365  22.150  20.085   8.057
 2670POPC   C4A36366  21.984  19.849   7.746
 2670POPC   C1B36367  22.112  19.509   8.692
 2670POPC   C2B36368  21.969  19.639   8.295
 2670POPC   C3B36369  21.937  19.372   7.920
 2670POPC   C4B36370  22.181  19.425   7.524
 2671POPC   NC336371   8.508  31.608   9.393
 2671POPC   PO436372   9.113  31.446   9.509
 2671POPC   GL136373   8.973  31.442   9.124
 2671POPC   GL236374   8.704  31.252   9.053
 2671POPC   C1A36375   9.111  31.352   8.726
 2671POPC   D2A36376   8.999  31.434   8.326
 2671POPC   C3A36377   9.271  31.364   8.003
 2671POPC   C4A36378   9.040  31.401   7.698
 2671POPC   C1B36379   8.644  31.594   8.748
 2671POPC   C2B36380   8.620  31.799   8.354
 2671POPC   C3B36381   8.718  31.749   7.923
 2671POPC   C4B36382   8.605  31.602   7.508
 2672POPC   NC336383  37.066   5.790   9.490
 2672POPC   PO436384  36.457   5.589   9.603
 2672POPC   GL136385  36.670   5.956   9.243
 2672POPC   GL236386  36.999   6.109   9.105
 2672POPC   C1A36387  36.683   5.869   8.794
 2672POPC   D2A36388  36.582   5.632   8.448
 2672POPC   C3A36389  36.811   5.764   8.099
 2672POPC   C4A36390  36.641   5.913   7.715
 2672POPC   C1B36391  37.239   5.819   8.847
 2672POPC   C2B36392  37.304   5.590   8.484
 2672POPC   C3B36393  37.345   5.656   8.061
 2672POPC   C4B36394  37.146   5.741   7.690
 2673POPC   NC336395  15.540   2.802   9.611
 2673POPC   PO436396  14.937   2.636   9.510
 2673POPC   GL136397  15.301   2.714   9.164
 2673POPC   GL236398  15.475   3.064   9.178
 2673POPC   C1A36399  15.524   2.788   8.744
 2673POPC   D2A36400  15.282   2.758   8.353
 2673POPC   C3A36401  15.435   2.679   7.927
 2673POPC   C4A36402  15.258   2.673   7.494
 2673POPC   C1B36403  15.152   3.109   8.853
 2673POPC   C2B36404  15.234   3.277   8.439
 2673POPC   C3B36405  15.339   3.184   8.023
 2673POPC   C4B36406  15.514   3.098   7.639
 2674POPC   NC336407  20.107  21.220   9.451
 2674POPC   PO436408  19.681  21.670   9.563
 2674POPC   GL136409  19.771  21.484   9.167
 2674POPC   GL236410  20.098  21.650   9.161
 2674POPC   C1A36411  19.574  21.492   8.763
 2674POPC   D2A36412  19.767  21.394   8.366
 2674POPC   C3A36413  19.514  21.261   8.005
 2674POPC   C4A36414  19.663  21.526   7.735
 2674POPC   C1B36415  20.139  21.423   8.765
 2674POPC   C2B36416  20.197  21.080   8.463
 2674POPC   C3B36417  20.039  21.095   8.035
 2674POPC   C4B36418  20.122  21.311   7.654
 2675POPC   NC336419  44.317  30.586   9.524
 2675POPC   PO436420  44.975  30.792   9.515
 2675POPC   GL136421  44.670  30.821   9.204
 2675POPC   GL236422  44.581  30.485   9.090
 2675POPC   C1A36423  44.542  30.861   8.761
 2675POPC   D2A36424  44.652  30.608   8.416
 2675POPC   C3A36425  44.818  30.864   8.088
 2675POPC   C4A36426  44.647  30.954   7.692
 2675POPC   C1B36427  44.959  30.544   8.853
 2675POPC   C2B36428   0.163  30.701   8.496
 2675POPC   C3B36429   0.200  30.464   8.141
 2675POPC   C4B36430   0.040  30.468   7.766
 2676POPC   NC336431  27.636  17.877   9.425
 2676POPC   PO436432  27.491  17.106   9.322
 2676POPC   GL136433  27.482  17.482   9.086
 2676POPC   GL236434  27.828  17.600   9.042
 2676POPC   C1A36435  27.531  17.579   8.629
 2676POPC   D2A36436  27.378  17.604   8.213
 2676POPC   C3A36437  27.558  17.240   8.002
 2676POPC   C4A36438  27.499  16.950   7.641
 2676POPC   C1B36439  28.039  17.736   8.664
 2676POPC   C2B36440  27.871  17.849   8.256
 2676POPC   C3B36441  27.689  17.722   7.828
 2676POPC   C4B36442  27.853  17.761   7.409
 2677POPC   NC336443   5.381  11.514   9.837
 2677POPC   PO436444   5.969  11.345   9.602
 2677POPC   GL136445   5.865  11.184   9.179
 2677POPC   GL236446   6.176  11.113   9.082
 2677POPC   C1A36447   5.738  11.226   8.728
 2677POPC   D2A36448   5.527  10.988   8.370
 2677POPC   C3A36449   5.781  11.021   8.015
 2677POPC   C4A36450   5.739  11.387   7.773
 2677POPC   C1B36451   6.257  11.311   8.701
 2677POPC   C2B36452   6.109  11.295   8.289
 2677POPC   C3B36453   6.245  11.378   7.866
 2677POPC   C4B36454   6.523  11.683   7.734
 2678POPC   NC336455  36.908  12.517   9.512
 2678POPC   PO436456  36.904  11.877   9.508
 2678POPC   GL136457  36.906  12.121   9.161
 2678POPC   GL236458  37.256  12.241   9.172
 2678POPC   C1A36459  36.676  12.177   8.768
 2678POPC   D2A36460  36.533  12.034   8.404
 2678POPC   C3A36461  36.575  12.327   8.108
 2678POPC   C4A36462  36.759  12.155   7.752
 2678POPC   C1B36463  37.169  12.062   8.731
 2678POPC   C2B36464  37.046  12.215   8.318
 2678POPC   C3B36465  37.215  12.279   7.911
 2678POPC   C4B36466  37.180  12.404   7.463
 2679POPC   NC336467  33.140   2.392   9.399
 2679POPC   PO436468  32.605   2.798   9.468
 2679POPC   GL136469  32.893   2.923   9.105
 2679POPC   GL236470  33.187   3.173   9.088
 2679POPC   C1A36471  33.033   2.757   8.751
 2679POPC   D2A36472  32.819   2.622   8.389
 2679POPC   C3A36473  33.049   2.407   8.063
 2679POPC   C4A36474  33.283   2.462   7.681
 2679POPC   C1B36475  33.323   3.184   8.670
 2679POPC   C2B36476  33.091   3.057   8.318
 2679POPC   C3B36477  33.215   2.913   7.946
 2679POPC   C4B36478  33.030   2.884   7.564
 2680POPC   NC336479  12.454  24.030   9.491
 2680POPC   PO436480  12.058  23.419   9.524
 2680POPC   GL136481  12.133  23.441   9.138
 2680POPC   GL236482  12.405  23.650   9.182
 2680POPC   C1A36483  12.041  23.746   8.828
 2680POPC   D2A36484  11.848  23.874   8.464
 2680POPC   C3A36485  12.024  23.658   8.133
 2680POPC   C4A36486  12.028  23.572   7.746
 2680POPC   C1B36487  12.537  23.928   8.854
 2680POPC   C2B36488  12.314  24.080   8.511
 2680POPC   C3B36489  12.328  24.058   8.081
 2680POPC   C4B36490  12.437  23.863   7.700
 2681POPC   NC336491   8.018  35.233   9.542
 2681POPC   PO436492   8.662  35.061   9.509
 2681POPC   GL136493   8.380  35.341   9.179
 2681POPC   GL236494   8.012  35.475   9.116
 2681POPC   C1A36495   8.341  35.303   8.750
 2681POPC   D2A36496   8.428  35.344   8.327
 2681POPC   C3A36497   8.164  35.068   8.105
 2681POPC   C4A36498   8.078  35.126   7.689
 2681POPC   C1B36499   7.997  35.676   8.736
 2681POPC   C2B36500   7.924  35.548   8.335
 2681POPC   C3B36501   8.122  35.586   7.957
 2681POPC   C4B36502   8.005  35.600   7.562
 2682POPC   NC336503  39.869  29.070   9.577
 2682POPC   PO436504  40.533  29.181   9.731
 2682POPC   GL136505  40.312  29.034   9.295
 2682POPC   GL236506  40.027  29.234   9.128
 2682POPC   C1A36507  40.223  28.903   8.802
 2682POPC   D2A36508  39.965  29.119   8.456
 2682POPC   C3A36509  39.762  29.092   8.031
 2682POPC   C4A36510  39.711  29.382   7.677
 2682POPC   C1B36511  40.296  29.407   8.820
 2682POPC   C2B36512  40.391  29.421   8.389
 2682POPC   C3B36513  40.215  29.338   7.999
 2682POPC   C4B36514  40.113  29.058   7.649
 2683POPC   NC336515  41.857  44.463   9.420
 2683POPC   PO436516  41.287  44.756   9.479
 2683POPC   GL136517  41.412  44.782   9.076
 2683POPC   GL236518  41.167   0.055   9.048
 2683POPC   C1A36519  41.751  44.731   8.766
 2683POPC   D2A36520  41.877  44.473   8.379
 2683POPC   C3A36521  41.665  44.563   8.014
 2683POPC   C4A36522  41.684  44.531   7.587
 2683POPC   C1B36523  41.241  44.899   8.614
 2683POPC   C2B36524  41.336  44.953   8.182
 2683POPC   C3B36525  41.342  44.862   7.745
 2683POPC   C4B36526  41.372  44.814   7.268
 2684POPC   NC336527  34.014   4.984   9.509
 2684POPC   PO436528  33.346   4.875   9.489
 2684POPC   GL136529  33.609   5.199   9.221
 2684POPC   GL236530  33.974   5.118   9.025
 2684POPC   C1A36531  33.651   5.431   8.827
 2684POPC   D2A36532  33.964   5.287   8.505
 2684POPC   C3A36533  33.872   4.990   8.204
 2684POPC   C4A36534  33.846   5.071   7.783
 2684POPC   C1B36535  34.155   4.821   8.680
 2684POPC   C2B36536  34.154   4.556   8.300
 2684POPC   C3B36537  34.166   4.707   7.865
 2684POPC   C4B36538  34.069   4.772   7.398
 2685POPC   NC336539  10.645   8.234   9.552
 2685POPC   PO436540  10.434   7.760   9.115
 2685POPC   GL136541  10.332   8.196   9.072
 2685POPC   GL236542  10.545   8.495   9.140
 2685POPC   C1A36543  10.377   8.291   8.657
 2685POPC   D2A36544  10.573   7.999   8.352
 2685POPC   C3A36545  10.377   8.014   7.952
 2685POPC   C4A36546  10.441   8.422   7.788
 2685POPC   C1B36547  10.845   8.467   8.792
 2685POPC   C2B36548  10.715   8.541   8.364
 2685POPC   C3B36549  10.857   8.666   7.996
 2685POPC   C4B36550  11.036   8.508   7.610
 2686POPC   NC336551  27.361  22.516   9.612
 2686POPC   PO436552  27.831  22.088   9.672
 2686POPC   GL136553  27.535  22.081   9.312
 2686POPC   GL236554  27.558  21.774   9.092
 2686POPC   C1A36555  27.550  22.261   8.881
 2686POPC   D2A36556  27.375  22.135   8.497
 2686POPC   C3A36557  27.464  22.257   8.081
 2686POPC   C4A36558  27.254  22.111   7.736
 2686POPC   C1B36559  27.818  21.859   8.717
 2686POPC   C2B36560  27.772  21.883   8.251
 2686POPC   C3B36561  27.758  21.946   7.773
 2686POPC   C4B36562  27.938  21.890   7.347
 2687POPC   NC336563  27.916  14.766   9.461
 2687POPC   PO436564  27.626  14.126   9.447
 2687POPC   GL136565  27.749  14.398   9.128
 2687POPC   GL236566  27.553  14.737   9.098
 2687POPC   C1A36567  27.842  14.342   8.719
 2687POPC   D2A36568  27.643  14.506   8.351
 2687POPC   C3A36569  27.659  14.234   8.042
 2687POPC   C4A36570  27.972  14.055   7.818
 2687POPC   C1B36571  27.363  14.494   8.781
 2687POPC   C2B36572  27.150  14.564   8.428
 2687POPC   C3B36573  27.202  14.554   8.015
 2687POPC   C4B36574  27.265  14.197   7.735
 2688POPC   NC336575  29.266   6.274   9.472
 2688POPC   PO436576  28.914   6.781   9.574
 2688POPC   GL136577  29.137   6.774   9.191
 2688POPC   GL236578  28.830   7.005   9.113
 2688POPC   C1A36579  29.210   6.508   8.822
 2688POPC   D2A36580  28.984   6.522   8.384
 2688POPC   C3A36581  29.233   6.621   8.031
 2688POPC   C4A36582  29.272   6.486   7.623
 2688POPC   C1B36583  28.860   6.866   8.741
 2688POPC   C2B36584  28.768   7.051   8.362
 2688POPC   C3B36585  28.791   7.191   7.979
 2688POPC   C4B36586  28.915   6.875   7.721
 2689POPC   NC336587  31.741  14.003   9.432
 2689POPC   PO436588  31.526  14.598   9.618
 2689POPC   GL136589  31.497  14.396   9.217
 2689POPC   GL236590  31.284  14.086   9.201
 2689POPC   C1A36591  31.650  14.450   8.798
 2689POPC   D2A36592  31.405  14.599   8.470
 2689POPC   C3A36593  31.602  14.696   8.110
 2689POPC   C4A36594  31.803  14.818   7.754
 2689POPC   C1B36595  31.171  14.265   8.814
 2689POPC   C2B36596  31.247  14.104   8.409
 2689POPC   C3B36597  31.209  14.291   7.980
 2689POPC   C4B36598  31.544  14.383   7.691
 2690POPC   NC336599  36.361  36.048   9.502
 2690POPC   PO436600  35.821  36.428   9.365
 2690POPC   GL136601  36.157  36.289   9.067
 2690POPC   GL236602  36.239  35.916   9.034
 2690POPC   C1A36603  36.158  36.174   8.617
 2690POPC   D2A36604  35.903  35.959   8.311
 2690POPC   C3A36605  36.115  36.067   7.935
 2690POPC   C4A36606  36.318  36.311   7.634
 2690POPC   C1B36607  36.235  35.637   8.651
 2690POPC   C2B36608  36.285  35.624   8.185
 2690POPC   C3B36609  35.985  35.585   7.823
 2690POPC   C4B36610  35.981  35.880   7.458
 2691POPC   NC336611  33.993  15.813   9.456
 2691POPC   PO436612  33.368  16.240   9.368
 2691POPC   GL136613  33.750  16.156   9.178
 2691POPC   GL236614  33.585  15.850   9.119
 2691POPC   C1A36615  34.003  15.971   8.817
 2691POPC   D2A36616  33.814  15.958   8.401
 2691POPC   C3A36617  34.010  16.013   8.013
 2691POPC   C4A36618  33.859  15.909   7.621
 2691POPC   C1B36619  33.474  16.065   8.759
 2691POPC   C2B36620  33.349  16.232   8.402
 2691POPC   C3B36621  33.474  16.064   8.011
 2691POPC   C4B36622  33.513  16.283   7.645
 2692POPC   NC336623  29.364  18.012   9.280
 2692POPC   PO436624  29.038  17.527   9.626
 2692POPC   GL136625  28.939  17.449   9.158
 2692POPC   GL236626  28.881  17.795   9.119
 2692POPC   C1A36627  28.948  17.154   8.778
 2692POPC   D2A36628  28.880  17.340   8.361
 2692POPC   C3A36629  29.178  17.296   8.035
 2692POPC   C4A36630  29.507  17.389   7.765
 2692POPC   C1B36631  28.754  17.874   8.702
 2692POPC   C2B36632  28.909  17.857   8.260
 2692POPC   C3B36633  29.208  17.802   7.944
 2692POPC   C4B36634  28.915  17.741   7.639
 2693POPC   NC336635  11.835  31.818   9.323
 2693POPC   PO436636  12.419  31.636   9.484
 2693POPC   GL136637  12.238  31.481   9.138
 2693POPC   GL236638  12.180  31.123   9.062
 2693POPC   C1A36639  12.156  31.582   8.741
 2693POPC   D2A36640  11.865  31.575   8.450
 2693POPC   C3A36641  12.071  31.363   8.145
 2693POPC   C4A36642  12.137  31.410   7.737
 2693POPC   C1B36643  11.824  31.146   8.722
 2693POPC   C2B36644  11.629  31.125   8.274
 2693POPC   C3B36645  11.804  31.026   7.837
 2693POPC   C4B36646  11.740  31.235   7.442
 2694POPC   NC336647  27.661  26.567   9.701
 2694POPC   PO436648  27.962  27.157   9.562
 2694POPC   GL136649  27.759  26.946   9.137
 2694POPC   GL236650  27.397  27.057   8.990
 2694POPC   C1A36651  27.780  27.055   8.663
 2694POPC   D2A36652  27.566  26.843   8.311
 2694POPC   C3A36653  27.697  26.859   7.916
 2694POPC   C4A36654  27.909  26.499   7.905
 2694POPC   C1B36655  27.338  26.718   8.736
 2694POPC   C2B36656  27.182  26.490   8.372
 2694POPC   C3B36657  27.363  26.478   7.984
 2694POPC   C4B36658  27.201  26.813   7.739
 2695POPC   NC336659  29.481  22.490   9.508
 2695POPC   PO436660  29.137  23.087   9.537
 2695POPC   GL136661  29.102  22.888   9.138
 2695POPC   GL236662  29.404  22.715   9.065
 2695POPC   C1A36663  28.961  22.623   8.801
 2695POPC   D2A36664  28.710  22.610   8.412
 2695POPC   C3A36665  28.924  22.925   8.120
 2695POPC   C4A36666  29.222  22.968   7.794
 2695POPC   C1B36667  29.456  22.999   8.703
 2695POPC   C2B36668  29.442  23.056   8.244
 2695POPC   C3B36669  29.685  23.138   7.834
 2695POPC   C4B36670  29.593  22.873   7.453
 2696POPC   NC336671   4.698  41.614   9.746
 2696POPC   PO436672   5.304  41.333   9.484
 2696POPC   GL136673   5.091  41.423   9.099
 2696POPC   GL236674   4.913  41.759   9.080
 2696POPC   C1A36675   5.036  41.422   8.639
 2696POPC   D2A36676   5.043  41.733   8.272
 2696POPC   C3A36677   5.339  41.563   7.988
 2696POPC   C4A36678   5.188  41.200   7.782
 2696POPC   C1B36679   4.696  41.801   8.653
 2696POPC   C2B36680   4.572  41.990   8.270
 2696POPC   C3B36681   4.623  41.869   7.868
 2696POPC   C4B36682   4.892  41.599   7.739
 2697POPC   NC336683  21.602   3.172   9.631
 2697POPC   PO436684  21.117   2.677   9.468
 2697POPC   GL136685  21.427   2.880   9.219
 2697POPC   GL236686  21.459   2.532   9.069
 2697POPC   C1A36687  21.590   3.083   8.832
 2697POPC   D2A36688  21.384   3.035   8.398
 2697POPC   C3A36689  21.562   3.125   8.002
 2697POPC   C4A36690  21.430   2.984   7.575
 2697POPC   C1B36691  21.415   2.603   8.658
 2697POPC   C2B36692  21.624   2.601   8.273
 2697POPC   C3B36693  21.300   2.673   7.963
 2697POPC   C4B36694  21.011   2.474   7.695
 2698POPC   NC336695   7.210  37.861   9.460
 2698POPC   PO436696   7.809  37.536   9.684
 2698POPC   GL136697   7.609  37.574   9.256
 2698POPC   GL236698   7.656  37.870   9.164
 2698POPC   C1A36699   7.352  37.569   8.833
 2698POPC   D2A36700   7.088  37.539   8.421
 2698POPC   C3A36701   7.299  37.521   8.013
 2698POPC   C4A36702   7.395  37.657   7.612
 2698POPC   C1B36703   7.643  37.997   8.764
 2698POPC   C2B36704   7.581  37.758   8.368
 2698POPC   C3B36705   7.686  37.901   7.931
 2698POPC   C4B36706   7.849  37.778   7.486
 2699POPC   NC336707  38.377  38.076   9.651
 2699POPC   PO436708  37.925  37.588   9.678
 2699POPC   GL136709  38.168  37.875   9.246
 2699POPC   GL236710  38.486  38.066   9.168
 2699POPC   C1A36711  38.426  37.695   8.839
 2699POPC   D2A36712  38.321  37.408   8.511
 2699POPC   C3A36713  38.317  37.555   8.087
 2699POPC   C4A36714  38.627  37.359   7.810
 2699POPC   C1B36715  38.339  38.188   8.769
 2699POPC   C2B36716  38.405  37.975   8.378
 2699POPC   C3B36717  38.642  37.949   7.986
 2699POPC   C4B36718  38.541  37.788   7.578
 2700POPC   NC336719  12.178  30.246   9.482
 2700POPC   PO436720  11.915  29.610   9.475
 2700POPC   GL136721  12.104  29.788   9.081
 2700POPC   GL236722  12.356  30.006   9.075
 2700POPC   C1A36723  12.115  29.997   8.649
 2700POPC   D2A36724  11.882  30.225   8.400
 2700POPC   C3A36725  11.825  29.971   8.066
 2700POPC   C4A36726  12.097  29.845   7.753
 2700POPC   C1B36727  12.447  30.359   8.802
 2700POPC   C2B36728  12.366  30.471   8.364
 2700POPC   C3B36729  12.252  30.273   8.014
 2700POPC   C4B36730  12.448  30.193   7.636
 2701POPC   NC336731  18.088  33.060   9.556
 2701POPC   PO436732  18.294  32.455   9.553
 2701POPC   GL136733  18.284  32.755   9.206
 2701POPC   GL236734  18.567  32.970   9.285
 2701POPC   C1A36735  18.138  33.053   8.866
 2701POPC   D2A36736  17.905  33.093   8.496
 2701POPC   C3A36737  18.109  33.284   8.138
 2701POPC   C4A36738  18.082  33.020   7.739
 2701POPC   C1B36739  18.645  32.989   8.857
 2701POPC   C2B36740  18.462  33.029   8.462
 2701POPC   C3B36741  18.488  32.944   8.037
 2701POPC   C4B36742  18.724  33.098   7.727
 2702POPC   NC336743  13.295  21.802   9.286
 2702POPC   PO436744  13.402  22.340   9.684
 2702POPC   GL136745  13.537  22.292   9.250
 2702POPC   GL236746  13.288  22.448   9.063
 2702POPC   C1A36747  13.733  22.380   8.820
 2702POPC   D2A36748  13.767  22.167   8.409
 2702POPC   C3A36749  13.773  22.388   8.039
 2702POPC   C4A36750  13.670  22.222   7.676
 2702POPC   C1B36751  13.231  22.195   8.720
 2702POPC   C2B36752  13.302  21.905   8.406
 2702POPC   C3B36753  13.323  22.146   8.058
 2702POPC   C4B36754  13.147  22.259   7.693
 2703POPC   NC336755  20.823  11.918   9.498
 2703POPC   PO436756  21.074  11.342   9.412
 2703POPC   GL136757  21.204  11.335   8.948
 2703POPC   GL236758  21.572  11.320   8.873
 2703POPC   C1A36759  21.254  11.253   8.474
 2703POPC   D2A36760  21.259  10.974   8.111
 2703POPC   C3A36761  21.381  11.167   7.729
 2703POPC   C4A36762  21.330  11.608   7.584
 2703POPC   C1B36763  21.751  11.139   8.466
 2703POPC   C2B36764  21.784  10.982   8.039
 2703POPC   C3B36765  21.923  11.076   7.621
 2703POPC   C4B36766  21.736  11.380   7.381
 2704POPC   NC336767   0.902  44.071   9.633
 2704POPC   PO436768   1.456  43.745   9.537
 2704POPC   GL136769   1.336  44.006   9.188
 2704POPC   GL236770   0.981  44.137   9.129
 2704POPC   C1A36771   1.320  44.083   8.749
 2704POPC   D2A36772   1.069  43.976   8.407
 2704POPC   C3A36773   1.234  43.930   8.023
 2704POPC   C4A36774   1.090  43.566   7.842
 2704POPC   C1B36775   0.867  44.331   8.728
 2704POPC   C2B36776   0.616  44.212   8.399
 2704POPC   C3B36777   0.700  43.986   8.009
 2704POPC   C4B36778   0.876  43.944   7.579
 2705POPC   NC336779  30.388  29.897   9.567
 2705POPC   PO436780  29.743  29.870   9.479
 2705POPC   GL136781  30.048  29.899   9.169
 2705POPC   GL236782  30.244  29.596   9.153
 2705POPC   C1A36783  29.921  30.002   8.781
 2705POPC   D2A36784  29.903  29.767   8.423
 2705POPC   C3A36785  29.926  30.038   8.103
 2705POPC   C4A36786  29.641  30.006   7.781
 2705POPC   C1B36787  30.341  29.707   8.720
 2705POPC   C2B36788  30.369  29.657   8.240
 2705POPC   C3B36789  30.077  29.589   7.907
 2705POPC   C4B36790  29.791  29.460   7.584
 2706POPC   NC336791   0.467  30.914   9.495
 2706POPC   PO436792   0.199  31.530   9.457
 2706POPC   GL136793   0.489  31.352   9.162
 2706POPC   GL236794   0.219  31.432   8.943
 2706POPC   C1A36795   0.684  31.517   8.765
 2706POPC   D2A36796   0.424  31.700   8.433
 2706POPC   C3A36797   0.467  31.545   7.986
 2706POPC   C4A36798   0.460  31.303   7.615
 2706POPC   C1B36799  44.961  31.718   8.702
 2706POPC   C2B36800  44.947  31.978   8.321
 2706POPC   C3B36801  44.976  31.892   7.890
 2706POPC   C4B36802   0.224  31.769   7.546
 2707POPC   NC336803  16.150  34.021   9.331
 2707POPC   PO436804  16.097  34.707   9.466
 2707POPC   GL136805  15.921  34.650   9.073
 2707POPC   GL236806  15.875  34.320   9.021
 2707POPC   C1A36807  15.727  34.853   8.744
 2707POPC   D2A36808  15.527  34.694   8.355
 2707POPC   C3A36809  15.764  34.757   8.007
 2707POPC   C4A36810  15.756  34.611   7.594
 2707POPC   C1B36811  15.900  34.396   8.593
 2707POPC   C2B36812  15.696  34.211   8.237
 2707POPC   C3B36813  16.000  34.181   7.950
 2707POPC   C4B36814  16.199  34.537   7.840
 2708POPC   NC336815  37.675  15.640   9.510
 2708POPC   PO436816  37.523  16.343   9.429
 2708POPC   GL136817  37.730  16.039   9.175
 2708POPC   GL236818  37.437  15.806   9.094
 2708POPC   C1A36819  37.859  15.867   8.776
 2708POPC   D2A36820  37.788  15.654   8.368
 2708POPC   C3A36821  37.938  15.930   8.054
 2708POPC   C4A36822  37.801  16.303   7.831
 2708POPC   C1B36823  37.200  15.876   8.703
 2708POPC   C2B36824  37.125  15.998   8.261
 2708POPC   C3B36825  37.420  15.965   7.899
 2708POPC   C4B36826  37.677  15.614   7.780
 2709POPC   NC336827  38.020  21.495   9.588
 2709POPC   PO436828  38.660  21.519   9.551
 2709POPC   GL136829  38.360  21.545   9.203
 2709POPC   GL236830  38.208  21.189   9.214
 2709POPC   C1A36831  38.385  21.529   8.750
 2709POPC   D2A36832  38.619  21.631   8.359
 2709POPC   C3A36833  38.409  21.576   7.998
 2709POPC   C4A36834  38.460  21.793   7.640
 2709POPC   C1B36835  38.438  21.042   8.860
 2709POPC   C2B36836  38.433  20.885   8.417
 2709POPC   C3B36837  38.369  21.066   7.988
 2709POPC   C4B36838  38.432  21.196   7.520
 2710POPC   NC336839   8.982  12.133   9.613
 2710POPC   PO436840   8.959  12.816   9.599
 2710POPC   GL136841   8.938  12.789   9.165
 2710POPC   GL236842   9.069  13.141   9.140
 2710POPC   C1A36843   8.755  12.592   8.777
 2710POPC   D2A36844   8.907  12.718   8.376
 2710POPC   C3A36845   8.830  13.005   8.037
 2710POPC   C4A36846   9.014  12.713   7.739
 2710POPC   C1B36847   9.161  12.968   8.740
 2710POPC   C2B36848   9.457  12.795   8.434
 2710POPC   C3B36849   9.340  12.906   8.081
 2710POPC   C4B36850   9.231  13.178   7.718
 2711POPC   NC336851  43.827  24.434   9.486
 2711POPC   PO436852  44.166  24.945   9.351
 2711POPC   GL136853  44.035  24.573   9.042
 2711POPC   GL236854  43.717  24.325   9.009
 2711POPC   C1A36855  44.100  24.254   8.701
 2711POPC   D2A36856  43.943  24.315   8.263
 2711POPC   C3A36857  44.225  24.329   7.889
 2711POPC   C4A36858  44.128  24.489   7.475
 2711POPC   C1B36859  43.648  23.985   8.680
 2711POPC   C2B36860  43.448  23.771   8.312
 2711POPC   C3B36861  43.431  23.960   7.882
 2711POPC   C4B36862  43.651  24.362   7.780
 2712POPC   NC336863  25.874   6.437   9.422
 2712POPC   PO436864  26.298   7.050   9.571
 2712POPC   GL136865  26.206   6.780   9.200
 2712POPC   GL236866  26.384   6.439   9.214
 2712POPC   C1A36867  25.875   6.780   8.855
 2712POPC   D2A36868  25.800   6.990   8.446
 2712POPC   C3A36869  25.958   6.845   8.005
 2712POPC   C4A36870  25.855   6.657   7.556
 2712POPC   C1B36871  26.359   6.577   8.744
 2712POPC   C2B36872  26.019   6.518   8.431
 2712POPC   C3B36873  25.862   6.317   8.060
 2712POPC   C4B36874  25.944   6.144   7.665
 2713POPC   NC336875  38.367  12.038   9.441
 2713POPC   PO436876  39.032  12.035   9.525
 2713POPC   GL136877  38.766  12.164   9.157
 2713POPC   GL236878  38.566  11.846   9.024
 2713POPC   C1A36879  38.509  12.287   8.791
 2713POPC   D2A36880  38.500  11.994   8.446
 2713POPC   C3A36881  38.489  12.201   8.101
 2713POPC   C4A36882  38.562  12.082   7.715
 2713POPC   C1B36883  38.162  11.873   8.792
 2713POPC   C2B36884  37.999  11.785   8.343
 2713POPC   C3B36885  38.148  11.860   7.900
 2713POPC   C4B36886  38.280  11.811   7.404
 2714POPC   NC336887  18.128  43.621   9.658
 2714POPC   PO436888  18.578  44.036   9.345
 2714POPC   GL136889  18.381  43.728   9.196
 2714POPC   GL236890  18.570  43.458   9.064
 2714POPC   C1A36891  18.109  43.877   8.878
 2714POPC   D2A36892  18.176  44.064   8.485
 2714POPC   C3A36893  18.080  43.851   8.092
 2714POPC   C4A36894  18.180  44.019   7.677
 2714POPC   C1B36895  18.626  43.750   8.706
 2714POPC   C2B36896  18.570  43.799   8.246
 2714POPC   C3B36897  18.583  43.710   7.779
 2714POPC   C4B36898  18.739  43.517   7.340
 2715POPC   NC336899  20.567  39.699   9.449
 2715POPC   PO436900  20.409  40.363   9.467
 2715POPC   GL136901  20.694  40.135   9.205
 2715POPC   GL236902  20.414  40.016   9.047
 2715POPC   C1A36903  20.830  40.014   8.763
 2715POPC   D2A36904  20.531  40.036   8.402
 2715POPC   C3A36905  20.762  39.968   8.007
 2715POPC   C4A36906  20.612  39.970   7.577
 2715POPC   C1B36907  20.439  39.653   8.781
 2715POPC   C2B36908  20.284  39.558   8.357
 2715POPC   C3B36909  20.293  39.765   7.941
 2715POPC   C4B36910  20.271  39.588   7.529
 2716POPC   NC336911  29.329  13.358   9.424
 2716POPC   PO436912  29.002  13.931   9.449
 2716POPC   GL136913  29.072  13.698   9.109
 2716POPC   GL236914  29.431  13.798   9.153
 2716POPC   C1A36915  29.256  13.466   8.775
 2716POPC   D2A36916  29.315  13.298   8.390
 2716POPC   C3A36917  29.224  13.500   8.026
 2716POPC   C4A36918  29.059  13.341   7.690
 2716POPC   C1B36919  29.329  13.960   8.753
 2716POPC   C2B36920  29.472  13.839   8.331
 2716POPC   C3B36921  29.307  14.018   7.947
 2716POPC   C4B36922  29.351  13.960   7.523
 2717POPC   NC336923   9.319  14.784   9.294
 2717POPC   PO436924   9.783  15.172   9.575
 2717POPC   GL136925   9.799  15.340   9.183
 2717POPC   GL236926   9.500  15.532   9.166
 2717POPC   C1A36927   9.861  15.414   8.778
 2717POPC   D2A36928   9.912  15.213   8.398
 2717POPC   C3A36929   9.863  15.457   8.044
 2717POPC   C4A36930   9.734  15.199   7.713
 2717POPC   C1B36931   9.356  15.270   8.826
 2717POPC   C2B36932   9.252  14.987   8.489
 2717POPC   C3B36933   9.409  15.006   8.049
 2717POPC   C4B36934   9.306  14.944   7.581
 2718POPC   NC336935  20.469  44.818   9.436
 2718POPC   PO436936  20.372  44.204   9.547
 2718POPC   GL136937  20.646  44.404   9.194
 2718POPC   GL236938  20.419  44.529   9.016
 2718POPC   C1A36939  20.899  44.605   8.817
 2718POPC   D2A36940  20.724  44.613   8.399
 2718POPC   C3A36941  20.804  44.458   7.978
 2718POPC   C4A36942  20.495  44.571   7.684
 2718POPC   C1B36943  20.465  44.878   8.773
 2718POPC   C2B36944  20.393   0.031   8.379
 2718POPC   C3B36945  20.578  44.931   8.022
 2718POPC   C4B36946  20.548   0.081   7.633
 2719POPC   NC336947  30.906  34.180   9.577
 2719POPC   PO436948  31.612  34.197   9.571
 2719POPC   GL136949  31.384  34.404   9.233
 2719POPC   GL236950  31.144  34.165   9.127
 2719POPC   C1A36951  31.526  34.559   8.818
 2719POPC   D2A36952  31.586  34.383   8.402
 2719POPC   C3A36953  31.507  34.575   7.994
 2719POPC   C4A36954  31.716  34.715   7.596
 2719POPC   C1B36955  31.322  34.098   8.719
 2719POPC   C2B36956  31.080  34.144   8.331
 2719POPC   C3B36957  31.189  34.142   7.906
 2719POPC   C4B36958  31.286  34.407   7.557
 2720POPC   NC336959   9.174  40.927   9.862
 2720POPC   PO436960   8.724  41.058   9.423
 2720POPC   GL136961   9.092  40.978   9.143
 2720POPC   GL236962   8.951  40.726   8.942
 2720POPC   C1A36963   9.220  41.034   8.673
 2720POPC   D2A36964   8.943  40.856   8.366
 2720POPC   C3A36965   9.082  40.753   7.963
 2720POPC   C4A36966   8.809  40.761   7.638
 2720POPC   C1B36967   9.004  40.410   8.636
 2720POPC   C2B36968   8.979  40.321   8.231
 2720POPC   C3B36969   8.971  40.287   7.810
 2720POPC   C4B36970   9.380  40.349   7.749
 2721POPC   NC336971  35.977  21.885   9.414
 2721POPC   PO436972  36.450  22.319   9.523
 2721POPC   GL136973  36.262  22.237   9.162
 2721POPC   GL236974  36.122  22.565   9.151
 2721POPC   C1A36975  36.263  21.961   8.800
 2721POPC   D2A36976  36.069  21.780   8.445
 2721POPC   C3A36977  36.290  21.895   8.071
 2721POPC   C4A36978  36.179  22.028   7.671
 2721POPC   C1B36979  36.001  22.443   8.762
 2721POPC   C2B36980  36.161  22.277   8.394
 2721POPC   C3B36981  36.042  22.419   8.009
 2721POPC   C4B36982  36.182  22.514   7.574
 2722POPC   NC336983  11.605  14.341   9.566
 2722POPC   PO436984  10.985  14.066   9.235
 2722POPC   GL136985  11.140  14.363   8.997
 2722POPC   GL236986  11.416  14.530   9.141
 2722POPC   C1A36987  11.284  14.532   8.644
 2722POPC   D2A36988  11.346  14.710   8.261
 2722POPC   C3A36989  10.997  14.588   7.955
 2722POPC   C4A36990  11.073  14.356   7.594
 2722POPC   C1B36991  11.691  14.287   8.826
 2722POPC   C2B36992  11.580  14.226   8.356
 2722POPC   C3B36993  11.417  14.283   7.966
 2722POPC   C4B36994  11.663  14.320   7.568
 2723POPC   NC336995  11.139  36.094   9.602
 2723POPC   PO436996  11.765  35.951   9.558
 2723POPC   GL136997  11.458  36.036   9.201
 2723POPC   GL236998  11.166  36.289   9.123
 2723POPC   C1A36999  11.393  36.004   8.763
 2723POPC   D2A37000  11.141  35.970   8.395
 2723POPC   C3A37001  11.355  35.876   8.024
 2723POPC   C4A37002  11.173  35.966   7.651
 2723POPC   C1B37003  10.987  36.455   8.718
 2723POPC   C2B37004  10.982  36.435   8.257
 2723POPC   C3B37005  11.254  36.396   7.907
 2723POPC   C4B37006  11.703  36.242   7.880
 2724POPC   NC337007  41.406  34.806   9.354
 2724POPC   PO437008  41.715  34.288   9.417
 2724POPC   GL137009  41.643  34.453   9.060
 2724POPC   GL237010  41.293  34.393   9.016
 2724POPC   C1A37011  41.884  34.549   8.687
 2724POPC   D2A37012  41.767  34.407   8.297
 2724POPC   C3A37013  41.688  34.596   7.904
 2724POPC   C4A37014  41.850  34.472   7.497
 2724POPC   C1B37015  41.378  34.584   8.634
 2724POPC   C2B37016  41.274  34.669   8.230
 2724POPC   C3B37017  41.177  34.464   7.868
 2724POPC   C4B37018  41.341  34.562   7.490
 2725POPC   NC337019  34.431   4.080   9.413
 2725POPC   PO437020  34.318   4.719   9.317
 2725POPC   GL137021  34.587   4.392   9.065
 2725POPC   GL237022  34.776   3.989   9.059
 2725POPC   C1A37023  34.460   4.199   8.707
 2725POPC   D2A37024  34.558   4.083   8.316
 2725POPC   C3A37025  34.468   4.313   7.977
 2725POPC   C4A37026  34.367   4.369   7.556
 2725POPC   C1B37027  34.984   4.116   8.732
 2725POPC   C2B37028  35.039   3.937   8.348
 2725POPC   C3B37029  34.950   4.078   7.941
 2725POPC   C4B37030  34.895   3.980   7.509
 2726POPC   NC337031  31.952   5.801   9.476
 2726POPC   PO437032  32.657   5.664   9.473
 2726POPC   GL137033  32.325   5.625   9.164
 2726POPC   GL237034  32.306   5.984   9.152
 2726POPC   C1A37035  32.183   5.704   8.722
 2726POPC   D2A37036  31.955   5.525   8.348
 2726POPC   C3A37037  32.157   5.676   7.936
 2726POPC   C4A37038  32.183   5.698   7.444
 2726POPC   C1B37039  32.479   6.154   8.788
 2726POPC   C2B37040  32.396   6.078   8.381
 2726POPC   C3B37041  32.266   6.243   8.018
 2726POPC   C4B37042  32.300   6.140   7.653
 2727POPC   NC337043   1.571   4.033   9.686
 2727POPC   PO437044   2.001   4.490   9.336
 2727POPC   GL137045   2.100   4.406   8.945
 2727POPC   GL237046   2.333   4.225   8.950
 2727POPC   C1A37047   2.134   4.512   8.526
 2727POPC   D2A37048   1.767   4.667   8.302
 2727POPC   C3A37049   1.613   4.371   7.991
 2727POPC   C4A37050   1.841   4.269   7.614
 2727POPC   C1B37051   2.240   3.825   8.740
 2727POPC   C2B37052   2.054   3.818   8.374
 2727POPC   C3B37053   2.083   4.029   7.989
 2727POPC   C4B37054   2.160   3.839   7.586
 2728POPC   NC337055   7.118  40.207   9.434
 2728POPC   PO437056   6.610  39.831   9.520
 2728POPC   GL137057   6.675  40.108   9.167
 2728POPC   GL237058   6.346  40.061   9.082
 2728POPC   C1A37059   6.774  40.016   8.733
 2728POPC   D2A37060   6.831  40.242   8.331
 2728POPC   C3A37061   6.619  40.175   7.922
 2728POPC   C4A37062   6.689  40.424   7.528
 2728POPC   C1B37063   6.348  39.703   8.829
 2728POPC   C2B37064   6.508  39.714   8.399
 2728POPC   C3B37065   6.391  39.712   7.952
 2728POPC   C4B37066   6.247  39.491   7.563
 2729POPC   NC337067  15.416  30.947   9.553
 2729POPC   PO437068  14.934  30.575   9.504
 2729POPC   GL137069  15.078  30.753   9.155
 2729POPC   GL237070  15.246  30.458   9.095
 2729POPC   C1A37071  15.000  31.044   8.813
 2729POPC   D2A37072  14.832  31.058   8.385
 2729POPC   C3A37073  15.049  30.715   8.195
 2729POPC   C4A37074  15.034  30.594   7.790
 2729POPC   C1B37075  15.249  30.623   8.670
 2729POPC   C2B37076  15.573  30.775   8.351
 2729POPC   C3B37077  15.559  30.618   7.901
 2729POPC   C4B37078  15.386  30.489   7.453
 2730POPC   NC337079  13.403   3.158   9.575
 2730POPC   PO437080  13.296   3.838   9.541
 2730POPC   GL137081  13.284   3.577   9.180
 2730POPC   GL237082  13.585   3.366   9.153
 2730POPC   C1A37083  13.438   3.628   8.734
 2730POPC   D2A37084  13.550   3.799   8.334
 2730POPC   C3A37085  13.743   3.630   7.979
 2730POPC   C4A37086  13.772   3.764   7.595
 2730POPC   C1B37087  13.281   3.141   8.893
 2730POPC   C2B37088  13.135   3.291   8.491
 2730POPC   C3B37089  13.385   3.313   8.155
 2730POPC   C4B37090  13.557   3.152   7.792
 2731POPC   NC337091  39.266  15.982   9.525
 2731POPC   PO437092  39.530  16.661   9.623
 2731POPC   GL137093  39.513  16.284   9.214
 2731POPC   GL237094  39.437  15.858   9.079
 2731POPC   C1A37095  39.307  16.233   8.793
 2731POPC   D2A37096  39.438  16.250   8.359
 2731POPC   C3A37097  39.222  15.972   8.082
 2731POPC   C4A37098  39.144  16.215   7.737
 2731POPC   C1B37099  39.018  15.756   8.911
 2731POPC   C2B37100  38.806  15.653   8.520
 2731POPC   C3B37101  38.880  15.571   8.089
 2731POPC   C4B37102  38.845  15.801   7.720
 2732POPC   NC337103  15.790  33.511   9.758
 2732POPC   PO437104  15.677  34.038   9.396
 2732POPC   GL137105  15.684  33.777   9.095
 2732POPC   GL237106  16.006  33.688   8.983
 2732POPC   C1A37107  15.692  33.939   8.687
 2732POPC   D2A37108  16.047  33.878   8.466
 2732POPC   C3A37109  15.870  33.676   8.145
 2732POPC   C4A37110  15.828  33.772   7.724
 2732POPC   C1B37111  16.238  33.338   8.793
 2732POPC   C2B37112  16.294  33.400   8.360
 2732POPC   C3B37113  16.366  33.702   8.065
 2732POPC   C4B37114  16.247  33.499   7.712
 2733POPC   NC337115  43.412  11.977   9.530
 2733POPC   PO437116  43.013  12.499   9.691
 2733POPC   GL137117  42.953  12.319   9.261
 2733POPC   GL237118  43.040  11.950   9.184
 2733POPC   C1A37119  43.004  12.282   8.811
 2733POPC   D2A37120  43.169  12.281   8.395
 2733POPC   C3A37121  42.818  12.209   8.159
 2733POPC   C4A37122  42.806  12.212   7.752
 2733POPC   C1B37123  43.362  11.881   8.822
 2733POPC   C2B37124  43.407  11.783   8.350
 2733POPC   C3B37125  43.238  11.939   7.960
 2733POPC   C4B37126  43.314  12.347   7.859
 2734POPC   NC337127  10.739  16.004   9.429
 2734POPC   PO437128  10.240  15.593   9.453
 2734POPC   GL137129  10.436  15.761   9.076
 2734POPC   GL237130  10.365  16.107   9.128
 2734POPC   C1A37131  10.736  15.909   8.767
 2734POPC   D2A37132  10.832  15.982   8.336
 2734POPC   C3A37133  10.479  15.742   8.164
 2734POPC   C4A37134  10.230  15.738   7.786
 2734POPC   C1B37135  10.360  16.260   8.757
 2734POPC   C2B37136  10.376  16.230   8.348
 2734POPC   C3B37137  10.500  16.188   7.938
 2734POPC   C4B37138  10.258  16.430   7.664
 2735POPC   NC337139   2.963  32.523   9.390
 2735POPC   PO437140   2.553  33.051   9.496
 2735POPC   GL137141   2.569  32.987   9.072
 2735POPC   GL237142   2.511  32.606   9.108
 2735POPC   C1A37143   2.864  33.108   8.703
 2735POPC   D2A37144   3.119  32.905   8.359
 2735POPC   C3A37145   2.996  32.925   7.926
 2735POPC   C4A37146   2.652  33.201   7.806
 2735POPC   C1B37147   2.615  32.666   8.682
 2735POPC   C2B37148   2.604  32.845   8.269
 2735POPC   C3B37149   2.524  32.704   7.849
 2735POPC   C4B37150   2.638  32.813   7.445
 2736POPC   NC337151  31.926  27.868   9.278
 2736POPC   PO437152  31.520  27.397   9.564
 2736POPC   GL137153  31.304  27.308   9.150
 2736POPC   GL237154  31.560  27.527   9.061
 2736POPC   C1A37155  31.170  27.400   8.728
 2736POPC   D2A37156  31.118  27.729   8.414
 2736POPC   C3A37157  31.191  27.570   7.984
 2736POPC   C4A37158  31.255  27.590   7.534
 2736POPC   C1B37159  31.527  27.818   8.736
 2736POPC   C2B37160  31.619  27.757   8.326
 2736POPC   C3B37161  31.732  27.574   7.966
 2736POPC   C4B37162  32.008  27.760   7.704
 2737POPC   NC337163  24.250  23.406   9.571
 2737POPC   PO437164  24.572  22.731   9.492
 2737POPC   GL137165  24.297  22.883   9.157
 2737POPC   GL237166  24.441  23.191   9.124
 2737POPC   C1A37167  24.198  23.040   8.709
 2737POPC   D2A37168  24.273  23.206   8.291
 2737POPC   C3A37169  24.226  22.839   7.984
 2737POPC   C4A37170  24.068  22.407   7.943
 2737POPC   C1B37171  24.678  22.897   8.834
 2737POPC   C2B37172  24.660  22.890   8.429
 2737POPC   C3B37173  24.693  23.030   8.067
 2737POPC   C4B37174  24.540  23.127   7.692
 2738POPC   NC337175  19.614  41.379   9.618
 2738POPC   PO437176  20.092  41.808   9.557
 2738POPC   GL137177  19.883  41.679   9.203
 2738POPC   GL237178  19.754  41.997   9.106
 2738POPC   C1A37179  19.798  41.620   8.745
 2738POPC   D2A37180  19.873  41.843   8.342
 2738POPC   C3A37181  19.625  41.743   7.970
 2738POPC   C4A37182  19.736  41.373   7.722
 2738POPC   C1B37183  20.163  41.962   8.839
 2738POPC   C2B37184  20.379  41.901   8.397
 2738POPC   C3B37185  20.241  42.044   7.993
 2738POPC   C4B37186  20.049  41.821   7.689
 2739POPC   NC337187  17.365  44.791   9.591
 2739POPC   PO437188  17.739  44.234   9.395
 2739POPC   GL137189  17.527  44.574   9.168
 2739POPC   GL237190  17.598  44.965   9.166
 2739POPC   C1A37191  17.293  44.644   8.827
 2739POPC   D2A37192  17.446  44.494   8.445
 2739POPC   C3A37193  17.154  44.470   8.128
 2739POPC   C4A37194  17.247  44.593   7.724
 2739POPC   C1B37195  17.755  44.862   8.754
 2739POPC   C2B37196  17.929   0.011   8.381
 2739POPC   C3B37197  17.805   0.168   7.984
 2739POPC   C4B37198  17.792  44.802   7.729
 2740POPC   NC337199  21.517  39.391   9.391
 2740POPC   PO437200  20.990  38.871   9.504
 2740POPC   GL137201  21.296  38.901   9.119
 2740POPC   GL237202  21.660  38.992   9.044
 2740POPC   C1A37203  21.283  39.109   8.707
 2740POPC   D2A37204  20.936  39.136   8.406
 2740POPC   C3A37205  21.022  39.115   7.966
 2740POPC   C4A37206  21.252  38.817   7.813
 2740POPC   C1B37207  21.896  39.306   8.819
 2740POPC   C2B37208  21.790  39.441   8.420
 2740POPC   C3B37209  21.470  39.206   8.189
 2740POPC   C4B37210  21.535  39.263   7.781
 2741POPC   NC337211  38.793   0.850   9.388
 2741POPC   PO437212  39.401   0.700   9.492
 2741POPC   GL137213  39.355   0.496   9.102
 2741POPC   GL237214  39.015   0.339   9.074
 2741POPC   C1A37215  39.631   0.509   8.776
 2741POPC   D2A37216  39.818   0.333   8.388
 2741POPC   C3A37217  39.590   0.523   8.023
 2741POPC   C4A37218  39.298   0.626   7.663
 2741POPC   C1B37219  38.984   0.699   8.785
 2741POPC   C2B37220  39.238   0.696   8.410
 2741POPC   C3B37221  39.107   0.415   8.086
 2741POPC   C4B37222  38.797   0.583   7.808
 2742POPC   NC337223  43.133  29.538   9.459
 2742POPC   PO437224  43.191  28.863   9.432
 2742POPC   GL137225  42.965  29.150   9.134
 2742POPC   GL237226  42.744  29.469   9.141
 2742POPC   C1A37227  43.089  29.287   8.752
 2742POPC   D2A37228  43.018  29.014   8.425
 2742POPC   C3A37229  43.194  29.048   8.055
 2742POPC   C4A37230  43.037  29.192   7.713
 2742POPC   C1B37231  42.761  29.682   8.789
 2742POPC   C2B37232  42.970  29.651   8.406
 2742POPC   C3B37233  42.800  29.397   8.122
 2742POPC   C4B37234  42.661  29.581   7.755
 2743POPC   NC337235  26.646  35.250   9.418
 2743POPC   PO437236  27.286  35.564   9.575
 2743POPC   GL137237  27.071  35.422   9.145
 2743POPC   GL237238  26.748  35.467   8.963
 2743POPC   C1A37239  27.137  35.278   8.711
 2743POPC   D2A37240  26.802  35.193   8.403
 2743POPC   C3A37241  26.861  35.374   7.996
 2743POPC   C4A37242  26.913  35.191   7.608
 2743POPC   C1B37243  26.480  35.674   8.685
 2743POPC   C2B37244  26.519  35.736   8.276
 2743POPC   C3B37245  26.375  35.587   7.885
 2743POPC   C4B37246  26.638  35.626   7.535
 2744POPC   NC337247  44.277  29.157   9.787
 2744POPC   PO437248  44.870  29.206   9.453
 2744POPC   GL137249  44.577  29.288   9.114
 2744POPC   GL237250  44.278  29.494   9.218
 2744POPC   C1A37251  44.599  29.116   8.693
 2744POPC   D2A37252  44.324  28.926   8.378
 2744POPC   C3A37253  44.519  28.809   8.013
 2744POPC   C4A37254  44.825  29.152   7.908
 2744POPC   C1B37255  44.155  29.381   8.777
 2744POPC   C2B37256  44.335  29.428   8.343
 2744POPC   C3B37257  44.311  29.247   7.942
 2744POPC   C4B37258  44.483  29.180   7.507
 2745POPC   NC337259  36.473   2.770   9.554
 2745POPC   PO437260  35.985   3.127   9.283
 2745POPC   GL137261  36.331   2.884   9.069
 2745POPC   GL237262  36.561   2.597   9.080
 2745POPC   C1A37263  36.218   2.749   8.698
 2745POPC   D2A37264  35.881   2.702   8.445
 2745POPC   C3A37265  35.988   2.689   8.044
 2745POPC   C4A37266  35.784   2.834   7.659
 2745POPC   C1B37267  36.502   2.344   8.738
 2745POPC   C2B37268  36.263   2.304   8.383
 2745POPC   C3B37269  36.410   2.372   7.987
 2745POPC   C4B37270  36.144   2.474   7.617
 2746POPC   NC337271  25.504  31.444   9.584
 2746POPC   PO437272  25.106  31.756   9.207
 2746POPC   GL137273  25.356  31.428   9.064
 2746POPC   GL237274  25.669  31.593   9.129
 2746POPC   C1A37275  25.253  31.166   8.688
 2746POPC   D2A37276  25.396  31.257   8.254
 2746POPC   C3A37277  25.274  31.312   7.807
 2746POPC   C4A37278  25.065  31.667   7.623
 2746POPC   C1B37279  25.722  31.846   8.767
 2746POPC   C2B37280  25.510  31.963   8.424
 2746POPC   C3B37281  25.409  31.738   8.067
 2746POPC   C4B37282  25.552  31.760   7.681
 2747POPC   NC337283  17.473   0.783   9.534
 2747POPC   PO437284  17.212   0.228   9.524
 2747POPC   GL137285  17.348   0.442   9.162
 2747POPC   GL237286  17.722   0.487   9.200
 2747POPC   C1A37287  17.421   0.288   8.748
 2747POPC   D2A37288  17.367   0.006   8.416
 2747POPC   C3A37289  17.234   0.176   8.024
 2747POPC   C4A37290  17.407   0.142   7.634
 2747POPC   C1B37291  17.628   0.748   8.829
 2747POPC   C2B37292  17.400   0.717   8.406
 2747POPC   C3B37293  17.524   0.623   7.940
 2747POPC   C4B37294  17.524   0.603   7.459
 2748POPC   NC337295  33.953  34.999   9.494
 2748POPC   PO437296  33.765  35.624   9.622
 2748POPC   GL137297  33.749  35.395   9.235
 2748POPC   GL237298  33.419  35.445   9.069
 2748POPC   C1A37299  33.881  35.270   8.822
 2748POPC   D2A37300  33.765  35.485   8.443
 2748POPC   C3A37301  33.840  35.304   8.064
 2748POPC   C4A37302  34.102  35.245   7.733
 2748POPC   C1B37303  33.495  35.767   8.757
 2748POPC   C2B37304  33.393  35.859   8.327
 2748POPC   C3B37305  33.483  35.667   7.924
 2748POPC   C4B37306  33.645  35.396   7.595
 2749POPC   NC337307  34.547  43.856   9.468
 2749POPC   PO437308  34.919  44.369   9.239
 2749POPC   GL137309  34.662  44.043   9.000
 2749POPC   GL237310  34.326  43.826   9.029
 2749POPC   C1A37311  34.514  43.957   8.583
 2749POPC   D2A37312  34.325  44.112   8.214
 2749POPC   C3A37313  34.532  43.899   7.890
 2749POPC   C4A37314  34.847  43.904   7.600
 2749POPC   C1B37315  34.279  43.512   8.704
 2749POPC   C2B37316  34.290  43.617   8.263
 2749POPC   C3B37317  34.172  43.407   7.903
 2749POPC   C4B37318  34.479  43.420   7.624
 2750POPC   NC337319  43.717   6.856   9.526
 2750POPC   PO437320  44.221   6.375   9.440
 2750POPC   GL137321  43.951   6.421   9.091
 2750POPC   GL237322  43.821   6.757   9.047
 2750POPC   C1A37323  43.903   6.488   8.638
 2750POPC   D2A37324  43.678   6.772   8.373
 2750POPC   C3A37325  43.762   6.503   8.078
 2750POPC   C4A37326  43.613   6.489   7.711
 2750POPC   C1B37327  44.042   6.971   8.712
 2750POPC   C2B37328  44.181   6.795   8.321
 2750POPC   C3B37329  44.066   6.859   7.881
 2750POPC   C4B37330  44.140   6.593   7.533
 2751POPC   NC337331  38.955   9.977   9.336
 2751POPC   PO437332  38.402   9.832   9.634
 2751POPC   GL137333  38.481   9.794   9.211
 2751POPC   GL237334  38.345  10.094   9.140
 2751POPC   C1A37335  38.417   9.670   8.775
 2751POPC   D2A37336  38.654   9.780   8.387
 2751POPC   C3A37337  38.493   9.576   7.973
 2751POPC   C4A37338  38.523   9.571   7.510
 2751POPC   C1B37339  38.596  10.158   8.810
 2751POPC   C2B37340  38.525  10.299   8.426
 2751POPC   C3B37341  38.392  10.084   8.061
 2751POPC   C4B37342  38.560  10.042   7.688
 2752POPC   NC337343   9.607  11.527   9.500
 2752POPC   PO437344  10.113  11.068   9.454
 2752POPC   GL137345   9.843  11.139   9.061
 2752POPC   GL237346   9.487  11.264   9.077
 2752POPC   C1A37347   9.817  11.528   8.781
 2752POPC   D2A37348   9.639  11.597   8.372
 2752POPC   C3A37349   9.787  11.437   7.971
 2752POPC   C4A37350  10.079  11.293   7.633
 2752POPC   C1B37351   9.448  11.137   8.638
 2752POPC   C2B37352   9.409  10.976   8.215
 2752POPC   C3B37353   9.479  11.081   7.757
 2752POPC   C4B37354   9.257  11.206   7.328
 2753POPC   NC337355  24.170   5.987   9.641
 2753POPC   PO437356  23.604   5.582   9.566
 2753POPC   GL137357  23.610   5.724   9.163
 2753POPC   GL237358  23.832   5.463   9.096
 2753POPC   C1A37359  23.758   6.034   8.854
 2753POPC   D2A37360  23.964   5.993   8.436
 2753POPC   C3A37361  23.770   6.006   8.052
 2753POPC   C4A37362  23.906   5.963   7.644
 2753POPC   C1B37363  23.918   5.568   8.727
 2753POPC   C2B37364  23.734   5.518   8.357
 2753POPC   C3B37365  24.007   5.561   8.031
 2753POPC   C4B37366  23.914   5.442   7.639
 2754POPC   NC337367  32.884  37.596   9.803
 2754POPC   PO437368  33.309  37.926   9.565
 2754POPC   GL137369  33.239  37.826   9.156
 2754POPC   GL237370  33.096  37.499   9.087
 2754POPC   C1A37371  33.075  37.905   8.754
 2754POPC   D2A37372  32.775  37.904   8.425
 2754POPC   C3A37373  32.974  37.960   8.031
 2754POPC   C4A37374  32.898  38.033   7.625
 2754POPC   C1B37375  32.913  37.438   8.649
 2754POPC   C2B37376  32.985  37.475   8.191
 2754POPC   C3B37377  33.022  37.515   7.709
 2754POPC   C4B37378  33.036  37.349   7.247
 2755POPC   NC337379   6.144  30.497   9.609
 2755POPC   PO437380   5.658  30.927   9.451
 2755POPC   GL137381   5.957  30.766   9.206
 2755POPC   GL237382   5.866  30.456   9.168
 2755POPC   C1A37383   6.002  30.874   8.808
 2755POPC   D2A37384   5.797  30.720   8.488
 2755POPC   C3A37385   6.010  30.787   8.109
 2755POPC   C4A37386   5.801  30.899   7.750
 2755POPC   C1B37387   6.141  30.366   8.822
 2755POPC   C2B37388   6.196  30.386   8.370
 2755POPC   C3B37389   6.330  30.376   7.940
 2755POPC   C4B37390   5.983  30.440   7.673
 2756POPC   NC337391  26.810  32.619   9.774
 2756POPC   PO437392  26.968  33.163   9.456
 2756POPC   GL137393  26.935  32.864   9.125
 2756POPC   GL237394  26.876  33.132   8.944
 2756POPC   C1A37395  27.030  32.770   8.668
 2756POPC   D2A37396  27.003  33.134   8.388
 2756POPC   C3A37397  26.885  32.942   8.021
 2756POPC   C4A37398  27.079  32.919   7.606
 2756POPC   C1B37399  26.949  33.505   8.772
 2756POPC   C2B37400  27.120  33.691   8.409
 2756POPC   C3B37401  26.980  33.529   8.028
 2756POPC   C4B37402  26.738  33.304   7.705
 2757POPC   NC337403  11.281  38.873   9.632
 2757POPC   PO437404  11.618  38.279   9.533
 2757POPC   GL137405  11.397  38.362   9.156
 2757POPC   GL237406  11.270  38.701   9.156
 2757POPC   C1A37407  11.320  38.424   8.732
 2757POPC   D2A37408  11.363  38.236   8.362
 2757POPC   C3A37409  11.371  38.518   8.045
 2757POPC   C4A37410  11.090  38.411   7.742
 2757POPC   C1B37411  10.934  38.734   8.851
 2757POPC   C2B37412  11.013  38.744   8.378
 2757POPC   C3B37413  11.021  38.878   7.904
 2757POPC   C4B37414  11.006  38.753   7.398
 2758POPC   NC337415  24.791  39.821   9.321
 2758POPC   PO437416  25.361  40.012   9.539
 2758POPC   GL137417  25.338  40.087   9.103
 2758POPC   GL237418  25.636  39.892   9.126
 2758POPC   C1A37419  25.360  40.141   8.625
 2758POPC   D2A37420  25.248  39.998   8.198
 2758POPC   C3A37421  25.192  40.198   7.811
 2758POPC   C4A37422  25.157  40.032   7.391
 2758POPC   C1B37423  25.725  39.802   8.790
 2758POPC   C2B37424  25.541  39.677   8.456
 2758POPC   C3B37425  25.564  39.644   8.045
 2758POPC   C4B37426  25.554  39.875   7.710
 2759POPC   NC337427  39.537   4.105   9.831
 2759POPC   PO437428  39.023   4.036   9.337
 2759POPC   GL137429  39.180   4.294   9.042
 2759POPC   GL237430  39.317   4.600   9.224
 2759POPC   C1A37431  39.047   4.265   8.632
 2759POPC   D2A37432  38.992   4.005   8.289
 2759POPC   C3A37433  39.156   4.189   7.892
 2759POPC   C4A37434  39.199   4.087   7.452
 2759POPC   C1B37435  39.146   4.756   8.807
 2759POPC   C2B37436  39.347   4.625   8.384
 2759POPC   C3B37437  39.277   4.707   7.935
 2759POPC   C4B37438  39.200   4.582   7.515
 2760POPC   NC337439  16.000   0.151   9.704
 2760POPC   PO437440  16.343  44.839   9.214
 2760POPC   GL137441  16.169   0.213   9.060
 2760POPC   GL237442  15.973   0.513   9.112
 2760POPC   C1A37443  15.995   0.226   8.667
 2760POPC   D2A37444  15.963   0.494   8.361
 2760POPC   C3A37445  15.659   0.314   8.122
 2760POPC   C4A37446  15.828   0.232   7.746
 2760POPC   C1B37447  16.163   0.729   8.791
 2760POPC   C2B37448  16.432   0.727   8.437
 2760POPC   C3B37449  16.293   0.690   8.026
 2760POPC   C4B37450  16.297   0.439   7.703
 2761POPC   NC337451   1.662   8.778   9.318
 2761POPC   PO437452   2.309   9.037   9.415
 2761POPC   GL137453   1.996   9.107   9.061
 2761POPC   GL237454   1.975   8.780   8.926
 2761POPC   C1A37455   1.879   9.129   8.592
 2761POPC   D2A37456   2.056   8.719   8.413
 2761POPC   C3A37457   2.044   8.631   7.972
 2761POPC   C4A37458   1.933   8.979   7.746
 2761POPC   C1B37459   1.597   8.694   8.687
 2761POPC   C2B37460   1.431   8.945   8.368
 2761POPC   C3B37461   1.497   8.775   7.960
 2761POPC   C4B37462   1.469   8.699   7.521
 2762POPC   NC337463  36.048  21.165   9.519
 2762POPC   PO437464  36.373  21.653   9.397
 2762POPC   GL137465  36.291  21.345   9.104
 2762POPC   GL237466  36.402  20.995   9.175
 2762POPC   C1A37467  36.113  21.326   8.707
 2762POPC   D2A37468  35.985  21.143   8.335
 2762POPC   C3A37469  35.935  21.488   8.053
 2762POPC   C4A37470  35.875  21.609   7.649
 2762POPC   C1B37471  36.319  20.859   8.745
 2762POPC   C2B37472  36.499  21.004   8.352
 2762POPC   C3B37473  36.347  21.189   7.975
 2762POPC   C4B37474  36.397  21.546   7.692
 2763POPC   NC337475  33.338  11.885   9.594
 2763POPC   PO437476  32.753  11.789   9.220
 2763POPC   GL137477  32.853  12.218   9.130
 2763POPC   GL237478  33.207  12.252   9.254
 2763POPC   C1A37479  32.765  12.248   8.707
 2763POPC   D2A37480  32.871  11.835   8.490
 2763POPC   C3A37481  32.885  11.869   8.038
 2763POPC   C4A37482  32.793  12.196   7.763
 2763POPC   C1B37483  33.276  12.263   8.804
 2763POPC   C2B37484  33.122  12.359   8.370
 2763POPC   C3B37485  33.280  12.299   7.938
 2763POPC   C4B37486  33.262  12.042   7.559
 2764POPC   NC337487  24.986  28.655   9.489
 2764POPC   PO437488  25.286  29.310   9.479
 2764POPC   GL137489  25.011  29.163   9.155
 2764POPC   GL237490  24.865  28.838   9.034
 2764POPC   C1A37491  24.970  29.218   8.719
 2764POPC   D2A37492  25.255  29.239   8.398
 2764POPC   C3A37493  25.079  29.221   7.989
 2764POPC   C4A37494  25.239  29.261   7.577
 2764POPC   C1B37495  25.195  28.768   8.694
 2764POPC   C2B37496  25.224  28.749   8.243
 2764POPC   C3B37497  25.507  28.920   7.935
 2764POPC   C4B37498  25.746  28.733   7.643
 2765POPC   NC337499   9.366  36.726   9.547
 2765POPC   PO437500   9.982  36.640   9.749
 2765POPC   GL137501   9.901  36.779   9.220
 2765POPC   GL237502   9.592  36.848   9.121
 2765POPC   C1A37503   9.887  36.611   8.786
 2765POPC   D2A37504   9.990  36.518   8.366
 2765POPC   C3A37505   9.763  36.774   8.098
 2765POPC   C4A37506   9.678  36.907   7.673
 2765POPC   C1B37507   9.393  37.037   8.786
 2765POPC   C2B37508   9.267  36.889   8.394
 2765POPC   C3B37509   9.367  37.092   8.044
 2765POPC   C4B37510   9.295  37.269   7.707
 2766POPC   NC337511   4.765  32.183   9.751
 2766POPC   PO437512   4.195  32.032   9.527
 2766POPC   GL137513   4.468  32.083   9.179
 2766POPC   GL237514   4.687  31.808   9.116
 2766POPC   C1A37515   4.423  32.334   8.793
 2766POPC   D2A37516   4.250  32.433   8.398
 2766POPC   C3A37517   4.525  32.456   8.064
 2766POPC   C4A37518   4.358  32.490   7.687
 2766POPC   C1B37519   4.491  31.808   8.733
 2766POPC   C2B37520   4.453  31.962   8.363
 2766POPC   C3B37521   4.319  32.011   7.977
 2766POPC   C4B37522   4.455  31.971   7.594
 2767POPC   NC337523  41.032   7.949   9.345
 2767POPC   PO437524  41.066   7.279   9.469
 2767POPC   GL137525  40.831   7.444   9.125
 2767POPC   GL237526  40.611   7.711   9.133
 2767POPC   C1A37527  40.646   7.288   8.753
 2767POPC   D2A37528  40.827   7.333   8.359
 2767POPC   C3A37529  40.589   7.185   8.020
 2767POPC   C4A37530  40.693   7.281   7.661
 2767POPC   C1B37531  40.773   7.781   8.718
 2767POPC   C2B37532  40.640   7.830   8.308
 2767POPC   C3B37533  40.972   7.771   8.042
 2767POPC   C4B37534  41.297   7.555   7.832
 2768POPC   NC337535   3.293  40.837   9.295
 2768POPC   PO437536   2.723  41.080   9.605
 2768POPC   GL137537   2.811  40.968   9.157
 2768POPC   GL237538   2.721  40.657   8.999
 2768POPC   C1A37539   2.979  40.959   8.705
 2768POPC   D2A37540   2.816  40.742   8.336
 2768POPC   C3A37541   3.013  40.881   7.971
 2768POPC   C4A37542   2.865  40.923   7.556
 2768POPC   C1B37543   2.641  40.367   8.636
 2768POPC   C2B37544   2.615  40.276   8.185
 2768POPC   C3B37545   2.630  40.573   7.864
 2768POPC   C4B37546   2.374  40.913   7.746
 2769POPC   NC337547  33.634  18.643   9.336
 2769POPC   PO437548  33.625  19.383   9.501
 2769POPC   GL137549  33.639  19.241   9.081
 2769POPC   GL237550  33.827  18.974   9.002
 2769POPC   C1A37551  33.819  19.317   8.642
 2769POPC   D2A37552  33.940  19.498   8.256
 2769POPC   C3A37553  33.772  19.243   7.965
 2769POPC   C4A37554  33.938  19.097   7.629
 2769POPC   C1B37555  34.086  18.881   8.642
 2769POPC   C2B37556  34.086  18.721   8.234
 2769POPC   C3B37557  33.922  18.639   7.863
 2769POPC   C4B37558  33.526  18.767   7.766
 2770POPC   NC337559  35.852   8.359   9.481
 2770POPC   PO437560  36.512   8.107   9.495
 2770POPC   GL137561  36.232   8.102   9.135
 2770POPC   GL237562  36.131   8.466   9.068
 2770POPC   C1A37563  36.294   8.170   8.680
 2770POPC   D2A37564  36.072   8.413   8.383
 2770POPC   C3A37565  36.183   8.308   7.964
 2770POPC   C4A37566  36.276   8.319   7.510
 2770POPC   C1B37567  35.806   8.623   8.796
 2770POPC   C2B37568  35.611   8.661   8.378
 2770POPC   C3B37569  35.835   8.668   7.985
 2770POPC   C4B37570  35.767   8.355   7.656
 2771POPC   NC337571  34.331  14.873   9.507
 2771POPC   PO437572  34.556  15.538   9.531
 2771POPC   GL137573  34.547  15.255   9.202
 2771POPC   GL237574  34.196  15.238   9.168
 2771POPC   C1A37575  34.640  15.185   8.771
 2771POPC   D2A37576  34.695  15.491   8.437
 2771POPC   C3A37577  34.673  15.252   8.070
 2771POPC   C4A37578  34.546  15.223   7.662
 2771POPC   C1B37579  34.083  15.076   8.769
 2771POPC   C2B37580  34.277  15.132   8.398
 2771POPC   C3B37581  34.145  15.229   8.002
 2771POPC   C4B37582  34.093  14.977   7.679
 2772POPC   NC337583  10.817   0.825   9.300
 2772POPC   PO437584  10.517   1.256   9.684
 2772POPC   GL137585  10.505   1.233   9.246
 2772POPC   GL237586  10.791   1.482   9.180
 2772POPC   C1A37587  10.319   0.986   8.856
 2772POPC   D2A37588  10.357   1.129   8.400
 2772POPC   C3A37589  10.329   0.900   8.016
 2772POPC   C4A37590  10.477   1.031   7.623
 2772POPC   C1B37591  10.701   1.298   8.769
 2772POPC   C2B37592  10.888   1.164   8.390
 2772POPC   C3B37593  10.757   1.215   8.004
 2772POPC   C4B37594  10.821   1.395   7.602
 2773POPC   NC337595  21.438  29.827   9.301
 2773POPC   PO437596  21.128  30.377   9.625
 2773POPC   GL137597  21.266  30.298   9.210
 2773POPC   GL237598  21.060  30.120   9.094
 2773POPC   C1A37599  21.467  30.169   8.754
 2773POPC   D2A37600  21.461  30.030   8.280
 2773POPC   C3A37601  21.590  30.168   7.838
 2773POPC   C4A37602  21.655  30.150   7.365
 2773POPC   C1B37603  21.044  29.898   8.699
 2773POPC   C2B37604  20.922  29.946   8.265
 2773POPC   C3B37605  21.092  30.011   7.838
 2773POPC   C4B37606  21.146  30.282   7.461
 2774POPC   NC337607  23.905  21.086   9.464
 2774POPC   PO437608  23.396  21.547   9.604
 2774POPC   GL137609  23.570  21.523   9.199
 2774POPC   GL237610  23.585  21.170   9.094
 2774POPC   C1A37611  23.723  21.647   8.795
 2774POPC   D2A37612  23.590  21.801   8.418
 2774POPC   C3A37613  23.682  21.579   8.130
 2774POPC   C4A37614  23.679  21.554   7.734
 2774POPC   C1B37615  23.941  21.185   8.795
 2774POPC   C2B37616  23.875  21.171   8.374
 2774POPC   C3B37617  24.056  21.230   7.972
 2774POPC   C4B37618  24.003  21.227   7.526
 2775POPC   NC337619  41.799  26.416   9.552
 2775POPC   PO437620  41.247  26.049   9.436
 2775POPC   GL137621  41.451  25.918   9.100
 2775POPC   GL237622  41.198  25.731   9.029
 2775POPC   C1A37623  41.618  26.053   8.714
 2775POPC   D2A37624  41.598  26.282   8.312
 2775POPC   C3A37625  41.600  26.089   7.922
 2775POPC   C4A37626  41.379  26.210   7.588
 2775POPC   C1B37627  41.164  25.822   8.613
 2775POPC   C2B37628  41.404  25.802   8.298
 2775POPC   C3B37629  41.430  25.585   7.949
 2775POPC   C4B37630  41.519  25.726   7.525
 2776POPC   NC337631  13.935  24.879   9.383
 2776POPC   PO437632  13.761  25.488   9.416
 2776POPC   GL137633  13.573  25.420   9.029
 2776POPC   GL237634  13.476  25.111   9.164
 2776POPC   C1A37635  13.643  25.398   8.556
 2776POPC   D2A37636  13.409  25.588   8.216
 2776POPC   C3A37637  13.545  25.500   7.823
 2776POPC   C4A37638  13.934  25.401   7.718
 2776POPC   C1B37639  13.614  24.949   8.808
 2776POPC   C2B37640  13.846  24.933   8.478
 2776POPC   C3B37641  13.787  25.124   8.115
 2776POPC   C4B37642  13.656  24.955   7.727
 2777POPC   NC337643   1.129  22.811   9.610
 2777POPC   PO437644   1.786  23.059   9.621
 2777POPC   GL137645   1.532  22.845   9.307
 2777POPC   GL237646   1.288  23.097   9.223
 2777POPC   C1A37647   1.316  22.688   8.918
 2777POPC   D2A37648   1.160  22.747   8.479
 2777POPC   C3A37649   1.406  22.873   8.102
 2777POPC   C4A37650   1.133  22.803   7.756
 2777POPC   C1B37651   1.177  23.176   8.834
 2777POPC   C2B37652   1.366  23.244   8.481
 2777POPC   C3B37653   1.102  23.270   8.167
 2777POPC   C4B37654   1.227  23.311   7.783
 2778POPC   NC337655   9.032  29.212   9.540
 2778POPC   PO437656   8.603  28.834   9.214
 2778POPC   GL137657   8.777  29.201   9.037
 2778POPC   GL237658   9.152  29.301   9.056
 2778POPC   C1A37659   8.970  29.151   8.621
 2778POPC   D2A37660   9.075  29.322   8.253
 2778POPC   C3A37661   8.731  29.129   8.067
 2778POPC   C4A37662   8.756  28.846   7.753
 2778POPC   C1B37663   9.406  29.412   8.688
 2778POPC   C2B37664   9.604  29.314   8.264
 2778POPC   C3B37665   9.434  29.497   7.897
 2778POPC   C4B37666   9.108  29.220   7.743
 2779POPC   NC337667  18.359  14.481   9.461
 2779POPC   PO437668  18.164  13.863   9.567
 2779POPC   GL137669  18.180  14.100   9.130
 2779POPC   GL237670  18.559  14.225   9.084
 2779POPC   C1A37671  18.119  14.351   8.736
 2779POPC   D2A37672  18.182  14.370   8.301
 2779POPC   C3A37673  18.028  14.619   7.973
 2779POPC   C4A37674  17.926  14.506   7.549
 2779POPC   C1B37675  18.587  14.594   8.796
 2779POPC   C2B37676  18.768  14.687   8.372
 2779POPC   C3B37677  18.574  14.654   7.999
 2779POPC   C4B37678  18.428  14.638   7.597
 2780POPC   NC337679  43.354   0.462   9.452
 2780POPC   PO437680  43.085  44.916   9.194
 2780POPC   GL137681  43.208   0.282   9.000
 2780POPC   GL237682  42.944   0.505   9.007
 2780POPC   C1A37683  43.271   0.492   8.619
 2780POPC   D2A37684  43.383   0.320   8.242
 2780POPC   C3A37685  43.416   0.605   7.934
 2780POPC   C4A37686  43.426   0.477   7.523
 2780POPC   C1B37687  42.829   0.203   8.657
 2780POPC   C2B37688  42.838   0.221   8.232
 2780POPC   C3B37689  42.904   0.554   7.957
 2780POPC   C4B37690  42.852   0.720   7.562
 2781POPC   NC337691  14.848  24.953   9.296
 2781POPC   PO437692  14.389  24.471   9.634
 2781POPC   GL137693  14.396  24.549   9.190
 2781POPC   GL237694  14.092  24.414   9.185
 2781POPC   C1A37695  14.497  24.400   8.759
 2781POPC   D2A37696  14.427  24.081   8.418
 2781POPC   C3A37697  14.501  24.299   8.029
 2781POPC   C4A37698  14.680  24.372   7.626
 2781POPC   C1B37699  13.995  24.563   8.791
 2781POPC   C2B37700  14.157  24.537   8.380
 2781POPC   C3B37701  14.133  24.714   8.002
 2781POPC   C4B37702  14.208  24.544   7.627
 2782POPC   NC337703  17.556  29.681   9.405
 2782POPC   PO437704  17.669  30.306   9.506
 2782POPC   GL137705  17.392  30.197   9.173
 2782POPC   GL237706  17.423  29.918   8.993
 2782POPC   C1A37707  17.258  30.323   8.753
 2782POPC   D2A37708  17.247  30.235   8.314
 2782POPC   C3A37709  17.621  30.188   8.100
 2782POPC   C4A37710  17.681  30.432   7.789
 2782POPC   C1B37711  17.253  29.804   8.626
 2782POPC   C2B37712  17.498  29.735   8.282
 2782POPC   C3B37713  17.494  29.635   7.854
 2782POPC   C4B37714  17.203  29.382   7.568
 2783POPC   NC337715  27.872  23.717   9.831
 2783POPC   PO437716  27.335  23.910   9.595
 2783POPC   GL137717  27.622  23.745   9.318
 2783POPC   GL237718  27.429  23.932   9.093
 2783POPC   C1A37719  27.707  23.611   8.838
 2783POPC   D2A37720  27.534  23.693   8.418
 2783POPC   C3A37721  27.712  23.794   8.018
 2783POPC   C4A37722  27.893  23.717   7.647
 2783POPC   C1B37723  27.215  23.975   8.723
 2783POPC   C2B37724  27.098  24.045   8.301
 2783POPC   C3B37725  27.276  24.097   7.902
 2783POPC   C4B37726  27.412  23.853   7.555
 2784POPC   NC337727  15.554  10.396   9.474
 2784POPC   PO437728  15.258  10.907   9.514
 2784POPC   GL137729  15.092  10.650   9.192
 2784POPC   GL237730  15.171  10.318   9.129
 2784POPC   C1A37731  14.965  10.626   8.764
 2784POPC   D2A37732  15.146  10.470   8.380
 2784POPC   C3A37733  15.125  10.555   7.944
 2784POPC   C4A37734  15.507  10.676   7.757
 2784POPC   C1B37735  15.418  10.224   8.746
 2784POPC   C2B37736  15.584  10.177   8.310
 2784POPC   C3B37737  15.450  10.148   7.865
 2784POPC   C4B37738  15.322  10.308   7.448
 2785POPC   NC337739  26.518  34.488   9.302
 2785POPC   PO437740  27.094  34.908   9.420
 2785POPC   GL137741  26.946  34.693   9.120
 2785POPC   GL237742  26.797  34.968   8.971
 2785POPC   C1A37743  27.055  34.522   8.750
 2785POPC   D2A37744  27.172  34.799   8.432
 2785POPC   C3A37745  27.159  34.585   8.063
 2785POPC   C4A37746  26.840  34.547   7.795
 2785POPC   C1B37747  26.607  34.740   8.659
 2785POPC   C2B37748  26.677  34.668   8.268
 2785POPC   C3B37749  26.371  34.536   8.002
 2785POPC   C4B37750  26.370  34.678   7.612
 2786POPC   NC337751  30.485  25.681   9.230
 2786POPC   PO437752  30.835  25.122   9.503
 2786POPC   GL137753  30.728  25.117   9.055
 2786POPC   GL237754  30.402  25.182   8.950
 2786POPC   C1A37755  30.766  25.121   8.574
 2786POPC   D2A37756  30.930  24.994   8.156
 2786POPC   C3A37757  30.707  25.125   7.766
 2786POPC   C4A37758  30.773  25.076   7.291
 2786POPC   C1B37759  30.341  25.456   8.572
 2786POPC   C2B37760  30.451  25.559   8.128
 2786POPC   C3B37761  30.255  25.628   7.756
 2786POPC   C4B37762  30.476  25.427   7.429
 2787POPC   NC337763   8.692  43.306   9.701
 2787POPC   PO437764   8.049  43.174   9.456
 2787POPC   GL137765   8.102  43.350   9.093
 2787POPC   GL237766   8.435  43.484   9.212
 2787POPC   C1A37767   7.933  43.160   8.706
 2787POPC   D2A37768   7.888  42.878   8.328
 2787POPC   C3A37769   7.960  43.080   7.961
 2787POPC   C4A37770   7.899  43.082   7.534
 2787POPC   C1B37771   8.474  43.338   8.766
 2787POPC   C2B37772   8.362  43.097   8.408
 2787POPC   C3B37773   8.373  42.802   8.092
 2787POPC   C4B37774   8.417  43.064   7.721
 2788POPC   NC337775  20.919  34.111   9.412
 2788POPC   PO437776  21.529  33.814   9.449
 2788POPC   GL137777  21.292  33.762   9.079
 2788POPC   GL237778  21.055  33.984   8.954
 2788POPC   C1A37779  21.498  33.543   8.772
 2788POPC   D2A37780  21.805  33.704   8.511
 2788POPC   C3A37781  21.509  33.713   8.185
 2788POPC   C4A37782  21.331  33.601   7.817
 2788POPC   C1B37783  21.143  33.863   8.542
 2788POPC   C2B37784  20.959  33.777   8.134
 2788POPC   C3B37785  21.050  34.024   7.759
 2788POPC   C4B37786  21.138  34.197   7.381
 2789POPC   NC337787   3.883  43.906   9.322
 2789POPC   PO437788   4.522  43.835   9.573
 2789POPC   GL137789   4.365  43.763   9.192
 2789POPC   GL237790   4.313  44.114   9.114
 2789POPC   C1A37791   4.454  43.743   8.760
 2789POPC   D2A37792   4.178  43.729   8.419
 2789POPC   C3A37793   4.408  43.769   8.047
 2789POPC   C4A37794   4.473  43.885   7.619
 2789POPC   C1B37795   3.998  44.290   8.798
 2789POPC   C2B37796   3.926  44.167   8.371
 2789POPC   C3B37797   4.123  44.202   7.951
 2789POPC   C4B37798   4.130  44.208   7.490
 2790POPC   NC337799  26.035  35.623   9.393
 2790POPC   PO437800  26.109  34.992   9.701
 2790POPC   GL137801  25.962  35.182   9.172
 2790POPC   GL237802  26.254  35.358   9.035
 2790POPC   C1A37803  25.859  35.379   8.724
 2790POPC   D2A37804  26.078  35.481   8.332
 2790POPC   C3A37805  25.852  35.475   7.944
 2790POPC   C4A37806  25.900  35.373   7.512
 2790POPC   C1B37807  26.346  35.182   8.662
 2790POPC   C2B37808  26.285  34.982   8.303
 2790POPC   C3B37809  26.497  35.041   7.936
 2790POPC   C4B37810  26.380  35.174   7.532
 2791POPC   NC337811  44.805   1.441   9.607
 2791POPC   PO437812  44.401   0.967   9.456
 2791POPC   GL137813  44.692   1.164   9.181
 2791POPC   GL237814  44.511   1.504   9.183
 2791POPC   C1A37815  44.770   1.030   8.748
 2791POPC   D2A37816  44.861   1.288   8.384
 2791POPC   C3A37817  44.682   1.228   8.026
 2791POPC   C4A37818  44.846   1.226   7.673
 2791POPC   C1B37819  44.324   1.282   8.818
 2791POPC   C2B37820  44.357   1.146   8.414
 2791POPC   C3B37821  44.180   1.324   8.038
 2791POPC   C4B37822  44.331   1.275   7.635
 2792POPC   NC337823  32.744  24.711   9.299
 2792POPC   PO437824  33.038  24.152   9.309
 2792POPC   GL137825  33.077  24.452   9.006
 2792POPC   GL237826  33.265  24.680   9.212
 2792POPC   C1A37827  32.954  24.572   8.595
 2792POPC   D2A37828  33.075  24.376   8.220
 2792POPC   C3A37829  32.866  24.455   7.858
 2792POPC   C4A37830  32.890  24.434   7.378
 2792POPC   C1B37831  33.494  24.717   8.846
 2792POPC   C2B37832  33.570  24.721   8.400
 2792POPC   C3B37833  33.388  24.682   7.975
 2792POPC   C4B37834  33.424  24.694   7.529
 2793POPC   NC337835  21.945   7.058   9.477
 2793POPC   PO437836  22.378   7.535   9.649
 2793POPC   GL137837  22.196   7.479   9.241
 2793POPC   GL237838  22.425   7.209   9.172
 2793POPC   C1A37839  22.261   7.586   8.791
 2793POPC   D2A37840  22.482   7.541   8.417
 2793POPC   C3A37841  22.317   7.396   8.017
 2793POPC   C4A37842  21.985   7.472   7.730
 2793POPC   C1B37843  22.112   7.120   8.852
 2793POPC   C2B37844  22.049   7.216   8.435
 2793POPC   C3B37845  22.108   6.925   8.141
 2793POPC   C4B37846  22.087   6.963   7.757
 2794POPC   NC337847  18.684   7.322   9.529
 2794POPC   PO437848  19.194   7.771   9.488
 2794POPC   GL137849  19.334   7.539   9.106
 2794POPC   GL237850  19.184   7.188   9.101
 2794POPC   C1A37851  19.185   7.490   8.657
 2794POPC   D2A37852  19.260   7.276   8.253
 2794POPC   C3A37853  19.228   7.529   7.900
 2794POPC   C4A37854  18.890   7.709   7.693
 2794POPC   C1B37855  19.040   6.982   8.704
 2794POPC   C2B37856  18.792   7.107   8.354
 2794POPC   C3B37857  18.796   7.251   7.930
 2794POPC   C4B37858  18.584   7.307   7.527
 2795POPC   NC337859  34.915  10.682   9.495
 2795POPC   PO437860  34.423  10.163   9.512
 2795POPC   GL137861  34.664  10.256   9.132
 2795POPC   GL237862  34.661  10.612   9.080
 2795POPC   C1A37863  34.698  10.355   8.662
 2795POPC   D2A37864  34.463  10.248   8.325
 2795POPC   C3A37865  34.648  10.440   7.981
 2795POPC   C4A37866  34.526  10.551   7.559
 2795POPC   C1B37867  34.700  10.927   8.791
 2795POPC   C2B37868  34.816  10.859   8.394
 2795POPC   C3B37869  34.664  10.940   8.021
 2795POPC   C4B37870  34.916  10.810   7.676
 2796POPC   NC337871  32.952  29.447   9.224
 2796POPC   PO437872  33.011  29.995   9.603
 2796POPC   GL137873  32.960  30.029   9.168
 2796POPC   GL237874  32.729  30.311   9.168
 2796POPC   C1A37875  33.164  29.888   8.742
 2796POPC   D2A37876  33.172  29.640   8.352
 2796POPC   C3A37877  33.057  29.842   7.959
 2796POPC   C4A37878  33.180  29.950   7.536
 2796POPC   C1B37879  32.665  30.086   8.754
 2796POPC   C2B37880  32.727  29.903   8.362
 2796POPC   C3B37881  32.529  29.789   7.963
 2796POPC   C4B37882  32.683  30.095   7.667
 2797POPC   NC337883   9.313  28.359   9.571
 2797POPC   PO437884   8.763  28.810   9.698
 2797POPC   GL137885   8.915  28.462   9.287
 2797POPC   GL237886   8.641  28.379   8.991
 2797POPC   C1A37887   9.132  28.371   8.874
 2797POPC   D2A37888   8.926  28.228   8.494
 2797POPC   C3A37889   9.127  28.298   8.110
 2797POPC   C4A37890   9.135  28.463   7.699
 2797POPC   C1B37891   8.744  28.678   8.628
 2797POPC   C2B37892   8.760  28.617   8.198
 2797POPC   C3B37893   8.649  28.362   7.824
 2797POPC   C4B37894   8.513  28.560   7.413
 2798POPC   NC337895  11.163  15.303   9.419
 2798POPC   PO437896  11.715  14.930   9.490
 2798POPC   GL137897  11.505  15.062   9.106
 2798POPC   GL237898  11.484  15.437   9.040
 2798POPC   C1A37899  11.250  15.030   8.727
 2798POPC   D2A37900  11.316  15.255   8.338
 2798POPC   C3A37901  11.240  15.092   7.928
 2798POPC   C4A37902  11.441  14.747   7.755
 2798POPC   C1B37903  11.053  15.498   8.805
 2798POPC   C2B37904  10.851  15.465   8.400
 2798POPC   C3B37905  11.059  15.581   8.033
 2798POPC   C4B37906  11.458  15.557   7.826
 2799POPC   NC337907  13.946  44.422   9.705
 2799POPC   PO437908  14.421  44.904   9.472
 2799POPC   GL137909  14.369  44.594   9.162
 2799POPC   GL237910  14.092  44.364   9.206
 2799POPC   C1A37911  14.375  44.712   8.739
 2799POPC   D2A37912  14.379  44.880   8.346
 2799POPC   C3A37913  14.680  44.714   8.054
 2799POPC   C4A37914  14.470  44.722   7.651
 2799POPC   C1B37915  13.920  44.455   8.819
 2799POPC   C2B37916  13.950  44.470   8.372
 2799POPC   C3B37917  14.011  44.629   7.943
 2799POPC   C4B37918  14.035  44.393   7.547
 2800POPC   NC337919   6.593  21.099   9.519
 2800POPC   PO437920   6.076  21.499   9.436
 2800POPC   GL137921   6.345  21.568   9.087
 2800POPC   GL237922   6.458  21.245   9.050
 2800POPC   C1A37923   6.463  21.567   8.631
 2800POPC   D2A37924   6.603  21.281   8.301
 2800POPC   C3A37925   6.756  21.455   7.915
 2800POPC   C4A37926   6.627  21.688   7.553
 2800POPC   C1B37927   6.817  21.165   8.776
 2800POPC   C2B37928   6.966  20.871   8.482
 2800POPC   C3B37929   6.986  20.989   8.079
 2800POPC   C4B37930   7.002  21.101   7.652
 2801POPC   NC337931  24.784  41.227   9.281
 2801POPC   PO437932  24.523  41.784   9.590
 2801POPC   GL137933  24.496  41.613   9.107
 2801POPC   GL237934  24.177  41.425   8.997
 2801POPC   C1A37935  24.581  41.400   8.684
 2801POPC   D2A37936  24.716  41.530   8.268
 2801POPC   C3A37937  24.528  41.514   7.874
 2801POPC   C4A37938  24.747  41.788   7.601
 2801POPC   C1B37939  24.211  41.748   8.676
 2801POPC   C2B37940  24.243  41.784   8.222
 2801POPC   C3B37941  24.274  41.935   7.779
 2801POPC   C4B37942  24.310  41.650   7.399
 2802POPC   NC337943  24.661  15.874   9.685
 2802POPC   PO437944  25.253  16.090   9.471
 2802POPC   GL137945  25.176  15.846   9.118
 2802POPC   GL237946  24.875  15.695   9.214
 2802POPC   C1A37947  25.353  15.900   8.714
 2802POPC   D2A37948  25.625  15.892   8.353
 2802POPC   C3A37949  25.337  15.908   8.018
 2802POPC   C4A37950  25.157  15.968   7.611
 2802POPC   C1B37951  24.934  15.492   8.794
 2802POPC   C2B37952  24.764  15.460   8.372
 2802POPC   C3B37953  24.892  15.620   7.952
 2802POPC   C4B37954  24.887  15.556   7.479
 2803POPC   NC337955  42.846  31.076   9.536
 2803POPC   PO437956  42.714  31.623   9.823
 2803POPC   GL137957  42.857  31.490   9.289
 2803POPC   GL237958  43.165  31.600   9.172
 2803POPC   C1A37959  42.864  31.561   8.787
 2803POPC   D2A37960  42.715  31.423   8.382
 2803POPC   C3A37961  42.964  31.423   8.039
 2803POPC   C4A37962  42.944  31.678   7.637
 2803POPC   C1B37963  43.353  31.353   8.787
 2803POPC   C2B37964  43.424  31.282   8.358
 2803POPC   C3B37965  43.356  31.066   7.999
 2803POPC   C4B37966  43.253  31.283   7.638
 2804POPC   NC337967  32.629  38.420   9.510
 2804POPC   PO437968  31.914  38.256   9.498
 2804POPC   GL137969  31.997  38.539   9.166
 2804POPC   GL237970  32.357  38.560   9.104
 2804POPC   C1A37971  32.018  38.676   8.751
 2804POPC   D2A37972  32.253  38.438   8.515
 2804POPC   C3A37973  32.015  38.329   8.163
 2804POPC   C4A37974  32.020  38.631   7.840
 2804POPC   C1B37975  32.693  38.617   8.806
 2804POPC   C2B37976  32.761  38.451   8.412
 2804POPC   C3B37977  32.503  38.475   8.074
 2804POPC   C4B37978  32.413  38.248   7.799
 2805POPC   NC337979  20.832  13.756   9.515
 2805POPC   PO437980  20.354  13.236   9.536
 2805POPC   GL137981  20.573  13.419   9.203
 2805POPC   GL237982  20.544  13.788   9.095
 2805POPC   C1A37983  20.502  13.368   8.803
 2805POPC   D2A37984  20.532  13.611   8.420
 2805POPC   C3A37985  20.544  13.352   8.048
 2805POPC   C4A37986  20.607  13.272   7.619
 2805POPC   C1B37987  20.358  14.070   8.790
 2805POPC   C2B37988  20.229  14.032   8.358
 2805POPC   C3B37989  20.468  13.931   7.983
 2805POPC   C4B37990  20.357  14.131   7.591
 2806POPC   NC337991   8.685  11.180   9.673
 2806POPC   PO437992   8.119  11.373   9.364
 2806POPC   GL137993   8.172  11.138   8.991
 2806POPC   GL237994   8.463  11.300   8.988
 2806POPC   C1A37995   8.380  11.024   8.567
 2806POPC   D2A37996   8.530  11.295   8.221
 2806POPC   C3A37997   8.188  11.379   7.983
 2806POPC   C4A37998   8.231  11.104   7.668
 2806POPC   C1B37999   8.354  11.521   8.648
 2806POPC   C2B38000   8.348  11.768   8.311
 2806POPC   C3B38001   8.538  11.772   7.912
 2806POPC   C4B38002   8.322  11.613   7.541
 2807POPC   NC338003  44.346   5.558   9.577
 2807POPC   PO438004  44.983   5.843   9.597
 2807POPC   GL138005  44.891   5.867   9.199
 2807POPC   GL238006  44.688   5.586   9.185
 2807POPC   C1A38007  44.694   5.925   8.815
 2807POPC   D2A38008  44.698   5.811   8.414
 2807POPC   C3A38009  44.717   6.132   8.110
 2807POPC   C4A38010  44.528   6.060   7.707
 2807POPC   C1B38011  44.345   5.505   8.873
 2807POPC   C2B38012  44.182   5.636   8.467
 2807POPC   C3B38013  44.342   5.722   8.057
 2807POPC   C4B38014  44.577   5.468   7.771
 2808POPC   NC338015  10.375   4.264   9.583
 2808POPC   PO438016  11.063   4.228   9.644
 2808POPC   GL138017  10.761   4.261   9.238
 2808POPC   GL238018  10.627   4.560   9.236
 2808POPC   C1A38019  10.495   4.221   8.845
 2808POPC   D2A38020  10.317   4.130   8.429
 2808POPC   C3A38021  10.501   4.196   8.042
 2808POPC   C4A38022  10.462   4.031   7.636
 2808POPC   C1B38023  10.752   4.683   8.808
 2808POPC   C2B38024  10.606   4.568   8.422
 2808POPC   C3B38025  10.669   4.693   8.019
 2808POPC   C4B38026  10.481   4.550   7.665
 2809POPC   NC338027   0.742  41.666   9.473
 2809POPC   PO438028   0.116  41.939   9.392
 2809POPC   GL138029   0.396  41.831   9.097
 2809POPC   GL238030   0.389  41.469   9.104
 2809POPC   C1A38031   0.367  41.719   8.669
 2809POPC   D2A38032   0.476  41.427   8.385
 2809POPC   C3A38033   0.455  41.611   7.978
 2809POPC   C4A38034   0.374  41.573   7.532
 2809POPC   C1B38035   0.765  41.395   8.876
 2809POPC   C2B38036   0.980  41.396   8.505
 2809POPC   C3B38037   0.916  41.407   8.098
 2809POPC   C4B38038   0.763  41.307   7.708
 2810POPC   NC338039  23.005  14.067   9.545
 2810POPC   PO438040  22.575  14.518   9.548
 2810POPC   GL138041  22.827  14.462   9.165
 2810POPC   GL238042  22.685  14.137   9.121
 2810POPC   C1A38043  23.209  14.423   8.848
 2810POPC   D2A38044  23.398  14.650   8.443
 2810POPC   C3A38045  23.366  14.509   7.981
 2810POPC   C4A38046  23.257  14.517   7.496
 2810POPC   C1B38047  22.860  14.092   8.700
 2810POPC   C2B38048  22.903  14.432   8.434
 2810POPC   C3B38049  22.796  14.551   8.072
 2810POPC   C4B38050  22.804  14.432   7.675
 2811POPC   NC338051  37.296  14.947   9.485
 2811POPC   PO438052  37.904  15.209   9.485
 2811POPC   GL138053  37.607  15.278   9.162
 2811POPC   GL238054  37.752  15.055   8.983
 2811POPC   C1A38055  37.504  15.425   8.752
 2811POPC   D2A38056  37.689  15.118   8.480
 2811POPC   C3A38057  37.704  15.191   8.086
 2811POPC   C4A38058  37.496  15.146   7.727
 2811POPC   C1B38059  38.022  15.378   8.800
 2811POPC   C2B38060  38.226  15.387   8.381
 2811POPC   C3B38061  38.130  15.410   7.922
 2811POPC   C4B38062  37.985  15.200   7.536
 2812POPC   NC338063  27.933  13.773   9.419
 2812POPC   PO438064  27.352  13.497   9.372
 2812POPC   GL138065  27.517  13.818   9.062
 2812POPC   GL238066  27.853  13.749   8.908
 2812POPC   C1A38067  27.450  13.990   8.653
 2812POPC   D2A38068  27.372  13.692   8.342
 2812POPC   C3A38069  27.527  13.728   7.949
 2812POPC   C4A38070  27.936  13.556   7.834
 2812POPC   C1B38071  27.550  13.405   8.741
 2812POPC   C2B38072  27.445  13.173   8.355
 2812POPC   C3B38073  27.568  13.188   7.938
 2812POPC   C4B38074  27.560  13.395   7.525
 2813POPC   NC338075  42.070  16.647   9.384
 2813POPC   PO438076  42.495  17.105   9.691
 2813POPC   GL138077  42.580  16.923   9.252
 2813POPC   GL238078  42.497  16.601   9.133
 2813POPC   C1A38079  42.594  16.966   8.795
 2813POPC   D2A38080  42.305  16.756   8.495
 2813POPC   C3A38081  42.354  16.816   8.040
 2813POPC   C4A38082  42.655  16.871   7.652
 2813POPC   C1B38083  42.276  16.344   8.820
 2813POPC   C2B38084  41.986  16.340   8.491
 2813POPC   C3B38085  42.127  16.310   8.051
 2813POPC   C4B38086  42.213  16.536   7.637
 2814POPC   NC338087  35.684  15.525   9.457
 2814POPC   PO438088  36.252  15.169   9.381
 2814POPC   GL138089  35.943  15.020   9.095
 2814POPC   GL238090  35.906  15.319   8.905
 2814POPC   C1A38091  35.987  14.833   8.667
 2814POPC   D2A38092  36.088  15.029   8.267
 2814POPC   C3A38093  35.937  14.866   7.878
 2814POPC   C4A38094  36.294  15.022   7.678
 2814POPC   C1B38095  36.350  15.180   8.730
 2814POPC   C2B38096  36.564  15.364   8.363
 2814POPC   C3B38097  36.418  15.465   7.955
 2814POPC   C4B38098  35.980  15.385   7.849
 2815POPC   NC338099  12.494  36.897   9.687
 2815POPC   PO438100  12.911  36.361   9.680
 2815POPC   GL138101  12.899  36.565   9.251
 2815POPC   GL238102  12.590  36.686   9.222
 2815POPC   C1A38103  12.931  36.841   8.856
 2815POPC   D2A38104  12.931  36.647   8.436
 2815POPC   C3A38105  12.950  36.868   8.059
 2815POPC   C4A38106  13.105  36.923   7.649
 2815POPC   C1B38107  12.588  36.470   8.813
 2815POPC   C2B38108  12.433  36.604   8.436
 2815POPC   C3B38109  12.540  36.500   8.044
 2815POPC   C4B38110  12.652  36.670   7.675
 2816POPC   NC338111  30.988  33.346   9.107
 2816POPC   PO438112  30.643  32.933   9.547
 2816POPC   GL138113  30.602  32.945   9.110
 2816POPC   GL238114  30.948  32.858   9.052
 2816POPC   C1A38115  30.424  33.078   8.693
 2816POPC   D2A38116  30.651  33.228   8.329
 2816POPC   C3A38117  30.436  33.374   7.965
 2816POPC   C4A38118  30.457  33.286   7.518
 2816POPC   C1B38119  30.874  32.847   8.628
 2816POPC   C2B38120  30.543  32.646   8.442
 2816POPC   C3B38121  30.388  32.848   8.111
 2816POPC   C4B38122  30.740  33.001   7.836
 2817POPC   NC338123  11.372  39.682   9.832
 2817POPC   PO438124  11.319  40.148   9.328
 2817POPC   GL138125  11.501  39.954   9.025
 2817POPC   GL238126  11.236  39.937   8.849
 2817POPC   C1A38127  11.739  40.061   8.693
 2817POPC   D2A38128  11.558  40.172   8.324
 2817POPC   C3A38129  11.662  40.139   7.891
 2817POPC   C4A38130  11.611  39.996   7.456
 2817POPC   C1B38131  11.018  39.600   8.692
 2817POPC   C2B38132  10.844  39.648   8.318
 2817POPC   C3B38133  10.966  39.936   7.975
 2817POPC   C4B38134  11.097  39.790   7.578
 2818POPC   NC338135  36.425  11.993   9.344
 2818POPC   PO438136  35.951  11.709   9.725
 2818POPC   GL138137  35.952  12.137   9.293
 2818POPC   GL238138  36.168  12.030   8.925
 2818POPC   C1A38139  35.889  12.439   8.923
 2818POPC   D2A38140  36.096  12.308   8.516
 2818POPC   C3A38141  36.003  12.391   8.088
 2818POPC   C4A38142  36.235  12.261   7.736
 2818POPC   C1B38143  36.217  11.674   8.598
 2818POPC   C2B38144  36.296  11.616   8.141
 2818POPC   C3B38145  36.112  11.763   7.724
 2818POPC   C4B38146  36.052  11.786   7.236
 2819POPC   NC338147  37.896  11.201   9.498
 2819POPC   PO438148  38.431  11.561   9.420
 2819POPC   GL138149  38.466  11.328   9.074
 2819POPC   GL238150  38.246  11.063   9.144
 2819POPC   C1A38151  38.658  11.439   8.717
 2819POPC   D2A38152  38.767  11.558   8.393
 2819POPC   C3A38153  38.440  11.542   8.163
 2819POPC   C4A38154  38.524  11.535   7.746
 2819POPC   C1B38155  38.428  10.934   8.751
 2819POPC   C2B38156  38.492  11.055   8.352
 2819POPC   C3B38157  38.376  11.084   7.930
 2819POPC   C4B38158  38.037  10.893   7.778
 2820POPC   NC338159  43.963  16.096   9.414
 2820POPC   PO438160  43.366  16.291   9.268
 2820POPC   GL138161  43.671  16.050   9.006
 2820POPC   GL238162  43.868  15.743   9.030
 2820POPC   C1A38163  43.670  15.989   8.599
 2820POPC   D2A38164  43.867  15.835   8.273
 2820POPC   C3A38165  43.738  16.019   7.885
 2820POPC   C4A38166  43.532  16.430   7.827
 2820POPC   C1B38167  44.171  15.894   8.745
 2820POPC   C2B38168  44.367  15.817   8.374
 2820POPC   C3B38169  44.259  15.893   7.987
 2820POPC   C4B38170  44.088  15.673   7.692
 2821POPC   NC338171  30.754   4.622   9.505
 2821POPC   PO438172  30.771   3.942   9.632
 2821POPC   GL138173  30.658   4.108   9.206
 2821POPC   GL238174  30.455   4.412   9.114
 2821POPC   C1A38175  30.705   4.131   8.749
 2821POPC   D2A38176  30.940   4.032   8.366
 2821POPC   C3A38177  30.878   4.317   8.020
 2821POPC   C4A38178  30.512   4.174   7.805
 2821POPC   C1B38179  30.587   4.626   8.677
 2821POPC   C2B38180  30.541   4.631   8.233
 2821POPC   C3B38181  30.268   4.609   7.873
 2821POPC   C4B38182  30.293   4.426   7.416
 2822POPC   NC338183  40.375   8.683   9.516
 2822POPC   PO438184  39.813   9.033   9.479
 2822POPC   GL138185  39.890   8.806   9.133
 2822POPC   GL238186  40.203   8.938   9.090
 2822POPC   C1A38187  39.858   8.968   8.707
 2822POPC   D2A38188  40.120   9.071   8.398
 2822POPC   C3A38189  39.961   8.998   8.022
 2822POPC   C4A38190  39.694   8.637   7.923
 2822POPC   C1B38191  40.284   9.310   8.825
 2822POPC   C2B38192  40.548   9.327   8.433
 2822POPC   C3B38193  40.486   9.118   8.030
 2822POPC   C4B38194  40.249   9.315   7.699
 2823POPC   NC338195   5.084  39.291   9.551
 2823POPC   PO438196   5.412  38.912   9.182
 2823POPC   GL138197   5.168  39.251   9.054
 2823POPC   GL238198   4.823  39.362   9.133
 2823POPC   C1A38199   5.148  39.373   8.683
 2823POPC   D2A38200   5.215  39.163   8.337
 2823POPC   C3A38201   5.007  39.325   8.016
 2823POPC   C4A38202   5.148  39.261   7.642
 2823POPC   C1B38203   4.634  39.305   8.768
 2823POPC   C2B38204   4.641  39.124   8.360
 2823POPC   C3B38205   4.571  38.924   7.984
 2823POPC   C4B38206   4.585  39.187   7.649
 2824POPC   NC338207  39.510  11.747   9.417
 2824POPC   PO438208  39.690  12.351   9.576
 2824POPC   GL138209  39.356  12.236   9.170
 2824POPC   GL238210  39.216  11.930   9.059
 2824POPC   C1A38211  39.379  12.120   8.640
 2824POPC   D2A38212  39.489  11.856   8.268
 2824POPC   C3A38213  39.433  12.203   7.983
 2824POPC   C4A38214  39.617  12.289   7.571
 2824POPC   C1B38215  38.931  11.934   8.716
 2824POPC   C2B38216  38.995  11.993   8.289
 2824POPC   C3B38217  38.939  11.785   7.928
 2824POPC   C4B38218  39.067  12.074   7.625
 2825POPC   NC338219   6.351   7.990   9.489
 2825POPC   PO438220   6.982   8.192   9.502
 2825POPC   GL138221   6.887   8.327   9.122
 2825POPC   GL238222   6.585   8.207   9.067
 2825POPC   C1A38223   7.009   8.300   8.717
 2825POPC   D2A38224   6.630   8.280   8.521
 2825POPC   C3A38225   6.658   8.221   8.097
 2825POPC   C4A38226   6.986   8.129   7.780
 2825POPC   C1B38227   6.340   7.960   8.805
 2825POPC   C2B38228   6.374   7.854   8.378
 2825POPC   C3B38229   6.187   7.959   7.998
 2825POPC   C4B38230   6.501   7.896   7.720
 2826POPC   NC338231  32.693  23.859   9.446
 2826POPC   PO438232  32.097  23.493   9.446
 2826POPC   GL138233  32.142  23.625   9.049
 2826POPC   GL238234  32.399  23.846   9.048
 2826POPC   C1A38235  32.045  23.878   8.692
 2826POPC   D2A38236  31.927  24.053   8.293
 2826POPC   C3A38237  31.902  23.729   7.947
 2826POPC   C4A38238  32.075  23.508   7.586
 2826POPC   C1B38239  32.529  23.648   8.672
 2826POPC   C2B38240  32.304  23.649   8.283
 2826POPC   C3B38241  32.402  23.782   7.865
 2826POPC   C4B38242  32.605  23.492   7.606
 2827POPC   NC338243  35.597   2.999   9.477
 2827POPC   PO438244  35.021   2.631   9.548
 2827POPC   GL138245  35.222   2.747   9.207
 2827POPC   GL238246  34.989   2.937   9.100
 2827POPC   C1A38247  35.469   2.647   8.852
 2827POPC   D2A38248  35.342   2.469   8.495
 2827POPC   C3A38249  35.496   2.606   8.110
 2827POPC   C4A38250  35.336   2.574   7.716
 2827POPC   C1B38251  35.207   3.093   8.782
 2827POPC   C2B38252  35.476   3.021   8.452
 2827POPC   C3B38253  35.402   3.104   8.034
 2827POPC   C4B38254  35.147   3.047   7.676
 2828POPC   NC338255  35.516  28.453   9.436
 2828POPC   PO438256  34.874  28.702   9.529
 2828POPC   GL138257  35.063  28.496   9.182
 2828POPC   GL238258  35.244  28.795   9.166
 2828POPC   C1A38259  35.072  28.206   8.822
 2828POPC   D2A38260  35.258  27.984   8.459
 2828POPC   C3A38261  35.134  28.138   8.054
 2828POPC   C4A38262  35.426  28.217   7.720
 2828POPC   C1B38263  35.324  28.708   8.759
 2828POPC   C2B38264  35.172  28.499   8.402
 2828POPC   C3B38265  35.194  28.638   7.959
 2828POPC   C4B38266  34.999  28.912   7.655
 2829POPC   NC338267  44.527   3.090   9.543
 2829POPC   PO438268  44.761   2.505   9.354
 2829POPC   GL138269  44.648   2.565   8.992
 2829POPC   GL238270  44.377   2.754   9.097
 2829POPC   C1A38271  44.742   2.531   8.566
 2829POPC   D2A38272  44.495   2.586   8.201
 2829POPC   C3A38273  44.785   2.575   7.870
 2829POPC   C4A38274   0.013   2.910   7.702
 2829POPC   C1B38275  44.327   2.810   8.669
 2829POPC   C2B38276  44.446   3.104   8.347
 2829POPC   C3B38277  44.519   3.015   7.924
 2829POPC   C4B38278  44.267   2.682   7.731
 2830POPC   NC338279  31.092  14.357   9.586
 2830POPC   PO438280  30.511  14.209   9.494
 2830POPC   GL138281  30.745  14.386   9.177
 2830POPC   GL238282  30.777  14.066   9.070
 2830POPC   C1A38283  30.733  14.568   8.765
 2830POPC   D2A38284  30.920  14.516   8.346
 2830POPC   C3A38285  30.833  14.655   7.909
 2830POPC   C4A38286  30.504  14.651   7.629
 2830POPC   C1B38287  30.728  14.057   8.632
 2830POPC   C2B38288  30.795  14.017   8.218
 2830POPC   C3B38289  30.609  14.204   7.941
 2830POPC   C4B38290  30.824  14.243   7.610
 2831POPC   NC338291  28.642   3.850   9.492
 2831POPC   PO438292  28.251   3.307   9.658
 2831POPC   GL138293  28.247   3.528   9.257
 2831POPC   GL238294  28.455   3.372   9.036
 2831POPC   C1A38295  28.313   3.845   8.904
 2831POPC   D2A38296  28.167   3.909   8.468
 2831POPC   C3A38297  28.345   3.756   8.083
 2831POPC   C4A38298  28.216   3.683   7.658
 2831POPC   C1B38299  28.115   3.405   8.750
 2831POPC   C2B38300  28.023   3.423   8.357
 2831POPC   C3B38301  28.206   3.273   8.007
 2831POPC   C4B38302  28.040   3.207   7.636
 2832POPC   NC338303  41.221  16.130   9.499
 2832POPC   PO438304  40.545  15.882   9.460
 2832POPC   GL138305  40.882  15.890   9.103
 2832POPC   GL238306  41.097  16.183   8.996
 2832POPC   C1A38307  40.839  15.860   8.646
 2832POPC   D2A38308  40.832  16.154   8.301
 2832POPC   C3A38309  40.674  15.972   7.909
 2832POPC   C4A38310  40.978  15.768   7.746
 2832POPC   C1B38311  41.028  16.523   8.690
 2832POPC   C2B38312  41.008  16.668   8.295
 2832POPC   C3B38313  41.158  16.453   7.968
 2832POPC   C4B38314  40.976  16.279   7.611
 2833POPC   NC338315   4.605  35.973   9.675
 2833POPC   PO438316   4.266  36.470   9.719
 2833POPC   GL138317   4.342  36.245   9.291
 2833POPC   GL238318   4.440  35.951   9.119
 2833POPC   C1A38319   4.283  36.315   8.815
 2833POPC   D2A38320   4.410  36.111   8.439
 2833POPC   C3A38321   4.274  36.327   8.093
 2833POPC   C4A38322   4.541  36.289   7.758
 2833POPC   C1B38323   4.192  35.767   8.773
 2833POPC   C2B38324   4.101  35.702   8.332
 2833POPC   C3B38325   4.296  35.830   7.969
 2833POPC   C4B38326   4.484  35.681   7.605
 2834POPC   NC338327  29.328   2.466   9.401
 2834POPC   PO438328  29.005   1.885   9.290
 2834POPC   GL138329  29.343   2.062   9.013
 2834POPC   GL238330  29.361   2.424   8.907
 2834POPC   C1A38331  29.355   2.038   8.543
 2834POPC   D2A38332  29.229   1.773   8.179
 2834POPC   C3A38333  29.467   1.834   7.770
 2834POPC   C4A38334  29.393   1.827   7.294
 2834POPC   C1B38335  28.954   2.274   8.782
 2834POPC   C2B38336  28.946   2.279   8.362
 2834POPC   C3B38337  29.163   2.249   8.009
 2834POPC   C4B38338  28.923   2.083   7.685
 2835POPC   NC338339  40.007  42.781   9.419
 2835POPC   PO438340  40.231  43.421   9.206
 2835POPC   GL138341  39.894  43.205   9.100
 2835POPC   GL238342  39.618  43.424   9.149
 2835POPC   C1A38343  39.823  42.955   8.767
 2835POPC   D2A38344  39.665  42.949   8.364
 2835POPC   C3A38345  39.910  43.157   8.089
 2835POPC   C4A38346  40.166  43.041   7.749
 2835POPC   C1B38347  39.746  43.557   8.730
 2835POPC   C2B38348  39.573  43.524   8.312
 2835POPC   C3B38349  39.669  43.559   7.875
 2835POPC   C4B38350  40.118  43.553   7.811
 2836POPC   NC338351  14.758  30.155   9.500
 2836POPC   PO438352  15.429  30.027   9.599
 2836POPC   GL138353  15.300  29.956   9.162
 2836POPC   GL238354  14.969  29.884   9.120
 2836POPC   C1A38355  15.339  30.086   8.712
 2836POPC   D2A38356  15.404  30.295   8.309
 2836POPC   C3A38357  15.631  30.128   7.984
 2836POPC   C4A38358  15.273  30.089   7.754
 2836POPC   C1B38359  14.874  30.202   8.848
 2836POPC   C2B38360  14.888  30.212   8.411
 2836POPC   C3B38361  14.838  29.983   8.027
 2836POPC   C4B38362  14.735  29.992   7.582
 2837POPC   NC338363  38.935  14.869   9.585
 2837POPC   PO438364  39.069  15.554   9.581
 2837POPC   GL138365  39.088  15.286   9.199
 2837POPC   GL238366  39.060  14.921   9.102
 2837POPC   C1A38367  39.298  15.306   8.790
 2837POPC   D2A38368  39.510  15.236   8.372
 2837POPC   C3A38369  39.308  15.327   7.979
 2837POPC   C4A38370  38.957  15.199   7.709
 2837POPC   C1B38371  39.414  14.796   8.870
 2837POPC   C2B38372  39.555  14.720   8.467
 2837POPC   C3B38373  39.340  14.810   8.101
 2837POPC   C4B38374  39.382  14.833   7.689
 2838POPC   NC338375  36.490  31.387   9.479
 2838POPC   PO438376  35.949  31.088   9.681
 2838POPC   GL138377  35.903  31.055   9.181
 2838POPC   GL238378  36.060  31.383   9.134
 2838POPC   C1A38379  36.167  31.078   8.743
 2838POPC   D2A38380  36.248  30.820   8.407
 2838POPC   C3A38381  36.251  31.151   8.151
 2838POPC   C4A38382  36.084  31.217   7.795
 2838POPC   C1B38383  36.080  31.595   8.728
 2838POPC   C2B38384  36.357  31.637   8.351
 2838POPC   C3B38385  36.274  31.662   7.947
 2838POPC   C4B38386  35.850  31.686   7.871
 2839POPC   NC338387  43.526   3.708   9.613
 2839POPC   PO438388  44.189   3.718   9.669
 2839POPC   GL138389  44.014   3.601   9.226
 2839POPC   GL238390  43.725   3.646   9.163
 2839POPC   C1A38391  43.977   3.558   8.750
 2839POPC   D2A38392  44.166   3.537   8.364
 2839POPC   C3A38393  44.140   3.853   8.072
 2839POPC   C4A38394  43.976   3.771   7.668
 2839POPC   C1B38395  43.526   3.762   8.801
 2839POPC   C2B38396  43.594   3.574   8.408
 2839POPC   C3B38397  43.592   3.718   7.995
 2839POPC   C4B38398  43.479   3.914   7.590
 2840POPC   NC338399   9.404   1.857   9.503
 2840POPC   PO438400   9.880   1.469   9.782
 2840POPC   GL138401   9.908   1.746   9.363
 2840POPC   GL238402   9.988   2.102   9.272
 2840POPC   C1A38403   9.801   1.803   8.886
 2840POPC   D2A38404   9.612   2.118   8.541
 2840POPC   C3A38405   9.710   2.088   8.086
 2840POPC   C4A38406   9.976   1.844   7.792
 2840POPC   C1B38407  10.024   2.245   8.804
 2840POPC   C2B38408  10.009   2.434   8.352
 2840POPC   C3B38409  10.144   2.316   7.950
 2840POPC   C4B38410   9.969   2.412   7.583
 2841POPC   NC338411  31.209  10.137   9.611
 2841POPC   PO438412  31.375  10.755   9.499
 2841POPC   GL138413  31.374  10.477   9.138
 2841POPC   GL238414  31.675  10.622   9.092
 2841POPC   C1A38415  31.536  10.274   8.679
 2841POPC   D2A38416  31.888  10.131   8.418
 2841POPC   C3A38417  31.921  10.379   8.038
 2841POPC   C4A38418  31.579  10.486   7.732
 2841POPC   C1B38419  31.479  10.753   8.690
 2841POPC   C2B38420  31.400  10.875   8.273
 2841POPC   C3B38421  31.202  10.788   7.891
 2841POPC   C4B38422  31.292  10.770   7.420
 2842POPC   NC338423   0.705  35.385   9.472
 2842POPC   PO438424   0.075  35.534   9.275
 2842POPC   GL138425   0.445  35.332   9.043
 2842POPC   GL238426   0.719  35.610   9.015
 2842POPC   C1A38427   0.697  35.270   8.648
 2842POPC   D2A38428   0.688  35.440   8.222
 2842POPC   C3A38429   0.514  35.194   7.884
 2842POPC   C4A38430   0.598  35.209   7.449
 2842POPC   C1B38431   0.401  35.684   8.666
 2842POPC   C2B38432   0.270  35.752   8.230
 2842POPC   C3B38433   0.456  35.716   7.831
 2842POPC   C4B38434   0.616  35.759   7.441
 2843POPC   NC338435   0.557  15.724   9.492
 2843POPC   PO438436   0.040  16.126   9.417
 2843POPC   GL138437   0.344  16.054   9.117
 2843POPC   GL238438   0.679  16.196   9.199
 2843POPC   C1A38439   0.233  15.911   8.688
 2843POPC   D2A38440   0.285  15.727   8.274
 2843POPC   C3A38441   0.160  15.876   7.873
 2843POPC   C4A38442   0.369  15.869   7.484
 2843POPC   C1B38443   0.733  16.012   8.793
 2843POPC   C2B38444   0.613  16.120   8.412
 2843POPC   C3B38445   0.695  15.957   8.024
 2843POPC   C4B38446   0.839  16.011   7.642
 2844POPC   NC338447  36.349  16.369   9.739
 2844POPC   PO438448  35.836  16.004   9.392
 2844POPC   GL138449  36.106  15.771   9.147
 2844POPC   GL238450  35.987  16.016   8.899
 2844POPC   C1A38451  36.308  15.673   8.749
 2844POPC   D2A38452  36.078  15.551   8.362
 2844POPC   C3A38453  36.089  15.854   8.012
 2844POPC   C4A38454  36.445  15.991   7.775
 2844POPC   C1B38455  36.092  16.066   8.500
 2844POPC   C2B38456  36.206  16.313   8.181
 2844POPC   C3B38457  36.063  16.336   7.780
 2844POPC   C4B38458  36.247  16.238   7.378
 2845POPC   NC338459  10.276  30.644   9.547
 2845POPC   PO438460  10.756  30.315   9.331
 2845POPC   GL138461  10.503  30.603   9.100
 2845POPC   GL238462  10.507  30.963   9.195
 2845POPC   C1A38463  10.445  30.639   8.705
 2845POPC   D2A38464  10.254  30.492   8.374
 2845POPC   C3A38465  10.501  30.607   8.036
 2845POPC   C4A38466  10.413  30.682   7.624
 2845POPC   C1B38467  10.742  31.046   8.793
 2845POPC   C2B38468  10.669  30.980   8.380
 2845POPC   C3B38469  10.825  31.041   8.006
 2845POPC   C4B38470  10.745  31.252   7.663
 2846POPC   NC338471  30.069   6.746   9.410
 2846POPC   PO438472  29.722   6.194   9.513
 2846POPC   GL138473  29.666   6.549   9.131
 2846POPC   GL238474  29.888   6.867   8.962
 2846POPC   C1A38475  29.683   6.556   8.643
 2846POPC   D2A38476  29.698   6.750   8.222
 2846POPC   C3A38477  29.780   6.415   7.946
 2846POPC   C4A38478  30.168   6.327   7.772
 2846POPC   C1B38479  30.090   7.172   8.604
 2846POPC   C2B38480  30.255   7.080   8.168
 2846POPC   C3B38481  30.095   6.841   7.832
 2846POPC   C4B38482  29.669   6.802   7.666
 2847POPC   NC338483  11.727  36.532   9.480
 2847POPC   PO438484  12.051  37.073   9.756
 2847POPC   GL138485  12.167  36.974   9.296
 2847POPC   GL238486  11.884  36.896   9.171
 2847POPC   C1A38487  12.316  37.000   8.850
 2847POPC   D2A38488  12.123  37.037   8.406
 2847POPC   C3A38489  12.395  37.051   8.016
 2847POPC   C4A38490  12.224  36.933   7.600
 2847POPC   C1B38491  11.750  37.042   8.783
 2847POPC   C2B38492  11.589  37.177   8.395
 2847POPC   C3B38493  11.749  37.154   7.969
 2847POPC   C4B38494  11.787  37.136   7.474
 2848POPC   NC338495  40.174  22.167   9.491
 2848POPC   PO438496  39.635  22.379   9.131
 2848POPC   GL138497  40.095  22.385   9.038
 2848POPC   GL238498  40.311  22.071   9.037
 2848POPC   C1A38499  40.164  22.316   8.627
 2848POPC   D2A38500  39.960  22.114   8.334
 2848POPC   C3A38501  39.884  22.245   7.938
 2848POPC   C4A38502  40.142  22.194   7.584
 2848POPC   C1B38503  40.369  21.820   8.741
 2848POPC   C2B38504  40.175  21.657   8.400
 2848POPC   C3B38505  40.176  21.803   7.991
 2848POPC   C4B38506  40.173  21.522   7.693
 2849POPC   NC338507  41.344  16.992   9.489
 2849POPC   PO438508  41.757  16.346   9.520
 2849POPC   GL138509  41.583  16.642   9.212
 2849POPC   GL238510  41.273  16.769   9.041
 2849POPC   C1A38511  41.722  16.823   8.834
 2849POPC   D2A38512  41.450  16.798   8.503
 2849POPC   C3A38513  41.604  16.541   8.215
 2849POPC   C4A38514  41.742  16.568   7.823
 2849POPC   C1B38515  41.081  17.078   8.750
 2849POPC   C2B38516  41.173  17.188   8.282
 2849POPC   C3B38517  41.473  16.986   7.955
 2849POPC   C4B38518  41.712  16.983   7.513
 2850POPC   NC338519  41.234   2.895   9.504
 2850POPC   PO438520  41.886   2.964   9.290
 2850POPC   GL138521  41.519   3.004   9.094
 2850POPC   GL238522  41.492   2.644   9.110
 2850POPC   C1A38523  41.509   2.904   8.672
 2850POPC   D2A38524  41.740   2.917   8.342
 2850POPC   C3A38525  41.483   2.971   8.025
 2850POPC   C4A38526  41.256   2.778   7.710
 2850POPC   C1B38527  41.728   2.458   8.753
 2850POPC   C2B38528  41.552   2.425   8.335
 2850POPC   C3B38529  41.684   2.506   7.938
 2850POPC   C4B38530  42.055   2.308   7.768
 2851POPC   NC338531  10.736  36.613   9.579
 2851POPC   PO438532  10.292  37.023   9.422
 2851POPC   GL138533  10.487  36.800   9.122
 2851POPC   GL238534  10.873  36.786   9.116
 2851POPC   C1A38535  10.339  36.816   8.717
 2851POPC   D2A38536  10.159  37.013   8.372
 2851POPC   C3A38537  10.245  36.929   7.958
 2851POPC   C4A38538  10.229  37.213   7.606
 2851POPC   C1B38539  10.767  37.092   8.783
 2851POPC   C2B38540  10.680  36.938   8.372
 2851POPC   C3B38541  10.733  36.778   7.976
 2851POPC   C4B38542  10.705  37.166   7.837
 2852POPC   NC338543  28.550  37.754   9.269
 2852POPC   PO438544  28.188  37.443   9.738
 2852POPC   GL138545  28.058  37.639   9.331
 2852POPC   GL238546  28.124  37.336   9.151
 2852POPC   C1A38547  28.060  37.810   8.864
 2852POPC   D2A38548  28.376  37.798   8.505
 2852POPC   C3A38549  28.291  37.921   8.061
 2852POPC   C4A38550  28.396  37.734   7.652
 2852POPC   C1B38551  28.337  37.325   8.730
 2852POPC   C2B38552  28.467  37.334   8.304
 2852POPC   C3B38553  28.266  37.275   7.894
 2852POPC   C4B38554  28.378  37.193   7.458
 2853POPC   NC338555  36.846   3.313   9.508
 2853POPC   PO438556  36.704   4.003   9.399
 2853POPC   GL138557  36.857   3.706   9.138
 2853POPC   GL238558  37.170   3.652   9.189
 2853POPC   C1A38559  36.732   3.571   8.757
 2853POPC   D2A38560  36.525   3.654   8.391
 2853POPC   C3A38561  36.599   3.368   8.053
 2853POPC   C4A38562  36.553   3.546   7.668
 2853POPC   C1B38563  37.236   3.490   8.753
 2853POPC   C2B38564  36.997   3.309   8.377
 2853POPC   C3B38565  37.116   3.412   7.939
 2853POPC   C4B38566  37.342   3.794   7.743
 2854POPC   NC338567  36.549   0.460   9.830
 2854POPC   PO438568  37.027   0.215   9.381
 2854POPC   GL138569  37.075   0.552   9.020
 2854POPC   GL238570  37.152   0.372   8.701
 2854POPC   C1A38571  36.807   0.744   8.672
 2854POPC   D2A38572  36.723   0.497   8.299
 2854POPC   C3A38573  37.071   0.378   8.086
 2854POPC   C4A38574  37.238   0.664   7.779
 2854POPC   C1B38575  36.977   0.010   8.481
 2854POPC   C2B38576  36.644  44.998   8.172
 2854POPC   C3B38577  36.612   0.268   7.814
 2854POPC   C4B38578  37.004   0.239   7.584
 2855POPC   NC338579   6.684  12.609   9.616
 2855POPC   PO438580   6.753  11.984   9.621
 2855POPC   GL138581   6.820  12.132   9.212
 2855POPC   GL238582   6.970  11.835   9.109
 2855POPC   C1A38583   6.717  12.120   8.765
 2855POPC   D2A38584   6.788  11.961   8.336
 2855POPC   C3A38585   6.719  12.164   7.892
 2855POPC   C4A38586   6.425  12.120   7.531
 2855POPC   C1B38587   7.166  11.850   8.714
 2855POPC   C2B38588   7.248  11.724   8.302
 2855POPC   C3B38589   7.006  11.723   7.927
 2855POPC   C4B38590   6.959  11.866   7.514
 2856POPC   NC338591   3.429  44.751   9.606
 2856POPC   PO438592   3.776  44.187   9.670
 2856POPC   GL138593   3.545  44.333   9.253
 2856POPC   GL238594   3.486  44.701   9.107
 2856POPC   C1A38595   3.478  44.279   8.782
 2856POPC   D2A38596   3.618  44.548   8.460
 2856POPC   C3A38597   3.645  44.433   8.028
 2856POPC   C4A38598   3.250  44.387   7.834
 2856POPC   C1B38599   3.662  44.959   8.753
 2856POPC   C2B38600   3.704   0.010   8.265
 2856POPC   C3B38601   3.582  44.892   7.806
 2856POPC   C4B38602   3.728  44.876   7.358
 2857POPC   NC338603   3.544  19.565   9.384
 2857POPC   PO438604   3.825  18.911   9.441
 2857POPC   GL138605   3.656  19.126   9.080
 2857POPC   GL238606   3.889  19.409   8.978
 2857POPC   C1A38607   3.546  19.022   8.624
 2857POPC   D2A38608   3.704  19.153   8.208
 2857POPC   C3A38609   3.442  19.098   7.851
 2857POPC   C4A38610   3.112  19.365   7.707
 2857POPC   C1B38611   4.054  19.013   8.768
 2857POPC   C2B38612   3.983  18.751   8.378
 2857POPC   C3B38613   3.760  18.674   7.981
 2857POPC   C4B38614   3.713  18.808   7.507
 2858POPC   NC338615  13.957  24.365   9.735
 2858POPC   PO438616  13.429  24.702   9.470
 2858POPC   GL138617  13.596  24.569   9.131
 2858POPC   GL238618  13.600  24.278   9.182
 2858POPC   C1A38619  13.437  24.489   8.725
 2858POPC   D2A38620  13.371  24.783   8.375
 2858POPC   C3A38621  13.643  24.614   8.114
 2858POPC   C4A38622  13.735  24.408   7.764
 2858POPC   C1B38623  13.790  24.103   8.825
 2858POPC   C2B38624  13.755  24.207   8.418
 2858POPC   C3B38625  14.008  24.111   8.078
 2858POPC   C4B38626  13.792  23.888   7.750
 2859POPC   NC338627  13.166  26.727   9.400
 2859POPC   PO438628  12.536  26.482   9.387
 2859POPC   GL138629  12.734  26.743   9.092
 2859POPC   GL238630  13.032  26.575   8.943
 2859POPC   C1A38631  12.604  26.752   8.686
 2859POPC   D2A38632  12.834  26.608   8.355
 2859POPC   C3A38633  12.593  26.664   7.975
 2859POPC   C4A38634  12.843  26.561   7.640
 2859POPC   C1B38635  13.111  26.928   8.694
 2859POPC   C2B38636  13.283  26.927   8.298
 2859POPC   C3B38637  13.099  26.876   7.928
 2859POPC   C4B38638  12.999  27.064   7.522
 2860POPC   NC338639  13.549  25.884   9.372
 2860POPC   PO438640  14.115  26.163   9.495
 2860POPC   GL138641  13.887  26.155   9.089
 2860POPC   GL238642  13.955  25.801   9.049
 2860POPC   C1A38643  13.530  26.214   8.736
 2860POPC   D2A38644  13.295  26.094   8.315
 2860POPC   C3A38645  13.470  26.294   7.893
 2860POPC   C4A38646  13.670  26.260   7.452
 2860POPC   C1B38647  13.861  25.843   8.610
 2860POPC   C2B38648  13.951  25.703   8.175
 2860POPC   C3B38649  13.845  25.912   7.780
 2860POPC   C4B38650  13.956  25.819   7.352
 2861POPC   NC338651   2.988   9.120   9.902
 2861POPC   PO438652   2.912   8.664   9.330
 2861POPC   GL138653   2.782   8.818   8.964
 2861POPC   GL238654   2.466   8.716   9.023
 2861POPC   C1A38655   2.768   8.800   8.515
 2861POPC   D2A38656   2.533   8.668   8.176
 2861POPC   C3A38657   2.831   8.778   7.886
 2861POPC   C4A38658   3.053   9.089   7.717
 2861POPC   C1B38659   2.372   9.039   8.706
 2861POPC   C2B38660   2.296   9.171   8.279
 2861POPC   C3B38661   2.424   9.082   7.868
 2861POPC   C4B38662   2.398   8.732   7.602
 2862POPC   NC338663   3.957  36.571   9.394
 2862POPC   PO438664   3.414  36.117   9.364
 2862POPC   GL138665   3.584  36.384   9.070
 2862POPC   GL238666   3.881  36.147   9.108
 2862POPC   C1A38667   3.458  36.403   8.632
 2862POPC   D2A38668   3.384  36.094   8.308
 2862POPC   C3A38669   3.375  36.251   7.888
 2862POPC   C4A38670   3.161  35.990   7.606
 2862POPC   C1B38671   3.723  35.968   8.755
 2862POPC   C2B38672   3.882  36.143   8.407
 2862POPC   C3B38673   3.838  36.053   7.988
 2862POPC   C4B38674   3.851  36.438   7.775
 2863POPC   NC338675  16.671   1.607   9.529
 2863POPC   PO438676  17.096   1.043   9.543
 2863POPC   GL138677  16.744   1.074   9.248
 2863POPC   GL238678  16.663   1.393   9.071
 2863POPC   C1A38679  16.661   0.968   8.823
 2863POPC   D2A38680  16.884   0.965   8.429
 2863POPC   C3A38681  16.598   1.089   8.097
 2863POPC   C4A38682  16.628   0.896   7.706
 2863POPC   C1B38683  16.877   1.429   8.668
 2863POPC   C2B38684  16.932   1.454   8.193
 2863POPC   C3B38685  16.932   1.309   7.757
 2863POPC   C4B38686  17.073   1.458   7.352
 2864POPC   NC338687   0.658  14.363   9.260
 2864POPC   PO438688   0.138  14.565   9.514
 2864POPC   GL138689   0.160  14.534   9.071
 2864POPC   GL238690   0.264  14.189   8.934
 2864POPC   C1A38691   0.257  14.577   8.620
 2864POPC   D2A38692   0.190  14.361   8.255
 2864POPC   C3A38693   0.362  14.482   7.865
 2864POPC   C4A38694   0.363  14.558   7.406
 2864POPC   C1B38695   0.642  14.241   8.639
 2864POPC   C2B38696   0.691  14.304   8.221
 2864POPC   C3B38697   0.624  14.042   7.897
 2864POPC   C4B38698   0.756  14.000   7.446
 2865POPC   NC338699  17.382   3.150   9.398
 2865POPC   PO438700  17.455   2.491   9.345
 2865POPC   GL138701  17.436   2.776   9.043
 2865POPC   GL238702  17.730   2.971   9.068
 2865POPC   C1A38703  17.323   3.026   8.705
 2865POPC   D2A38704  17.481   3.132   8.298
 2865POPC   C3A38705  17.443   2.753   8.066
 2865POPC   C4A38706  17.054   2.575   7.999
 2865POPC   C1B38707  17.759   2.760   8.649
 2865POPC   C2B38708  17.921   2.876   8.245
 2865POPC   C3B38709  17.818   3.056   7.881
 2865POPC   C4B38710  17.598   3.161   7.499
 2866POPC   NC338711  15.475  21.100   9.495
 2866POPC   PO438712  14.828  21.316   9.427
 2866POPC   GL138713  15.132  21.306   9.111
 2866POPC   GL238714  14.972  21.597   8.986
 2866POPC   C1A38715  15.085  21.208   8.651
 2866POPC   D2A38716  14.985  21.349   8.205
 2866POPC   C3A38717  15.181  21.156   7.827
 2866POPC   C4A38718  15.379  20.978   7.443
 2866POPC   C1B38719  15.335  21.640   8.761
 2866POPC   C2B38720  15.266  21.799   8.358
 2866POPC   C3B38721  15.383  21.663   7.962
 2866POPC   C4B38722  15.036  21.636   7.736
 2867POPC   NC338723  36.736  29.576   9.511
 2867POPC   PO438724  36.939  30.215   9.419
 2867POPC   GL138725  37.045  29.836   9.168
 2867POPC   GL238726  36.703  29.817   9.056
 2867POPC   C1A38727  37.093  29.723   8.718
 2867POPC   D2A38728  36.815  29.816   8.310
 2867POPC   C3A38729  36.902  29.899   7.851
 2867POPC   C4A38730  37.052  29.619   7.516
 2867POPC   C1B38731  36.788  30.141   8.734
 2867POPC   C2B38732  37.158  30.187   8.419
 2867POPC   C3B38733  37.331  30.175   7.986
 2867POPC   C4B38734  37.285  30.483   7.600
 2868POPC   NC338735  29.636  12.168   9.857
 2868POPC   PO438736  29.051  12.215   9.553
 2868POPC   GL138737  29.254  12.158   9.138
 2868POPC   GL238738  29.495  12.389   9.105
 2868POPC   C1A38739  29.249  11.887   8.737
 2868POPC   D2A38740  29.205  12.017   8.294
 2868POPC   C3A38741  29.150  11.785   7.877
 2868POPC   C4A38742  29.271  11.972   7.465
 2868POPC   C1B38743  29.232  12.418   8.691
 2868POPC   C2B38744  29.039  12.498   8.274
 2868POPC   C3B38745  29.038  12.343   7.845
 2868POPC   C4B38746  29.058  12.434   7.392
 2869POPC   NC338747  17.999  42.670   9.732
 2869POPC   PO438748  18.449  43.044   9.359
 2869POPC   GL138749  18.246  42.627   9.241
 2869POPC   GL238750  18.241  42.324   9.454
 2869POPC   C1A38751  17.982  42.482   8.864
 2869POPC   D2A38752  17.765  42.532   8.453
 2869POPC   C3A38753  17.984  42.317   8.172
 2869POPC   C4A38754  18.137  42.405   7.766
 2869POPC   C1B38755  18.330  42.151   9.040
 2869POPC   C2B38756  18.325  42.220   8.571
 2869POPC   C3B38757  18.491  42.377   8.148
 2869POPC   C4B38758  18.616  42.128   7.789
 2870POPC   NC338759  33.417  42.509   9.920
 2870POPC   PO438760  33.648  42.090   9.416
 2870POPC   GL138761  33.529  42.276   9.065
 2870POPC   GL238762  33.824  42.269   8.864
 2870POPC   C1A38763  33.356  42.268   8.665
 2870POPC   D2A38764  33.381  42.463   8.284
 2870POPC   C3A38765  33.774  42.455   8.095
 2870POPC   C4A38766  33.699  42.199   7.720
 2870POPC   C1B38767  34.118  42.440   8.590
 2870POPC   C2B38768  33.996  42.836   8.451
 2870POPC   C3B38769  33.937  42.958   8.029
 2870POPC   C4B38770  33.901  42.697   7.623
 2871POPC   NC338771  13.844  26.553   9.494
 2871POPC   PO438772  13.452  27.086   9.425
 2871POPC   GL138773  13.475  26.905   9.032
 2871POPC   GL238774  13.632  26.615   9.033
 2871POPC   C1A38775  13.648  27.058   8.636
 2871POPC   D2A38776  13.825  26.881   8.241
 2871POPC   C3A38777  13.606  26.797   7.853
 2871POPC   C4A38778  13.340  26.652   7.523
 2871POPC   C1B38779  14.016  26.688   8.782
 2871POPC   C2B38780  14.258  26.992   8.514
 2871POPC   C3B38781  14.273  27.047   8.060
 2871POPC   C4B38782  14.131  26.706   7.795
 2872POPC   NC338783  38.061  24.941   9.369
 2872POPC   PO438784  37.610  25.436   9.609
 2872POPC   GL138785  37.806  25.472   9.231
 2872POPC   GL238786  37.581  25.716   9.152
 2872POPC   C1A38787  37.715  25.401   8.780
 2872POPC   D2A38788  37.915  25.231   8.440
 2872POPC   C3A38789  37.863  25.441   8.049
 2872POPC   C4A38790  37.575  25.322   7.737
 2872POPC   C1B38791  37.315  25.707   8.851
 2872POPC   C2B38792  37.310  25.568   8.488
 2872POPC   C3B38793  37.337  25.591   8.082
 2872POPC   C4B38794  37.507  25.813   7.730
 2873POPC   NC338795   1.652  41.238   9.380
 2873POPC   PO438796   2.043  41.798   9.454
 2873POPC   GL138797   1.959  41.585   9.124
 2873POPC   GL238798   2.171  41.314   9.241
 2873POPC   C1A38799   2.080  41.777   8.721
 2873POPC   D2A38800   1.782  41.881   8.371
 2873POPC   C3A38801   1.835  41.684   8.014
 2873POPC   C4A38802   2.019  41.948   7.731
 2873POPC   C1B38803   2.142  41.276   8.785
 2873POPC   C2B38804   1.984  41.361   8.421
 2873POPC   C3B38805   2.197  41.165   8.152
 2873POPC   C4B38806   2.208  41.417   7.809
 2874POPC   NC338807  23.508  26.456   9.518
 2874POPC   PO438808  23.354  27.120   9.365
 2874POPC   GL138809  23.753  27.117   9.157
 2874POPC   GL238810  23.675  26.784   9.086
 2874POPC   C1A38811  23.998  27.111   8.771
 2874POPC   D2A38812  23.832  27.083   8.345
 2874POPC   C3A38813  23.846  27.060   7.895
 2874POPC   C4A38814  23.627  26.906   7.495
 2874POPC   C1B38815  23.719  26.660   8.666
 2874POPC   C2B38816  23.837  26.546   8.263
 2874POPC   C3B38817  23.616  26.546   7.888
 2874POPC   C4B38818  23.786  26.413   7.496
 2875POPC   NC338819  32.737   8.071   9.696
 2875POPC   PO438820  33.250   8.425   9.566
 2875POPC   GL138821  33.094   8.072   9.275
 2875POPC   GL238822  32.750   8.086   9.167
 2875POPC   C1A38823  33.156   8.005   8.817
 2875POPC   D2A38824  33.196   8.345   8.475
 2875POPC   C3A38825  33.181   8.201   8.051
 2875POPC   C4A38826  33.194   7.846   7.760
 2875POPC   C1B38827  32.738   8.296   8.757
 2875POPC   C2B38828  32.739   8.113   8.336
 2875POPC   C3B38829  32.667   8.263   7.921
 2875POPC   C4B38830  32.702   7.983   7.618
 2876POPC   NC338831   4.090  40.847   9.505
 2876POPC   PO438832   4.667  40.579   9.320
 2876POPC   GL138833   4.274  40.549   9.115
 2876POPC   GL238834   4.390  40.246   9.018
 2876POPC   C1A38835   4.066  40.480   8.709
 2876POPC   D2A38836   4.212  40.445   8.294
 2876POPC   C3A38837   4.021  40.604   7.912
 2876POPC   C4A38838   4.259  40.960   7.737
 2876POPC   C1B38839   4.603  40.465   8.675
 2876POPC   C2B38840   4.782  40.473   8.268
 2876POPC   C3B38841   4.543  40.548   7.875
 2876POPC   C4B38842   4.536  40.365   7.478
 2877POPC   NC338843  27.012  38.609   9.580
 2877POPC   PO438844  27.129  38.231   9.073
 2877POPC   GL138845  27.038  38.681   9.045
 2877POPC   GL238846  26.699  38.666   9.104
 2877POPC   C1A38847  26.892  38.890   8.662
 2877POPC   D2A38848  26.646  38.890   8.295
 2877POPC   C3A38849  26.702  38.491   8.112
 2877POPC   C4A38850  26.965  38.447   7.783
 2877POPC   C1B38851  26.528  38.289   8.824
 2877POPC   C2B38852  26.378  38.029   8.454
 2877POPC   C3B38853  26.547  37.974   8.054
 2877POPC   C4B38854  26.486  38.231   7.705
 2878POPC   NC338855   8.205  41.107   9.429
 2878POPC   PO438856   8.424  40.457   9.497
 2878POPC   GL138857   8.165  40.638   9.192
 2878POPC   GL238858   8.448  40.815   9.084
 2878POPC   C1A38859   8.026  40.710   8.776
 2878POPC   D2A38860   7.877  40.780   8.362
 2878POPC   C3A38861   8.200  40.950   8.114
 2878POPC   C4A38862   8.315  40.860   7.704
 2878POPC   C1B38863   8.514  40.518   8.811
 2878POPC   C2B38864   8.458  40.646   8.438
 2878POPC   C3B38865   8.575  40.585   8.050
 2878POPC   C4B38866   8.418  40.357   7.712
 2879POPC   NC338867  33.809  25.817   9.731
 2879POPC   PO438868  34.151  26.197   9.346
 2879POPC   GL138869  33.954  25.929   9.075
 2879POPC   GL238870  33.735  25.732   9.243
 2879POPC   C1A38871  33.790  26.034   8.686
 2879POPC   D2A38872  33.922  26.035   8.302
 2879POPC   C3A38873  33.764  26.298   7.965
 2879POPC   C4A38874  33.739  26.031   7.632
 2879POPC   C1B38875  33.580  25.607   8.884
 2879POPC   C2B38876  33.494  25.599   8.445
 2879POPC   C3B38877  33.480  25.861   8.065
 2879POPC   C4B38878  33.332  25.713   7.680
 2880POPC   NC338879  22.592  19.564   9.375
 2880POPC   PO438880  23.232  19.868   9.424
 2880POPC   GL138881  23.020  20.061   9.034
 2880POPC   GL238882  22.643  20.072   8.983
 2880POPC   C1A38883  23.020  20.002   8.589
 2880POPC   D2A38884  23.015  19.636   8.355
 2880POPC   C3A38885  22.946  19.686   7.930
 2880POPC   C4A38886  22.978  20.121   7.774
 2880POPC   C1B38887  22.617  19.668   8.737
 2880POPC   C2B38888  22.498  19.437   8.362
 2880POPC   C3B38889  22.387  19.611   7.994
 2880POPC   C4B38890  22.509  19.899   7.707
 2881POPC   NC338891  14.848  22.460   9.488
 2881POPC   PO438892  15.258  23.010   9.555
 2881POPC   GL138893  15.299  23.113   9.154
 2881POPC   GL238894  15.342  22.763   9.070
 2881POPC   C1A38895  15.112  23.129   8.766
 2881POPC   D2A38896  15.239  22.924   8.406
 2881POPC   C3A38897  15.061  23.138   8.047
 2881POPC   C4A38898  15.040  23.052   7.634
 2881POPC   C1B38899  15.115  22.530   8.787
 2881POPC   C2B38900  15.180  22.416   8.368
 2881POPC   C3B38901  15.177  22.636   7.978
 2881POPC   C4B38902  14.841  22.599   7.704
 2882POPC   NC338903   7.161   9.423   9.498
 2882POPC   PO438904   6.995  10.040   9.522
 2882POPC   GL138905   7.183   9.966   9.123
 2882POPC   GL238906   7.412   9.668   9.139
 2882POPC   C1A38907   7.382   9.957   8.727
 2882POPC   D2A38908   7.458   9.745   8.387
 2882POPC   C3A38909   7.567  10.010   8.072
 2882POPC   C4A38910   7.527   9.945   7.656
 2882POPC   C1B38911   7.514   9.392   8.765
 2882POPC   C2B38912   7.644   9.269   8.343
 2882POPC   C3B38913   7.489   9.469   7.950
 2882POPC   C4B38914   7.549   9.474   7.504
 2883POPC   NC338915  13.000  11.508   9.514
 2883POPC   PO438916  12.598  10.971   9.273
 2883POPC   GL138917  12.962  11.172   9.102
 2883POPC   GL238918  12.757  11.461   9.070
 2883POPC   C1A38919  13.111  11.335   8.718
 2883POPC   D2A38920  12.814  11.385   8.387
 2883POPC   C3A38921  12.912  11.337   7.960
 2883POPC   C4A38922  12.726  11.097   7.649
 2883POPC   C1B38923  12.609  11.739   8.773
 2883POPC   C2B38924  12.675  11.866   8.384
 2883POPC   C3B38925  12.434  11.656   8.080
 2883POPC   C4B38926  12.524  11.549   7.682
 2884POPC   NC338927  38.442   1.605   9.313
 2884POPC   PO438928  38.390   0.994   9.218
 2884POPC   GL138929  38.688   1.126   8.965
 2884POPC   GL238930  38.780   1.482   8.972
 2884POPC   C1A38931  38.589   1.052   8.568
 2884POPC   D2A38932  38.329   1.289   8.301
 2884POPC   C3A38933  38.374   1.335   7.856
 2884POPC   C4A38934  38.362   1.163   7.435
 2884POPC   C1B38935  38.996   1.363   8.620
 2884POPC   C2B38936  38.896   1.194   8.197
 2884POPC   C3B38937  38.818   1.090   7.765
 2884POPC   C4B38938  38.812   1.352   7.401
 2885POPC   NC338939  44.830  15.636   9.427
 2885POPC   PO438940  44.362  15.072   9.453
 2885POPC   GL138941  44.561  15.285   9.136
 2885POPC   GL238942  44.923  15.227   9.107
 2885POPC   C1A38943  44.548  15.332   8.703
 2885POPC   D2A38944  44.488  15.045   8.369
 2885POPC   C3A38945  44.644  15.107   7.943
 2885POPC   C4A38946  44.497  14.766   7.707
 2885POPC   C1B38947   0.041  15.438   8.740
 2885POPC   C2B38948  44.885  15.409   8.319
 2885POPC   C3B38949   0.092  15.363   7.933
 2885POPC   C4B38950  44.943  15.303   7.500
 2886POPC   NC338951  37.471  30.885   9.746
 2886POPC   PO438952  37.877  30.442   9.494
 2886POPC   GL138953  37.781  30.746   9.201
 2886POPC   GL238954  37.434  30.849   9.212
 2886POPC   C1A38955  37.684  30.669   8.775
 2886POPC   D2A38956  37.640  30.899   8.415
 2886POPC   C3A38957  37.483  30.679   8.060
 2886POPC   C4A38958  37.763  30.638   7.725
 2886POPC   C1B38959  37.295  30.996   8.801
 2886POPC   C2B38960  37.315  31.298   8.459
 2886POPC   C3B38961  37.485  31.220   8.054
 2886POPC   C4B38962  37.439  31.009   7.647
 2887POPC   NC338963  19.224   2.729   9.532
 2887POPC   PO438964  18.622   2.988   9.445
 2887POPC   GL138965  18.917   2.836   9.108
 2887POPC   GL238966  19.265   2.876   9.062
 2887POPC   C1A38967  19.063   2.574   8.704
 2887POPC   D2A38968  19.095   2.483   8.248
 2887POPC   C3A38969  18.778   2.688   7.952
 2887POPC   C4A38970  18.680   2.775   7.493
 2887POPC   C1B38971  19.554   2.750   8.740
 2887POPC   C2B38972  19.390   2.888   8.357
 2887POPC   C3B38973  19.258   2.867   7.924
 2887POPC   C4B38974  19.176   2.550   7.605
 2888POPC   NC338975  27.421  11.330   9.628
 2888POPC   PO438976  28.068  11.489   9.650
 2888POPC   GL138977  27.906  11.553   9.192
 2888POPC   GL238978  27.587  11.398   9.123
 2888POPC   C1A38979  27.902  11.547   8.715
 2888POPC   D2A38980  27.870  11.138   8.444
 2888POPC   C3A38981  27.801  11.205   8.006
 2888POPC   C4A38982  27.871  11.630   7.913
 2888POPC   C1B38983  27.404  11.597   8.750
 2888POPC   C2B38984  27.542  11.643   8.306
 2888POPC   C3B38985  27.366  11.579   7.865
 2888POPC   C4B38986  27.068  11.353   7.568
 2889POPC   NC338987  19.960   8.662   9.455
 2889POPC   PO438988  19.691   9.318   9.396
 2889POPC   GL138989  19.925   9.047   9.130
 2889POPC   GL238990  19.634   8.813   9.075
 2889POPC   C1A38991  19.995   8.851   8.724
 2889POPC   D2A38992  19.760   8.767   8.345
 2889POPC   C3A38993  19.968   8.809   7.937
 2889POPC   C4A38994  20.047   8.792   7.483
 2889POPC   C1B38995  19.579   9.160   8.750
 2889POPC   C2B38996  19.458   9.201   8.316
 2889POPC   C3B38997  19.702   9.231   7.930
 2889POPC   C4B38998  19.608   9.070   7.496
 2890POPC   NC338999  23.099  31.662   9.464
 2890POPC   PO439000  22.702  31.210   9.213
 2890POPC   GL139001  22.998  31.410   8.989
 2890POPC   GL239002  23.359  31.338   9.054
 2890POPC   C1A39003  22.850  31.384   8.585
 2890POPC   D2A39004  22.639  31.703   8.345
 2890POPC   C3A39005  22.749  31.715   7.929
 2890POPC   C4A39006  22.919  31.506   7.587
 2890POPC   C1B39007  23.379  31.392   8.608
 2890POPC   C2B39008  23.169  31.536   8.231
 2890POPC   C3B39009  23.310  31.703   7.889
 2890POPC   C4B39010  23.485  31.435   7.574
 2891POPC   NC339011  41.108  39.919   9.391
 2891POPC   PO439012  40.537  40.028   9.680
 2891POPC   GL139013  40.704  40.196   9.243
 2891POPC   GL239014  41.016  40.428   9.254
 2891POPC   C1A39015  40.853  40.021   8.806
 2891POPC   D2A39016  40.694  39.963   8.368
 2891POPC   C3A39017  40.760  39.807   7.921
 2891POPC   C4A39018  40.711  40.049   7.521
 2891POPC   C1B39019  41.218  40.393   8.842
 2891POPC   C2B39020  41.042  40.330   8.432
 2891POPC   C3B39021  40.909  40.289   8.013
 2891POPC   C4B39022  41.091  40.416   7.646
 2892POPC   NC339023  25.918  18.686   9.512
 2892POPC   PO439024  26.010  19.283   9.479
 2892POPC   GL139025  26.250  19.061   9.194
 2892POPC   GL239026  25.967  18.914   9.037
 2892POPC   C1A39027  26.435  19.108   8.779
 2892POPC   D2A39028  26.437  18.907   8.382
 2892POPC   C3A39029  26.206  19.099   8.075
 2892POPC   C4A39030  26.310  18.913   7.696
 2892POPC   C1B39031  25.842  18.737   8.634
 2892POPC   C2B39032  25.656  18.830   8.220
 2892POPC   C3B39033  25.780  18.993   7.811
 2892POPC   C4B39034  25.797  19.380   7.622
 2893POPC   NC339035  17.940  13.590   9.288
 2893POPC   PO439036  17.299  13.461   9.469
 2893POPC   GL139037  17.212  13.519   9.058
 2893POPC   GL239038  17.559  13.430   9.005
 2893POPC   C1A39039  17.292  13.573   8.618
 2893POPC   D2A39040  17.522  13.458   8.223
 2893POPC   C3A39041  17.227  13.580   7.925
 2893POPC   C4A39042  17.156  13.830   7.590
 2893POPC   C1B39043  17.810  13.561   8.633
 2893POPC   C2B39044  18.027  13.907   8.412
 2893POPC   C3B39045  17.888  14.026   8.017
 2893POPC   C4B39046  17.700  13.711   7.790
 2894POPC   NC339047  33.309   9.617   9.537
 2894POPC   PO439048  32.853  10.102   9.509
 2894POPC   GL139049  33.138   9.964   9.171
 2894POPC   GL239050  32.953   9.673   9.143
 2894POPC   C1A39051  33.415   9.664   8.877
 2894POPC   D2A39052  33.636   9.768   8.478
 2894POPC   C3A39053  33.343   9.689   8.119
 2894POPC   C4A39054  33.239   9.683   7.687
 2894POPC   C1B39055  32.988   9.832   8.693
 2894POPC   C2B39056  32.939   9.505   8.392
 2894POPC   C3B39057  32.833   9.608   7.985
 2894POPC   C4B39058  32.797  10.009   7.783
 2895POPC   NC339059  14.604   2.962   9.586
 2895POPC   PO439060  14.034   2.729   9.558
 2895POPC   GL139061  14.294   2.776   9.151
 2895POPC   GL239062  14.677   2.720   9.096
 2895POPC   C1A39063  14.386   2.810   8.702
 2895POPC   D2A39064  14.304   2.656   8.306
 2895POPC   C3A39065  14.301   2.867   7.890
 2895POPC   C4A39066  14.422   2.958   7.458
 2895POPC   C1B39067  14.857   2.575   8.674
 2895POPC   C2B39068  14.799   2.506   8.214
 2895POPC   C3B39069  14.804   2.650   7.751
 2895POPC   C4B39070  14.804   2.694   7.260
 2896POPC   NC339071   3.847  17.581   9.523
 2896POPC   PO439072   3.244  17.453   9.729
 2896POPC   GL139073   3.322  17.449   9.254
 2896POPC   GL239074   3.540  17.689   9.127
 2896POPC   C1A39075   3.533  17.298   8.812
 2896POPC   D2A39076   3.549  17.536   8.405
 2896POPC   C3A39077   3.572  17.330   7.990
 2896POPC   C4A39078   3.687  17.397   7.531
 2896POPC   C1B39079   3.219  17.688   8.798
 2896POPC   C2B39080   3.198  17.921   8.427
 2896POPC   C3B39081   3.263  17.777   8.039
 2896POPC   C4B39082   3.242  17.581   7.696
 2897POPC   NC339083  16.082  24.200   9.568
 2897POPC   PO439084  15.644  24.490   9.289
 2897POPC   GL139085  15.928  24.467   9.092
 2897POPC   GL239086  15.935  24.807   8.964
 2897POPC   C1A39087  16.001  24.353   8.693
 2897POPC   D2A39088  15.813  24.490   8.341
 2897POPC   C3A39089  16.036  24.339   8.000
 2897POPC   C4A39090  16.258  24.624   7.781
 2897POPC   C1B39091  15.522  24.760   8.719
 2897POPC   C2B39092  15.327  24.656   8.345
 2897POPC   C3B39093  15.517  24.577   7.927
 2897POPC   C4B39094  15.672  24.232   7.652
 2898POPC   NC339095   0.453   8.677   9.550
 2898POPC   PO439096   0.767   9.258   9.553
 2898POPC   GL139097   0.486   9.249   9.178
 2898POPC   GL239098   0.312   8.915   9.119
 2898POPC   C1A39099   0.321   9.231   8.746
 2898POPC   D2A39100   0.429   8.934   8.436
 2898POPC   C3A39101   0.413   9.138   8.076
 2898POPC   C4A39102   0.686   9.202   7.728
 2898POPC   C1B39103   0.194   8.658   8.801
 2898POPC   C2B39104   0.052   8.527   8.405
 2898POPC   C3B39105   0.215   8.639   8.030
 2898POPC   C4B39106   0.447   8.747   7.691
 2899POPC   NC339107  15.029  23.934   5.314
 2899POPC   PO439108  15.554  23.731   5.155
 2899POPC   GL139109  15.391  23.700   5.638
 2899POPC   GL239110  15.164  23.979   5.808
 2899POPC   C1A39111  15.320  23.591   6.126
 2899POPC   D2A39112  15.421  23.407   6.595
 2899POPC   C3A39113  15.251  23.519   7.063
 2899POPC   C4A39114  15.374  23.848   7.427
 2899POPC   C1B39115  14.891  23.854   6.186
 2899POPC   C2B39116  15.035  23.777   6.627
 2899POPC   C3B39117  15.079  24.010   7.005
 2899POPC   C4B39118  14.889  23.990   7.394
 2900POPC   NC339119  41.164  29.762   5.384
 2900POPC   PO439120  41.421  30.306   5.501
 2900POPC   GL139121  41.289  30.168   5.903
 2900POPC   GL239122  41.272  29.809   5.883
 2900POPC   C1A39123  41.548  30.115   6.302
 2900POPC   D2A39124  41.944  29.927   6.532
 2900POPC   C3A39125  41.847  29.957   6.981
 2900POPC   C4A39126  41.415  30.034   7.099
 2900POPC   C1B39127  41.302  29.616   6.286
 2900POPC   C2B39128  41.468  29.657   6.701
 2900POPC   C3B39129  41.254  29.558   7.072
 2900POPC   C4B39130  41.423  29.664   7.454
 2901POPC   NC339131  40.956  26.791   5.355
 2901POPC   PO439132  40.381  27.187   5.351
 2901POPC   GL139133  40.614  26.999   5.693
 2901POPC   GL239134  40.649  26.680   5.747
 2901POPC   C1A39135  40.726  27.077   6.135
 2901POPC   D2A39136  40.559  27.036   6.565
 2901POPC   C3A39137  40.805  26.919   6.909
 2901POPC   C4A39138  40.566  26.631   7.194
 2901POPC   C1B39139  41.047  26.688   5.996
 2901POPC   C2B39140  41.080  26.761   6.440
 2901POPC   C3B39141  41.035  26.481   6.795
 2901POPC   C4B39142  41.131  26.481   7.224
 2902POPC   NC339143  36.349   0.537   5.357
 2902POPC   PO439144  35.863   0.096   5.436
 2902POPC   GL139145  36.067   0.354   5.787
 2902POPC   GL239146  35.964   0.700   5.833
 2902POPC   C1A39147  36.211   0.396   6.244
 2902POPC   D2A39148  35.957   0.176   6.601
 2902POPC   C3A39149  36.083   0.182   7.047
 2902POPC   C4A39150  36.425   0.421   7.249
 2902POPC   C1B39151  35.739   0.541   6.220
 2902POPC   C2B39152  35.801   0.722   6.605
 2902POPC   C3B39153  36.005   0.707   6.989
 2902POPC   C4B39154  35.651   0.488   7.130
 2903POPC   NC339155  31.797   2.608   5.505
 2903POPC   PO439156  31.746   2.031   5.133
 2903POPC   GL139157  31.733   2.113   5.615
 2903POPC   GL239158  31.692   1.776   5.697
 2903POPC   C1A39159  31.599   2.240   6.082
 2903POPC   D2A39160  31.458   2.411   6.528
 2903POPC   C3A39161  31.496   2.241   6.978
 2903POPC   C4A39162  31.522   2.239   7.479
 2903POPC   C1B39163  31.474   1.684   6.103
 2903POPC   C2B39164  31.385   1.497   6.516
 2903POPC   C3B39165  31.504   1.642   6.914
 2903POPC   C4B39166  31.662   1.765   7.286
 2904POPC   NC339167  40.059  26.983   5.634
 2904POPC   PO439168  40.280  26.302   5.575
 2904POPC   GL139169  40.176  26.583   5.912
 2904POPC   GL239170  39.831  26.646   5.973
 2904POPC   C1A39171  40.172  26.795   6.313
 2904POPC   D2A39172  39.889  26.813   6.631
 2904POPC   C3A39173  40.096  26.702   6.969
 2904POPC   C4A39174  39.997  26.554   7.329
 2904POPC   C1B39175  39.747  27.092   6.220
 2904POPC   C2B39176  39.594  27.230   6.664
 2904POPC   C3B39177  39.843  27.168   7.057
 2904POPC   C4B39178  39.800  27.000   7.497
 2905POPC   NC339179  38.409  20.045   5.503
 2905POPC   PO439180  38.906  19.429   5.532
 2905POPC   GL139181  38.621  19.625   5.792
 2905POPC   GL239182  38.275  19.558   5.798
 2905POPC   C1A39183  38.766  19.770   6.197
 2905POPC   D2A39184  38.919  19.776   6.634
 2905POPC   C3A39185  38.600  19.840   6.981
 2905POPC   C4A39186  38.460  19.888   7.428
 2905POPC   C1B39187  38.253  19.732   6.229
 2905POPC   C2B39188  38.144  19.789   6.715
 2905POPC   C3B39189  38.160  19.563   7.157
 2905POPC   C4B39190  38.324  19.416   7.603
 2906POPC   NC339191  28.431  25.905   5.524
 2906POPC   PO439192  28.460  25.204   5.410
 2906POPC   GL139193  28.226  25.164   5.766
 2906POPC   GL239194  28.333  25.505   5.815
 2906POPC   C1A39195  28.368  25.165   6.199
 2906POPC   D2A39196  28.484  25.354   6.570
 2906POPC   C3A39197  28.372  25.131   6.948
 2906POPC   C4A39198  28.403  24.799   7.220
 2906POPC   C1B39199  28.376  25.719   6.187
 2906POPC   C2B39200  28.176  25.779   6.566
 2906POPC   C3B39201  28.279  25.622   6.962
 2906POPC   C4B39202  28.612  25.706   7.203
 2907POPC   NC339203  23.390   6.659   5.383
 2907POPC   PO439204  24.110   6.532   5.457
 2907POPC   GL139205  23.943   6.794   5.798
 2907POPC   GL239206  23.601   6.715   5.841
 2907POPC   C1A39207  23.909   6.859   6.237
 2907POPC   D2A39208  23.642   6.547   6.423
 2907POPC   C3A39209  23.629   6.530   6.849
 2907POPC   C4A39210  23.573   6.678   7.234
 2907POPC   C1B39211  23.364   6.895   6.173
 2907POPC   C2B39212  23.407   6.978   6.634
 2907POPC   C3B39213  23.158   7.046   7.011
 2907POPC   C4B39214  23.336   7.096   7.442
 2908POPC   NC339215  34.883  26.378   5.485
 2908POPC   PO439216  34.279  26.122   5.421
 2908POPC   GL139217  34.450  26.118   5.791
 2908POPC   GL239218  34.749  25.962   5.891
 2908POPC   C1A39219  34.263  26.010   6.171
 2908POPC   D2A39220  34.308  26.238   6.539
 2908POPC   C3A39221  34.312  26.061   6.941
 2908POPC   C4A39222  34.450  26.388   7.214
 2908POPC   C1B39223  34.720  25.922   6.374
 2908POPC   C2B39224  34.832  25.984   6.821
 2908POPC   C3B39225  34.722  25.956   7.294
 2908POPC   C4B39226  34.626  25.775   7.738
 2909POPC   NC339227  37.835  11.521   5.480
 2909POPC   PO439228  37.213  11.306   5.405
 2909POPC   GL139229  37.441  11.349   5.822
 2909POPC   GL239230  37.784  11.173   5.878
 2909POPC   C1A39231  37.545  11.352   6.289
 2909POPC   D2A39232  37.341  11.460   6.691
 2909POPC   C3A39233  37.540  11.327   7.073
 2909POPC   C4A39234  37.472  10.867   7.202
 2909POPC   C1B39235  38.097  11.209   6.221
 2909POPC   C2B39236  38.146  11.420   6.636
 2909POPC   C3B39237  38.031  11.482   7.078
 2909POPC   C4B39238  38.153  11.286   7.463
 2910POPC   NC339239  33.329  39.528   5.664
 2910POPC   PO439240  33.864  39.159   5.349
 2910POPC   GL139241  33.792  39.320   5.757
 2910POPC   GL239242  33.818  38.982   5.905
 2910POPC   C1A39243  33.706  39.443   6.186
 2910POPC   D2A39244  33.687  39.157   6.524
 2910POPC   C3A39245  33.827  39.362   6.872
 2910POPC   C4A39246  33.898  39.511   7.275
 2910POPC   C1B39247  34.097  38.699   6.157
 2910POPC   C2B39248  34.291  38.700   6.579
 2910POPC   C3B39249  34.066  38.891   6.921
 2910POPC   C4B39250  34.153  39.072   7.310
 2911POPC   NC339251  33.677  13.229   5.327
 2911POPC   PO439252  33.526  12.726   5.673
 2911POPC   GL139253  33.824  13.005   5.789
 2911POPC   GL239254  34.145  12.861   5.781
 2911POPC   C1A39255  33.868  13.119   6.212
 2911POPC   D2A39256  33.640  12.812   6.439
 2911POPC   C3A39257  33.626  12.847   6.877
 2911POPC   C4A39258  33.818  13.004   7.255
 2911POPC   C1B39259  34.084  12.647   6.186
 2911POPC   C2B39260  34.125  12.776   6.628
 2911POPC   C3B39261  34.089  12.608   7.050
 2911POPC   C4B39262  34.053  12.625   7.513
 2912POPC   NC339263   3.922  40.785   5.178
 2912POPC   PO439264   4.563  40.692   5.367
 2912POPC   GL139265   4.262  40.818   5.680
 2912POPC   GL239266   4.505  40.878   5.913
 2912POPC   C1A39267   4.070  40.755   6.131
 2912POPC   D2A39268   4.246  40.704   6.544
 2912POPC   C3A39269   4.028  40.806   6.917
 2912POPC   C4A39270   4.066  40.670   7.342
 2912POPC   C1B39271   4.647  40.560   6.216
 2912POPC   C2B39272   4.727  40.563   6.649
 2912POPC   C3B39273   4.500  40.568   7.011
 2912POPC   C4B39274   4.537  40.858   7.341
 2913POPC   NC339275  34.003  10.832   5.356
 2913POPC   PO439276  33.891  11.472   5.279
 2913POPC   GL139277  33.905  11.254   5.687
 2913POPC   GL239278  33.730  11.507   5.907
 2913POPC   C1A39279  34.009  11.138   6.144
 2913POPC   D2A39280  33.828  11.300   6.558
 2913POPC   C3A39281  33.972  11.059   6.912
 2913POPC   C4A39282  34.069  11.047   7.330
 2913POPC   C1B39283  33.473  11.208   6.177
 2913POPC   C2B39284  33.235  11.228   6.568
 2913POPC   C3B39285  33.435  11.223   6.979
 2913POPC   C4B39286  33.790  11.451   7.183
 2914POPC   NC339287  40.462  23.891   5.555
 2914POPC   PO439288  40.960  23.439   5.549
 2914POPC   GL139289  40.811  23.638   5.879
 2914POPC   GL239290  40.470  23.513   5.876
 2914POPC   C1A39291  41.009  23.679   6.260
 2914POPC   D2A39292  40.845  23.807   6.646
 2914POPC   C3A39293  41.060  23.779   7.021
 2914POPC   C4A39294  40.896  23.535   7.394
 2914POPC   C1B39295  40.429  23.788   6.267
 2914POPC   C2B39296  40.363  23.945   6.710
 2914POPC   C3B39297  40.529  23.702   7.066
 2914POPC   C4B39298  40.360  23.512   7.446
 2915POPC   NC339299  18.182   7.999   5.094
 2915POPC   PO439300  18.139   8.551   5.457
 2915POPC   GL139301  18.372   8.391   5.839
 2915POPC   GL239302  18.244   8.074   5.849
 2915POPC   C1A39303  18.396   8.324   6.320
 2915POPC   D2A39304  18.513   8.074   6.695
 2915POPC   C3A39305  18.529   8.114   7.147
 2915POPC   C4A39306  18.414   7.838   7.546
 2915POPC   C1B39307  17.944   8.389   6.098
 2915POPC   C2B39308  17.946   8.473   6.557
 2915POPC   C3B39309  18.077   8.276   6.955
 2915POPC   C4B39310  18.050   7.869   7.197
 2916POPC   NC339311  44.591  29.157   5.413
 2916POPC   PO439312   0.207  29.064   5.649
 2916POPC   GL139313  44.910  29.021   5.991
 2916POPC   GL239314  44.578  29.093   5.935
 2916POPC   C1A39315  44.768  29.187   6.401
 2916POPC   D2A39316  44.503  29.499   6.600
 2916POPC   C3A39317  44.585  29.456   7.050
 2916POPC   C4A39318  44.903  29.199   7.208
 2916POPC   C1B39319  44.270  29.039   6.294
 2916POPC   C2B39320  44.331  29.026   6.720
 2916POPC   C3B39321  44.650  28.860   6.929
 2916POPC   C4B39322  44.465  28.707   7.283
 2917POPC   NC339323   8.429  28.532   5.420
 2917POPC   PO439324   7.764  28.199   5.441
 2917POPC   GL139325   8.058  28.375   5.743
 2917POPC   GL239326   8.054  28.738   5.709
 2917POPC   C1A39327   8.354  28.391   6.085
 2917POPC   D2A39328   8.364  28.212   6.494
 2917POPC   C3A39329   8.631  28.179   6.859
 2917POPC   C4A39330   8.378  28.111   7.260
 2917POPC   C1B39331   7.977  28.786   6.147
 2917POPC   C2B39332   8.022  28.618   6.551
 2917POPC   C3B39333   8.217  28.535   6.952
 2917POPC   C4B39334   7.990  28.653   7.334
 2918POPC   NC339335  18.450   6.586   5.329
 2918POPC   PO439336  18.163   7.169   5.564
 2918POPC   GL139337  18.474   6.905   5.849
 2918POPC   GL239338  18.499   6.518   5.845
 2918POPC   C1A39339  18.588   6.786   6.309
 2918POPC   D2A39340  18.639   6.630   6.747
 2918POPC   C3A39341  18.458   6.813   7.141
 2918POPC   C4A39342  18.269   6.891   7.548
 2918POPC   C1B39343  18.344   6.327   6.248
 2918POPC   C2B39344  18.220   6.316   6.701
 2918POPC   C3B39345  18.176   6.351   7.161
 2918POPC   C4B39346  18.073   6.102   7.568
 2919POPC   NC339347   8.715  14.668   5.152
 2919POPC   PO439348   8.142  14.310   5.409
 2919POPC   GL139349   8.267  14.476   5.779
 2919POPC   GL239350   8.124  14.792   5.792
 2919POPC   C1A39351   8.411  14.458   6.205
 2919POPC   D2A39352   8.524  14.625   6.604
 2919POPC   C3A39353   8.366  14.412   6.961
 2919POPC   C4A39354   8.264  14.631   7.316
 2919POPC   C1B39355   7.913  14.559   6.143
 2919POPC   C2B39356   8.030  14.477   6.568
 2919POPC   C3B39357   7.866  14.549   6.977
 2919POPC   C4B39358   7.866  14.297   7.297
 2920POPC   NC339359   3.158  17.678   5.266
 2920POPC   PO439360   3.752  17.275   5.434
 2920POPC   GL139361   3.754  17.534   5.814
 2920POPC   GL239362   3.408  17.594   5.716
 2920POPC   C1A39363   3.863  17.610   6.261
 2920POPC   D2A39364   3.699  17.421   6.630
 2920POPC   C3A39365   3.731  17.558   7.025
 2920POPC   C4A39366   3.414  17.754   7.259
 2920POPC   C1B39367   3.369  17.417   6.152
 2920POPC   C2B39368   3.199  17.487   6.556
 2920POPC   C3B39369   3.247  17.377   6.965
 2920POPC   C4B39370   3.580  17.087   7.131
 2921POPC   NC339371  39.217  25.625   5.127
 2921POPC   PO439372  39.577  25.073   5.337
 2921POPC   GL139373  39.273  25.258   5.691
 2921POPC   GL239374  39.458  25.468   5.939
 2921POPC   C1A39375  39.025  25.229   6.117
 2921POPC   D2A39376  38.785  25.151   6.519
 2921POPC   C3A39377  38.963  25.094   6.944
 2921POPC   C4A39378  38.876  25.309   7.326
 2921POPC   C1B39379  39.534  25.100   6.186
 2921POPC   C2B39380  39.301  24.978   6.546
 2921POPC   C3B39381  39.462  24.998   6.957
 2921POPC   C4B39382  39.360  25.404   7.131
 2922POPC   NC339383  31.809  17.299   5.682
 2922POPC   PO439384  31.511  16.628   5.531
 2922POPC   GL139385  31.487  16.884   5.831
 2922POPC   GL239386  31.307  17.189   5.685
 2922POPC   C1A39387  31.409  16.728   6.227
 2922POPC   D2A39388  31.300  16.669   6.631
 2922POPC   C3A39389  31.614  16.576   6.917
 2922POPC   C4A39390  31.573  16.781   7.298
 2922POPC   C1B39391  31.261  17.222   6.128
 2922POPC   C2B39392  31.540  17.165   6.484
 2922POPC   C3B39393  31.442  17.088   6.899
 2922POPC   C4B39394  31.257  17.186   7.277
 2923POPC   NC339395  19.185  15.376   4.756
 2923POPC   PO439396  19.219  15.105   5.260
 2923POPC   GL139397  19.426  15.064   5.742
 2923POPC   GL239398  19.116  14.997   5.914
 2923POPC   C1A39399  19.448  15.128   6.260
 2923POPC   D2A39400  19.160  15.161   6.675
 2923POPC   C3A39401  19.158  15.334   7.144
 2923POPC   C4A39402  18.963  15.356   7.582
 2923POPC   C1B39403  19.118  14.727   6.281
 2923POPC   C2B39404  19.117  14.652   6.712
 2923POPC   C3B39405  19.119  14.836   7.144
 2923POPC   C4B39406  18.911  14.838   7.543
 2924POPC   NC339407  34.922  22.979   5.477
 2924POPC   PO439408  35.454  22.622   5.237
 2924POPC   GL139409  35.331  22.713   5.692
 2924POPC   GL239410  35.355  23.087   5.761
 2924POPC   C1A39411  35.322  22.724   6.167
 2924POPC   D2A39412  35.554  22.605   6.544
 2924POPC   C3A39413  35.285  22.623   6.912
 2924POPC   C4A39414  35.210  22.766   7.318
 2924POPC   C1B39415  35.277  23.220   6.189
 2924POPC   C2B39416  35.297  23.055   6.595
 2924POPC   C3B39417  35.017  23.077   6.922
 2924POPC   C4B39418  35.070  23.278   7.269
 2925POPC   NC339419  30.963  10.095   5.207
 2925POPC   PO439420  30.376   9.786   5.376
 2925POPC   GL139421  30.635   9.757   5.809
 2925POPC   GL239422  30.564  10.012   6.060
 2925POPC   C1A39423  30.623   9.533   6.231
 2925POPC   D2A39424  30.449   9.666   6.639
 2925POPC   C3A39425  30.717   9.629   7.023
 2925POPC   C4A39426  30.840   9.442   7.411
 2925POPC   C1B39427  30.897  10.145   6.330
 2925POPC   C2B39428  30.837  10.203   6.785
 2925POPC   C3B39429  30.834  10.097   7.233
 2925POPC   C4B39430  30.508   9.852   7.444
 2926POPC   NC339431  23.800   2.988   5.583
 2926POPC   PO439432  23.543   2.432   5.451
 2926POPC   GL139433  23.807   2.523   5.831
 2926POPC   GL239434  23.547   2.785   5.974
 2926POPC   C1A39435  23.840   2.545   6.295
 2926POPC   D2A39436  23.435   2.706   6.508
 2926POPC   C3A39437  23.505   2.912   6.895
 2926POPC   C4A39438  23.486   2.706   7.280
 2926POPC   C1B39439  23.709   3.083   6.298
 2926POPC   C2B39440  23.956   3.194   6.677
 2926POPC   C3B39441  23.806   3.279   7.085
 2926POPC   C4B39442  23.452   3.223   7.359
 2927POPC   NC339443   2.844  35.511   5.009
 2927POPC   PO439444   2.781  34.980   5.478
 2927POPC   GL139445   2.780  35.392   5.704
 2927POPC   GL239446   2.458  35.609   5.739
 2927POPC   C1A39447   3.013  35.560   6.066
 2927POPC   D2A39448   3.126  35.376   6.465
 2927POPC   C3A39449   2.914  35.510   6.853
 2927POPC   C4A39450   2.969  35.399   7.257
 2927POPC   C1B39451   2.531  35.686   6.200
 2927POPC   C2B39452   2.453  35.440   6.595
 2927POPC   C3B39453   2.305  35.432   7.033
 2927POPC   C4B39454   2.290  35.773   7.380
 2928POPC   NC339455   7.868  37.500   5.633
 2928POPC   PO439456   8.451  37.837   5.444
 2928POPC   GL139457   8.270  37.817   5.812
 2928POPC   GL239458   8.250  37.478   5.969
 2928POPC   C1A39459   8.430  37.889   6.216
 2928POPC   D2A39460   8.158  37.836   6.564
 2928POPC   C3A39461   8.360  38.001   6.876
 2928POPC   C4A39462   8.295  37.845   7.270
 2928POPC   C1B39463   7.872  37.529   6.264
 2928POPC   C2B39464   7.757  37.382   6.650
 2928POPC   C3B39465   7.990  37.517   6.994
 2928POPC   C4B39466   8.056  37.340   7.381
 2929POPC   NC339467  11.443  29.408   5.496
 2929POPC   PO439468  11.334  30.040   5.453
 2929POPC   GL139469  11.134  29.897   5.814
 2929POPC   GL239470  11.013  30.231   5.899
 2929POPC   C1A39471  11.332  29.671   6.181
 2929POPC   D2A39472  11.674  29.785   6.492
 2929POPC   C3A39473  11.594  29.683   6.917
 2929POPC   C4A39474  11.292  29.806   7.218
 2929POPC   C1B39475  10.915  29.972   6.280
 2929POPC   C2B39476  11.055  29.877   6.708
 2929POPC   C3B39477  10.898  30.099   7.089
 2929POPC   C4B39478  11.162  30.303   7.399
 2930POPC   NC339479   2.956  21.562   5.278
 2930POPC   PO439480   2.485  21.147   5.379
 2930POPC   GL139481   2.625  21.458   5.702
 2930POPC   GL239482   2.994  21.434   5.771
 2930POPC   C1A39483   2.537  21.671   6.090
 2930POPC   D2A39484   2.451  21.404   6.430
 2930POPC   C3A39485   2.557  21.409   6.859
 2930POPC   C4A39486   2.425  21.353   7.290
 2930POPC   C1B39487   2.887  21.304   6.178
 2930POPC   C2B39488   2.842  21.093   6.557
 2930POPC   C3B39489   2.938  21.080   6.984
 2930POPC   C4B39490   2.929  21.439   7.228
 2931POPC   NC339491  40.508  10.201   5.616
 2931POPC   PO439492  40.943  10.680   5.324
 2931POPC   GL139493  40.928  10.556   5.750
 2931POPC   GL239494  40.601  10.674   5.814
 2931POPC   C1A39495  40.863  10.467   6.203
 2931POPC   D2A39496  41.044  10.403   6.609
 2931POPC   C3A39497  40.780  10.481   6.955
 2931POPC   C4A39498  40.727  10.284   7.320
 2931POPC   C1B39499  40.535  10.895   6.182
 2931POPC   C2B39500  40.635  10.769   6.565
 2931POPC   C3B39501  40.467  10.896   6.958
 2931POPC   C4B39502  40.430  10.710   7.363
 2932POPC   NC339503   8.033  30.123   5.444
 2932POPC   PO439504   8.543  30.485   5.611
 2932POPC   GL139505   8.417  30.046   5.852
 2932POPC   GL239506   8.094  29.879   5.872
 2932POPC   C1A39507   8.525  29.813   6.264
 2932POPC   D2A39508   8.599  29.909   6.702
 2932POPC   C3A39509   8.288  29.967   7.047
 2932POPC   C4A39510   7.993  30.243   7.138
 2932POPC   C1B39511   8.027  29.712   6.242
 2932POPC   C2B39512   8.010  29.914   6.620
 2932POPC   C3B39513   7.809  29.782   6.986
 2932POPC   C4B39514   7.899  29.741   7.425
 2933POPC   NC339515   8.263  31.680   5.304
 2933POPC   PO439516   8.214  31.078   5.096
 2933POPC   GL139517   8.111  31.264   5.617
 2933POPC   GL239518   8.131  31.638   5.767
 2933POPC   C1A39519   8.244  31.336   6.129
 2933POPC   D2A39520   8.278  31.567   6.535
 2933POPC   C3A39521   8.234  31.269   6.867
 2933POPC   C4A39522   8.327  31.209   7.288
 2933POPC   C1B39523   7.965  31.787   6.149
 2933POPC   C2B39524   7.722  31.655   6.484
 2933POPC   C3B39525   7.869  31.649   6.872
 2933POPC   C4B39526   8.225  31.710   7.176
 2934POPC   NC339527  18.802  33.739   5.322
 2934POPC   PO439528  19.336  34.163   5.487
 2934POPC   GL139529  18.987  34.019   5.808
 2934POPC   GL239530  18.844  33.660   5.835
 2934POPC   C1A39531  18.847  34.006   6.217
 2934POPC   D2A39532  19.094  33.952   6.578
 2934POPC   C3A39533  18.910  33.997   6.977
 2934POPC   C4A39534  18.803  34.162   7.382
 2934POPC   C1B39535  19.215  33.618   6.181
 2934POPC   C2B39536  19.399  33.528   6.582
 2934POPC   C3B39537  19.341  33.717   6.975
 2934POPC   C4B39538  19.108  33.725   7.378
 2935POPC   NC339539  14.623  43.525   5.397
 2935POPC   PO439540  14.145  43.975   5.350
 2935POPC   GL139541  14.314  43.794   5.723
 2935POPC   GL239542  14.632  44.003   5.716
 2935POPC   C1A39543  14.131  43.654   6.147
 2935POPC   D2A39544  14.092  43.915   6.563
 2935POPC   C3A39545  14.247  43.777   6.993
 2935POPC   C4A39546  14.207  43.911   7.451
 2935POPC   C1B39547  14.588  43.862   6.163
 2935POPC   C2B39548  14.728  43.951   6.565
 2935POPC   C3B39549  14.687  44.098   6.975
 2935POPC   C4B39550  14.672  43.775   7.295
 2936POPC   NC339551   7.062  12.077   5.116
 2936POPC   PO439552   6.466  12.120   5.421
 2936POPC   GL139553   6.735  12.030   5.754
 2936POPC   GL239554   6.568  11.715   5.795
 2936POPC   C1A39555   6.745  12.106   6.214
 2936POPC   D2A39556   6.594  11.995   6.645
 2936POPC   C3A39557   6.896  12.089   6.968
 2936POPC   C4A39558   6.850  12.338   7.353
 2936POPC   C1B39559   6.601  11.611   6.189
 2936POPC   C2B39560   6.392  11.522   6.532
 2936POPC   C3B39561   6.219  11.638   6.921
 2936POPC   C4B39562   6.567  11.771   7.194
 2937POPC   NC339563  12.509  23.981   5.667
 2937POPC   PO439564  11.896  23.742   5.444
 2937POPC   GL139565  11.812  23.573   5.864
 2937POPC   GL239566  12.187  23.540   5.938
 2937POPC   C1A39567  11.893  23.641   6.336
 2937POPC   D2A39568  12.303  23.824   6.491
 2937POPC   C3A39569  12.306  23.762   6.930
 2937POPC   C4A39570  12.602  23.705   7.247
 2937POPC   C1B39571  11.947  23.157   6.124
 2937POPC   C2B39572  11.721  23.134   6.513
 2937POPC   C3B39573  11.776  23.409   6.854
 2937POPC   C4B39574  12.022  23.424   7.219
 2938POPC   NC339575  10.594  23.175   5.389
 2938POPC   PO439576  10.699  22.541   5.471
 2938POPC   GL139577  10.726  22.838   5.819
 2938POPC   GL239578  10.852  23.169   5.837
 2938POPC   C1A39579  10.503  22.996   6.168
 2938POPC   D2A39580  10.179  22.855   6.411
 2938POPC   C3A39581  10.228  22.916   6.840
 2938POPC   C4A39582  10.483  23.013   7.174
 2938POPC   C1B39583  10.858  23.352   6.267
 2938POPC   C2B39584  10.695  23.164   6.660
 2938POPC   C3B39585  10.847  23.344   7.078
 2938POPC   C4B39586  10.696  23.359   7.534
 2939POPC   NC339587  42.540   8.557   5.591
 2939POPC   PO439588  42.342   7.878   5.400
 2939POPC   GL139589  42.268   8.071   5.784
 2939POPC   GL239590  42.623   8.059   5.886
 2939POPC   C1A39591  42.266   8.335   6.132
 2939POPC   D2A39592  42.456   8.289   6.479
 2939POPC   C3A39593  42.234   8.384   6.824
 2939POPC   C4A39594  42.193   8.303   7.234
 2939POPC   C1B39595  42.436   7.831   6.268
 2939POPC   C2B39596  42.378   7.855   6.749
 2939POPC   C3B39597  42.411   7.830   7.223
 2939POPC   C4B39598  42.544   7.682   7.655
 2940POPC   NC339599  27.050  20.237   4.964
 2940POPC   PO439600  26.705  20.686   5.335
 2940POPC   GL139601  26.580  20.599   5.742
 2940POPC   GL239602  26.360  20.907   5.814
 2940POPC   C1A39603  26.711  20.345   6.130
 2940POPC   D2A39604  27.043  20.290   6.475
 2940POPC   C3A39605  26.954  20.481   6.893
 2940POPC   C4A39606  27.013  20.818   7.251
 2940POPC   C1B39607  26.585  20.843   6.177
 2940POPC   C2B39608  26.622  20.686   6.556
 2940POPC   C3B39609  26.582  20.860   6.951
 2940POPC   C4B39610  26.396  20.618   7.260
 2941POPC   NC339611  22.184  27.125   5.366
 2941POPC   PO439612  22.451  26.637   5.515
 2941POPC   GL139613  22.271  26.730   5.905
 2941POPC   GL239614  22.280  27.088   5.937
 2941POPC   C1A39615  22.276  26.772   6.373
 2941POPC   D2A39616  22.446  27.101   6.652
 2941POPC   C3A39617  22.251  27.076   7.038
 2941POPC   C4A39618  21.999  26.780   7.256
 2941POPC   C1B39619  22.030  27.201   6.322
 2941POPC   C2B39620  21.857  27.010   6.736
 2941POPC   C3B39621  21.718  27.192   7.172
 2941POPC   C4B39622  21.556  27.217   7.632
 2942POPC   NC339623  12.896   3.073   5.382
 2942POPC   PO439624  12.629   2.489   5.376
 2942POPC   GL139625  12.666   2.726   5.740
 2942POPC   GL239626  12.992   2.809   5.816
 2942POPC   C1A39627  12.652   2.595   6.164
 2942POPC   D2A39628  12.554   2.700   6.578
 2942POPC   C3A39629  12.770   2.737   6.934
 2942POPC   C4A39630  12.635   2.884   7.345
 2942POPC   C1B39631  13.030   2.954   6.232
 2942POPC   C2B39632  13.215   2.996   6.649
 2942POPC   C3B39633  13.092   3.126   7.079
 2942POPC   C4B39634  13.102   3.117   7.559
 2943POPC   NC339635  42.991  17.967   5.508
 2943POPC   PO439636  43.319  18.544   5.314
 2943POPC   GL139637  43.273  18.392   5.731
 2943POPC   GL239638  43.422  18.116   5.752
 2943POPC   C1A39639  43.235  18.363   6.198
 2943POPC   D2A39640  43.032  18.250   6.601
 2943POPC   C3A39641  43.165  18.361   7.017
 2943POPC   C4A39642  42.872  18.527   7.318
 2943POPC   C1B39643  43.544  17.961   6.135
 2943POPC   C2B39644  43.308  17.824   6.484
 2943POPC   C3B39645  43.265  17.820   6.916
 2943POPC   C4B39646  43.472  17.973   7.273
 2944POPC   NC339647  39.284  33.080   5.357
 2944POPC   PO439648  39.315  32.361   5.388
 2944POPC   GL139649  39.242  32.668   5.758
 2944POPC   GL239650  39.133  33.040   5.821
 2944POPC   C1A39651  39.106  32.679   6.196
 2944POPC   D2A39652  38.979  32.885   6.580
 2944POPC   C3A39653  39.234  32.868   6.948
 2944POPC   C4A39654  39.193  32.635   7.343
 2944POPC   C1B39655  38.937  33.202   6.171
 2944POPC   C2B39656  38.914  33.384   6.570
 2944POPC   C3B39657  38.825  33.211   6.993
 2944POPC   C4B39658  38.821  33.370   7.441
 2945POPC   NC339659  38.202  42.542   5.304
 2945POPC   PO439660  37.594  42.312   5.436
 2945POPC   GL139661  37.627  42.296   5.855
 2945POPC   GL239662  37.596  41.956   5.876
 2945POPC   C1A39663  37.696  42.486   6.265
 2945POPC   D2A39664  37.371  42.505   6.586
 2945POPC   C3A39665  37.585  42.508   6.984
 2945POPC   C4A39666  37.783  42.188   7.225
 2945POPC   C1B39667  37.452  42.045   6.297
 2945POPC   C2B39668  37.620  42.084   6.729
 2945POPC   C3B39669  37.489  41.797   7.054
 2945POPC   C4B39670  37.575  41.790   7.491
 2946POPC   NC339671  38.590  23.934   5.412
 2946POPC   PO439672  38.712  24.572   5.366
 2946POPC   GL139673  38.767  24.789   5.770
 2946POPC   GL239674  38.507  24.544   5.875
 2946POPC   C1A39675  38.802  24.731   6.238
 2946POPC   D2A39676  38.535  24.490   6.532
 2946POPC   C3A39677  38.471  24.630   6.947
 2946POPC   C4A39678  38.276  24.721   7.343
 2946POPC   C1B39679  38.157  24.581   6.168
 2946POPC   C2B39680  38.046  24.319   6.513
 2946POPC   C3B39681  38.239  24.162   6.858
 2946POPC   C4B39682  38.057  24.066   7.231
 2947POPC   NC339683  37.104  21.335   5.462
 2947POPC   PO439684  36.467  21.060   5.393
 2947POPC   GL139685  36.646  21.243   5.775
 2947POPC   GL239686  36.716  21.592   5.727
 2947POPC   C1A39687  36.935  21.071   6.133
 2947POPC   D2A39688  36.915  20.810   6.510
 2947POPC   C3A39689  36.934  21.027   6.873
 2947POPC   C4A39690  36.938  21.212   7.269
 2947POPC   C1B39691  36.772  21.546   6.165
 2947POPC   C2B39692  36.653  21.318   6.528
 2947POPC   C3B39693  36.697  21.543   6.888
 2947POPC   C4B39694  36.749  21.686   7.282
 2948POPC   NC339695   1.937  43.655   5.358
 2948POPC   PO439696   2.129  44.247   5.413
 2948POPC   GL139697   1.884  43.987   5.744
 2948POPC   GL239698   2.140  43.753   5.822
 2948POPC   C1A39699   1.695  44.096   6.141
 2948POPC   D2A39700   1.887  44.283   6.517
 2948POPC   C3A39701   1.779  44.197   6.937
 2948POPC   C4A39702   1.719  43.918   7.268
 2948POPC   C1B39703   1.938  43.544   6.146
 2948POPC   C2B39704   1.815  43.756   6.511
 2948POPC   C3B39705   1.986  43.738   6.884
 2948POPC   C4B39706   2.118  43.523   7.197
 2949POPC   NC339707  19.140   9.084   5.565
 2949POPC   PO439708  19.766   9.018   5.422
 2949POPC   GL139709  19.766   9.032   5.855
 2949POPC   GL239710  20.116   9.046   5.876
 2949POPC   C1A39711  19.618   8.821   6.251
 2949POPC   D2A39712  19.708   8.946   6.678
 2949POPC   C3A39713  19.884   8.659   6.949
 2949POPC   C4A39714  19.599   8.612   7.258
 2949POPC   C1B39715  20.063   9.088   6.328
 2949POPC   C2B39716  20.207   9.024   6.755
 2949POPC   C3B39717  19.973   9.147   7.130
 2949POPC   C4B39718  20.050   9.318   7.556
 2950POPC   NC339719  25.048  15.238   5.460
 2950POPC   PO439720  25.645  15.644   5.334
 2950POPC   GL139721  25.582  15.438   5.744
 2950POPC   GL239722  25.611  15.072   5.826
 2950POPC   C1A39723  25.277  15.451   6.081
 2950POPC   D2A39724  25.092  15.335   6.461
 2950POPC   C3A39725  25.300  15.405   6.820
 2950POPC   C4A39726  25.344  15.359   7.241
 2950POPC   C1B39727  25.463  15.006   6.277
 2950POPC   C2B39728  25.299  14.905   6.692
 2950POPC   C3B39729  25.049  14.983   7.056
 2950POPC   C4B39730  25.226  14.870   7.437
 2951POPC   NC339731  35.769  29.348   5.370
 2951POPC   PO439732  36.262  28.889   5.408
 2951POPC   GL139733  36.224  29.178   5.792
 2951POPC   GL239734  35.993  29.473   5.812
 2951POPC   C1A39735  36.340  29.273   6.239
 2951POPC   D2A39736  36.123  29.223   6.651
 2951POPC   C3A39737  36.342  29.365   7.014
 2951POPC   C4A39738  36.291  29.249   7.456
 2951POPC   C1B39739  35.838  29.278   6.166
 2951POPC   C2B39740  35.658  29.316   6.522
 2951POPC   C3B39741  35.769  29.545   6.853
 2951POPC   C4B39742  35.956  29.571   7.272
 2952POPC   NC339743  23.303  25.464   5.154
 2952POPC   PO439744  22.621  25.814   5.316
 2952POPC   GL139745  22.855  25.894   5.762
 2952POPC   GL239746  23.080  25.596   5.736
 2952POPC   C1A39747  22.964  26.175   6.195
 2952POPC   D2A39748  23.082  26.284   6.683
 2952POPC   C3A39749  22.844  26.187   7.106
 2952POPC   C4A39750  22.431  26.196   7.322
 2952POPC   C1B39751  23.268  25.767   6.122
 2952POPC   C2B39752  23.372  25.877   6.541
 2952POPC   C3B39753  23.197  25.806   6.953
 2952POPC   C4B39754  23.156  25.885   7.395
 2953POPC   NC339755  13.896  36.713   5.447
 2953POPC   PO439756  13.349  37.098   5.339
 2953POPC   GL139757  13.390  36.926   5.753
 2953POPC   GL239758  13.708  36.971   5.874
 2953POPC   C1A39759  13.321  36.765   6.174
 2953POPC   D2A39760  13.476  36.964   6.549
 2953POPC   C3A39761  13.329  36.763   6.924
 2953POPC   C4A39762  13.436  36.686   7.345
 2953POPC   C1B39763  13.816  36.692   6.227
 2953POPC   C2B39764  13.637  36.479   6.605
 2953POPC   C3B39765  13.780  36.474   7.027
 2953POPC   C4B39766  13.966  36.396   7.422
 2954POPC   NC339767   6.389  40.310   5.397
 2954POPC   PO439768   6.897  39.865   5.528
 2954POPC   GL139769   6.676  40.070   5.845
 2954POPC   GL239770   6.296  40.063   5.871
 2954POPC   C1A39771   6.800  40.077   6.264
 2954POPC   D2A39772   6.718  40.278   6.643
 2954POPC   C3A39773   6.765  40.061   7.042
 2954POPC   C4A39774   6.955  40.012   7.462
 2954POPC   C1B39775   6.308  40.248   6.311
 2954POPC   C2B39776   6.205  40.235   6.771
 2954POPC   C3B39777   6.367  40.375   7.148
 2954POPC   C4B39778   6.435  39.993   7.463
 2955POPC   NC339779  23.851  26.212   5.511
 2955POPC   PO439780  23.555  25.530   5.536
 2955POPC   GL139781  23.701  25.836   5.838
 2955POPC   GL239782  23.528  26.184   5.925
 2955POPC   C1A39783  23.818  25.892   6.259
 2955POPC   D2A39784  23.829  26.092   6.640
 2955POPC   C3A39785  23.835  25.854   6.992
 2955POPC   C4A39786  23.570  26.076   7.202
 2955POPC   C1B39787  23.808  26.421   6.223
 2955POPC   C2B39788  24.026  26.552   6.625
 2955POPC   C3B39789  24.051  26.363   7.045
 2955POPC   C4B39790  24.289  26.345   7.442
 2956POPC   NC339791  17.596  21.916   5.284
 2956POPC   PO439792  16.967  21.877   5.392
 2956POPC   GL139793  17.309  22.066   5.706
 2956POPC   GL239794  17.670  22.015   5.838
 2956POPC   C1A39795  17.296  22.144   6.175
 2956POPC   D2A39796  17.256  21.880   6.558
 2956POPC   C3A39797  17.281  21.985   6.986
 2956POPC   C4A39798  17.537  22.309   7.128
 2956POPC   C1B39799  17.769  21.947   6.299
 2956POPC   C2B39800  17.746  21.950   6.781
 2956POPC   C3B39801  17.730  21.855   7.236
 2956POPC   C4B39802  17.843  21.941   7.640
 2957POPC   NC339803  34.381  21.745   5.239
 2957POPC   PO439804  33.883  21.190   5.268
 2957POPC   GL139805  33.848  21.350   5.669
 2957POPC   GL239806  34.159  21.545   5.697
 2957POPC   C1A39807  33.583  21.357   6.028
 2957POPC   D2A39808  33.443  21.544   6.431
 2957POPC   C3A39809  33.645  21.472   6.842
 2957POPC   C4A39810  33.444  21.418   7.238
 2957POPC   C1B39811  34.043  21.551   6.130
 2957POPC   C2B39812  33.894  21.246   6.433
 2957POPC   C3B39813  34.065  21.075   6.811
 2957POPC   C4B39814  33.868  21.117   7.206
 2958POPC   NC339815  42.759  27.479   5.366
 2958POPC   PO439816  43.403  27.653   5.431
 2958POPC   GL139817  43.289  27.550   5.816
 2958POPC   GL239818  42.935  27.664   5.815
 2958POPC   C1A39819  43.221  27.328   6.200
 2958POPC   D2A39820  43.041  27.430   6.598
 2958POPC   C3A39821  43.278  27.340   6.986
 2958POPC   C4A39822  43.274  27.401   7.472
 2958POPC   C1B39823  43.120  27.851   6.177
 2958POPC   C2B39824  42.994  27.926   6.584
 2958POPC   C3B39825  42.951  27.728   7.006
 2958POPC   C4B39826  43.183  27.879   7.347
 2959POPC   NC339827   0.288   0.455   5.344
 2959POPC   PO439828   0.896   0.191   5.318
 2959POPC   GL139829   0.658   0.328   5.690
 2959POPC   GL239830   0.662   0.679   5.628
 2959POPC   C1A39831   0.562   0.252   6.148
 2959POPC   D2A39832   0.398   0.194   6.603
 2959POPC   C3A39833   0.261   0.565   6.850
 2959POPC   C4A39834   0.317   0.569   7.286
 2959POPC   C1B39835   0.631   0.769   6.068
 2959POPC   C2B39836   0.645   0.630   6.489
 2959POPC   C3B39837   0.770   0.520   6.915
 2959POPC   C4B39838   1.053   0.746   7.171
 2960POPC   NC339839  44.231  39.926   5.163
 2960POPC   PO439840  43.920  40.391   5.490
 2960POPC   GL139841  44.051  40.249   5.941
 2960POPC   GL239842  44.320  39.990   5.919
 2960POPC   C1A39843  43.940  40.176   6.381
 2960POPC   D2A39844  43.657  39.909   6.632
 2960POPC   C3A39845  43.605  40.123   6.998
 2960POPC   C4A39846  43.999  40.223   7.141
 2960POPC   C1B39847  44.355  39.869   6.370
 2960POPC   C2B39848  44.163  39.861   6.802
 2960POPC   C3B39849  43.988  39.718   7.209
 2960POPC   C4B39850  44.122  39.804   7.661
 2961POPC   NC339851  21.802  17.805   5.361
 2961POPC   PO439852  22.482  17.589   5.262
 2961POPC   GL139853  22.185  17.584   5.663
 2961POPC   GL239854  22.430  17.585   5.961
 2961POPC   C1A39855  21.983  17.694   6.094
 2961POPC   D2A39856  22.117  17.394   6.428
 2961POPC   C3A39857  22.042  17.495   6.847
 2961POPC   C4A39858  21.935  17.607   7.269
 2961POPC   C1B39859  22.617  17.399   6.320
 2961POPC   C2B39860  22.540  17.209   6.701
 2961POPC   C3B39861  22.743  17.220   7.072
 2961POPC   C4B39862  22.366  17.351   7.220
 2962POPC   NC339863  42.719  13.473   5.475
 2962POPC   PO439864  42.356  14.054   5.399
 2962POPC   GL139865  42.312  13.797   5.802
 2962POPC   GL239866  42.375  13.425   5.868
 2962POPC   C1A39867  42.442  13.755   6.255
 2962POPC   D2A39868  42.627  13.537   6.602
 2962POPC   C3A39869  42.502  13.617   7.022
 2962POPC   C4A39870  42.359  13.993   7.151
 2962POPC   C1B39871  42.295  13.265   6.303
 2962POPC   C2B39872  42.184  13.328   6.754
 2962POPC   C3B39873  42.135  13.277   7.222
 2962POPC   C4B39874  42.105  13.243   7.710
 2963POPC   NC339875  37.872  15.835   5.306
 2963POPC   PO439876  37.365  16.283   5.205
 2963POPC   GL139877  37.349  16.216   5.656
 2963POPC   GL239878  37.598  16.001   5.739
 2963POPC   C1A39879  37.312  16.255   6.126
 2963POPC   D2A39880  37.520  16.197   6.533
 2963POPC   C3A39881  37.523  16.003   6.957
 2963POPC   C4A39882  37.687  16.003   7.416
 2963POPC   C1B39883  37.814  15.986   6.147
 2963POPC   C2B39884  37.955  15.932   6.583
 2963POPC   C3B39885  37.952  15.757   7.024
 2963POPC   C4B39886  38.058  15.683   7.458
 2964POPC   NC339887  36.618  40.600   5.070
 2964POPC   PO439888  36.822  41.201   5.270
 2964POPC   GL139889  36.869  40.857   5.594
 2964POPC   GL239890  36.662  40.560   5.619
 2964POPC   C1A39891  36.988  40.873   6.058
 2964POPC   D2A39892  36.892  41.067   6.461
 2964POPC   C3A39893  36.811  40.936   6.877
 2964POPC   C4A39894  36.533  41.152   7.155
 2964POPC   C1B39895  36.733  40.433   6.048
 2964POPC   C2B39896  36.706  40.581   6.486
 2964POPC   C3B39897  36.758  40.414   6.900
 2964POPC   C4B39898  36.702  40.635   7.284
 2965POPC   NC339899  36.841  14.002   5.393
 2965POPC   PO439900  36.452  14.485   5.429
 2965POPC   GL139901  36.755  14.339   5.758
 2965POPC   GL239902  37.137  14.327   5.672
 2965POPC   C1A39903  36.946  14.442   6.139
 2965POPC   D2A39904  37.007  14.736   6.452
 2965POPC   C3A39905  36.967  14.560   6.841
 2965POPC   C4A39906  37.120  14.714   7.233
 2965POPC   C1B39907  37.363  14.157   6.041
 2965POPC   C2B39908  37.332  14.268   6.478
 2965POPC   C3B39909  37.253  14.073   6.832
 2965POPC   C4B39910  37.097  14.213   7.206
 2966POPC   NC339911  26.052   1.305   5.072
 2966POPC   PO439912  26.185   1.065   5.428
 2966POPC   GL139913  26.218   1.084   5.899
 2966POPC   GL239914  25.879   1.182   5.987
 2966POPC   C1A39915  26.157   1.020   6.382
 2966POPC   D2A39916  25.897   1.160   6.746
 2966POPC   C3A39917  26.092   1.305   7.141
 2966POPC   C4A39918  26.249   1.054   7.506
 2966POPC   C1B39919  25.952   1.491   6.334
 2966POPC   C2B39920  25.754   1.659   6.726
 2966POPC   C3B39921  25.657   1.637   7.171
 2966POPC   C4B39922  25.972   1.665   7.514
 2967POPC   NC339923  40.035  34.219   5.720
 2967POPC   PO439924  40.095  33.472   5.608
 2967POPC   GL139925  40.068  33.727   5.888
 2967POPC   GL239926  39.735  33.804   5.958
 2967POPC   C1A39927  40.243  33.776   6.258
 2967POPC   D2A39928  40.246  34.000   6.603
 2967POPC   C3A39929  40.071  33.785   6.947
 2967POPC   C4A39930  40.223  33.844   7.355
 2967POPC   C1B39931  39.783  33.965   6.377
 2967POPC   C2B39932  39.618  34.132   6.756
 2967POPC   C3B39933  39.569  33.923   7.092
 2967POPC   C4B39934  39.709  33.512   7.247
 2968POPC   NC339935  29.810  26.949   5.307
 2968POPC   PO439936  29.670  26.334   5.379
 2968POPC   GL139937  29.729  26.633   5.707
 2968POPC   GL239938  30.097  26.720   5.767
 2968POPC   C1A39939  29.783  26.655   6.154
 2968POPC   D2A39940  30.033  26.660   6.506
 2968POPC   C3A39941  29.784  26.805   6.815
 2968POPC   C4A39942  29.799  26.633   7.181
 2968POPC   C1B39943  30.100  27.061   6.142
 2968POPC   C2B39944  30.222  27.137   6.616
 2968POPC   C3B39945  30.219  26.974   7.080
 2968POPC   C4B39946  30.371  27.095   7.571
 2969POPC   NC339947  29.341  40.523   5.387
 2969POPC   PO439948  29.300  41.158   5.411
 2969POPC   GL139949  29.326  40.850   5.794
 2969POPC   GL239950  28.988  40.687   5.887
 2969POPC   C1A39951  29.397  40.535   6.146
 2969POPC   D2A39952  29.208  40.541   6.564
 2969POPC   C3A39953  29.439  40.683   6.919
 2969POPC   C4A39954  29.456  41.010   7.180
 2969POPC   C1B39955  29.082  40.993   6.265
 2969POPC   C2B39956  29.142  41.104   6.741
 2969POPC   C3B39957  28.973  40.886   7.100
 2969POPC   C4B39958  28.993  40.494   7.183
 2970POPC   NC339959   7.757  22.776   5.183
 2970POPC   PO439960   7.219  23.069   5.431
 2970POPC   GL139961   7.258  22.962   5.853
 2970POPC   GL239962   7.238  23.310   5.929
 2970POPC   C1A39963   7.486  22.807   6.251
 2970POPC   D2A39964   7.733  22.920   6.627
 2970POPC   C3A39965   7.691  22.824   7.071
 2970POPC   C4A39966   7.452  22.778   7.440
 2970POPC   C1B39967   7.097  23.131   6.320
 2970POPC   C2B39968   7.238  22.980   6.724
 2970POPC   C3B39969   7.321  23.181   7.114
 2970POPC   C4B39970   7.210  23.248   7.559
 2971POPC   NC339971  22.564  17.907   5.597
 2971POPC   PO439972  22.912  18.489   5.329
 2971POPC   GL139973  23.006  18.444   5.794
 2971POPC   GL239974  22.696  18.319   5.887
 2971POPC   C1A39975  23.034  18.320   6.281
 2971POPC   D2A39976  22.790  18.099   6.661
 2971POPC   C3A39977  22.891  18.115   7.074
 2971POPC   C4A39978  23.035  18.275   7.473
 2971POPC   C1B39979  22.491  18.351   6.307
 2971POPC   C2B39980  22.717  18.590   6.618
 2971POPC   C3B39981  22.791  18.648   7.038
 2971POPC   C4B39982  22.551  18.427   7.295
 2972POPC   NC339983  41.710  31.056   5.586
 2972POPC   PO439984  41.526  31.560   5.198
 2972POPC   GL139985  41.382  31.506   5.692
 2972POPC   GL239986  41.232  31.227   5.796
 2972POPC   C1A39987  41.600  31.531   6.157
 2972POPC   D2A39988  41.511  31.676   6.584
 2972POPC   C3A39989  41.681  31.459   6.944
 2972POPC   C4A39990  41.747  31.627   7.364
 2972POPC   C1B39991  41.147  31.354   6.227
 2972POPC   C2B39992  41.398  31.166   6.580
 2972POPC   C3B39993  41.301  30.949   6.982
 2972POPC   C4B39994  41.484  31.171   7.342
 2973POPC   NC339995  39.895  16.180   5.197
 2973POPC   PO439996  39.139  16.048   5.332
 2973POPC   GL139997  39.144  15.968   5.739
 2973POPC   GL239998  39.479  15.916   5.782
 2973POPC   C1A39999  39.230  16.195   6.136
 2973POPC   D2A40000  39.160  16.003   6.534
 2973POPC   C3A40001  39.188  16.200   6.920
 2973POPC   C4A40002  39.038  16.033   7.290
 2973POPC   C1B40003  39.362  15.705   6.179
 2973POPC   C2B40004  39.568  15.731   6.636
 2973POPC   C3B40005  39.436  15.791   7.098
 2973POPC   C4B40006  39.340  15.768   7.593
 2974POPC   NC340007   8.010  33.428   5.360
 2974POPC   PO440008   8.371  32.822   5.376
 2974POPC   GL140009   8.322  32.949   5.779
 2974POPC   GL240010   8.059  33.179   5.814
 2974POPC   C1A40011   8.136  32.828   6.175
 2974POPC   D2A40012   8.295  32.922   6.565
 2974POPC   C3A40013   8.188  32.711   6.936
 2974POPC   C4A40014   8.047  32.814   7.363
 2974POPC   C1B40015   8.389  33.300   6.137
 2974POPC   C2B40016   8.344  33.419   6.562
 2974POPC   C3B40017   8.183  33.263   6.932
 2974POPC   C4B40018   8.358  33.322   7.310
 2975POPC   NC340019  11.198   0.958   5.306
 2975POPC   PO440020  11.515   0.366   5.357
 2975POPC   GL140021  11.291   0.320   5.736
 2975POPC   GL240022  11.178   0.654   5.749
 2975POPC   C1A40023  11.477   0.205   6.127
 2975POPC   D2A40024  11.453   0.398   6.535
 2975POPC   C3A40025  11.354   0.176   6.898
 2975POPC   C4A40026  11.509   0.313   7.254
 2975POPC   C1B40027  11.392   0.764   6.142
 2975POPC   C2B40028  11.283   0.891   6.572
 2975POPC   C3B40029  11.195   0.681   6.973
 2975POPC   C4B40030  11.382   0.817   7.367
 2976POPC   NC340031  32.714  24.368   5.332
 2976POPC   PO440032  33.322  24.705   5.335
 2976POPC   GL140033  33.079  24.496   5.691
 2976POPC   GL240034  32.790  24.701   5.776
 2976POPC   C1A40035  32.978  24.407   6.152
 2976POPC   D2A40036  33.212  24.416   6.565
 2976POPC   C3A40037  32.953  24.219   6.881
 2976POPC   C4A40038  32.538  24.209   7.062
 2976POPC   C1B40039  32.670  24.838   6.187
 2976POPC   C2B40040  32.720  24.611   6.568
 2976POPC   C3B40041  32.778  24.724   6.979
 2976POPC   C4B40042  32.492  24.775   7.296
 2977POPC   NC340043  35.060  18.969   5.552
 2977POPC   PO440044  34.395  18.781   5.526
 2977POPC   GL140045  34.675  18.741   5.848
 2977POPC   GL240046  34.679  19.077   5.927
 2977POPC   C1A40047  34.584  18.676   6.293
 2977POPC   D2A40048  34.301  18.862   6.571
 2977POPC   C3A40049  34.373  18.705   6.975
 2977POPC   C4A40050  34.257  18.817   7.365
 2977POPC   C1B40051  34.735  19.196   6.351
 2977POPC   C2B40052  34.704  19.108   6.781
 2977POPC   C3B40053  34.790  18.945   7.171
 2977POPC   C4B40054  34.730  19.128   7.550
 2978POPC   NC340055  15.487  44.013   5.397
 2978POPC   PO440056  15.105  43.474   5.391
 2978POPC   GL140057  15.113  43.774   5.737
 2978POPC   GL240058  14.871  43.582   5.864
 2978POPC   C1A40059  15.063  44.052   6.142
 2978POPC   D2A40060  15.066  44.327   6.548
 2978POPC   C3A40061  15.203  44.139   6.921
 2978POPC   C4A40062  15.070  44.125   7.340
 2978POPC   C1B40063  15.122  43.530   6.233
 2978POPC   C2B40064  15.121  43.633   6.686
 2978POPC   C3B40065  15.167  43.656   7.140
 2978POPC   C4B40066  15.027  43.535   7.579
 2979POPC   NC340067  42.693  44.237   5.555
 2979POPC   PO440068  43.050  43.698   5.207
 2979POPC   GL140069  43.030  43.849   5.685
 2979POPC   GL240070  43.049  44.162   5.933
 2979POPC   C1A40071  42.975  43.746   6.152
 2979POPC   D2A40072  42.895  44.054   6.487
 2979POPC   C3A40073  42.997  44.032   6.908
 2979POPC   C4A40074  42.939  43.731   7.195
 2979POPC   C1B40075  43.354  44.105   6.260
 2979POPC   C2B40076  43.421  43.869   6.660
 2979POPC   C3B40077  43.439  43.869   7.113
 2979POPC   C4B40078  43.461  44.198   7.412
 2980POPC   NC340079  44.938  24.268   5.519
 2980POPC   PO440080  44.850  23.601   5.551
 2980POPC   GL140081  44.681  23.668   5.925
 2980POPC   GL240082  44.690  24.006   5.901
 2980POPC   C1A40083  44.552  23.598   6.314
 2980POPC   D2A40084  44.554  23.421   6.696
 2980POPC   C3A40085  44.462  23.729   6.965
 2980POPC   C4A40086  44.615  23.573   7.328
 2980POPC   C1B40087  44.900  23.980   6.298
 2980POPC   C2B40088  44.925  23.769   6.690
 2980POPC   C3B40089  44.912  23.916   7.099
 2980POPC   C4B40090  44.842  23.963   7.557
 2981POPC   NC340091   6.363   9.962   5.375
 2981POPC   PO440092   6.938   9.619   5.309
 2981POPC   GL140093   6.758   9.513   5.723
 2981POPC   GL240094   6.563   9.801   5.816
 2981POPC   C1A40095   6.795   9.523   6.188
 2981POPC   D2A40096   6.646   9.676   6.598
 2981POPC   C3A40097   6.866   9.579   6.977
 2981POPC   C4A40098   6.659   9.500   7.382
 2981POPC   C1B40099   6.358   9.822   6.198
 2981POPC   C2B40100   6.307  10.113   6.525
 2981POPC   C3B40101   6.301  10.016   6.933
 2981POPC   C4B40102   6.141   9.684   7.131
 2982POPC   NC340103  18.961   0.033   5.035
 2982POPC   PO440104  19.087   0.610   5.370
 2982POPC   GL140105  19.104   0.404   5.756
 2982POPC   GL240106  18.921   0.063   5.759
 2982POPC   C1A40107  19.243   0.596   6.141
 2982POPC   D2A40108  19.035   0.642   6.549
 2982POPC   C3A40109  19.105   0.366   6.880
 2982POPC   C4A40110  19.218   0.362   7.272
 2982POPC   C1B40111  19.009   0.136   6.200
 2982POPC   C2B40112  18.765   0.179   6.549
 2982POPC   C3B40113  18.773  44.943   6.912
 2982POPC   C4B40114  18.785   0.108   7.302
 2983POPC   NC340115  24.048  32.968   5.236
 2983POPC   PO440116  23.583  33.285   5.531
 2983POPC   GL140117  23.796  33.021   5.783
 2983POPC   GL240118  23.999  33.143   6.042
 2983POPC   C1A40119  23.575  32.880   6.148
 2983POPC   D2A40120  23.714  32.905   6.558
 2983POPC   C3A40121  23.432  32.942   6.900
 2983POPC   C4A40122  23.355  32.772   7.328
 2983POPC   C1B40123  23.614  33.392   6.183
 2983POPC   C2B40124  23.490  33.429   6.590
 2983POPC   C3B40125  23.798  33.285   6.898
 2983POPC   C4B40126  23.754  33.117   7.292
 2984POPC   NC340127   7.548  42.705   5.424
 2984POPC   PO440128   7.622  42.050   5.573
 2984POPC   GL140129   7.513  42.359   5.895
 2984POPC   GL240130   7.231  42.574   5.832
 2984POPC   C1A40131   7.572  42.346   6.333
 2984POPC   D2A40132   7.788  42.485   6.699
 2984POPC   C3A40133   7.674  42.204   7.022
 2984POPC   C4A40134   7.263  41.998   7.111
 2984POPC   C1B40135   7.069  42.407   6.241
 2984POPC   C2B40136   7.201  42.282   6.664
 2984POPC   C3B40137   7.275  42.519   7.027
 2984POPC   C4B40138   6.973  42.559   7.309
 2985POPC   NC340139  12.640  43.885   5.392
 2985POPC   PO440140  12.707  44.502   5.497
 2985POPC   GL140141  12.762  44.235   5.834
 2985POPC   GL240142  12.996  43.952   5.800
 2985POPC   C1A40143  12.582  43.938   6.127
 2985POPC   D2A40144  12.609  43.632   6.486
 2985POPC   C3A40145  12.764  43.788   6.895
 2985POPC   C4A40146  12.887  44.028   7.276
 2985POPC   C1B40147  13.061  43.762   6.236
 2985POPC   C2B40148  13.228  43.738   6.673
 2985POPC   C3B40149  13.251  43.654   7.148
 2985POPC   C4B40150  13.296  43.901   7.557
 2986POPC   NC340151  14.821  10.294   5.468
 2986POPC   PO440152  14.243  10.686   5.440
 2986POPC   GL140153  14.294  10.543   5.876
 2986POPC   GL240154  14.542  10.281   5.902
 2986POPC   C1A40155  14.486  10.645   6.293
 2986POPC   D2A40156  14.502  10.392   6.674
 2986POPC   C3A40157  14.300  10.611   7.007
 2986POPC   C4A40158  14.551  10.917   7.171
 2986POPC   C1B40159  14.896  10.312   6.227
 2986POPC   C2B40160  15.030  10.203   6.659
 2986POPC   C3B40161  14.858  10.332   7.050
 2986POPC   C4B40162  14.451  10.138   7.197
 2987POPC   NC340163  33.365   7.637   5.440
 2987POPC   PO440164  33.094   7.066   5.659
 2987POPC   GL140165  33.127   7.471   5.872
 2987POPC   GL240166  32.790   7.552   5.817
 2987POPC   C1A40167  33.171   7.543   6.317
 2987POPC   D2A40168  32.992   7.241   6.657
 2987POPC   C3A40169  33.090   7.345   7.079
 2987POPC   C4A40170  33.356   7.481   7.433
 2987POPC   C1B40171  32.690   7.369   6.236
 2987POPC   C2B40172  32.480   7.307   6.662
 2987POPC   C3B40173  32.519   7.304   7.149
 2987POPC   C4B40174  32.762   7.017   7.400
 2988POPC   NC340175  40.017   2.846   5.449
 2988POPC   PO440176  39.415   2.404   5.523
 2988POPC   GL140177  39.698   2.661   5.813
 2988POPC   GL240178  40.036   2.541   5.884
 2988POPC   C1A40179  39.830   2.875   6.219
 2988POPC   D2A40180  39.652   3.035   6.619
 2988POPC   C3A40181  39.693   2.830   7.021
 2988POPC   C4A40182  39.707   2.803   7.474
 2988POPC   C1B40183  40.340   2.619   6.200
 2988POPC   C2B40184  40.285   2.792   6.587
 2988POPC   C3B40185  40.145   2.532   6.912
 2988POPC   C4B40186  40.067   2.456   7.317
 2989POPC   NC340187  14.089  10.252   5.505
 2989POPC   PO440188  13.409  10.146   5.504
 2989POPC   GL140189  13.647  10.442   5.772
 2989POPC   GL240190  13.464  10.739   5.924
 2989POPC   C1A40191  13.824  10.465   6.194
 2989POPC   D2A40192  13.628  10.266   6.574
 2989POPC   C3A40193  13.813  10.384   6.935
 2989POPC   C4A40194  13.808  10.751   7.165
 2989POPC   C1B40195  13.360  10.630   6.334
 2989POPC   C2B40196  13.478  10.734   6.754
 2989POPC   C3B40197  13.286  10.823   7.138
 2989POPC   C4B40198  12.883  10.982   7.165
 2990POPC   NC340199  33.917   3.345   5.445
 2990POPC   PO440200  33.610   3.994   5.507
 2990POPC   GL140201  33.660   3.655   5.758
 2990POPC   GL240202  34.016   3.664   5.846
 2990POPC   C1A40203  33.554   3.630   6.178
 2990POPC   D2A40204  33.672   3.462   6.561
 2990POPC   C3A40205  33.522   3.717   6.862
 2990POPC   C4A40206  33.488   3.503   7.209
 2990POPC   C1B40207  33.980   3.311   6.163
 2990POPC   C2B40208  34.123   3.207   6.611
 2990POPC   C3B40209  33.956   3.337   7.032
 2990POPC   C4B40210  33.931   3.768   7.179
 2991POPC   NC340211  13.481   4.304   5.521
 2991POPC   PO440212  13.881   4.698   5.339
 2991POPC   GL140213  13.870   4.418   5.813
 2991POPC   GL240214  13.684   4.042   5.916
 2991POPC   C1A40215  13.829   4.344   6.292
 2991POPC   D2A40216  13.539   4.269   6.637
 2991POPC   C3A40217  13.750   4.247   7.042
 2991POPC   C4A40218  14.009   4.575   7.285
 2991POPC   C1B40219  13.338   3.939   6.250
 2991POPC   C2B40220  13.090   4.000   6.651
 2991POPC   C3B40221  13.073   4.216   7.059
 2991POPC   C4B40222  13.152   4.307   7.531
 2992POPC   NC340223  37.767  44.370   5.564
 2992POPC   PO440224  37.366  44.949   5.422
 2992POPC   GL140225  37.488  44.749   5.803
 2992POPC   GL240226  37.289  44.443   5.772
 2992POPC   C1A40227  37.781  44.806   6.169
 2992POPC   D2A40228  38.042  44.830   6.530
 2992POPC   C3A40229  37.894  44.901   6.935
 2992POPC   C4A40230  37.751  44.623   7.244
 2992POPC   C1B40231  37.518  44.377   6.186
 2992POPC   C2B40232  37.653  44.511   6.616
 2992POPC   C3B40233  37.977  44.361   6.880
 2992POPC   C4B40234  37.944  44.071   7.226
 2993POPC   NC340235  21.507  13.245   5.312
 2993POPC   PO440236  21.230  13.917   5.320
 2993POPC   GL140237  21.417  13.663   5.651
 2993POPC   GL240238  21.207  13.369   5.738
 2993POPC   C1A40239  21.357  13.749   6.096
 2993POPC   D2A40240  21.244  13.927   6.504
 2993POPC   C3A40241  21.409  13.895   6.916
 2993POPC   C4A40242  21.141  13.994   7.222
 2993POPC   C1B40243  21.311  13.270   6.187
 2993POPC   C2B40244  21.361  13.448   6.607
 2993POPC   C3B40245  21.457  13.400   7.058
 2993POPC   C4B40246  21.478  13.272   7.485
 2994POPC   NC340247  25.857   3.929   5.401
 2994POPC   PO440248  25.962   3.309   5.462
 2994POPC   GL140249  26.078   3.633   5.747
 2994POPC   GL240250  25.787   3.696   5.876
 2994POPC   C1A40251  26.222   3.735   6.170
 2994POPC   D2A40252  26.311   3.470   6.526
 2994POPC   C3A40253  26.249   3.530   6.967
 2994POPC   C4A40254  26.410   3.714   7.317
 2994POPC   C1B40255  25.744   3.761   6.322
 2994POPC   C2B40256  25.961   3.822   6.685
 2994POPC   C3B40257  25.945   3.916   7.123
 2994POPC   C4B40258  25.929   3.620   7.447
 2995POPC   NC340259   5.438  41.569   5.337
 2995POPC   PO440260   4.790  41.795   5.270
 2995POPC   GL140261   5.006  41.492   5.621
 2995POPC   GL240262   5.340  41.424   5.802
 2995POPC   C1A40263   4.967  41.500   6.107
 2995POPC   D2A40264   5.167  41.459   6.516
 2995POPC   C3A40265   4.993  41.499   6.931
 2995POPC   C4A40266   5.208  41.600   7.328
 2995POPC   C1B40267   5.388  41.130   6.167
 2995POPC   C2B40268   5.548  40.938   6.561
 2995POPC   C3B40269   5.412  41.168   6.918
 2995POPC   C4B40270   5.377  41.124   7.324
 2996POPC   NC340271  39.316   1.723   5.351
 2996POPC   PO440272  38.795   2.085   5.379
 2996POPC   GL140273  38.954   1.985   5.779
 2996POPC   GL240274  39.298   1.986   5.778
 2996POPC   C1A40275  39.092   2.153   6.202
 2996POPC   D2A40276  38.965   1.941   6.551
 2996POPC   C3A40277  39.229   2.028   6.878
 2996POPC   C4A40278  39.316   2.061   7.254
 2996POPC   C1B40279  39.433   1.787   6.145
 2996POPC   C2B40280  39.410   1.672   6.573
 2996POPC   C3B40281  39.656   1.723   6.965
 2996POPC   C4B40282  39.806   1.921   7.318
 2997POPC   NC340283  32.448  41.640   5.242
 2997POPC   PO440284  31.854  41.883   5.420
 2997POPC   GL140285  32.032  41.658   5.827
 2997POPC   GL240286  32.374  41.521   5.777
 2997POPC   C1A40287  32.218  41.668   6.287
 2997POPC   D2A40288  32.424  41.763   6.688
 2997POPC   C3A40289  32.102  41.766   6.949
 2997POPC   C4A40290  31.886  41.888   7.293
 2997POPC   C1B40291  32.458  41.251   6.137
 2997POPC   C2B40292  32.504  41.253   6.580
 2997POPC   C3B40293  32.262  41.273   6.933
 2997POPC   C4B40294  32.280  41.494   7.347
 2998POPC   NC340295   4.580  28.920   5.556
 2998POPC   PO440296   4.200  28.434   5.262
 2998POPC   GL140297   4.321  28.495   5.691
 2998POPC   GL240298   4.612  28.299   5.665
 2998POPC   C1A40299   4.229  28.648   6.133
 2998POPC   D2A40300   4.054  28.467   6.527
 2998POPC   C3A40301   4.099  28.615   6.952
 2998POPC   C4A40302   4.130  28.392   7.338
 2998POPC   C1B40303   4.537  28.193   6.091
 2998POPC   C2B40304   4.410  28.091   6.499
 2998POPC   C3B40305   4.479  28.285   6.897
 2998POPC   C4B40306   4.718  28.120   7.226
 2999POPC   NC340307  19.797  34.228   5.402
 2999POPC   PO440308  19.617  34.930   5.405
 2999POPC   GL140309  19.875  34.713   5.714
 2999POPC   GL240310  19.597  34.494   5.817
 2999POPC   C1A40311  20.010  34.719   6.164
 2999POPC   D2A40312  19.913  34.903   6.555
 2999POPC   C3A40313  20.053  34.767   6.969
 2999POPC   C4A40314  19.917  34.807   7.420
 2999POPC   C1B40315  19.348  34.257   6.130
 2999POPC   C2B40316  19.530  34.184   6.495
 2999POPC   C3B40317  19.393  34.215   6.915
 2999POPC   C4B40318  19.341  34.424   7.283
 3000POPC   NC340319  13.872  17.793   5.475
 3000POPC   PO440320  13.344  17.333   5.464
 3000POPC   GL140321  13.493  17.562   5.780
 3000POPC   GL240322  13.273  17.803   5.905
 3000POPC   C1A40323  13.606  17.444   6.186
 3000POPC   D2A40324  13.874  17.645   6.479
 3000POPC   C3A40325  13.831  17.557   6.889
 3000POPC   C4A40326  13.582  17.529   7.236
 3000POPC   C1B40327  13.505  17.931   6.238
 3000POPC   C2B40328  13.451  17.879   6.663
 3000POPC   C3B40329  13.574  17.997   7.049
 3000POPC   C4B40330  13.288  17.984   7.357
 3001POPC   NC340331  26.552  19.002   5.227
 3001POPC   PO440332  27.199  19.057   5.487
 3001POPC   GL140333  26.833  18.950   5.743
 3001POPC   GL240334  26.491  19.094   5.726
 3001POPC   C1A40335  26.882  18.857   6.177
 3001POPC   D2A40336  27.086  18.953   6.571
 3001POPC   C3A40337  27.057  18.733   6.962
 3001POPC   C4A40338  27.119  18.993   7.330
 3001POPC   C1B40339  26.495  19.188   6.172
 3001POPC   C2B40340  26.569  18.994   6.618
 3001POPC   C3B40341  26.639  19.016   7.080
 3001POPC   C4B40342  26.650  19.234   7.450
 3002POPC   NC340343  44.809  14.407   5.006
 3002POPC   PO440344  44.128  14.319   5.170
 3002POPC   GL140345  44.356  14.255   5.613
 3002POPC   GL240346  44.726  14.388   5.587
 3002POPC   C1A40347  44.535  14.301   6.101
 3002POPC   D2A40348  44.681  14.247   6.593
 3002POPC   C3A40349  44.484  14.449   6.972
 3002POPC   C4A40350  44.316  14.788   7.229
 3002POPC   C1B40351  44.931  14.625   5.962
 3002POPC   C2B40352  44.781  14.715   6.395
 3002POPC   C3B40353  44.925  14.682   6.825
 3002POPC   C4B40354  44.971  14.364   7.132
 3003POPC   NC340355   9.984  35.436   5.555
 3003POPC   PO440356  10.581  35.248   5.428
 3003POPC   GL140357  10.526  35.476   5.802
 3003POPC   GL240358  10.308  35.245   5.892
 3003POPC   C1A40359  10.543  35.463   6.265
 3003POPC   D2A40360  10.372  35.420   6.683
 3003POPC   C3A40361  10.583  35.604   7.044
 3003POPC   C4A40362  10.517  35.511   7.494
 3003POPC   C1B40363  10.263  35.012   6.278
 3003POPC   C2B40364  10.122  34.986   6.663
 3003POPC   C3B40365  10.279  35.006   7.047
 3003POPC   C4B40366  10.211  35.057   7.481
 3004POPC   NC340367  42.764  32.895   5.478
 3004POPC   PO440368  43.406  32.888   5.409
 3004POPC   GL140369  43.265  33.168   5.731
 3004POPC   GL240370  43.087  32.914   5.860
 3004POPC   C1A40371  43.366  33.203   6.187
 3004POPC   D2A40372  43.140  33.046   6.569
 3004POPC   C3A40373  43.341  33.023   6.970
 3004POPC   C4A40374  43.272  32.687   7.257
 3004POPC   C1B40375  42.815  32.992   6.168
 3004POPC   C2B40376  42.668  33.194   6.519
 3004POPC   C3B40377  42.775  33.253   6.936
 3004POPC   C4B40378  42.965  33.090   7.310
 3005POPC   NC340379  40.275   1.626   5.496
 3005POPC   PO440380  40.351   0.919   5.434
 3005POPC   GL140381  40.191   1.086   5.831
 3005POPC   GL240382  39.960   1.379   5.818
 3005POPC   C1A40383  40.024   1.132   6.259
 3005POPC   D2A40384  39.723   1.055   6.562
 3005POPC   C3A40385  39.816   0.980   6.951
 3005POPC   C4A40386  40.030   0.955   7.284
 3005POPC   C1B40387  39.938   1.667   6.149
 3005POPC   C2B40388  39.892   1.549   6.537
 3005POPC   C3B40389  40.122   1.381   6.828
 3005POPC   C4B40390  40.107   1.525   7.242
 3006POPC   NC340391  40.452   5.453   5.298
 3006POPC   PO440392  40.986   4.949   5.228
 3006POPC   GL140393  40.931   5.021   5.693
 3006POPC   GL240394  40.598   4.881   5.823
 3006POPC   C1A40395  40.891   5.202   6.129
 3006POPC   D2A40396  40.913   5.068   6.576
 3006POPC   C3A40397  41.124   5.333   6.886
 3006POPC   C4A40398  40.933   5.476   7.244
 3006POPC   C1B40399  40.373   5.115   6.165
 3006POPC   C2B40400  40.403   5.169   6.597
 3006POPC   C3B40401  40.592   5.221   6.977
 3006POPC   C4B40402  40.911   4.939   7.157
 3007POPC   NC340403  11.516  43.101   5.397
 3007POPC   PO440404  11.001  43.479   5.243
 3007POPC   GL140405  11.198  43.296   5.715
 3007POPC   GL240406  11.348  42.944   5.839
 3007POPC   C1A40407  11.413  43.369   6.132
 3007POPC   D2A40408  11.685  43.260   6.503
 3007POPC   C3A40409  11.505  43.249   6.870
 3007POPC   C4A40410  11.353  43.317   7.254
 3007POPC   C1B40411  11.621  42.851   6.218
 3007POPC   C2B40412  11.538  42.750   6.681
 3007POPC   C3B40413  11.522  42.816   7.158
 3007POPC   C4B40414  11.306  42.821   7.599
 3008POPC   NC340415  16.279  41.703   5.463
 3008POPC   PO440416  15.789  41.334   5.427
 3008POPC   GL140417  15.848  41.527   5.842
 3008POPC   GL240418  15.581  41.259   5.946
 3008POPC   C1A40419  16.058  41.834   6.190
 3008POPC   D2A40420  16.364  42.002   6.538
 3008POPC   C3A40421  16.306  41.807   6.987
 3008POPC   C4A40422  16.386  41.430   7.247
 3008POPC   C1B40423  15.630  41.545   6.305
 3008POPC   C2B40424  15.899  41.587   6.671
 3008POPC   C3B40425  15.882  41.448   7.094
 3008POPC   C4B40426  15.941  41.714   7.420
 3009POPC   NC340427  11.772  32.312   5.112
 3009POPC   PO440428  11.205  31.908   5.296
 3009POPC   GL140429  11.119  31.994   5.765
 3009POPC   GL240430  11.169  32.340   5.891
 3009POPC   C1A40431  11.222  31.961   6.218
 3009POPC   D2A40432  11.213  32.140   6.603
 3009POPC   C3A40433  11.345  31.990   6.972
 3009POPC   C4A40434  11.155  32.034   7.361
 3009POPC   C1B40435  11.453  32.463   6.266
 3009POPC   C2B40436  11.563  32.502   6.734
 3009POPC   C3B40437  11.335  32.496   7.132
 3009POPC   C4B40438  11.180  32.499   7.589
 3010POPC   NC340439   0.824  19.320   5.364
 3010POPC   PO440440   1.454  19.111   5.278
 3010POPC   GL140441   1.287  19.292   5.671
 3010POPC   GL240442   1.097  19.000   5.696
 3010POPC   C1A40443   1.320  19.141   6.128
 3010POPC   D2A40444   1.428  19.293   6.529
 3010POPC   C3A40445   1.526  19.122   6.930
 3010POPC   C4A40446   1.309  19.064   7.307
 3010POPC   C1B40447   0.868  18.902   6.118
 3010POPC   C2B40448   0.811  19.131   6.494
 3010POPC   C3B40449   0.995  19.023   6.866
 3010POPC   C4B40450   0.863  18.807   7.219
 3011POPC   NC340451  21.670  42.149   5.265
 3011POPC   PO440452  21.169  42.558   5.438
 3011POPC   GL140453  21.535  42.396   5.695
 3011POPC   GL240454  21.576  42.658   5.933
 3011POPC   C1A40455  21.751  42.192   6.055
 3011POPC   D2A40456  21.722  42.352   6.484
 3011POPC   C3A40457  21.457  42.115   6.750
 3011POPC   C4A40458  21.155  42.144   7.081
 3011POPC   C1B40459  21.754  42.858   6.297
 3011POPC   C2B40460  21.691  42.814   6.763
 3011POPC   C3B40461  21.466  42.558   7.055
 3011POPC   C4B40462  21.622  42.283   7.384
 3012POPC   NC340463  30.531  19.492   5.347
 3012POPC   PO440464  31.024  19.974   5.392
 3012POPC   GL140465  30.825  19.853   5.761
 3012POPC   GL240466  30.741  20.192   5.804
 3012POPC   C1A40467  30.881  19.622   6.170
 3012POPC   D2A40468  30.639  19.515   6.554
 3012POPC   C3A40469  30.843  19.603   6.965
 3012POPC   C4A40470  30.868  19.592   7.427
 3012POPC   C1B40471  30.625  20.054   6.222
 3012POPC   C2B40472  30.854  19.980   6.582
 3012POPC   C3B40473  30.750  20.121   6.971
 3012POPC   C4B40474  30.491  20.174   7.279
 3013POPC   NC340475  39.227   3.226   5.297
 3013POPC   PO440476  39.013   3.889   5.330
 3013POPC   GL140477  39.190   3.767   5.740
 3013POPC   GL240478  39.546   3.676   5.721
 3013POPC   C1A40479  39.048   3.732   6.177
 3013POPC   D2A40480  39.193   3.870   6.579
 3013POPC   C3A40481  39.185   3.638   6.983
 3013POPC   C4A40482  39.246   3.593   7.445
 3013POPC   C1B40483  39.559   3.775   6.186
 3013POPC   C2B40484  39.641   3.565   6.612
 3013POPC   C3B40485  39.619   3.370   7.033
 3013POPC   C4B40486  39.756   3.538   7.448
 3014POPC   NC340487  28.152  35.936   5.170
 3014POPC   PO440488  28.533  36.360   5.425
 3014POPC   GL140489  28.458  36.160   5.814
 3014POPC   GL240490  28.172  36.027   5.713
 3014POPC   C1A40491  28.669  35.929   6.184
 3014POPC   D2A40492  28.916  36.114   6.542
 3014POPC   C3A40493  28.688  36.337   6.873
 3014POPC   C4A40494  28.416  36.111   7.172
 3014POPC   C1B40495  28.188  35.780   6.087
 3014POPC   C2B40496  28.091  35.695   6.481
 3014POPC   C3B40497  28.099  35.879   6.848
 3014POPC   C4B40498  28.027  35.790   7.263
 3015POPC   NC340499  26.563  39.152   5.084
 3015POPC   PO440500  25.865  39.139   5.319
 3015POPC   GL140501  26.059  39.221   5.739
 3015POPC   GL240502  25.871  38.961   5.861
 3015POPC   C1A40503  26.252  39.451   6.112
 3015POPC   D2A40504  26.389  39.341   6.524
 3015POPC   C3A40505  26.144  39.232   6.903
 3015POPC   C4A40506  26.212  39.486   7.270
 3015POPC   C1B40507  25.991  39.052   6.273
 3015POPC   C2B40508  25.914  38.849   6.604
 3015POPC   C3B40509  25.740  38.877   6.994
 3015POPC   C4B40510  25.743  39.127   7.346
 3016POPC   NC340511   2.638   6.935   5.487
 3016POPC   PO440512   2.276   6.373   5.537
 3016POPC   GL140513   2.606   6.384   5.854
 3016POPC   GL240514   2.820   6.685   5.898
 3016POPC   C1A40515   2.584   6.465   6.297
 3016POPC   D2A40516   2.768   6.772   6.564
 3016POPC   C3A40517   2.592   6.784   6.974
 3016POPC   C4A40518   2.555   6.473   7.289
 3016POPC   C1B40519   3.086   6.417   6.162
 3016POPC   C2B40520   3.134   6.361   6.604
 3016POPC   C3B40521   3.000   6.394   7.027
 3016POPC   C4B40522   3.188   6.716   7.310
 3017POPC   NC340523  20.093  41.849   5.372
 3017POPC   PO440524  20.474  41.351   5.412
 3017POPC   GL140525  20.616  41.593   5.753
 3017POPC   GL240526  20.328  41.466   5.881
 3017POPC   C1A40527  20.739  41.520   6.203
 3017POPC   D2A40528  20.848  41.187   6.524
 3017POPC   C3A40529  20.821  41.383   6.920
 3017POPC   C4A40530  20.836  41.752   7.202
 3017POPC   C1B40531  20.234  41.836   6.105
 3017POPC   C2B40532  20.300  41.994   6.518
 3017POPC   C3B40533  20.424  41.702   6.833
 3017POPC   C4B40534  20.341  41.704   7.254
 3018POPC   NC340535  28.874  41.336   5.448
 3018POPC   PO440536  29.274  41.909   5.343
 3018POPC   GL140537  29.265  41.616   5.676
 3018POPC   GL240538  29.560  41.686   5.789
 3018POPC   C1A40539  29.114  41.512   6.095
 3018POPC   D2A40540  29.247  41.554   6.526
 3018POPC   C3A40541  29.108  41.617   6.959
 3018POPC   C4A40542  29.102  41.356   7.256
 3018POPC   C1B40543  29.565  41.844   6.205
 3018POPC   C2B40544  29.483  41.988   6.624
 3018POPC   C3B40545  29.407  42.039   7.046
 3018POPC   C4B40546  29.261  41.859   7.449
 3019POPC   NC340547  29.386   2.128   5.567
 3019POPC   PO440548  28.868   1.863   5.322
 3019POPC   GL140549  28.959   1.912   5.783
 3019POPC   GL240550  29.002   2.254   5.913
 3019POPC   C1A40551  29.267   1.854   6.169
 3019POPC   D2A40552  29.378   1.783   6.626
 3019POPC   C3A40553  29.126   2.038   6.919
 3019POPC   C4A40554  28.848   1.883   7.233
 3019POPC   C1B40555  29.358   2.365   6.211
 3019POPC   C2B40556  29.329   2.427   6.655
 3019POPC   C3B40557  29.398   2.459   7.096
 3019POPC   C4B40558  29.338   2.276   7.501
 3020POPC   NC340559  41.359  23.155   5.467
 3020POPC   PO440560  41.764  22.649   5.271
 3020POPC   GL140561  41.668  22.779   5.733
 3020POPC   GL240562  41.341  22.846   5.872
 3020POPC   C1A40563  41.736  22.929   6.203
 3020POPC   D2A40564  41.973  22.960   6.608
 3020POPC   C3A40565  41.753  23.066   7.012
 3020POPC   C4A40566  41.621  22.886   7.417
 3020POPC   C1B40567  41.249  22.723   6.294
 3020POPC   C2B40568  41.402  22.924   6.649
 3020POPC   C3B40569  41.280  22.870   7.052
 3020POPC   C4B40570  41.134  23.043   7.429
 3021POPC   NC340571  42.933  18.726   5.507
 3021POPC   PO440572  43.172  19.333   5.452
 3021POPC   GL140573  43.150  19.093   5.791
 3021POPC   GL240574  43.402  18.884   5.713
 3021POPC   C1A40575  43.030  18.952   6.189
 3021POPC   D2A40576  43.159  19.050   6.597
 3021POPC   C3A40577  42.951  18.898   6.955
 3021POPC   C4A40578  43.030  19.092   7.322
 3021POPC   C1B40579  43.519  18.806   6.131
 3021POPC   C2B40580  43.597  18.765   6.584
 3021POPC   C3B40581  43.483  18.910   7.004
 3021POPC   C4B40582  43.332  18.710   7.361
 3022POPC   NC340583  40.627  14.191   5.366
 3022POPC   PO440584  40.720  14.864   5.420
 3022POPC   GL140585  40.835  14.590   5.763
 3022POPC   GL240586  40.518  14.418   5.805
 3022POPC   C1A40587  40.852  14.430   6.222
 3022POPC   D2A40588  41.062  14.573   6.615
 3022POPC   C3A40589  40.928  14.601   7.077
 3022POPC   C4A40590  41.102  14.468   7.487
 3022POPC   C1B40591  40.446  14.104   6.109
 3022POPC   C2B40592  40.636  13.937   6.456
 3022POPC   C3B40593  40.663  14.043   6.859
 3022POPC   C4B40594  40.493  14.324   7.135
 3023POPC   NC340595  15.331  15.085   5.303
 3023POPC   PO440596  14.860  15.555   5.275
 3023POPC   GL140597  15.046  15.286   5.687
 3023POPC   GL240598  15.331  15.010   5.805
 3023POPC   C1A40599  15.191  15.391   6.130
 3023POPC   D2A40600  15.429  15.457   6.528
 3023POPC   C3A40601  15.235  15.483   6.936
 3023POPC   C4A40602  15.129  15.461   7.376
 3023POPC   C1B40603  15.266  14.896   6.258
 3023POPC   C2B40604  15.295  15.000   6.704
 3023POPC   C3B40605  15.283  15.017   7.122
 3023POPC   C4B40606  15.466  15.025   7.507
 3024POPC   NC340607  19.855  21.416   5.324
 3024POPC   PO440608  20.098  20.763   5.335
 3024POPC   GL140609  20.099  21.164   5.695
 3024POPC   GL240610  19.735  21.383   5.797
 3024POPC   C1A40611  20.094  21.433   6.123
 3024POPC   D2A40612  19.857  21.409   6.544
 3024POPC   C3A40613  20.039  21.259   6.957
 3024POPC   C4A40614  19.884  21.530   7.274
 3024POPC   C1B40615  19.533  21.612   6.179
 3024POPC   C2B40616  19.380  21.541   6.641
 3024POPC   C3B40617  19.539  21.261   7.000
 3024POPC   C4B40618  19.619  21.129   7.447
 3025POPC   NC340619  44.207  43.675   5.447
 3025POPC   PO440620  44.676  44.163   5.424
 3025POPC   GL140621  44.606  43.916   5.761
 3025POPC   GL240622  44.288  44.040   5.825
 3025POPC   C1A40623  44.602  43.700   6.162
 3025POPC   D2A40624  44.423  43.727   6.573
 3025POPC   C3A40625  44.621  43.775   6.959
 3025POPC   C4A40626  44.800  43.922   7.346
 3025POPC   C1B40627  44.315  44.155   6.289
 3025POPC   C2B40628  44.330  44.398   6.681
 3025POPC   C3B40629  44.577  44.300   7.085
 3025POPC   C4B40630  44.364  44.116   7.488
 3026POPC   NC340631  35.190  14.148   5.077
 3026POPC   PO440632  35.034  13.559   5.465
 3026POPC   GL140633  35.320  13.438   5.799
 3026POPC   GL240634  35.211  13.694   5.995
 3026POPC   C1A40635  35.532  13.358   6.205
 3026POPC   D2A40636  35.408  13.576   6.579
 3026POPC   C3A40637  35.448  13.419   6.977
 3026POPC   C4A40638  35.369  13.512   7.404
 3026POPC   C1B40639  35.020  13.840   6.336
 3026POPC   C2B40640  35.029  13.981   6.711
 3026POPC   C3B40641  35.177  13.857   7.080
 3026POPC   C4B40642  35.039  13.877   7.483
 3027POPC   NC340643   2.468  44.667   5.506
 3027POPC   PO440644   3.083  44.242   5.396
 3027POPC   GL140645   2.913  44.415   5.800
 3027POPC   GL240646   2.901  44.788   5.804
 3027POPC   C1A40647   2.905  44.475   6.270
 3027POPC   D2A40648   3.119  44.367   6.682
 3027POPC   C3A40649   2.924  44.567   7.049
 3027POPC   C4A40650   2.469  44.587   7.170
 3027POPC   C1B40651   2.704  44.939   6.194
 3027POPC   C2B40652   2.690  44.795   6.633
 3027POPC   C3B40653   2.711   0.035   7.010
 3027POPC   C4B40654   2.760  44.923   7.416
 3028POPC   NC340655  12.676  28.272   5.368
 3028POPC   PO440656  13.350  28.179   5.472
 3028POPC   GL140657  13.002  28.163   5.798
 3028POPC   GL240658  12.789  28.465   5.830
 3028POPC   C1A40659  13.019  28.304   6.245
 3028POPC   D2A40660  13.273  28.558   6.496
 3028POPC   C3A40661  13.054  28.669   6.888
 3028POPC   C4A40662  12.965  28.476   7.278
 3028POPC   C1B40663  12.533  28.199   6.165
 3028POPC   C2B40664  12.466  28.297   6.634
 3028POPC   C3B40665  12.593  28.158   7.066
 3028POPC   C4B40666  12.507  28.196   7.553
 3029POPC   NC340667  29.016  19.254   5.413
 3029POPC   PO440668  29.510  18.802   5.397
 3029POPC   GL140669  29.173  18.886   5.706
 3029POPC   GL240670  29.179  19.240   5.899
 3029POPC   C1A40671  28.909  18.858   6.075
 3029POPC   D2A40672  29.173  19.009   6.416
 3029POPC   C3A40673  29.253  18.866   6.829
 3029POPC   C4A40674  28.930  18.957   7.142
 3029POPC   C1B40675  29.506  19.356   6.221
 3029POPC   C2B40676  29.427  19.449   6.670
 3029POPC   C3B40677  29.252  19.369   7.093
 3029POPC   C4B40678  29.385  19.429   7.531
 3030POPC   NC340679  43.454  20.829   5.114
 3030POPC   PO440680  43.355  20.271   5.486
 3030POPC   GL140681  43.022  20.416   5.761
 3030POPC   GL240682  43.291  20.347   6.006
 3030POPC   C1A40683  42.897  20.586   6.196
 3030POPC   D2A40684  43.070  20.372   6.575
 3030POPC   C3A40685  42.830  20.362   6.941
 3030POPC   C4A40686  42.947  20.693   7.212
 3030POPC   C1B40687  43.566  20.314   6.377
 3030POPC   C2B40688  43.518  20.542   6.787
 3030POPC   C3B40689  43.456  20.727   7.197
 3030POPC   C4B40690  43.338  20.466   7.603
 3031POPC   NC340691  43.151  31.349   5.383
 3031POPC   PO440692  42.517  31.704   5.309
 3031POPC   GL140693  42.829  31.653   5.650
 3031POPC   GL240694  43.020  31.944   5.695
 3031POPC   C1A40695  43.087  31.594   6.054
 3031POPC   D2A40696  42.995  31.399   6.456
 3031POPC   C3A40697  43.231  31.306   6.840
 3031POPC   C4A40698  42.996  31.274   7.208
 3031POPC   C1B40699  42.708  31.959   6.066
 3031POPC   C2B40700  42.597  31.772   6.502
 3031POPC   C3B40701  42.832  31.675   6.901
 3031POPC   C4B40702  43.211  31.728   7.194
 3032POPC   NC340703  36.604  22.391   5.393
 3032POPC   PO440704  37.016  21.780   5.314
 3032POPC   GL140705  36.885  22.071   5.680
 3032POPC   GL240706  37.140  22.299   5.772
 3032POPC   C1A40707  36.898  22.052   6.149
 3032POPC   D2A40708  37.017  21.828   6.535
 3032POPC   C3A40709  36.860  22.049   6.895
 3032POPC   C4A40710  36.998  22.120   7.306
 3032POPC   C1B40711  37.301  22.413   6.208
 3032POPC   C2B40712  37.439  22.548   6.646
 3032POPC   C3B40713  37.264  22.483   7.089
 3032POPC   C4B40714  37.287  22.436   7.591
 3033POPC   NC340715  13.868  43.588   5.391
 3033POPC   PO440716  13.413  44.106   5.486
 3033POPC   GL140717  13.510  43.956   5.879
 3033POPC   GL240718  13.420  43.591   5.880
 3033POPC   C1A40719  13.395  44.147   6.264
 3033POPC   D2A40720  13.554  44.176   6.658
 3033POPC   C3A40721  13.698  43.817   6.880
 3033POPC   C4A40722  13.744  44.048   7.246
 3033POPC   C1B40723  13.595  43.649   6.312
 3033POPC   C2B40724  13.908  43.420   6.545
 3033POPC   C3B40725  14.026  43.332   6.939
 3033POPC   C4B40726  13.878  43.550   7.300
 3034POPC   NC340727  30.722  27.311   5.483
 3034POPC   PO440728  30.399  27.918   5.388
 3034POPC   GL140729  30.483  27.682   5.748
 3034POPC   GL240730  30.830  27.695   5.797
 3034POPC   C1A40731  30.502  27.416   6.139
 3034POPC   D2A40732  30.719  27.321   6.539
 3034POPC   C3A40733  30.542  27.394   6.988
 3034POPC   C4A40734  30.423  27.685   7.347
 3034POPC   C1B40735  31.064  27.454   6.097
 3034POPC   C2B40736  31.187  27.545   6.479
 3034POPC   C3B40737  30.929  27.747   6.753
 3034POPC   C4B40738  30.925  27.710   7.157
 3035POPC   NC340739  14.671  20.545   5.478
 3035POPC   PO440740  14.173  20.867   5.211
 3035POPC   GL140741  14.274  20.781   5.679
 3035POPC   GL240742  14.315  20.405   5.816
 3035POPC   C1A40743  14.447  20.798   6.111
 3035POPC   D2A40744  14.530  20.446   6.378
 3035POPC   C3A40745  14.540  20.481   6.821
 3035POPC   C4A40746  14.663  20.338   7.214
 3035POPC   C1B40747  14.018  20.517   6.143
 3035POPC   C2B40748  14.082  20.745   6.516
 3035POPC   C3B40749  14.035  20.614   6.908
 3035POPC   C4B40750  14.226  20.564   7.263
 3036POPC   NC340751  38.403  24.917   5.414
 3036POPC   PO440752  38.895  25.403   5.358
 3036POPC   GL140753  38.663  25.322   5.741
 3036POPC   GL240754  38.479  25.622   5.832
 3036POPC   C1A40755  38.461  25.110   6.107
 3036POPC   D2A40756  38.294  24.952   6.524
 3036POPC   C3A40757  38.458  25.138   6.927
 3036POPC   C4A40758  38.386  25.216   7.352
 3036POPC   C1B40759  38.667  25.594   6.243
 3036POPC   C2B40760  38.493  25.560   6.649
 3036POPC   C3B40761  38.376  25.651   7.100
 3036POPC   C4B40762  38.522  25.638   7.583
 3037POPC   NC340763  14.649  41.944   5.530
 3037POPC   PO440764  14.082  41.609   5.575
 3037POPC   GL140765  14.344  41.570   5.918
 3037POPC   GL240766  14.694  41.428   5.880
 3037POPC   C1A40767  14.195  41.681   6.334
 3037POPC   D2A40768  14.450  41.833   6.682
 3037POPC   C3A40769  14.431  41.701   7.132
 3037POPC   C4A40770  14.195  41.477   7.432
 3037POPC   C1B40771  14.674  41.507   6.336
 3037POPC   C2B40772  14.377  41.299   6.612
 3037POPC   C3B40773  14.404  41.156   6.997
 3037POPC   C4B40774  14.681  41.259   7.302
 3038POPC   NC340775  30.925  33.490   5.624
 3038POPC   PO440776  30.449  33.867   5.279
 3038POPC   GL140777  30.520  33.859   5.752
 3038POPC   GL240778  30.861  33.972   5.814
 3038POPC   C1A40779  30.519  34.104   6.170
 3038POPC   D2A40780  30.810  34.139   6.506
 3038POPC   C3A40781  30.633  34.155   6.891
 3038POPC   C4A40782  30.646  33.916   7.242
 3038POPC   C1B40783  30.849  33.694   6.226
 3038POPC   C2B40784  30.894  33.449   6.614
 3038POPC   C3B40785  30.720  33.440   7.054
 3038POPC   C4B40786  30.898  33.533   7.500
 3039POPC   NC340787  41.909  39.685   4.966
 3039POPC   PO440788  41.420  40.093   5.317
 3039POPC   GL140789  41.536  40.110   5.753
 3039POPC   GL240790  41.238  40.114   5.955
 3039POPC   C1A40791  41.742  40.142   6.159
 3039POPC   D2A40792  41.575  40.195   6.582
 3039POPC   C3A40793  41.679  39.981   6.976
 3039POPC   C4A40794  42.048  39.942   7.278
 3039POPC   C1B40795  41.353  39.836   6.297
 3039POPC   C2B40796  41.212  39.811   6.736
 3039POPC   C3B40797  41.160  39.912   7.189
 3039POPC   C4B40798  41.184  39.922   7.659
 3040POPC   NC340799  34.628  28.107   5.451
 3040POPC   PO440800  34.424  28.831   5.386
 3040POPC   GL140801  34.416  28.501   5.687
 3040POPC   GL240802  34.741  28.582   5.759
 3040POPC   C1A40803  34.394  28.256   6.097
 3040POPC   D2A40804  34.314  28.133   6.534
 3040POPC   C3A40805  34.664  28.132   6.801
 3040POPC   C4A40806  34.683  28.207   7.229
 3040POPC   C1B40807  34.594  28.720   6.141
 3040POPC   C2B40808  34.643  28.571   6.544
 3040POPC   C3B40809  34.448  28.587   6.956
 3040POPC   C4B40810  34.674  28.707   7.312
 3041POPC   NC340811  41.589   2.523   5.539
 3041POPC   PO440812  41.676   1.869   5.452
 3041POPC   GL140813  41.721   2.038   5.830
 3041POPC   GL240814  41.951   2.307   5.834
 3041POPC   C1A40815  41.611   1.876   6.218
 3041POPC   D2A40816  41.524   2.163   6.501
 3041POPC   C3A40817  41.591   2.137   6.900
 3041POPC   C4A40818  41.387   2.052   7.238
 3041POPC   C1B40819  42.021   2.145   6.237
 3041POPC   C2B40820  42.027   1.979   6.632
 3041POPC   C3B40821  42.090   2.213   6.987
 3041POPC   C4B40822  41.908   2.073   7.342
 3042POPC   NC340823  44.141  42.787   5.434
 3042POPC   PO440824  43.742  42.288   5.346
 3042POPC   GL140825  43.946  42.411   5.729
 3042POPC   GL240826  43.983  42.061   5.774
 3042POPC   C1A40827  44.004  42.702   6.100
 3042POPC   D2A40828  43.895  42.841   6.521
 3042POPC   C3A40829  43.957  42.525   6.852
 3042POPC   C4A40830  43.780  42.478   7.258
 3042POPC   C1B40831  43.991  42.192   6.195
 3042POPC   C2B40832  44.196  42.080   6.553
 3042POPC   C3B40833  44.119  41.839   6.902
 3042POPC   C4B40834  43.903  41.990   7.245
 3043POPC   NC340835  30.121  41.149   5.412
 3043POPC   PO440836  29.798  40.613   5.409
 3043POPC   GL140837  30.053  40.538   5.775
 3043POPC   GL240838  30.151  40.871   5.841
 3043POPC   C1A40839  29.972  40.350   6.171
 3043POPC   D2A40840  29.731  40.443   6.536
 3043POPC   C3A40841  29.993  40.638   6.837
 3043POPC   C4A40842  29.861  40.648   7.244
 3043POPC   C1B40843  29.779  40.839   6.087
 3043POPC   C2B40844  29.568  40.926   6.469
 3043POPC   C3B40845  29.770  41.088   6.802
 3043POPC   C4B40846  29.947  41.159   7.212
 3044POPC   NC340847   1.779   7.364   5.489
 3044POPC   PO440848   2.227   6.983   5.275
 3044POPC   GL140849   2.223   7.249   5.749
 3044POPC   GL240850   2.260   7.616   5.772
 3044POPC   C1A40851   1.921   7.330   6.176
 3044POPC   D2A40852   1.602   7.387   6.587
 3044POPC   C3A40853   1.848   7.451   6.974
 3044POPC   C4A40854   1.836   7.291   7.430
 3044POPC   C1B40855   2.370   7.594   6.221
 3044POPC   C2B40856   2.375   7.352   6.609
 3044POPC   C3B40857   2.329   7.349   7.063
 3044POPC   C4B40858   2.148   7.665   7.382
 3045POPC   NC340859  10.831  38.759   5.127
 3045POPC   PO440860  11.402  39.078   5.326
 3045POPC   GL140861  11.368  39.045   5.777
 3045POPC   GL240862  11.687  38.898   5.760
 3045POPC   C1A40863  11.208  39.138   6.208
 3045POPC   D2A40864  11.166  39.232   6.675
 3045POPC   C3A40865  11.254  39.043   7.053
 3045POPC   C4A40866  11.165  39.214   7.481
 3045POPC   C1B40867  11.728  39.330   5.986
 3045POPC   C2B40868  11.618  39.371   6.445
 3045POPC   C3B40869  11.682  39.327   6.904
 3045POPC   C4B40870  11.664  39.151   7.309
 3046POPC   NC340871   0.919  17.811   5.590
 3046POPC   PO440872   1.152  17.304   5.471
 3046POPC   GL140873   0.962  17.292   5.893
 3046POPC   GL240874   1.149  17.053   6.095
 3046POPC   C1A40875   0.945  17.469   6.326
 3046POPC   D2A40876   1.239  17.464   6.704
 3046POPC   C3A40877   1.052  17.526   7.110
 3046POPC   C4A40878   1.038  17.558   7.601
 3046POPC   C1B40879   1.418  17.433   6.118
 3046POPC   C2B40880   1.539  17.771   6.402
 3046POPC   C3B40881   1.675  17.750   6.834
 3046POPC   C4B40882   1.505  17.735   7.233
 3047POPC   NC340883  20.931   8.808   5.537
 3047POPC   PO440884  20.547   9.308   5.326
 3047POPC   GL140885  20.603   9.147   5.746
 3047POPC   GL240886  20.831   9.368   5.852
 3047POPC   C1A40887  20.548   8.939   6.193
 3047POPC   D2A40888  20.720   8.804   6.632
 3047POPC   C3A40889  20.588   8.930   7.084
 3047POPC   C4A40890  20.494   9.068   7.511
 3047POPC   C1B40891  20.864   9.319   6.315
 3047POPC   C2B40892  20.793   9.293   6.773
 3047POPC   C3B40893  20.872   9.334   7.231
 3047POPC   C4B40894  21.133   9.409   7.614
 3048POPC   NC340895  30.469  34.287   5.047
 3048POPC   PO440896  30.982  34.713   5.286
 3048POPC   GL140897  30.773  34.650   5.716
 3048POPC   GL240898  30.520  34.386   5.749
 3048POPC   C1A40899  30.834  34.534   6.171
 3048POPC   D2A40900  30.713  34.658   6.587
 3048POPC   C3A40901  30.887  34.580   7.008
 3048POPC   C4A40902  30.879  34.707   7.441
 3048POPC   C1B40903  30.342  34.672   6.073
 3048POPC   C2B40904  30.210  34.724   6.508
 3048POPC   C3B40905  30.340  34.574   6.919
 3048POPC   C4B40906  30.424  34.465   7.327
 3049POPC   NC340907  30.407  28.427   5.461
 3049POPC   PO440908  29.746  28.288   5.451
 3049POPC   GL140909  29.966  28.401   5.775
 3049POPC   GL240910  30.153  28.107   5.844
 3049POPC   C1A40911  29.822  28.587   6.183
 3049POPC   D2A40912  29.640  28.451   6.574
 3049POPC   C3A40913  29.811  28.520   6.960
 3049POPC   C4A40914  29.750  28.342   7.392
 3049POPC   C1B40915  30.302  28.402   6.135
 3049POPC   C2B40916  30.218  28.460   6.529
 3049POPC   C3B40917  30.353  28.451   6.916
 3049POPC   C4B40918  30.188  28.569   7.294
 3050POPC   NC340919  34.520  31.725   5.238
 3050POPC   PO440920  34.214  32.272   5.306
 3050POPC   GL140921  34.446  32.143   5.660
 3050POPC   GL240922  34.782  32.012   5.609
 3050POPC   C1A40923  34.324  32.213   6.087
 3050POPC   D2A40924  34.136  32.443   6.404
 3050POPC   C3A40925  34.310  32.387   6.793
 3050POPC   C4A40926  34.362  32.322   7.209
 3050POPC   C1B40927  34.733  31.908   6.062
 3050POPC   C2B40928  34.655  32.117   6.469
 3050POPC   C3B40929  34.754  32.140   6.901
 3050POPC   C4B40930  34.688  31.947   7.282
 3051POPC   NC340931  38.699  36.311   5.398
 3051POPC   PO440932  38.319  35.805   5.412
 3051POPC   GL140933  38.478  36.015   5.775
 3051POPC   GL240934  38.475  36.410   5.864
 3051POPC   C1A40935  38.367  36.048   6.199
 3051POPC   D2A40936  38.531  36.290   6.556
 3051POPC   C3A40937  38.444  36.087   6.923
 3051POPC   C4A40938  38.343  35.730   7.165
 3051POPC   C1B40939  38.134  36.489   6.222
 3051POPC   C2B40940  38.029  36.315   6.662
 3051POPC   C3B40941  38.082  36.354   7.152
 3051POPC   C4B40942  38.155  36.557   7.548
 3052POPC   NC340943  44.348  12.370   5.586
 3052POPC   PO440944  44.748  12.871   5.394
 3052POPC   GL140945  44.945  12.998   5.772
 3052POPC   GL240946  44.697  12.783   5.930
 3052POPC   C1A40947   0.010  13.034   6.238
 3052POPC   D2A40948  44.790  12.889   6.633
 3052POPC   C3A40949  44.809  13.142   6.999
 3052POPC   C4A40950  44.609  12.951   7.356
 3052POPC   C1B40951  44.478  12.508   6.232
 3052POPC   C2B40952  44.499  12.442   6.683
 3052POPC   C3B40953  44.411  12.556   7.128
 3052POPC   C4B40954  44.224  12.652   7.582
 3053POPC   NC340955  12.315  34.095   5.358
 3053POPC   PO440956  12.236  33.466   5.670
 3053POPC   GL140957  12.119  33.900   5.803
 3053POPC   GL240958  11.755  33.993   5.803
 3053POPC   C1A40959  12.115  34.010   6.228
 3053POPC   D2A40960  12.356  33.751   6.527
 3053POPC   C3A40961  12.387  33.907   6.907
 3053POPC   C4A40962  12.212  33.925   7.282
 3053POPC   C1B40963  11.687  33.591   6.061
 3053POPC   C2B40964  11.601  33.566   6.508
 3053POPC   C3B40965  11.841  33.802   6.822
 3053POPC   C4B40966  11.842  33.610   7.217
 3054POPC   NC340967  36.352  14.928   5.368
 3054POPC   PO440968  35.820  15.255   5.510
 3054POPC   GL140969  36.131  15.166   5.790
 3054POPC   GL240970  35.899  15.384   6.025
 3054POPC   C1A40971  36.370  15.272   6.151
 3054POPC   D2A40972  36.191  15.268   6.529
 3054POPC   C3A40973  36.440  15.399   6.848
 3054POPC   C4A40974  36.408  15.354   7.297
 3054POPC   C1B40975  35.944  14.923   6.180
 3054POPC   C2B40976  36.049  14.768   6.591
 3054POPC   C3B40977  36.151  14.982   6.981
 3054POPC   C4B40978  35.918  15.199   7.331
 3055POPC   NC340979  28.420  16.277   5.412
 3055POPC   PO440980  27.956  15.704   5.428
 3055POPC   GL140981  28.111  15.646   5.845
 3055POPC   GL240982  28.471  15.717   5.886
 3055POPC   C1A40983  28.140  15.791   6.278
 3055POPC   D2A40984  28.194  16.101   6.577
 3055POPC   C3A40985  28.161  15.872   6.965
 3055POPC   C4A40986  28.360  15.818   7.365
 3055POPC   C1B40987  28.588  16.070   6.168
 3055POPC   C2B40988  28.713  16.289   6.551
 3055POPC   C3B40989  28.566  16.208   6.958
 3055POPC   C4B40990  28.700  16.299   7.339
 3056POPC   NC340991  42.655  30.506   5.175
 3056POPC   PO440992  42.146  30.861   5.555
 3056POPC   GL140993  42.118  30.899   5.936
 3056POPC   GL240994  42.431  30.960   6.033
 3056POPC   C1A40995  42.057  30.627   6.296
 3056POPC   D2A40996  41.925  30.413   6.677
 3056POPC   C3A40997  42.162  30.536   7.011
 3056POPC   C4A40998  42.338  30.847   7.238
 3056POPC   C1B40999  42.826  30.957   6.241
 3056POPC   C2B41000  42.899  30.934   6.652
 3056POPC   C3B41001  42.657  30.697   6.881
 3056POPC   C4B41002  42.865  30.768   7.232
 3057POPC   NC341003  31.798  44.787   5.388
 3057POPC   PO441004  31.161  44.894   5.421
 3057POPC   GL141005  31.448  44.785   5.760
 3057POPC   GL241006  31.381  44.435   5.731
 3057POPC   C1A41007  31.815  44.890   6.055
 3057POPC   D2A41008  31.877  44.888   6.519
 3057POPC   C3A41009  31.630  44.745   6.864
 3057POPC   C4A41010  31.445  44.847   7.209
 3057POPC   C1B41011  31.565  44.476   6.149
 3057POPC   C2B41012  31.679  44.393   6.522
 3057POPC   C3B41013  31.497  44.150   6.841
 3057POPC   C4B41014  31.225  44.171   7.201
 3058POPC   NC341015  16.686  26.505   5.451
 3058POPC   PO441016  16.530  25.824   5.367
 3058POPC   GL141017  16.657  25.996   5.768
 3058POPC   GL241018  16.824  25.734   5.918
 3058POPC   C1A41019  16.589  26.136   6.208
 3058POPC   D2A41020  16.632  26.066   6.674
 3058POPC   C3A41021  16.916  26.232   7.009
 3058POPC   C4A41022  16.752  26.259   7.429
 3058POPC   C1B41023  16.978  25.795   6.324
 3058POPC   C2B41024  16.917  25.655   6.719
 3058POPC   C3B41025  16.754  25.769   7.140
 3058POPC   C4B41026  17.069  25.864   7.453
 3059POPC   NC341027  26.031  15.339   5.307
 3059POPC   PO441028  26.016  14.717   5.382
 3059POPC   GL141029  26.119  14.943   5.767
 3059POPC   GL241030  26.108  15.326   5.811
 3059POPC   C1A41031  26.312  15.032   6.180
 3059POPC   D2A41032  26.347  15.289   6.573
 3059POPC   C3A41033  26.276  15.045   6.980
 3059POPC   C4A41034  26.210  15.047   7.454
 3059POPC   C1B41035  25.848  15.349   6.203
 3059POPC   C2B41036  25.805  15.275   6.661
 3059POPC   C3B41037  25.876  15.362   7.113
 3059POPC   C4B41038  25.809  15.365   7.562
 3060POPC   NC341039  38.018  43.403   5.503
 3060POPC   PO441040  37.382  43.302   5.372
 3060POPC   GL141041  37.590  43.256   5.734
 3060POPC   GL241042  37.790  42.935   5.694
 3060POPC   C1A41043  37.630  43.377   6.154
 3060POPC   D2A41044  37.547  43.512   6.573
 3060POPC   C3A41045  37.816  43.263   6.779
 3060POPC   C4A41046  37.701  43.039   7.098
 3060POPC   C1B41047  37.468  42.885   6.046
 3060POPC   C2B41048  37.456  42.996   6.491
 3060POPC   C3B41049  37.257  42.887   6.894
 3060POPC   C4B41050  37.358  42.764   7.349
 3061POPC   NC341051   8.050   7.069   5.401
 3061POPC   PO441052   8.452   6.587   5.375
 3061POPC   GL141053   8.172   6.691   5.724
 3061POPC   GL241054   8.172   6.394   5.906
 3061POPC   C1A41055   8.244   6.830   6.181
 3061POPC   D2A41056   8.125   6.712   6.631
 3061POPC   C3A41057   8.126   6.976   7.024
 3061POPC   C4A41058   8.091   6.861   7.433
 3061POPC   C1B41059   8.278   6.270   6.357
 3061POPC   C2B41060   8.447   6.277   6.791
 3061POPC   C3B41061   8.294   6.460   7.191
 3061POPC   C4B41062   8.117   6.396   7.637
 3062POPC   NC341063  21.969  39.001   5.441
 3062POPC   PO441064  22.203  39.639   5.423
 3062POPC   GL141065  22.044  39.395   5.741
 3062POPC   GL241066  22.362  39.205   5.774
 3062POPC   C1A41067  21.909  39.203   6.117
 3062POPC   D2A41068  22.119  39.299   6.505
 3062POPC   C3A41069  22.000  39.210   6.928
 3062POPC   C4A41070  21.779  39.268   7.326
 3062POPC   C1B41071  22.555  39.168   6.209
 3062POPC   C2B41072  22.531  39.046   6.672
 3062POPC   C3B41073  22.495  39.185   7.131
 3062POPC   C4B41074  22.548  39.003   7.608
 3063POPC   NC341075  22.655  39.495   5.423
 3063POPC   PO441076  23.149  39.049   5.321
 3063POPC   GL141077  22.871  39.042   5.685
 3063POPC   GL241078  22.876  39.359   5.849
 3063POPC   C1A41079  22.981  38.884   6.110
 3063POPC   D2A41080  23.138  38.998   6.535
 3063POPC   C3A41081  22.953  38.875   6.909
 3063POPC   C4A41082  22.950  39.055   7.300
 3063POPC   C1B41083  23.113  39.388   6.194
 3063POPC   C2B41084  23.227  39.517   6.574
 3063POPC   C3B41085  22.999  39.394   6.904
 3063POPC   C4B41086  22.786  39.596   7.226
 3064POPC   NC341087   3.759  32.784   5.549
 3064POPC   PO441088   3.590  33.422   5.387
 3064POPC   GL141089   3.641  33.280   5.825
 3064POPC   GL241090   3.372  33.012   5.852
 3064POPC   C1A41091   3.647  33.189   6.300
 3064POPC   D2A41092   3.648  32.797   6.581
 3064POPC   C3A41093   3.677  32.918   7.018
 3064POPC   C4A41094   3.520  33.234   7.306
 3064POPC   C1B41095   3.149  33.092   6.253
 3064POPC   C2B41096   3.267  33.144   6.704
 3064POPC   C3B41097   3.177  32.878   7.071
 3064POPC   C4B41098   3.130  32.715   7.472
 3065POPC   NC341099  42.222   0.114   5.466
 3065POPC   PO441100  42.658   0.637   5.395
 3065POPC   GL141101  42.510   0.452   5.758
 3065POPC   GL241102  42.672   0.128   5.741
 3065POPC   C1A41103  42.391   0.411   6.189
 3065POPC   D2A41104  42.478   0.615   6.588
 3065POPC   C3A41105  42.209   0.415   6.862
 3065POPC   C4A41106  42.058   0.383   7.272
 3065POPC   C1B41107  42.641  44.972   6.152
 3065POPC   C2B41108  42.696   0.141   6.556
 3065POPC   C3B41109  42.693   0.126   6.964
 3065POPC   C4B41110  42.557   0.437   7.240
 3066POPC   NC341111  29.338   3.498   5.296
 3066POPC   PO441112  28.753   3.319   5.423
 3066POPC   GL141113  28.969   3.605   5.717
 3066POPC   GL241114  29.331   3.506   5.799
 3066POPC   C1A41115  29.008   3.736   6.153
 3066POPC   D2A41116  29.159   3.502   6.520
 3066POPC   C3A41117  28.921   3.607   6.896
 3066POPC   C4A41118  29.106   3.843   7.252
 3066POPC   C1B41119  29.524   3.718   6.145
 3066POPC   C2B41120  29.618   3.768   6.579
 3066POPC   C3B41121  29.443   3.611   6.940
 3066POPC   C4B41122  29.424   3.411   7.324
 3067POPC   NC341123  32.012  22.330   5.545
 3067POPC   PO441124  32.464  21.866   5.546
 3067POPC   GL141125  32.264  21.979   5.953
 3067POPC   GL241126  31.909  21.858   5.964
 3067POPC   C1A41127  32.172  22.265   6.322
 3067POPC   D2A41128  32.147  22.467   6.745
 3067POPC   C3A41129  32.440  22.326   7.044
 3067POPC   C4A41130  32.485  22.405   7.509
 3067POPC   C1B41131  32.018  21.769   6.393
 3067POPC   C2B41132  32.287  21.920   6.723
 3067POPC   C3B41133  32.188  21.902   7.158
 3067POPC   C4B41134  32.016  21.683   7.524
 3068POPC   NC341135  25.934  26.027   5.518
 3068POPC   PO441136  25.311  26.169   5.137
 3068POPC   GL141137  25.381  26.121   5.617
 3068POPC   GL241138  25.193  26.371   5.770
 3068POPC   C1A41139  25.275  25.944   6.075
 3068POPC   D2A41140  25.154  25.814   6.525
 3068POPC   C3A41141  25.462  25.767   6.875
 3068POPC   C4A41142  25.483  25.906   7.309
 3068POPC   C1B41143  25.153  26.497   6.191
 3068POPC   C2B41144  25.032  26.438   6.605
 3068POPC   C3B41145  25.176  26.207   6.947
 3068POPC   C4B41146  25.027  26.101   7.338
 3069POPC   NC341147   4.749  33.306   5.341
 3069POPC   PO441148   4.194  32.990   5.537
 3069POPC   GL141149   4.261  33.274   5.818
 3069POPC   GL241150   4.066  33.076   6.038
 3069POPC   C1A41151   4.530  33.249   6.149
 3069POPC   D2A41152   4.475  32.883   6.433
 3069POPC   C3A41153   4.352  33.024   6.831
 3069POPC   C4A41154   4.575  33.304   7.120
 3069POPC   C1B41155   4.112  32.646   6.166
 3069POPC   C2B41156   4.101  32.528   6.609
 3069POPC   C3B41157   4.112  32.645   7.053
 3069POPC   C4B41158   4.008  32.780   7.442
 3070POPC   NC341159  39.182  26.687   5.101
 3070POPC   PO441160  39.815  26.708   5.360
 3070POPC   GL141161  39.440  26.800   5.689
 3070POPC   GL241162  39.063  26.777   5.616
 3070POPC   C1A41163  39.359  26.765   6.181
 3070POPC   D2A41164  39.296  26.644   6.643
 3070POPC   C3A41165  39.545  26.717   7.020
 3070POPC   C4A41166  39.364  27.053   7.257
 3070POPC   C1B41167  38.886  26.883   6.044
 3070POPC   C2B41168  38.970  27.029   6.480
 3070POPC   C3B41169  38.964  27.014   6.914
 3070POPC   C4B41170  39.028  26.659   7.187
 3071POPC   NC341171  13.822  40.519   5.322
 3071POPC   PO441172  13.438  40.959   5.671
 3071POPC   GL141173  13.874  40.862   5.745
 3071POPC   GL241174  14.155  41.110   5.705
 3071POPC   C1A41175  13.843  40.724   6.150
 3071POPC   D2A41176  13.449  40.839   6.415
 3071POPC   C3A41177  13.512  40.795   6.871
 3071POPC   C4A41178  13.478  41.015   7.250
 3071POPC   C1B41179  14.155  41.135   6.165
 3071POPC   C2B41180  13.955  40.987   6.569
 3071POPC   C3B41181  13.891  41.150   6.970
 3071POPC   C4B41182  13.968  41.036   7.382
 3072POPC   NC341183  10.138   6.972   5.577
 3072POPC   PO441184   9.915   6.362   5.810
 3072POPC   GL141185   9.780   6.755   5.886
 3072POPC   GL241186   9.450   6.787   5.771
 3072POPC   C1A41187   9.791   6.986   6.276
 3072POPC   D2A41188  10.094   6.856   6.590
 3072POPC   C3A41189   9.918   6.643   6.938
 3072POPC   C4A41190  10.061   6.929   7.246
 3072POPC   C1B41191   9.422   6.525   6.163
 3072POPC   C2B41192   9.604   6.487   6.542
 3072POPC   C3B41193   9.440   6.256   6.888
 3072POPC   C4B41194   9.550   6.466   7.249
 3073POPC   NC341195   0.283   9.334   5.381
 3073POPC   PO441196   0.651   9.879   5.196
 3073POPC   GL141197   0.602   9.685   5.675
 3073POPC   GL241198   0.316   9.507   5.860
 3073POPC   C1A41199   0.714   9.514   6.146
 3073POPC   D2A41200   0.482   9.486   6.564
 3073POPC   C3A41201   0.460   9.659   6.985
 3073POPC   C4A41202   0.736   9.473   7.278
 3073POPC   C1B41203   0.214   9.755   6.213
 3073POPC   C2B41204   0.023   9.970   6.565
 3073POPC   C3B41205   0.053   9.997   6.993
 3073POPC   C4B41206   0.163   9.825   7.380
 3074POPC   NC341207  15.484  11.497   5.429
 3074POPC   PO441208  15.044  11.042   5.266
 3074POPC   GL141209  15.071  11.142   5.731
 3074POPC   GL241210  14.803  11.368   5.869
 3074POPC   C1A41211  15.313  11.295   6.109
 3074POPC   D2A41212  15.473  11.541   6.468
 3074POPC   C3A41213  15.659  11.342   6.825
 3074POPC   C4A41214  15.601  11.601   7.180
 3074POPC   C1B41215  14.843  11.112   6.254
 3074POPC   C2B41216  15.137  11.171   6.610
 3074POPC   C3B41217  15.176  11.326   7.024
 3074POPC   C4B41218  14.897  11.226   7.341
 3075POPC   NC341219  18.879   3.338   5.145
 3075POPC   PO441220  19.233   2.766   5.386
 3075POPC   GL141221  19.129   2.666   5.795
 3075POPC   GL241222  19.471   2.798   5.825
 3075POPC   C1A41223  18.987   2.713   6.236
 3075POPC   D2A41224  19.040   3.012   6.573
 3075POPC   C3A41225  18.851   2.869   6.965
 3075POPC   C4A41226  18.988   2.469   7.134
 3075POPC   C1B41227  19.404   2.982   6.171
 3075POPC   C2B41228  19.475   2.730   6.538
 3075POPC   C3B41229  19.361   2.752   6.915
 3075POPC   C4B41230  19.408   2.993   7.240
 3076POPC   NC341231  14.875  12.553   5.560
 3076POPC   PO441232  15.393  12.050   5.371
 3076POPC   GL141233  15.238  12.088   5.777
 3076POPC   GL241234  15.011  12.294   5.990
 3076POPC   C1A41235  15.354  11.909   6.135
 3076POPC   D2A41236  15.187  11.997   6.507
 3076POPC   C3A41237  15.424  11.935   6.847
 3076POPC   C4A41238  15.274  11.991   7.278
 3076POPC   C1B41239  14.816  11.870   6.133
 3076POPC   C2B41240  14.843  11.595   6.501
 3076POPC   C3B41241  14.939  11.751   6.913
 3076POPC   C4B41242  14.812  11.739   7.318
 3077POPC   NC341243  25.657  14.418   5.418
 3077POPC   PO441244  25.160  14.843   5.685
 3077POPC   GL141245  25.234  14.532   5.961
 3077POPC   GL241246  25.532  14.347   5.894
 3077POPC   C1A41247  25.100  14.551   6.388
 3077POPC   D2A41248  24.884  14.592   6.791
 3077POPC   C3A41249  25.048  14.451   7.212
 3077POPC   C4A41250  25.026  14.167   7.595
 3077POPC   C1B41251  25.619  14.527   6.284
 3077POPC   C2B41252  25.587  14.470   6.714
 3077POPC   C3B41253  25.545  14.585   7.141
 3077POPC   C4B41254  25.463  14.421   7.567
 3078POPC   NC341255  14.388   9.392   5.501
 3078POPC   PO441256  14.933   9.144   5.466
 3078POPC   GL141257  14.644   9.110   5.868
 3078POPC   GL241258  14.247   9.065   5.873
 3078POPC   C1A41259  14.487   9.153   6.313
 3078POPC   D2A41260  14.158   9.282   6.592
 3078POPC   C3A41261  14.295   9.154   6.986
 3078POPC   C4A41262  14.554   9.387   7.245
 3078POPC   C1B41263  14.003   8.914   6.268
 3078POPC   C2B41264  13.915   8.857   6.742
 3078POPC   C3B41265  13.887   8.931   7.215
 3078POPC   C4B41266  13.918   8.919   7.693
 3079POPC   NC341267  10.365  32.922   5.507
 3079POPC   PO441268  10.935  32.696   5.613
 3079POPC   GL141269  10.737  32.977   5.880
 3079POPC   GL241270  10.938  33.260   5.903
 3079POPC   C1A41271  10.358  32.912   6.172
 3079POPC   D2A41272  10.088  33.148   6.469
 3079POPC   C3A41273  10.260  33.210   6.885
 3079POPC   C4A41274  10.288  33.021   7.301
 3079POPC   C1B41275  10.732  33.273   6.296
 3079POPC   C2B41276  10.668  32.956   6.580
 3079POPC   C3B41277  10.612  32.829   6.971
 3079POPC   C4B41278  10.836  32.867   7.377
 3080POPC   NC341279  29.693  38.723   5.511
 3080POPC   PO441280  30.204  38.179   5.622
 3080POPC   GL141281  29.911  38.446   5.872
 3080POPC   GL241282  30.062  38.787   5.887
 3080POPC   C1A41283  29.762  38.552   6.299
 3080POPC   D2A41284  29.908  38.662   6.704
 3080POPC   C3A41285  29.637  38.766   7.056
 3080POPC   C4A41286  29.721  38.621   7.490
 3080POPC   C1B41287  30.285  38.641   6.278
 3080POPC   C2B41288  30.241  38.286   6.573
 3080POPC   C3B41289  30.138  38.170   6.998
 3080POPC   C4B41290  30.107  38.259   7.482
 3081POPC   NC341291  39.562  23.751   5.264
 3081POPC   PO441292  38.869  23.566   5.359
 3081POPC   GL141293  39.116  23.818   5.699
 3081POPC   GL241294  39.501  23.861   5.768
 3081POPC   C1A41295  39.117  23.767   6.181
 3081POPC   D2A41296  39.067  23.678   6.652
 3081POPC   C3A41297  39.260  23.956   6.958
 3081POPC   C4A41298  39.168  23.965   7.396
 3081POPC   C1B41299  39.621  23.642   6.150
 3081POPC   C2B41300  39.576  23.749   6.574
 3081POPC   C3B41301  39.542  23.528   6.941
 3081POPC   C4B41302  39.249  23.461   7.253
 3082POPC   NC341303  33.735   9.706   4.995
 3082POPC   PO441304  34.198   9.676   5.492
 3082POPC   GL141305  33.928   9.950   5.736
 3082POPC   GL241306  34.142   9.904   5.982
 3082POPC   C1A41307  33.640  10.020   6.107
 3082POPC   D2A41308  33.435   9.837   6.488
 3082POPC   C3A41309  33.705   9.739   6.840
 3082POPC   C4A41310  33.539   9.829   7.246
 3082POPC   C1B41311  33.961   9.684   6.345
 3082POPC   C2B41312  33.650   9.362   6.450
 3082POPC   C3B41313  33.465   9.301   6.844
 3082POPC   C4B41314  33.705   9.331   7.247
 3083POPC   NC341315  19.206   7.098   5.242
 3083POPC   PO441316  18.969   7.706   5.344
 3083POPC   GL141317  18.988   7.334   5.649
 3083POPC   GL241318  19.341   7.322   5.739
 3083POPC   C1A41319  18.942   7.108   6.064
 3083POPC   D2A41320  18.856   7.179   6.535
 3083POPC   C3A41321  18.743   7.606   6.747
 3083POPC   C4A41322  18.757   7.664   7.200
 3083POPC   C1B41323  19.220   7.561   6.118
 3083POPC   C2B41324  19.216   7.550   6.569
 3083POPC   C3B41325  19.092   7.335   6.997
 3083POPC   C4B41326  19.079   7.254   7.484
 3084POPC   NC341327  26.189  21.871   5.514
 3084POPC   PO441328  26.105  21.145   5.437
 3084POPC   GL141329  26.020  21.433   5.773
 3084POPC   GL241330  25.770  21.204   5.891
 3084POPC   C1A41331  26.006  21.573   6.217
 3084POPC   D2A41332  26.028  21.393   6.658
 3084POPC   C3A41333  26.054  21.595   7.053
 3084POPC   C4A41334  25.672  21.485   7.216
 3084POPC   C1B41335  25.794  21.098   6.292
 3084POPC   C2B41336  25.572  21.100   6.659
 3084POPC   C3B41337  25.720  21.006   7.050
 3084POPC   C4B41338  26.145  21.065   7.140
 3085POPC   NC341339  18.937  32.912   5.213
 3085POPC   PO441340  18.304  32.829   5.510
 3085POPC   GL141341  18.192  33.036   5.860
 3085POPC   GL241342  18.488  33.188   5.880
 3085POPC   C1A41343  18.110  33.251   6.240
 3085POPC   D2A41344  18.232  33.399   6.641
 3085POPC   C3A41345  18.311  33.063   6.908
 3085POPC   C4A41346  18.407  33.039   7.337
 3085POPC   C1B41347  18.530  32.920   6.279
 3085POPC   C2B41348  18.783  32.952   6.667
 3085POPC   C3B41349  18.657  32.698   7.012
 3085POPC   C4B41350  18.227  32.553   7.091
 3086POPC   NC341351  24.052  42.443   5.295
 3086POPC   PO441352  23.531  42.690   5.516
 3086POPC   GL141353  23.590  42.384   5.886
 3086POPC   GL241354  23.731  42.045   5.830
 3086POPC   C1A41355  23.580  42.423   6.345
 3086POPC   D2A41356  23.492  42.528   6.764
 3086POPC   C3A41357  23.623  42.307   7.124
 3086POPC   C4A41358  23.653  42.263   7.625
 3086POPC   C1B41359  24.009  42.168   6.189
 3086POPC   C2B41360  24.008  42.336   6.629
 3086POPC   C3B41361  24.112  42.408   7.062
 3086POPC   C4B41362  24.030  42.083   7.353
 3087POPC   NC341363  34.161   8.850   5.288
 3087POPC   PO441364  33.546   9.121   5.433
 3087POPC   GL141365  33.870   8.933   5.736
 3087POPC   GL241366  34.197   9.142   5.706
 3087POPC   C1A41367  33.903   8.838   6.204
 3087POPC   D2A41368  33.701   8.885   6.635
 3087POPC   C3A41369  33.847   8.743   7.036
 3087POPC   C4A41370  33.786   8.842   7.488
 3087POPC   C1B41371  34.343   9.116   6.105
 3087POPC   C2B41372  34.147   9.203   6.471
 3087POPC   C3B41373  34.001   9.277   6.843
 3087POPC   C4B41374  34.151   9.102   7.202
 3088POPC   NC341375  23.997   5.322   5.555
 3088POPC   PO441376  23.668   4.761   5.366
 3088POPC   GL141377  23.553   4.978   5.762
 3088POPC   GL241378  23.872   4.982   5.906
 3088POPC   C1A41379  23.489   4.924   6.225
 3088POPC   D2A41380  23.723   5.018   6.617
 3088POPC   C3A41381  23.447   5.129   6.999
 3088POPC   C4A41382  23.141   4.938   7.280
 3088POPC   C1B41383  23.830   5.359   6.196
 3088POPC   C2B41384  24.099   5.486   6.538
 3088POPC   C3B41385  24.061   5.277   6.912
 3088POPC   C4B41386  23.905   5.105   7.267
 3089POPC   NC341387  26.639  36.263   5.417
 3089POPC   PO441388  27.286  35.979   5.559
 3089POPC   GL141389  27.017  36.249   5.830
 3089POPC   GL241390  26.659  36.411   5.886
 3089POPC   C1A41391  26.883  36.114   6.243
 3089POPC   D2A41392  26.666  35.793   6.457
 3089POPC   C3A41393  26.709  35.755   6.909
 3089POPC   C4A41394  26.491  36.003   7.207
 3089POPC   C1B41395  26.499  36.476   6.290
 3089POPC   C2B41396  26.744  36.505   6.645
 3089POPC   C3B41397  26.886  36.303   7.007
 3089POPC   C4B41398  27.286  36.405   7.222
 3090POPC   NC341399  12.317  41.431   5.325
 3090POPC   PO441400  13.028  41.486   5.320
 3090POPC   GL141401  12.899  41.500   5.839
 3090POPC   GL241402  12.778  41.827   5.989
 3090POPC   C1A41403  13.109  41.266   6.191
 3090POPC   D2A41404  13.085  41.259   6.619
 3090POPC   C3A41405  12.687  41.307   6.846
 3090POPC   C4A41406  12.602  41.103   7.228
 3090POPC   C1B41407  12.778  41.611   6.380
 3090POPC   C2B41408  12.777  41.801   6.780
 3090POPC   C3B41409  12.803  41.737   7.201
 3090POPC   C4B41410  12.719  41.959   7.558
 3091POPC   NC341411  20.032  42.608   5.513
 3091POPC   PO441412  19.742  43.146   5.248
 3091POPC   GL141413  19.752  43.145   5.734
 3091POPC   GL241414  19.489  42.946   5.914
 3091POPC   C1A41415  19.951  43.068   6.183
 3091POPC   D2A41416  19.891  43.224   6.623
 3091POPC   C3A41417  19.994  42.930   6.987
 3091POPC   C4A41418  20.106  42.946   7.418
 3091POPC   C1B41419  19.463  43.060   6.352
 3091POPC   C2B41420  19.445  42.956   6.798
 3091POPC   C3B41421  19.607  43.240   7.090
 3091POPC   C4B41422  19.834  43.403   7.399
 3092POPC   NC341423  17.074  30.974   5.281
 3092POPC   PO441424  17.619  30.530   5.212
 3092POPC   GL141425  17.456  30.774   5.654
 3092POPC   GL241426  17.398  30.482   5.841
 3092POPC   C1A41427  17.280  30.843   6.150
 3092POPC   D2A41428  17.292  30.594   6.553
 3092POPC   C3A41429  17.450  30.819   6.915
 3092POPC   C4A41430  17.289  31.110   7.213
 3092POPC   C1B41431  17.671  30.505   6.218
 3092POPC   C2B41432  17.808  30.475   6.648
 3092POPC   C3B41433  17.523  30.324   6.960
 3092POPC   C4B41434  17.500  30.219   7.374
 3093POPC   NC341435   0.982  15.741   5.436
 3093POPC   PO441436   1.301  16.334   5.279
 3093POPC   GL141437   1.142  16.180   5.659
 3093POPC   GL241438   1.332  15.903   5.777
 3093POPC   C1A41439   1.108  16.240   6.085
 3093POPC   D2A41440   1.204  16.182   6.492
 3093POPC   C3A41441   0.955  16.256   6.824
 3093POPC   C4A41442   1.123  16.100   7.224
 3093POPC   C1B41443   1.276  15.759   6.210
 3093POPC   C2B41444   1.431  15.742   6.651
 3093POPC   C3B41445   1.310  15.642   7.087
 3093POPC   C4B41446   1.364  15.286   7.374
 3094POPC   NC341447   9.155   3.507   5.348
 3094POPC   PO441448   9.443   4.027   5.533
 3094POPC   GL141449   9.264   3.710   5.817
 3094POPC   GL241450   9.207   3.326   5.818
 3094POPC   C1A41451   9.075   3.663   6.231
 3094POPC   D2A41452   8.959   3.568   6.671
 3094POPC   C3A41453   8.952   3.797   7.076
 3094POPC   C4A41454   9.080   3.637   7.482
 3094POPC   C1B41455   9.201   3.135   6.234
 3094POPC   C2B41456   9.124   3.092   6.695
 3094POPC   C3B41457   9.007   3.272   7.110
 3094POPC   C4B41458   9.243   3.147   7.459
 3095POPC   NC341459   8.755  27.705   5.369
 3095POPC   PO441460   9.377  27.466   5.309
 3095POPC   GL141461   9.170  27.547   5.694
 3095POPC   GL241462   9.164  27.889   5.660
 3095POPC   C1A41463   8.998  27.328   6.088
 3095POPC   D2A41464   9.003  27.182   6.521
 3095POPC   C3A41465   8.961  27.449   6.878
 3095POPC   C4A41466   8.699  27.725   7.137
 3095POPC   C1B41467   9.047  27.827   6.109
 3095POPC   C2B41468   9.057  27.938   6.547
 3095POPC   C3B41469   9.131  27.915   6.928
 3095POPC   C4B41470   9.242  27.807   7.303
 3096POPC   NC341471  16.675  22.243   5.499
 3096POPC   PO441472  16.254  21.622   5.411
 3096POPC   GL141473  16.502  21.833   5.777
 3096POPC   GL241474  16.856  21.927   5.886
 3096POPC   C1A41475  16.524  22.016   6.232
 3096POPC   D2A41476  16.508  22.380   6.547
 3096POPC   C3A41477  16.601  22.177   6.934
 3096POPC   C4A41478  16.500  21.995   7.330
 3096POPC   C1B41479  16.849  22.387   6.116
 3096POPC   C2B41480  16.970  22.566   6.531
 3096POPC   C3B41481  17.045  22.464   6.947
 3096POPC   C4B41482  16.960  22.221   7.300
 3097POPC   NC341483  11.861  37.730   5.159
 3097POPC   PO441484  11.254  37.539   5.338
 3097POPC   GL141485  11.408  37.718   5.704
 3097POPC   GL241486  11.081  37.730   5.804
 3097POPC   C1A41487  11.407  37.982   6.108
 3097POPC   D2A41488  11.320  37.959   6.516
 3097POPC   C3A41489  11.668  37.942   6.809
 3097POPC   C4A41490  11.541  38.027   7.203
 3097POPC   C1B41491  11.267  37.493   6.147
 3097POPC   C2B41492  11.120  37.484   6.564
 3097POPC   C3B41493  11.256  37.666   6.931
 3097POPC   C4B41494  11.056  37.750   7.292
 3098POPC   NC341495  39.743   4.950   5.065
 3098POPC   PO441496  40.252   5.080   5.510
 3098POPC   GL141497  39.968   5.011   5.807
 3098POPC   GL241498  39.920   4.651   5.782
 3098POPC   C1A41499  39.883   4.930   6.231
 3098POPC   D2A41500  39.912   5.174   6.585
 3098POPC   C3A41501  39.922   4.987   6.949
 3098POPC   C4A41502  39.787   5.160   7.310
 3098POPC   C1B41503  40.259   4.606   6.127
 3098POPC   C2B41504  40.154   4.678   6.590
 3098POPC   C3B41505  40.399   4.755   6.956
 3098POPC   C4B41506  40.260   4.944   7.361
 3099POPC   NC341507  22.850   3.266   5.442
 3099POPC   PO441508  22.765   3.957   5.441
 3099POPC   GL141509  22.732   3.906   5.878
 3099POPC   GL241510  22.802   3.552   5.891
 3099POPC   C1A41511  23.028   3.882   6.236
 3099POPC   D2A41512  23.020   3.605   6.586
 3099POPC   C3A41513  22.930   3.813   6.963
 3099POPC   C4A41514  23.217   3.992   7.228
 3099POPC   C1B41515  22.812   3.225   6.206
 3099POPC   C2B41516  23.067   3.084   6.560
 3099POPC   C3B41517  23.087   3.234   6.975
 3099POPC   C4B41518  22.768   3.382   7.232
 3100POPC   NC341519  44.103  26.706   5.543
 3100POPC   PO441520  44.755  26.937   5.418
 3100POPC   GL141521  44.803  27.025   5.840
 3100POPC   GL241522  44.442  26.990   5.937
 3100POPC   C1A41523  44.828  26.801   6.211
 3100POPC   D2A41524  44.529  26.898   6.505
 3100POPC   C3A41525  44.681  26.726   6.847
 3100POPC   C4A41526  44.765  26.782   7.227
 3100POPC   C1B41527  44.241  27.261   6.262
 3100POPC   C2B41528  44.143  27.242   6.699
 3100POPC   C3B41529  44.347  27.050   7.034
 3100POPC   C4B41530  44.285  26.645   7.192
 3101POPC   NC341531  43.579  30.829   5.378
 3101POPC   PO441532  44.263  30.652   5.387
 3101POPC   GL141533  44.003  30.815   5.692
 3101POPC   GL241534  43.885  30.472   5.744
 3101POPC   C1A41535  43.757  30.871   6.069
 3101POPC   D2A41536  43.798  30.693   6.473
 3101POPC   C3A41537  43.950  30.648   6.887
 3101POPC   C4A41538  43.822  30.716   7.268
 3101POPC   C1B41539  43.652  30.284   6.091
 3101POPC   C2B41540  43.773  30.200   6.509
 3101POPC   C3B41541  43.594  30.274   6.919
 3101POPC   C4B41542  43.733  30.222   7.358
 3102POPC   NC341543  44.799  21.949   5.280
 3102POPC   PO441544  44.373  22.439   5.586
 3102POPC   GL141545  44.571  22.417   5.926
 3102POPC   GL241546  44.931  22.382   5.858
 3102POPC   C1A41547  44.708  22.649   6.295
 3102POPC   D2A41548   0.079  22.543   6.564
 3102POPC   C3A41549  44.975  22.288   6.903
 3102POPC   C4A41550  44.851  22.396   7.350
 3102POPC   C1B41551  44.830  22.166   6.256
 3102POPC   C2B41552  44.722  21.795   6.436
 3102POPC   C3B41553  44.883  21.767   6.828
 3102POPC   C4B41554  44.772  21.928   7.188
 3103POPC   NC341555  19.593   8.588   5.318
 3103POPC   PO441556  19.933   7.970   5.303
 3103POPC   GL141557  20.064   8.067   5.715
 3103POPC   GL241558  19.718   8.085   5.813
 3103POPC   C1A41559  20.081   8.304   6.111
 3103POPC   D2A41560  19.815   8.373   6.490
 3103POPC   C3A41561  20.010   8.161   6.862
 3103POPC   C4A41562  20.079   8.298   7.294
 3103POPC   C1B41563  19.797   7.869   6.209
 3103POPC   C2B41564  19.602   7.906   6.608
 3103POPC   C3B41565  19.507   8.244   6.894
 3103POPC   C4B41566  19.597   8.098   7.297
 3104POPC   NC341567   8.723   5.171   5.383
 3104POPC   PO441568   9.254   4.874   5.448
 3104POPC   GL141569   9.277   5.076   5.851
 3104POPC   GL241570   9.086   5.374   5.846
 3104POPC   C1A41571   9.195   5.169   6.314
 3104POPC   D2A41572   9.159   5.226   6.769
 3104POPC   C3A41573   8.872   4.909   7.016
 3104POPC   C4A41574   8.934   4.674   7.424
 3104POPC   C1B41575   8.932   5.619   6.226
 3104POPC   C2B41576   8.836   5.642   6.685
 3104POPC   C3B41577   8.796   5.414   7.086
 3104POPC   C4B41578   8.798   5.174   7.479
 3105POPC   NC341579  35.982  24.740   5.421
 3105POPC   PO441580  36.238  24.159   5.188
 3105POPC   GL141581  36.092  24.304   5.684
 3105POPC   GL241582  36.100  24.648   5.902
 3105POPC   C1A41583  36.282  24.276   6.166
 3105POPC   D2A41584  36.251  24.636   6.492
 3105POPC   C3A41585  36.381  24.552   6.927
 3105POPC   C4A41586  36.323  24.344   7.311
 3105POPC   C1B41587  35.828  24.424   6.268
 3105POPC   C2B41588  35.931  24.299   6.727
 3105POPC   C3B41589  35.811  24.428   7.141
 3105POPC   C4B41590  35.978  24.732   7.439
 3106POPC   NC341591  42.549   6.828   5.427
 3106POPC   PO441592  43.051   7.413   5.347
 3106POPC   GL141593  43.214   7.522   5.768
 3106POPC   GL241594  42.887   7.623   5.801
 3106POPC   C1A41595  43.438   7.560   6.213
 3106POPC   D2A41596  43.396   7.740   6.665
 3106POPC   C3A41597  43.566   7.496   7.047
 3106POPC   C4A41598  43.405   7.244   7.444
 3106POPC   C1B41599  42.959   7.748   6.216
 3106POPC   C2B41600  42.839   7.620   6.597
 3106POPC   C3B41601  42.889   7.765   6.987
 3106POPC   C4B41602  43.144   7.665   7.317
 3107POPC   NC341603  15.813  27.015   5.467
 3107POPC   PO441604  16.256  26.547   5.575
 3107POPC   GL141605  15.988  26.759   5.879
 3107POPC   GL241606  15.620  26.801   5.885
 3107POPC   C1A41607  15.935  26.835   6.300
 3107POPC   D2A41608  15.895  26.619   6.674
 3107POPC   C3A41609  16.123  26.897   6.952
 3107POPC   C4A41610  16.341  26.968   7.330
 3107POPC   C1B41611  15.471  27.063   6.231
 3107POPC   C2B41612  15.658  27.090   6.645
 3107POPC   C3B41613  15.627  26.884   7.050
 3107POPC   C4B41614  15.476  26.529   7.281
 3108POPC   NC341615  20.955  34.291   5.522
 3108POPC   PO441616  20.292  34.446   5.410
 3108POPC   GL141617  20.531  34.469   5.779
 3108POPC   GL241618  20.436  34.799   5.870
 3108POPC   C1A41619  20.425  34.415   6.222
 3108POPC   D2A41620  20.396  34.718   6.558
 3108POPC   C3A41621  20.501  34.509   6.905
 3108POPC   C4A41622  20.846  34.271   6.972
 3108POPC   C1B41623  20.770  34.793   6.201
 3108POPC   C2B41624  20.935  34.688   6.604
 3108POPC   C3B41625  20.918  34.809   6.987
 3108POPC   C4B41626  20.524  34.963   7.149
 3109POPC   NC341627  37.230  26.003   5.440
 3109POPC   PO441628  37.720  26.428   5.335
 3109POPC   GL141629  37.668  26.172   5.690
 3109POPC   GL241630  37.383  26.367   5.764
 3109POPC   C1A41631  37.837  25.955   6.092
 3109POPC   D2A41632  37.619  25.966   6.493
 3109POPC   C3A41633  37.779  25.806   6.896
 3109POPC   C4A41634  37.606  25.963   7.265
 3109POPC   C1B41635  37.607  26.401   6.153
 3109POPC   C2B41636  37.519  26.504   6.556
 3109POPC   C3B41637  37.657  26.357   6.930
 3109POPC   C4B41638  37.439  26.481   7.275
 3110POPC   NC341639  13.900  42.039   5.520
 3110POPC   PO441640  14.465  42.318   5.328
 3110POPC   GL141641  14.330  42.272   5.769
 3110POPC   GL241642  14.523  42.508   5.924
 3110POPC   C1A41643  14.472  42.105   6.215
 3110POPC   D2A41644  14.701  42.277   6.588
 3110POPC   C3A41645  14.605  42.183   7.018
 3110POPC   C4A41646  14.749  42.114   7.422
 3110POPC   C1B41647  14.438  42.641   6.331
 3110POPC   C2B41648  14.170  42.377   6.577
 3110POPC   C3B41649  14.028  42.361   6.978
 3110POPC   C4B41650  14.250  42.397   7.330
 3111POPC   NC341651  28.702  30.785   5.675
 3111POPC   PO441652  28.185  31.014   5.258
 3111POPC   GL141653  28.177  30.674   5.663
 3111POPC   GL241654  27.955  30.427   5.640
 3111POPC   C1A41655  28.330  30.615   6.155
 3111POPC   D2A41656  28.320  30.844   6.538
 3111POPC   C3A41657  28.427  30.621   6.918
 3111POPC   C4A41658  28.608  30.572   7.330
 3111POPC   C1B41659  27.955  30.296   6.083
 3111POPC   C2B41660  28.010  30.445   6.551
 3111POPC   C3B41661  28.072  30.240   6.982
 3111POPC   C4B41662  28.216  30.239   7.459
 3112POPC   NC341663  35.759  36.782   5.464
 3112POPC   PO441664  36.412  36.464   5.505
 3112POPC   GL141665  36.226  36.766   5.763
 3112POPC   GL241666  36.051  37.102   5.798
 3112POPC   C1A41667  36.378  36.888   6.160
 3112POPC   D2A41668  36.491  36.701   6.537
 3112POPC   C3A41669  36.317  36.826   6.913
 3112POPC   C4A41670  36.469  36.741   7.317
 3112POPC   C1B41671  35.847  36.819   6.109
 3112POPC   C2B41672  35.969  36.776   6.509
 3112POPC   C3B41673  35.771  36.741   6.882
 3112POPC   C4B41674  35.887  36.933   7.246
 3113POPC   NC341675  39.453  11.497   5.310
 3113POPC   PO441676  39.202  10.858   5.545
 3113POPC   GL141677  39.365  11.193   5.742
 3113POPC   GL241678  39.147  11.442   5.730
 3113POPC   C1A41679  39.477  11.364   6.141
 3113POPC   D2A41680  39.629  11.389   6.552
 3113POPC   C3A41681  39.458  11.158   6.889
 3113POPC   C4A41682  39.346  11.243   7.322
 3113POPC   C1B41683  39.017  11.574   6.139
 3113POPC   C2B41684  39.129  11.551   6.570
 3113POPC   C3B41685  39.008  11.407   6.971
 3113POPC   C4B41686  39.035  11.629   7.396
 3114POPC   NC341687  10.496  27.515   5.452
 3114POPC   PO441688  10.650  28.179   5.403
 3114POPC   GL141689  10.523  27.938   5.756
 3114POPC   GL241690  10.195  27.831   5.811
 3114POPC   C1A41691  10.616  27.614   6.099
 3114POPC   D2A41692  10.502  27.465   6.518
 3114POPC   C3A41693  10.825  27.497   6.829
 3114POPC   C4A41694  10.943  27.588   7.261
 3114POPC   C1B41695  10.112  27.688   6.213
 3114POPC   C2B41696   9.933  27.802   6.590
 3114POPC   C3B41697  10.143  27.849   6.975
 3114POPC   C4B41698  10.438  27.517   7.171
 3115POPC   NC341699  40.539   0.029   5.285
 3115POPC   PO441700  40.808  44.401   5.394
 3115POPC   GL141701  40.816  44.572   5.790
 3115POPC   GL241702  40.692  44.909   5.776
 3115POPC   C1A41703  40.657  44.523   6.196
 3115POPC   D2A41704  40.570  44.712   6.592
 3115POPC   C3A41705  40.666  44.351   6.850
 3115POPC   C4A41706  40.830  44.344   7.250
 3115POPC   C1B41707  40.851  44.990   6.190
 3115POPC   C2B41708  41.029  44.983   6.605
 3115POPC   C3B41709  40.914  44.883   7.022
 3115POPC   C4B41710  40.526  44.750   7.137
 3116POPC   NC341711  44.994  17.007   5.321
 3116POPC   PO441712  44.444  16.556   5.370
 3116POPC   GL141713  44.696  16.649   5.757
 3116POPC   GL241714  44.801  17.001   5.830
 3116POPC   C1A41715  44.578  16.675   6.199
 3116POPC   D2A41716  44.732  16.829   6.577
 3116POPC   C3A41717  44.864  16.584   6.915
 3116POPC   C4A41718  44.828  16.743   7.334
 3116POPC   C1B41719   0.055  17.060   6.203
 3116POPC   C2B41720   0.062  17.208   6.629
 3116POPC   C3B41721   0.144  16.988   6.972
 3116POPC   C4B41722   0.286  17.016   7.396
 3117POPC   NC341723   0.002  17.765   5.194
 3117POPC   PO441724  44.499  17.342   5.152
 3117POPC   GL141725  44.452  17.380   5.752
 3117POPC   GL241726  44.630  17.566   5.949
 3117POPC   C1A41727  44.561  17.203   6.250
 3117POPC   D2A41728  44.596  17.482   6.618
 3117POPC   C3A41729  44.629  17.209   6.933
 3117POPC   C4A41730  44.828  17.232   7.278
 3117POPC   C1B41731  44.944  17.569   6.265
 3117POPC   C2B41732   0.101  17.710   6.669
 3117POPC   C3B41733  44.899  17.681   7.066
 3117POPC   C4B41734  44.500  17.625   7.227
 3118POPC   NC341735  31.326  10.848   5.104
 3118POPC   PO441736  31.158  10.320   5.586
 3118POPC   GL141737  31.451  10.303   5.922
 3118POPC   GL241738  31.458   9.946   5.946
 3118POPC   C1A41739  31.629  10.556   6.243
 3118POPC   D2A41740  31.437  10.842   6.549
 3118POPC   C3A41741  31.561  10.847   6.975
 3118POPC   C4A41742  31.750  10.559   7.245
 3118POPC   C1B41743  31.422   9.993   6.374
 3118POPC   C2B41744  31.301  10.344   6.584
 3118POPC   C3B41745  31.233  10.458   6.976
 3118POPC   C4B41746  31.361  10.251   7.302
 3119POPC   NC341747   0.909  44.090   5.374
 3119POPC   PO441748   1.493  43.771   5.406
 3119POPC   GL141749   1.312  43.929   5.806
 3119POPC   GL241750   0.978  44.143   5.868
 3119POPC   C1A41751   1.262  43.635   6.183
 3119POPC   D2A41752   1.439  43.423   6.569
 3119POPC   C3A41753   1.414  43.754   6.872
 3119POPC   C4A41754   1.249  43.727   7.304
 3119POPC   C1B41755   1.190  44.153   6.255
 3119POPC   C2B41756   1.337  44.229   6.667
 3119POPC   C3B41757   1.297  44.193   7.123
 3119POPC   C4B41758   1.345  44.185   7.581
 3120POPC   NC341759  25.715   4.464   5.617
 3120POPC   PO441760  26.372   4.178   5.429
 3120POPC   GL141761  26.127   4.151   5.773
 3120POPC   GL241762  26.198   4.499   5.807
 3120POPC   C1A41763  25.947   4.190   6.168
 3120POPC   D2A41764  26.152   4.254   6.518
 3120POPC   C3A41765  25.938   4.363   6.844
 3120POPC   C4A41766  26.019   4.407   7.247
 3120POPC   C1B41767  26.124   4.680   6.197
 3120POPC   C2B41768  26.300   4.721   6.603
 3120POPC   C3B41769  26.422   4.621   6.997
 3120POPC   C4B41770  26.351   4.741   7.431
 3121POPC   NC341771  21.499   5.651   5.496
 3121POPC   PO441772  21.432   6.320   5.442
 3121POPC   GL141773  21.456   6.074   5.782
 3121POPC   GL241774  21.167   5.999   5.828
 3121POPC   C1A41775  21.547   5.823   6.178
 3121POPC   D2A41776  21.607   5.554   6.546
 3121POPC   C3A41777  21.563   5.721   6.974
 3121POPC   C4A41778  21.437   5.960   7.363
 3121POPC   C1B41779  21.031   5.849   6.216
 3121POPC   C2B41780  21.110   5.702   6.638
 3121POPC   C3B41781  21.078   5.926   7.014
 3121POPC   C4B41782  20.870   5.861   7.416
 3122POPC   NC341783  28.973  43.483   5.442
 3122POPC   PO441784  28.755  44.070   5.494
 3122POPC   GL141785  28.702  43.743   5.811
 3122POPC   GL241786  28.376  43.534   5.812
 3122POPC   C1A41787  28.619  43.720   6.260
 3122POPC   D2A41788  28.391  43.881   6.627
 3122POPC   C3A41789  28.621  44.018   7.009
 3122POPC   C4A41790  28.442  44.056   7.421
 3122POPC   C1B41791  28.112  43.531   6.236
 3122POPC   C2B41792  28.011  43.533   6.714
 3122POPC   C3B41793  28.230  43.701   7.102
 3122POPC   C4B41794  28.616  43.581   7.339
 3123POPC   NC341795  41.727  40.511   5.418
 3123POPC   PO441796  41.536  41.128   5.322
 3123POPC   GL141797  41.572  40.912   5.744
 3123POPC   GL241798  41.374  40.594   5.769
 3123POPC   C1A41799  41.719  40.950   6.190
 3123POPC   D2A41800  41.881  40.939   6.631
 3123POPC   C3A41801  41.611  41.021   6.974
 3123POPC   C4A41802  41.726  41.068   7.394
 3123POPC   C1B41803  41.414  40.533   6.201
 3123POPC   C2B41804  41.440  40.692   6.606
 3123POPC   C3B41805  41.603  40.509   6.977
 3123POPC   C4B41806  41.471  40.258   7.355
 3124POPC   NC341807   8.651  37.392   5.387
 3124POPC   PO441808   9.414  37.584   5.355
 3124POPC   GL141809   9.160  37.831   5.679
 3124POPC   GL241810   8.830  37.719   5.755
 3124POPC   C1A41811   9.131  37.841   6.137
 3124POPC   D2A41812   8.931  37.731   6.513
 3124POPC   C3A41813   8.894  38.045   6.842
 3124POPC   C4A41814   8.857  37.833   7.216
 3124POPC   C1B41815   8.746  37.462   6.096
 3124POPC   C2B41816   8.493  37.451   6.465
 3124POPC   C3B41817   8.575  37.561   6.867
 3124POPC   C4B41818   8.548  37.400   7.256
 3125POPC   NC341819  23.296  34.646   5.472
 3125POPC   PO441820  22.642  34.568   5.444
 3125POPC   GL141821  22.881  34.640   5.798
 3125POPC   GL241822  23.006  34.296   5.850
 3125POPC   C1A41823  22.986  34.671   6.238
 3125POPC   D2A41824  22.970  34.325   6.505
 3125POPC   C3A41825  22.766  34.407   6.910
 3125POPC   C4A41826  22.791  34.668   7.248
 3125POPC   C1B41827  23.363  34.341   6.132
 3125POPC   C2B41828  23.434  34.515   6.536
 3125POPC   C3B41829  23.277  34.389   6.930
 3125POPC   C4B41830  23.310  34.578   7.334
 3126POPC   NC341831  25.023  18.599   5.412
 3126POPC   PO441832  25.384  19.265   5.383
 3126POPC   GL141833  25.316  19.065   5.783
 3126POPC   GL241834  25.516  18.752   5.844
 3126POPC   C1A41835  25.117  19.061   6.224
 3126POPC   D2A41836  25.326  18.924   6.611
 3126POPC   C3A41837  25.218  19.132   6.961
 3126POPC   C4A41838  25.014  19.019   7.330
 3126POPC   C1B41839  25.625  19.041   6.198
 3126POPC   C2B41840  25.660  19.308   6.584
 3126POPC   C3B41841  25.746  19.143   6.980
 3126POPC   C4B41842  25.558  19.018   7.326
 3127POPC   NC341843   3.654  43.447   5.171
 3127POPC   PO441844   3.492  42.782   5.377
 3127POPC   GL141845   3.662  43.039   5.692
 3127POPC   GL241846   3.587  43.354   5.665
 3127POPC   C1A41847   3.747  43.290   6.130
 3127POPC   D2A41848   3.595  43.408   6.545
 3127POPC   C3A41849   3.837  43.259   6.902
 3127POPC   C4A41850   3.712  43.166   7.257
 3127POPC   C1B41851   3.307  43.099   6.032
 3127POPC   C2B41852   3.281  43.009   6.442
 3127POPC   C3B41853   3.377  43.031   6.863
 3127POPC   C4B41854   3.388  42.765   7.176
 3128POPC   NC341855  16.327   1.052   5.207
 3128POPC   PO441856  15.619   1.092   5.525
 3128POPC   GL141857  15.825   1.484   5.710
 3128POPC   GL241858  16.160   1.426   5.833
 3128POPC   C1A41859  15.879   1.664   6.163
 3128POPC   D2A41860  16.102   1.702   6.569
 3128POPC   C3A41861  15.910   1.556   6.950
 3128POPC   C4A41862  16.136   1.308   7.253
 3128POPC   C1B41863  16.159   1.226   6.269
 3128POPC   C2B41864  16.327   0.869   6.521
 3128POPC   C3B41865  16.169   0.863   6.943
 3128POPC   C4B41866  16.223   0.789   7.355
 3129POPC   NC341867  39.441  43.829   5.278
 3129POPC   PO441868  39.123  44.355   5.578
 3129POPC   GL141869  39.123  44.020   5.904
 3129POPC   GL241870  39.237  43.737   5.733
 3129POPC   C1A41871  38.935  43.810   6.298
 3129POPC   D2A41872  38.948  43.622   6.753
 3129POPC   C3A41873  39.235  43.856   7.062
 3129POPC   C4A41874  39.169  43.891   7.521
 3129POPC   C1B41875  39.344  43.555   6.129
 3129POPC   C2B41876  39.417  43.653   6.562
 3129POPC   C3B41877  39.379  43.394   6.942
 3129POPC   C4B41878  39.446  43.476   7.397
 3130POPC   NC341879  13.970  16.199   5.375
 3130POPC   PO441880  14.469  15.855   5.618
 3130POPC   GL141881  14.109  15.812   5.837
 3130POPC   GL241882  14.093  16.165   5.860
 3130POPC   C1A41883  14.187  15.786   6.273
 3130POPC   D2A41884  14.384  15.713   6.633
 3130POPC   C3A41885  14.213  15.791   7.003
 3130POPC   C4A41886  14.240  15.578   7.347
 3130POPC   C1B41887  14.383  16.238   6.191
 3130POPC   C2B41888  14.232  16.249   6.618
 3130POPC   C3B41889  14.356  16.292   7.044
 3130POPC   C4B41890  14.145  16.341   7.436
 3131POPC   NC341891   1.049   6.031   5.578
 3131POPC   PO441892   1.374   6.485   5.125
 3131POPC   GL141893   1.319   6.417   5.622
 3131POPC   GL241894   1.022   6.532   5.774
 3131POPC   C1A41895   1.348   6.423   6.149
 3131POPC   D2A41896   1.352   6.845   6.435
 3131POPC   C3A41897   1.428   6.852   6.888
 3131POPC   C4A41898   1.610   6.527   7.180
 3131POPC   C1B41899   0.917   6.708   6.182
 3131POPC   C2B41900   0.810   6.860   6.600
 3131POPC   C3B41901   0.932   6.807   7.036
 3131POPC   C4B41902   0.842   6.352   7.149
 3132POPC   NC341903  25.927   8.526   5.518
 3132POPC   PO441904  26.157   7.982   5.133
 3132POPC   GL141905  26.215   7.970   5.688
 3132POPC   GL241906  25.939   8.157   5.868
 3132POPC   C1A41907  26.179   7.924   6.214
 3132POPC   D2A41908  26.184   8.140   6.652
 3132POPC   C3A41909  26.086   7.947   7.072
 3132POPC   C4A41910  26.207   7.851   7.507
 3132POPC   C1B41911  25.804   8.286   6.274
 3132POPC   C2B41912  25.646   8.251   6.694
 3132POPC   C3B41913  25.821   8.420   7.084
 3132POPC   C4B41914  25.853   8.597   7.546
 3133POPC   NC341915  28.533   9.428   5.322
 3133POPC   PO441916  28.718  10.085   5.388
 3133POPC   GL141917  28.469   9.919   5.761
 3133POPC   GL241918  28.235   9.660   5.674
 3133POPC   C1A41919  28.377   9.935   6.227
 3133POPC   D2A41920  28.566   9.866   6.663
 3133POPC   C3A41921  28.336   9.964   7.071
 3133POPC   C4A41922  28.501   9.884   7.479
 3133POPC   C1B41923  28.077   9.429   6.032
 3133POPC   C2B41924  28.107   9.571   6.467
 3133POPC   C3B41925  28.237   9.474   6.877
 3133POPC   C4B41926  27.987   9.371   7.217
 3134POPC   NC341927   3.370  39.974   5.371
 3134POPC   PO441928   3.833  40.511   5.568
 3134POPC   GL141929   3.556  40.206   5.800
 3134POPC   GL241930   3.215  40.103   5.821
 3134POPC   C1A41931   3.595  39.931   6.184
 3134POPC   D2A41932   3.877  39.894   6.530
 3134POPC   C3A41933   3.668  39.760   6.912
 3134POPC   C4A41934   3.610  40.052   7.259
 3134POPC   C1B41935   3.132  40.145   6.234
 3134POPC   C2B41936   3.270  40.254   6.620
 3134POPC   C3B41937   2.976  40.267   6.930
 3134POPC   C4B41938   3.097  40.148   7.280
 3135POPC   NC341939  37.605   0.313   5.274
 3135POPC   PO441940  38.228   0.365   5.445
 3135POPC   GL141941  37.835   0.471   5.736
 3135POPC   GL241942  37.455   0.432   5.767
 3135POPC   C1A41943  37.788   0.311   6.171
 3135POPC   D2A41944  37.942   0.330   6.596
 3135POPC   C3A41945  37.639   0.368   6.926
 3135POPC   C4A41946  37.588   0.125   7.295
 3135POPC   C1B41947  37.395   0.628   6.205
 3135POPC   C2B41948  37.199   0.429   6.600
 3135POPC   C3B41949  37.142   0.227   7.008
 3135POPC   C4B41950  37.298   0.536   7.294
 3136POPC   NC341951  44.965  21.222   5.311
 3136POPC   PO441952  44.478  21.591   5.198
 3136POPC   GL141953  44.731  21.574   5.629
 3136POPC   GL241954  44.662  21.905   5.800
 3136POPC   C1A41955  44.845  21.394   6.041
 3136POPC   D2A41956  44.568  21.282   6.418
 3136POPC   C3A41957  44.567  21.383   6.872
 3136POPC   C4A41958  44.867  21.432   7.228
 3136POPC   C1B41959  44.380  21.634   6.060
 3136POPC   C2B41960  44.229  21.661   6.514
 3136POPC   C3B41961  44.339  21.846   6.934
 3136POPC   C4B41962  44.423  21.622   7.354
 3137POPC   NC341963   4.753   6.123   5.465
 3137POPC   PO441964   4.104   6.054   5.384
 3137POPC   GL141965   4.078   6.081   5.826
 3137POPC   GL241966   4.432   6.063   5.908
 3137POPC   C1A41967   3.969   6.054   6.297
 3137POPC   D2A41968   4.130   5.977   6.745
 3137POPC   C3A41969   4.050   6.100   7.185
 3137POPC   C4A41970   4.204   5.982   7.614
 3137POPC   C1B41971   4.501   6.097   6.353
 3137POPC   C2B41972   4.633   6.118   6.794
 3137POPC   C3B41973   4.581   6.099   7.264
 3137POPC   C4B41974   4.662   6.182   7.745
 3138POPC   NC341975  22.655  27.782   5.430
 3138POPC   PO441976  23.194  27.386   5.497
 3138POPC   GL141977  23.165  27.578   5.888
 3138POPC   GL241978  22.835  27.728   5.907
 3138POPC   C1A41979  23.067  27.472   6.305
 3138POPC   D2A41980  22.870  27.445   6.664
 3138POPC   C3A41981  23.105  27.497   7.016
 3138POPC   C4A41982  23.007  27.408   7.444
 3138POPC   C1B41983  22.920  27.963   6.289
 3138POPC   C2B41984  22.817  27.957   6.712
 3138POPC   C3B41985  22.690  27.934   7.118
 3138POPC   C4B41986  23.086  27.904   7.320
 3139POPC   NC341987  36.339  12.356   5.418
 3139POPC   PO441988  36.515  12.987   5.363
 3139POPC   GL141989  36.418  12.845   5.748
 3139POPC   GL241990  36.399  13.148   5.957
 3139POPC   C1A41991  36.320  12.648   6.128
 3139POPC   D2A41992  36.558  12.597   6.519
 3139POPC   C3A41993  36.313  12.656   6.913
 3139POPC   C4A41994  35.935  12.687   7.178
 3139POPC   C1B41995  35.996  13.037   6.224
 3139POPC   C2B41996  35.795  13.159   6.625
 3139POPC   C3B41997  36.024  13.166   7.011
 3139POPC   C4B41998  36.121  13.131   7.503
 3140POPC   NC341999  14.649  35.624   5.140
 3140POPC   PO442000  14.634  35.028   5.533
 3140POPC   GL142001  14.262  35.193   5.780
 3140POPC   GL242002  14.019  35.473   5.657
 3140POPC   C1A42003  14.292  35.139   6.223
 3140POPC   D2A42004  14.532  35.023   6.597
 3140POPC   C3A42005  14.411  35.287   6.944
 3140POPC   C4A42006  14.513  35.499   7.309
 3140POPC   C1B42007  14.118  35.602   6.080
 3140POPC   C2B42008  14.273  35.573   6.513
 3140POPC   C3B42009  14.253  35.776   6.889
 3140POPC   C4B42010  14.225  35.942   7.285
 3141POPC   NC342011  17.231  33.354   5.550
 3141POPC   PO442012  16.475  33.236   5.345
 3141POPC   GL142013  16.699  33.327   5.714
 3141POPC   GL242014  16.787  32.993   5.766
 3141POPC   C1A42015  16.829  33.358   6.175
 3141POPC   D2A42016  16.889  33.144   6.611
 3141POPC   C3A42017  16.851  33.256   7.078
 3141POPC   C4A42018  17.016  32.992   7.457
 3141POPC   C1B42019  16.416  32.811   6.027
 3141POPC   C2B42020  16.270  32.877   6.478
 3141POPC   C3B42021  16.454  32.902   6.907
 3141POPC   C4B42022  16.367  32.757   7.337
 3142POPC   NC342023  42.581   7.491   5.314
 3142POPC   PO442024  42.190   7.005   5.196
 3142POPC   GL142025  42.359   7.225   5.694
 3142POPC   GL242026  42.380   7.562   5.810
 3142POPC   C1A42027  42.162   7.188   6.158
 3142POPC   D2A42028  42.055   7.430   6.564
 3142POPC   C3A42029  42.009   7.239   7.006
 3142POPC   C4A42030  42.207   7.382   7.395
 3142POPC   C1B42031  42.624   7.364   6.137
 3142POPC   C2B42032  42.521   7.217   6.537
 3142POPC   C3B42033  42.498   7.382   6.935
 3142POPC   C4B42034  42.710   7.400   7.291
 3143POPC   NC342035  41.347  13.287   5.719
 3143POPC   PO442036  41.590  12.628   5.472
 3143POPC   GL142037  41.613  12.817   5.846
 3143POPC   GL242038  41.251  12.819   5.844
 3143POPC   C1A42039  41.510  12.825   6.281
 3143POPC   D2A42040  41.674  12.746   6.660
 3143POPC   C3A42041  41.864  12.910   6.998
 3143POPC   C4A42042  41.797  12.962   7.434
 3143POPC   C1B42043  41.030  13.019   6.223
 3143POPC   C2B42044  41.266  13.211   6.573
 3143POPC   C3B42045  41.350  13.030   6.961
 3143POPC   C4B42046  41.017  12.924   7.182
 3144POPC   NC342047   5.640   9.955   5.611
 3144POPC   PO442048   6.117   9.577   5.413
 3144POPC   GL142049   6.046   9.686   5.807
 3144POPC   GL242050   6.093  10.052   5.829
 3144POPC   C1A42051   5.909   9.497   6.185
 3144POPC   D2A42052   6.152   9.497   6.547
 3144POPC   C3A42053   5.893   9.344   6.846
 3144POPC   C4A42054   5.727   9.383   7.227
 3144POPC   C1B42055   5.870   9.991   6.249
 3144POPC   C2B42056   5.853   9.868   6.694
 3144POPC   C3B42057   5.802  10.066   7.087
 3144POPC   C4B42058   5.658   9.830   7.444
 3145POPC   NC342059   9.588  33.462   5.390
 3145POPC   PO442060   9.907  32.852   5.454
 3145POPC   GL142061   9.742  32.921   5.839
 3145POPC   GL242062   9.391  32.943   5.730
 3145POPC   C1A42063   9.596  33.190   6.177
 3145POPC   D2A42064   9.444  33.210   6.590
 3145POPC   C3A42065   9.750  33.166   6.884
 3145POPC   C4A42066   9.770  33.033   7.292
 3145POPC   C1B42067   9.377  32.665   6.084
 3145POPC   C2B42068   9.269  32.761   6.486
 3145POPC   C3B42069   9.466  32.764   6.870
 3145POPC   C4B42070   9.482  32.589   7.247
 3146POPC   NC342071   1.605  35.429   5.440
 3146POPC   PO442072   1.002  35.257   5.254
 3146POPC   GL142073   1.155  35.415   5.689
 3146POPC   GL242074   1.201  35.103   5.780
 3146POPC   C1A42075   1.330  35.548   6.142
 3146POPC   D2A42076   1.218  35.592   6.619
 3146POPC   C3A42077   1.403  35.447   7.030
 3146POPC   C4A42078   1.355  35.553   7.497
 3146POPC   C1B42079   1.254  35.011   6.211
 3146POPC   C2B42080   1.405  35.065   6.648
 3146POPC   C3B42081   1.282  34.935   7.080
 3146POPC   C4B42082   1.100  35.110   7.466
 3147POPC   NC342083   0.987  10.654   5.335
 3147POPC   PO442084   0.734  10.285   5.723
 3147POPC   GL142085   1.054  10.486   5.923
 3147POPC   GL242086   1.311  10.700   5.761
 3147POPC   C1A42087   1.063  10.366   6.331
 3147POPC   D2A42088   1.014  10.250   6.740
 3147POPC   C3A42089   0.923  10.464   7.068
 3147POPC   C4A42090   1.283  10.317   7.294
 3147POPC   C1B42091   1.424  10.720   6.198
 3147POPC   C2B42092   1.173  10.792   6.581
 3147POPC   C3B42093   1.356  10.683   6.952
 3147POPC   C4B42094   1.652  10.713   7.287
 3148POPC   NC342095  41.958  28.052   5.540
 3148POPC   PO442096  42.303  27.534   5.330
 3148POPC   GL142097  42.371  27.534   5.773
 3148POPC   GL242098  42.259  27.847   5.916
 3148POPC   C1A42099  42.201  27.373   6.172
 3148POPC   D2A42100  42.035  27.541   6.551
 3148POPC   C3A42101  42.151  27.384   6.944
 3148POPC   C4A42102  41.925  27.551   7.285
 3148POPC   C1B42103  42.587  27.802   6.230
 3148POPC   C2B42104  42.551  27.646   6.653
 3148POPC   C3B42105  42.458  27.758   7.094
 3148POPC   C4B42106  42.698  27.991   7.409
 3149POPC   NC342107  27.942  37.460   5.525
 3149POPC   PO442108  28.566  37.893   5.500
 3149POPC   GL142109  28.379  37.948   5.865
 3149POPC   GL242110  28.323  37.611   5.851
 3149POPC   C1A42111  28.452  37.799   6.302
 3149POPC   D2A42112  28.763  37.697   6.605
 3149POPC   C3A42113  28.735  37.966   6.944
 3149POPC   C4A42114  28.387  38.001   7.207
 3149POPC   C1B42115  28.261  37.291   6.128
 3149POPC   C2B42116  28.417  37.313   6.522
 3149POPC   C3B42117  28.329  37.568   6.864
 3149POPC   C4B42118  28.110  37.561   7.250
 3150POPC   NC342119  40.466  33.595   5.359
 3150POPC   PO442120  41.026  33.958   5.394
 3150POPC   GL142121  40.803  33.762   5.766
 3150POPC   GL242122  40.577  33.464   5.839
 3150POPC   C1A42123  40.720  33.897   6.202
 3150POPC   D2A42124  40.732  34.134   6.608
 3150POPC   C3A42125  40.574  34.000   7.022
 3150POPC   C4A42126  40.767  33.774   7.385
 3150POPC   C1B42127  40.590  33.395   6.281
 3150POPC   C2B42128  40.590  33.615   6.680
 3150POPC   C3B42129  40.479  33.480   7.094
 3150POPC   C4B42130  40.568  33.316   7.532
 3151POPC   NC342131  37.960  41.990   5.489
 3151POPC   PO442132  37.812  41.345   5.290
 3151POPC   GL142133  37.659  41.472   5.708
 3151POPC   GL242134  37.938  41.568   5.826
 3151POPC   C1A42135  37.545  41.530   6.147
 3151POPC   D2A42136  37.719  41.657   6.519
 3151POPC   C3A42137  37.727  41.386   6.840
 3151POPC   C4A42138  37.561  41.318   7.269
 3151POPC   C1B42139  38.058  41.413   6.243
 3151POPC   C2B42140  38.215  41.628   6.608
 3151POPC   C3B42141  38.028  41.808   6.964
 3151POPC   C4B42142  37.994  41.553   7.315
 3152POPC   NC342143   2.372  29.472   5.467
 3152POPC   PO442144   1.968  28.994   5.339
 3152POPC   GL142145   1.934  28.969   5.769
 3152POPC   GL242146   2.186  29.217   5.871
 3152POPC   C1A42147   1.832  28.881   6.188
 3152POPC   D2A42148   2.034  29.081   6.523
 3152POPC   C3A42149   1.853  28.878   6.837
 3152POPC   C4A42150   1.929  28.985   7.235
 3152POPC   C1B42151   1.879  29.401   6.142
 3152POPC   C2B42152   1.852  29.592   6.560
 3152POPC   C3B42153   1.935  29.407   6.952
 3152POPC   C4B42154   2.006  29.485   7.368
 3153POPC   NC342155  36.388  41.382   5.456
 3153POPC   PO442156  36.207  40.688   5.324
 3153POPC   GL142157  36.311  40.926   5.689
 3153POPC   GL242158  36.064  40.786   5.864
 3153POPC   C1A42159  36.470  40.912   6.132
 3153POPC   D2A42160  36.387  41.027   6.562
 3153POPC   C3A42161  36.340  40.726   6.858
 3153POPC   C4A42162  36.189  40.786   7.247
 3153POPC   C1B42163  35.829  40.620   6.174
 3153POPC   C2B42164  35.919  40.736   6.569
 3153POPC   C3B42165  35.836  40.498   6.918
 3153POPC   C4B42166  35.831  40.461   7.338
 3154POPC   NC342167  44.957  28.382   5.387
 3154POPC   PO442168   0.593  28.207   5.353
 3154POPC   GL142169   0.417  28.474   5.668
 3154POPC   GL242170   0.523  28.264   5.914
 3154POPC   C1A42171   0.123  28.538   6.029
 3154POPC   D2A42172   0.083  28.344   6.434
 3154POPC   C3A42173   0.163  28.625   6.785
 3154POPC   C4A42174   0.017  28.618   7.203
 3154POPC   C1B42175   0.576  28.466   6.308
 3154POPC   C2B42176   0.541  28.286   6.730
 3154POPC   C3B42177   0.536  28.397   7.171
 3154POPC   C4B42178   0.713  28.204   7.556
 3155POPC   NC342179  38.324  14.051   5.162
 3155POPC   PO442180  38.408  14.772   5.200
 3155POPC   GL142181  38.412  14.433   5.570
 3155POPC   GL242182  38.746  14.320   5.658
 3155POPC   C1A42183  38.366  14.233   6.019
 3155POPC   D2A42184  38.451  14.228   6.485
 3155POPC   C3A42185  38.393  14.393   6.906
 3155POPC   C4A42186  38.353  14.203   7.297
 3155POPC   C1B42187  38.750  14.604   6.057
 3155POPC   C2B42188  38.740  14.657   6.512
 3155POPC   C3B42189  38.827  14.661   6.945
 3155POPC   C4B42190  38.677  14.597   7.320
 3156POPC   NC342191  19.504  43.529   5.411
 3156POPC   PO442192  18.867  43.935   5.384
 3156POPC   GL142193  19.082  43.963   5.770
 3156POPC   GL242194  19.067  43.597   5.808
 3156POPC   C1A42195  19.115  44.102   6.208
 3156POPC   D2A42196  19.129  43.895   6.602
 3156POPC   C3A42197  18.849  43.831   6.929
 3156POPC   C4A42198  19.079  44.078   7.241
 3156POPC   C1B42199  19.284  43.580   6.220
 3156POPC   C2B42200  19.400  43.465   6.661
 3156POPC   C3B42201  19.299  43.655   7.054
 3156POPC   C4B42202  19.349  43.523   7.461
 3157POPC   NC342203   7.627  44.074   5.399
 3157POPC   PO442204   7.184  43.599   5.413
 3157POPC   GL142205   7.246  43.759   5.853
 3157POPC   GL242206   7.480  44.035   5.890
 3157POPC   C1A42207   7.472  43.718   6.271
 3157POPC   D2A42208   7.174  43.901   6.534
 3157POPC   C3A42209   7.046  43.780   6.935
 3157POPC   C4A42210   7.294  43.652   7.245
 3157POPC   C1B42211   7.557  44.235   6.268
 3157POPC   C2B42212   7.628  44.072   6.670
 3157POPC   C3B42213   7.652  43.986   7.092
 3157POPC   C4B42214   7.652  44.338   7.346
 3158POPC   NC342215  34.683   9.542   5.422
 3158POPC   PO442216  34.837  10.213   5.587
 3158POPC   GL142217  34.652   9.903   5.868
 3158POPC   GL242218  34.508   9.555   5.885
 3158POPC   C1A42219  34.566   9.947   6.298
 3158POPC   D2A42220  34.874   9.896   6.622
 3158POPC   C3A42221  34.728   9.852   7.057
 3158POPC   C4A42222  34.652   9.598   7.483
 3158POPC   C1B42223  34.754   9.467   6.223
 3158POPC   C2B42224  34.564   9.499   6.607
 3158POPC   C3B42225  34.474   9.424   7.010
 3158POPC   C4B42226  34.146   9.629   7.282
 3159POPC   NC342227  29.814  43.931   5.385
 3159POPC   PO442228  30.456  44.186   5.385
 3159POPC   GL142229  30.090  44.171   5.727
 3159POPC   GL242230  29.973  43.807   5.844
 3159POPC   C1A42231  29.941  44.224   6.155
 3159POPC   D2A42232  30.059  44.036   6.545
 3159POPC   C3A42233  29.947  44.014   6.942
 3159POPC   C4A42234  30.288  44.086   7.219
 3159POPC   C1B42235  29.808  43.686   6.268
 3159POPC   C2B42236  29.827  43.560   6.735
 3159POPC   C3B42237  29.594  43.668   7.140
 3159POPC   C4B42238  29.711  43.563   7.577
 3160POPC   NC342239  22.265   0.013   5.390
 3160POPC   PO442240  22.322   0.638   5.644
 3160POPC   GL142241  22.253   0.237   5.883
 3160POPC   GL242242  21.904   0.097   5.861
 3160POPC   C1A42243  22.338   0.269   6.318
 3160POPC   D2A42244  22.350   0.653   6.565
 3160POPC   C3A42245  22.482   0.652   7.000
 3160POPC   C4A42246  22.200   0.652   7.355
 3160POPC   C1B42247  21.694   0.024   6.271
 3160POPC   C2B42248  21.971   0.076   6.638
 3160POPC   C3B42249  22.086   0.262   7.033
 3160POPC   C4B42250  21.699   0.187   7.234
 3161POPC   NC342251  39.270  28.535   5.448
 3161POPC   PO442252  39.129  27.889   5.447
 3161POPC   GL142253  39.007  28.162   5.749
 3161POPC   GL242254  39.363  28.183   5.858
 3161POPC   C1A42255  38.956  28.386   6.147
 3161POPC   D2A42256  39.155  28.550   6.521
 3161POPC   C3A42257  38.922  28.512   6.913
 3161POPC   C4A42258  39.171  28.372   7.247
 3161POPC   C1B42259  39.353  27.949   6.272
 3161POPC   C2B42260  39.464  27.985   6.728
 3161POPC   C3B42261  39.665  28.259   7.054
 3161POPC   C4B42262  39.611  28.315   7.506
 3162POPC   NC342263   7.752  14.604   5.414
 3162POPC   PO442264   7.454  14.032   5.290
 3162POPC   GL142265   7.508  14.272   5.701
 3162POPC   GL242266   7.816  14.186   5.792
 3162POPC   C1A42267   7.413  14.551   6.087
 3162POPC   D2A42268   7.195  14.518   6.508
 3162POPC   C3A42269   7.370  14.475   6.932
 3162POPC   C4A42270   7.456  14.624   7.347
 3162POPC   C1B42271   7.579  14.074   6.169
 3162POPC   C2B42272   7.618  14.191   6.570
 3162POPC   C3B42273   7.593  14.010   6.962
 3162POPC   C4B42274   7.367  14.105   7.341
 3163POPC   NC342275  27.482   7.058   5.287
 3163POPC   PO442276  27.655   7.644   5.234
 3163POPC   GL142277  27.713   7.495   5.632
 3163POPC   GL242278  27.469   7.721   5.785
 3163POPC   C1A42279  27.630   7.319   6.042
 3163POPC   D2A42280  27.788   7.440   6.446
 3163POPC   C3A42281  27.682   7.301   6.833
 3163POPC   C4A42282  27.874   7.422   7.188
 3163POPC   C1B42283  27.472   7.768   6.256
 3163POPC   C2B42284  27.459   7.765   6.741
 3163POPC   C3B42285  27.388   7.601   7.193
 3163POPC   C4B42286  27.313   7.379   7.633
 3164POPC   NC342287  21.315  36.197   5.352
 3164POPC   PO442288  21.936  36.211   5.226
 3164POPC   GL142289  21.689  36.194   5.687
 3164POPC   GL242290  21.341  36.042   5.835
 3164POPC   C1A42291  21.738  36.004   6.147
 3164POPC   D2A42292  21.863  36.170   6.572
 3164POPC   C3A42293  21.763  36.019   6.979
 3164POPC   C4A42294  21.363  36.013   7.139
 3164POPC   C1B42295  21.238  36.238   6.216
 3164POPC   C2B42296  21.292  36.160   6.639
 3164POPC   C3B42297  21.004  36.318   6.923
 3164POPC   C4B42298  20.902  36.182   7.341
 3165POPC   NC342299  28.813  20.055   5.354
 3165POPC   PO442300  29.331  19.615   5.426
 3165POPC   GL142301  29.058  19.732   5.724
 3165POPC   GL242302  29.357  19.741   5.924
 3165POPC   C1A42303  28.947  20.097   6.000
 3165POPC   D2A42304  28.833  20.335   6.381
 3165POPC   C3A42305  28.960  20.294   6.841
 3165POPC   C4A42306  29.163  20.166   7.216
 3165POPC   C1B42307  29.129  19.707   6.282
 3165POPC   C2B42308  29.256  20.047   6.522
 3165POPC   C3B42309  29.528  20.050   6.865
 3165POPC   C4B42310  29.548  19.780   7.210
 3166POPC   NC342311  36.624  33.188   5.455
 3166POPC   PO442312  37.246  32.937   5.290
 3166POPC   GL142313  37.041  32.958   5.751
 3166POPC   GL242314  36.960  32.608   5.915
 3166POPC   C1A42315  36.844  33.193   6.144
 3166POPC   D2A42316  36.619  33.161   6.578
 3166POPC   C3A42317  36.836  33.329   6.988
 3166POPC   C4A42318  36.950  33.153   7.427
 3166POPC   C1B42319  36.625  32.728   6.211
 3166POPC   C2B42320  36.780  32.675   6.608
 3166POPC   C3B42321  36.702  32.825   7.002
 3166POPC   C4B42322  36.917  32.644   7.331
 3167POPC   NC342323  15.347  33.788   5.314
 3167POPC   PO442324  14.958  34.108   5.758
 3167POPC   GL142325  15.125  33.677   5.801
 3167POPC   GL242326  15.498  33.619   5.782
 3167POPC   C1A42327  15.225  33.552   6.242
 3167POPC   D2A42328  15.403  33.442   6.674
 3167POPC   C3A42329  15.218  33.591   7.099
 3167POPC   C4A42330  15.087  33.998   7.337
 3167POPC   C1B42331  15.707  33.484   6.129
 3167POPC   C2B42332  15.642  33.835   6.450
 3167POPC   C3B42333  15.487  33.955   6.850
 3167POPC   C4B42334  15.597  33.882   7.271
 3168POPC   NC342335   4.337  41.817   5.137
 3168POPC   PO442336   4.237  41.326   5.615
 3168POPC   GL142337   4.517  41.395   5.904
 3168POPC   GL242338   4.560  41.707   5.725
 3168POPC   C1A42339   4.403  41.217   6.304
 3168POPC   D2A42340   4.191  41.355   6.673
 3168POPC   C3A42341   4.399  41.240   7.023
 3168POPC   C4A42342   4.079  41.159   7.286
 3168POPC   C1B42343   4.609  41.850   6.149
 3168POPC   C2B42344   4.623  41.629   6.547
 3168POPC   C3B42345   4.480  41.745   6.957
 3168POPC   C4B42346   4.724  41.766   7.297
 3169POPC   NC342347  42.948  28.988   5.240
 3169POPC   PO442348  43.406  29.404   5.529
 3169POPC   GL142349  43.148  29.036   5.719
 3169POPC   GL242350  42.840  29.166   5.778
 3169POPC   C1A42351  43.029  28.810   6.123
 3169POPC   D2A42352  43.337  28.807   6.450
 3169POPC   C3A42353  43.169  28.958   6.836
 3169POPC   C4A42354  43.119  28.959   7.281
 3169POPC   C1B42355  43.079  29.308   6.190
 3169POPC   C2B42356  42.977  29.428   6.644
 3169POPC   C3B42357  43.214  29.435   7.064
 3169POPC   C4B42358  43.233  29.600   7.534
 3170POPC   NC342359   4.642   8.317   5.327
 3170POPC   PO442360   4.055   8.030   5.371
 3170POPC   GL142361   4.297   8.144   5.757
 3170POPC   GL242362   4.568   8.387   5.817
 3170POPC   C1A42363   4.347   7.995   6.191
 3170POPC   D2A42364   4.405   7.742   6.566
 3170POPC   C3A42365   4.543   7.926   6.970
 3170POPC   C4A42366   4.426   8.295   7.278
 3170POPC   C1B42367   4.397   8.511   6.201
 3170POPC   C2B42368   4.136   8.355   6.502
 3170POPC   C3B42369   4.094   8.161   6.868
 3170POPC   C4B42370   3.932   8.278   7.242
 3171POPC   NC342371  38.852  17.203   5.589
 3171POPC   PO442372  38.484  17.791   5.354
 3171POPC   GL142373  38.588  17.648   5.787
 3171POPC   GL242374  38.916  17.632   5.924
 3171POPC   C1A42375  38.516  17.605   6.246
 3171POPC   D2A42376  38.657  17.808   6.617
 3171POPC   C3A42377  38.551  17.616   6.993
 3171POPC   C4A42378  38.194  17.684   7.235
 3171POPC   C1B42379  38.883  17.251   6.218
 3171POPC   C2B42380  38.740  17.246   6.624
 3171POPC   C3B42381  38.872  17.138   7.010
 3171POPC   C4B42382  38.631  17.264   7.348
 3172POPC   NC342383  40.265  33.025   5.544
 3172POPC   PO442384  39.710  33.270   5.256
 3172POPC   GL142385  39.640  33.230   5.744
 3172POPC   GL242386  39.947  33.129   5.939
 3172POPC   C1A42387  39.517  33.011   6.154
 3172POPC   D2A42388  39.830  32.916   6.482
 3172POPC   C3A42389  39.724  33.133   6.871
 3172POPC   C4A42390  39.696  32.907   7.241
 3172POPC   C1B42391  39.871  33.412   6.273
 3172POPC   C2B42392  40.140  33.384   6.611
 3172POPC   C3B42393  40.240  33.072   6.907
 3172POPC   C4B42394  40.114  33.208   7.333
 3173POPC   NC342395   3.311   0.450   5.717
 3173POPC   PO442396   3.866   0.688   5.348
 3173POPC   GL142397   3.774   0.553   5.834
 3173POPC   GL242398   3.711   0.259   6.051
 3173POPC   C1A42399   3.531   0.679   6.266
 3173POPC   D2A42400   3.440   0.581   6.702
 3173POPC   C3A42401   3.633   0.225   6.931
 3173POPC   C4A42402   3.974  44.897   6.906
 3173POPC   C1B42403   3.331   0.204   6.350
 3173POPC   C2B42404   3.179  44.986   6.740
 3173POPC   C3B42405   3.200   0.098   7.178
 3173POPC   C4B42406   3.109   0.139   7.682
 3174POPC   NC342407  30.387  32.662   5.467
 3174POPC   PO442408  30.744  33.159   5.366
 3174POPC   GL142409  30.660  33.066   5.818
 3174POPC   GL242410  30.390  32.848   5.938
 3174POPC   C1A42411  30.601  33.193   6.262
 3174POPC   D2A42412  30.634  32.993   6.666
 3174POPC   C3A42413  31.011  33.021   6.899
 3174POPC   C4A42414  30.923  33.051   7.323
 3174POPC   C1B42415  30.273  32.761   6.367
 3174POPC   C2B42416  30.246  32.678   6.821
 3174POPC   C3B42417  30.387  32.887   7.198
 3174POPC   C4B42418  30.275  32.806   7.634
 3175POPC   NC342419  35.972  25.485   5.268
 3175POPC   PO442420  36.409  24.952   5.491
 3175POPC   GL142421  36.240  25.291   5.716
 3175POPC   GL242422  35.902  25.181   5.767
 3175POPC   C1A42423  36.398  25.479   6.111
 3175POPC   D2A42424  36.529  25.376   6.540
 3175POPC   C3A42425  36.289  25.453   6.922
 3175POPC   C4A42426  36.305  25.594   7.349
 3175POPC   C1B42427  35.908  25.345   6.190
 3175POPC   C2B42428  36.055  25.116   6.544
 3175POPC   C3B42429  36.087  24.965   6.944
 3175POPC   C4B42430  35.953  25.212   7.294
 3176POPC   NC342431  30.723   4.483   5.241
 3176POPC   PO442432  30.505   3.916   5.508
 3176POPC   GL142433  30.587   4.251   5.829
 3176POPC   GL242434  30.261   4.324   5.977
 3176POPC   C1A42435  30.699   4.547   6.228
 3176POPC   D2A42436  30.736   4.822   6.631
 3176POPC   C3A42437  30.807   4.568   7.017
 3176POPC   C4A42438  30.793   4.236   7.333
 3176POPC   C1B42439  30.486   4.058   6.289
 3176POPC   C2B42440  30.714   4.134   6.650
 3176POPC   C3B42441  30.501   4.008   6.996
 3176POPC   C4B42442  30.385   3.915   7.395
 3177POPC   NC342443  23.729  37.139   5.269
 3177POPC   PO442444  23.440  36.638   5.649
 3177POPC   GL142445  23.757  36.830   5.892
 3177POPC   GL242446  23.796  37.175   5.780
 3177POPC   C1A42447  23.820  36.721   6.315
 3177POPC   D2A42448  23.638  36.874   6.695
 3177POPC   C3A42449  23.844  36.840   7.081
 3177POPC   C4A42450  23.505  36.818   7.326
 3177POPC   C1B42451  23.594  37.262   6.189
 3177POPC   C2B42452  23.438  37.358   6.620
 3177POPC   C3B42453  23.524  37.268   7.053
 3177POPC   C4B42454  23.621  37.256   7.519
 3178POPC   NC342455  37.143   0.723   5.458
 3178POPC   PO442456  36.748   0.196   5.338
 3178POPC   GL142457  36.882   0.379   5.731
 3178POPC   GL242458  36.559   0.528   5.826
 3178POPC   C1A42459  36.903   0.478   6.187
 3178POPC   D2A42460  36.653   0.543   6.567
 3178POPC   C3A42461  36.833   0.638   6.999
 3178POPC   C4A42462  36.801   0.693   7.469
 3178POPC   C1B42463  36.571   0.101   6.037
 3178POPC   C2B42464  36.496   0.036   6.478
 3178POPC   C3B42465  36.638   0.134   6.883
 3178POPC   C4B42466  36.726  44.969   7.275
 3179POPC   NC342467  41.007   7.117   5.105
 3179POPC   PO442468  40.604   6.597   5.427
 3179POPC   GL142469  41.011   6.453   5.661
 3179POPC   GL242470  41.038   6.103   5.761
 3179POPC   C1A42471  41.074   6.537   6.090
 3179POPC   D2A42472  40.794   6.513   6.447
 3179POPC   C3A42473  40.848   6.775   6.789
 3179POPC   C4A42474  40.821   6.659   7.200
 3179POPC   C1B42475  40.684   6.155   6.062
 3179POPC   C2B42476  40.455   6.117   6.470
 3179POPC   C3B42477  40.618   6.242   6.888
 3179POPC   C4B42478  40.366   6.422   7.211
 3180POPC   NC342479  31.816  23.963   5.158
 3180POPC   PO442480  31.311  23.759   5.414
 3180POPC   GL142481  31.491  23.851   5.813
 3180POPC   GL242482  31.610  23.582   5.942
 3180POPC   C1A42483  31.359  23.980   6.216
 3180POPC   D2A42484  31.332  23.742   6.596
 3180POPC   C3A42485  31.411  23.956   6.952
 3180POPC   C4A42486  31.215  23.996   7.344
 3180POPC   C1B42487  31.753  23.650   6.331
 3180POPC   C2B42488  31.812  23.637   6.749
 3180POPC   C3B42489  31.888  23.437   7.107
 3180POPC   C4B42490  31.686  23.733   7.321
 3181POPC   NC342491  41.964  15.971   5.520
 3181POPC   PO442492  41.382  15.889   5.229
 3181POPC   GL142493  41.464  16.095   5.647
 3181POPC   GL242494  41.554  15.758   5.778
 3181POPC   C1A42495  41.552  16.141   6.111
 3181POPC   D2A42496  41.714  15.907   6.488
 3181POPC   C3A42497  41.834  16.179   6.851
 3181POPC   C4A42498  41.714  15.976   7.235
 3181POPC   C1B42499  41.321  15.666   6.192
 3181POPC   C2B42500  41.408  15.511   6.630
 3181POPC   C3B42501  41.389  15.551   7.074
 3181POPC   C4B42502  41.203  15.856   7.313
 3182POPC   NC342503  31.760  33.562   5.436
 3182POPC   PO442504  32.422  33.771   5.514
 3182POPC   GL142505  32.146  33.796   5.896
 3182POPC   GL242506  31.914  33.499   5.913
 3182POPC   C1A42507  32.195  33.932   6.344
 3182POPC   D2A42508  32.419  34.024   6.717
 3182POPC   C3A42509  32.117  33.978   7.056
 3182POPC   C4A42510  32.161  34.030   7.477
 3182POPC   C1B42511  32.120  33.431   6.305
 3182POPC   C2B42512  32.044  33.582   6.716
 3182POPC   C3B42513  31.852  33.377   7.063
 3182POPC   C4B42514  32.137  33.458   7.384
 3183POPC   NC342515   0.135  11.901   5.337
 3183POPC   PO442516   0.546  12.413   5.512
 3183POPC   GL142517   0.384  12.160   5.864
 3183POPC   GL242518   0.123  11.861   5.856
 3183POPC   C1A42519   0.366  12.223   6.308
 3183POPC   D2A42520   0.573  12.176   6.699
 3183POPC   C3A42521   0.472  12.407   7.041
 3183POPC   C4A42522   0.641  12.361   7.444
 3183POPC   C1B42523   0.364  11.720   6.244
 3183POPC   C2B42524   0.595  11.631   6.632
 3183POPC   C3B42525   0.539  11.765   7.050
 3183POPC   C4B42526   0.244  11.997   7.261
 3184POPC   NC342527  42.963  41.351   5.207
 3184POPC   PO442528  43.401  41.790   5.318
 3184POPC   GL142529  43.275  41.447   5.648
 3184POPC   GL242530  42.904  41.312   5.735
 3184POPC   C1A42531  43.375  41.467   6.104
 3184POPC   D2A42532  43.541  41.624   6.482
 3184POPC   C3A42533  43.326  41.545   6.843
 3184POPC   C4A42534  43.250  41.854   7.199
 3184POPC   C1B42535  42.889  41.626   6.065
 3184POPC   C2B42536  42.882  41.696   6.531
 3184POPC   C3B42537  42.844  41.607   6.977
 3184POPC   C4B42538  43.101  41.372   7.285
 3185POPC   NC342539  27.688  15.276   5.393
 3185POPC   PO442540  27.324  14.732   5.572
 3185POPC   GL142541  27.396  15.081   5.815
 3185POPC   GL242542  27.714  15.159   5.887
 3185POPC   C1A42543  27.320  15.293   6.207
 3185POPC   D2A42544  27.523  15.168   6.600
 3185POPC   C3A42545  27.328  15.248   6.974
 3185POPC   C4A42546  27.422  15.216   7.434
 3185POPC   C1B42547  27.817  15.393   6.235
 3185POPC   C2B42548  27.980  15.409   6.661
 3185POPC   C3B42549  27.886  15.269   7.110
 3185POPC   C4B42550  28.093  15.405   7.510
 3186POPC   NC342551  33.275  10.261   5.353
 3186POPC   PO442552  32.754  10.743   5.333
 3186POPC   GL142553  32.881  10.548   5.748
 3186POPC   GL242554  33.234  10.450   5.870
 3186POPC   C1A42555  32.829  10.363   6.167
 3186POPC   D2A42556  33.130  10.309   6.509
 3186POPC   C3A42557  32.872  10.404   6.872
 3186POPC   C4A42558  32.685  10.199   7.239
 3186POPC   C1B42559  33.178  10.761   6.264
 3186POPC   C2B42560  33.289  10.743   6.743
 3186POPC   C3B42561  33.181  10.622   7.199
 3186POPC   C4B42562  33.296  10.762   7.648
 3187POPC   NC342563   5.441  39.569   5.591
 3187POPC   PO442564   4.972  39.135   5.496
 3187POPC   GL142565   5.068  39.306   5.848
 3187POPC   GL242566   4.940  39.634   5.826
 3187POPC   C1A42567   5.022  39.019   6.164
 3187POPC   D2A42568   5.180  38.920   6.511
 3187POPC   C3A42569   5.032  39.188   6.827
 3187POPC   C4A42570   4.866  39.169   7.224
 3187POPC   C1B42571   4.998  39.612   6.289
 3187POPC   C2B42572   4.753  39.666   6.678
 3187POPC   C3B42573   4.937  39.649   7.082
 3187POPC   C4B42574   5.336  39.430   7.192
 3188POPC   NC342575   4.009  17.755   5.440
 3188POPC   PO442576   4.543  17.358   5.259
 3188POPC   GL142577   4.281  17.375   5.671
 3188POPC   GL242578   4.286  17.659   5.872
 3188POPC   C1A42579   4.170  17.216   6.091
 3188POPC   D2A42580   4.282  17.387   6.483
 3188POPC   C3A42581   4.148  17.271   6.880
 3188POPC   C4A42582   4.150  17.393   7.304
 3188POPC   C1B42583   4.443  17.833   6.259
 3188POPC   C2B42584   4.631  17.712   6.672
 3188POPC   C3B42585   4.659  17.435   7.062
 3188POPC   C4B42586   4.584  17.570   7.538
 3189POPC   NC342587  29.861  42.937   5.396
 3189POPC   PO442588  30.127  43.527   5.401
 3189POPC   GL142589  29.982  43.272   5.794
 3189POPC   GL242590  30.112  42.911   5.838
 3189POPC   C1A42591  30.031  43.179   6.266
 3189POPC   D2A42592  30.190  42.898   6.588
 3189POPC   C3A42593  30.160  43.152   6.944
 3189POPC   C4A42594  29.803  43.223   7.213
 3189POPC   C1B42595  29.684  42.866   6.041
 3189POPC   C2B42596  29.607  42.805   6.499
 3189POPC   C3B42597  29.759  42.801   6.915
 3189POPC   C4B42598  30.045  42.793   7.277
 3190POPC   NC342599  11.199  11.210   5.483
 3190POPC   PO442600  11.663  11.673   5.679
 3190POPC   GL142601  11.447  11.356   5.915
 3190POPC   GL242602  11.452  11.003   5.855
 3190POPC   C1A42603  11.329  11.405   6.350
 3190POPC   D2A42604  11.586  11.407   6.718
 3190POPC   C3A42605  11.479  11.682   7.042
 3190POPC   C4A42606  11.085  11.580   7.225
 3190POPC   C1B42607  11.107  10.959   6.137
 3190POPC   C2B42608  10.948  11.097   6.521
 3190POPC   C3B42609  11.122  11.211   6.891
 3190POPC   C4B42610  10.976  11.085   7.292
 3191POPC   NC342611  21.530  21.715   5.240
 3191POPC   PO442612  21.018  21.263   5.427
 3191POPC   GL142613  21.356  21.217   5.752
 3191POPC   GL242614  21.427  21.557   5.717
 3191POPC   C1A42615  21.622  21.361   6.149
 3191POPC   D2A42616  21.656  21.210   6.633
 3191POPC   C3A42617  21.373  21.254   7.018
 3191POPC   C4A42618  21.463  21.525   7.372
 3191POPC   C1B42619  21.296  21.773   6.095
 3191POPC   C2B42620  21.499  21.712   6.500
 3191POPC   C3B42621  21.559  21.717   6.917
 3191POPC   C4B42622  21.167  21.886   7.163
 3192POPC   NC342623  41.029  30.500   5.346
 3192POPC   PO442624  40.533  31.001   5.355
 3192POPC   GL142625  40.595  30.709   5.724
 3192POPC   GL242626  40.862  30.464   5.825
 3192POPC   C1A42627  40.642  30.743   6.196
 3192POPC   D2A42628  40.540  30.689   6.638
 3192POPC   C3A42629  40.771  30.836   7.023
 3192POPC   C4A42630  40.811  30.805   7.461
 3192POPC   C1B42631  41.006  30.390   6.266
 3192POPC   C2B42632  41.027  30.512   6.717
 3192POPC   C3B42633  41.085  30.433   7.186
 3192POPC   C4B42634  40.979  30.397   7.689
 3193POPC   NC342635  35.728   6.019   5.490
 3193POPC   PO442636  35.115   6.096   5.499
 3193POPC   GL142637  35.333   5.902   5.826
 3193POPC   GL242638  35.185   5.595   5.884
 3193POPC   C1A42639  35.356   5.932   6.265
 3193POPC   D2A42640  35.133   5.937   6.648
 3193POPC   C3A42641  35.331   6.026   7.042
 3193POPC   C4A42642  35.357   5.854   7.503
 3193POPC   C1B42643  34.970   5.563   6.256
 3193POPC   C2B42644  34.956   5.439   6.680
 3193POPC   C3B42645  34.953   5.647   7.064
 3193POPC   C4B42646  34.963   5.490   7.486
 3194POPC   NC342647  29.966  14.182   5.450
 3194POPC   PO442648  29.325  14.382   5.392
 3194POPC   GL142649  29.600  14.330   5.772
 3194POPC   GL242650  29.824  14.628   5.740
 3194POPC   C1A42651  29.848  14.178   6.150
 3194POPC   D2A42652  29.772  14.036   6.566
 3194POPC   C3A42653  29.830  14.250   6.924
 3194POPC   C4A42654  29.577  14.311   7.254
 3194POPC   C1B42655  30.086  14.645   6.105
 3194POPC   C2B42656  30.046  14.528   6.517
 3194POPC   C3B42657  30.241  14.574   6.913
 3194POPC   C4B42658  30.034  14.562   7.290
 3195POPC   NC342659  41.645   3.172   5.594
 3195POPC   PO442660  41.131   2.649   5.568
 3195POPC   GL142661  41.376   2.776   5.927
 3195POPC   GL242662  41.294   3.107   5.967
 3195POPC   C1A42663  41.680   2.560   6.209
 3195POPC   D2A42664  41.901   2.491   6.607
 3195POPC   C3A42665  41.741   2.616   6.998
 3195POPC   C4A42666  41.593   2.488   7.407
 3195POPC   C1B42667  41.553   3.038   6.360
 3195POPC   C2B42668  41.564   3.081   6.826
 3195POPC   C3B42669  41.486   2.980   7.272
 3195POPC   C4B42670  41.778   2.911   7.605
 3196POPC   NC342671  27.839  39.668   5.043
 3196POPC   PO442672  27.345  39.928   5.504
 3196POPC   GL142673  27.393  39.983   5.905
 3196POPC   GL242674  27.726  40.044   5.930
 3196POPC   C1A42675  27.446  39.827   6.311
 3196POPC   D2A42676  27.846  39.952   6.504
 3196POPC   C3A42677  27.776  40.027   6.898
 3196POPC   C4A42678  27.783  39.766   7.235
 3196POPC   C1B42679  27.608  40.320   6.250
 3196POPC   C2B42680  27.673  40.470   6.630
 3196POPC   C3B42681  27.437  40.399   7.030
 3196POPC   C4B42682  27.693  40.258   7.357
 3197POPC   NC342683  29.919  25.941   5.373
 3197POPC   PO442684  29.382  25.558   5.569
 3197POPC   GL142685  29.617  25.921   5.852
 3197POPC   GL242686  29.902  26.157   5.827
 3197POPC   C1A42687  29.710  26.096   6.311
 3197POPC   D2A42688  29.799  26.253   6.738
 3197POPC   C3A42689  29.854  25.862   6.956
 3197POPC   C4A42690  29.538  25.649   7.183
 3197POPC   C1B42691  30.154  26.285   6.158
 3197POPC   C2B42692  30.275  26.176   6.573
 3197POPC   C3B42693  30.249  26.452   6.942
 3197POPC   C4B42694  30.058  26.226   7.230
 3198POPC   NC342695  12.276   2.941   5.424
 3198POPC   PO442696  11.870   2.508   5.629
 3198POPC   GL142697  12.182   2.635   5.877
 3198POPC   GL242698  12.178   2.988   5.903
 3198POPC   C1A42699  12.137   2.700   6.305
 3198POPC   D2A42700  12.045   2.583   6.693
 3198POPC   C3A42701  12.238   2.762   7.009
 3198POPC   C4A42702  12.140   2.534   7.316
 3198POPC   C1B42703  11.739   2.942   6.075
 3198POPC   C2B42704  11.661   2.865   6.504
 3198POPC   C3B42705  11.794   3.049   6.886
 3198POPC   C4B42706  11.842   3.038   7.315
 3199POPC   NC342707   0.489  19.985   5.515
 3199POPC   PO442708   0.037  19.504   5.535
 3199POPC   GL142709   0.208  19.735   5.903
 3199POPC   GL242710   0.090  20.093   5.851
 3199POPC   C1A42711   0.570  19.843   6.190
 3199POPC   D2A42712   0.793  19.709   6.555
 3199POPC   C3A42713   0.662  19.822   6.977
 3199POPC   C4A42714   0.352  19.661   7.252
 3199POPC   C1B42715   0.125  20.081   6.305
 3199POPC   C2B42716   0.219  19.860   6.686
 3199POPC   C3B42717   0.164  20.088   7.071
 3199POPC   C4B42718   0.095  20.107   7.518
 3200POPC   NC342719  23.762   7.640   5.370
 3200POPC   PO442720  23.443   7.105   5.503
 3200POPC   GL142721  23.626   7.239   5.849
 3200POPC   GL242722  23.936   7.299   5.736
 3200POPC   C1A42723  23.654   7.309   6.288
 3200POPC   D2A42724  23.551   7.565   6.648
 3200POPC   C3A42725  23.529   7.390   7.063
 3200POPC   C4A42726  23.669   7.493   7.486
 3200POPC   C1B42727  24.108   7.499   6.093
 3200POPC   C2B42728  24.093   7.432   6.540
 3200POPC   C3B42729  24.003   7.574   6.957
 3200POPC   C4B42730  24.167   7.494   7.353
 3201POPC   NC342731  44.345   3.855   5.386
 3201POPC   PO442732  44.635   3.285   5.440
 3201POPC   GL142733  44.791   3.393   5.833
 3201POPC   GL242734  44.646   3.711   5.822
 3201POPC   C1A42735  44.952   3.301   6.221
 3201POPC   D2A42736   0.047   3.458   6.623
 3201POPC   C3A42737  44.694   3.578   6.848
 3201POPC   C4A42738  44.596   3.607   7.302
 3201POPC   C1B42739  44.828   3.812   6.252
 3201POPC   C2B42740  44.982   3.989   6.662
 3201POPC   C3B42741  44.943   3.930   7.107
 3201POPC   C4B42742   0.021   3.840   7.559
 3202POPC   NC342743  36.106  17.874   5.000
 3202POPC   PO442744  36.494  17.476   5.411
 3202POPC   GL142745  36.251  17.424   5.774
 3202POPC   GL242746  36.364  17.730   5.879
 3202POPC   C1A42747  36.190  17.383   6.241
 3202POPC   D2A42748  36.161  17.180   6.667
 3202POPC   C3A42749  35.809  17.309   6.889
 3202POPC   C4A42750  35.920  17.614   7.144
 3202POPC   C1B42751  36.428  17.926   6.272
 3202POPC   C2B42752  36.591  17.800   6.668
 3202POPC   C3B42753  36.435  17.546   7.004
 3202POPC   C4B42754  36.326  17.610   7.441
 3203POPC   NC342755   2.186  18.903   5.416
 3203POPC   PO442756   2.046  19.571   5.406
 3203POPC   GL142757   1.822  19.226   5.657
 3203POPC   GL242758   1.636  18.917   5.741
 3203POPC   C1A42759   1.817  19.243   6.114
 3203POPC   D2A42760   2.086  19.186   6.461
 3203POPC   C3A42761   2.051  19.125   6.907
 3203POPC   C4A42762   2.422  19.089   7.167
 3203POPC   C1B42763   1.767  18.749   6.169
 3203POPC   C2B42764   1.920  18.707   6.591
 3203POPC   C3B42765   1.825  18.674   7.002
 3203POPC   C4B42766   1.998  18.858   7.361
 3204POPC   NC342767   9.135  42.225   5.488
 3204POPC   PO442768   8.589  41.927   5.588
 3204POPC   GL142769   8.824  42.249   5.889
 3204POPC   GL242770   8.982  42.617   5.828
 3204POPC   C1A42771   9.083  42.344   6.261
 3204POPC   D2A42772   8.966  42.310   6.690
 3204POPC   C3A42773   9.253  42.453   7.012
 3204POPC   C4A42774   9.376  42.170   7.331
 3204POPC   C1B42775   8.716  42.706   6.238
 3204POPC   C2B42776   8.704  42.747   6.721
 3204POPC   C3B42777   8.724  42.482   7.130
 3204POPC   C4B42778   8.592  42.603   7.582
 3205POPC   NC342779  38.824  23.225   5.679
 3205POPC   PO442780  39.341  22.959   5.264
 3205POPC   GL142781  39.205  22.829   5.689
 3205POPC   GL242782  39.390  22.545   5.765
 3205POPC   C1A42783  39.173  22.863   6.144
 3205POPC   D2A42784  39.121  23.239   6.396
 3205POPC   C3A42785  39.093  23.154   6.837
 3205POPC   C4A42786  39.062  22.981   7.235
 3205POPC   C1B42787  39.482  22.454   6.200
 3205POPC   C2B42788  39.622  22.622   6.595
 3205POPC   C3B42789  39.623  22.503   7.022
 3205POPC   C4B42790  39.396  22.631   7.364
 3206POPC   NC342791  34.946   2.334   5.543
 3206POPC   PO442792  34.375   2.140   5.272
 3206POPC   GL142793  34.622   1.957   5.694
 3206POPC   GL242794  34.477   2.214   5.913
 3206POPC   C1A42795  34.795   1.936   6.178
 3206POPC   D2A42796  34.597   2.241   6.518
 3206POPC   C3A42797  34.567   2.068   6.968
 3206POPC   C4A42798  34.910   1.822   7.179
 3206POPC   C1B42799  34.302   1.888   6.223
 3206POPC   C2B42800  34.224   1.793   6.650
 3206POPC   C3B42801  34.170   1.810   7.091
 3206POPC   C4B42802  34.494   1.786   7.468
 3207POPC   NC342803  21.925   1.804   5.388
 3207POPC   PO442804  22.439   2.126   5.632
 3207POPC   GL142805  22.095   2.109   5.875
 3207POPC   GL242806  22.372   2.174   6.141
 3207POPC   C1A42807  21.920   2.034   6.273
 3207POPC   D2A42808  22.153   2.007   6.655
 3207POPC   C3A42809  21.994   2.050   7.082
 3207POPC   C4A42810  22.195   1.882   7.477
 3207POPC   C1B42811  22.571   1.827   6.264
 3207POPC   C2B42812  22.543   1.659   6.636
 3207POPC   C3B42813  22.493   1.854   7.026
 3207POPC   C4B42814  22.585   1.612   7.340
 3208POPC   NC342815  41.215  32.734   5.514
 3208POPC   PO442816  41.655  33.194   5.250
 3208POPC   GL142817  41.446  33.179   5.684
 3208POPC   GL242818  41.584  32.892   5.841
 3208POPC   C1A42819  41.469  33.244   6.169
 3208POPC   D2A42820  41.415  33.387   6.625
 3208POPC   C3A42821  41.297  33.039   6.837
 3208POPC   C4A42822  41.385  32.799   7.174
 3208POPC   C1B42823  41.799  32.786   6.179
 3208POPC   C2B42824  41.746  33.027   6.523
 3208POPC   C3B42825  41.826  33.101   6.920
 3208POPC   C4B42826  41.911  32.801   7.208
 3209POPC   NC342827  42.967  11.118   5.392
 3209POPC   PO442828  43.342  11.688   5.435
 3209POPC   GL142829  43.246  11.400   5.792
 3209POPC   GL242830  42.874  11.410   5.847
 3209POPC   C1A42831  43.260  11.019   6.079
 3209POPC   D2A42832  43.137  10.859   6.510
 3209POPC   C3A42833  43.057  11.153   6.885
 3209POPC   C4A42834  43.294  11.263   7.272
 3209POPC   C1B42835  42.996  11.388   6.303
 3209POPC   C2B42836  43.076  11.619   6.661
 3209POPC   C3B42837  42.879  11.699   7.015
 3209POPC   C4B42838  42.796  11.484   7.350
 3210POPC   NC342839  31.978  36.991   5.437
 3210POPC   PO442840  31.967  36.335   5.555
 3210POPC   GL142841  32.185  36.665   5.796
 3210POPC   GL242842  32.489  36.851   5.795
 3210POPC   C1A42843  32.076  36.973   6.122
 3210POPC   D2A42844  31.886  36.851   6.509
 3210POPC   C3A42845  32.047  37.039   6.899
 3210POPC   C4A42846  32.220  37.015   7.332
 3210POPC   C1B42847  32.548  36.760   6.243
 3210POPC   C2B42848  32.511  37.008   6.647
 3210POPC   C3B42849  32.484  37.318   7.022
 3210POPC   C4B42850  32.600  37.304   7.494
 3211POPC   NC342851  11.569  30.433   5.520
 3211POPC   PO442852  10.979  30.632   5.493
 3211POPC   GL142853  11.224  30.736   5.867
 3211POPC   GL242854  11.536  30.980   5.810
 3211POPC   C1A42855  11.187  30.513   6.272
 3211POPC   D2A42856  11.011  30.387   6.666
 3211POPC   C3A42857  11.119  30.649   7.025
 3211POPC   C4A42858  11.313  30.966   7.306
 3211POPC   C1B42859  11.635  30.749   6.187
 3211POPC   C2B42860  11.460  30.806   6.607
 3211POPC   C3B42861  11.686  30.907   6.971
 3211POPC   C4B42862  11.821  30.737   7.358
 3212POPC   NC342863  35.070  41.516   5.472
 3212POPC   PO442864  35.866  41.418   5.544
 3212POPC   GL142865  35.486  41.516   5.787
 3212POPC   GL242866  35.482  41.811   5.956
 3212POPC   C1A42867  35.224  41.392   6.170
 3212POPC   D2A42868  35.275  41.306   6.632
 3212POPC   C3A42869  35.335  41.473   7.040
 3212POPC   C4A42870  35.401  41.402   7.509
 3212POPC   C1B42871  35.643  41.638   6.329
 3212POPC   C2B42872  35.848  41.828   6.670
 3212POPC   C3B42873  35.737  41.776   7.075
 3212POPC   C4B42874  35.353  41.899   7.332
 3213POPC   NC342875  12.786  26.339   5.272
 3213POPC   PO442876  12.545  27.008   5.431
 3213POPC   GL142877  12.724  26.887   5.818
 3213POPC   GL242878  13.001  26.642   5.793
 3213POPC   C1A42879  12.624  26.798   6.240
 3213POPC   D2A42880  12.809  26.745   6.640
 3213POPC   C3A42881  12.526  26.806   6.968
 3213POPC   C4A42882  12.545  26.886   7.395
 3213POPC   C1B42883  13.142  26.768   6.221
 3213POPC   C2B42884  13.136  27.129   6.517
 3213POPC   C3B42885  13.027  27.104   6.959
 3213POPC   C4B42886  12.990  26.711   7.157
 3214POPC   NC342887  40.908   6.944   5.556
 3214POPC   PO442888  40.785   7.533   5.122
 3214POPC   GL142889  40.809   7.453   5.589
 3214POPC   GL242890  41.020   7.647   5.776
 3214POPC   C1A42891  40.711   7.272   6.042
 3214POPC   D2A42892  40.529   7.069   6.409
 3214POPC   C3A42893  40.639   7.284   6.785
 3214POPC   C4A42894  40.814   7.168   7.178
 3214POPC   C1B42895  40.966   7.664   6.235
 3214POPC   C2B42896  40.802   7.796   6.623
 3214POPC   C3B42897  40.909   7.667   7.030
 3214POPC   C4B42898  40.960   7.644   7.463
 3215POPC   NC342899  30.625   9.369   5.501
 3215POPC   PO442900  30.974   8.796   5.402
 3215POPC   GL142901  30.908   9.035   5.752
 3215POPC   GL242902  30.574   8.931   5.798
 3215POPC   C1A42903  30.962   9.110   6.155
 3215POPC   D2A42904  30.756   8.902   6.475
 3215POPC   C3A42905  30.623   9.189   6.753
 3215POPC   C4A42906  30.808   9.026   7.117
 3215POPC   C1B42907  30.360   9.058   6.176
 3215POPC   C2B42908  30.202   8.884   6.558
 3215POPC   C3B42909  30.323   8.859   6.980
 3215POPC   C4B42910  30.382   9.252   7.244
 3216POPC   NC342911  28.748  40.099   5.160
 3216POPC   PO442912  28.287  39.659   5.301
 3216POPC   GL142913  28.120  39.805   5.721
 3216POPC   GL242914  28.215  40.206   5.837
 3216POPC   C1A42915  28.201  39.820   6.164
 3216POPC   D2A42916  28.406  39.931   6.516
 3216POPC   C3A42917  28.236  40.226   6.764
 3216POPC   C4A42918  28.208  40.063   7.153
 3216POPC   C1B42919  28.559  40.301   6.189
 3216POPC   C2B42920  28.770  40.273   6.608
 3216POPC   C3B42921  28.710  40.108   7.009
 3216POPC   C4B42922  28.604  40.199   7.448
 3217POPC   NC342923  33.061  16.056   5.204
 3217POPC   PO442924  32.633  15.505   5.241
 3217POPC   GL142925  32.678  15.845   5.607
 3217POPC   GL242926  33.033  15.864   5.701
 3217POPC   C1A42927  32.656  16.064   6.050
 3217POPC   D2A42928  32.528  15.871   6.459
 3217POPC   C3A42929  32.510  15.933   6.929
 3217POPC   C4A42930  32.722  16.191   7.265
 3217POPC   C1B42931  33.153  15.955   6.131
 3217POPC   C2B42932  32.964  16.123   6.512
 3217POPC   C3B42933  33.027  15.949   6.917
 3217POPC   C4B42934  33.249  16.085   7.265
 3218POPC   NC342935  19.287  33.707   5.561
 3218POPC   PO442936  19.951  33.748   5.387
 3218POPC   GL142937  19.777  33.653   5.811
 3218POPC   GL242938  19.652  33.969   5.855
 3218POPC   C1A42939  19.786  33.743   6.303
 3218POPC   D2A42940  19.789  33.860   6.768
 3218POPC   C3A42941  20.008  33.673   7.079
 3218POPC   C4A42942  20.172  33.253   7.130
 3218POPC   C1B42943  19.924  34.219   6.153
 3218POPC   C2B42944  20.021  34.358   6.611
 3218POPC   C3B42945  19.894  34.277   7.066
 3218POPC   C4B42946  19.641  33.965   7.300
 3219POPC   NC342947  41.052  43.990   5.378
 3219POPC   PO442948  40.443  43.831   5.342
 3219POPC   GL142949  40.555  44.006   5.758
 3219POPC   GL242950  40.728  43.698   5.790
 3219POPC   C1A42951  40.793  44.016   6.203
 3219POPC   D2A42952  41.161  43.946   6.520
 3219POPC   C3A42953  41.075  43.919   6.981
 3219POPC   C4A42954  40.698  43.870   7.219
 3219POPC   C1B42955  40.692  43.493   6.193
 3219POPC   C2B42956  40.811  43.592   6.622
 3219POPC   C3B42957  40.744  43.409   7.008
 3219POPC   C4B42958  40.439  43.386   7.351
 3220POPC   NC342959  39.409   7.877   5.157
 3220POPC   PO442960  39.276   8.464   5.471
 3220POPC   GL142961  39.390   8.393   5.864
 3220POPC   GL242962  39.458   8.037   5.874
 3220POPC   C1A42963  39.304   8.338   6.314
 3220POPC   D2A42964  39.119   8.019   6.615
 3220POPC   C3A42965  39.241   8.150   7.048
 3220POPC   C4A42966  39.066   8.557   7.226
 3220POPC   C1B42967  39.525   7.879   6.280
 3220POPC   C2B42968  39.626   8.048   6.679
 3220POPC   C3B42969  39.745   8.046   7.131
 3220POPC   C4B42970  39.486   7.900   7.503
 3221POPC   NC342971  24.126  41.764   5.539
 3221POPC   PO442972  24.626  41.329   5.412
 3221POPC   GL142973  24.640  41.449   5.837
 3221POPC   GL242974  24.554  41.814   5.825
 3221POPC   C1A42975  24.468  41.264   6.246
 3221POPC   D2A42976  24.148  41.344   6.582
 3221POPC   C3A42977  24.394  41.445   6.941
 3221POPC   C4A42978  24.738  41.313   7.229
 3221POPC   C1B42979  24.283  41.726   6.181
 3221POPC   C2B42980  24.198  41.855   6.596
 3221POPC   C3B42981  24.362  41.971   6.983
 3221POPC   C4B42982  24.538  42.175   7.350
 3222POPC   NC342983  10.172  19.949   5.496
 3222POPC   PO442984  10.760  19.745   5.312
 3222POPC   GL142985  10.589  19.767   5.773
 3222POPC   GL242986  10.335  20.001   5.964
 3222POPC   C1A42987  10.627  19.677   6.219
 3222POPC   D2A42988  10.309  19.748   6.493
 3222POPC   C3A42989  10.327  19.729   6.893
 3222POPC   C4A42990  10.405  19.510   7.244
 3222POPC   C1B42991  10.508  20.197   6.342
 3222POPC   C2B42992  10.450  20.259   6.751
 3222POPC   C3B42993  10.248  20.206   7.087
 3222POPC   C4B42994  10.571  20.013   7.241
 3223POPC   NC342995  44.790  31.956   5.464
 3223POPC   PO442996  44.912  32.616   5.643
 3223POPC   GL142997  44.648  32.308   5.895
 3223POPC   GL242998  44.526  31.943   5.901
 3223POPC   C1A42999  44.594  32.187   6.339
 3223POPC   D2A43000  44.700  31.863   6.658
 3223POPC   C3A43001  44.603  32.123   7.025
 3223POPC   C4A43002  44.536  32.492   7.280
 3223POPC   C1B43003  44.922  31.852   6.166
 3223POPC   C2B43004   0.225  31.892   6.554
 3223POPC   C3B43005   0.083  31.896   7.022
 3223POPC   C4B43006  44.742  31.746   7.316
 3224POPC   NC343007   8.070   0.117   5.430
 3224POPC   PO443008   8.396   0.749   5.477
 3224POPC   GL143009   8.114   0.556   5.754
 3224POPC   GL243010   8.339   0.303   5.829
 3224POPC   C1A43011   7.988   0.453   6.190
 3224POPC   D2A43012   8.152   0.412   6.612
 3224POPC   C3A43013   7.923   0.372   6.970
 3224POPC   C4A43014   7.959   0.606   7.312
 3224POPC   C1B43015   8.376   0.117   6.236
 3224POPC   C2B43016   8.597   0.175   6.653
 3224POPC   C3B43017   8.326   0.069   6.986
 3224POPC   C4B43018   8.245   0.191   7.386
 3225POPC   NC343019   3.129  19.321   5.363
 3225POPC   PO443020   2.645  18.836   5.427
 3225POPC   GL143021   2.753  19.090   5.772
 3225POPC   GL243022   3.060  18.906   5.804
 3225POPC   C1A43023   2.565  19.199   6.204
 3225POPC   D2A43024   2.543  19.021   6.632
 3225POPC   C3A43025   2.868  19.155   6.899
 3225POPC   C4A43026   2.890  19.398   7.250
 3225POPC   C1B43027   2.823  18.737   6.156
 3225POPC   C2B43028   2.947  18.671   6.563
 3225POPC   C3B43029   2.837  18.637   6.969
 3225POPC   C4B43030   3.119  18.571   7.282
 3226POPC   NC343031  34.639  36.613   5.451
 3226POPC   PO443032  34.069  36.939   5.497
 3226POPC   GL143033  34.366  36.779   5.851
 3226POPC   GL243034  34.688  36.975   5.816
 3226POPC   C1A43035  34.593  36.780   6.291
 3226POPC   D2A43036  34.422  36.797   6.730
 3226POPC   C3A43037  34.692  36.872   7.109
 3226POPC   C4A43038  34.624  36.781   7.562
 3226POPC   C1B43039  34.403  37.222   6.100
 3226POPC   C2B43040  34.525  37.293   6.522
 3226POPC   C3B43041  34.372  37.264   6.933
 3226POPC   C4B43042  34.272  37.082   7.349
 3227POPC   NC343043  43.096  25.778   5.356
 3227POPC   PO443044  43.291  26.451   5.181
 3227POPC   GL143045  43.105  26.326   5.653
 3227POPC   GL243046  42.957  25.977   5.796
 3227POPC   C1A43047  43.159  26.293   6.134
 3227POPC   D2A43048  43.288  26.430   6.554
 3227POPC   C3A43049  43.023  26.250   6.879
 3227POPC   C4A43050  43.004  26.025   7.269
 3227POPC   C1B43051  42.725  25.999   6.156
 3227POPC   C2B43052  42.550  25.996   6.559
 3227POPC   C3B43053  42.701  25.804   6.938
 3227POPC   C4B43054  42.670  25.568   7.332
 3228POPC   NC343055  23.641  40.582   4.977
 3228POPC   PO443056  24.057  40.699   5.449
 3228POPC   GL143057  23.879  40.518   5.819
 3228POPC   GL243058  23.528  40.530   5.731
 3228POPC   C1A43059  23.863  40.711   6.233
 3228POPC   D2A43060  23.547  40.890   6.511
 3228POPC   C3A43061  23.730  41.019   6.916
 3228POPC   C4A43062  23.496  40.995   7.274
 3228POPC   C1B43063  23.426  40.457   6.135
 3228POPC   C2B43064  23.603  40.355   6.491
 3228POPC   C3B43065  23.560  40.539   6.874
 3228POPC   C4B43066  23.218  40.573   7.122
 3229POPC   NC343067   3.340  17.028   5.594
 3229POPC   PO443068   2.713  16.734   5.511
 3229POPC   GL143069   2.792  16.960   5.862
 3229POPC   GL243070   3.020  16.710   5.941
 3229POPC   C1A43071   2.672  16.814   6.299
 3229POPC   D2A43072   2.734  16.618   6.712
 3229POPC   C3A43073   2.565  16.758   7.115
 3229POPC   C4A43074   2.753  16.971   7.476
 3229POPC   C1B43075   3.198  16.944   6.274
 3229POPC   C2B43076   3.342  16.973   6.683
 3229POPC   C3B43077   3.089  16.893   7.080
 3229POPC   C4B43078   3.078  16.592   7.452
 3230POPC   NC343079   9.841  27.050   5.442
 3230POPC   PO443080  10.052  27.746   5.343
 3230POPC   GL143081   9.741  27.592   5.676
 3230POPC   GL243082   9.894  27.349   5.855
 3230POPC   C1A43083   9.568  27.683   6.097
 3230POPC   D2A43084   9.392  27.575   6.502
 3230POPC   C3A43085   9.573  27.666   6.923
 3230POPC   C4A43086   9.777  27.781   7.327
 3230POPC   C1B43087   9.818  27.285   6.294
 3230POPC   C2B43088  10.037  27.285   6.651
 3230POPC   C3B43089   9.972  27.379   7.048
 3230POPC   C4B43090   9.919  27.310   7.460
 3231POPC   NC343091  37.887  10.801   5.546
 3231POPC   PO443092  37.380  10.406   5.231
 3231POPC   GL143093  37.602  10.345   5.701
 3231POPC   GL243094  37.941  10.248   5.860
 3231POPC   C1A43095  37.565  10.434   6.175
 3231POPC   D2A43096  37.806  10.319   6.521
 3231POPC   C3A43097  37.720  10.471   6.941
 3231POPC   C4A43098  37.886  10.276   7.314
 3231POPC   C1B43099  38.030  10.632   6.146
 3231POPC   C2B43100  37.808  10.853   6.463
 3231POPC   C3B43101  37.858  10.984   6.878
 3231POPC   C4B43102  37.979  10.790   7.276
 3232POPC   NC343103   9.202  44.571   5.435
 3232POPC   PO443104   8.517  44.912   5.364
 3232POPC   GL143105   8.782  44.745   5.681
 3232POPC   GL243106   8.781   0.039   5.830
 3232POPC   C1A43107   9.038  44.627   6.080
 3232POPC   D2A43108   8.913  44.386   6.460
 3232POPC   C3A43109   9.095  44.481   6.874
 3232POPC   C4A43110   8.909  44.366   7.278
 3232POPC   C1B43111   8.892   0.113   6.228
 3232POPC   C2B43112   9.100  44.904   6.554
 3232POPC   C3B43113   9.052   0.004   6.977
 3232POPC   C4B43114   8.749   0.080   7.272
 3233POPC   NC343115  13.782   2.618   5.445
 3233POPC   PO443116  13.347   3.185   5.374
 3233POPC   GL143117  13.500   2.945   5.775
 3233POPC   GL243118  13.419   2.541   5.776
 3233POPC   C1A43119  13.514   2.766   6.226
 3233POPC   D2A43120  13.827   2.645   6.534
 3233POPC   C3A43121  13.729   2.818   6.922
 3233POPC   C4A43122  13.532   2.929   7.300
 3233POPC   C1B43123  13.144   2.398   6.103
 3233POPC   C2B43124  13.051   2.525   6.511
 3233POPC   C3B43125  13.266   2.573   6.903
 3233POPC   C4B43126  13.103   2.652   7.305
 3234POPC   NC343127   0.106  42.109   5.085
 3234POPC   PO443128  44.701  42.529   5.503
 3234POPC   GL143129  44.779  42.602   5.926
 3234POPC   GL243130  44.430  42.461   5.960
 3234POPC   C1A43131  44.934  42.601   6.376
 3234POPC   D2A43132  44.853  42.812   6.781
 3234POPC   C3A43133  44.820  42.564   7.168
 3234POPC   C4A43134  44.842  42.579   7.619
 3234POPC   C1B43135  44.661  42.186   6.234
 3234POPC   C2B43136  44.694  42.190   6.670
 3234POPC   C3B43137  44.408  42.278   6.992
 3234POPC   C4B43138  44.364  42.417   7.404
 3235POPC   NC343139  26.212  24.825   5.129
 3235POPC   PO443140  25.964  24.227   5.163
 3235POPC   GL143141  26.153  24.323   5.624
 3235POPC   GL243142  26.250  24.665   5.636
 3235POPC   C1A43143  25.990  24.531   6.046
 3235POPC   D2A43144  25.896  24.380   6.469
 3235POPC   C3A43145  26.041  24.466   6.892
 3235POPC   C4A43146  25.710  24.254   7.180
 3235POPC   C1B43147  26.456  24.733   6.064
 3235POPC   C2B43148  26.222  24.790   6.476
 3235POPC   C3B43149  26.165  25.009   6.891
 3235POPC   C4B43150  26.285  24.848   7.292
 3236POPC   NC343151  33.312  18.844   5.309
 3236POPC   PO443152  32.646  19.015   5.420
 3236POPC   GL143153  32.835  18.976   5.850
 3236POPC   GL243154  33.214  18.937   5.853
 3236POPC   C1A43155  32.686  19.144   6.273
 3236POPC   D2A43156  32.469  19.029   6.687
 3236POPC   C3A43157  32.637  19.174   7.116
 3236POPC   C4A43158  32.701  18.887   7.482
 3236POPC   C1B43159  33.192  19.201   6.265
 3236POPC   C2B43160  33.008  19.220   6.716
 3236POPC   C3B43161  33.096  18.970   7.114
 3236POPC   C4B43162  33.165  19.058   7.569
 3237POPC   NC343163  30.217   9.437   5.103
 3237POPC   PO443164  29.641   9.743   5.210
 3237POPC   GL143165  29.700   9.859   5.698
 3237POPC   GL243166  30.084   9.852   5.806
 3237POPC   C1A43167  29.614   9.785   6.149
 3237POPC   D2A43168  29.562   9.924   6.589
 3237POPC   C3A43169  29.740   9.712   6.948
 3237POPC   C4A43170  30.184   9.722   7.087
 3237POPC   C1B43171  30.088   9.953   6.261
 3237POPC   C2B43172  30.072  10.019   6.690
 3237POPC   C3B43173  29.904  10.201   7.062
 3237POPC   C4B43174  30.055  10.236   7.468
 3238POPC   NC343175  28.772  32.965   5.182
 3238POPC   PO443176  28.146  32.889   5.413
 3238POPC   GL143177  28.212  32.897   5.874
 3238POPC   GL243178  28.271  33.204   5.985
 3238POPC   C1A43179  28.417  32.769   6.261
 3238POPC   D2A43180  28.585  32.862   6.661
 3238POPC   C3A43181  28.324  33.087   6.925
 3238POPC   C4A43182  28.433  33.192   7.324
 3238POPC   C1B43183  28.638  33.236   6.250
 3238POPC   C2B43184  28.601  33.400   6.632
 3238POPC   C3B43185  28.813  33.270   6.970
 3238POPC   C4B43186  28.799  33.540   7.266
 3239POPC   NC343187  27.697   9.270   5.289
 3239POPC   PO443188  27.588   8.541   5.377
 3239POPC   GL143189  27.750   8.816   5.690
 3239POPC   GL243190  27.700   9.174   5.786
 3239POPC   C1A43191  27.780   8.789   6.144
 3239POPC   D2A43192  27.496   8.842   6.488
 3239POPC   C3A43193  27.662   8.788   6.896
 3239POPC   C4A43194  27.719   8.937   7.305
 3239POPC   C1B43195  27.574   9.283   6.214
 3239POPC   C2B43196  27.714   9.289   6.648
 3239POPC   C3B43197  27.520   9.327   7.016
 3239POPC   C4B43198  27.512   9.374   7.439
 3240POPC   NC343199  12.340  35.693   5.231
 3240POPC   PO443200  11.879  35.294   5.388
 3240POPC   GL143201  12.084  35.446   5.749
 3240POPC   GL243202  12.276  35.761   5.734
 3240POPC   C1A43203  11.876  35.321   6.138
 3240POPC   D2A43204  11.680  35.252   6.549
 3240POPC   C3A43205  11.941  35.006   6.852
 3240POPC   C4A43206  12.077  35.209   7.217
 3240POPC   C1B43207  12.158  35.822   6.154
 3240POPC   C2B43208  12.347  35.770   6.568
 3240POPC   C3B43209  12.106  35.668   6.938
 3240POPC   C4B43210  12.249  35.671   7.355
 3241POPC   NC343211  27.380  40.383   5.571
 3241POPC   PO443212  27.758  40.899   5.409
 3241POPC   GL143213  27.538  40.834   5.797
 3241POPC   GL243214  27.754  40.570   5.863
 3241POPC   C1A43215  27.278  40.705   6.194
 3241POPC   D2A43216  27.252  40.740   6.671
 3241POPC   C3A43217  27.444  40.914   7.061
 3241POPC   C4A43218  27.361  40.805   7.509
 3241POPC   C1B43219  27.762  40.853   6.251
 3241POPC   C2B43220  27.727  41.022   6.650
 3241POPC   C3B43221  27.866  41.191   7.049
 3241POPC   C4B43222  27.829  41.000   7.402
 3242POPC   NC343223  35.962   8.728   5.305
 3242POPC   PO443224  36.291   9.292   5.434
 3242POPC   GL143225  36.271   8.903   5.699
 3242POPC   GL243226  35.986   8.863   5.834
 3242POPC   C1A43227  36.398   8.804   6.159
 3242POPC   D2A43228  36.173   8.769   6.571
 3242POPC   C3A43229  36.340   8.668   6.948
 3242POPC   C4A43230  36.314   9.012   7.230
 3242POPC   C1B43231  35.929   8.590   6.177
 3242POPC   C2B43232  35.705   8.587   6.586
 3242POPC   C3B43233  35.798   8.848   6.955
 3242POPC   C4B43234  35.972   8.669   7.324
 3243POPC   NC343235  34.710  17.711   5.310
 3243POPC   PO443236  34.223  17.334   5.542
 3243POPC   GL143237  34.566  17.438   5.792
 3243POPC   GL243238  34.916  17.409   5.682
 3243POPC   C1A43239  34.471  17.430   6.227
 3243POPC   D2A43240  34.513  17.682   6.583
 3243POPC   C3A43241  34.453  17.447   6.935
 3243POPC   C4A43242  34.451  17.678   7.282
 3243POPC   C1B43243  34.938  17.274   6.110
 3243POPC   C2B43244  34.869  17.305   6.551
 3243POPC   C3B43245  34.898  17.185   6.991
 3243POPC   C4B43246  34.950  17.526   7.289
 3244POPC   NC343247  38.475   7.522   5.203
 3244POPC   PO443248  38.037   7.170   5.615
 3244POPC   GL143249  38.431   7.175   5.770
 3244POPC   GL243250  38.498   7.544   5.740
 3244POPC   C1A43251  38.532   7.200   6.217
 3244POPC   D2A43252  38.286   7.370   6.590
 3244POPC   C3A43253  38.479   7.319   6.993
 3244POPC   C4A43254  38.739   7.245   7.352
 3244POPC   C1B43255  38.539   7.724   6.163
 3244POPC   C2B43256  38.600   7.940   6.546
 3244POPC   C3B43257  38.456   7.864   6.940
 3244POPC   C4B43258  38.613   7.760   7.310
 3245POPC   NC343259  13.870  18.634   5.425
 3245POPC   PO443260  13.487  18.074   5.485
 3245POPC   GL143261  13.626  18.297   5.846
 3245POPC   GL243262  13.496  18.645   5.799
 3245POPC   C1A43263  13.893  18.249   6.225
 3245POPC   D2A43264  13.940  18.140   6.681
 3245POPC   C3A43265  13.806  18.442   7.020
 3245POPC   C4A43266  13.697  18.323   7.452
 3245POPC   C1B43267  13.526  18.660   6.233
 3245POPC   C2B43268  13.500  18.394   6.576
 3245POPC   C3B43269  13.302  18.436   6.949
 3245POPC   C4B43270  13.304  18.631   7.324
 3246POPC   NC343271  28.110  13.580   5.308
 3246POPC   PO443272  27.474  13.704   5.191
 3246POPC   GL143273  27.642  13.540   5.588
 3246POPC   GL243274  27.443  13.790   5.755
 3246POPC   C1A43275  27.628  13.407   6.052
 3246POPC   D2A43276  27.518  13.212   6.470
 3246POPC   C3A43277  27.544  13.440   6.897
 3246POPC   C4A43278  27.889  13.602   7.171
 3246POPC   C1B43279  27.356  13.824   6.218
 3246POPC   C2B43280  27.513  13.880   6.647
 3246POPC   C3B43281  27.426  13.918   7.087
 3246POPC   C4B43282  27.616  13.911   7.483
 3247POPC   NC343283  27.100  25.450   5.412
 3247POPC   PO443284  26.539  25.016   5.426
 3247POPC   GL143285  26.699  25.373   5.730
 3247POPC   GL243286  27.057  25.426   5.913
 3247POPC   C1A43287  26.602  25.383   6.167
 3247POPC   D2A43288  26.550  25.175   6.557
 3247POPC   C3A43289  26.726  25.357   6.924
 3247POPC   C4A43290  26.609  25.224   7.276
 3247POPC   C1B43291  27.004  25.086   6.212
 3247POPC   C2B43292  27.054  25.086   6.649
 3247POPC   C3B43293  27.001  24.935   7.080
 3247POPC   C4B43294  27.251  24.852   7.453
 3248POPC   NC343295  30.247   5.987   5.414
 3248POPC   PO443296  29.824   5.631   5.037
 3248POPC   GL143297  29.754   5.882   5.547
 3248POPC   GL243298  29.693   5.646   5.815
 3248POPC   C1A43299  29.957   6.026   6.016
 3248POPC   D2A43300  30.089   5.938   6.475
 3248POPC   C3A43301  29.888   6.079   6.869
 3248POPC   C4A43302  29.996   6.219   7.278
 3248POPC   C1B43303  29.743   5.604   6.265
 3248POPC   C2B43304  29.670   5.487   6.704
 3248POPC   C3B43305  29.512   5.572   7.123
 3248POPC   C4B43306  29.466   5.623   7.564
 3249POPC   NC343307  26.797  37.259   5.631
 3249POPC   PO443308  26.946  36.663   5.373
 3249POPC   GL143309  27.022  36.769   5.797
 3249POPC   GL243310  26.738  36.910   6.023
 3249POPC   C1A43311  27.092  36.599   6.219
 3249POPC   D2A43312  27.049  36.930   6.502
 3249POPC   C3A43313  26.815  36.982   6.830
 3249POPC   C4A43314  26.931  36.792   7.190
 3249POPC   C1B43315  26.719  37.301   6.292
 3249POPC   C2B43316  26.580  37.430   6.698
 3249POPC   C3B43317  26.461  37.248   7.068
 3249POPC   C4B43318  26.807  37.278   7.314
 3250POPC   NC343319  31.481  19.920   5.332
 3250POPC   PO443320  31.609  19.253   5.290
 3250POPC   GL143321  31.590  19.560   5.690
 3250POPC   GL243322  31.732  19.907   5.758
 3250POPC   C1A43323  31.435  19.653   6.127
 3250POPC   D2A43324  31.603  19.592   6.571
 3250POPC   C3A43325  31.386  19.676   6.969
 3250POPC   C4A43326  31.156  19.978   7.227
 3250POPC   C1B43327  31.701  20.137   6.147
 3250POPC   C2B43328  31.736  20.135   6.595
 3250POPC   C3B43329  31.641  20.144   7.034
 3250POPC   C4B43330  31.628  19.906   7.380
 3251POPC   NC343331   6.702  12.563   5.443
 3251POPC   PO443332   6.945  13.266   5.383
 3251POPC   GL143333   6.966  13.048   5.818
 3251POPC   GL243334   6.631  12.934   5.807
 3251POPC   C1A43335   6.833  12.793   6.256
 3251POPC   D2A43336   6.716  12.574   6.704
 3251POPC   C3A43337   6.774  12.789   7.143
 3251POPC   C4A43338   6.831  12.775   7.635
 3251POPC   C1B43339   6.508  13.168   6.199
 3251POPC   C2B43340   6.386  12.986   6.612
 3251POPC   C3B43341   6.288  12.897   7.047
 3251POPC   C4B43342   6.481  13.109   7.441
 3252POPC   NC343343  14.815  30.888   5.529
 3252POPC   PO443344  15.341  30.370   5.553
 3252POPC   GL143345  15.236  30.711   5.801
 3252POPC   GL243346  15.502  30.932   5.767
 3252POPC   C1A43347  14.995  30.851   6.151
 3252POPC   D2A43348  15.002  30.744   6.561
 3252POPC   C3A43349  15.081  31.013   6.878
 3252POPC   C4A43350  15.081  30.877   7.294
 3252POPC   C1B43351  15.487  30.869   6.234
 3252POPC   C2B43352  15.492  30.720   6.675
 3252POPC   C3B43353  15.546  30.850   7.101
 3252POPC   C4B43354  15.507  30.976   7.560
 3253POPC   NC343355  19.460   4.035   5.349
 3253POPC   PO443356  20.129   4.264   5.363
 3253POPC   GL143357  19.769   4.402   5.684
 3253POPC   GL243358  19.935   4.201   5.930
 3253POPC   C1A43359  19.665   4.561   6.151
 3253POPC   D2A43360  19.900   4.367   6.530
 3253POPC   C3A43361  19.937   4.556   6.943
 3253POPC   C4A43362  19.625   4.560   7.268
 3253POPC   C1B43363  19.620   4.050   6.222
 3253POPC   C2B43364  19.677   3.898   6.648
 3253POPC   C3B43365  19.663   4.121   7.021
 3253POPC   C4B43366  19.751   4.111   7.465
 3254POPC   NC343367  40.340  11.187   5.632
 3254POPC   PO443368  39.771  11.135   5.340
 3254POPC   GL143369  39.864  11.213   5.797
 3254POPC   GL243370  39.848  11.577   5.860
 3254POPC   C1A43371  39.921  11.092   6.233
 3254POPC   D2A43372  40.150  11.244   6.603
 3254POPC   C3A43373  39.930  11.353   6.985
 3254POPC   C4A43374  39.825  11.036   7.280
 3254POPC   C1B43375  40.215  11.524   6.164
 3254POPC   C2B43376  40.483  11.724   6.485
 3254POPC   C3B43377  40.366  11.604   6.929
 3254POPC   C4B43378  40.265  11.571   7.417
 3255POPC   NC343379  21.741   9.369   5.370
 3255POPC   PO443380  21.364   8.879   5.406
 3255POPC   GL143381  21.283   9.146   5.769
 3255POPC   GL243382  21.052   8.933   6.010
 3255POPC   C1A43383  21.375   9.267   6.212
 3255POPC   D2A43384  21.192   8.978   6.545
 3255POPC   C3A43385  21.099   8.935   6.986
 3255POPC   C4A43386  21.361   9.141   7.256
 3255POPC   C1B43387  21.414   8.707   6.171
 3255POPC   C2B43388  21.486   8.511   6.589
 3255POPC   C3B43389  21.556   8.718   7.007
 3255POPC   C4B43390  21.422   8.667   7.456
 3256POPC   NC343391  44.200  29.973   4.988
 3256POPC   PO443392  43.719  30.107   5.396
 3256POPC   GL143393  43.959  29.889   5.712
 3256POPC   GL243394  43.728  29.674   5.876
 3256POPC   C1A43395  44.103  30.024   6.130
 3256POPC   D2A43396  44.153  29.864   6.558
 3256POPC   C3A43397  44.096  30.155   6.891
 3256POPC   C4A43398  44.209  30.337   7.265
 3256POPC   C1B43399  43.651  29.740   6.324
 3256POPC   C2B43400  43.706  29.757   6.788
 3256POPC   C3B43401  43.660  29.610   7.210
 3256POPC   C4B43402  43.697  29.785   7.604
 3257POPC   NC343403   7.720  35.187   5.438
 3257POPC   PO443404   7.269  35.594   5.387
 3257POPC   GL143405   7.348  35.356   5.781
 3257POPC   GL243406   7.641  35.539   5.832
 3257POPC   C1A43407   7.352  35.258   6.254
 3257POPC   D2A43408   7.056  35.248   6.589
 3257POPC   C3A43409   7.031  35.111   6.990
 3257POPC   C4A43410   7.000  35.454   7.241
 3257POPC   C1B43411   7.645  35.679   6.250
 3257POPC   C2B43412   7.660  35.474   6.652
 3257POPC   C3B43413   7.477  35.398   7.049
 3257POPC   C4B43414   7.650  35.266   7.430
 3258POPC   NC343415  26.948  23.742   5.443
 3258POPC   PO443416  26.311  23.343   5.474
 3258POPC   GL143417  26.564  23.628   5.829
 3258POPC   GL243418  26.931  23.647   5.943
 3258POPC   C1A43419  26.625  23.828   6.295
 3258POPC   D2A43420  26.870  24.035   6.665
 3258POPC   C3A43421  26.719  23.908   7.051
 3258POPC   C4A43422  26.413  23.556   7.134
 3258POPC   C1B43423  27.080  23.647   6.394
 3258POPC   C2B43424  27.384  23.934   6.627
 3258POPC   C3B43425  27.313  24.001   7.042
 3258POPC   C4B43426  27.142  23.634   7.164
 3259POPC   NC343427  34.691   0.808   5.530
 3259POPC   PO443428  34.388   0.199   5.609
 3259POPC   GL143429  34.507   0.496   5.891
 3259POPC   GL243430  34.243   0.723   5.786
 3259POPC   C1A43431  34.831   0.582   6.173
 3259POPC   D2A43432  34.925   0.435   6.582
 3259POPC   C3A43433  34.689   0.603   6.910
 3259POPC   C4A43434  34.844   0.488   7.314
 3259POPC   C1B43435  34.403   0.956   6.150
 3259POPC   C2B43436  34.326   0.869   6.583
 3259POPC   C3B43437  34.288   0.988   7.008
 3259POPC   C4B43438  34.367   0.686   7.332
 3260POPC   NC343439  29.155  27.267   5.173
 3260POPC   PO443440  29.465  27.664   5.641
 3260POPC   GL143441  29.312  27.852   5.925
 3260POPC   GL243442  29.571  28.107   5.910
 3260POPC   C1A43443  29.063  27.768   6.287
 3260POPC   D2A43444  28.914  27.545   6.672
 3260POPC   C3A43445  29.187  27.631   7.025
 3260POPC   C4A43446  29.603  27.546   7.148
 3260POPC   C1B43447  29.535  28.016   6.332
 3260POPC   C2B43448  29.283  28.052   6.675
 3260POPC   C3B43449  29.521  28.042   7.035
 3260POPC   C4B43450  29.433  27.931   7.449
 3261POPC   NC343451  31.677   4.130   5.113
 3261POPC   PO443452  31.168   4.543   5.106
 3261POPC   GL143453  31.327   4.321   5.548
 3261POPC   GL243454  31.639   4.078   5.614
 3261POPC   C1A43455  31.238   4.231   6.050
 3261POPC   D2A43456  31.221   4.070   6.540
 3261POPC   C3A43457  31.214   4.248   7.017
 3261POPC   C4A43458  31.252   4.349   7.520
 3261POPC   C1B43459  31.762   4.240   6.007
 3261POPC   C2B43460  31.614   4.357   6.399
 3261POPC   C3B43461  31.691   4.206   6.820
 3261POPC   C4B43462  31.678   4.354   7.239
 3262POPC   NC343463  21.963   0.914   5.702
 3262POPC   PO443464  22.331   1.429   5.399
 3262POPC   GL143465  22.341   1.292   5.815
 3262POPC   GL243466  22.319   1.648   5.876
 3262POPC   C1A43467  22.238   1.066   6.221
 3262POPC   D2A43468  21.925   0.963   6.500
 3262POPC   C3A43469  22.083   0.958   6.905
 3262POPC   C4A43470  21.933   1.110   7.286
 3262POPC   C1B43471  22.001   1.532   6.164
 3262POPC   C2B43472  22.071   1.442   6.580
 3262POPC   C3B43473  22.186   1.456   6.984
 3262POPC   C4B43474  21.843   1.591   7.167
 3263POPC   NC343475   2.752  17.940   5.542
 3263POPC   PO443476   3.011  17.330   5.532
 3263POPC   GL143477   2.680  17.483   5.789
 3263POPC   GL243478   2.942  17.699   5.971
 3263POPC   C1A43479   2.478  17.651   6.194
 3263POPC   D2A43480   2.716  17.611   6.613
 3263POPC   C3A43481   2.807  17.763   7.010
 3263POPC   C4A43482   2.472  17.625   7.292
 3263POPC   C1B43483   2.849  17.305   6.228
 3263POPC   C2B43484   2.847  17.121   6.653
 3263POPC   C3B43485   2.705  17.248   7.027
 3263POPC   C4B43486   2.934  17.415   7.353
 3264POPC   NC343487   0.629  35.578   5.278
 3264POPC   PO443488   0.464  34.942   5.358
 3264POPC   GL143489   0.426  35.276   5.724
 3264POPC   GL243490   0.669  35.520   5.776
 3264POPC   C1A43491   0.356  35.446   6.188
 3264POPC   D2A43492   0.400  35.308   6.636
 3264POPC   C3A43493   0.410  35.489   7.048
 3264POPC   C4A43494   0.166  35.515   7.454
 3264POPC   C1B43495   0.861  35.389   6.143
 3264POPC   C2B43496   0.909  35.192   6.541
 3264POPC   C3B43497   0.832  35.157   6.954
 3264POPC   C4B43498   0.924  35.485   7.171
 3265POPC   NC343499  16.945  27.444   5.223
 3265POPC   PO443500  16.604  27.947   5.345
 3265POPC   GL143501  16.476  27.634   5.677
 3265POPC   GL243502  16.747  27.442   5.857
 3265POPC   C1A43503  16.356  27.620   6.136
 3265POPC   D2A43504  16.333  27.811   6.552
 3265POPC   C3A43505  16.546  27.583   6.870
 3265POPC   C4A43506  16.533  27.619   7.291
 3265POPC   C1B43507  16.819  27.521   6.355
 3265POPC   C2B43508  17.036  27.425   6.781
 3265POPC   C3B43509  17.044  27.513   7.242
 3265POPC   C4B43510  17.251  27.395   7.631
 3266POPC   NC343511  38.909  21.699   5.363
 3266POPC   PO443512  39.148  21.028   5.382
 3266POPC   GL143513  39.024  21.247   5.750
 3266POPC   GL243514  39.181  21.519   5.793
 3266POPC   C1A43515  38.835  21.414   6.156
 3266POPC   D2A43516  38.914  21.465   6.598
 3266POPC   C3A43517  39.053  21.128   6.858
 3266POPC   C4A43518  39.257  21.294   7.219
 3266POPC   C1B43519  39.344  21.539   6.226
 3266POPC   C2B43520  39.382  21.703   6.649
 3266POPC   C3B43521  39.140  21.729   7.004
 3266POPC   C4B43522  39.240  21.768   7.429
 3267POPC   NC343523   4.871  36.924   5.323
 3267POPC   PO443524   5.528  36.879   5.439
 3267POPC   GL143525   5.155  36.970   5.749
 3267POPC   GL243526   4.829  36.737   5.787
 3267POPC   C1A43527   5.198  36.981   6.197
 3267POPC   D2A43528   5.328  37.135   6.598
 3267POPC   C3A43529   5.307  36.885   6.951
 3267POPC   C4A43530   5.385  36.930   7.377
 3267POPC   C1B43531   4.914  36.571   6.182
 3267POPC   C2B43532   4.896  36.764   6.565
 3267POPC   C3B43533   4.879  36.600   6.941
 3267POPC   C4B43534   4.887  36.836   7.254
 3268POPC   NC343535  22.901  36.760   5.615
 3268POPC   PO443536  23.300  37.395   5.470
 3268POPC   GL143537  23.253  37.079   5.858
 3268POPC   GL243538  23.164  36.725   6.051
 3268POPC   C1A43539  23.096  37.152   6.291
 3268POPC   D2A43540  23.033  36.961   6.668
 3268POPC   C3A43541  22.892  37.245   6.949
 3268POPC   C4A43542  23.104  37.129   7.297
 3268POPC   C1B43543  22.789  36.648   6.306
 3268POPC   C2B43544  22.771  36.501   6.743
 3268POPC   C3B43545  22.779  36.771   7.132
 3268POPC   C4B43546  22.782  36.782   7.614
 3269POPC   NC343547  14.137  14.539   5.176
 3269POPC   PO443548  14.354  13.935   5.378
 3269POPC   GL143549  14.288  14.290   5.680
 3269POPC   GL243550  14.586  14.471   5.829
 3269POPC   C1A43551  14.279  14.241   6.147
 3269POPC   D2A43552  14.515  14.418   6.479
 3269POPC   C3A43553  14.377  14.633   6.845
 3269POPC   C4A43554  14.100  14.387   7.100
 3269POPC   C1B43555  14.870  14.583   6.150
 3269POPC   C2B43556  14.849  14.782   6.544
 3269POPC   C3B43557  14.924  14.702   6.935
 3269POPC   C4B43558  14.704  14.650   7.263
 3270POPC   NC343559  14.069  31.540   5.394
 3270POPC   PO443560  13.440  31.287   5.439
 3270POPC   GL143561  13.730  31.350   5.825
 3270POPC   GL243562  13.924  31.663   5.862
 3270POPC   C1A43563  13.812  31.423   6.298
 3270POPC   D2A43564  13.820  31.727   6.652
 3270POPC   C3A43565  13.742  31.514   7.058
 3270POPC   C4A43566  13.765  31.172   7.368
 3270POPC   C1B43567  13.526  31.774   6.083
 3270POPC   C2B43568  13.262  31.824   6.458
 3270POPC   C3B43569  13.368  31.879   6.895
 3270POPC   C4B43570  13.347  31.700   7.312
 3271POPC   NC343571  16.242  13.104   5.416
 3271POPC   PO443572  16.183  12.421   5.366
 3271POPC   GL143573  15.967  12.710   5.624
 3271POPC   GL243574  16.263  12.785   5.808
 3271POPC   C1A43575  15.768  12.830   6.011
 3271POPC   D2A43576  15.840  12.878   6.473
 3271POPC   C3A43577  15.595  12.821   6.845
 3271POPC   C4A43578  15.772  12.907   7.257
 3271POPC   C1B43579  16.219  13.050   6.148
 3271POPC   C2B43580  16.166  13.282   6.512
 3271POPC   C3B43581  16.163  13.189   6.925
 3271POPC   C4B43582  16.337  13.475   7.204
 3272POPC   NC343583   3.112  40.558   5.395
 3272POPC   PO443584   2.719  41.081   5.461
 3272POPC   GL143585   2.745  40.859   5.813
 3272POPC   GL243586   2.680  40.506   5.676
 3272POPC   C1A43587   2.931  40.903   6.227
 3272POPC   D2A43588   2.915  40.623   6.565
 3272POPC   C3A43589   2.983  40.804   6.979
 3272POPC   C4A43590   2.610  41.021   7.125
 3272POPC   C1B43591   2.717  40.439   6.103
 3272POPC   C2B43592   2.416  40.528   6.431
 3272POPC   C3B43593   2.502  40.578   6.883
 3272POPC   C4B43594   2.713  40.503   7.309
 3273POPC   NC343595   2.127  37.571   5.456
 3273POPC   PO443596   1.768  38.166   5.298
 3273POPC   GL143597   1.883  37.911   5.728
 3273POPC   GL243598   2.285  37.865   5.825
 3273POPC   C1A43599   1.973  37.865   6.201
 3273POPC   D2A43600   2.226  37.800   6.557
 3273POPC   C3A43601   1.920  37.666   6.860
 3273POPC   C4A43602   1.768  37.861   7.221
 3273POPC   C1B43603   2.279  37.459   6.114
 3273POPC   C2B43604   2.359  37.306   6.554
 3273POPC   C3B43605   2.401  37.516   6.965
 3273POPC   C4B43606   2.119  37.494   7.320
 3274POPC   NC343607   5.508  27.937   5.496
 3274POPC   PO443608   5.592  28.513   5.195
 3274POPC   GL143609   5.767  28.454   5.639
 3274POPC   GL243610   5.506  28.398   5.841
 3274POPC   C1A43611   5.948  28.465   6.111
 3274POPC   D2A43612   5.929  28.698   6.537
 3274POPC   C3A43613   6.177  28.510   6.879
 3274POPC   C4A43614   6.114  28.374   7.305
 3274POPC   C1B43615   5.469  28.593   6.261
 3274POPC   C2B43616   5.480  28.440   6.690
 3274POPC   C3B43617   5.681  28.563   7.058
 3274POPC   C4B43618   5.592  28.813   7.421
 3275POPC   NC343619  13.228  33.110   5.441
 3275POPC   PO443620  13.847  32.756   5.468
 3275POPC   GL143621  13.593  32.941   5.775
 3275POPC   GL243622  13.296  32.727   5.799
 3275POPC   C1A43623  13.722  33.110   6.159
 3275POPC   D2A43624  13.892  33.301   6.500
 3275POPC   C3A43625  13.589  33.324   6.815
 3275POPC   C4A43626  13.705  33.332   7.193
 3275POPC   C1B43627  13.363  32.751   6.234
 3275POPC   C2B43628  13.584  32.832   6.595
 3275POPC   C3B43629  13.748  32.851   6.989
 3275POPC   C4B43630  13.552  32.894   7.399
 3276POPC   NC343631   9.104  17.796   5.242
 3276POPC   PO443632   8.855  17.156   5.285
 3276POPC   GL143633   8.758  17.506   5.612
 3276POPC   GL243634   9.082  17.621   5.718
 3276POPC   C1A43635   8.707  17.511   6.103
 3276POPC   D2A43636   8.907  17.316   6.499
 3276POPC   C3A43637   8.886  17.496   6.936
 3276POPC   C4A43638   8.932  17.433   7.398
 3276POPC   C1B43639   9.210  17.436   6.097
 3276POPC   C2B43640   9.252  17.695   6.446
 3276POPC   C3B43641   9.275  17.806   6.835
 3276POPC   C4B43642   9.394  17.602   7.200
 3277POPC   NC343643   4.021  40.095   5.611
 3277POPC   PO443644   4.687  39.973   5.457
 3277POPC   GL143645   4.513  40.044   5.843
 3277POPC   GL243646   4.408  40.361   5.820
 3277POPC   C1A43647   4.517  39.837   6.241
 3277POPC   D2A43648   4.257  39.521   6.467
 3277POPC   C3A43649   4.195  39.688   6.874
 3277POPC   C4A43650   4.038  39.780   7.272
 3277POPC   C1B43651   4.211  40.262   6.241
 3277POPC   C2B43652   4.323  40.183   6.675
 3277POPC   C3B43653   4.076  40.243   7.058
 3277POPC   C4B43654   4.049  40.225   7.530
 3278POPC   NC343655  29.361  24.148   5.606
 3278POPC   PO443656  29.037  23.633   5.433
 3278POPC   GL143657  29.269  23.668   5.807
 3278POPC   GL243658  29.287  23.323   5.841
 3278POPC   C1A43659  29.139  23.829   6.225
 3278POPC   D2A43660  28.835  23.619   6.506
 3278POPC   C3A43661  28.866  23.328   6.860
 3278POPC   C4A43662  28.813  23.571   7.245
 3278POPC   C1B43663  29.155  23.327   6.233
 3278POPC   C2B43664  29.344  23.492   6.594
 3278POPC   C3B43665  29.287  23.569   7.001
 3278POPC   C4B43666  29.487  23.875   7.174
 3279POPC   NC343667  42.169  31.385   5.199
 3279POPC   PO443668  41.794  31.751   5.604
 3279POPC   GL143669  42.049  31.403   5.749
 3279POPC   GL243670  42.397  31.348   5.681
 3279POPC   C1A43671  42.104  31.367   6.183
 3279POPC   D2A43672  42.034  31.670   6.520
 3279POPC   C3A43673  42.212  31.562   6.907
 3279POPC   C4A43674  42.089  31.284   7.234
 3279POPC   C1B43675  42.600  31.431   6.096
 3279POPC   C2B43676  42.488  31.254   6.522
 3279POPC   C3B43677  42.566  31.212   6.965
 3279POPC   C4B43678  42.554  31.536   7.312
 3280POPC   NC343679  44.257   3.005   5.404
 3280POPC   PO443680  44.770   2.533   5.398
 3280POPC   GL143681  44.459   2.624   5.736
 3280POPC   GL243682  44.630   2.900   5.793
 3280POPC   C1A43683  44.484   2.450   6.176
 3280POPC   D2A43684  44.699   2.555   6.561
 3280POPC   C3A43685  44.478   2.562   6.938
 3280POPC   C4A43686  44.588   2.573   7.362
 3280POPC   C1B43687  44.473   2.963   6.194
 3280POPC   C2B43688  44.608   3.136   6.578
 3280POPC   C3B43689  44.446   3.152   6.981
 3280POPC   C4B43690  44.584   3.082   7.413
 3281POPC   NC343691  25.241  37.215   5.433
 3281POPC   PO443692  24.909  36.729   5.386
 3281POPC   GL143693  25.189  36.643   5.765
 3281POPC   GL243694  25.360  36.962   5.867
 3281POPC   C1A43695  25.307  36.614   6.234
 3281POPC   D2A43696  25.157  36.572   6.662
 3281POPC   C3A43697  25.355  36.616   7.054
 3281POPC   C4A43698  25.133  36.837   7.321
 3281POPC   C1B43699  25.647  37.022   6.223
 3281POPC   C2B43700  25.598  36.870   6.628
 3281POPC   C3B43701  25.415  37.087   6.955
 3281POPC   C4B43702  25.489  37.169   7.408
 3282POPC   NC343703  14.677  22.993   5.476
 3282POPC   PO443704  14.157  23.328   5.302
 3282POPC   GL143705  14.110  22.988   5.676
 3282POPC   GL243706  14.376  23.089   5.914
 3282POPC   C1A43707  14.153  22.695   6.126
 3282POPC   D2A43708  14.201  22.818   6.604
 3282POPC   C3A43709  14.575  22.989   6.870
 3282POPC   C4A43710  14.825  23.272   7.192
 3282POPC   C1B43711  13.930  23.151   6.140
 3282POPC   C2B43712  13.825  23.330   6.539
 3282POPC   C3B43713  13.939  23.177   6.941
 3282POPC   C4B43714  14.137  23.153   7.338
 3283POPC   NC343715   6.802  18.005   5.095
 3283POPC   PO443716   6.692  18.643   5.318
 3283POPC   GL143717   6.803  18.469   5.702
 3283POPC   GL243718   6.662  18.129   5.620
 3283POPC   C1A43719   6.768  18.512   6.151
 3283POPC   D2A43720   6.484  18.279   6.422
 3283POPC   C3A43721   6.589  18.233   6.848
 3283POPC   C4A43722   6.489  18.412   7.230
 3283POPC   C1B43723   6.873  18.037   6.007
 3283POPC   C2B43724   6.879  17.922   6.458
 3283POPC   C3B43725   7.043  17.974   6.885
 3283POPC   C4B43726   7.000  18.274   7.246
 3284POPC   NC343727  42.118  14.901   5.350
 3284POPC   PO443728  42.170  15.561   5.540
 3284POPC   GL143729  42.398  15.369   5.893
 3284POPC   GL243730  42.478  15.033   5.780
 3284POPC   C1A43731  42.305  15.126   6.296
 3284POPC   D2A43732  42.173  14.976   6.736
 3284POPC   C3A43733  42.238  15.273   7.097
 3284POPC   C4A43734  42.282  15.325   7.560
 3284POPC   C1B43735  42.767  14.973   6.148
 3284POPC   C2B43736  42.684  14.969   6.601
 3284POPC   C3B43737  42.634  14.990   7.007
 3284POPC   C4B43738  42.419  14.831   7.343
 3285POPC   NC343739  10.686  16.088   5.504
 3285POPC   PO443740  10.026  15.794   5.307
 3285POPC   GL143741  10.204  15.875   5.736
 3285POPC   GL243742  10.488  15.649   5.658
 3285POPC   C1A43743  10.418  15.947   6.171
 3285POPC   D2A43744  10.612  16.074   6.618
 3285POPC   C3A43745  10.383  16.088   7.031
 3285POPC   C4A43746  10.496  16.044   7.452
 3285POPC   C1B43747  10.677  15.496   6.024
 3285POPC   C2B43748  10.682  15.574   6.464
 3285POPC   C3B43749  10.493  15.629   6.847
 3285POPC   C4B43750  10.513  15.580   7.291
 3286POPC   NC343751  38.966  18.196   5.568
 3286POPC   PO443752  39.410  18.672   5.439
 3286POPC   GL143753  39.370  18.448   5.829
 3286POPC   GL243754  39.373  18.080   5.886
 3286POPC   C1A43755  39.262  18.488   6.293
 3286POPC   D2A43756  38.993  18.640   6.665
 3286POPC   C3A43757  39.103  18.472   7.084
 3286POPC   C4A43758  39.419  18.432   7.418
 3286POPC   C1B43759  39.041  18.036   6.232
 3286POPC   C2B43760  39.080  18.101   6.686
 3286POPC   C3B43761  38.833  18.045   7.058
 3286POPC   C4B43762  38.983  18.097   7.453
 3287POPC   NC343763  27.568  12.604   5.478
 3287POPC   PO443764  28.005  13.145   5.405
 3287POPC   GL143765  27.745  13.021   5.727
 3287POPC   GL243766  27.394  13.054   5.721
 3287POPC   C1A43767  27.713  12.879   6.132
 3287POPC   D2A43768  27.565  12.614   6.473
 3287POPC   C3A43769  27.507  12.891   6.857
 3287POPC   C4A43770  27.774  13.077   7.168
 3287POPC   C1B43771  27.223  12.778   6.087
 3287POPC   C2B43772  27.095  12.757   6.544
 3287POPC   C3B43773  27.230  12.469   6.914
 3287POPC   C4B43774  27.081  12.383   7.339
 3288POPC   NC343775  11.834  20.119   5.306
 3288POPC   PO443776  12.340  19.634   5.330
 3288POPC   GL143777  12.200  19.701   5.752
 3288POPC   GL243778  12.028  19.988   5.760
 3288POPC   C1A43779  12.359  19.905   6.148
 3288POPC   D2A43780  12.265  20.104   6.540
 3288POPC   C3A43781  12.217  19.868   6.907
 3288POPC   C4A43782  12.390  19.807   7.327
 3288POPC   C1B43783  11.853  19.814   6.140
 3288POPC   C2B43784  11.748  19.981   6.539
 3288POPC   C3B43785  11.696  19.927   6.959
 3288POPC   C4B43786  11.891  19.853   7.326
 3289POPC   NC343787  15.126  19.875   5.319
 3289POPC   PO443788  14.574  19.970   5.616
 3289POPC   GL143789  14.871  19.759   5.868
 3289POPC   GL243790  15.195  19.921   5.888
 3289POPC   C1A43791  14.958  19.739   6.318
 3289POPC   D2A43792  15.024  19.916   6.732
 3289POPC   C3A43793  15.163  19.641   7.058
 3289POPC   C4A43794  15.213  19.687   7.495
 3289POPC   C1B43795  15.386  20.008   6.339
 3289POPC   C2B43796  15.512  19.986   6.803
 3289POPC   C3B43797  15.606  19.990   7.243
 3289POPC   C4B43798  15.688  19.837   7.650
 3290POPC   NC343799  24.659  28.773   5.336
 3290POPC   PO443800  24.595  29.472   5.203
 3290POPC   GL143801  24.619  29.192   5.661
 3290POPC   GL243802  24.890  29.012   5.883
 3290POPC   C1A43803  24.461  29.085   6.113
 3290POPC   D2A43804  24.318  29.066   6.531
 3290POPC   C3A43805  24.576  28.955   6.868
 3290POPC   C4A43806  24.460  29.233   7.184
 3290POPC   C1B43807  24.951  29.286   6.237
 3290POPC   C2B43808  24.878  29.384   6.671
 3290POPC   C3B43809  25.011  29.303   7.082
 3290POPC   C4B43810  24.874  28.977   7.319
 3291POPC   NC343811  27.954  34.924   5.418
 3291POPC   PO443812  28.148  35.589   5.464
 3291POPC   GL143813  28.384  35.385   5.828
 3291POPC   GL243814  28.576  35.078   5.765
 3291POPC   C1A43815  28.526  35.421   6.280
 3291POPC   D2A43816  28.562  35.693   6.674
 3291POPC   C3A43817  28.356  35.454   7.037
 3291POPC   C4A43818  27.973  35.222   7.167
 3291POPC   C1B43819  28.326  34.933   6.133
 3291POPC   C2B43820  28.211  35.023   6.576
 3291POPC   C3B43821  28.368  34.903   6.999
 3291POPC   C4B43822  28.573  35.076   7.351
 3292POPC   NC343823  27.944  11.032   5.415
 3292POPC   PO443824  27.414  10.584   5.340
 3292POPC   GL143825  27.568  10.536   5.777
 3292POPC   GL243826  27.796  10.215   5.839
 3292POPC   C1A43827  27.693  10.552   6.225
 3292POPC   D2A43828  27.910  10.706   6.566
 3292POPC   C3A43829  27.627  10.753   6.895
 3292POPC   C4A43830  27.622  10.634   7.308
 3292POPC   C1B43831  27.422  10.158   6.100
 3292POPC   C2B43832  27.353  10.162   6.535
 3292POPC   C3B43833  27.339  10.328   6.968
 3292POPC   C4B43834  27.268  10.267   7.427
 3293POPC   NC343835  38.809  30.020   5.419
 3293POPC   PO443836  39.330  29.630   5.450
 3293POPC   GL143837  39.216  29.792   5.830
 3293POPC   GL243838  38.877  29.662   5.804
 3293POPC   C1A43839  39.444  29.888   6.235
 3293POPC   D2A43840  39.528  29.768   6.678
 3293POPC   C3A43841  39.487  30.049   7.030
 3293POPC   C4A43842  39.319  30.154   7.422
 3293POPC   C1B43843  38.926  29.859   6.249
 3293POPC   C2B43844  39.071  30.056   6.663
 3293POPC   C3B43845  38.977  29.949   7.087
 3293POPC   C4B43846  38.737  29.607   7.213
 3294POPC   NC343847  40.484  32.060   5.405
 3294POPC   PO443848  41.068  32.362   5.287
 3294POPC   GL143849  40.859  32.399   5.677
 3294POPC   GL243850  40.880  32.062   5.770
 3294POPC   C1A43851  40.966  32.412   6.141
 3294POPC   D2A43852  40.770  32.169   6.506
 3294POPC   C3A43853  40.800  32.283   6.953
 3294POPC   C4A43854  41.151  32.349   7.187
 3294POPC   C1B43855  40.514  32.199   6.050
 3294POPC   C2B43856  40.286  32.036   6.416
 3294POPC   C3B43857  40.415  31.958   6.868
 3294POPC   C4B43858  40.522  32.038   7.327
 3295POPC   NC343859  40.549  13.403   5.519
 3295POPC   PO443860  41.079  13.933   5.347
 3295POPC   GL143861  40.973  13.688   5.677
 3295POPC   GL243862  40.670  13.845   5.748
 3295POPC   C1A43863  40.975  13.687   6.130
 3295POPC   D2A43864  40.802  13.447   6.469
 3295POPC   C3A43865  40.920  13.594   6.868
 3295POPC   C4A43866  40.728  13.435   7.250
 3295POPC   C1B43867  40.450  13.596   6.107
 3295POPC   C2B43868  40.241  13.623   6.479
 3295POPC   C3B43869  40.391  13.596   6.859
 3295POPC   C4B43870  40.399  13.821   7.239
 3296POPC   NC343871  35.897  33.429   5.145
 3296POPC   PO443872  36.373  33.849   5.336
 3296POPC   GL143873  36.319  33.750   5.746
 3296POPC   GL243874  36.442  34.047   5.891
 3296POPC   C1A43875  36.032  33.685   6.112
 3296POPC   D2A43876  35.866  33.836   6.506
 3296POPC   C3A43877  35.956  33.592   6.871
 3296POPC   C4A43878  36.012  33.724   7.265
 3296POPC   C1B43879  36.545  33.738   6.206
 3296POPC   C2B43880  36.396  33.626   6.596
 3296POPC   C3B43881  36.482  33.766   7.004
 3296POPC   C4B43882  36.605  33.580   7.388
 3297POPC   NC343883   3.371  43.854   5.424
 3297POPC   PO443884   3.832  44.211   5.652
 3297POPC   GL143885   3.631  43.894   5.899
 3297POPC   GL243886   3.375  43.654   6.012
 3297POPC   C1A43887   3.743  43.839   6.320
 3297POPC   D2A43888   3.381  43.879   6.578
 3297POPC   C3A43889   3.507  44.072   6.933
 3297POPC   C4A43890   3.709  43.921   7.296
 3297POPC   C1B43891   3.054  43.477   6.288
 3297POPC   C2B43892   3.116  43.445   6.727
 3297POPC   C3B43893   3.411  43.553   7.026
 3297POPC   C4B43894   3.242  43.711   7.383
 3298POPC   NC343895  40.599   1.199   5.150
 3298POPC   PO443896  41.161   1.008   5.499
 3298POPC   GL143897  40.984   1.323   5.809
 3298POPC   GL243898  40.609   1.390   5.818
 3298POPC   C1A43899  40.867   1.255   6.257
 3298POPC   D2A43900  40.672   1.112   6.665
 3298POPC   C3A43901  40.944   1.277   6.988
 3298POPC   C4A43902  40.905   1.503   7.374
 3298POPC   C1B43903  40.412   1.470   6.239
 3298POPC   C2B43904  40.675   1.633   6.605
 3298POPC   C3B43905  40.554   1.625   7.013
 3298POPC   C4B43906  40.470   1.196   7.158
 3299POPC   NC343907  19.335  35.299   5.409
 3299POPC   PO443908  18.881  34.965   5.522
 3299POPC   GL143909  18.960  35.281   5.836
 3299POPC   GL243910  19.229  35.563   5.831
 3299POPC   C1A43911  18.945  35.161   6.278
 3299POPC   D2A43912  19.025  34.891   6.623
 3299POPC   C3A43913  18.766  35.039   6.932
 3299POPC   C4A43914  18.776  35.290   7.284
 3299POPC   C1B43915  19.423  35.242   6.093
 3299POPC   C2B43916  19.461  35.166   6.539
 3299POPC   C3B43917  19.284  35.332   6.917
 3299POPC   C4B43918  19.061  35.691   7.075
 3300POPC   NC343919  22.385  42.002   5.298
 3300POPC   PO443920  21.952  42.517   5.374
 3300POPC   GL143921  22.061  42.516   5.797
 3300POPC   GL243922  22.227  42.171   5.822
 3300POPC   C1A43923  22.159  42.475   6.240
 3300POPC   D2A43924  22.250  42.293   6.644
 3300POPC   C3A43925  21.929  42.328   6.959
 3300POPC   C4A43926  21.908  42.693   7.245
 3300POPC   C1B43927  22.456  41.996   6.218
 3300POPC   C2B43928  22.639  41.958   6.671
 3300POPC   C3B43929  22.337  41.976   7.043
 3300POPC   C4B43930  22.281  42.331   7.329
 3301POPC   NC343931   3.154  33.573   5.446
 3301POPC   PO443932   3.684  33.890   5.705
 3301POPC   GL143933   3.453  33.813   6.045
 3301POPC   GL243934   3.225  33.539   5.973
 3301POPC   C1A43935   3.624  33.803   6.454
 3301POPC   D2A43936   3.674  33.490   6.765
 3301POPC   C3A43937   3.778  33.677   7.156
 3301POPC   C4A43938   3.699  33.641   7.597
 3301POPC   C1B43939   3.154  33.589   6.413
 3301POPC   C2B43940   3.172  34.011   6.573
 3301POPC   C3B43941   3.395  33.974   6.936
 3301POPC   C4B43942   3.265  33.681   7.272
 3302POPC   NC343943  25.894  23.458   5.622
 3302POPC   PO443944  25.817  22.836   5.300
 3302POPC   GL143945  25.928  22.742   5.730
 3302POPC   GL243946  25.781  23.027   5.924
 3302POPC   C1A43947  26.211  22.792   6.098
 3302POPC   D2A43948  26.232  22.544   6.481
 3302POPC   C3A43949  26.059  22.717   6.876
 3302POPC   C4A43950  25.748  22.794   7.216
 3302POPC   C1B43951  25.974  23.261   6.289
 3302POPC   C2B43952  25.979  23.206   6.739
 3302POPC   C3B43953  26.051  23.203   7.197
 3302POPC   C4B43954  25.798  23.191   7.583
 3303POPC   NC343955  21.910  16.278   5.309
 3303POPC   PO443956  22.498  15.944   5.412
 3303POPC   GL143957  22.310  15.939   5.845
 3303POPC   GL243958  21.997  15.772   5.876
 3303POPC   C1A43959  22.257  15.971   6.322
 3303POPC   D2A43960  22.290  16.156   6.743
 3303POPC   C3A43961  21.938  16.428   6.909
 3303POPC   C4A43962  21.723  16.355   7.310
 3303POPC   C1B43963  21.862  15.641   6.279
 3303POPC   C2B43964  21.876  15.683   6.731
 3303POPC   C3B43965  22.007  15.946   7.106
 3303POPC   C4B43966  22.428  15.962   7.257
 3304POPC   NC343967  34.063   3.987   5.408
 3304POPC   PO443968  33.880   4.638   5.190
 3304POPC   GL143969  33.956   4.559   5.688
 3304POPC   GL243970  34.101   4.271   5.830
 3304POPC   C1A43971  33.807   4.553   6.126
 3304POPC   D2A43972  33.960   4.408   6.535
 3304POPC   C3A43973  33.653   4.269   6.853
 3304POPC   C4A43974  33.647   4.612   7.129
 3304POPC   C1B43975  33.909   4.027   6.185
 3304POPC   C2B43976  34.007   3.889   6.621
 3304POPC   C3B43977  34.157   4.174   6.957
 3304POPC   C4B43978  33.917   4.251   7.352
 3305POPC   NC343979  37.156  23.192   5.324
 3305POPC   PO443980  37.740  22.834   5.472
 3305POPC   GL143981  37.439  23.062   5.719
 3305POPC   GL243982  37.265  22.790   5.834
 3305POPC   C1A43983  37.253  23.205   6.125
 3305POPC   D2A43984  37.307  23.042   6.515
 3305POPC   C3A43985  37.660  23.131   6.777
 3305POPC   C4A43986  37.773  23.032   7.195
 3305POPC   C1B43987  37.608  22.827   6.143
 3305POPC   C2B43988  37.923  22.826   6.449
 3305POPC   C3B43989  37.929  22.646   6.846
 3305POPC   C4B43990  38.159  22.694   7.214
 3306POPC   NC343991  17.109  23.125   5.351
 3306POPC   PO443992  17.771  23.097   5.455
 3306POPC   GL143993  17.413  22.926   5.725
 3306POPC   GL243994  17.145  23.153   5.879
 3306POPC   C1A43995  17.263  22.734   6.127
 3306POPC   D2A43996  17.290  22.951   6.541
 3306POPC   C3A43997  17.452  22.772   6.929
 3306POPC   C4A43998  17.823  22.738   7.216
 3306POPC   C1B43999  17.161  23.383   6.302
 3306POPC   C2B44000  17.272  23.404   6.752
 3306POPC   C3B44001  17.515  23.249   7.077
 3306POPC   C4B44002  17.881  23.341   7.225
 3307POPC   NC344003   3.236  35.100   5.426
 3307POPC   PO444004   3.849  35.219   5.209
 3307POPC   GL144005   3.614  35.374   5.667
 3307POPC   GL244006   3.343  35.169   5.910
 3307POPC   C1A44007   3.609  35.485   6.170
 3307POPC   D2A44008   3.622  35.280   6.594
 3307POPC   C3A44009   3.441  35.398   6.997
 3307POPC   C4A44010   3.762  35.651   7.183
 3307POPC   C1B44011   3.615  34.928   6.225
 3307POPC   C2B44012   3.639  34.748   6.623
 3307POPC   C3B44013   3.663  34.947   6.986
 3307POPC   C4B44014   3.735  35.190   7.385
 3308POPC   NC344015  13.547   0.913   5.424
 3308POPC   PO444016  13.969   1.396   5.282
 3308POPC   GL144017  13.876   1.217   5.731
 3308POPC   GL244018  13.504   1.180   5.847
 3308POPC   C1A44019  13.858   1.244   6.218
 3308POPC   D2A44020  13.624   1.308   6.632
 3308POPC   C3A44021  13.775   1.397   7.020
 3308POPC   C4A44022  13.994   1.147   7.309
 3308POPC   C1B44023  13.315   1.217   6.258
 3308POPC   C2B44024  13.300   0.913   6.666
 3308POPC   C3B44025  13.507   0.953   7.106
 3308POPC   C4B44026  13.264   0.896   7.498
 3309POPC   NC344027   1.007   6.867   5.373
 3309POPC   PO444028   1.377   7.510   5.267
 3309POPC   GL144029   1.317   7.212   5.673
 3309POPC   GL244030   1.005   7.075   5.840
 3309POPC   C1A44031   1.385   7.293   6.138
 3309POPC   D2A44032   1.209   7.677   6.398
 3309POPC   C3A44033   1.264   7.696   6.852
 3309POPC   C4A44034   1.402   7.316   7.126
 3309POPC   C1B44035   0.905   7.240   6.268
 3309POPC   C2B44036   1.089   7.255   6.704
 3309POPC   C3B44037   0.920   7.416   7.116
 3309POPC   C4B44038   0.875   7.190   7.497
 3310POPC   NC344039  24.649   2.461   5.608
 3310POPC   PO444040  24.328   1.890   5.489
 3310POPC   GL144041  24.190   2.084   5.877
 3310POPC   GL244042  24.306   2.407   5.990
 3310POPC   C1A44043  24.254   1.953   6.294
 3310POPC   D2A44044  24.371   2.076   6.687
 3310POPC   C3A44045  24.371   1.795   6.990
 3310POPC   C4A44046  24.685   1.749   7.285
 3310POPC   C1B44047  24.675   2.266   6.255
 3310POPC   C2B44048  24.889   2.150   6.640
 3310POPC   C3B44049  24.734   2.204   7.060
 3310POPC   C4B44050  24.292   2.192   7.276
 3311POPC   NC344051  41.296  28.003   5.447
 3311POPC   PO444052  41.475  28.645   5.234
 3311POPC   GL144053  41.451  28.452   5.654
 3311POPC   GL244054  41.095  28.397   5.753
 3311POPC   C1A44055  41.628  28.325   6.073
 3311POPC   D2A44056  41.524  28.294   6.522
 3311POPC   C3A44057  41.809  28.302   6.877
 3311POPC   C4A44058  41.624  28.160   7.257
 3311POPC   C1B44059  41.132  28.476   6.203
 3311POPC   C2B44060  41.143  28.640   6.636
 3311POPC   C3B44061  41.365  28.543   7.025
 3311POPC   C4B44062  41.336  28.749   7.438
 3312POPC   NC344063  31.193  24.716   5.267
 3312POPC   PO444064  31.597  24.225   5.500
 3312POPC   GL144065  31.460  24.437   5.816
 3312POPC   GL244066  31.172  24.647   5.763
 3312POPC   C1A44067  31.663  24.418   6.206
 3312POPC   D2A44068  31.705  24.143   6.562
 3312POPC   C3A44069  31.733  24.410   6.915
 3312POPC   C4A44070  31.651  24.255   7.328
 3312POPC   C1B44071  31.152  24.479   6.212
 3312POPC   C2B44072  31.340  24.495   6.596
 3312POPC   C3B44073  31.226  24.426   7.018
 3312POPC   C4B44074  31.104  24.727   7.258
 3313POPC   NC344075   8.822   2.022   5.407
 3313POPC   PO444076   9.302   1.617   5.468
 3313POPC   GL144077   9.065   1.707   5.838
 3313POPC   GL244078   8.754   1.662   5.874
 3313POPC   C1A44079   9.101   1.855   6.271
 3313POPC   D2A44080   9.251   2.010   6.676
 3313POPC   C3A44081   8.971   1.897   7.041
 3313POPC   C4A44082   9.082   1.901   7.469
 3313POPC   C1B44083   8.557   1.630   6.252
 3313POPC   C2B44084   8.668   1.717   6.659
 3313POPC   C3B44085   8.454   1.735   7.081
 3313POPC   C4B44086   8.554   1.957   7.487
 3314POPC   NC344087  39.829  22.789   5.207
 3314POPC   PO444088  40.335  22.745   5.632
 3314POPC   GL144089  39.937  22.744   5.854
 3314POPC   GL244090  39.710  22.971   5.677
 3314POPC   C1A44091  39.975  22.826   6.294
 3314POPC   D2A44092  40.088  23.062   6.665
 3314POPC   C3A44093  40.074  22.882   7.079
 3314POPC   C4A44094  40.131  23.070   7.494
 3314POPC   C1B44095  39.603  23.128   6.080
 3314POPC   C2B44096  39.628  23.222   6.519
 3314POPC   C3B44097  39.590  23.022   6.934
 3314POPC   C4B44098  39.636  23.087   7.367
 3315POPC   NC344099  11.964  37.229   5.488
 3315POPC   PO444100  12.245  37.815   5.396
 3315POPC   GL144101  12.141  37.695   5.798
 3315POPC   GL244102  12.109  38.024   5.945
 3315POPC   C1A44103  11.981  37.474   6.177
 3315POPC   D2A44104  11.645  37.518   6.505
 3315POPC   C3A44105  11.775  37.403   6.917
 3315POPC   C4A44106  11.809  37.622   7.276
 3315POPC   C1B44107  11.887  37.961   6.318
 3315POPC   C2B44108  12.103  37.720   6.636
 3315POPC   C3B44109  12.197  37.840   7.034
 3315POPC   C4B44110  12.240  37.828   7.472
 3316POPC   NC344111  36.975  39.503   5.172
 3316POPC   PO444112  36.783  40.202   5.255
 3316POPC   GL144113  36.902  40.068   5.678
 3316POPC   GL244114  36.616  39.932   5.769
 3316POPC   C1A44115  37.022  39.969   6.127
 3316POPC   D2A44116  37.040  40.198   6.503
 3316POPC   C3A44117  37.089  40.010   6.905
 3316POPC   C4A44118  37.180  40.106   7.315
 3316POPC   C1B44119  36.533  39.993   6.206
 3316POPC   C2B44120  36.692  39.822   6.564
 3316POPC   C3B44121  36.584  39.865   6.970
 3316POPC   C4B44122  36.687  40.103   7.318
 3317POPC   NC344123   2.200  18.060   5.217
 3317POPC   PO444124   1.856  18.576   5.377
 3317POPC   GL144125   1.685  18.414   5.746
 3317POPC   GL244126   2.058  18.471   5.867
 3317POPC   C1A44127   1.679  18.240   6.151
 3317POPC   D2A44128   2.042  18.257   6.384
 3317POPC   C3A44129   1.974  18.199   6.817
 3317POPC   C4A44130   1.599  18.212   7.071
 3317POPC   C1B44131   2.290  18.709   6.218
 3317POPC   C2B44132   2.426  18.530   6.631
 3317POPC   C3B44133   2.332  18.586   7.074
 3317POPC   C4B44134   2.397  18.597   7.533
 3318POPC   NC344135   1.646  39.411   5.501
 3318POPC   PO444136   2.257  39.069   5.252
 3318POPC   GL144137   2.105  39.204   5.742
 3318POPC   GL244138   1.789  39.218   5.943
 3318POPC   C1A44139   2.202  39.086   6.221
 3318POPC   D2A44140   2.401  39.230   6.628
 3318POPC   C3A44141   2.175  39.201   7.039
 3318POPC   C4A44142   2.008  38.931   7.389
 3318POPC   C1B44143   1.697  38.967   6.307
 3318POPC   C2B44144   1.616  39.065   6.731
 3318POPC   C3B44145   1.664  39.196   7.124
 3318POPC   C4B44146   1.537  39.599   7.260
 3319POPC   NC344147  21.037  12.718   5.570
 3319POPC   PO444148  21.622  12.775   5.290
 3319POPC   GL144149  21.494  12.921   5.739
 3319POPC   GL244150  21.691  13.234   5.814
 3319POPC   C1A44151  21.301  12.778   6.184
 3319POPC   D2A44152  21.168  12.973   6.614
 3319POPC   C3A44153  21.346  12.886   7.039
 3319POPC   C4A44154  21.282  12.786   7.476
 3319POPC   C1B44155  21.757  13.044   6.244
 3319POPC   C2B44156  21.703  13.084   6.713
 3319POPC   C3B44157  21.819  13.039   7.171
 3319POPC   C4B44158  21.796  12.893   7.621
 3320POPC   NC344159  30.312   7.592   5.388
 3320POPC   PO444160  29.692   7.202   5.475
 3320POPC   GL144161  29.869   7.448   5.805
 3320POPC   GL244162  30.195   7.331   5.811
 3320POPC   C1A44163  29.936   7.369   6.254
 3320POPC   D2A44164  29.720   7.119   6.528
 3320POPC   C3A44165  29.716   7.348   6.890
 3320POPC   C4A44166  29.702   7.115   7.262
 3320POPC   C1B44167  30.255   7.715   6.069
 3320POPC   C2B44168  30.267   7.862   6.529
 3320POPC   C3B44169  30.283   7.621   6.912
 3320POPC   C4B44170  30.021   7.551   7.270
 3321POPC   NC344171   3.637   2.210   5.550
 3321POPC   PO444172   3.403   1.641   5.364
 3321POPC   GL144173   3.415   1.820   5.815
 3321POPC   GL244174   3.284   2.153   5.910
 3321POPC   C1A44175   3.304   1.777   6.288
 3321POPC   D2A44176   3.243   2.155   6.578
 3321POPC   C3A44177   3.442   2.192   7.020
 3321POPC   C4A44178   3.256   1.999   7.389
 3321POPC   C1B44179   3.651   2.135   6.191
 3321POPC   C2B44180   3.750   2.115   6.601
 3321POPC   C3B44181   3.926   2.015   6.992
 3321POPC   C4B44182   3.777   2.088   7.405
 3322POPC   NC344183  42.314  16.436   5.342
 3322POPC   PO444184  42.103  17.035   5.158
 3322POPC   GL144185  42.074  16.878   5.688
 3322POPC   GL244186  42.303  16.617   5.814
 3322POPC   C1A44187  42.077  16.787   6.220
 3322POPC   D2A44188  41.944  16.669   6.694
 3322POPC   C3A44189  42.033  16.909   7.077
 3322POPC   C4A44190  42.211  17.028   7.466
 3322POPC   C1B44191  42.461  16.400   6.195
 3322POPC   C2B44192  42.449  16.612   6.625
 3322POPC   C3B44193  42.465  16.624   7.084
 3322POPC   C4B44194  42.638  16.391   7.400
 3323POPC   NC344195   0.898  29.961   5.534
 3323POPC   PO444196   1.530  29.891   5.277
 3323POPC   GL144197   1.392  30.028   5.705
 3323POPC   GL244198   1.347  29.676   5.811
 3323POPC   C1A44199   1.328  30.026   6.200
 3323POPC   D2A44200   1.373  29.765   6.626
 3323POPC   C3A44201   1.247  29.938   7.060
 3323POPC   C4A44202   1.406  30.225   7.448
 3323POPC   C1B44203   1.046  29.593   6.160
 3323POPC   C2B44204   0.926  29.553   6.559
 3323POPC   C3B44205   1.047  29.445   6.919
 3323POPC   C4B44206   0.931  29.577   7.284
 3324POPC   NC344207  26.359  26.894   5.256
 3324POPC   PO444208  26.969  26.573   5.447
 3324POPC   GL144209  26.853  26.728   5.869
 3324POPC   GL244210  26.746  27.080   5.876
 3324POPC   C1A44211  26.569  26.746   6.262
 3324POPC   D2A44212  26.330  26.545   6.620
 3324POPC   C3A44213  26.530  26.533   7.036
 3324POPC   C4A44214  26.669  26.641   7.471
 3324POPC   C1B44215  26.589  27.284   6.277
 3324POPC   C2B44216  26.545  27.116   6.694
 3324POPC   C3B44217  26.709  27.036   7.110
 3324POPC   C4B44218  27.103  26.838   7.246
 3325POPC   NC344219   2.474  42.136   5.445
 3325POPC   PO444220   3.071  41.944   5.461
 3325POPC   GL144221   2.894  42.241   5.806
 3325POPC   GL244222   2.540  42.266   5.930
 3325POPC   C1A44223   2.934  42.378   6.259
 3325POPC   D2A44224   2.740  42.343   6.684
 3325POPC   C3A44225   2.956  42.469   7.103
 3325POPC   C4A44226   3.104  42.622   7.557
 3325POPC   C1B44227   2.371  42.587   6.223
 3325POPC   C2B44228   2.378  42.833   6.633
 3325POPC   C3B44229   2.467  42.645   7.031
 3325POPC   C4B44230   2.522  42.189   7.126
 3326POPC   NC344231  36.586  26.247   5.701
 3326POPC   PO444232  36.248  25.856   5.215
 3326POPC   GL144233  36.156  25.945   5.669
 3326POPC   GL244234  35.889  26.177   5.788
 3326POPC   C1A44235  36.188  25.945   6.152
 3326POPC   D2A44236  36.409  25.920   6.569
 3326POPC   C3A44237  36.118  26.006   6.919
 3326POPC   C4A44238  35.815  25.898   7.253
 3326POPC   C1B44239  36.065  26.446   6.176
 3326POPC   C2B44240  36.384  26.473   6.520
 3326POPC   C3B44241  36.312  26.518   6.972
 3326POPC   C4B44242  35.954  26.399   7.246
 3327POPC   NC344243  41.680  19.191   4.920
 3327POPC   PO444244  41.360  19.368   5.538
 3327POPC   GL144245  41.372  18.918   5.725
 3327POPC   GL244246  41.692  18.762   5.857
 3327POPC   C1A44247  41.373  18.970   6.184
 3327POPC   D2A44248  41.352  19.328   6.471
 3327POPC   C3A44249  41.379  19.160   6.884
 3327POPC   C4A44250  41.458  19.092   7.324
 3327POPC   C1B44251  41.673  18.574   6.268
 3327POPC   C2B44252  41.733  18.910   6.563
 3327POPC   C3B44253  41.834  18.966   6.973
 3327POPC   C4B44254  41.815  18.707   7.329
 3328POPC   NC344255   4.886  30.117   5.299
 3328POPC   PO444256   5.433  29.581   5.363
 3328POPC   GL144257   5.186  29.746   5.741
 3328POPC   GL244258   5.010  30.081   5.793
 3328POPC   C1A44259   5.362  29.904   6.113
 3328POPC   D2A44260   5.366  29.741   6.473
 3328POPC   C3A44261   5.342  29.928   6.854
 3328POPC   C4A44262   5.436  29.786   7.251
 3328POPC   C1B44263   4.858  29.986   6.233
 3328POPC   C2B44264   4.885  30.090   6.691
 3328POPC   C3B44265   4.904  29.969   7.158
 3328POPC   C4B44266   4.670  30.048   7.575
 3329POPC   NC344267  15.183  44.947   5.429
 3329POPC   PO444268  15.080  44.317   5.444
 3329POPC   GL144269  15.036  44.522   5.854
 3329POPC   GL244270  15.330  44.757   5.888
 3329POPC   C1A44271  14.935  44.722   6.260
 3329POPC   D2A44272  15.235  44.854   6.574
 3329POPC   C3A44273  15.212  44.663   6.968
 3329POPC   C4A44274  15.250  44.801   7.384
 3329POPC   C1B44275  15.425  44.426   6.200
 3329POPC   C2B44276  15.562  44.462   6.647
 3329POPC   C3B44277  15.660  44.476   7.108
 3329POPC   C4B44278  15.476  44.383   7.524
 3330POPC   NC344279  37.783  25.701   5.439
 3330POPC   PO444280  37.960  25.050   5.339
 3330POPC   GL144281  37.725  25.237   5.686
 3330POPC   GL244282  38.052  25.315   5.832
 3330POPC   C1A44283  37.638  25.481   6.078
 3330POPC   D2A44284  37.550  25.445   6.508
 3330POPC   C3A44285  37.556  25.331   6.910
 3330POPC   C4A44286  37.369  25.508   7.249
 3330POPC   C1B44287  38.127  25.490   6.259
 3330POPC   C2B44288  38.030  25.361   6.694
 3330POPC   C3B44289  37.972  25.108   7.076
 3330POPC   C4B44290  37.883  25.482   7.339
 3331POPC   NC344291  14.457  36.406   5.428
 3331POPC   PO444292  14.207  35.817   5.221
 3331POPC   GL144293  14.335  35.894   5.725
 3331POPC   GL244294  14.540  36.172   5.874
 3331POPC   C1A44295  14.598  35.786   6.183
 3331POPC   D2A44296  14.631  35.996   6.591
 3331POPC   C3A44297  14.744  35.850   7.036
 3331POPC   C4A44298  14.725  35.933   7.506
 3331POPC   C1B44299  14.193  36.095   6.183
 3331POPC   C2B44300  14.116  36.236   6.587
 3331POPC   C3B44301  14.429  36.417   6.823
 3331POPC   C4B44302  14.544  36.338   7.230
 3332POPC   NC344303  10.304   4.581   5.364
 3332POPC   PO444304  10.945   4.385   5.248
 3332POPC   GL144305  10.766   4.398   5.694
 3332POPC   GL244306  10.418   4.256   5.743
 3332POPC   C1A44307  10.627   4.508   6.122
 3332POPC   D2A44308  10.457   4.641   6.527
 3332POPC   C3A44309  10.718   4.580   6.901
 3332POPC   C4A44310  10.682   4.317   7.234
 3332POPC   C1B44311  10.236   4.081   6.123
 3332POPC   C2B44312  10.219   4.012   6.567
 3332POPC   C3B44313  10.301   4.297   6.890
 3332POPC   C4B44314  10.185   4.311   7.296
 3333POPC   NC344315   4.826  34.099   5.649
 3333POPC   PO444316   5.183  34.579   5.327
 3333POPC   GL144317   4.982  34.592   5.744
 3333POPC   GL244318   5.274  34.401   5.859
 3333POPC   C1A44319   4.939  34.562   6.217
 3333POPC   D2A44320   5.111  34.399   6.614
 3333POPC   C3A44321   5.068  34.658   6.972
 3333POPC   C4A44322   4.941  34.554   7.392
 3333POPC   C1B44323   5.440  34.616   6.254
 3333POPC   C2B44324   5.441  34.916   6.613
 3333POPC   C3B44325   5.548  34.825   7.043
 3333POPC   C4B44326   5.434  34.471   7.306
 3334POPC   NC344327   7.667  12.304   5.420
 3334POPC   PO444328   7.284  11.741   5.367
 3334POPC   GL144329   7.223  11.871   5.785
 3334POPC   GL244330   7.423  12.166   5.841
 3334POPC   C1A44331   7.217  11.907   6.234
 3334POPC   D2A44332   7.575  11.933   6.496
 3334POPC   C3A44333   7.427  12.046   6.888
 3334POPC   C4A44334   7.309  12.131   7.271
 3334POPC   C1B44335   7.661  12.405   6.167
 3334POPC   C2B44336   7.638  12.435   6.629
 3334POPC   C3B44337   7.668  12.483   7.097
 3334POPC   C4B44338   7.710  12.264   7.517
 3335POPC   NC344339  27.106  39.535   5.526
 3335POPC   PO444340  26.961  38.935   5.284
 3335POPC   GL144341  26.880  39.036   5.735
 3335POPC   GL244342  27.182  39.197   5.905
 3335POPC   C1A44343  26.732  39.160   6.157
 3335POPC   D2A44344  26.872  39.061   6.564
 3335POPC   C3A44345  26.710  39.262   6.913
 3335POPC   C4A44346  26.552  39.035   7.219
 3335POPC   C1B44347  27.304  39.262   6.360
 3335POPC   C2B44348  27.340  38.999   6.781
 3335POPC   C3B44349  27.117  39.056   7.200
 3335POPC   C4B44350  26.997  39.492   7.281
 3336POPC   NC344351  24.748   4.662   5.556
 3336POPC   PO444352  24.394   4.078   5.448
 3336POPC   GL144353  24.535   4.264   5.815
 3336POPC   GL244354  24.196   4.254   5.917
 3336POPC   C1A44355  24.819   4.330   6.172
 3336POPC   D2A44356  24.676   4.181   6.533
 3336POPC   C3A44357  24.579   4.441   6.878
 3336POPC   C4A44358  24.740   4.529   7.292
 3336POPC   C1B44359  24.346   4.515   6.267
 3336POPC   C2B44360  24.139   4.634   6.659
 3336POPC   C3B44361  24.077   4.347   6.974
 3336POPC   C4B44362  24.298   4.212   7.287
 3337POPC   NC344363  43.640  33.326   5.407
 3337POPC   PO444364  44.020  32.822   5.636
 3337POPC   GL144365  43.784  33.073   5.891
 3337POPC   GL244366  43.577  32.798   5.905
 3337POPC   C1A44367  43.881  33.133   6.349
 3337POPC   D2A44368  44.249  33.121   6.685
 3337POPC   C3A44369  44.099  33.205   7.092
 3337POPC   C4A44370  43.690  33.380   7.120
 3337POPC   C1B44371  43.351  32.694   6.229
 3337POPC   C2B44372  43.548  32.753   6.582
 3337POPC   C3B44373  43.842  32.823   6.862
 3337POPC   C4B44374  43.757  32.853   7.266
 3338POPC   NC344375   8.795  33.012   5.279
 3338POPC   PO444376   9.134  33.488   5.443
 3338POPC   GL144377   8.941  33.200   5.772
 3338POPC   GL244378   8.834  32.823   5.760
 3338POPC   C1A44379   9.079  33.171   6.205
 3338POPC   D2A44380   8.869  33.266   6.609
 3338POPC   C3A44381   9.106  33.121   6.967
 3338POPC   C4A44382   9.276  33.076   7.366
 3338POPC   C1B44383   8.682  32.870   6.195
 3338POPC   C2B44384   8.776  32.759   6.614
 3338POPC   C3B44385   8.624  32.962   6.990
 3338POPC   C4B44386   8.770  33.037   7.410
 3339POPC   NC344387  41.553  14.010   5.349
 3339POPC   PO444388  41.782  14.607   5.521
 3339POPC   GL144389  41.589  14.434   5.853
 3339POPC   GL244390  41.278  14.270   5.710
 3339POPC   C1A44391  41.697  14.456   6.302
 3339POPC   D2A44392  41.547  14.435   6.724
 3339POPC   C3A44393  41.753  14.677   7.067
 3339POPC   C4A44394  41.679  14.582   7.556
 3339POPC   C1B44395  41.285  14.140   6.148
 3339POPC   C2B44396  41.129  14.005   6.549
 3339POPC   C3B44397  41.148  14.167   6.944
 3339POPC   C4B44398  41.469  14.276   7.208
 3340POPC   NC344399  40.937  28.792   5.297
 3340POPC   PO444400  40.776  28.101   5.447
 3340POPC   GL144401  40.649  28.106   5.856
 3340POPC   GL244402  40.388  27.906   5.793
 3340POPC   C1A44403  40.652  28.271   6.261
 3340POPC   D2A44404  40.625  28.492   6.681
 3340POPC   C3A44405  40.879  28.430   7.066
 3340POPC   C4A44406  41.162  28.278   7.446
 3340POPC   C1B44407  40.287  27.889   6.227
 3340POPC   C2B44408  40.488  27.983   6.632
 3340POPC   C3B44409  40.639  27.966   7.011
 3340POPC   C4B44410  40.394  27.815   7.338
 3341POPC   NC344411  21.770   7.500   5.583
 3341POPC   PO444412  22.260   7.356   5.127
 3341POPC   GL144413  22.279   7.479   5.632
 3341POPC   GL244414  22.119   7.196   5.810
 3341POPC   C1A44415  22.214   7.553   6.153
 3341POPC   D2A44416  22.439   7.570   6.611
 3341POPC   C3A44417  22.215   7.573   7.033
 3341POPC   C4A44418  22.354   7.741   7.466
 3341POPC   C1B44419  22.267   7.018   6.206
 3341POPC   C2B44420  22.071   6.968   6.590
 3341POPC   C3B44421  22.212   7.000   6.986
 3341POPC   C4B44422  22.046   7.185   7.320
 3342POPC   NC344423  38.713  30.747   5.434
 3342POPC   PO444424  38.088  30.895   5.384
 3342POPC   GL144425  38.268  30.725   5.730
 3342POPC   GL244426  38.474  31.011   5.795
 3342POPC   C1A44427  38.384  30.490   6.097
 3342POPC   D2A44428  38.240  30.487   6.521
 3342POPC   C3A44429  38.510  30.466   6.870
 3342POPC   C4A44430  38.508  30.577   7.293
 3342POPC   C1B44431  38.593  30.949   6.226
 3342POPC   C2B44432  38.440  30.962   6.642
 3342POPC   C3B44433  38.496  31.028   7.078
 3342POPC   C4B44434  38.541  31.037   7.566
 3343POPC   NC344435  27.065  14.952   5.273
 3343POPC   PO444436  26.478  15.221   5.362
 3343POPC   GL144437  26.601  15.118   5.755
 3343POPC   GL244438  26.916  15.163   5.707
 3343POPC   C1A44439  26.675  15.386   6.123
 3343POPC   D2A44440  26.910  15.459   6.497
 3343POPC   C3A44441  26.780  15.278   6.890
 3343POPC   C4A44442  26.960  15.403   7.290
 3343POPC   C1B44443  26.953  14.947   6.118
 3343POPC   C2B44444  27.036  14.946   6.571
 3343POPC   C3B44445  27.016  14.831   7.024
 3343POPC   C4B44446  26.686  14.972   7.300
 3344POPC   NC344447  41.273  41.419   5.554
 3344POPC   PO444448  41.858  41.823   5.421
 3344POPC   GL144449  41.562  41.788   5.757
 3344POPC   GL244450  41.272  42.011   5.787
 3344POPC   C1A44451  41.609  41.571   6.157
 3344POPC   D2A44452  41.490  41.292   6.515
 3344POPC   C3A44453  41.553  41.514   6.894
 3344POPC   C4A44454  41.855  41.618   7.190
 3344POPC   C1B44455  41.163  41.822   6.141
 3344POPC   C2B44456  41.344  41.827   6.522
 3344POPC   C3B44457  41.178  41.887   6.877
 3344POPC   C4B44458  41.366  41.819   7.247
 3345POPC   NC344459   9.488  38.363   5.626
 3345POPC   PO444460  10.031  38.535   5.272
 3345POPC   GL144461   9.921  38.732   5.744
 3345POPC   GL244462   9.724  38.524   6.034
 3345POPC   C1A44463   9.962  38.922   6.181
 3345POPC   D2A44464   9.785  38.633   6.519
 3345POPC   C3A44465   9.703  38.603   6.947
 3345POPC   C4A44466   9.777  38.311   7.275
 3345POPC   C1B44467   9.563  38.129   6.227
 3345POPC   C2B44468   9.287  38.163   6.515
 3345POPC   C3B44469   9.438  38.160   6.867
 3345POPC   C4B44470   9.336  38.094   7.228
 3346POPC   NC344471  18.212  35.602   5.388
 3346POPC   PO444472  18.224  34.975   5.304
 3346POPC   GL144473  18.427  35.200   5.664
 3346POPC   GL244474  18.115  35.295   5.813
 3346POPC   C1A44475  18.521  35.424   6.084
 3346POPC   D2A44476  18.475  35.281   6.525
 3346POPC   C3A44477  18.493  35.497   6.901
 3346POPC   C4A44478  18.269  35.506   7.272
 3346POPC   C1B44479  18.030  35.353   6.267
 3346POPC   C2B44480  17.947  35.379   6.737
 3346POPC   C3B44481  17.787  35.639   7.121
 3346POPC   C4B44482  17.792  35.716   7.587
 3347POPC   NC344483  28.812   2.856   5.367
 3347POPC   PO444484  29.485   2.642   5.438
 3347POPC   GL144485  29.276   2.991   5.679
 3347POPC   GL244486  29.201   2.730   5.873
 3347POPC   C1A44487  29.252   3.150   6.144
 3347POPC   D2A44488  29.264   2.932   6.549
 3347POPC   C3A44489  29.194   3.127   6.936
 3347POPC   C4A44490  29.231   2.890   7.332
 3347POPC   C1B44491  28.962   2.678   6.236
 3347POPC   C2B44492  28.811   2.629   6.604
 3347POPC   C3B44493  28.953   2.658   6.950
 3347POPC   C4B44494  28.902   2.386   7.257
 3348POPC   NC344495   0.881   2.198   5.346
 3348POPC   PO444496   0.225   2.252   5.164
 3348POPC   GL144497   0.303   2.174   5.631
 3348POPC   GL244498   0.105   1.892   5.763
 3348POPC   C1A44499   0.456   2.067   6.096
 3348POPC   D2A44500   0.444   1.843   6.531
 3348POPC   C3A44501   0.532   2.052   6.937
 3348POPC   C4A44502   0.899   2.158   7.184
 3348POPC   C1B44503   0.048   1.715   6.193
 3348POPC   C2B44504   0.008   1.565   6.633
 3348POPC   C3B44505   0.120   1.754   7.058
 3348POPC   C4B44506   0.045   1.738   7.526
 3349POPC   NC344507  37.343  33.359   5.088
 3349POPC   PO444508  37.894  33.022   5.262
 3349POPC   GL144509  37.900  32.998   5.766
 3349POPC   GL244510  37.561  32.905   5.848
 3349POPC   C1A44511  37.823  33.214   6.209
 3349POPC   D2A44512  37.990  33.241   6.677
 3349POPC   C3A44513  37.876  33.238   7.147
 3349POPC   C4A44514  37.914  33.059   7.560
 3349POPC   C1B44515  37.291  32.902   6.206
 3349POPC   C2B44516  37.135  33.091   6.587
 3349POPC   C3B44517  37.204  32.969   7.014
 3349POPC   C4B44518  37.447  32.971   7.386
 3350POPC   NC344519  33.615  28.045   5.483
 3350POPC   PO444520  33.775  27.402   5.572
 3350POPC   GL144521  33.687  27.514   5.949
 3350POPC   GL244522  33.986  27.339   6.086
 3350POPC   C1A44523  33.697  27.779   6.324
 3350POPC   D2A44524  33.875  27.939   6.735
 3350POPC   C3A44525  33.778  27.728   7.125
 3350POPC   C4A44526  33.352  27.559   7.150
 3350POPC   C1B44527  33.660  27.264   6.384
 3350POPC   C2B44528  33.601  27.459   6.716
 3350POPC   C3B44529  33.674  27.186   6.992
 3350POPC   C4B44530  34.060  27.285   7.122
 3351POPC   NC344531  36.231  43.956   5.490
 3351POPC   PO444532  35.907  43.356   5.482
 3351POPC   GL144533  35.963  43.691   5.855
 3351POPC   GL244534  36.263  43.941   5.983
 3351POPC   C1A44535  35.970  43.761   6.322
 3351POPC   D2A44536  36.165  44.050   6.621
 3351POPC   C3A44537  35.999  43.913   7.010
 3351POPC   C4A44538  35.813  44.142   7.328
 3351POPC   C1B44539  36.546  44.174   6.231
 3351POPC   C2B44540  36.717  44.143   6.643
 3351POPC   C3B44541  36.470  44.237   7.008
 3351POPC   C4B44542  36.309  44.072   7.398
 3352POPC   NC344543   7.286  31.529   5.454
 3352POPC   PO444544   6.625  31.569   5.315
 3352POPC   GL144545   6.631  31.469   5.732
 3352POPC   GL244546   6.560  31.823   5.773
 3352POPC   C1A44547   6.667  31.483   6.185
 3352POPC   D2A44548   6.549  31.238   6.544
 3352POPC   C3A44549   6.789  31.198   6.903
 3352POPC   C4A44550   6.839  31.396   7.236
 3352POPC   C1B44551   6.497  31.984   6.161
 3352POPC   C2B44552   6.364  31.772   6.506
 3352POPC   C3B44553   6.575  31.682   6.876
 3352POPC   C4B44554   6.469  31.763   7.293
 3353POPC   NC344555  42.764  14.202   5.241
 3353POPC   PO444556  43.398  14.406   5.308
 3353POPC   GL144557  43.038  14.359   5.652
 3353POPC   GL244558  42.774  14.087   5.736
 3353POPC   C1A44559  43.056  14.526   6.090
 3353POPC   D2A44560  43.078  14.368   6.537
 3353POPC   C3A44561  42.981  14.614   6.897
 3353POPC   C4A44562  42.992  14.826   7.313
 3353POPC   C1B44563  42.823  14.087   6.199
 3353POPC   C2B44564  42.650  14.093   6.662
 3353POPC   C3B44565  42.876  13.950   7.059
 3353POPC   C4B44566  42.750  13.830   7.486
 3354POPC   NC344567  21.747  40.715   5.612
 3354POPC   PO444568  22.343  40.864   5.307
 3354POPC   GL144569  22.229  40.914   5.757
 3354POPC   GL244570  21.968  41.193   5.725
 3354POPC   C1A44571  22.215  40.673   6.183
 3354POPC   D2A44572  22.476  40.471   6.558
 3354POPC   C3A44573  22.332  40.573   7.011
 3354POPC   C4A44574  22.323  40.484   7.471
 3354POPC   C1B44575  22.069  41.201   6.172
 3354POPC   C2B44576  21.953  41.005   6.556
 3354POPC   C3B44577  21.860  40.853   6.946
 3354POPC   C4B44578  21.958  41.061   7.285
 3355POPC   NC344579  34.112  12.514   5.395
 3355POPC   PO444580  34.761  12.748   5.468
 3355POPC   GL144581  34.624  12.675   5.868
 3355POPC   GL244582  34.795  12.985   5.954
 3355POPC   C1A44583  34.575  12.624   6.318
 3355POPC   D2A44584  34.774  12.900   6.602
 3355POPC   C3A44585  34.542  12.851   6.951
 3355POPC   C4A44586  34.547  12.550   7.278
 3355POPC   C1B44587  34.415  13.096   6.160
 3355POPC   C2B44588  34.370  13.225   6.566
 3355POPC   C3B44589  34.427  13.343   6.974
 3355POPC   C4B44590  34.309  13.097   7.344
 3356POPC   NC344591  39.565  21.271   5.423
 3356POPC   PO444592  40.185  21.571   5.563
 3356POPC   GL144593  40.041  21.779   5.919
 3356POPC   GL244594  39.703  21.635   5.865
 3356POPC   C1A44595  40.123  21.703   6.332
 3356POPC   D2A44596  40.234  21.300   6.505
 3356POPC   C3A44597  40.186  21.414   6.904
 3356POPC   C4A44598  40.170  21.247   7.290
 3356POPC   C1B44599  39.798  21.297   6.183
 3356POPC   C2B44600  39.729  21.324   6.638
 3356POPC   C3B44601  39.715  21.440   7.085
 3356POPC   C4B44602  39.720  21.164   7.472
 3357POPC   NC344603  35.212  22.263   5.037
 3357POPC   PO444604  35.296  22.145   5.641
 3357POPC   GL144605  35.355  22.257   5.991
 3357POPC   GL244606  34.997  22.371   5.977
 3357POPC   C1A44607  35.619  22.055   6.288
 3357POPC   D2A44608  35.848  21.969   6.664
 3357POPC   C3A44609  35.577  22.204   6.893
 3357POPC   C4A44610  35.413  22.286   7.282
 3357POPC   C1B44611  35.038  21.929   6.204
 3357POPC   C2B44612  35.208  21.874   6.616
 3357POPC   C3B44613  35.060  22.136   6.972
 3357POPC   C4B44614  35.006  22.055   7.453
 3358POPC   NC344615  43.289  42.215   5.443
 3358POPC   PO444616  42.849  42.718   5.202
 3358POPC   GL144617  43.074  42.629   5.662
 3358POPC   GL244618  43.474  42.625   5.660
 3358POPC   C1A44619  43.017  42.418   6.128
 3358POPC   D2A44620  42.926  42.507   6.603
 3358POPC   C3A44621  43.005  42.295   7.022
 3358POPC   C4A44622  43.014  42.215   7.498
 3358POPC   C1B44623  43.533  42.503   6.067
 3358POPC   C2B44624  43.596  42.410   6.489
 3358POPC   C3B44625  43.430  42.514   6.885
 3358POPC   C4B44626  43.273  42.636   7.295
 3359POPC   NC344627   8.295  42.966   5.173
 3359POPC   PO444628   7.626  43.149   5.298
 3359POPC   GL144629   7.998  43.083   5.609
 3359POPC   GL244630   8.158  43.376   5.776
 3359POPC   C1A44631   8.309  42.916   5.947
 3359POPC   D2A44632   8.289  42.933   6.440
 3359POPC   C3A44633   8.337  43.083   6.874
 3359POPC   C4A44634   8.297  42.892   7.264
 3359POPC   C1B44635   7.915  43.183   6.147
 3359POPC   C2B44636   7.936  43.297   6.600
 3359POPC   C3B44637   7.924  43.328   7.057
 3359POPC   C4B44638   8.260  43.398   7.353
 3360POPC   NC344639   8.340  17.153   5.189
 3360POPC   PO444640   8.185  17.744   5.446
 3360POPC   GL144641   8.238  17.530   5.850
 3360POPC   GL244642   8.176  17.168   5.776
 3360POPC   C1A44643   8.244  17.518   6.337
 3360POPC   D2A44644   8.423  17.237   6.661
 3360POPC   C3A44645   8.413  17.386   7.072
 3360POPC   C4A44646   8.111  17.701   7.127
 3360POPC   C1B44647   7.877  17.209   6.142
 3360POPC   C2B44648   7.940  17.064   6.569
 3360POPC   C3B44649   7.957  17.223   6.979
 3360POPC   C4B44650   7.694  17.268   7.312
 3361POPC   NC344651  21.078   7.748   5.329
 3361POPC   PO444652  21.472   7.178   5.466
 3361POPC   GL144653  21.507   7.153   5.878
 3361POPC   GL244654  21.124   7.215   5.857
 3361POPC   C1A44655  21.767   7.275   6.232
 3361POPC   D2A44656  21.937   7.466   6.588
 3361POPC   C3A44657  21.754   7.316   6.939
 3361POPC   C4A44658  21.621   7.447   7.370
 3361POPC   C1B44659  21.272   7.532   6.147
 3361POPC   C2B44660  21.389   7.463   6.573
 3361POPC   C3B44661  21.284   7.519   6.985
 3361POPC   C4B44662  21.145   7.620   7.367
 3362POPC   NC344663  15.222   1.341   5.314
 3362POPC   PO444664  14.815   0.785   5.311
 3362POPC   GL144665  14.866   1.049   5.713
 3362POPC   GL244666  14.951   1.422   5.732
 3362POPC   C1A44667  15.090   0.936   6.114
 3362POPC   D2A44668  15.085   0.734   6.514
 3362POPC   C3A44669  15.319   0.975   6.814
 3362POPC   C4A44670  15.267   0.954   7.250
 3362POPC   C1B44671  14.859   1.405   6.172
 3362POPC   C2B44672  14.950   1.570   6.601
 3362POPC   C3B44673  15.102   1.412   7.032
 3362POPC   C4B44674  15.080   1.369   7.506
 3363POPC   NC344675  33.079   3.807   5.388
 3363POPC   PO444676  33.463   3.277   5.382
 3363POPC   GL144677  33.131   3.200   5.724
 3363POPC   GL244678  33.141   3.540   5.833
 3363POPC   C1A44679  32.958   3.249   6.190
 3363POPC   D2A44680  33.141   3.544   6.513
 3363POPC   C3A44681  33.000   3.551   6.938
 3363POPC   C4A44682  33.025   3.315   7.323
 3363POPC   C1B44683  32.933   3.834   6.136
 3363POPC   C2B44684  33.054   4.091   6.518
 3363POPC   C3B44685  33.135   4.063   6.971
 3363POPC   C4B44686  33.131   3.814   7.358
 3364POPC   NC344687  32.190   9.468   5.582
 3364POPC   PO444688  32.052  10.092   5.473
 3364POPC   GL144689  32.215   9.965   5.857
 3364POPC   GL244690  31.944   9.781   5.914
 3364POPC   C1A44691  32.391   9.727   6.232
 3364POPC   D2A44692  32.464   9.517   6.639
 3364POPC   C3A44693  32.474   9.762   7.034
 3364POPC   C4A44694  32.363   9.840   7.497
 3364POPC   C1B44695  31.938   9.967   6.318
 3364POPC   C2B44696  32.037   9.810   6.730
 3364POPC   C3B44697  31.975   9.948   7.161
 3364POPC   C4B44698  31.940  10.159   7.566
 3365POPC   NC344699  32.764  29.925   5.495
 3365POPC   PO444700  33.466  30.143   5.529
 3365POPC   GL144701  33.370  29.953   5.887
 3365POPC   GL244702  33.163  29.696   5.857
 3365POPC   C1A44703  33.297  29.933   6.325
 3365POPC   D2A44704  33.143  30.211   6.617
 3365POPC   C3A44705  33.130  30.088   7.025
 3365POPC   C4A44706  32.726  30.044   7.158
 3365POPC   C1B44707  32.948  29.556   6.257
 3365POPC   C2B44708  32.916  29.745   6.699
 3365POPC   C3B44709  32.991  29.585   7.140
 3365POPC   C4B44710  32.814  29.585   7.561
 3366POPC   NC344711  21.215  10.189   5.593
 3366POPC   PO444712  21.381   9.638   5.379
 3366POPC   GL144713  21.225   9.689   5.792
 3366POPC   GL244714  21.538   9.804   5.903
 3366POPC   C1A44715  21.183   9.749   6.264
 3366POPC   D2A44716  21.239   9.513   6.667
 3366POPC   C3A44717  21.276   9.657   7.114
 3366POPC   C4A44718  21.349   9.868   7.530
 3366POPC   C1B44719  21.671   9.789   6.363
 3366POPC   C2B44720  21.554   9.938   6.785
 3366POPC   C3B44721  21.725   9.962   7.208
 3366POPC   C4B44722  21.654  10.252   7.595
 3367POPC   NC344723  36.652  29.167   5.371
 3367POPC   PO444724  37.253  28.979   5.500
 3367POPC   GL144725  36.919  29.084   5.791
 3367POPC   GL244726  36.624  28.859   5.783
 3367POPC   C1A44727  36.856  29.141   6.216
 3367POPC   D2A44728  37.016  28.862   6.511
 3367POPC   C3A44729  36.948  29.043   6.890
 3367POPC   C4A44730  37.169  28.896   7.240
 3367POPC   C1B44731  36.524  28.758   6.210
 3367POPC   C2B44732  36.517  28.938   6.617
 3367POPC   C3B44733  36.504  28.899   7.069
 3367POPC   C4B44734  36.776  29.200   7.345
 3368POPC   NC344735   4.296   0.810   5.204
 3368POPC   PO444736   4.283   1.365   5.558
 3368POPC   GL144737   4.229   1.210   5.886
 3368POPC   GL244738   4.053   0.952   5.764
 3368POPC   C1A44739   4.290   1.280   6.307
 3368POPC   D2A44740   4.220   1.033   6.645
 3368POPC   C3A44741   4.092   1.272   6.997
 3368POPC   C4A44742   4.373   1.263   7.325
 3368POPC   C1B44743   3.961   0.912   6.188
 3368POPC   C2B44744   3.725   1.064   6.548
 3368POPC   C3B44745   3.826   0.849   6.899
 3368POPC   C4B44746   4.107   0.808   7.256
 3369POPC   NC344747   2.871  43.918   5.124
 3369POPC   PO444748   3.112  43.520   5.598
 3369POPC   GL144749   2.963  43.871   5.761
 3369POPC   GL244750   2.653  43.683   5.766
 3369POPC   C1A44751   3.047  44.004   6.176
 3369POPC   D2A44752   2.850  43.876   6.558
 3369POPC   C3A44753   3.011  43.925   6.950
 3369POPC   C4A44754   2.731  44.124   7.201
 3369POPC   C1B44755   2.537  43.873   6.141
 3369POPC   C2B44756   2.345  43.771   6.520
 3369POPC   C3B44757   2.519  43.709   6.940
 3369POPC   C4B44758   2.837  43.492   7.172
 3370POPC   NC344759  35.297  34.778   5.352
 3370POPC   PO444760  35.633  34.266   5.529
 3370POPC   GL144761  35.330  34.377   5.844
 3370POPC   GL244762  35.215  34.723   5.856
 3370POPC   C1A44763  35.177  34.299   6.263
 3370POPC   D2A44764  35.425  34.276   6.669
 3370POPC   C3A44765  35.177  34.376   7.026
 3370POPC   C4A44766  35.158  34.715   7.313
 3370POPC   C1B44767  35.464  34.726   6.237
 3370POPC   C2B44768  35.466  34.804   6.673
 3370POPC   C3B44769  35.625  34.643   7.061
 3370POPC   C4B44770  35.604  34.969   7.365
 3371POPC   NC344771  38.998  13.425   5.181
 3371POPC   PO444772  39.152  12.750   5.449
 3371POPC   GL144773  39.206  12.823   5.917
 3371POPC   GL244774  39.078  13.128   5.867
 3371POPC   C1A44775  39.344  13.128   6.298
 3371POPC   D2A44776  39.421  13.381   6.706
 3371POPC   C3A44777  39.405  13.096   7.055
 3371POPC   C4A44778  39.506  12.688   7.252
 3371POPC   C1B44779  38.806  13.057   6.209
 3371POPC   C2B44780  38.896  12.869   6.570
 3371POPC   C3B44781  38.805  13.008   6.955
 3371POPC   C4B44782  39.023  12.824   7.262
 3372POPC   NC344783  23.644   0.849   5.499
 3372POPC   PO444784  23.550   0.257   5.275
 3372POPC   GL144785  23.627   0.422   5.750
 3372POPC   GL244786  23.896   0.708   5.898
 3372POPC   C1A44787  23.475   0.560   6.173
 3372POPC   D2A44788  23.610   0.341   6.563
 3372POPC   C3A44789  23.437   0.404   6.959
 3372POPC   C4A44790  23.329   0.144   7.300
 3372POPC   C1B44791  24.001   0.508   6.279
 3372POPC   C2B44792  24.083   0.443   6.732
 3372POPC   C3B44793  23.941   0.523   7.150
 3372POPC   C4B44794  24.000   0.611   7.589
 3373POPC   NC344795   4.910  27.482   5.431
 3373POPC   PO444796   5.496  27.522   5.291
 3373POPC   GL144797   5.354  27.535   5.762
 3373POPC   GL244798   5.037  27.568   5.924
 3373POPC   C1A44799   5.420  27.567   6.250
 3373POPC   D2A44800   5.231  27.641   6.670
 3373POPC   C3A44801   5.397  27.447   7.080
 3373POPC   C4A44802   5.301  27.158   7.466
 3373POPC   C1B44803   4.877  27.834   6.274
 3373POPC   C2B44804   4.858  27.971   6.726
 3373POPC   C3B44805   4.910  27.677   7.081
 3373POPC   C4B44806   5.103  27.617   7.471
 3374POPC   NC344807  36.370  31.730   5.555
 3374POPC   PO444808  35.882  31.383   5.220
 3374POPC   GL144809  36.081  31.354   5.731
 3374POPC   GL244810  35.965  31.554   6.015
 3374POPC   C1A44811  36.351  31.307   6.170
 3374POPC   D2A44812  36.100  31.412   6.573
 3374POPC   C3A44813  36.281  31.475   7.001
 3374POPC   C4A44814  36.234  31.545   7.442
 3374POPC   C1B44815  35.757  31.798   6.317
 3374POPC   C2B44816  35.523  31.781   6.675
 3374POPC   C3B44817  35.747  31.707   7.047
 3374POPC   C4B44818  35.864  31.884   7.418
 3375POPC   NC344819  29.631  29.953   5.411
 3375POPC   PO444820  30.249  30.237   5.390
 3375POPC   GL144821  30.117  29.960   5.768
 3375POPC   GL244822  29.769  29.881   5.901
 3375POPC   C1A44823  30.143  30.009   6.246
 3375POPC   D2A44824  30.119  29.724   6.557
 3375POPC   C3A44825  29.862  29.879   6.878
 3375POPC   C4A44826  29.821  29.894   7.317
 3375POPC   C1B44827  29.649  30.095   6.295
 3375POPC   C2B44828  29.913  30.332   6.584
 3375POPC   C3B44829  29.874  30.390   7.009
 3375POPC   C4B44830  29.468  30.257   7.208
 3376POPC   NC344831  24.586  27.964   5.215
 3376POPC   PO444832  24.255  28.570   5.473
 3376POPC   GL144833  24.506  28.633   5.853
 3376POPC   GL244834  24.520  28.287   5.952
 3376POPC   C1A44835  24.509  28.618   6.342
 3376POPC   D2A44836  24.175  28.598   6.686
 3376POPC   C3A44837  24.353  28.483   7.091
 3376POPC   C4A44838  24.376  28.111   7.358
 3376POPC   C1B44839  24.818  28.096   6.261
 3376POPC   C2B44840  24.852  28.273   6.648
 3376POPC   C3B44841  24.809  28.133   7.064
 3376POPC   C4B44842  24.821  27.887   7.433
 3377POPC   NC344843  33.238  37.910   5.647
 3377POPC   PO444844  33.773  37.711   5.311
 3377POPC   GL144845  33.772  37.852   5.724
 3377POPC   GL244846  33.621  37.571   5.865
 3377POPC   C1A44847  33.669  37.989   6.164
 3377POPC   D2A44848  33.676  37.702   6.506
 3377POPC   C3A44849  33.871  37.776   6.888
 3377POPC   C4A44850  33.691  37.890   7.275
 3377POPC   C1B44851  33.397  37.375   6.201
 3377POPC   C2B44852  33.501  37.218   6.625
 3377POPC   C3B44853  33.474  37.457   7.022
 3377POPC   C4B44854  33.522  37.435   7.486
 3378POPC   NC344855  12.374  21.630   5.356
 3378POPC   PO444856  11.774  21.306   5.513
 3378POPC   GL144857  12.046  21.495   5.798
 3378POPC   GL244858  12.187  21.220   6.022
 3378POPC   C1A44859  11.892  21.607   6.195
 3378POPC   D2A44860  11.995  21.426   6.601
 3378POPC   C3A44861  12.299  21.649   6.801
 3378POPC   C4A44862  12.282  21.705   7.219
 3378POPC   C1B44863  11.793  21.078   6.272
 3378POPC   C2B44864  11.630  20.905   6.695
 3378POPC   C3B44865  11.882  20.956   7.087
 3378POPC   C4B44866  12.239  21.215   7.090
 3379POPC   NC344867  30.062  11.721   5.419
 3379POPC   PO444868  29.486  12.033   5.413
 3379POPC   GL144869  29.700  11.839   5.787
 3379POPC   GL244870  29.996  12.058   5.791
 3379POPC   C1A44871  29.917  11.786   6.210
 3379POPC   D2A44872  30.166  11.859   6.577
 3379POPC   C3A44873  29.995  11.746   6.972
 3379POPC   C4A44874  29.788  11.903   7.321
 3379POPC   C1B44875  30.221  12.225   6.134
 3379POPC   C2B44876  30.113  12.379   6.521
 3379POPC   C3B44877  30.254  12.352   6.926
 3379POPC   C4B44878  29.995  12.407   7.253
 3380POPC   NC344879   9.400   9.928   5.487
 3380POPC   PO444880   9.866   9.508   5.308
 3380POPC   GL144881   9.835   9.690   5.685
 3380POPC   GL244882   9.547   9.482   5.781
 3380POPC   C1A44883   9.802   9.796   6.126
 3380POPC   D2A44884   9.705   9.514   6.483
 3380POPC   C3A44885   9.582   9.747   6.848
 3380POPC   C4A44886   9.532  10.052   7.201
 3380POPC   C1B44887   9.294   9.513   6.162
 3380POPC   C2B44888   9.180   9.480   6.630
 3380POPC   C3B44889   9.239   9.476   7.104
 3380POPC   C4B44890   9.638   9.542   7.322
 3381POPC   NC344891  12.412   8.258   5.238
 3381POPC   PO444892  11.856   8.326   5.505
 3381POPC   GL144893  11.723   8.485   5.907
 3381POPC   GL244894  12.055   8.532   6.039
 3381POPC   C1A44895  11.710   8.252   6.298
 3381POPC   D2A44896  11.899   8.241   6.703
 3381POPC   C3A44897  11.818   8.034   7.062
 3381POPC   C4A44898  11.941   8.294   7.390
 3381POPC   C1B44899  12.251   8.215   6.335
 3381POPC   C2B44900  12.349   7.989   6.762
 3381POPC   C3B44901  12.324   7.983   7.234
 3381POPC   C4B44902  11.980   7.804   7.489
 3382POPC   NC344903  27.145   3.050   5.424
 3382POPC   PO444904  27.208   3.686   5.186
 3382POPC   GL144905  27.236   3.747   5.681
 3382POPC   GL244906  27.239   3.412   5.792
 3382POPC   C1A44907  27.384   3.861   6.124
 3382POPC   D2A44908  27.494   3.673   6.589
 3382POPC   C3A44909  27.872   3.640   6.821
 3382POPC   C4A44910  27.903   3.567   7.272
 3382POPC   C1B44911  27.356   3.360   6.215
 3382POPC   C2B44912  27.746   3.246   6.486
 3382POPC   C3B44913  27.603   3.212   6.923
 3382POPC   C4B44914  27.262   3.446   7.120
 3383POPC   NC344915  20.096   9.348   5.437
 3383POPC   PO444916  19.863  10.018   5.494
 3383POPC   GL144917  19.734   9.857   5.924
 3383POPC   GL244918  19.935   9.543   5.907
 3383POPC   C1A44919  19.843   9.759   6.381
 3383POPC   D2A44920  19.855   9.428   6.694
 3383POPC   C3A44921  19.553   9.436   7.026
 3383POPC   C4A44922  19.461   9.860   7.180
 3383POPC   C1B44923  20.209   9.895   6.054
 3383POPC   C2B44924  20.336  10.010   6.426
 3383POPC   C3B44925  20.248   9.910   6.845
 3383POPC   C4B44926  19.966   9.704   7.136
 3384POPC   NC344927   5.245  21.644   5.225
 3384POPC   PO444928   4.874  21.119   5.257
 3384POPC   GL144929   5.057  21.189   5.699
 3384POPC   GL244930   4.806  21.364   5.895
 3384POPC   C1A44931   5.253  21.298   6.138
 3384POPC   D2A44932   5.478  21.313   6.513
 3384POPC   C3A44933   5.322  21.377   6.887
 3384POPC   C4A44934   5.178  21.370   7.280
 3384POPC   C1B44935   4.836  21.009   6.163
 3384POPC   C2B44936   5.039  21.001   6.570
 3384POPC   C3B44937   4.873  21.073   6.995
 3384POPC   C4B44938   4.854  21.020   7.466
 3385POPC   NC344939  36.469  35.169   5.205
 3385POPC   PO444940  36.046  35.667   5.467
 3385POPC   GL144941  36.140  35.541   5.859
 3385POPC   GL244942  36.415  35.352   5.716
 3385POPC   C1A44943  36.060  35.338   6.253
 3385POPC   D2A44944  36.127  35.432   6.685
 3385POPC   C3A44945  35.965  35.200   7.025
 3385POPC   C4A44946  36.203  35.435   7.332
 3385POPC   C1B44947  36.468  35.048   6.070
 3385POPC   C2B44948  36.450  35.023   6.541
 3385POPC   C3B44949  36.454  35.063   7.021
 3385POPC   C4B44950  36.500  34.942   7.483
 3386POPC   NC344951  34.008   6.085   5.415
 3386POPC   PO444952  33.554   5.654   5.360
 3386POPC   GL144953  33.642   5.534   5.781
 3386POPC   GL244954  33.982   5.654   5.781
 3386POPC   C1A44955  33.650   5.524   6.230
 3386POPC   D2A44956  33.453   5.712   6.584
 3386POPC   C3A44957  33.663   5.842   6.956
 3386POPC   C4A44958  33.528   5.960   7.363
 3386POPC   C1B44959  33.991   5.903   6.154
 3386POPC   C2B44960  34.086   5.893   6.593
 3386POPC   C3B44961  34.044   6.188   6.922
 3386POPC   C4B44962  33.932   6.284   7.320
 3387POPC   NC344963   2.661   7.840   5.515
 3387POPC   PO444964   2.350   8.305   5.228
 3387POPC   GL144965   2.533   8.302   5.683
 3387POPC   GL244966   2.893   8.272   5.788
 3387POPC   C1A44967   2.576   8.081   6.114
 3387POPC   D2A44968   2.737   8.168   6.518
 3387POPC   C3A44969   2.491   8.257   6.861
 3387POPC   C4A44970   2.573   8.351   7.295
 3387POPC   C1B44971   3.145   8.139   6.197
 3387POPC   C2B44972   3.224   8.181   6.658
 3387POPC   C3B44973   2.964   8.107   7.019
 3387POPC   C4B44974   2.951   8.069   7.493
 3388POPC   NC344975  13.110  43.006   5.307
 3388POPC   PO444976  12.612  43.442   5.514
 3388POPC   GL144977  12.816  43.127   5.790
 3388POPC   GL244978  13.188  43.101   5.805
 3388POPC   C1A44979  12.635  43.161   6.200
 3388POPC   D2A44980  12.565  42.951   6.577
 3388POPC   C3A44981  12.546  43.276   6.876
 3388POPC   C4A44982  12.603  43.174   7.265
 3388POPC   C1B44983  13.149  43.257   6.197
 3388POPC   C2B44984  12.991  43.284   6.600
 3388POPC   C3B44985  13.059  43.163   7.016
 3388POPC   C4B44986  13.065  43.127   7.445
 3389POPC   NC344987  43.237  21.703   5.537
 3389POPC   PO444988  43.039  20.989   5.371
 3389POPC   GL144989  43.104  21.232   5.807
 3389POPC   GL244990  42.947  21.571   5.919
 3389POPC   C1A44991  43.059  21.157   6.287
 3389POPC   D2A44992  43.198  20.953   6.701
 3389POPC   C3A44993  43.123  21.175   7.108
 3389POPC   C4A44994  42.773  21.161   7.379
 3389POPC   C1B44995  43.216  21.656   6.251
 3389POPC   C2B44996  43.216  21.485   6.673
 3389POPC   C3B44997  43.125  21.723   7.017
 3389POPC   C4B44998  43.468  21.617   7.199
 3390POPC   NC344999   1.674  34.433   5.441
 3390POPC   PO445000   2.309  34.585   5.392
 3390POPC   GL145001   2.073  34.490   5.775
 3390POPC   GL245002   1.998  34.827   5.857
 3390POPC   C1A45003   1.947  34.477   6.233
 3390POPC   D2A45004   1.792  34.642   6.646
 3390POPC   C3A45005   1.981  34.360   6.903
 3390POPC   C4A45006   2.122  34.361   7.309
 3390POPC   C1B45007   2.264  34.892   6.227
 3390POPC   C2B45008   2.321  34.689   6.614
 3390POPC   C3B45009   2.212  34.791   7.017
 3390POPC   C4B45010   2.124  35.041   7.342
 3391POPC   NC345011  15.289   9.416   5.405
 3391POPC   PO445012  15.211  10.065   5.400
 3391POPC   GL145013  15.140   9.990   5.833
 3391POPC   GL245014  15.484   9.865   5.820
 3391POPC   C1A45015  15.114   9.844   6.293
 3391POPC   D2A45016  15.080   9.662   6.745
 3391POPC   C3A45017  14.850   9.813   7.136
 3391POPC   C4A45018  14.626   9.774   7.575
 3391POPC   C1B45019  15.628   9.824   6.248
 3391POPC   C2B45020  15.485   9.961   6.656
 3391POPC   C3B45021  15.386   9.945   7.093
 3391POPC   C4B45022  15.650   9.848   7.477
 3392POPC   NC345023   2.702  23.296   5.335
 3392POPC   PO445024   2.966  23.915   5.316
 3392POPC   GL145025   2.753  23.781   5.722
 3392POPC   GL245026   2.547  23.483   5.781
 3392POPC   C1A45027   2.674  23.796   6.192
 3392POPC   D2A45028   2.676  24.144   6.504
 3392POPC   C3A45029   2.783  24.135   6.939
 3392POPC   C4A45030   2.501  24.207   7.253
 3392POPC   C1B45031   2.937  23.377   6.001
 3392POPC   C2B45032   2.948  23.432   6.462
 3392POPC   C3B45033   2.660  23.416   6.842
 3392POPC   C4B45034   2.602  23.697   7.217
 3393POPC   NC345035  44.834   2.027   5.319
 3393POPC   PO445036  44.195   1.739   5.371
 3393POPC   GL145037  44.511   1.859   5.736
 3393POPC   GL245038  44.706   2.192   5.787
 3393POPC   C1A45039  44.573   1.931   6.195
 3393POPC   D2A45040  44.443   2.082   6.593
 3393POPC   C3A45041  44.592   1.797   6.893
 3393POPC   C4A45042  44.565   1.895   7.313
 3393POPC   C1B45043  44.970   2.246   6.175
 3393POPC   C2B45044  44.970   2.088   6.617
 3393POPC   C3B45045  44.875   2.226   7.053
 3393POPC   C4B45046  44.928   2.223   7.517
 3394POPC   NC345047  38.885  32.458   5.042
 3394POPC   PO445048  38.938  31.895   5.477
 3394POPC   GL145049  39.169  32.012   5.840
 3394POPC   GL245050  39.494  32.175   5.840
 3394POPC   C1A45051  39.129  32.155   6.274
 3394POPC   D2A45052  39.061  32.398   6.651
 3394POPC   C3A45053  39.102  32.214   7.039
 3394POPC   C4A45054  39.448  32.011   7.169
 3394POPC   C1B45055  39.577  32.429   6.196
 3394POPC   C2B45056  39.537  32.266   6.599
 3394POPC   C3B45057  39.566  32.471   6.967
 3394POPC   C4B45058  39.675  32.427   7.373
 3395POPC   NC345059  32.486  44.633   5.462
 3395POPC   PO445060  32.129   0.095   5.265
 3395POPC   GL145061  32.210  44.996   5.740
 3395POPC   GL245062  32.322  44.674   5.922
 3395POPC   C1A45063  32.268   0.061   6.227
 3395POPC   D2A45064  32.373  44.752   6.572
 3395POPC   C3A45065  32.184  44.802   6.964
 3395POPC   C4A45066  32.433  44.792   7.332
 3395POPC   C1B45067  32.171  44.413   6.230
 3395POPC   C2B45068  32.135  44.280   6.652
 3395POPC   C3B45069  31.944  44.362   7.028
 3395POPC   C4B45070  32.122  44.264   7.402
 3396POPC   NC345071  27.308  19.519   5.467
 3396POPC   PO445072  26.792  20.051   5.351
 3396POPC   GL145073  26.760  19.814   5.736
 3396POPC   GL245074  26.830  19.473   5.670
 3396POPC   C1A45075  26.880  19.853   6.174
 3396POPC   D2A45076  26.695  19.914   6.593
 3396POPC   C3A45077  26.934  19.965   6.985
 3396POPC   C4A45078  26.749  20.233   7.276
 3396POPC   C1B45079  26.999  19.356   6.078
 3396POPC   C2B45080  26.831  19.423   6.483
 3396POPC   C3B45081  26.723  19.494   6.897
 3396POPC   C4B45082  27.012  19.484   7.201
 3397POPC   NC345083  38.605  31.568   5.401
 3397POPC   PO445084  37.981  31.642   5.335
 3397POPC   GL145085  38.196  31.478   5.720
 3397POPC   GL245086  37.999  31.189   5.779
 3397POPC   C1A45087  38.586  31.450   6.025
 3397POPC   D2A45088  38.809  31.399   6.406
 3397POPC   C3A45089  38.551  31.471   6.754
 3397POPC   C4A45090  38.653  31.519   7.161
 3397POPC   C1B45091  38.177  31.220   6.188
 3397POPC   C2B45092  38.081  31.353   6.557
 3397POPC   C3B45093  38.071  31.218   6.931
 3397POPC   C4B45094  38.198  31.361   7.331
 3398POPC   NC345095  13.071  23.498   5.554
 3398POPC   PO445096  13.670  23.692   5.321
 3398POPC   GL145097  13.717  23.844   5.726
 3398POPC   GL245098  13.387  23.843   5.790
 3398POPC   C1A45099  13.727  23.689   6.156
 3398POPC   D2A45100  13.459  23.701   6.534
 3398POPC   C3A45101  13.737  23.714   6.893
 3398POPC   C4A45102  13.740  23.584   7.314
 3398POPC   C1B45103  13.378  24.086   6.165
 3398POPC   C2B45104  13.312  24.212   6.598
 3398POPC   C3B45105  13.469  24.131   7.012
 3398POPC   C4B45106  13.428  24.075   7.445
 3399POPC   NC345107  21.099   3.641   5.564
 3399POPC   PO445108  20.545   3.507   5.283
 3399POPC   GL145109  20.474   3.466   5.775
 3399POPC   GL245110  20.502   3.127   5.938
 3399POPC   C1A45111  20.521   3.688   6.208
 3399POPC   D2A45112  20.814   3.852   6.550
 3399POPC   C3A45113  20.830   3.708   6.989
 3399POPC   C4A45114  20.478   3.742   7.210
 3399POPC   C1B45115  20.729   3.248   6.336
 3399POPC   C2B45116  20.517   3.387   6.732
 3399POPC   C3B45117  20.244   3.295   7.107
 3399POPC   C4B45118  20.227   3.234   7.586
 3400POPC   NC345119  40.474  25.879   5.690
 3400POPC   PO445120  40.857  26.312   5.268
 3400POPC   GL145121  40.858  26.218   5.760
 3400POPC   GL245122  40.549  26.252   6.003
 3400POPC   C1A45123  40.940  26.038   6.205
 3400POPC   D2A45124  40.692  25.830   6.550
 3400POPC   C3A45125  41.018  25.798   6.848
 3400POPC   C4A45126  41.163  25.964   7.220
 3400POPC   C1B45127  40.624  26.571   6.271
 3400POPC   C2B45128  40.518  26.531   6.686
 3400POPC   C3B45129  40.635  26.175   6.948
 3400POPC   C4B45130  40.745  26.197   7.367
 3401POPC   NC345131   0.556  28.892   5.395
 3401POPC   PO445132   0.956  29.474   5.531
 3401POPC   GL145133   0.901  29.155   5.908
 3401POPC   GL245134   0.606  28.881   5.949
 3401POPC   C1A45135   0.635  29.256   6.293
 3401POPC   D2A45136   0.663  29.128   6.728
 3401POPC   C3A45137   0.529  29.426   7.017
 3401POPC   C4A45138   0.321  29.442   7.390
 3401POPC   C1B45139   0.272  28.914   6.341
 3401POPC   C2B45140   0.161  29.136   6.755
 3401POPC   C3B45141   0.368  28.975   7.164
 3401POPC   C4B45142   0.151  28.970   7.574
 3402POPC   NC345143   0.984   9.575   5.290
 3402POPC   PO445144   1.542   9.706   5.617
 3402POPC   GL145145   1.380   9.485   5.943
 3402POPC   GL245146   1.074   9.549   5.799
 3402POPC   C1A45147   1.210   9.525   6.364
 3402POPC   D2A45148   1.328   9.913   6.512
 3402POPC   C3A45149   1.390   9.941   6.940
 3402POPC   C4A45150   1.237   9.585   7.173
 3402POPC   C1B45151   1.071   9.903   6.065
 3402POPC   C2B45152   0.808   9.921   6.412
 3402POPC   C3B45153   0.918   9.735   6.790
 3402POPC   C4B45154   0.901   9.966   7.171
 3403POPC   NC345155  32.078  43.735   5.626
 3403POPC   PO445156  32.073  44.429   5.516
 3403POPC   GL145157  32.345  44.166   5.781
 3403POPC   GL245158  32.671  44.249   5.768
 3403POPC   C1A45159  32.412  43.927   6.171
 3403POPC   D2A45160  32.258  43.726   6.547
 3403POPC   C3A45161  32.367  43.901   6.916
 3403POPC   C4A45162  32.217  43.787   7.257
 3403POPC   C1B45163  32.822  44.269   6.174
 3403POPC   C2B45164  32.625  44.206   6.571
 3403POPC   C3B45165  32.502  44.393   6.989
 3403POPC   C4B45166  32.654  44.333   7.411
 3404POPC   NC345167  28.957  36.521   5.434
 3404POPC   PO445168  29.414  36.102   5.214
 3404POPC   GL145169  29.294  36.250   5.717
 3404POPC   GL245170  29.095  35.975   5.908
 3404POPC   C1A45171  29.212  36.375   6.198
 3404POPC   D2A45172  29.356  36.414   6.668
 3404POPC   C3A45173  29.159  36.351   7.084
 3404POPC   C4A45174  28.802  36.364   7.386
 3404POPC   C1B45175  29.417  35.917   6.246
 3404POPC   C2B45176  29.397  35.926   6.613
 3404POPC   C3B45177  29.522  35.991   6.979
 3404POPC   C4B45178  29.279  35.856   7.326
 3405POPC   NC345179   7.537  36.609   5.439
 3405POPC   PO445180   7.146  37.092   5.212
 3405POPC   GL145181   7.281  37.040   5.685
 3405POPC   GL245182   7.312  36.695   5.895
 3405POPC   C1A45183   7.552  37.104   6.075
 3405POPC   D2A45184   7.416  36.960   6.468
 3405POPC   C3A45185   7.412  37.076   6.864
 3405POPC   C4A45186   7.459  36.734   7.119
 3405POPC   C1B45187   7.661  36.585   6.219
 3405POPC   C2B45188   7.846  36.703   6.647
 3405POPC   C3B45189   7.889  36.987   7.008
 3405POPC   C4B45190   7.834  36.888   7.444
 3406POPC   NC345191  11.412  26.286   5.152
 3406POPC   PO445192  11.237  25.750   5.560
 3406POPC   GL145193  11.109  25.951   5.938
 3406POPC   GL245194  11.258  26.263   5.795
 3406POPC   C1A45195  11.063  26.014   6.435
 3406POPC   D2A45196  11.033  25.884   6.887
 3406POPC   C3A45197  11.448  25.896   7.103
 3406POPC   C4A45198  11.593  25.893   7.559
 3406POPC   C1B45199  11.420  26.257   6.182
 3406POPC   C2B45200  11.334  26.484   6.524
 3406POPC   C3B45201  11.280  26.338   6.916
 3406POPC   C4B45202  11.343  26.320   7.358
 3407POPC   NC345203   9.824  13.655   5.295
 3407POPC   PO445204  10.048  13.039   5.119
 3407POPC   GL145205   9.784  13.194   5.555
 3407POPC   GL245206   9.607  13.498   5.723
 3407POPC   C1A45207   9.920  13.305   6.074
 3407POPC   D2A45208   9.930  13.708   6.353
 3407POPC   C3A45209   9.981  13.725   6.804
 3407POPC   C4A45210   9.896  13.622   7.236
 3407POPC   C1B45211   9.500  13.789   6.094
 3407POPC   C2B45212   9.396  13.711   6.546
 3407POPC   C3B45213   9.510  13.816   6.965
 3407POPC   C4B45214   9.722  14.104   7.185
 3408POPC   NC345215   0.632  36.343   5.470
 3408POPC   PO445216   0.305  35.915   5.190
 3408POPC   GL145217   0.377  35.924   5.665
 3408POPC   GL245218   0.147  35.701   5.774
 3408POPC   C1A45219   0.599  35.891   6.121
 3408POPC   D2A45220   0.713  35.716   6.571
 3408POPC   C3A45221   0.597  35.968   6.984
 3408POPC   C4A45222   0.688  36.268   7.381
 3408POPC   C1B45223   0.088  35.881   6.201
 3408POPC   C2B45224   0.207  35.801   6.646
 3408POPC   C3B45225   0.078  35.891   7.078
 3408POPC   C4B45226   0.227  36.050   7.437
 3409POPC   NC345227  44.582  11.708   5.546
 3409POPC   PO445228  44.216  11.202   5.443
 3409POPC   GL145229  44.503  11.190   5.797
 3409POPC   GL245230  44.845  11.334   5.811
 3409POPC   C1A45231  44.560  11.044   6.220
 3409POPC   D2A45232  44.753  10.884   6.606
 3409POPC   C3A45233  44.561  10.804   7.016
 3409POPC   C4A45234  44.645  11.057   7.379
 3409POPC   C1B45235  44.861  11.551   6.220
 3409POPC   C2B45236   0.082  11.502   6.642
 3409POPC   C3B45237   0.081  11.516   7.109
 3409POPC   C4B45238  44.815  11.497   7.533
 3410POPC   NC345239  11.403  16.995   5.361
 3410POPC   PO445240  11.039  16.393   5.443
 3410POPC   GL145241  11.250  16.568   5.805
 3410POPC   GL245242  11.386  16.898   5.859
 3410POPC   C1A45243  11.393  16.512   6.228
 3410POPC   D2A45244  11.484  16.696   6.630
 3410POPC   C3A45245  11.324  16.551   7.049
 3410POPC   C4A45246  11.063  16.711   7.342
 3410POPC   C1B45247  11.639  17.036   6.226
 3410POPC   C2B45248  11.590  17.209   6.656
 3410POPC   C3B45249  11.620  16.977   7.066
 3410POPC   C4B45250  11.508  16.980   7.515
 3411POPC   NC345251  32.144  43.120   5.366
 3411POPC   PO445252  32.635  43.604   5.465
 3411POPC   GL145253  32.414  43.354   5.775
 3411POPC   GL245254  32.391  42.991   5.820
 3411POPC   C1A45255  32.273  43.351   6.196
 3411POPC   D2A45256  32.255  43.118   6.570
 3411POPC   C3A45257  32.279  43.364   6.930
 3411POPC   C4A45258  32.047  43.268   7.253
 3411POPC   C1B45259  32.621  42.976   6.183
 3411POPC   C2B45260  32.724  42.884   6.585
 3411POPC   C3B45261  32.685  43.056   6.968
 3411POPC   C4B45262  32.553  42.979   7.377
 3412POPC   NC345263  27.904  17.865   5.483
 3412POPC   PO445264  27.395  17.451   5.356
 3412POPC   GL145265  27.576  17.477   5.746
 3412POPC   GL245266  27.809  17.211   5.681
 3412POPC   C1A45267  27.488  17.597   6.190
 3412POPC   D2A45268  27.615  17.785   6.597
 3412POPC   C3A45269  27.662  17.540   6.985
 3412POPC   C4A45270  27.462  17.448   7.425
 3412POPC   C1B45271  27.903  17.303   6.108
 3412POPC   C2B45272  27.647  17.199   6.452
 3412POPC   C3B45273  27.681  17.057   6.819
 3412POPC   C4B45274  27.749  17.098   7.226
 3413POPC   NC345275  26.348  31.632   5.427
 3413POPC   PO445276  25.751  31.850   5.330
 3413POPC   GL145277  25.810  31.525   5.657
 3413POPC   GL245278  26.054  31.268   5.701
 3413POPC   C1A45279  25.789  31.408   6.109
 3413POPC   D2A45280  25.853  31.709   6.452
 3413POPC   C3A45281  25.863  31.535   6.866
 3413POPC   C4A45282  25.831  31.708   7.259
 3413POPC   C1B45283  26.247  31.566   6.060
 3413POPC   C2B45284  26.412  31.694   6.456
 3413POPC   C3B45285  26.369  31.663   6.888
 3413POPC   C4B45286  26.660  31.824   7.195
 3414POPC   NC345287  37.450  28.564   5.419
 3414POPC   PO445288  37.920  28.065   5.482
 3414POPC   GL145289  37.688  28.283   5.803
 3414POPC   GL245290  37.341  28.208   5.837
 3414POPC   C1A45291  37.775  28.278   6.242
 3414POPC   D2A45292  37.892  27.984   6.566
 3414POPC   C3A45293  37.806  28.144   6.969
 3414POPC   C4A45294  38.066  28.239   7.291
 3414POPC   C1B45295  37.370  28.577   6.158
 3414POPC   C2B45296  37.498  28.600   6.632
 3414POPC   C3B45297  37.545  28.574   7.122
 3414POPC   C4B45298  37.466  28.703   7.618
 3415POPC   NC345299  28.477  20.747   5.279
 3415POPC   PO445300  28.340  20.097   5.282
 3415POPC   GL145301  28.466  20.333   5.706
 3415POPC   GL245302  28.522  20.698   5.765
 3415POPC   C1A45303  28.382  20.463   6.173
 3415POPC   D2A45304  28.369  20.293   6.568
 3415POPC   C3A45305  28.512  20.526   6.907
 3415POPC   C4A45306  28.259  20.493   7.212
 3415POPC   C1B45307  28.660  20.903   6.139
 3415POPC   C2B45308  28.585  20.882   6.547
 3415POPC   C3B45309  28.607  21.114   6.902
 3415POPC   C4B45310  28.534  20.975   7.265
 3416POPC   NC345311  37.408  21.814   5.069
 3416POPC   PO445312  37.570  21.221   5.444
 3416POPC   GL145313  37.591  21.554   5.739
 3416POPC   GL245314  37.257  21.730   5.765
 3416POPC   C1A45315  37.786  21.482   6.158
 3416POPC   D2A45316  37.693  21.258   6.544
 3416POPC   C3A45317  37.951  21.400   6.866
 3416POPC   C4A45318  37.764  21.646   7.179
 3416POPC   C1B45319  37.273  21.499   6.151
 3416POPC   C2B45320  37.182  21.323   6.547
 3416POPC   C3B45321  37.371  21.339   6.967
 3416POPC   C4B45322  37.250  21.622   7.297
 3417POPC   NC345323  23.466  37.673   5.151
 3417POPC   PO445324  24.025  38.041   5.232
 3417POPC   GL145325  23.802  37.749   5.530
 3417POPC   GL245326  24.073  37.662   5.707
 3417POPC   C1A45327  23.652  37.744   5.992
 3417POPC   D2A45328  23.821  37.665   6.444
 3417POPC   C3A45329  23.668  37.784   6.861
 3417POPC   C4A45330  23.800  37.668   7.259
 3417POPC   C1B45331  24.105  37.425   6.095
 3417POPC   C2B45332  24.010  37.173   6.476
 3417POPC   C3B45333  23.988  37.357   6.870
 3417POPC   C4B45334  24.109  37.257   7.282
 3418POPC   NC345335  10.680   7.638   5.064
 3418POPC   PO445336  10.145   7.308   5.257
 3418POPC   GL145337  10.609   7.353   5.525
 3418POPC   GL245338  10.627   7.679   5.733
 3418POPC   C1A45339  10.749   7.141   5.956
 3418POPC   D2A45340  10.792   7.138   6.428
 3418POPC   C3A45341  10.611   7.060   6.838
 3418POPC   C4A45342  10.617   7.374   7.161
 3418POPC   C1B45343  10.563   7.595   6.217
 3418POPC   C2B45344  10.618   7.614   6.658
 3418POPC   C3B45345  10.313   7.739   6.942
 3418POPC   C4B45346  10.191   7.632   7.343
 3419POPC   NC345347  34.301  34.820   5.431
 3419POPC   PO445348  34.939  34.480   5.395
 3419POPC   GL145349  34.828  34.362   5.823
 3419POPC   GL245350  34.699  34.709   5.780
 3419POPC   C1A45351  34.653  34.234   6.239
 3419POPC   D2A45352  34.805  34.376   6.650
 3419POPC   C3A45353  34.556  34.630   6.928
 3419POPC   C4A45354  34.481  34.567   7.352
 3419POPC   C1B45355  34.820  34.724   6.192
 3419POPC   C2B45356  34.766  34.951   6.532
 3419POPC   C3B45357  34.986  34.891   6.877
 3419POPC   C4B45358  34.756  34.992   7.231
 3420POPC   NC345359  44.261  28.349   5.584
 3420POPC   PO445360  44.726  28.736   5.219
 3420POPC   GL145361  44.673  28.626   5.727
 3420POPC   GL245362  44.362  28.645   5.970
 3420POPC   C1A45363  44.700  28.264   6.061
 3420POPC   D2A45364  44.625  28.103   6.475
 3420POPC   C3A45365  44.801  28.278   6.873
 3420POPC   C4A45366  44.776  28.173   7.341
 3420POPC   C1B45367  44.626  28.672   6.357
 3420POPC   C2B45368  44.386  28.490   6.693
 3420POPC   C3B45369  44.339  28.240   7.101
 3420POPC   C4B45370  44.340  28.319   7.588
 3421POPC   NC345371  20.143  43.367   5.342
 3421POPC   PO445372  19.844  43.971   5.376
 3421POPC   GL145373  19.862  43.670   5.753
 3421POPC   GL245374  20.157  43.508   5.831
 3421POPC   C1A45375  19.791  43.554   6.207
 3421POPC   D2A45376  19.689  43.862   6.530
 3421POPC   C3A45377  19.777  43.748   6.973
 3421POPC   C4A45378  19.620  43.959   7.363
 3421POPC   C1B45379  20.189  43.875   6.165
 3421POPC   C2B45380  20.191  43.891   6.647
 3421POPC   C3B45381  20.153  44.068   7.074
 3421POPC   C4B45382  20.120  43.834   7.476
 3422POPC   NC345383   9.692  16.187   5.541
 3422POPC   PO445384   9.939  16.788   5.245
 3422POPC   GL145385  10.012  16.699   5.719
 3422POPC   GL245386   9.691  16.584   5.859
 3422POPC   C1A45387  10.009  16.796   6.196
 3422POPC   D2A45388   9.807  16.615   6.577
 3422POPC   C3A45389   9.606  16.806   6.958
 3422POPC   C4A45390   9.370  16.662   7.353
 3422POPC   C1B45391   9.968  16.288   6.119
 3422POPC   C2B45392  10.147  16.232   6.517
 3422POPC   C3B45393  10.264  16.525   6.814
 3422POPC   C4B45394  10.025  16.547   7.183
 3423POPC   NC345395  14.410  15.464   5.388
 3423POPC   PO445396  14.491  14.728   5.385
 3423POPC   GL145397  14.343  15.009   5.758
 3423POPC   GL245398  14.343  14.818   6.094
 3423POPC   C1A45399  14.301  15.313   6.142
 3423POPC   D2A45400  14.413  15.105   6.538
 3423POPC   C3A45401  14.306  15.280   6.913
 3423POPC   C4A45402  14.014  15.139   7.212
 3423POPC   C1B45403  14.756  15.089   6.136
 3423POPC   C2B45404  14.904  15.283   6.543
 3423POPC   C3B45405  14.816  15.199   6.986
 3423POPC   C4B45406  14.530  15.142   7.331
 3424POPC   NC345407  29.974  32.258   5.582
 3424POPC   PO445408  29.519  31.800   5.551
 3424POPC   GL145409  29.793  31.866   5.887
 3424POPC   GL245410  30.125  31.803   5.779
 3424POPC   C1A45411  29.872  32.147   6.249
 3424POPC   D2A45412  29.670  32.278   6.640
 3424POPC   C3A45413  29.921  32.285   7.008
 3424POPC   C4A45414  29.933  32.624   7.289
 3424POPC   C1B45415  30.323  31.864   6.198
 3424POPC   C2B45416  30.338  31.841   6.648
 3424POPC   C3B45417  30.328  31.883   7.107
 3424POPC   C4B45418  30.051  31.979   7.416
 3425POPC   NC345419   3.215  42.396   5.427
 3425POPC   PO445420   3.923  42.214   5.541
 3425POPC   GL145421   3.523  42.259   5.839
 3425POPC   GL245422   3.349  42.606   5.869
 3425POPC   C1A45423   3.457  42.352   6.306
 3425POPC   D2A45424   3.301  42.516   6.702
 3425POPC   C3A45425   3.423  42.275   7.081
 3425POPC   C4A45426   3.550  42.387   7.497
 3425POPC   C1B45427   3.707  42.769   6.115
 3425POPC   C2B45428   3.778  42.928   6.527
 3425POPC   C3B45429   3.797  42.690   6.902
 3425POPC   C4B45430   3.923  42.703   7.338
 3426POPC   NC345431  12.811   0.395   5.514
 3426POPC   PO445432  13.436   0.480   5.327
 3426POPC   GL145433  13.165   0.547   5.841
 3426POPC   GL245434  13.128   0.263   6.059
 3426POPC   C1A45435  12.775   0.549   6.202
 3426POPC   D2A45436  12.730   0.374   6.581
 3426POPC   C3A45437  12.758   0.725   6.811
 3426POPC   C4A45438  12.687   0.748   7.228
 3426POPC   C1B45439  13.012  44.965   6.391
 3426POPC   C2B45440  12.801  44.895   6.777
 3426POPC   C3B45441  12.803   0.253   7.092
 3426POPC   C4B45442  13.148   0.572   7.104
 3427POPC   NC345443  22.058  36.597   5.007
 3427POPC   PO445444  22.481  36.881   5.408
 3427POPC   GL145445  22.408  36.736   5.889
 3427POPC   GL245446  22.059  36.793   5.879
 3427POPC   C1A45447  22.341  36.950   6.341
 3427POPC   D2A45448  22.513  36.930   6.721
 3427POPC   C3A45449  22.252  36.980   7.043
 3427POPC   C4A45450  22.275  36.834   7.443
 3427POPC   C1B45451  21.843  36.991   6.232
 3427POPC   C2B45452  21.928  37.164   6.656
 3427POPC   C3B45453  21.724  37.001   7.034
 3427POPC   C4B45454  21.771  36.724   7.404
 3428POPC   NC345455  13.043  27.243   5.464
 3428POPC   PO445456  12.610  27.778   5.443
 3428POPC   GL145457  12.860  27.648   5.843
 3428POPC   GL245458  13.005  27.316   5.980
 3428POPC   C1A45459  12.889  27.777   6.290
 3428POPC   D2A45460  12.901  27.551   6.701
 3428POPC   C3A45461  13.112  27.609   7.106
 3428POPC   C4A45462  12.857  27.858   7.376
 3428POPC   C1B45463  12.675  27.302   6.273
 3428POPC   C2B45464  12.492  27.229   6.675
 3428POPC   C3B45465  12.589  27.315   7.111
 3428POPC   C4B45466  12.604  27.385   7.543
 3429POPC   NC345467  11.084  20.892   5.371
 3429POPC   PO445468  11.442  20.386   5.304
 3429POPC   GL145469  11.333  20.385   5.738
 3429POPC   GL245470  10.994  20.349   5.776
 3429POPC   C1A45471  11.436  20.259   6.164
 3429POPC   D2A45472  11.278  20.182   6.585
 3429POPC   C3A45473  11.504  20.405   6.891
 3429POPC   C4A45474  11.437  20.739   7.180
 3429POPC   C1B45475  11.001  20.560   6.203
 3429POPC   C2B45476  11.142  20.683   6.625
 3429POPC   C3B45477  11.008  20.489   7.016
 3429POPC   C4B45478  10.985  20.712   7.415
 3430POPC   NC345479  11.091   1.597   5.544
 3430POPC   PO445480  11.630   1.099   5.320
 3430POPC   GL145481  11.482   1.099   5.766
 3430POPC   GL245482  11.135   1.156   5.789
 3430POPC   C1A45483  11.388   1.297   6.216
 3430POPC   D2A45484  11.593   1.356   6.631
 3430POPC   C3A45485  11.467   1.363   7.097
 3430POPC   C4A45486  11.309   1.310   7.524
 3430POPC   C1B45487  10.937   1.043   6.188
 3430POPC   C2B45488  10.942   1.383   6.507
 3430POPC   C3B45489  10.953   1.437   6.962
 3430POPC   C4B45490  10.960   1.079   7.224
 3431POPC   NC345491  15.473  29.893   5.420
 3431POPC   PO445492  14.813  29.607   5.508
 3431POPC   GL145493  15.060  29.880   5.830
 3431POPC   GL245494  14.938  30.242   5.867
 3431POPC   C1A45495  15.207  29.881   6.294
 3431POPC   D2A45496  15.257  29.596   6.653
 3431POPC   C3A45497  15.388  29.785   7.011
 3431POPC   C4A45498  15.194  30.040   7.270
 3431POPC   C1B45499  15.199  30.383   6.234
 3431POPC   C2B45500  15.169  30.247   6.669
 3431POPC   C3B45501  15.119  30.472   7.000
 3431POPC   C4B45502  14.860  30.424   7.351
 3432POPC   NC345503  19.508  12.002   5.427
 3432POPC   PO445504  20.161  12.157   5.279
 3432POPC   GL145505  19.981  12.072   5.660
 3432POPC   GL245506  20.007  11.729   5.600
 3432POPC   C1A45507  19.988  12.195   6.111
 3432POPC   D2A45508  20.073  12.284   6.530
 3432POPC   C3A45509  19.750  12.241   6.828
 3432POPC   C4A45510  19.757  12.321   7.260
 3432POPC   C1B45511  19.904  11.684   6.052
 3432POPC   C2B45512  19.793  11.844   6.466
 3432POPC   C3B45513  20.019  11.811   6.860
 3432POPC   C4B45514  19.827  11.799   7.250
 3433POPC   NC345515  22.121   5.912   5.295
 3433POPC   PO445516  22.671   5.995   5.637
 3433POPC   GL145517  22.283   5.848   5.849
 3433POPC   GL245518  21.919   5.874   5.769
 3433POPC   C1A45519  22.088   5.790   6.259
 3433POPC   D2A45520  22.051   5.739   6.694
 3433POPC   C3A45521  22.322   5.966   6.947
 3433POPC   C4A45522  22.071   5.764   7.246
 3433POPC   C1B45523  21.845   6.227   6.097
 3433POPC   C2B45524  21.985   6.259   6.545
 3433POPC   C3B45525  21.851   6.159   6.956
 3433POPC   C4B45526  21.883   6.207   7.392
 3434POPC   NC345527  13.789   3.357   5.425
 3434POPC   PO445528  13.397   3.861   5.510
 3434POPC   GL145529  13.486   3.528   5.815
 3434POPC   GL245530  13.818   3.389   5.934
 3434POPC   C1A45531  13.401   3.292   6.192
 3434POPC   D2A45532  13.669   3.177   6.522
 3434POPC   C3A45533  13.559   3.302   6.931
 3434POPC   C4A45534  13.498   3.419   7.346
 3434POPC   C1B45535  13.748   3.660   6.317
 3434POPC   C2B45536  13.576   3.769   6.737
 3434POPC   C3B45537  13.855   3.717   7.097
 3434POPC   C4B45538  14.209   3.581   7.385
 3435POPC   NC345539   2.350   4.620   5.133
 3435POPC   PO445540   1.835   4.298   5.538
 3435POPC   GL145541   1.987   4.187   5.905
 3435POPC   GL245542   1.992   3.845   5.841
 3435POPC   C1A45543   2.027   4.379   6.282
 3435POPC   D2A45544   2.079   4.261   6.691
 3435POPC   C3A45545   2.284   4.527   6.982
 3435POPC   C4A45546   2.142   4.694   7.360
 3435POPC   C1B45547   1.639   3.896   6.135
 3435POPC   C2B45548   1.620   4.088   6.505
 3435POPC   C3B45549   1.686   4.011   6.922
 3435POPC   C4B45550   2.028   4.134   7.179
 3436POPC   NC345551  11.420  27.031   5.555
 3436POPC   PO445552  11.060  26.548   5.338
 3436POPC   GL145553  11.086  26.738   5.797
 3436POPC   GL245554  11.444  26.716   5.969
 3436POPC   C1A45555  11.109  26.975   6.209
 3436POPC   D2A45556  11.402  26.988   6.558
 3436POPC   C3A45557  11.117  26.858   6.847
 3436POPC   C4A45558  11.078  26.721   7.215
 3436POPC   C1B45559  11.794  26.583   6.254
 3436POPC   C2B45560  11.843  26.480   6.703
 3436POPC   C3B45561  11.617  26.678   7.045
 3436POPC   C4B45562  11.587  27.036   7.269
 3437POPC   NC345563   4.785  39.533   5.342
 3437POPC   PO445564   4.309  39.070   5.258
 3437POPC   GL145565   4.328  39.192   5.695
 3437POPC   GL245566   4.406  39.554   5.729
 3437POPC   C1A45567   4.175  39.069   6.117
 3437POPC   D2A45568   4.164  38.973   6.559
 3437POPC   C3A45569   3.942  39.223   6.819
 3437POPC   C4A45570   4.021  39.286   7.226
 3437POPC   C1B45571   4.607  39.349   6.085
 3437POPC   C2B45572   4.646  39.184   6.481
 3437POPC   C3B45573   4.485  39.264   6.881
 3437POPC   C4B45574   4.478  39.501   7.264
 3438POPC   NC345575  35.047   7.271   5.177
 3438POPC   PO445576  34.549   7.578   5.617
 3438POPC   GL145577  34.619   7.401   6.012
 3438POPC   GL245578  34.863   7.102   5.983
 3438POPC   C1A45579  34.720   7.611   6.380
 3438POPC   D2A45580  34.496   7.783   6.729
 3438POPC   C3A45581  34.506   7.505   7.080
 3438POPC   C4A45582  34.537   7.723   7.462
 3438POPC   C1B45583  35.135   7.281   6.315
 3438POPC   C2B45584  34.967   7.356   6.752
 3438POPC   C3B45585  34.948   7.208   7.166
 3438POPC   C4B45586  34.673   7.222   7.515
 3439POPC   NC345587   0.377   8.590   5.407
 3439POPC   PO445588   0.735   9.131   5.384
 3439POPC   GL145589   0.434   8.998   5.748
 3439POPC   GL245590   0.074   9.066   5.786
 3439POPC   C1A45591   0.386   9.120   6.191
 3439POPC   D2A45592   0.644   8.992   6.520
 3439POPC   C3A45593   0.433   9.020   6.904
 3439POPC   C4A45594   0.668   8.952   7.282
 3439POPC   C1B45595  44.956   8.849   6.170
 3439POPC   C2B45596   0.158   8.738   6.516
 3439POPC   C3B45597   0.127   8.503   6.861
 3439POPC   C4B45598   0.193   8.682   7.267
 3440POPC   NC345599  30.344  31.457   5.462
 3440POPC   PO445600  31.011  31.524   5.326
 3440POPC   GL145601  30.934  31.563   5.752
 3440POPC   GL245602  30.646  31.760   5.805
 3440POPC   C1A45603  31.055  31.723   6.164
 3440POPC   D2A45604  30.836  31.705   6.560
 3440POPC   C3A45605  31.028  31.617   6.982
 3440POPC   C4A45606  30.903  31.627   7.443
 3440POPC   C1B45607  30.623  31.421   6.133
 3440POPC   C2B45608  30.539  31.277   6.530
 3440POPC   C3B45609  30.533  31.454   6.923
 3440POPC   C4B45610  30.227  31.313   7.185
 3441POPC   NC345611  33.948  25.798   5.382
 3441POPC   PO445612  33.554  26.305   5.344
 3441POPC   GL145613  33.726  26.397   5.780
 3441POPC   GL245614  33.918  26.101   5.801
 3441POPC   C1A45615  33.827  26.300   6.252
 3441POPC   D2A45616  33.872  25.947   6.523
 3441POPC   C3A45617  33.729  26.136   6.844
 3441POPC   C4A45618  33.885  26.235   7.192
 3441POPC   C1B45619  33.737  25.750   6.066
 3441POPC   C2B45620  33.434  25.668   6.434
 3441POPC   C3B45621  33.555  25.663   6.877
 3441POPC   C4B45622  33.943  25.709   7.121
 3442POPC   NC345623  10.787  17.778   5.297
 3442POPC   PO445624  10.338  17.311   5.552
 3442POPC   GL145625  10.440  17.699   5.805
 3442POPC   GL245626  10.080  17.794   5.794
 3442POPC   C1A45627  10.597  17.841   6.274
 3442POPC   D2A45628  10.610  17.855   6.767
 3442POPC   C3A45629  10.636  17.476   7.025
 3442POPC   C4A45630  10.826  17.508   7.456
 3442POPC   C1B45631  10.181  17.547   6.213
 3442POPC   C2B45632  10.244  17.428   6.655
 3442POPC   C3B45633  10.165  17.643   7.039
 3442POPC   C4B45634  10.466  17.863   7.341
 3443POPC   NC345635   0.993  28.398   5.224
 3443POPC   PO445636   1.575  28.188   5.539
 3443POPC   GL145637   1.327  28.290   5.850
 3443POPC   GL245638   0.991  28.239   5.713
 3443POPC   C1A45639   1.510  28.367   6.249
 3443POPC   D2A45640   1.468  28.686   6.543
 3443POPC   C3A45641   1.487  28.507   6.940
 3443POPC   C4A45642   1.805  28.511   7.215
 3443POPC   C1B45643   0.955  28.105   6.154
 3443POPC   C2B45644   1.045  28.371   6.516
 3443POPC   C3B45645   0.999  28.374   6.956
 3443POPC   C4B45646   1.122  28.065   7.247
 3444POPC   NC345647  24.278  33.293   5.643
 3444POPC   PO445648  24.448  32.723   5.349
 3444POPC   GL145649  24.601  32.919   5.787
 3444POPC   GL245650  24.589  33.263   6.028
 3444POPC   C1A45651  24.396  32.829   6.189
 3444POPC   D2A45652  24.258  33.015   6.571
 3444POPC   C3A45653  24.413  32.803   6.933
 3444POPC   C4A45654  24.218  32.831   7.313
 3444POPC   C1B45655  24.946  33.467   6.256
 3444POPC   C2B45656  24.837  33.481   6.647
 3444POPC   C3B45657  24.574  33.296   6.960
 3444POPC   C4B45658  24.661  33.110   7.343
 3445POPC   NC345659  15.495  24.555   5.485
 3445POPC   PO445660  14.934  24.515   5.151
 3445POPC   GL145661  14.968  24.470   5.649
 3445POPC   GL245662  15.272  24.490   5.926
 3445POPC   C1A45663  14.828  24.360   6.100
 3445POPC   D2A45664  15.135  24.243   6.432
 3445POPC   C3A45665  15.190  24.476   6.814
 3445POPC   C4A45666  14.892  24.463   7.165
 3445POPC   C1B45667  15.546  24.518   6.332
 3445POPC   C2B45668  15.714  24.335   6.738
 3445POPC   C3B45669  15.561  24.343   7.161
 3445POPC   C4B45670  15.330  24.743   7.251
 3446POPC   NC345671  20.102   7.535   5.308
 3446POPC   PO445672  19.663   6.986   5.381
 3446POPC   GL145673  19.833   7.181   5.773
 3446POPC   GL245674  19.881   7.571   5.761
 3446POPC   C1A45675  19.684   7.335   6.180
 3446POPC   D2A45676  19.581   7.192   6.584
 3446POPC   C3A45677  19.561   7.495   6.937
 3446POPC   C4A45678  19.518   7.185   7.250
 3446POPC   C1B45679  20.159   7.518   6.120
 3446POPC   C2B45680  20.030   7.439   6.570
 3446POPC   C3B45681  20.027   7.372   7.031
 3446POPC   C4B45682  20.155   7.786   7.216
 3447POPC   NC345683   0.534  18.438   5.322
 3447POPC   PO445684   0.384  17.784   5.465
 3447POPC   GL145685   0.550  18.156   5.764
 3447POPC   GL245686   0.374  18.516   5.797
 3447POPC   C1A45687   0.677  18.371   6.183
 3447POPC   D2A45688   0.950  18.537   6.523
 3447POPC   C3A45689   0.853  18.367   6.943
 3447POPC   C4A45690   0.639  18.266   7.333
 3447POPC   C1B45691   0.136  18.424   6.182
 3447POPC   C2B45692   0.017  18.474   6.617
 3447POPC   C3B45693   0.317  18.426   6.973
 3447POPC   C4B45694   0.194  18.496   7.410
 3448POPC   NC345695  20.897  31.598   5.129
 3448POPC   PO445696  21.491  31.526   5.512
 3448POPC   GL145697  21.319  31.469   5.916
 3448POPC   GL245698  21.010  31.635   5.951
 3448POPC   C1A45699  21.557  31.527   6.283
 3448POPC   D2A45700  21.799  31.395   6.628
 3448POPC   C3A45701  21.595  31.550   6.988
 3448POPC   C4A45702  21.275  31.274   7.103
 3448POPC   C1B45703  21.174  31.890   6.268
 3448POPC   C2B45704  21.327  32.010   6.662
 3448POPC   C3B45705  21.068  31.994   6.993
 3448POPC   C4B45706  21.047  31.669   7.282
 3449POPC   NC345707  26.944   6.339   5.437
 3449POPC   PO445708  26.538   5.794   5.506
 3449POPC   GL145709  26.707   5.910   5.872
 3449POPC   GL245710  26.522   6.224   5.822
 3449POPC   C1A45711  26.749   5.734   6.305
 3449POPC   D2A45712  26.734   5.510   6.746
 3449POPC   C3A45713  26.907   5.628   7.194
 3449POPC   C4A45714  26.776   5.719   7.673
 3449POPC   C1B45715  26.670   6.260   6.255
 3449POPC   C2B45716  26.899   6.116   6.633
 3449POPC   C3B45717  26.774   6.101   7.051
 3449POPC   C4B45718  26.738   6.420   7.337
 3450POPC   NC345719  34.064  18.473   5.357
 3450POPC   PO445720  33.608  17.981   5.567
 3450POPC   GL145721  33.845  18.272   5.792
 3450POPC   GL245722  33.762  18.613   5.755
 3450POPC   C1A45723  33.754  18.279   6.223
 3450POPC   D2A45724  33.848  18.002   6.547
 3450POPC   C3A45725  33.750  18.177   6.935
 3450POPC   C4A45726  33.732  17.964   7.320
 3450POPC   C1B45727  34.042  18.708   6.120
 3450POPC   C2B45728  33.829  18.680   6.532
 3450POPC   C3B45729  33.870  18.724   6.970
 3450POPC   C4B45730  33.748  18.544   7.361
 3451POPC   NC345731  21.639  18.714   5.414
 3451POPC   PO445732  21.400  18.058   5.295
 3451POPC   GL145733  21.408  18.318   5.681
 3451POPC   GL245734  21.738  18.318   5.819
 3451POPC   C1A45735  21.198  18.356   6.088
 3451POPC   D2A45736  21.261  18.143   6.489
 3451POPC   C3A45737  21.493  18.346   6.823
 3451POPC   C4A45738  21.308  18.360   7.254
 3451POPC   C1B45739  21.549  17.966   6.083
 3451POPC   C2B45740  21.656  17.774   6.517
 3451POPC   C3B45741  21.821  17.958   6.909
 3451POPC   C4B45742  21.809  18.253   7.257
 3452POPC   NC345743   1.597  41.685   5.207
 3452POPC   PO445744   2.034  42.259   5.422
 3452POPC   GL145745   2.033  42.350   5.834
 3452POPC   GL245746   1.685  42.277   5.899
 3452POPC   C1A45747   2.055  42.136   6.221
 3452POPC   D2A45748   1.833  41.917   6.535
 3452POPC   C3A45749   2.114  42.016   6.842
 3452POPC   C4A45750   2.036  42.075   7.243
 3452POPC   C1B45751   1.459  42.238   6.281
 3452POPC   C2B45752   1.459  42.372   6.708
 3452POPC   C3B45753   1.570  42.116   7.063
 3452POPC   C4B45754   1.651  42.277   7.511
 3453POPC   NC345755  38.355  28.137   5.382
 3453POPC   PO445756  38.755  28.681   5.512
 3453POPC   GL145757  38.529  28.416   5.768
 3453POPC   GL245758  38.165  28.468   5.752
 3453POPC   C1A45759  38.453  28.229   6.154
 3453POPC   D2A45760  38.548  28.454   6.527
 3453POPC   C3A45761  38.414  28.289   6.908
 3453POPC   C4A45762  38.605  28.164   7.294
 3453POPC   C1B45763  38.150  28.652   6.182
 3453POPC   C2B45764  38.022  28.539   6.612
 3453POPC   C3B45765  38.041  28.690   7.017
 3453POPC   C4B45766  38.416  28.662   7.257
 3454POPC   NC345767   7.795  32.173   5.358
 3454POPC   PO445768   7.453  32.692   5.517
 3454POPC   GL145769   7.631  32.452   5.848
 3454POPC   GL245770   7.669  32.076   5.837
 3454POPC   C1A45771   7.455  32.435   6.270
 3454POPC   D2A45772   7.259  32.734   6.559
 3454POPC   C3A45773   7.389  32.561   6.915
 3454POPC   C4A45774   7.768  32.461   7.065
 3454POPC   C1B45775   7.428  31.930   6.178
 3454POPC   C2B45776   7.269  31.997   6.612
 3454POPC   C3B45777   7.421  32.054   7.033
 3454POPC   C4B45778   7.794  31.992   7.242
 3455POPC   NC345779  32.842  31.729   5.408
 3455POPC   PO445780  33.031  31.059   5.417
 3455POPC   GL145781  32.921  31.331   5.743
 3455POPC   GL245782  33.212  31.521   5.767
 3455POPC   C1A45783  32.967  31.359   6.203
 3455POPC   D2A45784  33.063  31.536   6.631
 3455POPC   C3A45785  32.857  31.303   6.992
 3455POPC   C4A45786  32.701  31.317   7.462
 3455POPC   C1B45787  33.428  31.601   6.173
 3455POPC   C2B45788  33.437  31.892   6.533
 3455POPC   C3B45789  33.358  31.905   6.997
 3455POPC   C4B45790  33.062  31.661   7.279
 3456POPC   NC345791   0.701  39.085   5.465
 3456POPC   PO445792   1.192  39.599   5.333
 3456POPC   GL145793   1.210  39.412   5.777
 3456POPC   GL245794   0.998  39.139   5.896
 3456POPC   C1A45795   1.348  39.350   6.220
 3456POPC   D2A45796   1.113  39.166   6.565
 3456POPC   C3A45797   1.146  39.319   7.000
 3456POPC   C4A45798   1.259  39.123   7.403
 3456POPC   C1B45799   0.856  39.495   6.171
 3456POPC   C2B45800   0.827  39.633   6.627
 3456POPC   C3B45801   0.666  39.553   7.051
 3456POPC   C4B45802   0.780  39.335   7.449
 3457POPC   NC345803  13.432  39.595   5.438
 3457POPC   PO445804  13.559  40.159   5.141
 3457POPC   GL145805  13.597  40.159   5.651
 3457POPC   GL245806  13.733  39.919   5.912
 3457POPC   C1A45807  13.535  40.327   6.130
 3457POPC   D2A45808  13.736  40.451   6.571
 3457POPC   C3A45809  13.576  40.269   6.941
 3457POPC   C4A45810  13.744  39.932   7.153
 3457POPC   C1B45811  13.482  39.832   6.305
 3457POPC   C2B45812  13.579  39.691   6.731
 3457POPC   C3B45813  13.934  39.502   6.978
 3457POPC   C4B45814  14.100  39.418   7.430
 3458POPC   NC345815   7.144  37.546   5.235
 3458POPC   PO445816   7.643  37.901   5.527
 3458POPC   GL145817   7.352  37.657   5.846
 3458POPC   GL245818   7.104  37.878   6.049
 3458POPC   C1A45819   7.330  37.492   6.312
 3458POPC   D2A45820   7.156  37.517   6.735
 3458POPC   C3A45821   7.462  37.562   7.065
 3458POPC   C4A45822   7.545  37.264   7.322
 3458POPC   C1B45823   7.523  37.961   6.227
 3458POPC   C2B45824   7.558  37.846   6.621
 3458POPC   C3B45825   7.286  38.002   6.898
 3458POPC   C4B45826   7.462  38.042   7.290
 3459POPC   NC345827  28.375  16.993   5.384
 3459POPC   PO445828  28.990  17.299   5.533
 3459POPC   GL145829  28.700  16.970   5.788
 3459POPC   GL245830  28.424  16.666   5.777
 3459POPC   C1A45831  28.349  17.019   6.120
 3459POPC   D2A45832  28.128  17.031   6.519
 3459POPC   C3A45833  28.163  16.955   6.961
 3459POPC   C4A45834  28.419  16.710   7.189
 3459POPC   C1B45835  28.315  16.520   6.225
 3459POPC   C2B45836  28.341  16.584   6.675
 3459POPC   C3B45837  28.083  16.397   7.001
 3459POPC   C4B45838  28.195  16.298   7.421
 3460POPC   NC345839  27.075  20.418   5.540
 3460POPC   PO445840  27.690  20.614   5.180
 3460POPC   GL145841  27.582  20.526   5.666
 3460POPC   GL245842  27.605  20.831   5.903
 3460POPC   C1A45843  27.435  20.390   6.111
 3460POPC   D2A45844  27.538  20.551   6.533
 3460POPC   C3A45845  27.351  20.782   6.854
 3460POPC   C4A45846  27.380  20.452   7.189
 3460POPC   C1B45847  27.897  20.610   6.165
 3460POPC   C2B45848  28.046  20.670   6.609
 3460POPC   C3B45849  27.814  20.631   6.991
 3460POPC   C4B45850  27.621  20.974   7.249
 3461POPC   NC345851  33.137  32.493   5.412
 3461POPC   PO445852  33.316  31.835   5.345
 3461POPC   GL145853  33.150  32.036   5.732
 3461POPC   GL245854  32.820  32.224   5.775
 3461POPC   C1A45855  32.964  31.873   6.134
 3461POPC   D2A45856  32.710  32.056   6.471
 3461POPC   C3A45857  32.838  31.936   6.892
 3461POPC   C4A45858  32.671  31.982   7.295
 3461POPC   C1B45859  33.034  32.382   6.189
 3461POPC   C2B45860  33.126  32.294   6.653
 3461POPC   C3B45861  33.049  32.368   7.129
 3461POPC   C4B45862  33.270  32.583   7.528
 3462POPC   NC345863  26.784  26.223   5.188
 3462POPC   PO445864  26.372  25.876   5.629
 3462POPC   GL145865  26.155  26.250   5.901
 3462POPC   GL245866  25.866  26.495   5.742
 3462POPC   C1A45867  26.046  26.182   6.323
 3462POPC   D2A45868  25.940  25.921   6.619
 3462POPC   C3A45869  26.199  26.044   6.947
 3462POPC   C4A45870  25.988  25.874   7.268
 3462POPC   C1B45871  25.625  26.325   6.081
 3462POPC   C2B45872  25.499  26.193   6.512
 3462POPC   C3B45873  25.686  26.220   6.938
 3462POPC   C4B45874  25.555  26.407   7.307
 3463POPC   NC345875  14.300  28.539   5.057
 3463POPC   PO445876  14.633  28.630   5.632
 3463POPC   GL145877  14.469  28.241   5.835
 3463POPC   GL245878  14.801  28.126   5.816
 3463POPC   C1A45879  14.236  28.285   6.255
 3463POPC   D2A45880  14.126  28.617   6.596
 3463POPC   C3A45881  14.273  28.529   7.033
 3463POPC   C4A45882  14.197  28.107   7.228
 3463POPC   C1B45883  14.797  28.325   6.224
 3463POPC   C2B45884  14.607  28.355   6.620
 3463POPC   C3B45885  14.747  28.302   7.018
 3463POPC   C4B45886  14.601  28.310   7.447
 3464POPC   NC345887  42.719   3.886   5.151
 3464POPC   PO445888  43.139   3.416   5.414
 3464POPC   GL145889  43.025   3.541   5.798
 3464POPC   GL245890  42.689   3.439   5.892
 3464POPC   C1A45891  43.305   3.504   6.155
 3464POPC   D2A45892  43.233   3.581   6.571
 3464POPC   C3A45893  43.325   3.291   6.869
 3464POPC   C4A45894  43.278   3.596   7.183
 3464POPC   C1B45895  42.812   3.581   6.276
 3464POPC   C2B45896  42.831   3.267   6.603
 3464POPC   C3B45897  42.758   3.307   7.012
 3464POPC   C4B45898  42.816   3.567   7.378
 3465POPC   NC345899   2.843  10.215   5.455
 3465POPC   PO445900   2.869  10.958   5.248
 3465POPC   GL145901   2.804  10.766   5.728
 3465POPC   GL245902   2.603  10.485   5.802
 3465POPC   C1A45903   2.867  10.633   6.201
 3465POPC   D2A45904   2.895  10.454   6.613
 3465POPC   C3A45905   2.819  10.721   6.998
 3465POPC   C4A45906   2.927  10.819   7.430
 3465POPC   C1B45907   2.547  10.195   6.156
 3465POPC   C2B45908   2.390  10.207   6.567
 3465POPC   C3B45909   2.610  10.153   6.954
 3465POPC   C4B45910   2.754  10.351   7.346
 3466POPC   NC345911  42.628  20.350   5.409
 3466POPC   PO445912  42.216  20.813   5.423
 3466POPC   GL145913  42.354  20.639   5.777
 3466POPC   GL245914  42.115  20.363   5.688
 3466POPC   C1A45915  42.426  20.830   6.213
 3466POPC   D2A45916  42.655  20.980   6.605
 3466POPC   C3A45917  42.471  20.824   7.012
 3466POPC   C4A45918  42.492  20.482   7.318
 3466POPC   C1B45919  42.044  20.468   6.133
 3466POPC   C2B45920  42.114  20.589   6.580
 3466POPC   C3B45921  42.106  20.410   7.002
 3466POPC   C4B45922  42.020  20.473   7.451
 3467POPC   NC345923  24.439  37.839   5.335
 3467POPC   PO445924  24.162  37.254   5.415
 3467POPC   GL145925  24.489  37.362   5.749
 3467POPC   GL245926  24.588  37.726   5.817
 3467POPC   C1A45927  24.628  37.324   6.160
 3467POPC   D2A45928  24.409  37.476   6.519
 3467POPC   C3A45929  24.500  37.458   6.939
 3467POPC   C4A45930  24.302  37.782   7.144
 3467POPC   C1B45931  24.847  37.770   6.214
 3467POPC   C2B45932  24.919  37.534   6.600
 3467POPC   C3B45933  24.852  37.823   6.938
 3467POPC   C4B45934  24.688  38.121   7.206
 3468POPC   NC345935  41.758  25.525   5.044
 3468POPC   PO445936  41.283  25.048   5.385
 3468POPC   GL145937  41.683  25.171   5.717
 3468POPC   GL245938  41.815  24.878   5.926
 3468POPC   C1A45939  41.816  25.428   6.100
 3468POPC   D2A45940  41.895  25.185   6.505
 3468POPC   C3A45941  41.797  25.316   6.885
 3468POPC   C4A45942  41.771  25.082   7.225
 3468POPC   C1B45943  41.477  25.048   6.204
 3468POPC   C2B45944  41.432  25.407   6.498
 3468POPC   C3B45945  41.255  25.326   6.883
 3468POPC   C4B45946  41.147  25.455   7.243
 3469POPC   NC345947   3.229  31.177   5.469
 3469POPC   PO445948   2.560  31.512   5.480
 3469POPC   GL145949   2.813  31.458   5.818
 3469POPC   GL245950   2.699  31.146   5.891
 3469POPC   C1A45951   2.890  31.707   6.164
 3469POPC   D2A45952   2.672  31.776   6.556
 3469POPC   C3A45953   2.824  31.691   6.956
 3469POPC   C4A45954   2.802  31.300   7.157
 3469POPC   C1B45955   2.560  31.328   6.289
 3469POPC   C2B45956   2.511  31.289   6.741
 3469POPC   C3B45957   2.348  31.048   7.085
 3469POPC   C4B45958   2.408  31.178   7.490
 3470POPC   NC345959  14.116  23.780   5.411
 3470POPC   PO445960  14.792  23.600   5.525
 3470POPC   GL145961  14.437  23.740   5.828
 3470POPC   GL245962  14.107  23.512   5.826
 3470POPC   C1A45963  14.394  24.053   6.209
 3470POPC   D2A45964  14.646  24.198   6.595
 3470POPC   C3A45965  14.560  23.943   6.968
 3470POPC   C4A45966  14.148  23.853   7.195
 3470POPC   C1B45967  14.220  23.564   6.258
 3470POPC   C2B45968  14.199  23.697   6.672
 3470POPC   C3B45969  14.382  23.458   7.010
 3470POPC   C4B45970  14.546  23.641   7.399
 3471POPC   NC345971  29.188  16.414   5.318
 3471POPC   PO445972  28.734  15.892   5.430
 3471POPC   GL145973  28.957  16.001   5.815
 3471POPC   GL245974  29.302  15.995   5.799
 3471POPC   C1A45975  29.081  16.222   6.218
 3471POPC   D2A45976  29.294  16.181   6.620
 3471POPC   C3A45977  29.104  16.162   7.029
 3471POPC   C4A45978  29.167  16.209   7.487
 3471POPC   C1B45979  29.194  15.736   6.212
 3471POPC   C2B45980  28.899  15.824   6.589
 3471POPC   C3B45981  28.782  15.742   7.051
 3471POPC   C4B45982  28.833  15.830   7.515
 3472POPC   NC345983  28.334  39.183   5.291
 3472POPC   PO445984  28.901  39.573   5.513
 3472POPC   GL145985  28.484  39.373   5.743
 3472POPC   GL245986  28.247  39.003   5.750
 3472POPC   C1A45987  28.276  39.314   6.153
 3472POPC   D2A45988  28.412  39.417   6.574
 3472POPC   C3A45989  28.146  39.621   6.858
 3472POPC   C4A45990  28.301  39.576   7.262
 3472POPC   C1B45991  28.315  38.791   6.173
 3472POPC   C2B45992  28.357  38.897   6.629
 3472POPC   C3B45993  28.372  39.074   7.048
 3472POPC   C4B45994  28.098  39.121   7.413
 3473POPC   NC345995   0.258  15.604   5.474
 3473POPC   PO445996   0.681  16.082   5.452
 3473POPC   GL145997   0.487  15.931   5.837
 3473POPC   GL245998   0.816  15.847   5.939
 3473POPC   C1A45999   0.168  16.038   6.204
 3473POPC   D2A46000   0.015  16.162   6.636
 3473POPC   C3A46001   0.152  15.987   7.030
 3473POPC   C4A46002   0.205  15.541   7.128
 3473POPC   C1B46003   0.664  16.131   6.291
 3473POPC   C2B46004   0.498  15.933   6.647
 3473POPC   C3B46005   0.660  15.873   7.058
 3473POPC   C4B46006   0.661  16.260   7.250
 3474POPC   NC346007  35.519  18.065   5.289
 3474POPC   PO446008  35.160  18.695   5.166
 3474POPC   GL146009  35.289  18.471   5.549
 3474POPC   GL246010  35.662  18.434   5.634
 3474POPC   C1A46011  35.297  18.337   5.996
 3474POPC   D2A46012  35.110  18.372   6.422
 3474POPC   C3A46013  35.204  18.225   6.836
 3474POPC   C4A46014  35.096  18.515   7.180
 3474POPC   C1B46015  35.775  18.483   6.108
 3474POPC   C2B46016  35.788  18.675   6.559
 3474POPC   C3B46017  35.569  18.572   6.964
 3474POPC   C4B46018  35.582  18.140   7.172
 3475POPC   NC346019  12.770  39.120   5.323
 3475POPC   PO446020  13.478  39.139   5.411
 3475POPC   GL146021  13.126  39.227   5.699
 3475POPC   GL246022  12.967  38.899   5.758
 3475POPC   C1A46023  13.011  39.328   6.145
 3475POPC   D2A46024  13.148  39.457   6.565
 3475POPC   C3A46025  12.844  39.508   6.914
 3475POPC   C4A46026  12.940  39.668   7.331
 3475POPC   C1B46027  12.843  38.819   6.185
 3475POPC   C2B46028  12.748  39.105   6.560
 3475POPC   C3B46029  12.793  39.001   6.975
 3475POPC   C4B46030  12.969  38.846   7.374
 3476POPC   NC346031   1.999   6.595   5.227
 3476POPC   PO446032   1.601   6.792   5.705
 3476POPC   GL146033   2.072   6.782   5.856
 3476POPC   GL246034   2.144   6.485   6.044
 3476POPC   C1A46035   2.262   6.930   6.269
 3476POPC   D2A46036   1.965   7.050   6.617
 3476POPC   C3A46037   1.924   6.953   7.053
 3476POPC   C4A46038   2.240   6.890   7.342
 3476POPC   C1B46039   1.820   6.627   6.311
 3476POPC   C2B46040   1.816   6.577   6.717
 3476POPC   C3B46041   2.105   6.480   7.035
 3476POPC   C4B46042   2.030   6.365   7.469
 3477POPC   NC346043  17.864  29.756   5.364
 3477POPC   PO446044  18.281  30.357   5.377
 3477POPC   GL146045  18.283  30.378   5.853
 3477POPC   GL246046  18.613  30.290   5.907
 3477POPC   C1A46047  18.255  30.378   6.321
 3477POPC   D2A46048  18.266  29.958   6.549
 3477POPC   C3A46049  18.381  29.860   6.959
 3477POPC   C4A46050  18.366  30.185   7.222
 3477POPC   C1B46051  18.719  30.153   6.313
 3477POPC   C2B46052  18.687  30.201   6.747
 3477POPC   C3B46053  18.869  30.204   7.146
 3477POPC   C4B46054  18.786  30.042   7.587
 3478POPC   NC346055  14.177  28.634   5.668
 3478POPC   PO446056  14.377  28.989   5.092
 3478POPC   GL146057  14.456  29.160   5.571
 3478POPC   GL246058  14.159  29.136   5.795
 3478POPC   C1A46059  14.566  29.299   6.058
 3478POPC   D2A46060  14.695  29.359   6.537
 3478POPC   C3A46061  14.532  29.300   6.991
 3478POPC   C4A46062  14.772  29.228   7.427
 3478POPC   C1B46063  14.189  29.010   6.257
 3478POPC   C2B46064  14.092  29.213   6.666
 3478POPC   C3B46065  14.032  29.291   7.125
 3478POPC   C4B46066  14.294  28.994   7.354
 3479POPC   NC346067  37.158   5.092   5.435
 3479POPC   PO446068  36.460   4.874   5.564
 3479POPC   GL146069  36.751   5.107   5.783
 3479POPC   GL246070  37.047   4.951   5.922
 3479POPC   C1A46071  36.691   5.226   6.194
 3479POPC   D2A46072  36.550   5.358   6.578
 3479POPC   C3A46073  36.820   5.164   6.867
 3479POPC   C4A46074  36.763   4.819   7.153
 3479POPC   C1B46075  37.161   5.378   6.048
 3479POPC   C2B46076  37.115   5.481   6.471
 3479POPC   C3B46077  37.254   5.487   6.889
 3479POPC   C4B46078  37.153   5.265   7.240
 3480POPC   NC346079  44.264  13.674   5.413
 3480POPC   PO446080  44.837  13.618   5.170
 3480POPC   GL146081  44.896  13.589   5.646
 3480POPC   GL246082  44.681  13.870   5.786
 3480POPC   C1A46083  44.682  13.370   6.004
 3480POPC   D2A46084  44.575  13.314   6.458
 3480POPC   C3A46085  44.577  13.574   6.843
 3480POPC   C4A46086  44.477  13.453   7.279
 3480POPC   C1B46087  44.672  13.814   6.250
 3480POPC   C2B46088  44.963  13.817   6.579
 3480POPC   C3B46089   0.006  13.866   6.986
 3480POPC   C4B46090  44.766  13.944   7.344
 3481POPC   NC346091   0.684  11.314   5.467
 3481POPC   PO446092   1.268  11.021   5.360
 3481POPC   GL146093   1.104  11.207   5.764
 3481POPC   GL246094   0.949  10.990   6.024
 3481POPC   C1A46095   0.947  11.501   6.113
 3481POPC   D2A46096   1.106  11.587   6.551
 3481POPC   C3A46097   0.986  11.516   6.996
 3481POPC   C4A46098   1.163  11.662   7.409
 3481POPC   C1B46099   1.329  11.200   6.247
 3481POPC   C2B46100   1.579  11.095   6.619
 3481POPC   C3B46101   1.372  11.169   7.035
 3481POPC   C4B46102   0.951  10.976   7.161
 3482POPC   NC346103  44.323  28.562   5.094
 3482POPC   PO446104  43.866  28.155   5.410
 3482POPC   GL146105  43.830  28.256   5.841
 3482POPC   GL246106  43.856  28.605   5.763
 3482POPC   C1A46107  44.005  28.278   6.264
 3482POPC   D2A46108  43.906  27.975   6.582
 3482POPC   C3A46109  43.867  28.112   7.002
 3482POPC   C4A46110  43.568  28.203   7.288
 3482POPC   C1B46111  43.771  28.720   6.166
 3482POPC   C2B46112  43.846  28.860   6.573
 3482POPC   C3B46113  43.972  28.627   6.916
 3482POPC   C4B46114  43.961  28.520   7.323
 3483POPC   NC346115  35.426  31.500   5.352
 3483POPC   PO446116  35.925  31.845   5.610
 3483POPC   GL146117  35.536  31.748   5.836
 3483POPC   GL246118  35.192  31.738   5.785
 3483POPC   C1A46119  35.440  31.416   6.159
 3483POPC   D2A46120  35.237  31.251   6.546
 3483POPC   C3A46121  35.327  31.375   6.970
 3483POPC   C4A46122  35.238  31.194   7.357
 3483POPC   C1B46123  35.211  31.867   6.231
 3483POPC   C2B46124  35.010  31.759   6.611
 3483POPC   C3B46125  35.144  31.838   7.047
 3483POPC   C4B46126  35.357  31.695   7.420
 3484POPC   NC346127   7.792  10.405   5.413
 3484POPC   PO446128   8.306  10.552   5.695
 3484POPC   GL146129   8.186  10.369   6.049
 3484POPC   GL246130   7.897  10.222   5.903
 3484POPC   C1A46131   8.245  10.583   6.434
 3484POPC   D2A46132   8.109  10.977   6.575
 3484POPC   C3A46133   8.052  10.917   6.977
 3484POPC   C4A46134   8.341  10.773   7.269
 3484POPC   C1B46135   7.755  10.216   6.296
 3484POPC   C2B46136   7.888  10.096   6.665
 3484POPC   C3B46137   8.113  10.377   6.936
 3484POPC   C4B46138   8.223  10.279   7.322
 3485POPC   NC346139  12.142   3.723   5.472
 3485POPC   PO446140  11.846   3.109   5.430
 3485POPC   GL146141  11.911   3.406   5.823
 3485POPC   GL246142  12.270   3.496   5.927
 3485POPC   C1A46143  11.967   3.326   6.308
 3485POPC   D2A46144  12.232   3.110   6.625
 3485POPC   C3A46145  12.240   3.281   7.049
 3485POPC   C4A46146  11.876   3.516   7.140
 3485POPC   C1B46147  12.414   3.554   6.383
 3485POPC   C2B46148  12.101   3.700   6.675
 3485POPC   C3B46149  12.084   3.955   7.028
 3485POPC   C4B46150  12.344   3.750   7.280
 3486POPC   NC346151  28.630  11.261   5.486
 3486POPC   PO446152  28.326  11.803   5.273
 3486POPC   GL146153  28.363  11.620   5.718
 3486POPC   GL246154  28.183  11.313   5.781
 3486POPC   C1A46155  28.522  11.361   6.141
 3486POPC   D2A46156  28.747  11.198   6.529
 3486POPC   C3A46157  28.618  11.382   6.905
 3486POPC   C4A46158  28.435  11.239   7.244
 3486POPC   C1B46159  28.095  11.641   6.135
 3486POPC   C2B46160  28.220  11.514   6.572
 3486POPC   C3B46161  28.077  11.539   7.015
 3486POPC   C4B46162  28.019  11.408   7.479
 3487POPC   NC346163  37.152  30.967   5.434
 3487POPC   PO446164  36.829  30.356   5.372
 3487POPC   GL146165  36.871  30.604   5.723
 3487POPC   GL246166  37.194  30.584   5.793
 3487POPC   C1A46167  36.832  30.699   6.164
 3487POPC   D2A46168  36.611  30.544   6.528
 3487POPC   C3A46169  36.795  30.694   6.892
 3487POPC   C4A46170  36.664  30.814   7.294
 3487POPC   C1B46171  37.278  30.436   6.192
 3487POPC   C2B46172  37.130  30.306   6.609
 3487POPC   C3B46173  37.236  30.481   7.009
 3487POPC   C4B46174  37.169  30.892   7.226
 3488POPC   NC346175  27.805  20.186   4.906
 3488POPC   PO446176  27.401  19.970   5.386
 3488POPC   GL146177  27.577  19.992   5.775
 3488POPC   GL246178  27.704  19.669   5.805
 3488POPC   C1A46179  27.407  19.876   6.177
 3488POPC   D2A46180  27.220  19.806   6.563
 3488POPC   C3A46181  27.412  20.108   6.810
 3488POPC   C4A46182  27.506  19.932   7.194
 3488POPC   C1B46183  27.882  19.683   6.244
 3488POPC   C2B46184  27.750  19.719   6.704
 3488POPC   C3B46185  27.892  19.605   7.144
 3488POPC   C4B46186  27.952  19.728   7.620
 3489POPC   NC346187  35.757  10.797   5.053
 3489POPC   PO446188  35.843  11.320   5.454
 3489POPC   GL146189  36.019  11.278   5.848
 3489POPC   GL246190  36.136  11.590   5.952
 3489POPC   C1A46191  35.819  11.301   6.247
 3489POPC   D2A46192  35.970  11.251   6.644
 3489POPC   C3A46193  35.813  11.375   7.022
 3489POPC   C4A46194  36.127  11.287   7.321
 3489POPC   C1B46195  36.438  11.720   6.208
 3489POPC   C2B46196  36.263  11.716   6.602
 3489POPC   C3B46197  36.360  11.454   6.909
 3489POPC   C4B46198  36.619  11.442   7.236
 3490POPC   NC346199   6.247  28.359   5.506
 3490POPC   PO446200   6.876  28.250   5.435
 3490POPC   GL146201   6.637  28.340   5.844
 3490POPC   GL246202   6.670  28.674   5.944
 3490POPC   C1A46203   6.517  28.304   6.314
 3490POPC   D2A46204   6.694  28.448   6.746
 3490POPC   C3A46205   6.594  28.221   7.138
 3490POPC   C4A46206   6.315  27.872   7.195
 3490POPC   C1B46207   6.400  28.793   6.331
 3490POPC   C2B46208   6.504  28.915   6.775
 3490POPC   C3B46209   6.528  28.723   7.194
 3490POPC   C4B46210   6.507  28.513   7.579
 3491POPC   NC346211  38.017  44.103   5.076
 3491POPC   PO446212  37.426  44.089   5.413
 3491POPC   GL146213  37.595  43.825   5.721
 3491POPC   GL246214  37.939  43.898   5.623
 3491POPC   C1A46215  37.469  43.856   6.174
 3491POPC   D2A46216  37.712  44.017   6.514
 3491POPC   C3A46217  37.579  43.948   6.902
 3491POPC   C4A46218  37.300  43.785   7.182
 3491POPC   C1B46219  37.991  43.902   6.062
 3491POPC   C2B46220  38.014  43.621   6.398
 3491POPC   C3B46221  38.032  43.717   6.826
 3491POPC   C4B46222  37.830  43.574   7.195
 3492POPC   NC346223   1.187  20.247   5.450
 3492POPC   PO446224   1.633  20.810   5.556
 3492POPC   GL146225   1.345  20.612   5.897
 3492POPC   GL246226   1.050  20.381   5.913
 3492POPC   C1A46227   1.140  20.639   6.330
 3492POPC   D2A46228   0.954  20.714   6.737
 3492POPC   C3A46229   1.176  20.568   7.111
 3492POPC   C4A46230   1.302  20.835   7.433
 3492POPC   C1B46231   1.039  20.125   6.291
 3492POPC   C2B46232   1.132  20.227   6.714
 3492POPC   C3B46233   1.105  20.034   7.112
 3492POPC   C4B46234   1.051  20.250   7.515
 3493POPC   NC346235   8.669   6.169   5.397
 3493POPC   PO446236   8.970   5.547   5.367
 3493POPC   GL146237   9.160   5.862   5.659
 3493POPC   GL246238   9.452   5.727   5.774
 3493POPC   C1A46239   9.173   6.061   6.095
 3493POPC   D2A46240   8.827   6.121   6.412
 3493POPC   C3A46241   8.944   6.131   6.839
 3493POPC   C4A46242   8.806   5.910   7.195
 3493POPC   C1B46243   9.453   5.600   6.191
 3493POPC   C2B46244   9.298   5.832   6.562
 3493POPC   C3B46245   9.253   5.722   7.004
 3493POPC   C4B46246   9.158   5.561   7.407
 3494POPC   NC346247   6.192  31.427   5.460
 3494POPC   PO446248   5.543  31.186   5.451
 3494POPC   GL146249   5.770  31.450   5.826
 3494POPC   GL246250   6.135  31.581   5.935
 3494POPC   C1A46251   5.783  31.563   6.293
 3494POPC   D2A46252   5.662  31.829   6.636
 3494POPC   C3A46253   5.679  31.599   7.024
 3494POPC   C4A46254   5.526  31.658   7.461
 3494POPC   C1B46255   6.139  31.180   6.197
 3494POPC   C2B46256   6.086  31.070   6.674
 3494POPC   C3B46257   6.243  31.308   7.067
 3494POPC   C4B46258   6.395  31.313   7.520
 3495POPC   NC346259  25.090  41.174   5.521
 3495POPC   PO446260  25.277  40.596   5.212
 3495POPC   GL146261  25.429  40.524   5.779
 3495POPC   GL246262  25.769  40.451   5.849
 3495POPC   C1A46263  25.173  40.633   6.278
 3495POPC   D2A46264  25.006  40.768   6.744
 3495POPC   C3A46265  25.180  40.987   7.094
 3495POPC   C4A46266  25.090  41.055   7.535
 3495POPC   C1B46267  25.669  40.582   6.280
 3495POPC   C2B46268  25.522  40.802   6.644
 3495POPC   C3B46269  25.569  40.650   7.051
 3495POPC   C4B46270  25.583  40.901   7.425
 3496POPC   NC346271  30.729  14.827   5.479
 3496POPC   PO446272  30.446  15.448   5.429
 3496POPC   GL146273  30.573  15.263   5.793
 3496POPC   GL246274  30.404  14.956   5.850
 3496POPC   C1A46275  30.763  15.329   6.187
 3496POPC   D2A46276  30.925  15.179   6.552
 3496POPC   C3A46277  30.796  15.369   6.919
 3496POPC   C4A46278  30.721  15.364   7.338
 3496POPC   C1B46279  30.573  14.845   6.229
 3496POPC   C2B46280  30.485  14.953   6.645
 3496POPC   C3B46281  30.741  14.880   6.977
 3496POPC   C4B46282  30.886  14.897   7.406
 3497POPC   NC346283  17.614  23.936   5.645
 3497POPC   PO446284  17.051  23.551   5.544
 3497POPC   GL146285  17.312  23.638   5.906
 3497POPC   GL246286  17.608  23.418   5.865
 3497POPC   C1A46287  17.536  23.762   6.309
 3497POPC   D2A46288  17.639  23.999   6.686
 3497POPC   C3A46289  17.491  23.785   7.056
 3497POPC   C4A46290  17.155  23.583   7.230
 3497POPC   C1B46291  17.687  23.273   6.309
 3497POPC   C2B46292  17.803  23.498   6.710
 3497POPC   C3B46293  17.995  23.795   6.998
 3497POPC   C4B46294  17.901  23.816   7.430
 3498POPC   NC346295  27.690  24.645   5.379
 3498POPC   PO446296  27.293  24.098   5.363
 3498POPC   GL146297  27.571  24.217   5.752
 3498POPC   GL246298  27.683  24.593   5.876
 3498POPC   C1A46299  27.646  24.227   6.206
 3498POPC   D2A46300  27.759  24.515   6.508
 3498POPC   C3A46301  27.692  24.350   6.881
 3498POPC   C4A46302  27.503  24.446   7.248
 3498POPC   C1B46303  27.942  24.883   6.135
 3498POPC   C2B46304  28.176  24.813   6.530
 3498POPC   C3B46305  27.988  24.796   6.907
 3498POPC   C4B46306  27.692  24.925   7.174
 3499POPC   NC346307  11.380  34.733   4.969
 3499POPC   PO446308  11.022  34.351   5.458
 3499POPC   GL146309  11.143  34.602   5.789
 3499POPC   GL246310  11.493  34.475   5.792
 3499POPC   C1A46311  11.185  34.659   6.246
 3499POPC   D2A46312  10.962  34.569   6.636
 3499POPC   C3A46313  11.094  34.718   7.040
 3499POPC   C4A46314  10.965  34.649   7.478
 3499POPC   C1B46315  11.657  34.466   6.186
 3499POPC   C2B46316  11.626  34.717   6.554
 3499POPC   C3B46317  11.608  34.578   6.961
 3499POPC   C4B46318  11.468  34.605   7.374
 3500POPC   NC346319  27.924  19.918   5.369
 3500POPC   PO446320  28.661  19.575   5.300
 3500POPC   GL146321  28.541  19.817   5.712
 3500POPC   GL246322  28.202  19.766   5.775
 3500POPC   C1A46323  28.473  19.942   6.175
 3500POPC   D2A46324  28.265  19.800   6.579
 3500POPC   C3A46325  28.567  19.948   6.884
 3500POPC   C4A46326  28.870  19.745   7.144
 3500POPC   C1B46327  28.016  20.123   6.019
 3500POPC   C2B46328  27.869  20.170   6.456
 3500POPC   C3B46329  27.967  20.144   6.907
 3500POPC   C4B46330  28.218  19.962   7.243
 3501POPC   NC346331  18.356  14.264   5.477
 3501POPC   PO446332  18.721  14.728   5.713
 3501POPC   GL146333  18.445  14.416   5.971
 3501POPC   GL246334  18.175  14.130   5.922
 3501POPC   C1A46335  18.143  14.412   6.341
 3501POPC   D2A46336  18.079  14.212   6.739
 3501POPC   C3A46337  18.202  14.471   7.110
 3501POPC   C4A46338  18.133  14.904   7.288
 3501POPC   C1B46339  18.475  13.958   6.217
 3501POPC   C2B46340  18.472  13.832   6.626
 3501POPC   C3B46341  18.482  14.025   7.000
 3501POPC   C4B46342  18.504  14.187   7.379
 3502POPC   NC346343   2.467  14.657   5.573
 3502POPC   PO446344   1.926  14.704   5.405
 3502POPC   GL146345   1.811  14.477   5.785
 3502POPC   GL246346   2.080  14.266   5.844
 3502POPC   C1A46347   1.728  14.448   6.256
 3502POPC   D2A46348   1.885  14.501   6.713
 3502POPC   C3A46349   1.649  14.461   7.112
 3502POPC   C4A46350   1.627  14.753   7.481
 3502POPC   C1B46351   2.254  14.480   6.238
 3502POPC   C2B46352   2.397  14.432   6.687
 3502POPC   C3B46353   2.307  14.260   7.106
 3502POPC   C4B46354   2.489  14.355   7.537
 3503POPC   NC346355  22.655  20.683   5.402
 3503POPC   PO446356  23.346  20.709   5.216
 3503POPC   GL146357  23.110  20.597   5.629
 3503POPC   GL246358  23.337  20.464   5.867
 3503POPC   C1A46359  22.892  20.605   6.083
 3503POPC   D2A46360  22.882  20.442   6.559
 3503POPC   C3A46361  23.015  20.551   7.029
 3503POPC   C4A46362  22.919  20.546   7.490
 3503POPC   C1B46363  23.508  20.548   6.279
 3503POPC   C2B46364  23.345  20.703   6.646
 3503POPC   C3B46365  23.412  20.868   7.040
 3503POPC   C4B46366  23.399  20.661   7.432
 3504POPC   NC346367  36.345  36.011   5.670
 3504POPC   PO446368  35.768  36.257   5.271
 3504POPC   GL146369  35.916  36.321   5.704
 3504POPC   GL246370  35.822  35.989   5.798
 3504POPC   C1A46371  36.125  36.401   6.151
 3504POPC   D2A46372  36.157  36.321   6.618
 3504POPC   C3A46373  36.290  35.926   6.783
 3504POPC   C4A46374  36.416  35.932   7.187
 3504POPC   C1B46375  35.699  36.110   6.206
 3504POPC   C2B46376  35.782  35.952   6.604
 3504POPC   C3B46377  35.873  36.113   7.010
 3504POPC   C4B46378  36.118  36.422   7.159
 3505POPC   NC346379  44.009  21.504   5.230
 3505POPC   PO446380  43.696  21.024   5.459
 3505POPC   GL146381  43.615  21.376   5.714
 3505POPC   GL246382  43.938  21.553   5.731
 3505POPC   C1A46383  43.559  21.280   6.169
 3505POPC   D2A46384  43.790  21.135   6.555
 3505POPC   C3A46385  43.599  21.176   6.953
 3505POPC   C4A46386  43.657  21.185   7.403
 3505POPC   C1B46387  43.855  21.702   6.139
 3505POPC   C2B46388  43.676  21.656   6.533
 3505POPC   C3B46389  43.890  21.581   6.897
 3505POPC   C4B46390  43.956  21.748   7.274
 3506POPC   NC346391  27.734  35.817   5.533
 3506POPC   PO446392  27.490  35.166   5.368
 3506POPC   GL146393  27.527  35.406   5.754
 3506POPC   GL246394  27.856  35.433   5.889
 3506POPC   C1A46395  27.445  35.280   6.193
 3506POPC   D2A46396  27.744  35.280   6.532
 3506POPC   C3A46397  27.553  35.130   6.905
 3506POPC   C4A46398  27.379  35.180   7.323
 3506POPC   C1B46399  27.662  35.739   6.210
 3506POPC   C2B46400  27.607  35.746   6.681
 3506POPC   C3B46401  27.597  35.592   7.100
 3506POPC   C4B46402  27.695  35.534   7.558
 3507POPC   NC346403  34.245  22.599   4.996
 3507POPC   PO446404  34.493  23.135   5.356
 3507POPC   GL146405  34.496  23.123   5.795
 3507POPC   GL246406  34.409  22.805   5.886
 3507POPC   C1A46407  34.387  23.275   6.220
 3507POPC   D2A46408  34.557  23.127   6.640
 3507POPC   C3A46409  34.339  22.947   7.023
 3507POPC   C4A46410  34.461  22.885   7.488
 3507POPC   C1B46411  34.788  22.903   6.170
 3507POPC   C2B46412  34.901  22.706   6.574
 3507POPC   C3B46413  34.771  22.631   7.036
 3507POPC   C4B46414  34.782  22.508   7.489
 3508POPC   NC346415  12.112  13.588   5.459
 3508POPC   PO446416  11.557  13.240   5.188
 3508POPC   GL146417  11.674  13.495   5.682
 3508POPC   GL246418  11.685  13.800   5.857
 3508POPC   C1A46419  12.067  13.563   6.084
 3508POPC   D2A46420  12.393  13.622   6.422
 3508POPC   C3A46421  12.231  13.675   6.853
 3508POPC   C4A46422  12.189  13.546   7.295
 3508POPC   C1B46423  11.607  13.398   6.169
 3508POPC   C2B46424  11.651  13.257   6.582
 3508POPC   C3B46425  11.764  13.438   6.968
 3508POPC   C4B46426  11.715  13.327   7.407
 3509POPC   NC346427  44.446  17.001   5.459
 3509POPC   PO446428  43.843  17.095   5.513
 3509POPC   GL146429  43.836  16.750   5.822
 3509POPC   GL246430  44.189  16.716   5.820
 3509POPC   C1A46431  43.773  16.631   6.274
 3509POPC   D2A46432  43.680  17.000   6.564
 3509POPC   C3A46433  43.863  16.908   6.938
 3509POPC   C4A46434  43.942  16.501   7.071
 3509POPC   C1B46435  44.122  16.980   6.180
 3509POPC   C2B46436  44.197  16.770   6.568
 3509POPC   C3B46437  44.379  16.761   6.968
 3509POPC   C4B46438  44.391  16.487   7.304
 3510POPC   NC346439   0.946   3.037   5.500
 3510POPC   PO446440   1.303   2.589   5.067
 3510POPC   GL146441   1.327   2.548   5.597
 3510POPC   GL246442   1.340   2.893   5.771
 3510POPC   C1A46443   1.194   2.559   6.110
 3510POPC   D2A46444   1.335   2.666   6.526
 3510POPC   C3A46445   1.119   2.531   6.884
 3510POPC   C4A46446   1.294   2.472   7.249
 3510POPC   C1B46447   1.050   3.069   6.123
 3510POPC   C2B46448   1.021   3.179   6.529
 3510POPC   C3B46449   0.919   3.001   6.905
 3510POPC   C4B46450   0.896   2.806   7.297
 3511POPC   NC346451  35.084  13.086   5.514
 3511POPC   PO446452  35.741  12.866   5.605
 3511POPC   GL146453  35.408  12.887   5.884
 3511POPC   GL246454  35.151  12.645   5.812
 3511POPC   C1A46455  35.498  12.852   6.308
 3511POPC   D2A46456  35.284  13.058   6.620
 3511POPC   C3A46457  35.500  12.907   6.971
 3511POPC   C4A46458  35.656  13.102   7.336
 3511POPC   C1B46459  35.059  12.638   6.237
 3511POPC   C2B46460  35.178  12.566   6.671
 3511POPC   C3B46461  35.036  12.730   7.083
 3511POPC   C4B46462  34.794  12.985   7.383
 3512POPC   NC346463   9.493   9.200   5.336
 3512POPC   PO446464   9.860   8.581   5.291
 3512POPC   GL146465   9.738   8.865   5.656
 3512POPC   GL246466   9.941   9.149   5.654
 3512POPC   C1A46467   9.611   9.048   6.084
 3512POPC   D2A46468   9.648   8.926   6.531
 3512POPC   C3A46469   9.581   9.174   6.888
 3512POPC   C4A46470   9.649   9.029   7.316
 3512POPC   C1B46471  10.024   9.338   6.065
 3512POPC   C2B46472  10.114   9.211   6.516
 3512POPC   C3B46473  10.082   9.246   7.004
 3512POPC   C4B46474  10.163   9.069   7.424
 3513POPC   NC346475  36.856  27.208   5.642
 3513POPC   PO446476  36.497  27.927   5.549
 3513POPC   GL146477  36.873  27.930   5.837
 3513POPC   GL246478  37.028  27.622   5.857
 3513POPC   C1A46479  37.132  27.937   6.240
 3513POPC   D2A46480  37.142  27.662   6.622
 3513POPC   C3A46481  37.131  27.928   7.015
 3513POPC   C4A46482  37.229  27.800   7.447
 3513POPC   C1B46483  36.780  27.565   6.219
 3513POPC   C2B46484  36.632  27.479   6.625
 3513POPC   C3B46485  36.760  27.555   7.051
 3513POPC   C4B46486  36.558  27.398   7.414
 3514POPC   NC346487  39.504  18.231   5.309
 3514POPC   PO446488  40.157  18.320   5.349
 3514POPC   GL146489  39.880  18.217   5.704
 3514POPC   GL246490  40.157  18.065   5.868
 3514POPC   C1A46491  39.752  18.294   6.148
 3514POPC   D2A46492  39.715  18.513   6.555
 3514POPC   C3A46493  39.616  18.297   6.949
 3514POPC   C4A46494  39.369  17.966   7.152
 3514POPC   C1B46495  40.258  18.314   6.214
 3514POPC   C2B46496  40.234  18.554   6.568
 3514POPC   C3B46497  40.258  18.445   6.967
 3514POPC   C4B46498  39.966  18.479   7.300
 3515POPC   NC346499  25.684  19.650   5.416
 3515POPC   PO446500  25.082  19.965   5.555
 3515POPC   GL146501  25.445  19.859   5.840
 3515POPC   GL246502  25.599  19.487   5.879
 3515POPC   C1A46503  25.339  20.048   6.237
 3515POPC   D2A46504  25.020  20.222   6.502
 3515POPC   C3A46505  25.151  20.049   6.875
 3515POPC   C4A46506  25.218  20.144   7.296
 3515POPC   C1B46507  25.353  19.520   6.243
 3515POPC   C2B46508  25.167  19.544   6.665
 3515POPC   C3B46509  25.253  19.616   7.128
 3515POPC   C4B46510  25.532  19.776   7.440
 3516POPC   NC346511   7.818   8.479   5.471
 3516POPC   PO446512   7.452   9.104   5.381
 3516POPC   GL146513   7.513   8.923   5.763
 3516POPC   GL246514   7.867   8.902   5.771
 3516POPC   C1A46515   7.262   8.853   6.140
 3516POPC   D2A46516   7.026   9.073   6.446
 3516POPC   C3A46517   7.140   9.118   6.850
 3516POPC   C4A46518   7.121   8.805   7.161
 3516POPC   C1B46519   7.765   9.160   6.143
 3516POPC   C2B46520   7.547   9.043   6.529
 3516POPC   C3B46521   7.612   8.928   6.963
 3516POPC   C4B46522   7.855   9.217   7.186
 3517POPC   NC346523  24.369  30.563   5.278
 3517POPC   PO446524  24.300  31.141   5.381
 3517POPC   GL146525  24.421  30.805   5.733
 3517POPC   GL246526  24.181  30.509   5.740
 3517POPC   C1A46527  24.689  30.627   6.127
 3517POPC   D2A46528  24.847  30.546   6.581
 3517POPC   C3A46529  24.656  30.836   6.861
 3517POPC   C4A46530  24.570  30.899   7.290
 3517POPC   C1B46531  24.175  30.655   6.151
 3517POPC   C2B46532  24.338  30.501   6.520
 3517POPC   C3B46533  24.227  30.579   6.913
 3517POPC   C4B46534  24.190  30.532   7.341
 3518POPC   NC346535  40.093   6.372   5.463
 3518POPC   PO446536  39.654   6.874   5.281
 3518POPC   GL146537  39.871   6.844   5.734
 3518POPC   GL246538  40.248   6.847   5.742
 3518POPC   C1A46539  39.863   6.628   6.173
 3518POPC   D2A46540  39.730   6.792   6.584
 3518POPC   C3A46541  39.919   6.639   6.972
 3518POPC   C4A46542  39.871   6.435   7.376
 3518POPC   C1B46543  40.380   6.635   6.147
 3518POPC   C2B46544  40.309   6.641   6.617
 3518POPC   C3B46545  40.376   6.897   7.000
 3518POPC   C4B46546  40.418   6.904   7.455
 3519POPC   NC346547  32.044   1.662   5.297
 3519POPC   PO446548  32.705   1.775   5.170
 3519POPC   GL146549  32.495   1.895   5.627
 3519POPC   GL246550  32.225   2.162   5.747
 3519POPC   C1A46551  32.477   1.929   6.118
 3519POPC   D2A46552  32.253   1.838   6.517
 3519POPC   C3A46553  32.394   1.974   6.927
 3519POPC   C4A46554  32.337   1.856   7.363
 3519POPC   C1B46555  31.973   1.899   6.083
 3519POPC   C2B46556  31.734   1.920   6.487
 3519POPC   C3B46557  31.899   1.951   6.888
 3519POPC   C4B46558  31.969   2.204   7.250
 3520POPC   NC346559  17.264  32.477   5.308
 3520POPC   PO446560  17.808  32.094   5.241
 3520POPC   GL146561  17.670  32.051   5.674
 3520POPC   GL246562  17.290  32.013   5.723
 3520POPC   C1A46563  17.705  32.303   6.064
 3520POPC   D2A46564  17.506  32.534   6.422
 3520POPC   C3A46565  17.361  32.310   6.786
 3520POPC   C4A46566  17.684  32.318   7.072
 3520POPC   C1B46567  17.062  31.962   6.143
 3520POPC   C2B46568  16.830  31.981   6.547
 3520POPC   C3B46569  16.945  31.998   6.977
 3520POPC   C4B46570  17.301  31.983   7.192
 3521POPC   NC346571  20.594  15.216   5.438
 3521POPC   PO446572  20.045  15.635   5.457
 3521POPC   GL146573  20.338  15.426   5.806
 3521POPC   GL246574  20.334  15.123   5.895
 3521POPC   C1A46575  20.745  15.319   6.108
 3521POPC   D2A46576  20.836  15.113   6.533
 3521POPC   C3A46577  20.714  15.208   6.958
 3521POPC   C4A46578  20.689  14.870   7.266
 3521POPC   C1B46579  20.353  15.087   6.358
 3521POPC   C2B46580  20.332  14.883   6.790
 3521POPC   C3B46581  20.223  15.078   7.206
 3521POPC   C4B46582  20.149  15.168   7.658
 3522POPC   NC346583  21.204  11.527   5.138
 3522POPC   PO446584  21.568  11.185   5.258
 3522POPC   GL146585  21.255  11.295   5.635
 3522POPC   GL246586  21.045  11.042   5.809
 3522POPC   C1A46587  21.120  11.443   6.098
 3522POPC   D2A46588  20.959  11.262   6.518
 3522POPC   C3A46589  21.120  11.411   6.928
 3522POPC   C4A46590  21.286  11.147   7.236
 3522POPC   C1B46591  21.286  10.980   6.245
 3522POPC   C2B46592  21.438  11.029   6.717
 3522POPC   C3B46593  21.720  10.941   7.103
 3522POPC   C4B46594  21.560  10.747   7.493
 3523POPC   NC346595   9.931  42.110   5.688
 3523POPC   PO446596   9.415  42.606   5.486
 3523POPC   GL146597   9.439  42.292   5.884
 3523POPC   GL246598   9.534  41.921   5.941
 3523POPC   C1A46599   9.599  42.230   6.329
 3523POPC   D2A46600   9.998  42.317   6.557
 3523POPC   C3A46601  10.007  42.610   6.906
 3523POPC   C4A46602   9.789  42.592   7.312
 3523POPC   C1B46603   9.870  41.780   6.230
 3523POPC   C2B46604   9.803  41.838   6.635
 3523POPC   C3B46605   9.733  42.110   6.964
 3523POPC   C4B46606   9.648  41.758   7.211
 3524POPC   NC346607   8.401  18.137   5.359
 3524POPC   PO446608   7.946  18.650   5.324
 3524POPC   GL146609   8.233  18.522   5.675
 3524POPC   GL246610   8.199  18.152   5.832
 3524POPC   C1A46611   8.254  18.573   6.130
 3524POPC   D2A46612   7.996  18.532   6.498
 3524POPC   C3A46613   8.212  18.511   6.882
 3524POPC   C4A46614   8.165  18.755   7.255
 3524POPC   C1B46615   8.297  18.069   6.301
 3524POPC   C2B46616   8.307  17.992   6.764
 3524POPC   C3B46617   8.403  18.148   7.191
 3524POPC   C4B46618   8.623  18.520   7.223
 3525POPC   NC346619   6.731  43.628   5.450
 3525POPC   PO446620   6.354  44.151   5.482
 3525POPC   GL146621   6.512  44.073   5.883
 3525POPC   GL246622   6.472  43.703   5.888
 3525POPC   C1A46623   6.586  44.235   6.318
 3525POPC   D2A46624   6.763  44.137   6.687
 3525POPC   C3A46625   6.654  44.271   7.032
 3525POPC   C4A46626   6.832  44.116   7.351
 3525POPC   C1B46627   6.790  43.786   6.200
 3525POPC   C2B46628   6.528  43.719   6.573
 3525POPC   C3B46629   6.524  43.804   7.015
 3525POPC   C4B46630   6.426  43.810   7.480
 3526POPC   NC346631  39.413  42.950   5.341
 3526POPC   PO446632  39.063  43.567   5.249
 3526POPC   GL146633  39.037  43.243   5.610
 3526POPC   GL246634  39.357  43.238   5.739
 3526POPC   C1A46635  39.079  43.022   6.075
 3526POPC   D2A46636  39.242  43.172   6.483
 3526POPC   C3A46637  39.272  42.911   6.845
 3526POPC   C4A46638  39.353  43.000   7.262
 3526POPC   C1B46639  39.598  43.068   6.112
 3526POPC   C2B46640  39.670  42.847   6.521
 3526POPC   C3B46641  39.786  42.981   6.966
 3526POPC   C4B46642  39.812  42.857   7.414
 3527POPC   NC346643  43.876  11.528   5.322
 3527POPC   PO446644  43.696  10.905   5.158
 3527POPC   GL146645  43.733  11.174   5.652
 3527POPC   GL246646  44.026  11.459   5.815
 3527POPC   C1A46647  43.655  11.344   6.122
 3527POPC   D2A46648  43.461  11.283   6.550
 3527POPC   C3A46649  43.691  11.390   6.960
 3527POPC   C4A46650  43.887  11.739   7.225
 3527POPC   C1B46651  44.318  11.516   6.187
 3527POPC   C2B46652  44.381  11.318   6.629
 3527POPC   C3B46653  44.158  11.155   7.030
 3527POPC   C4B46654  44.145  10.932   7.434
 3528POPC   NC346655  23.638  38.232   5.415
 3528POPC   PO446656  23.786  38.863   5.550
 3528POPC   GL146657  23.782  38.596   5.922
 3528POPC   GL246658  23.498  38.329   5.897
 3528POPC   C1A46659  23.879  38.588   6.390
 3528POPC   D2A46660  23.854  38.682   6.839
 3528POPC   C3A46661  23.781  38.294   7.140
 3528POPC   C4A46662  24.031  38.064   7.459
 3528POPC   C1B46663  23.391  38.573   6.262
 3528POPC   C2B46664  23.417  38.449   6.690
 3528POPC   C3B46665  23.373  38.617   7.087
 3528POPC   C4B46666  23.405  38.535   7.502
 3529POPC   NC346667  43.720   9.874   5.621
 3529POPC   PO446668  44.240   9.526   5.379
 3529POPC   GL146669  44.080   9.533   5.799
 3529POPC   GL246670  43.801   9.347   5.851
 3529POPC   C1A46671  43.991   9.781   6.213
 3529POPC   D2A46672  43.864  10.054   6.573
 3529POPC   C3A46673  44.100  10.011   6.915
 3529POPC   C4A46674  44.156   9.751   7.229
 3529POPC   C1B46675  43.539   9.527   6.202
 3529POPC   C2B46676  43.553   9.665   6.637
 3529POPC   C3B46677  43.644   9.792   7.067
 3529POPC   C4B46678  43.400   9.721   7.439
 3530POPC   NC346679  13.731  17.053   5.502
 3530POPC   PO446680  13.338  16.694   5.245
 3530POPC   GL146681  13.358  16.731   5.747
 3530POPC   GL246682  13.384  17.052   5.882
 3530POPC   C1A46683  13.464  16.463   6.157
 3530POPC   D2A46684  13.675  16.389   6.574
 3530POPC   C3A46685  13.411  16.321   6.890
 3530POPC   C4A46686  13.493  16.404   7.292
 3530POPC   C1B46687  13.645  16.937   6.224
 3530POPC   C2B46688  13.718  17.141   6.627
 3530POPC   C3B46689  13.664  17.057   7.053
 3530POPC   C4B46690  13.419  17.062   7.420
 3531POPC   NC346691   6.986   7.415   5.428
 3531POPC   PO446692   7.666   7.315   5.451
 3531POPC   GL146693   7.403   7.463   5.754
 3531POPC   GL246694   7.463   7.163   5.926
 3531POPC   C1A46695   7.116   7.426   6.130
 3531POPC   D2A46696   7.372   7.318   6.476
 3531POPC   C3A46697   7.431   7.597   6.803
 3531POPC   C4A46698   7.230   7.464   7.173
 3531POPC   C1B46699   7.775   7.039   6.219
 3531POPC   C2B46700   7.855   7.164   6.627
 3531POPC   C3B46701   7.613   7.142   6.999
 3531POPC   C4B46702   7.696   7.189   7.423
 3532POPC   NC346703  18.471   4.889   5.432
 3532POPC   PO446704  17.909   5.264   5.451
 3532POPC   GL146705  18.182   5.197   5.806
 3532POPC   GL246706  18.506   5.226   5.823
 3532POPC   C1A46707  18.259   4.954   6.195
 3532POPC   D2A46708  18.193   4.784   6.624
 3532POPC   C3A46709  18.014   5.007   6.938
 3532POPC   C4A46710  18.011   5.317   7.265
 3532POPC   C1B46711  18.438   5.436   6.200
 3532POPC   C2B46712  18.253   5.339   6.595
 3532POPC   C3B46713  18.464   5.232   6.957
 3532POPC   C4B46714  18.583   5.338   7.367
 3533POPC   NC346715   4.860  44.977   5.388
 3533POPC   PO446716   5.431  44.464   5.370
 3533POPC   GL146717   5.241  44.659   5.740
 3533POPC   GL246718   4.916  44.584   5.723
 3533POPC   C1A46719   5.360  44.742   6.169
 3533POPC   D2A46720   5.214  44.917   6.543
 3533POPC   C3A46721   5.338  44.678   6.909
 3533POPC   C4A46722   5.396  44.750   7.352
 3533POPC   C1B46723   4.880  44.862   6.082
 3533POPC   C2B46724   4.745  44.777   6.491
 3533POPC   C3B46725   4.851  44.882   6.911
 3533POPC   C4B46726   4.759  44.799   7.327
 3534POPC   NC346727  11.800   8.807   5.511
 3534POPC   PO446728  12.350   9.345   5.495
 3534POPC   GL146729  12.055   9.195   5.765
 3534POPC   GL246730  12.300   8.943   5.837
 3534POPC   C1A46731  11.914   9.005   6.154
 3534POPC   D2A46732  11.892   8.717   6.497
 3534POPC   C3A46733  12.042   8.878   6.893
 3534POPC   C4A46734  11.862   8.777   7.276
 3534POPC   C1B46735  12.422   9.275   6.154
 3534POPC   C2B46736  12.504   9.461   6.574
 3534POPC   C3B46737  12.415   9.249   6.973
 3534POPC   C4B46738  12.265   9.098   7.384
 3535POPC   NC346739  24.794  24.807   5.310
 3535POPC   PO446740  24.200  24.576   5.414
 3535POPC   GL146741  24.362  24.507   5.810
 3535POPC   GL246742  24.693  24.640   5.792
 3535POPC   C1A46743  24.364  24.462   6.254
 3535POPC   D2A46744  24.153  24.673   6.610
 3535POPC   C3A46745  24.369  24.506   6.992
 3535POPC   C4A46746  24.756  24.223   6.997
 3535POPC   C1B46747  24.504  24.917   6.129
 3535POPC   C2B46748  24.642  25.027   6.555
 3535POPC   C3B46749  24.807  24.751   6.884
 3535POPC   C4B46750  24.748  24.626   7.324
 3536POPC   NC346751  24.970  34.618   5.370
 3536POPC   PO446752  24.380  34.360   5.333
 3536POPC   GL146753  24.601  34.544   5.708
 3536POPC   GL246754  24.601  34.260   5.886
 3536POPC   C1A46755  24.734  34.799   6.067
 3536POPC   D2A46756  24.788  34.923   6.490
 3536POPC   C3A46757  24.905  34.680   6.842
 3536POPC   C4A46758  24.707  34.765   7.223
 3536POPC   C1B46759  24.457  34.446   6.283
 3536POPC   C2B46760  24.417  34.586   6.708
 3536POPC   C3B46761  24.221  34.579   7.111
 3536POPC   C4B46762  24.312  34.517   7.540
 3537POPC   NC346763  23.955   2.204   5.419
 3537POPC   PO446764  23.431   1.840   5.049
 3537POPC   GL146765  23.570   1.880   5.532
 3537POPC   GL246766  23.882   1.713   5.687
 3537POPC   C1A46767  23.634   2.042   5.993
 3537POPC   D2A46768  23.585   1.952   6.442
 3537POPC   C3A46769  23.837   2.071   6.832
 3537POPC   C4A46770  23.556   2.200   7.182
 3537POPC   C1B46771  23.865   1.606   6.146
 3537POPC   C2B46772  23.960   1.629   6.592
 3537POPC   C3B46773  23.970   1.507   7.037
 3537POPC   C4B46774  23.907   1.872   7.326
 3538POPC   NC346775  10.484  33.903   5.354
 3538POPC   PO446776  10.659  33.299   5.451
 3538POPC   GL146777  10.689  33.693   5.777
 3538POPC   GL246778  10.361  33.947   5.853
 3538POPC   C1A46779  10.657  33.774   6.235
 3538POPC   D2A46780  10.299  33.647   6.530
 3538POPC   C3A46781  10.429  33.703   6.954
 3538POPC   C4A46782  10.864  33.777   7.063
 3538POPC   C1B46783  10.292  34.134   6.296
 3538POPC   C2B46784  10.200  34.124   6.743
 3538POPC   C3B46785  10.389  34.189   7.148
 3538POPC   C4B46786  10.802  34.221   7.286
 3539POPC   NC346787  34.077  15.818   5.441
 3539POPC   PO446788  33.456  16.042   5.426
 3539POPC   GL146789  33.787  16.099   5.750
 3539POPC   GL246790  33.787  15.724   5.843
 3539POPC   C1A46791  34.154  15.983   6.070
 3539POPC   D2A46792  34.273  16.136   6.466
 3539POPC   C3A46793  34.111  15.885   6.802
 3539POPC   C4A46794  33.985  15.700   7.187
 3539POPC   C1B46795  33.661  15.922   6.223
 3539POPC   C2B46796  33.417  15.874   6.571
 3539POPC   C3B46797  33.584  15.884   6.943
 3539POPC   C4B46798  33.761  16.189   7.187
 3540POPC   NC346799  38.824  11.140   5.498
 3540POPC   PO446800  38.176  11.208   5.517
 3540POPC   GL146801  38.369  10.926   5.855
 3540POPC   GL246802  38.631  11.182   5.979
 3540POPC   C1A46803  38.477  10.844   6.323
 3540POPC   D2A46804  38.602  11.148   6.659
 3540POPC   C3A46805  38.333  11.069   7.013
 3540POPC   C4A46806  38.451  10.883   7.437
 3540POPC   C1B46807  38.500  11.564   6.222
 3540POPC   C2B46808  38.642  11.754   6.599
 3540POPC   C3B46809  38.524  11.614   6.978
 3540POPC   C4B46810  38.623  11.353   7.292
 3541POPC   NC346811  40.199  39.556   5.437
 3541POPC   PO446812  39.967  38.998   5.452
 3541POPC   GL146813  39.907  39.265   5.872
 3541POPC   GL246814  40.221  39.410   5.955
 3541POPC   C1A46815  39.896  39.358   6.361
 3541POPC   D2A46816  40.053  39.100   6.743
 3541POPC   C3A46817  39.811  39.002   7.129
 3541POPC   C4A46818  39.932  38.979   7.581
 3541POPC   C1B46819  40.380  39.612   6.358
 3541POPC   C2B46820  40.319  39.548   6.817
 3541POPC   C3B46821  39.928  39.494   7.057
 3541POPC   C4B46822  39.681  39.448   7.427
 3542POPC   NC346823  30.832  44.527   5.400
 3542POPC   PO446824  30.368   0.089   5.496
 3542POPC   GL146825  30.593  44.798   5.803
 3542POPC   GL246826  30.936  44.752   5.851
 3542POPC   C1A46827  30.572  44.621   6.229
 3542POPC   D2A46828  30.698  44.535   6.632
 3542POPC   C3A46829  30.480  44.721   6.969
 3542POPC   C4A46830  30.271  44.574   7.358
 3542POPC   C1B46831  31.070  44.528   6.191
 3542POPC   C2B46832  31.209  44.540   6.612
 3542POPC   C3B46833  31.036  44.604   7.023
 3542POPC   C4B46834  30.736  44.366   7.257
 3543POPC   NC346835  23.145  17.102   5.705
 3543POPC   PO446836  22.734  16.669   5.384
 3543POPC   GL146837  22.670  16.802   5.800
 3543POPC   GL246838  22.828  16.512   5.890
 3543POPC   C1A46839  22.718  16.895   6.255
 3543POPC   D2A46840  23.012  17.043   6.603
 3543POPC   C3A46841  23.049  16.782   6.992
 3543POPC   C4A46842  22.988  16.885   7.435
 3543POPC   C1B46843  23.089  16.433   6.253
 3543POPC   C2B46844  23.255  16.253   6.629
 3543POPC   C3B46845  23.239  16.264   7.085
 3543POPC   C4B46846  22.871  16.387   7.318
 3544POPC   NC346847  28.436  12.941   5.371
 3544POPC   PO446848  28.871  12.497   5.668
 3544POPC   GL146849  28.575  12.806   5.848
 3544POPC   GL246850  28.206  12.803   5.806
 3544POPC   C1A46851  28.517  13.010   6.223
 3544POPC   D2A46852  28.504  13.225   6.606
 3544POPC   C3A46853  28.720  13.041   6.922
 3544POPC   C4A46854  28.670  12.739   7.242
 3544POPC   C1B46855  28.156  12.664   6.229
 3544POPC   C2B46856  28.005  12.787   6.637
 3544POPC   C3B46857  27.872  12.573   7.014
 3544POPC   C4B46858  28.160  12.736   7.282
 3545POPC   NC346859  28.894  23.215   5.545
 3545POPC   PO446860  29.404  22.869   5.366
 3545POPC   GL146861  29.412  22.820   5.806
 3545POPC   GL246862  29.068  22.827   5.847
 3545POPC   C1A46863  29.386  22.719   6.253
 3545POPC   D2A46864  29.358  22.989   6.594
 3545POPC   C3A46865  29.300  22.870   7.016
 3545POPC   C4A46866  29.146  23.163   7.329
 3545POPC   C1B46867  28.889  22.913   6.268
 3545POPC   C2B46868  28.880  22.832   6.709
 3545POPC   C3B46869  28.793  22.853   7.144
 3545POPC   C4B46870  28.792  22.825   7.602
 3546POPC   NC346871  44.476  32.781   5.609
 3546POPC   PO446872  44.862  33.319   5.428
 3546POPC   GL146873  44.705  33.214   5.832
 3546POPC   GL246874  44.323  33.259   5.789
 3546POPC   C1A46875  44.717  32.902   6.197
 3546POPC   D2A46876   0.024  32.796   6.530
 3546POPC   C3A46877  44.752  32.767   6.885
 3546POPC   C4A46878  44.615  33.010   7.227
 3546POPC   C1B46879  44.401  33.326   6.233
 3546POPC   C2B46880  44.419  33.602   6.593
 3546POPC   C3B46881  44.530  33.475   7.008
 3546POPC   C4B46882  44.827  33.499   7.332
 3547POPC   NC346883   9.914  34.375   5.142
 3547POPC   PO446884   9.830  33.836   5.297
 3547POPC   GL146885   9.766  34.032   5.725
 3547POPC   GL246886   9.541  34.335   5.715
 3547POPC   C1A46887   9.868  33.890   6.161
 3547POPC   D2A46888   9.782  33.574   6.503
 3547POPC   C3A46889   9.913  33.632   6.932
 3547POPC   C4A46890  10.018  33.883   7.240
 3547POPC   C1B46891   9.380  34.208   6.147
 3547POPC   C2B46892   9.530  34.013   6.513
 3547POPC   C3B46893   9.707  34.098   6.873
 3547POPC   C4B46894   9.522  34.011   7.248
 3548POPC   NC346895  16.306   3.024   5.373
 3548POPC   PO446896  15.969   2.461   5.567
 3548POPC   GL146897  15.934   2.811   5.866
 3548POPC   GL246898  15.843   2.522   6.054
 3548POPC   C1A46899  15.886   2.935   6.327
 3548POPC   D2A46900  15.663   2.619   6.602
 3548POPC   C3A46901  15.674   2.718   7.054
 3548POPC   C4A46902  15.772   2.686   7.488
 3548POPC   C1B46903  16.236   2.569   6.277
 3548POPC   C2B46904  16.171   2.714   6.714
 3548POPC   C3B46905  16.108   2.471   7.061
 3548POPC   C4B46906  16.396   2.394   7.328
 3549POPC   NC346907   8.640  34.796   5.461
 3549POPC   PO446908   8.207  34.575   5.059
 3549POPC   GL146909   8.177  34.657   5.615
 3549POPC   GL246910   8.331  34.870   5.823
 3549POPC   C1A46911   7.982  34.584   6.070
 3549POPC   D2A46912   8.030  34.433   6.522
 3549POPC   C3A46913   7.884  34.577   6.944
 3549POPC   C4A46914   8.095  34.368   7.297
 3549POPC   C1B46915   8.509  34.665   6.169
 3549POPC   C2B46916   8.583  34.806   6.579
 3549POPC   C3B46917   8.406  34.649   6.941
 3549POPC   C4B46918   8.282  34.839   7.302
 3550POPC   NC346919  44.906  33.724   5.218
 3550POPC   PO446920  44.696  34.305   5.419
 3550POPC   GL146921  44.603  33.885   5.633
 3550POPC   GL246922  44.909  33.749   5.729
 3550POPC   C1A46923  44.538  33.810   6.110
 3550POPC   D2A46924  44.596  34.086   6.501
 3550POPC   C3A46925  44.519  33.974   6.954
 3550POPC   C4A46926  44.472  33.850   7.403
 3550POPC   C1B46927   0.029  33.626   6.130
 3550POPC   C2B46928  44.983  33.752   6.542
 3550POPC   C3B46929   0.048  33.765   6.960
 3550POPC   C4B46930   0.116  33.929   7.377
 3551POPC   NC346931  18.586   3.812   5.615
 3551POPC   PO446932  18.430   4.419   5.362
 3551POPC   GL146933  18.316   4.444   5.793
 3551POPC   GL246934  18.270   4.086   5.898
 3551POPC   C1A46935  18.294   4.452   6.245
 3551POPC   D2A46936  18.574   4.414   6.587
 3551POPC   C3A46937  18.616   4.734   6.893
 3551POPC   C4A46938  18.377   4.841   7.266
 3551POPC   C1B46939  18.082   3.987   6.300
 3551POPC   C2B46940  18.096   4.219   6.671
 3551POPC   C3B46941  18.288   4.340   7.035
 3551POPC   C4B46942  18.171   4.403   7.435
 3552POPC   NC346943  32.724  17.079   5.343
 3552POPC   PO446944  33.256  17.434   5.308
 3552POPC   GL146945  33.040  17.551   5.681
 3552POPC   GL246946  32.878  17.259   5.812
 3552POPC   C1A46947  32.872  17.709   6.084
 3552POPC   D2A46948  32.945  17.791   6.525
 3552POPC   C3A46949  32.749  17.627   6.900
 3552POPC   C4A46950  32.983  17.709   7.264
 3552POPC   C1B46951  32.773  17.203   6.262
 3552POPC   C2B46952  32.850  17.170   6.723
 3552POPC   C3B46953  32.960  17.190   7.190
 3552POPC   C4B46954  33.272  16.998   7.490
 3553POPC   NC346955   7.798  38.938   5.340
 3553POPC   PO446956   8.370  39.301   5.400
 3553POPC   GL146957   8.414  39.145   5.785
 3553POPC   GL246958   8.085  39.131   5.793
 3553POPC   C1A46959   8.437  39.140   6.198
 3553POPC   D2A46960   8.500  39.381   6.552
 3553POPC   C3A46961   8.361  39.212   6.895
 3553POPC   C4A46962   8.477  39.209   7.294
 3553POPC   C1B46963   7.899  39.044   6.168
 3553POPC   C2B46964   7.957  38.869   6.590
 3553POPC   C3B46965   7.925  39.000   7.031
 3553POPC   C4B46966   8.187  38.789   7.321
 3554POPC   NC346967  11.906   1.469   5.395
 3554POPC   PO446968  12.303   0.972   5.461
 3554POPC   GL146969  12.011   1.085   5.746
 3554POPC   GL246970  12.198   1.358   5.820
 3554POPC   C1A46971  11.893   1.159   6.182
 3554POPC   D2A46972  11.925   0.959   6.580
 3554POPC   C3A46973  11.973   1.238   6.954
 3554POPC   C4A46974  12.051   1.498   7.342
 3554POPC   C1B46975  12.427   1.211   6.162
 3554POPC   C2B46976  12.429   1.036   6.570
 3554POPC   C3B46977  12.504   1.186   6.966
 3554POPC   C4B46978  12.280   1.040   7.301
 3555POPC   NC346979  33.899  43.659   5.555
 3555POPC   PO446980  34.089  44.282   5.361
 3555POPC   GL146981  33.877  44.157   5.797
 3555POPC   GL246982  33.635  43.867   5.947
 3555POPC   C1A46983  33.852  44.173   6.279
 3555POPC   D2A46984  33.587  43.914   6.572
 3555POPC   C3A46985  33.762  43.879   6.979
 3555POPC   C4A46986  34.035  44.170   7.205
 3555POPC   C1B46987  33.925  43.671   6.239
 3555POPC   C2B46988  33.969  43.548   6.644
 3555POPC   C3B46989  34.162  43.561   7.032
 3555POPC   C4B46990  33.922  43.655   7.435
 3556POPC   NC346991  25.353  25.301   5.317
 3556POPC   PO446992  25.781  25.616   5.641
 3556POPC   GL146993  25.399  25.435   5.826
 3556POPC   GL246994  25.172  25.140   5.752
 3556POPC   C1A46995  25.241  25.363   6.224
 3556POPC   D2A46996  25.386  25.343   6.603
 3556POPC   C3A46997  25.073  25.407   6.872
 3556POPC   C4A46998  25.272  25.445   7.260
 3556POPC   C1B46999  25.046  24.885   6.083
 3556POPC   C2B47000  25.148  24.895   6.505
 3556POPC   C3B47001  25.282  24.959   6.910
 3556POPC   C4B47002  25.129  24.949   7.280
 3557POPC   NC347003   7.215  33.555   5.279
 3557POPC   PO447004   7.638  34.062   5.112
 3557POPC   GL147005   7.374  33.959   5.582
 3557POPC   GL247006   7.408  33.637   5.734
 3557POPC   C1A47007   7.083  33.906   6.014
 3557POPC   D2A47008   6.924  33.826   6.438
 3557POPC   C3A47009   7.097  33.978   6.860
 3557POPC   C4A47010   7.366  33.867   7.219
 3557POPC   C1B47011   7.555  33.830   6.132
 3557POPC   C2B47012   7.425  33.734   6.541
 3557POPC   C3B47013   7.542  33.497   6.890
 3557POPC   C4B47014   7.841  33.541   7.182
 3558POPC   NC347015  21.621  42.853   5.456
 3558POPC   PO447016  21.267  43.428   5.517
 3558POPC   GL147017  21.288  43.099   5.822
 3558POPC   GL247018  21.613  43.172   5.878
 3558POPC   C1A47019  21.226  42.900   6.251
 3558POPC   D2A47020  21.155  42.720   6.679
 3558POPC   C3A47021  21.125  42.967   7.074
 3558POPC   C4A47022  21.489  43.031   7.356
 3558POPC   C1B47023  21.450  43.349   6.261
 3558POPC   C2B47024  21.372  43.240   6.705
 3558POPC   C3B47025  21.345  43.454   7.105
 3558POPC   C4B47026  21.666  43.542   7.413
 3559POPC   NC347027  27.518  20.990   5.426
 3559POPC   PO447028  27.679  21.633   5.492
 3559POPC   GL147029  27.645  21.361   5.879
 3559POPC   GL247030  27.346  21.291   5.845
 3559POPC   C1A47031  27.813  21.405   6.327
 3559POPC   D2A47032  27.668  21.253   6.755
 3559POPC   C3A47033  27.846  21.435   7.136
 3559POPC   C4A47034  27.695  21.470   7.543
 3559POPC   C1B47035  27.311  21.442   6.286
 3559POPC   C2B47036  27.152  21.470   6.728
 3559POPC   C3B47037  27.322  21.372   7.149
 3559POPC   C4B47038  27.262  21.181   7.560
 3560POPC   NC347039  12.910  40.222   5.046
 3560POPC   PO447040  12.882  39.611   5.365
 3560POPC   GL147041  12.854  39.686   5.819
 3560POPC   GL247042  12.526  39.710   5.999
 3560POPC   C1A47043  12.956  39.915   6.222
 3560POPC   D2A47044  12.823  39.967   6.655
 3560POPC   C3A47045  13.170  39.918   6.931
 3560POPC   C4A47046  13.285  40.047   7.331
 3560POPC   C1B47047  12.322  39.897   6.381
 3560POPC   C2B47048  12.374  39.714   6.792
 3560POPC   C3B47049  12.430  39.670   7.242
 3560POPC   C4B47050  12.608  39.870   7.688
 3561POPC   NC347051   2.393  17.062   5.447
 3561POPC   PO447052   2.345  17.707   5.468
 3561POPC   GL147053   2.138  17.427   5.771
 3561POPC   GL247054   1.929  17.146   5.707
 3561POPC   C1A47055   1.946  17.429   6.200
 3561POPC   D2A47056   2.048  17.740   6.481
 3561POPC   C3A47057   2.193  17.655   6.872
 3561POPC   C4A47058   2.006  17.863   7.236
 3561POPC   C1B47059   1.701  16.996   6.066
 3561POPC   C2B47060   1.523  17.077   6.491
 3561POPC   C3B47061   1.673  17.080   6.925
 3561POPC   C4B47062   1.866  17.372   7.204
 3562POPC   NC347063  15.493  31.579   5.364
 3562POPC   PO447064  14.884  31.344   5.553
 3562POPC   GL147065  15.151  31.273   5.907
 3562POPC   GL247066  15.454  31.450   5.862
 3562POPC   C1A47067  15.140  31.311   6.361
 3562POPC   D2A47068  14.823  31.632   6.452
 3562POPC   C3A47069  14.705  31.662   6.856
 3562POPC   C4A47070  14.914  31.834   7.185
 3562POPC   C1B47071  15.377  31.736   6.189
 3562POPC   C2B47072  15.289  31.855   6.595
 3562POPC   C3B47073  15.207  31.527   6.871
 3562POPC   C4B47074  15.325  31.315   7.235
 3563POPC   NC347075  26.785  33.038   5.445
 3563POPC   PO447076  27.145  33.649   5.523
 3563POPC   GL147077  26.825  33.417   5.806
 3563POPC   GL247078  26.940  33.082   5.918
 3563POPC   C1A47079  26.545  33.287   6.152
 3563POPC   D2A47080  26.354  33.016   6.471
 3563POPC   C3A47081  26.561  33.009   6.868
 3563POPC   C4A47082  26.981  33.064   7.069
 3563POPC   C1B47083  26.821  32.876   6.272
 3563POPC   C2B47084  26.966  32.768   6.640
 3563POPC   C3B47085  26.880  32.555   6.987
 3563POPC   C4B47086  27.087  32.483   7.371
 3564POPC   NC347087   7.955  34.294   5.357
 3564POPC   PO447088   8.388  33.741   5.348
 3564POPC   GL147089   8.266  33.673   5.788
 3564POPC   GL247090   7.911  33.673   5.802
 3564POPC   C1A47091   8.346  33.817   6.231
 3564POPC   D2A47092   8.712  33.770   6.529
 3564POPC   C3A47093   8.596  33.658   6.963
 3564POPC   C4A47094   8.267  33.832   7.243
 3564POPC   C1B47095   7.920  33.496   6.236
 3564POPC   C2B47096   7.947  33.745   6.638
 3564POPC   C3B47097   7.828  34.017   6.993
 3564POPC   C4B47098   7.829  33.957   7.470
 3565POPC   NC347099  11.266   4.064   5.298
 3565POPC   PO447100  11.512   4.668   5.570
 3565POPC   GL147101  11.300   4.325   5.753
 3565POPC   GL247102  11.479   3.966   5.752
 3565POPC   C1A47103  11.100   4.321   6.151
 3565POPC   D2A47104  11.060   4.554   6.526
 3565POPC   C3A47105  11.082   4.239   6.866
 3565POPC   C4A47106  11.199   4.284   7.250
 3565POPC   C1B47107  11.566   4.137   6.156
 3565POPC   C2B47108  11.466   4.227   6.544
 3565POPC   C3B47109  11.573   4.410   6.919
 3565POPC   C4B47110  11.761   4.327   7.295
 3566POPC   NC347111  31.599  30.947   5.315
 3566POPC   PO447112  31.106  30.536   5.450
 3566POPC   GL147113  31.358  30.738   5.751
 3566POPC   GL247114  31.072  30.794   5.891
 3566POPC   C1A47115  31.552  30.907   6.133
 3566POPC   D2A47116  31.825  30.769   6.494
 3566POPC   C3A47117  31.682  30.884   6.906
 3566POPC   C4A47118  31.521  30.677   7.257
 3566POPC   C1B47119  31.103  30.554   6.235
 3566POPC   C2B47120  31.318  30.694   6.568
 3566POPC   C3B47121  31.227  30.468   6.930
 3566POPC   C4B47122  30.968  30.667   7.248
 3567POPC   NC347123  33.269  26.276   4.988
 3567POPC   PO447124  32.719  26.357   5.414
 3567POPC   GL147125  32.897  26.126   5.772
 3567POPC   GL247126  33.226  25.987   5.651
 3567POPC   C1A47127  32.967  25.899   6.176
 3567POPC   D2A47128  32.915  25.625   6.528
 3567POPC   C3A47129  32.781  25.742   6.943
 3567POPC   C4A47130  32.905  26.036   7.295
 3567POPC   C1B47131  33.388  26.141   6.041
 3567POPC   C2B47132  33.348  26.170   6.469
 3567POPC   C3B47133  33.203  26.041   6.860
 3567POPC   C4B47134  33.419  26.000   7.247
 3568POPC   NC347135   9.531   8.398   5.582
 3568POPC   PO447136   8.989   8.135   5.278
 3568POPC   GL147137   8.987   8.172   5.723
 3568POPC   GL247138   9.268   8.182   5.957
 3568POPC   C1A47139   8.821   8.014   6.127
 3568POPC   D2A47140   9.043   8.054   6.527
 3568POPC   C3A47141   8.799   8.078   6.914
 3568POPC   C4A47142   9.088   8.087   7.272
 3568POPC   C1B47143   9.016   8.483   6.244
 3568POPC   C2B47144   8.828   8.536   6.667
 3568POPC   C3B47145   8.915   8.536   7.110
 3568POPC   C4B47146   8.930   8.495   7.567
 3569POPC   NC347147  35.075  27.173   5.568
 3569POPC   PO447148  34.527  26.746   5.512
 3569POPC   GL147149  34.288  26.825   5.887
 3569POPC   GL247150  34.192  26.516   5.982
 3569POPC   C1A47151  34.434  26.912   6.328
 3569POPC   D2A47152  34.787  26.875   6.650
 3569POPC   C3A47153  34.720  26.825   7.073
 3569POPC   C4A47154  34.318  26.870   7.132
 3569POPC   C1B47155  34.611  26.442   6.151
 3569POPC   C2B47156  34.900  26.401   6.494
 3569POPC   C3B47157  35.009  26.431   6.942
 3569POPC   C4B47158  34.938  26.454   7.383
 3570POPC   NC347159  34.104  26.560   5.460
 3570POPC   PO447160  33.512  26.789   5.528
 3570POPC   GL147161  33.747  26.937   5.842
 3570POPC   GL247162  33.445  27.056   5.984
 3570POPC   C1A47163  33.911  26.847   6.244
 3570POPC   D2A47164  34.034  26.966   6.650
 3570POPC   C3A47165  34.035  26.576   6.852
 3570POPC   C4A47166  33.829  26.752   7.211
 3570POPC   C1B47167  33.439  26.652   6.197
 3570POPC   C2B47168  33.579  26.606   6.624
 3570POPC   C3B47169  33.407  26.500   7.030
 3570POPC   C4B47170  33.509  26.446   7.454
 3571POPC   NC347171  40.970  15.926   5.424
 3571POPC   PO447172  40.298  15.991   5.413
 3571POPC   GL147173  40.601  16.040   5.775
 3571POPC   GL247174  40.912  16.283   5.797
 3571POPC   C1A47175  40.827  15.915   6.174
 3571POPC   D2A47176  40.925  15.687   6.570
 3571POPC   C3A47177  40.858  15.958   6.920
 3571POPC   C4A47178  40.712  15.961   7.327
 3571POPC   C1B47179  41.027  16.399   6.233
 3571POPC   C2B47180  41.204  16.096   6.485
 3571POPC   C3B47181  41.354  16.018   6.853
 3571POPC   C4B47182  41.285  16.329   7.162
 3572POPC   NC347183   0.846  33.992   5.426
 3572POPC   PO447184   0.247  34.050   5.246
 3572POPC   GL147185   0.395  33.942   5.713
 3572POPC   GL247186   0.427  33.599   5.787
 3572POPC   C1A47187   0.441  33.994   6.192
 3572POPC   D2A47188   0.498  33.809   6.627
 3572POPC   C3A47189   0.532  34.002   7.023
 3572POPC   C4A47190   0.693  34.184   7.427
 3572POPC   C1B47191   0.538  33.487   6.221
 3572POPC   C2B47192   0.380  33.315   6.615
 3572POPC   C3B47193   0.411  33.423   7.062
 3572POPC   C4B47194   0.562  33.687   7.411
 3573POPC   NC347195  11.351   7.146   5.391
 3573POPC   PO447196  11.115   7.685   5.237
 3573POPC   GL147197  11.102   7.490   5.690
 3573POPC   GL247198  11.431   7.402   5.855
 3573POPC   C1A47199  11.046   7.501   6.156
 3573POPC   D2A47200  11.226   7.404   6.561
 3573POPC   C3A47201  11.064   7.570   6.924
 3573POPC   C4A47202  11.043   7.541   7.373
 3573POPC   C1B47203  11.472   7.759   6.221
 3573POPC   C2B47204  11.562   7.774   6.688
 3573POPC   C3B47205  11.582   7.545   7.105
 3573POPC   C4B47206  11.872   7.318   7.405
 3574POPC   NC347207   9.315  11.500   5.397
 3574POPC   PO447208   9.987  11.140   5.260
 3574POPC   GL147209  10.003  11.166   5.729
 3574POPC   GL247210  10.009  10.836   5.894
 3574POPC   C1A47211  10.000  11.272   6.195
 3574POPC   D2A47212  10.025  11.400   6.663
 3574POPC   C3A47213   9.645  11.409   6.989
 3574POPC   C4A47214   9.662  11.508   7.454
 3574POPC   C1B47215   9.889  10.778   6.344
 3574POPC   C2B47216  10.119  10.894   6.731
 3574POPC   C3B47217  10.072  11.127   7.107
 3574POPC   C4B47218   9.738  11.028   7.326
 3575POPC   NC347219   1.589  31.137   5.135
 3575POPC   PO447220   0.968  31.397   5.420
 3575POPC   GL147221   1.191  31.444   5.785
 3575POPC   GL247222   1.471  31.277   5.644
 3575POPC   C1A47223   1.368  31.742   6.108
 3575POPC   D2A47224   1.463  31.809   6.529
 3575POPC   C3A47225   1.187  31.647   6.853
 3575POPC   C4A47226   1.109  31.448   7.234
 3575POPC   C1B47227   1.560  31.280   6.112
 3575POPC   C2B47228   1.647  31.311   6.572
 3575POPC   C3B47229   1.555  31.349   7.040
 3575POPC   C4B47230   1.486  31.276   7.525
 3576POPC   NC347231  14.890  26.510   5.532
 3576POPC   PO447232  15.353  26.959   5.456
 3576POPC   GL147233  15.119  26.880   5.830
 3576POPC   GL247234  14.791  27.010   5.772
 3576POPC   C1A47235  15.209  26.584   6.179
 3576POPC   D2A47236  15.378  26.643   6.588
 3576POPC   C3A47237  15.167  26.988   6.815
 3576POPC   C4A47238  15.207  27.111   7.242
 3576POPC   C1B47239  14.739  26.807   6.177
 3576POPC   C2B47240  14.818  26.591   6.555
 3576POPC   C3B47241  15.007  26.495   6.924
 3576POPC   C4B47242  14.892  26.712   7.236
 3577POPC   NC347243  42.011  23.808   5.391
 3577POPC   PO447244  42.540  23.902   5.025
 3577POPC   GL147245  42.474  23.656   5.501
 3577POPC   GL247246  42.668  23.499   5.810
 3577POPC   C1A47247  42.222  23.711   5.964
 3577POPC   D2A47248  42.066  23.742   6.420
 3577POPC   C3A47249  42.298  23.678   6.821
 3577POPC   C4A47250  42.203  23.781   7.264
 3577POPC   C1B47251  42.613  23.600   6.247
 3577POPC   C2B47252  42.541  23.979   6.466
 3577POPC   C3B47253  42.584  24.111   6.888
 3577POPC   C4B47254  42.684  23.927   7.279
 3578POPC   NC347255  23.492  25.059   5.444
 3578POPC   PO447256  23.788  25.418   5.064
 3578POPC   GL147257  23.903  25.214   5.652
 3578POPC   GL247258  23.554  25.171   5.910
 3578POPC   C1A47259  23.969  24.957   6.081
 3578POPC   D2A47260  23.673  24.951   6.439
 3578POPC   C3A47261  23.764  24.918   6.879
 3578POPC   C4A47262  23.817  25.079   7.305
 3578POPC   C1B47263  23.633  25.422   6.228
 3578POPC   C2B47264  23.722  25.493   6.635
 3578POPC   C3B47265  23.535  25.411   7.018
 3578POPC   C4B47266  23.589  25.591   7.417
 3579POPC   NC347267  35.917  32.564   5.490
 3579POPC   PO447268  36.247  33.111   5.200
 3579POPC   GL147269  36.168  33.240   5.673
 3579POPC   GL247270  36.109  32.922   5.801
 3579POPC   C1A47271  36.300  33.246   6.160
 3579POPC   D2A47272  36.087  33.184   6.589
 3579POPC   C3A47273  36.330  33.235   7.007
 3579POPC   C4A47274  36.458  33.017   7.412
 3579POPC   C1B47275  36.032  32.800   6.202
 3579POPC   C2B47276  35.739  32.776   6.526
 3579POPC   C3B47277  35.776  32.734   6.960
 3579POPC   C4B47278  36.022  32.740   7.341
 3580POPC   NC347279  16.219  14.763   5.272
 3580POPC   PO447280  15.775  15.215   5.286
 3580POPC   GL147281  15.850  15.108   5.738
 3580POPC   GL247282  16.172  14.921   5.758
 3580POPC   C1A47283  15.717  15.187   6.183
 3580POPC   D2A47284  15.907  15.245   6.600
 3580POPC   C3A47285  15.713  15.274   7.027
 3580POPC   C4A47286  15.844  15.366   7.505
 3580POPC   C1B47287  16.207  14.920   6.198
 3580POPC   C2B47288  16.296  14.710   6.576
 3580POPC   C3B47289  16.078  14.858   6.894
 3580POPC   C4B47290  15.955  14.919   7.294
 3581POPC   NC347291  43.444  25.130   5.494
 3581POPC   PO447292  44.119  25.168   5.364
 3581POPC   GL147293  43.949  25.128   5.792
 3581POPC   GL247294  43.755  25.397   5.869
 3581POPC   C1A47295  44.097  25.271   6.231
 3581POPC   D2A47296  44.319  25.306   6.653
 3581POPC   C3A47297  44.027  25.152   6.994
 3581POPC   C4A47298  43.995  24.974   7.432
 3581POPC   C1B47299  43.492  25.293   6.192
 3581POPC   C2B47300  43.487  25.497   6.580
 3581POPC   C3B47301  43.703  25.588   6.978
 3581POPC   C4B47302  43.657  25.325   7.334
 3582POPC   NC347303  33.988  40.299   5.541
 3582POPC   PO447304  33.407  39.953   5.460
 3582POPC   GL147305  33.752  39.854   5.746
 3582POPC   GL247306  34.094  39.765   5.610
 3582POPC   C1A47307  33.750  39.950   6.203
 3582POPC   D2A47308  33.587  39.759   6.593
 3582POPC   C3A47309  33.541  40.094   6.886
 3582POPC   C4A47310  33.680  40.017   7.296
 3582POPC   C1B47311  34.163  39.686   6.054
 3582POPC   C2B47312  34.102  39.680   6.513
 3582POPC   C3B47313  33.999  39.870   6.921
 3582POPC   C4B47314  34.141  40.242   7.203
 3583POPC   NC347315  17.817  42.900   5.522
 3583POPC   PO447316  18.442  43.067   5.425
 3583POPC   GL147317  18.356  43.289   5.812
 3583POPC   GL247318  17.995  43.336   5.794
 3583POPC   C1A47319  18.457  43.206   6.238
 3583POPC   D2A47320  18.500  42.990   6.613
 3583POPC   C3A47321  18.468  43.234   6.983
 3583POPC   C4A47322  18.316  43.088   7.368
 3583POPC   C1B47323  17.845  43.333   6.218
 3583POPC   C2B47324  18.062  43.283   6.597
 3583POPC   C3B47325  17.961  43.118   6.986
 3583POPC   C4B47326  17.852  43.318   7.364
 3584POPC   NC347327  26.434  13.147   5.536
 3584POPC   PO447328  27.062  12.814   5.386
 3584POPC   GL147329  26.881  12.964   5.739
 3584POPC   GL247330  26.910  13.291   5.686
 3584POPC   C1A47331  26.752  12.967   6.169
 3584POPC   D2A47332  26.687  13.075   6.599
 3584POPC   C3A47333  26.827  12.824   6.989
 3584POPC   C4A47334  26.518  12.836   7.304
 3584POPC   C1B47335  27.127  13.313   6.078
 3584POPC   C2B47336  27.074  13.451   6.485
 3584POPC   C3B47337  27.090  13.242   6.846
 3584POPC   C4B47338  27.237  13.149   7.228
 3585POPC   NC347339   8.310  44.550   5.152
 3585POPC   PO447340   8.090  44.015   5.478
 3585POPC   GL147341   7.932  43.835   5.823
 3585POPC   GL247342   7.996  44.144   6.007
 3585POPC   C1A47343   8.059  43.671   6.227
 3585POPC   D2A47344   8.099  43.869   6.618
 3585POPC   C3A47345   8.264  43.769   7.005
 3585POPC   C4A47346   8.072  43.924   7.379
 3585POPC   C1B47347   8.301  44.254   6.342
 3585POPC   C2B47348   8.488  44.204   6.768
 3585POPC   C3B47349   8.398  44.267   7.219
 3585POPC   C4B47350   8.592  44.285   7.675
 3586POPC   NC347351  43.293  42.862   5.224
 3586POPC   PO447352  42.914  43.365   5.588
 3586POPC   GL147353  43.213  43.371   5.880
 3586POPC   GL247354  43.315  43.087   5.722
 3586POPC   C1A47355  43.184  43.335   6.324
 3586POPC   D2A47356  42.997  43.558   6.627
 3586POPC   C3A47357  43.247  43.426   6.912
 3586POPC   C4A47358  43.252  43.350   7.308
 3586POPC   C1B47359  43.049  42.917   6.099
 3586POPC   C2B47360  42.874  43.001   6.535
 3586POPC   C3B47361  43.034  42.912   6.934
 3586POPC   C4B47362  42.912  42.989   7.346
 3587POPC   NC347363  44.200  10.740   5.465
 3587POPC   PO447364  44.803  10.456   5.419
 3587POPC   GL147365  44.625  10.545   5.822
 3587POPC   GL247366  44.863  10.797   5.879
 3587POPC   C1A47367  44.466  10.529   6.282
 3587POPC   D2A47368  44.664  10.381   6.697
 3587POPC   C3A47369  44.476  10.286   7.112
 3587POPC   C4A47370  44.368  10.095   7.551
 3587POPC   C1B47371  44.976  10.574   6.263
 3587POPC   C2B47372   0.150  10.506   6.668
 3587POPC   C3B47373  45.000  10.483   7.091
 3587POPC   C4B47374  44.861  10.222   7.469
 3588POPC   NC347375  23.575  15.584   5.450
 3588POPC   PO447376  23.428  16.309   5.455
 3588POPC   GL147377  23.662  16.095   5.785
 3588POPC   GL247378  23.686  15.740   5.914
 3588POPC   C1A47379  23.584  16.171   6.209
 3588POPC   D2A47380  23.769  16.240   6.612
 3588POPC   C3A47381  23.678  16.000   6.963
 3588POPC   C4A47382  23.642  16.073   7.400
 3588POPC   C1B47383  23.976  15.843   6.215
 3588POPC   C2B47384  23.992  15.768   6.610
 3588POPC   C3B47385  24.124  15.730   6.992
 3588POPC   C4B47386  23.894  15.634   7.326
 3589POPC   NC347387  33.052  11.143   5.379
 3589POPC   PO447388  32.560  11.549   5.348
 3589POPC   GL147389  32.828  11.491   5.750
 3589POPC   GL247390  33.198  11.422   5.798
 3589POPC   C1A47391  32.871  11.193   6.149
 3589POPC   D2A47392  32.705  11.251   6.586
 3589POPC   C3A47393  32.896  11.022   6.928
 3589POPC   C4A47394  33.067  11.096   7.338
 3589POPC   C1B47395  33.146  11.618   6.204
 3589POPC   C2B47396  32.955  11.712   6.605
 3589POPC   C3B47397  33.009  11.530   7.016
 3589POPC   C4B47398  33.299  11.550   7.380
 3590POPC   NC347399   1.460  31.898   5.488
 3590POPC   PO447400   1.107  32.384   5.216
 3590POPC   GL147401   1.103  32.276   5.660
 3590POPC   GL247402   1.019  31.933   5.751
 3590POPC   C1A47403   1.239  32.234   6.120
 3590POPC   D2A47404   1.326  32.338   6.551
 3590POPC   C3A47405   1.340  32.137   6.949
 3590POPC   C4A47406   1.343  32.287   7.373
 3590POPC   C1B47407   0.854  31.838   6.146
 3590POPC   C2B47408   0.969  31.975   6.523
 3590POPC   C3B47409   0.828  32.016   6.926
 3590POPC   C4B47410   0.991  31.935   7.309
 3591POPC   NC347411  21.615  33.596   5.399
 3591POPC   PO447412  21.197  34.150   5.140
 3591POPC   GL147413  21.387  34.035   5.655
 3591POPC   GL247414  21.716  34.042   5.742
 3591POPC   C1A47415  21.247  33.891   6.117
 3591POPC   D2A47416  21.062  34.024   6.538
 3591POPC   C3A47417  21.253  33.904   6.921
 3591POPC   C4A47418  21.289  33.693   7.331
 3591POPC   C1B47419  21.741  33.726   6.110
 3591POPC   C2B47420  21.542  33.678   6.536
 3591POPC   C3B47421  21.701  33.652   6.990
 3591POPC   C4B47422  21.759  33.628   7.470
 3592POPC   NC347423  35.327  36.419   5.113
 3592POPC   PO447424  35.042  36.895   5.390
 3592POPC   GL147425  35.219  36.862   5.771
 3592POPC   GL247426  35.447  37.115   5.751
 3592POPC   C1A47427  35.156  36.968   6.205
 3592POPC   D2A47428  34.955  36.973   6.621
 3592POPC   C3A47429  35.195  36.772   6.941
 3592POPC   C4A47430  35.106  36.696   7.398
 3592POPC   C1B47431  35.613  37.253   6.121
 3592POPC   C2B47432  35.571  37.096   6.529
 3592POPC   C3B47433  35.537  37.291   6.913
 3592POPC   C4B47434  35.409  37.096   7.288
 3593POPC   NC347435   4.074  35.614   5.248
 3593POPC   PO447436   4.515  35.243   5.440
 3593POPC   GL147437   4.410  35.109   5.815
 3593POPC   GL247438   4.104  35.274   5.765
 3593POPC   C1A47439   4.553  35.273   6.223
 3593POPC   D2A47440   4.423  35.411   6.626
 3593POPC   C3A47441   4.581  35.239   6.991
 3593POPC   C4A47442   4.780  35.538   7.214
 3593POPC   C1B47443   4.048  35.198   6.190
 3593POPC   C2B47444   4.086  35.025   6.585
 3593POPC   C3B47445   4.041  35.290   6.947
 3593POPC   C4B47446   4.216  35.353   7.346
 3594POPC   NC347447  30.161  16.477   5.538
 3594POPC   PO447448  29.676  16.966   5.326
 3594POPC   GL147449  29.723  16.672   5.720
 3594POPC   GL247450  29.613  16.877   5.920
 3594POPC   C1A47451  29.941  16.563   6.152
 3594POPC   D2A47452  30.248  16.507   6.501
 3594POPC   C3A47453  30.026  16.579   6.886
 3594POPC   C4A47454  29.852  16.757   7.260
 3594POPC   C1B47455  29.772  17.087   6.239
 3594POPC   C2B47456  29.884  16.965   6.609
 3594POPC   C3B47457  29.924  17.177   6.984
 3594POPC   C4B47458  29.575  17.185   7.298
 3595POPC   NC347459   4.162   9.146   5.420
 3595POPC   PO447460   4.822   8.759   5.347
 3595POPC   GL147461   4.532   8.884   5.678
 3595POPC   GL247462   4.183   8.712   5.729
 3595POPC   C1A47463   4.419   9.009   6.095
 3595POPC   D2A47464   4.550   9.235   6.441
 3595POPC   C3A47465   4.447   9.160   6.877
 3595POPC   C4A47466   4.678   9.315   7.234
 3595POPC   C1B47467   3.949   8.747   6.132
 3595POPC   C2B47468   4.130   8.858   6.553
 3595POPC   C3B47469   4.230   8.692   6.978
 3595POPC   C4B47470   4.315   8.963   7.370
 3596POPC   NC347471  26.933  12.372   5.291
 3596POPC   PO447472  26.790  11.709   5.429
 3596POPC   GL147473  27.024  12.073   5.725
 3596POPC   GL247474  26.951  12.446   5.796
 3596POPC   C1A47475  27.206  12.212   6.165
 3596POPC   D2A47476  27.093  11.983   6.573
 3596POPC   C3A47477  26.987  12.008   7.010
 3596POPC   C4A47478  26.672  11.803   7.311
 3596POPC   C1B47479  26.770  12.461   6.248
 3596POPC   C2B47480  26.762  12.382   6.718
 3596POPC   C3B47481  26.607  12.333   7.168
 3596POPC   C4B47482  26.315  12.408   7.527
 3597POPC   NC347483   3.306  29.541   5.434
 3597POPC   PO447484   3.736  30.036   5.465
 3597POPC   GL147485   3.460  29.913   5.760
 3597POPC   GL247486   3.684  29.663   5.839
 3597POPC   C1A47487   3.353  29.883   6.175
 3597POPC   D2A47488   3.533  30.104   6.537
 3597POPC   C3A47489   3.549  29.832   6.868
 3597POPC   C4A47490   3.404  29.745   7.247
 3597POPC   C1B47491   3.858  30.000   6.120
 3597POPC   C2B47492   4.026  29.996   6.534
 3597POPC   C3B47493   3.948  30.121   6.947
 3597POPC   C4B47494   3.909  29.742   7.241
 3598POPC   NC347495   7.247  38.169   5.662
 3598POPC   PO447496   7.327  38.855   5.482
 3598POPC   GL147497   7.547  38.648   5.782
 3598POPC   GL247498   7.232  38.581   5.950
 3598POPC   C1A47499   7.681  38.563   6.204
 3598POPC   D2A47500   7.490  38.624   6.614
 3598POPC   C3A47501   7.705  38.537   6.989
 3598POPC   C4A47502   7.687  38.722   7.381
 3598POPC   C1B47503   7.170  38.339   6.332
 3598POPC   C2B47504   7.008  38.442   6.731
 3598POPC   C3B47505   7.212  38.445   7.110
 3598POPC   C4B47506   7.059  38.273   7.489
 3599POPC   NC347507  23.067  31.114   5.334
 3599POPC   PO447508  22.882  30.449   5.228
 3599POPC   GL147509  22.933  30.613   5.616
 3599POPC   GL247510  22.820  30.893   5.734
 3599POPC   C1A47511  22.910  30.488   6.067
 3599POPC   D2A47512  23.084  30.667   6.457
 3599POPC   C3A47513  22.930  30.507   6.868
 3599POPC   C4A47514  22.923  30.647   7.302
 3599POPC   C1B47515  22.696  30.965   6.150
 3599POPC   C2B47516  22.671  30.965   6.579
 3599POPC   C3B47517  22.586  30.894   6.993
 3599POPC   C4B47518  22.657  31.133   7.339
 3600POPC   NC347519  13.238  14.590   5.273
 3600POPC   PO447520  12.768  14.146   5.464
 3600POPC   GL147521  12.905  14.290   5.846
 3600POPC   GL247522  13.143  14.556   5.785
 3600POPC   C1A47523  12.767  14.322   6.269
 3600POPC   D2A47524  12.635  14.661   6.554
 3600POPC   C3A47525  12.760  14.534   6.961
 3600POPC   C4A47526  12.639  14.260   7.315
 3600POPC   C1B47527  13.081  14.727   6.210
 3600POPC   C2B47528  13.060  14.941   6.610
 3600POPC   C3B47529  13.191  14.856   7.016
 3600POPC   C4B47530  13.225  14.484   7.190
 3601POPC   NC347531   0.193   2.696   5.314
 3601POPC   PO447532   0.811   2.588   5.580
 3601POPC   GL147533   0.430   2.783   5.782
 3601POPC   GL247534   0.080   2.599   5.806
 3601POPC   C1A47535   0.486   2.868   6.223
 3601POPC   D2A47536   0.796   2.680   6.513
 3601POPC   C3A47537   0.588   2.611   6.932
 3601POPC   C4A47538   0.432   3.006   7.143
 3601POPC   C1B47539  44.960   2.785   6.178
 3601POPC   C2B47540   0.079   2.936   6.584
 3601POPC   C3B47541  44.896   2.893   6.987
 3601POPC   C4B47542   0.085   2.652   7.286
 3602POPC   NC347543  41.370   5.314   5.414
 3602POPC   PO447544  41.708   4.715   5.439
 3602POPC   GL147545  41.602   4.959   5.794
 3602POPC   GL247546  41.386   5.252   5.914
 3602POPC   C1A47547  41.456   4.826   6.210
 3602POPC   D2A47548  41.411   4.995   6.618
 3602POPC   C3A47549  41.415   4.832   7.027
 3602POPC   C4A47550  41.377   5.128   7.321
 3602POPC   C1B47551  41.771   5.255   6.183
 3602POPC   C2B47552  41.895   5.122   6.572
 3602POPC   C3B47553  41.827   5.159   6.993
 3602POPC   C4B47554  41.851   4.859   7.303
 3603POPC   NC347555   9.802   2.792   5.425
 3603POPC   PO447556   9.213   2.317   5.400
 3603POPC   GL147557   9.482   2.545   5.735
 3603POPC   GL247558   9.787   2.388   5.856
 3603POPC   C1A47559   9.655   2.833   6.098
 3603POPC   D2A47560   9.739   3.041   6.521
 3603POPC   C3A47561   9.932   2.814   6.860
 3603POPC   C4A47562   9.762   2.535   7.143
 3603POPC   C1B47563   9.972   2.305   6.273
 3603POPC   C2B47564  10.173   2.379   6.683
 3603POPC   C3B47565  10.254   2.475   7.125
 3603POPC   C4B47566  10.106   2.852   7.384
 3604POPC   NC347567  40.286   9.448   5.347
 3604POPC   PO447568  40.111  10.127   5.364
 3604POPC   GL147569  40.173   9.824   5.750
 3604POPC   GL247570  40.031   9.475   5.791
 3604POPC   C1A47571  40.177   9.753   6.220
 3604POPC   D2A47572  40.058  10.001   6.615
 3604POPC   C3A47573  39.859   9.940   7.044
 3604POPC   C4A47574  40.097   9.752   7.406
 3604POPC   C1B47575  39.819   9.339   6.158
 3604POPC   C2B47576  39.868   9.504   6.569
 3604POPC   C3B47577  40.011   9.468   6.967
 3604POPC   C4B47578  39.825   9.317   7.371
 3605POPC   NC347579  32.787  13.370   5.549
 3605POPC   PO447580  33.208  13.917   5.496
 3605POPC   GL147581  33.055  13.667   5.879
 3605POPC   GL247582  32.705  13.666   5.997
 3605POPC   C1A47583  33.113  13.630   6.340
 3605POPC   D2A47584  33.379  13.720   6.703
 3605POPC   C3A47585  33.104  13.709   7.044
 3605POPC   C4A47586  33.194  13.693   7.447
 3605POPC   C1B47587  32.770  13.279   6.219
 3605POPC   C2B47588  32.744  13.091   6.629
 3605POPC   C3B47589  32.536  13.238   7.012
 3605POPC   C4B47590  32.660  13.550   7.294
 3606POPC   NC347591  14.976  29.117   5.513
 3606POPC   PO447592  15.608  29.411   5.453
 3606POPC   GL147593  15.286  29.394   5.807
 3606POPC   GL247594  15.172  29.028   5.959
 3606POPC   C1A47595  15.059  29.423   6.196
 3606POPC   D2A47596  15.173  29.114   6.501
 3606POPC   C3A47597  15.026  29.189   6.905
 3606POPC   C4A47598  15.237  29.341   7.235
 3606POPC   C1B47599  14.784  28.886   6.249
 3606POPC   C2B47600  14.559  28.883   6.681
 3606POPC   C3B47601  14.741  28.807   7.110
 3606POPC   C4B47602  15.120  28.847   7.401
 3607POPC   NC347603  13.762  34.086   5.453
 3607POPC   PO447604  13.253  33.560   5.518
 3607POPC   GL147605  13.470  33.484   5.901
 3607POPC   GL247606  13.839  33.495   5.827
 3607POPC   C1A47607  13.422  33.514   6.364
 3607POPC   D2A47608  13.259  33.734   6.733
 3607POPC   C3A47609  13.468  33.782   7.098
 3607POPC   C4A47610  13.867  33.932   7.161
 3607POPC   C1B47611  13.825  33.770   6.206
 3607POPC   C2B47612  13.829  33.773   6.668
 3607POPC   C3B47613  14.085  33.545   6.941
 3607POPC   C4B47614  14.087  33.541   7.419
 3608POPC   NC347615  21.407  37.183   5.490
 3608POPC   PO447616  21.857  36.702   5.410
 3608POPC   GL147617  21.554  36.775   5.724
 3608POPC   GL247618  21.303  36.544   5.758
 3608POPC   C1A47619  21.334  36.928   6.120
 3608POPC   D2A47620  21.424  37.063   6.563
 3608POPC   C3A47621  21.218  36.887   6.932
 3608POPC   C4A47622  21.294  36.995   7.375
 3608POPC   C1B47623  21.656  36.501   6.103
 3608POPC   C2B47624  21.581  36.591   6.506
 3608POPC   C3B47625  21.592  36.502   6.929
 3608POPC   C4B47626  21.331  36.494   7.263
 3609POPC   NC347627   8.115  42.020   5.506
 3609POPC   PO447628   8.008  42.650   5.331
 3609POPC   GL147629   7.975  42.522   5.750
 3609POPC   GL247630   8.295  42.340   5.877
 3609POPC   C1A47631   7.969  42.619   6.187
 3609POPC   D2A47632   8.292  42.421   6.455
 3609POPC   C3A47633   8.257  42.558   6.877
 3609POPC   C4A47634   8.250  42.375   7.279
 3609POPC   C1B47635   7.984  42.114   6.127
 3609POPC   C2B47636   7.946  42.042   6.525
 3609POPC   C3B47637   8.158  42.050   6.854
 3609POPC   C4B47638   8.057  41.928   7.234
 3610POPC   NC347639   7.589  11.035   5.216
 3610POPC   PO447640   7.332  10.428   5.369
 3610POPC   GL147641   7.429  10.409   5.786
 3610POPC   GL247642   7.659  10.676   5.821
 3610POPC   C1A47643   7.330  10.498   6.206
 3610POPC   D2A47644   7.110  10.467   6.579
 3610POPC   C3A47645   7.275  10.341   6.962
 3610POPC   C4A47646   7.269  10.298   7.396
 3610POPC   C1B47647   7.785  10.720   6.255
 3610POPC   C2B47648   7.694  10.577   6.676
 3610POPC   C3B47649   7.676  10.607   7.131
 3610POPC   C4B47650   7.871  10.850   7.449
 3611POPC   NC347651   7.370  13.107   5.336
 3611POPC   PO447652   7.144  12.497   5.284
 3611POPC   GL147653   7.318  12.664   5.660
 3611POPC   GL247654   7.038  12.521   5.833
 3611POPC   C1A47655   7.393  12.859   6.095
 3611POPC   D2A47656   7.656  12.947   6.502
 3611POPC   C3A47657   7.449  12.979   6.911
 3611POPC   C4A47658   7.575  13.054   7.320
 3611POPC   C1B47659   7.165  12.413   6.234
 3611POPC   C2B47660   7.205  12.673   6.573
 3611POPC   C3B47661   7.178  12.531   6.963
 3611POPC   C4B47662   7.255  12.669   7.361
 3612POPC   NC347663  38.291  33.150   5.452
 3612POPC   PO447664  38.863  32.808   5.383
 3612POPC   GL147665  38.630  32.946   5.778
 3612POPC   GL247666  38.337  32.732   5.811
 3612POPC   C1A47667  38.399  33.142   6.170
 3612POPC   D2A47668  38.490  32.997   6.607
 3612POPC   C3A47669  38.336  33.010   7.031
 3612POPC   C4A47670  38.361  33.411   7.227
 3612POPC   C1B47671  38.580  32.653   6.209
 3612POPC   C2B47672  38.571  32.496   6.647
 3612POPC   C3B47673  38.773  32.636   7.012
 3612POPC   C4B47674  38.733  32.879   7.365
 3613POPC   NC347675   0.330  23.474   5.528
 3613POPC   PO447676   0.400  24.181   5.524
 3613POPC   GL147677   0.495  23.885   5.824
 3613POPC   GL247678   0.178  23.782   5.913
 3613POPC   C1A47679   0.598  23.645   6.198
 3613POPC   D2A47680   0.832  23.559   6.583
 3613POPC   C3A47681   0.709  23.707   6.989
 3613POPC   C4A47682   0.698  23.500   7.359
 3613POPC   C1B47683   0.091  23.498   6.254
 3613POPC   C2B47684   0.309  23.385   6.631
 3613POPC   C3B47685   0.234  23.499   7.073
 3613POPC   C4B47686   0.319  23.826   7.388
 3614POPC   NC347687   8.019   1.114   5.422
 3614POPC   PO447688   8.533   1.622   5.431
 3614POPC   GL147689   8.489   1.225   5.763
 3614POPC   GL247690   8.137   1.069   5.908
 3614POPC   C1A47691   8.525   1.086   6.214
 3614POPC   D2A47692   8.151   0.893   6.441
 3614POPC   C3A47693   8.158   0.871   6.909
 3614POPC   C4A47694   8.497   1.039   7.202
 3614POPC   C1B47695   8.117   1.377   6.268
 3614POPC   C2B47696   8.305   1.338   6.705
 3614POPC   C3B47697   8.073   1.340   7.118
 3614POPC   C4B47698   7.784   1.443   7.483
 3615POPC   NC347699   3.205  27.974   5.412
 3615POPC   PO447700   2.612  28.234   5.306
 3615POPC   GL147701   2.637  28.112   5.732
 3615POPC   GL247702   2.948  28.271   5.751
 3615POPC   C1A47703   2.619  28.348   6.133
 3615POPC   D2A47704   2.779  28.557   6.474
 3615POPC   C3A47705   2.589  28.327   6.792
 3615POPC   C4A47706   2.654  28.403   7.207
 3615POPC   C1B47707   2.997  28.009   6.144
 3615POPC   C2B47708   3.022  28.096   6.578
 3615POPC   C3B47709   2.917  28.001   7.016
 3615POPC   C4B47710   3.025  28.156   7.434
 3616POPC   NC347711  40.301  35.180   5.640
 3616POPC   PO447712  39.881  35.655   5.403
 3616POPC   GL147713  39.839  35.455   5.794
 3616POPC   GL247714  39.603  35.170   5.735
 3616POPC   C1A47715  40.069  35.491   6.188
 3616POPC   D2A47716  40.227  35.229   6.518
 3616POPC   C3A47717  40.084  35.324   6.931
 3616POPC   C4A47718  40.209  35.215   7.361
 3616POPC   C1B47719  39.458  35.340   6.116
 3616POPC   C2B47720  39.663  35.393   6.483
 3616POPC   C3B47721  39.563  35.358   6.882
 3616POPC   C4B47722  39.712  35.291   7.285
 3617POPC   NC347723  21.736  29.993   5.542
 3617POPC   PO447724  22.143  30.351   5.178
 3617POPC   GL147725  22.103  30.341   5.672
 3617POPC   GL247726  22.144  30.027   5.870
 3617POPC   C1A47727  21.927  30.380   6.133
 3617POPC   D2A47728  22.128  30.242   6.505
 3617POPC   C3A47729  21.930  30.186   6.906
 3617POPC   C4A47730  22.160  30.088   7.259
 3617POPC   C1B47731  22.157  29.797   6.246
 3617POPC   C2B47732  22.104  29.736   6.705
 3617POPC   C3B47733  22.230  29.529   7.085
 3617POPC   C4B47734  22.409  29.686   7.441
 3618POPC   NC347735   0.610   1.400   5.394
 3618POPC   PO447736   0.193   0.885   5.473
 3618POPC   GL147737   0.387   1.103   5.782
 3618POPC   GL247738   0.217   1.395   5.812
 3618POPC   C1A47739   0.611   1.305   6.143
 3618POPC   D2A47740   0.535   1.342   6.588
 3618POPC   C3A47741   0.584   0.990   6.846
 3618POPC   C4A47742   0.650   1.044   7.256
 3618POPC   C1B47743   0.098   1.189   6.217
 3618POPC   C2B47744   0.106   1.038   6.623
 3618POPC   C3B47745   0.175   1.234   6.998
 3618POPC   C4B47746   0.089   1.001   7.297
 3619POPC   NC347747  40.554  21.273   5.573
 3619POPC   PO447748  41.273  21.147   5.427
 3619POPC   GL147749  41.060  21.413   5.736
 3619POPC   GL247750  40.896  21.135   5.929
 3619POPC   C1A47751  40.937  21.652   6.140
 3619POPC   D2A47752  40.638  21.618   6.516
 3619POPC   C3A47753  40.678  21.313   6.860
 3619POPC   C4A47754  40.575  21.540   7.246
 3619POPC   C1B47755  40.910  21.173   6.385
 3619POPC   C2B47756  41.119  21.501   6.623
 3619POPC   C3B47757  41.001  21.676   7.002
 3619POPC   C4B47758  41.025  21.287   7.266
 3620POPC   NC347759   9.198  29.580   5.380
 3620POPC   PO447760   8.773  28.873   5.401
 3620POPC   GL147761   8.888  29.054   5.787
 3620POPC   GL247762   8.996  29.367   5.797
 3620POPC   C1A47763   8.754  29.242   6.232
 3620POPC   D2A47764   8.747  29.412   6.658
 3620POPC   C3A47765   8.819  29.173   7.066
 3620POPC   C4A47766   8.659  29.281   7.516
 3620POPC   C1B47767   9.230  29.157   6.148
 3620POPC   C2B47768   9.259  29.309   6.537
 3620POPC   C3B47769   9.293  29.340   6.939
 3620POPC   C4B47770   9.295  29.133   7.298
 3621POPC   NC347771   1.833   3.083   5.443
 3621POPC   PO447772   2.218   2.537   5.467
 3621POPC   GL147773   2.166   2.793   5.833
 3621POPC   GL247774   1.826   2.843   5.888
 3621POPC   C1A47775   2.057   2.610   6.263
 3621POPC   D2A47776   1.855   2.761   6.631
 3621POPC   C3A47777   2.193   2.713   6.937
 3621POPC   C4A47778   2.274   2.316   7.140
 3621POPC   C1B47779   1.553   3.018   6.222
 3621POPC   C2B47780   1.522   3.164   6.650
 3621POPC   C3B47781   1.468   2.899   6.976
 3621POPC   C4B47782   1.762   2.637   7.159
 3622POPC   NC347783  20.781  30.061   5.392
 3622POPC   PO447784  20.327  29.636   5.513
 3622POPC   GL147785  20.501  29.995   5.825
 3622POPC   GL247786  20.858  30.122   5.892
 3622POPC   C1A47787  20.540  30.118   6.284
 3622POPC   D2A47788  20.837  30.079   6.640
 3622POPC   C3A47789  20.672  30.134   7.046
 3622POPC   C4A47790  20.268  30.107   7.246
 3622POPC   C1B47791  20.901  29.742   6.185
 3622POPC   C2B47792  21.132  29.674   6.613
 3622POPC   C3B47793  20.911  29.660   7.046
 3622POPC   C4B47794  20.818  29.668   7.518
 3623POPC   NC347795  19.692  40.141   5.256
 3623POPC   PO447796  20.143  39.735   5.255
 3623POPC   GL147797  19.957  39.907   5.686
 3623POPC   GL247798  20.212  40.011   5.848
 3623POPC   C1A47799  19.868  40.179   6.159
 3623POPC   D2A47800  19.974  40.410   6.584
 3623POPC   C3A47801  19.838  40.217   6.983
 3623POPC   C4A47802  19.645  40.227   7.419
 3623POPC   C1B47803  20.224  39.817   6.263
 3623POPC   C2B47804  20.007  39.807   6.657
 3623POPC   C3B47805  20.186  39.838   7.061
 3623POPC   C4B47806  20.143  40.082   7.420
 3624POPC   NC347807  30.558  43.711   5.384
 3624POPC   PO447808  31.125  44.156   5.358
 3624POPC   GL147809  30.925  44.196   5.810
 3624POPC   GL247810  30.580  44.285   5.867
 3624POPC   C1A47811  30.828  44.092   6.288
 3624POPC   D2A47812  30.578  44.034   6.688
 3624POPC   C3A47813  30.764  43.871   7.104
 3624POPC   C4A47814  30.576  43.680   7.487
 3624POPC   C1B47815  30.369  43.944   6.123
 3624POPC   C2B47816  30.308  43.613   6.441
 3624POPC   C3B47817  30.358  43.618   6.887
 3624POPC   C4B47818  30.105  43.616   7.214
 3625POPC   NC347819  14.519  17.034   5.414
 3625POPC   PO447820  14.357  16.419   5.261
 3625POPC   GL147821  14.202  16.655   5.652
 3625POPC   GL247822  13.861  16.626   5.777
 3625POPC   C1A47823  14.358  16.825   6.069
 3625POPC   D2A47824  14.525  16.651   6.476
 3625POPC   C3A47825  14.444  16.796   6.910
 3625POPC   C4A47826  14.668  16.994   7.251
 3625POPC   C1B47827  13.974  16.538   6.199
 3625POPC   C2B47828  14.036  16.753   6.591
 3625POPC   C3B47829  13.960  16.648   7.034
 3625POPC   C4B47830  13.815  16.747   7.464
 3626POPC   NC347831   3.802   5.754   5.238
 3626POPC   PO447832   3.447   6.205   5.492
 3626POPC   GL147833   3.554   6.074   5.901
 3626POPC   GL247834   3.674   5.760   5.764
 3626POPC   C1A47835   3.350   5.984   6.329
 3626POPC   D2A47836   3.234   5.896   6.793
 3626POPC   C3A47837   3.556   5.934   7.138
 3626POPC   C4A47838   3.701   6.041   7.584
 3626POPC   C1B47839   3.703   5.632   6.213
 3626POPC   C2B47840   3.694   5.689   6.682
 3626POPC   C3B47841   3.533   5.430   7.052
 3626POPC   C4B47842   3.399   5.259   7.462
 3627POPC   NC347843  29.568  25.116   5.491
 3627POPC   PO447844  30.168  25.470   5.313
 3627POPC   GL147845  30.124  25.660   5.739
 3627POPC   GL247846  29.854  25.454   5.845
 3627POPC   C1A47847  30.156  25.745   6.197
 3627POPC   D2A47848  30.159  25.372   6.509
 3627POPC   C3A47849  29.932  25.364   6.911
 3627POPC   C4A47850  29.978  25.451   7.350
 3627POPC   C1B47851  29.861  25.110   6.166
 3627POPC   C2B47852  29.693  25.033   6.599
 3627POPC   C3B47853  29.755  24.907   7.055
 3627POPC   C4B47854  29.725  25.047   7.516
 3628POPC   NC347855  20.642   3.081   5.433
 3628POPC   PO447856  20.797   2.347   5.399
 3628POPC   GL147857  20.782   2.660   5.714
 3628POPC   GL247858  20.431   2.677   5.687
 3628POPC   C1A47859  20.855   2.774   6.140
 3628POPC   D2A47860  20.647   2.788   6.535
 3628POPC   C3A47861  20.812   2.980   6.890
 3628POPC   C4A47862  20.617   3.015   7.289
 3628POPC   C1B47863  20.340   2.657   6.114
 3628POPC   C2B47864  20.236   2.500   6.519
 3628POPC   C3B47865  20.334   2.661   6.934
 3628POPC   C4B47866  20.197   2.388   7.264
 3629POPC   NC347867   2.603   2.832   5.458
 3629POPC   PO447868   3.212   2.438   5.488
 3629POPC   GL147869   3.019   2.612   5.838
 3629POPC   GL247870   2.926   2.955   5.865
 3629POPC   C1A47871   2.828   2.599   6.254
 3629POPC   D2A47872   2.983   2.647   6.672
 3629POPC   C3A47873   2.714   2.656   7.052
 3629POPC   C4A47874   2.923   2.664   7.450
 3629POPC   C1B47875   2.539   3.025   6.112
 3629POPC   C2B47876   2.473   2.895   6.539
 3629POPC   C3B47877   2.517   3.108   6.944
 3629POPC   C4B47878   2.642   3.066   7.376
 3630POPC   NC347879  39.224   6.903   5.442
 3630POPC   PO447880  39.639   6.404   5.607
 3630POPC   GL147881  39.325   6.573   5.863
 3630POPC   GL247882  38.996   6.412   5.973
 3630POPC   C1A47883  39.364   6.517   6.294
 3630POPC   D2A47884  39.237   6.597   6.688
 3630POPC   C3A47885  39.440   6.469   7.073
 3630POPC   C4A47886  39.517   6.821   7.343
 3630POPC   C1B47887  38.919   6.811   6.249
 3630POPC   C2B47888  38.801   6.907   6.711
 3630POPC   C3B47889  38.989   6.710   7.113
 3630POPC   C4B47890  38.985   6.780   7.556
 3631POPC   NC347891  42.100  25.866   5.343
 3631POPC   PO447892  42.737  26.086   5.359
 3631POPC   GL147893  42.571  26.322   5.732
 3631POPC   GL247894  42.354  26.058   5.760
 3631POPC   C1A47895  42.389  26.365   6.189
 3631POPC   D2A47896  42.263  26.445   6.630
 3631POPC   C3A47897  42.505  26.289   6.985
 3631POPC   C4A47898  42.327  25.979   7.239
 3631POPC   C1B47899  42.186  25.859   6.106
 3631POPC   C2B47900  42.196  25.608   6.467
 3631POPC   C3B47901  42.236  25.601   6.901
 3631POPC   C4B47902  41.943  25.637   7.270
 3632POPC   NC347903   8.591  29.293   5.442
 3632POPC   PO447904   7.954  29.209   5.457
 3632POPC   GL147905   8.216  29.215   5.817
 3632POPC   GL247906   8.446  29.475   5.903
 3632POPC   C1A47907   8.453  28.893   6.017
 3632POPC   D2A47908   8.496  28.731   6.450
 3632POPC   C3A47909   8.388  29.025   6.775
 3632POPC   C4A47910   8.347  28.995   7.219
 3632POPC   C1B47911   8.266  29.270   6.325
 3632POPC   C2B47912   8.004  29.391   6.681
 3632POPC   C3B47913   8.199  29.460   7.086
 3632POPC   C4B47914   8.632  29.627   7.129
 3633POPC   NC347915  25.827  32.932   5.374
 3633POPC   PO447916  26.380  33.393   5.442
 3633POPC   GL147917  26.192  33.188   5.805
 3633POPC   GL247918  25.858  33.145   5.834
 3633POPC   C1A47919  26.036  33.359   6.232
 3633POPC   D2A47920  25.852  33.141   6.593
 3633POPC   C3A47921  26.062  33.253   6.979
 3633POPC   C4A47922  26.411  33.267   7.295
 3633POPC   C1B47923  25.972  32.820   6.177
 3633POPC   C2B47924  26.012  32.656   6.628
 3633POPC   C3B47925  25.880  32.717   7.059
 3633POPC   C4B47926  25.615  32.712   7.479
 3634POPC   NC347927  15.905  33.275   5.324
 3634POPC   PO447928  15.887  32.617   5.379
 3634POPC   GL147929  15.903  32.906   5.729
 3634POPC   GL247930  16.154  33.189   5.753
 3634POPC   C1A47931  15.858  32.978   6.162
 3634POPC   D2A47932  15.707  32.945   6.568
 3634POPC   C3A47933  15.952  32.996   6.884
 3634POPC   C4A47934  15.880  32.915   7.252
 3634POPC   C1B47935  16.278  33.289   6.142
 3634POPC   C2B47936  16.445  33.385   6.530
 3634POPC   C3B47937  16.412  33.527   6.936
 3634POPC   C4B47938  16.255  33.255   7.250
 3635POPC   NC347939  31.699  35.981   5.408
 3635POPC   PO447940  31.173  36.249   5.284
 3635POPC   GL147941  31.350  36.182   5.729
 3635POPC   GL247942  31.435  35.828   5.844
 3635POPC   C1A47943  31.622  36.236   6.109
 3635POPC   D2A47944  31.575  36.452   6.486
 3635POPC   C3A47945  31.728  36.375   6.870
 3635POPC   C4A47946  31.367  36.451   7.158
 3635POPC   C1B47947  31.403  35.782   6.304
 3635POPC   C2B47948  31.640  35.895   6.672
 3635POPC   C3B47949  31.534  35.968   7.116
 3635POPC   C4B47950  31.336  35.692   7.440
 3636POPC   NC347951  23.783  20.651   5.396
 3636POPC   PO447952  23.424  20.976   5.763
 3636POPC   GL147953  23.810  20.754   5.901
 3636POPC   GL247954  23.845  20.378   5.840
 3636POPC   C1A47955  24.007  20.704   6.302
 3636POPC   D2A47956  23.878  20.758   6.716
 3636POPC   C3A47957  24.161  20.863   7.021
 3636POPC   C4A47958  23.858  20.803   7.310
 3636POPC   C1B47959  24.004  20.200   6.222
 3636POPC   C2B47960  23.800  20.251   6.613
 3636POPC   C3B47961  23.637  20.397   7.005
 3636POPC   C4B47962  24.034  20.367   7.159
 3637POPC   NC347963  18.602   8.547   5.410
 3637POPC   PO447964  18.306   9.167   5.340
 3637POPC   GL147965  18.292   9.224   5.743
 3637POPC   GL247966  18.323   8.893   5.834
 3637POPC   C1A47967  18.383   9.277   6.199
 3637POPC   D2A47968  18.274   9.267   6.647
 3637POPC   C3A47969  18.251   9.108   7.039
 3637POPC   C4A47970  18.273   9.079   7.478
 3637POPC   C1B47971  18.537   8.803   6.243
 3637POPC   C2B47972  18.356   8.758   6.663
 3637POPC   C3B47973  18.440   8.627   7.082
 3637POPC   C4B47974  18.744   8.575   7.394
 3638POPC   NC347975   3.838  41.078   5.592
 3638POPC   PO447976   3.517  40.549   5.177
 3638POPC   GL147977   3.434  40.769   5.704
 3638POPC   GL247978   3.203  40.589   5.930
 3638POPC   C1A47979   3.457  40.950   6.177
 3638POPC   D2A47980   3.397  40.777   6.603
 3638POPC   C3A47981   3.486  40.993   6.982
 3638POPC   C4A47982   3.336  40.910   7.384
 3638POPC   C1B47983   3.578  40.454   6.231
 3638POPC   C2B47984   3.780  40.415   6.657
 3638POPC   C3B47985   3.619  40.522   7.096
 3638POPC   C4B47986   3.622  40.479   7.570
 3639POPC   NC347987  26.370   6.987   5.432
 3639POPC   PO447988  25.822   6.484   5.400
 3639POPC   GL147989  26.107   6.591   5.757
 3639POPC   GL247990  26.117   6.949   5.864
 3639POPC   C1A47991  25.989   6.590   6.204
 3639POPC   D2A47992  25.667   6.659   6.528
 3639POPC   C3A47993  25.927   6.570   6.863
 3639POPC   C4A47994  26.258   6.324   7.097
 3639POPC   C1B47995  26.298   6.992   6.294
 3639POPC   C2B47996  26.388   6.761   6.696
 3639POPC   C3B47997  26.286   6.837   7.167
 3639POPC   C4B47998  26.289   6.975   7.613
 3640POPC   NC347999  20.344  32.563   5.503
 3640POPC   PO448000  20.756  31.968   5.370
 3640POPC   GL148001  20.667  32.254   5.741
 3640POPC   GL248002  20.908  32.133   5.903
 3640POPC   C1A48003  20.499  32.510   6.151
 3640POPC   D2A48004  20.210  32.339   6.471
 3640POPC   C3A48005  20.419  32.254   6.855
 3640POPC   C4A48006  20.426  32.398   7.275
 3640POPC   C1B48007  20.654  32.025   6.232
 3640POPC   C2B48008  20.754  31.828   6.606
 3640POPC   C3B48009  20.595  31.799   7.017
 3640POPC   C4B48010  20.726  32.026   7.379
 3641POPC   NC348011  29.956  18.895   5.392
 3641POPC   PO448012  30.141  19.551   5.597
 3641POPC   GL148013  29.977  19.192   5.836
 3641POPC   GL248014  29.637  19.206   5.698
 3641POPC   C1A48015  30.112  18.843   6.143
 3641POPC   D2A48016  30.201  18.818   6.600
 3641POPC   C3A48017  30.237  19.245   6.786
 3641POPC   C4A48018  30.032  19.342   7.168
 3641POPC   C1B48019  29.575  18.886   6.045
 3641POPC   C2B48020  29.686  18.912   6.462
 3641POPC   C3B48021  29.750  19.062   6.844
 3641POPC   C4B48022  29.572  18.990   7.212
 3642POPC   NC348023  30.843  41.303   5.161
 3642POPC   PO448024  30.142  41.532   5.173
 3642POPC   GL148025  30.425  41.507   5.588
 3642POPC   GL248026  30.739  41.555   5.639
 3642POPC   C1A48027  30.441  41.543   6.067
 3642POPC   D2A48028  30.663  41.386   6.419
 3642POPC   C3A48029  30.643  41.525   6.826
 3642POPC   C4A48030  30.851  41.398   7.192
 3642POPC   C1B48031  30.958  41.578   6.050
 3642POPC   C2B48032  31.028  41.764   6.519
 3642POPC   C3B48033  30.947  41.888   7.002
 3642POPC   C4B48034  31.083  41.796   7.474
 3643POPC   NC348035  13.358  26.105   5.327
 3643POPC   PO448036  13.925  26.478   5.222
 3643POPC   GL148037  13.745  26.274   5.664
 3643POPC   GL248038  13.377  26.248   5.817
 3643POPC   C1A48039  13.774  26.062   6.112
 3643POPC   D2A48040  13.616  25.850   6.520
 3643POPC   C3A48041  13.679  25.983   6.953
 3643POPC   C4A48042  13.461  25.813   7.352
 3643POPC   C1B48043  13.304  26.240   6.273
 3643POPC   C2B48044  13.246  26.468   6.649
 3643POPC   C3B48045  13.354  26.364   7.058
 3643POPC   C4B48046  13.143  26.203   7.408
 3644POPC   NC348047   6.003  43.186   5.380
 3644POPC   PO448048   5.493  42.679   5.498
 3644POPC   GL148049   5.600  42.876   5.885
 3644POPC   GL248050   5.944  43.056   5.893
 3644POPC   C1A48051   5.525  43.019   6.335
 3644POPC   D2A48052   5.696  43.376   6.615
 3644POPC   C3A48053   5.783  43.232   7.036
 3644POPC   C4A48054   5.710  42.813   7.225
 3644POPC   C1B48055   6.142  43.339   6.242
 3644POPC   C2B48056   6.278  43.287   6.702
 3644POPC   C3B48057   6.253  43.415   7.145
 3644POPC   C4B48058   5.973  43.609   7.402
 3645POPC   NC348059  26.345   3.059   5.467
 3645POPC   PO448060  26.831   2.761   5.243
 3645POPC   GL148061  26.831   2.778   5.724
 3645POPC   GL248062  26.533   2.849   5.905
 3645POPC   C1A48063  26.970   2.947   6.163
 3645POPC   D2A48064  26.868   2.847   6.620
 3645POPC   C3A48065  27.019   2.970   7.058
 3645POPC   C4A48066  27.070   2.586   7.348
 3645POPC   C1B48067  26.468   3.032   6.338
 3645POPC   C2B48068  26.502   3.105   6.834
 3645POPC   C3B48069  26.534   2.833   7.214
 3645POPC   C4B48070  26.791   2.903   7.618
 3646POPC   NC348071  42.752  32.193   5.290
 3646POPC   PO448072  43.306  32.244   5.399
 3646POPC   GL148073  43.241  32.407   5.791
 3646POPC   GL248074  42.880  32.443   5.777
 3646POPC   C1A48075  43.135  32.238   6.200
 3646POPC   D2A48076  43.091  32.459   6.605
 3646POPC   C3A48077  43.059  32.173   6.931
 3646POPC   C4A48078  43.141  32.210   7.337
 3646POPC   C1B48079  42.666  32.488   6.185
 3646POPC   C2B48080  42.639  32.689   6.590
 3646POPC   C3B48081  42.701  32.554   7.024
 3646POPC   C4B48082  42.807  32.583   7.452
 3647POPC   NC348083  30.584  22.935   5.347
 3647POPC   PO448084  30.723  23.544   5.320
 3647POPC   GL148085  30.692  23.226   5.743
 3647POPC   GL248086  30.891  22.882   5.764
 3647POPC   C1A48087  30.551  23.002   6.137
 3647POPC   D2A48088  30.707  22.946   6.580
 3647POPC   C3A48089  30.635  23.120   7.008
 3647POPC   C4A48090  30.672  22.843   7.343
 3647POPC   C1B48091  31.053  22.984   6.179
 3647POPC   C2B48092  31.209  22.868   6.562
 3647POPC   C3B48093  31.121  23.013   6.936
 3647POPC   C4B48094  31.162  22.891   7.317
 3648POPC   NC348095  27.003  10.769   5.224
 3648POPC   PO448096  26.487  10.713   5.342
 3648POPC   GL148097  26.873  10.595   5.686
 3648POPC   GL248098  27.061  10.262   5.728
 3648POPC   C1A48099  27.158  10.618   6.101
 3648POPC   D2A48100  27.220  10.640   6.577
 3648POPC   C3A48101  26.913  10.717   6.934
 3648POPC   C4A48102  26.498  10.593   7.159
 3648POPC   C1B48103  26.927  10.160   6.193
 3648POPC   C2B48104  26.867  10.256   6.659
 3648POPC   C3B48105  26.866  10.231   7.110
 3648POPC   C4B48106  26.622  10.210   7.484
 3649POPC   NC348107  22.375  34.182   5.480
 3649POPC   PO448108  22.763  33.573   5.433
 3649POPC   GL148109  23.032  33.750   5.787
 3649POPC   GL248110  23.200  33.452   5.888
 3649POPC   C1A48111  23.215  33.854   6.199
 3649POPC   D2A48112  23.050  33.822   6.597
 3649POPC   C3A48113  23.242  33.697   6.964
 3649POPC   C4A48114  22.997  33.926   7.234
 3649POPC   C1B48115  22.831  33.510   6.219
 3649POPC   C2B48116  22.600  33.606   6.613
 3649POPC   C3B48117  22.722  33.514   7.045
 3649POPC   C4B48118  22.561  33.375   7.443
 3650POPC   NC348119  38.979  10.391   5.548
 3650POPC   PO448120  38.328  10.443   5.546
 3650POPC   GL148121  38.445  10.353   5.962
 3650POPC   GL248122  38.778  10.415   6.003
 3650POPC   C1A48123  38.349  10.334   6.406
 3650POPC   D2A48124  38.201  10.591   6.759
 3650POPC   C3A48125  38.352  10.387   7.134
 3650POPC   C4A48126  38.709  10.447   7.427
 3650POPC   C1B48127  38.931  10.575   6.343
 3650POPC   C2B48128  38.718  10.501   6.709
 3650POPC   C3B48129  38.695  10.734   7.005
 3650POPC   C4B48130  38.955  10.928   7.242
 3651POPC   NC348131  13.868  34.885   5.555
 3651POPC   PO448132  13.410  34.388   5.365
 3651POPC   GL148133  13.565  34.500   5.766
 3651POPC   GL248134  13.407  34.784   5.905
 3651POPC   C1A48135  13.747  34.297   6.138
 3651POPC   D2A48136  13.526  34.125   6.490
 3651POPC   C3A48137  13.588  34.284   6.908
 3651POPC   C4A48138  13.945  34.429   7.185
 3651POPC   C1B48139  13.557  34.719   6.367
 3651POPC   C2B48140  13.666  34.797   6.826
 3651POPC   C3B48141  13.522  34.679   7.252
 3651POPC   C4B48142  13.283  34.579   7.681
 3652POPC   NC348143  37.383   8.461   5.182
 3652POPC   PO448144  37.859   8.043   5.479
 3652POPC   GL148145  37.730   8.237   5.819
 3652POPC   GL248146  37.418   8.103   5.890
 3652POPC   C1A48147  37.796   8.395   6.222
 3652POPC   D2A48148  37.773   8.259   6.652
 3652POPC   C3A48149  37.517   8.538   6.937
 3652POPC   C4A48150  37.215   8.362   7.272
 3652POPC   C1B48151  37.590   7.895   6.244
 3652POPC   C2B48152  37.482   7.814   6.667
 3652POPC   C3B48153  37.553   8.023   7.049
 3652POPC   C4B48154  37.642   7.886   7.451
 3653POPC   NC348155  24.000  21.680   5.091
 3653POPC   PO448156  23.872  22.133   5.595
 3653POPC   GL148157  23.887  22.125   5.992
 3653POPC   GL248158  24.154  21.944   6.051
 3653POPC   C1A48159  23.727  22.347   6.327
 3653POPC   D2A48160  23.513  22.246   6.726
 3653POPC   C3A48161  23.567  22.308   7.167
 3653POPC   C4A48162  23.530  21.949   7.452
 3653POPC   C1B48163  24.263  22.266   6.324
 3653POPC   C2B48164  24.075  22.335   6.690
 3653POPC   C3B48165  24.019  22.105   7.053
 3653POPC   C4B48166  24.010  22.111   7.499
 3654POPC   NC348167  30.900  15.616   5.467
 3654POPC   PO448168  30.494  16.172   5.429
 3654POPC   GL148169  30.575  15.891   5.753
 3654POPC   GL248170  30.915  15.992   5.873
 3654POPC   C1A48171  30.432  15.717   6.125
 3654POPC   D2A48172  30.386  16.000   6.502
 3654POPC   C3A48173  30.663  15.975   6.789
 3654POPC   C4A48174  30.544  15.786   7.168
 3654POPC   C1B48175  30.884  15.838   6.307
 3654POPC   C2B48176  31.086  15.683   6.657
 3654POPC   C3B48177  31.046  15.778   7.076
 3654POPC   C4B48178  30.881  16.167   7.215
 3655POPC   NC348179  13.625  35.877   5.595
 3655POPC   PO448180  13.468  35.214   5.518
 3655POPC   GL148181  13.638  35.237   5.917
 3655POPC   GL248182  13.606  35.589   6.044
 3655POPC   C1A48183  13.355  35.195   6.274
 3655POPC   D2A48184  13.275  35.573   6.517
 3655POPC   C3A48185  13.472  35.594   6.927
 3655POPC   C4A48186  13.547  35.195   7.145
 3655POPC   C1B48187  13.823  35.327   6.391
 3655POPC   C2B48188  13.923  35.305   6.818
 3655POPC   C3B48189  13.984  35.477   7.233
 3655POPC   C4B48190  13.954  35.419   7.671
 3656POPC   NC348191  33.985   1.382   5.367
 3656POPC   PO448192  33.435   1.091   5.190
 3656POPC   GL148193  33.639   1.216   5.697
 3656POPC   GL248194  34.009   1.174   5.811
 3656POPC   C1A48195  33.689   1.101   6.195
 3656POPC   D2A48196  33.480   1.180   6.585
 3656POPC   C3A48197  33.614   1.107   7.006
 3656POPC   C4A48198  33.513   1.225   7.423
 3656POPC   C1B48199  34.114   1.396   6.161
 3656POPC   C2B48200  33.988   1.309   6.560
 3656POPC   C3B48201  33.804   1.546   6.849
 3656POPC   C4B48202  34.005   1.382   7.246
 3657POPC   NC348203  22.800  35.451   5.148
 3657POPC   PO448204  23.226  35.462   5.644
 3657POPC   GL148205  23.066  35.125   5.820
 3657POPC   GL248206  22.756  35.129   5.623
 3657POPC   C1A48207  23.067  35.170   6.262
 3657POPC   D2A48208  23.094  35.316   6.665
 3657POPC   C3A48209  22.798  35.543   6.868
 3657POPC   C4A48210  23.053  35.645   7.195
 3657POPC   C1B48211  22.605  35.012   6.052
 3657POPC   C2B48212  22.607  35.135   6.493
 3657POPC   C3B48213  22.794  34.960   6.845
 3657POPC   C4B48214  22.864  35.170   7.247
 3658POPC   NC348215   0.386  10.150   5.462
 3658POPC   PO448216   0.550  10.859   5.370
 3658POPC   GL148217   0.346  10.598   5.765
 3658POPC   GL248218   0.123  10.306   5.867
 3658POPC   C1A48219   0.462  10.729   6.194
 3658POPC   D2A48220   0.672  10.611   6.577
 3658POPC   C3A48221   0.504  10.725   6.966
 3658POPC   C4A48222   0.471  10.733   7.388
 3658POPC   C1B48223   0.384  10.232   6.292
 3658POPC   C2B48224   0.504  10.143   6.763
 3658POPC   C3B48225   0.458  10.239   7.214
 3658POPC   C4B48226   0.324  10.308   7.653
 3659POPC   NC348227  22.402  41.286   5.117
 3659POPC   PO448228  21.920  41.763   5.196
 3659POPC   GL148229  22.129  41.674   5.609
 3659POPC   GL248230  22.474  41.718   5.716
 3659POPC   C1A48231  22.032  41.738   6.049
 3659POPC   D2A48232  21.974  41.888   6.471
 3659POPC   C3A48233  22.163  41.581   6.744
 3659POPC   C4A48234  22.155  41.509   7.184
 3659POPC   C1B48235  22.493  41.477   6.109
 3659POPC   C2B48236  22.649  41.460   6.554
 3659POPC   C3B48237  22.642  41.499   7.024
 3659POPC   C4B48238  22.587  41.541   7.481
 3660POPC   NC348239  32.774  11.944   5.398
 3660POPC   PO448240  32.065  11.971   5.368
 3660POPC   GL148241  32.113  12.093   5.778
 3660POPC   GL248242  31.901  12.378   5.752
 3660POPC   C1A48243  32.256  11.994   6.214
 3660POPC   D2A48244  32.283  12.197   6.632
 3660POPC   C3A48245  32.188  12.020   7.041
 3660POPC   C4A48246  32.397  12.117   7.428
 3660POPC   C1B48247  31.885  12.316   6.196
 3660POPC   C2B48248  31.889  12.542   6.585
 3660POPC   C3B48249  31.920  12.474   7.025
 3660POPC   C4B48250  31.738  12.178   7.301
 3661POPC   NC348251  25.675  24.370   5.487
 3661POPC   PO448252  24.945  24.353   5.380
 3661POPC   GL148253  25.195  24.458   5.756
 3661POPC   GL248254  25.450  24.719   5.769
 3661POPC   C1A48255  25.258  24.399   6.221
 3661POPC   D2A48256  25.443  24.499   6.648
 3661POPC   C3A48257  25.228  24.466   7.021
 3661POPC   C4A48258  25.140  24.308   7.402
 3661POPC   C1B48259  25.573  24.800   6.209
 3661POPC   C2B48260  25.724  24.921   6.625
 3661POPC   C3B48261  25.716  24.783   7.055
 3661POPC   C4B48262  25.515  24.679   7.402
 3662POPC   NC348263  43.535  27.150   5.611
 3662POPC   PO448264  42.928  27.056   5.215
 3662POPC   GL148265  43.105  26.855   5.616
 3662POPC   GL248266  42.971  27.139   5.766
 3662POPC   C1A48267  43.208  26.810   6.118
 3662POPC   D2A48268  43.182  26.944   6.588
 3662POPC   C3A48269  43.236  26.713   7.005
 3662POPC   C4A48270  42.901  26.518   7.306
 3662POPC   C1B48271  42.721  27.296   6.104
 3662POPC   C2B48272  42.651  27.134   6.490
 3662POPC   C3B48273  42.680  27.238   6.944
 3662POPC   C4B48274  42.934  27.061   7.257
 3663POPC   NC348275  41.926  44.393   5.399
 3663POPC   PO448276  42.539  44.686   5.501
 3663POPC   GL148277  42.233  44.655   5.756
 3663POPC   GL248278  42.210  44.276   5.802
 3663POPC   C1A48279  42.134  44.902   6.119
 3663POPC   D2A48280  42.340  44.788   6.524
 3663POPC   C3A48281  42.218  44.904   6.935
 3663POPC   C4A48282  42.386  44.963   7.333
 3663POPC   C1B48283  42.232  44.399   6.199
 3663POPC   C2B48284  42.035  44.384   6.574
 3663POPC   C3B48285  42.308  44.405   6.875
 3663POPC   C4B48286  42.191  44.481   7.272
 3664POPC   NC348287  38.224  15.135   5.437
 3664POPC   PO448288  37.599  15.435   5.320
 3664POPC   GL148289  37.752  15.236   5.665
 3664POPC   GL248290  37.836  15.552   5.780
 3664POPC   C1A48291  37.712  15.113   6.102
 3664POPC   D2A48292  37.433  15.156   6.476
 3664POPC   C3A48293  37.651  15.111   6.893
 3664POPC   C4A48294  37.604  14.922   7.284
 3664POPC   C1B48295  37.490  15.585   6.068
 3664POPC   C2B48296  37.506  15.671   6.525
 3664POPC   C3B48297  37.354  15.521   6.914
 3664POPC   C4B48298  37.580  15.490   7.304
 3665POPC   NC348299  19.119  21.720   5.389
 3665POPC   PO448300  19.425  21.173   5.416
 3665POPC   GL148301  19.222  21.401   5.782
 3665POPC   GL248302  18.964  21.657   5.873
 3665POPC   C1A48303  19.145  21.291   6.211
 3665POPC   D2A48304  18.907  21.304   6.573
 3665POPC   C3A48305  19.041  21.324   6.987
 3665POPC   C4A48306  19.174  20.975   7.228
 3665POPC   C1B48307  19.045  21.773   6.319
 3665POPC   C2B48308  18.922  21.813   6.750
 3665POPC   C3B48309  18.702  21.687   7.118
 3665POPC   C4B48310  18.769  21.690   7.556
 3666POPC   NC348311  41.231  44.624   5.456
 3666POPC   PO448312  41.830  44.853   5.437
 3666POPC   GL148313  41.731  44.620   5.825
 3666POPC   GL248314  41.450  44.423   5.876
 3666POPC   C1A48315  41.701  44.672   6.265
 3666POPC   D2A48316  41.493  44.769   6.655
 3666POPC   C3A48317  41.752  44.603   6.994
 3666POPC   C4A48318  41.897  44.882   7.331
 3666POPC   C1B48319  41.189  44.597   6.173
 3666POPC   C2B48320  41.050  44.474   6.545
 3666POPC   C3B48321  41.214  44.443   6.935
 3666POPC   C4B48322  41.319  44.295   7.337
 3667POPC   NC348323  25.948  37.919   5.362
 3667POPC   PO448324  26.427  37.447   5.422
 3667POPC   GL148325  26.062  37.613   5.752
 3667POPC   GL248326  25.772  37.881   5.829
 3667POPC   C1A48327  25.862  37.507   6.153
 3667POPC   D2A48328  26.149  37.465   6.458
 3667POPC   C3A48329  26.085  37.549   6.892
 3667POPC   C4A48330  26.246  37.683   7.245
 3667POPC   C1B48331  26.045  37.996   6.168
 3667POPC   C2B48332  26.030  37.965   6.617
 3667POPC   C3B48333  25.765  37.971   6.951
 3667POPC   C4B48334  25.786  37.910   7.371
 3668POPC   NC348335  22.334  34.902   5.438
 3668POPC   PO448336  21.967  34.422   5.460
 3668POPC   GL148337  22.037  34.425   5.897
 3668POPC   GL248338  22.326  34.588   5.838
 3668POPC   C1A48339  22.108  34.279   6.343
 3668POPC   D2A48340  22.124  34.272   6.808
 3668POPC   C3A48341  21.838  34.548   7.027
 3668POPC   C4A48342  21.864  34.931   7.253
 3668POPC   C1B48343  22.535  34.471   6.147
 3668POPC   C2B48344  22.526  34.633   6.519
 3668POPC   C3B48345  22.335  34.721   6.888
 3668POPC   C4B48346  22.326  34.443   7.240
 3669POPC   NC348347  30.130  13.268   5.372
 3669POPC   PO448348  30.194  13.865   5.688
 3669POPC   GL148349  29.796  13.724   5.786
 3669POPC   GL248350  29.936  13.394   5.841
 3669POPC   C1A48351  29.692  13.676   6.212
 3669POPC   D2A48352  30.094  13.646   6.503
 3669POPC   C3A48353  29.961  13.705   6.930
 3669POPC   C4A48354  29.557  13.820   7.050
 3669POPC   C1B48355  29.907  13.221   6.278
 3669POPC   C2B48356  30.039  13.194   6.743
 3669POPC   C3B48357  30.180  13.299   7.161
 3669POPC   C4B48358  30.208  13.617   7.476
 3670POPC   NC348359  18.845  13.692   5.571
 3670POPC   PO448360  19.314  13.390   5.375
 3670POPC   GL148361  19.225  13.487   5.843
 3670POPC   GL248362  19.161  13.837   5.969
 3670POPC   C1A48363  19.299  13.408   6.290
 3670POPC   D2A48364  19.469  13.710   6.599
 3670POPC   C3A48365  19.406  13.681   7.041
 3670POPC   C4A48366  19.085  13.388   7.168
 3670POPC   C1B48367  18.971  13.799   6.393
 3670POPC   C2B48368  18.957  13.817   6.851
 3670POPC   C3B48369  18.886  13.856   7.291
 3670POPC   C4B48370  18.759  13.917   7.741
 3671POPC   NC348371  21.160  15.993   5.454
 3671POPC   PO448372  21.794  15.801   5.359
 3671POPC   GL148373  21.642  16.069   5.695
 3671POPC   GL248374  21.447  15.848   5.910
 3671POPC   C1A48375  21.798  16.187   6.107
 3671POPC   D2A48376  21.531  16.023   6.435
 3671POPC   C3A48377  21.558  16.050   6.881
 3671POPC   C4A48378  21.305  16.037   7.242
 3671POPC   C1B48379  21.350  15.562   6.266
 3671POPC   C2B48380  21.200  15.448   6.696
 3671POPC   C3B48381  20.996  15.642   7.060
 3671POPC   C4B48382  20.862  15.771   7.463
 3672POPC   NC348383   3.448  27.201   5.465
 3672POPC   PO448384   3.869  27.762   5.272
 3672POPC   GL148385   3.571  27.678   5.614
 3672POPC   GL248386   3.788  27.486   5.771
 3672POPC   C1A48387   3.365  27.655   6.050
 3672POPC   D2A48388   3.277  27.613   6.525
 3672POPC   C3A48389   3.403  27.888   6.854
 3672POPC   C4A48390   3.321  27.784   7.261
 3672POPC   C1B48391   3.780  27.421   6.220
 3672POPC   C2B48392   3.689  27.316   6.642
 3672POPC   C3B48393   3.707  27.527   7.049
 3672POPC   C4B48394   3.681  27.531   7.517
 3673POPC   NC348395   7.230  15.597   5.400
 3673POPC   PO448396   7.555  15.024   5.357
 3673POPC   GL148397   7.727  15.118   5.764
 3673POPC   GL248398   7.537  15.399   5.758
 3673POPC   C1A48399   7.665  15.047   6.205
 3673POPC   D2A48400   7.634  14.796   6.588
 3673POPC   C3A48401   7.480  15.008   6.987
 3673POPC   C4A48402   7.139  15.270   7.219
 3673POPC   C1B48403   7.254  15.559   6.080
 3673POPC   C2B48404   7.328  15.554   6.526
 3673POPC   C3B48405   7.453  15.564   6.952
 3673POPC   C4B48406   7.867  15.558   7.136
 3674POPC   NC348407  20.918  14.257   5.451
 3674POPC   PO448408  20.552  14.792   5.269
 3674POPC   GL148409  20.674  14.736   5.673
 3674POPC   GL248410  20.368  14.642   5.810
 3674POPC   C1A48411  20.760  14.794   6.118
 3674POPC   D2A48412  20.849  14.510   6.456
 3674POPC   C3A48413  20.705  14.540   6.881
 3674POPC   C4A48414  20.668  14.196   7.187
 3674POPC   C1B48415  20.293  14.590   6.262
 3674POPC   C2B48416  20.306  14.323   6.632
 3674POPC   C3B48417  20.206  14.354   7.075
 3674POPC   C4B48418  20.264  14.623   7.453
 3675POPC   NC348419   6.196   7.425   5.462
 3675POPC   PO448420   6.738   7.040   5.442
 3675POPC   GL148421   6.724   7.275   5.841
 3675POPC   GL248422   6.486   7.527   5.888
 3675POPC   C1A48423   6.643   7.260   6.298
 3675POPC   D2A48424   6.432   7.528   6.594
 3675POPC   C3A48425   6.408   7.258   6.961
 3675POPC   C4A48426   6.780   7.181   7.261
 3675POPC   C1B48427   6.727   7.744   6.219
 3675POPC   C2B48428   6.942   7.632   6.603
 3675POPC   C3B48429   6.743   7.648   7.006
 3675POPC   C4B48430   6.625   7.998   7.246
 3676POPC   NC348431   6.120  21.435   5.387
 3676POPC   PO448432   5.491  21.338   5.460
 3676POPC   GL148433   5.663  21.167   5.815
 3676POPC   GL248434   5.816  21.464   5.930
 3676POPC   C1A48435   5.800  21.034   6.231
 3676POPC   D2A48436   5.945  21.087   6.674
 3676POPC   C3A48437   5.772  21.144   7.092
 3676POPC   C4A48438   5.933  21.243   7.502
 3676POPC   C1B48439   5.920  21.519   6.383
 3676POPC   C2B48440   5.790  21.616   6.826
 3676POPC   C3B48441   5.630  21.609   7.267
 3676POPC   C4B48442   5.598  21.824   7.667
 3677POPC   NC348443   6.954  10.712   5.495
 3677POPC   PO448444   6.341  10.417   5.497
 3677POPC   GL148445   6.523  10.637   5.832
 3677POPC   GL248446   6.473  10.319   6.046
 3677POPC   C1A48447   6.824  10.646   6.173
 3677POPC   D2A48448   6.604  10.551   6.545
 3677POPC   C3A48449   6.787  10.757   6.864
 3677POPC   C4A48450   6.489  10.852   7.152
 3677POPC   C1B48451   6.790  10.110   6.328
 3677POPC   C2B48452   6.806  10.114   6.791
 3677POPC   C3B48453   6.646  10.342   7.120
 3677POPC   C4B48454   6.390  10.468   7.451
 3678POPC   NC348455  35.118  37.359   5.393
 3678POPC   PO448456  35.781  37.249   5.397
 3678POPC   GL148457  35.637  37.608   5.691
 3678POPC   GL248458  35.286  37.799   5.720
 3678POPC   C1A48459  35.581  37.748   6.132
 3678POPC   D2A48460  35.342  37.560   6.468
 3678POPC   C3A48461  35.303  37.790   6.830
 3678POPC   C4A48462  35.496  37.896   7.185
 3678POPC   C1B48463  35.232  38.118   6.109
 3678POPC   C2B48464  35.110  38.201   6.550
 3678POPC   C3B48465  34.871  38.081   6.925
 3678POPC   C4B48466  34.966  37.807   7.241
 3679POPC   NC348467   1.669  27.716   5.504
 3679POPC   PO448468   2.284  27.299   5.424
 3679POPC   GL148469   2.056  27.431   5.762
 3679POPC   GL248470   2.099  27.784   5.812
 3679POPC   C1A48471   2.149  27.443   6.197
 3679POPC   D2A48472   1.831  27.437   6.490
 3679POPC   C3A48473   1.873  27.217   6.851
 3679POPC   C4A48474   2.051  27.308   7.200
 3679POPC   C1B48475   1.779  27.892   6.144
 3679POPC   C2B48476   1.659  27.907   6.595
 3679POPC   C3B48477   1.996  27.766   6.886
 3679POPC   C4B48478   2.024  27.774   7.356
 3680POPC   NC348479  17.126  14.371   5.426
 3680POPC   PO448480  17.817  14.282   5.518
 3680POPC   GL148481  17.504  14.453   5.837
 3680POPC   GL248482  17.670  14.210   6.039
 3680POPC   C1A48483  17.302  14.618   6.242
 3680POPC   D2A48484  17.078  14.442   6.585
 3680POPC   C3A48485  17.342  14.340   6.901
 3680POPC   C4A48486  17.396  14.508   7.312
 3680POPC   C1B48487  17.625  14.279   6.455
 3680POPC   C2B48488  17.697  14.666   6.624
 3680POPC   C3B48489  17.754  14.685   7.021
 3680POPC   C4B48490  17.777  14.227   7.142
 3681POPC   NC348491  14.785  42.226   5.013
 3681POPC   PO448492  15.117  42.611   5.466
 3681POPC   GL148493  14.952  42.330   5.717
 3681POPC   GL248494  15.258  42.211   5.808
 3681POPC   C1A48495  14.953  42.424   6.163
 3681POPC   D2A48496  15.210  42.313   6.486
 3681POPC   C3A48497  15.087  42.399   6.927
 3681POPC   C4A48498  15.250  42.057   7.167
 3681POPC   C1B48499  15.469  42.538   6.075
 3681POPC   C2B48500  15.713  42.464   6.441
 3681POPC   C3B48501  15.588  42.443   6.839
 3681POPC   C4B48502  15.559  42.454   7.232
 3682POPC   NC348503   4.418  43.486   5.505
 3682POPC   PO448504   3.973  43.827   5.192
 3682POPC   GL148505   4.054  43.759   5.674
 3682POPC   GL248506   4.245  44.031   5.897
 3682POPC   C1A48507   4.150  43.578   6.094
 3682POPC   D2A48508   4.112  43.434   6.507
 3682POPC   C3A48509   3.937  43.741   6.826
 3682POPC   C4A48510   4.091  43.599   7.229
 3682POPC   C1B48511   4.547  43.876   6.210
 3682POPC   C2B48512   4.412  43.834   6.638
 3682POPC   C3B48513   4.372  44.005   7.043
 3682POPC   C4B48514   4.603  44.282   7.286
 3683POPC   NC348515   4.897  40.371   5.345
 3683POPC   PO448516   5.216  39.714   5.216
 3683POPC   GL148517   5.195  40.024   5.622
 3683POPC   GL248518   5.399  40.281   5.833
 3683POPC   C1A48519   4.967  40.108   6.039
 3683POPC   D2A48520   4.927  40.144   6.459
 3683POPC   C3A48521   4.844  40.126   6.894
 3683POPC   C4A48522   4.523  39.992   7.131
 3683POPC   C1B48523   5.419  39.926   6.180
 3683POPC   C2B48524   5.322  39.882   6.656
 3683POPC   C3B48525   5.328  39.967   7.110
 3683POPC   C4B48526   5.001  40.101   7.403
 3684POPC   NC348527   6.908  29.892   5.462
 3684POPC   PO448528   7.596  30.100   5.175
 3684POPC   GL148529   7.487  29.976   5.626
 3684POPC   GL248530   7.681  30.214   5.804
 3684POPC   C1A48531   7.355  29.775   6.066
 3684POPC   D2A48532   7.558  29.645   6.478
 3684POPC   C3A48533   7.325  29.715   6.882
 3684POPC   C4A48534   7.425  29.532   7.270
 3684POPC   C1B48535   7.705  30.101   6.226
 3684POPC   C2B48536   7.359  30.144   6.522
 3684POPC   C3B48537   7.297  30.243   6.948
 3684POPC   C4B48538   7.542  30.089   7.300
 3685POPC   NC348539  36.042  27.780   5.539
 3685POPC   PO448540  36.562  27.384   5.354
 3685POPC   GL148541  36.430  27.511   5.819
 3685POPC   GL248542  36.055  27.400   5.869
 3685POPC   C1A48543  36.283  27.598   6.265
 3685POPC   D2A48544  36.087  27.368   6.605
 3685POPC   C3A48545  36.260  27.471   6.985
 3685POPC   C4A48546  36.305  27.815   7.272
 3685POPC   C1B48547  35.791  27.547   6.224
 3685POPC   C2B48548  35.668  27.735   6.617
 3685POPC   C3B48549  35.828  27.742   7.043
 3685POPC   C4B48550  35.915  27.408   7.360
 3686POPC   NC348551  40.456  26.086   5.207
 3686POPC   PO448552  39.992  25.797   5.533
 3686POPC   GL148553  39.794  25.865   5.910
 3686POPC   GL248554  40.039  26.089   5.980
 3686POPC   C1A48555  39.712  25.946   6.377
 3686POPC   D2A48556  39.705  26.298   6.688
 3686POPC   C3A48557  39.742  26.180   7.126
 3686POPC   C4A48558  39.708  26.222   7.585
 3686POPC   C1B48559  40.234  25.887   6.271
 3686POPC   C2B48560  40.230  26.112   6.585
 3686POPC   C3B48561  40.146  25.960   6.919
 3686POPC   C4B48562  40.253  26.078   7.286
 3687POPC   NC348563  28.634  23.925   5.430
 3687POPC   PO448564  28.118  23.533   5.386
 3687POPC   GL148565  28.369  23.582   5.778
 3687POPC   GL248566  28.746  23.607   5.862
 3687POPC   C1A48567  28.390  23.488   6.216
 3687POPC   D2A48568  28.357  23.735   6.551
 3687POPC   C3A48569  28.398  23.530   6.908
 3687POPC   C4A48570  28.088  23.554   7.186
 3687POPC   C1B48571  28.626  23.967   6.133
 3687POPC   C2B48572  28.800  24.149   6.508
 3687POPC   C3B48573  28.677  23.986   6.890
 3687POPC   C4B48574  28.421  23.921   7.230
 3688POPC   NC348575  13.710  23.201   5.328
 3688POPC   PO448576  13.688  22.569   5.490
 3688POPC   GL148577  13.586  22.922   5.769
 3688POPC   GL248578  13.599  23.324   5.789
 3688POPC   C1A48579  13.453  22.845   6.161
 3688POPC   D2A48580  13.700  22.835   6.508
 3688POPC   C3A48581  13.516  22.800   6.892
 3688POPC   C4A48582  13.793  22.776   7.254
 3688POPC   C1B48583  13.346  23.348   6.143
 3688POPC   C2B48584  13.316  23.195   6.552
 3688POPC   C3B48585  13.447  23.300   6.952
 3688POPC   C4B48586  13.361  23.064   7.299
 3689POPC   NC348587  15.320  36.241   5.552
 3689POPC   PO448588  14.765  35.953   5.461
 3689POPC   GL148589  15.035  35.850   5.787
 3689POPC   GL248590  15.391  35.753   5.653
 3689POPC   C1A48591  15.005  36.095   6.150
 3689POPC   D2A48592  15.172  36.160   6.524
 3689POPC   C3A48593  14.952  36.292   6.875
 3689POPC   C4A48594  15.091  36.165   7.260
 3689POPC   C1B48595  15.483  35.888   6.089
 3689POPC   C2B48596  15.559  35.819   6.521
 3689POPC   C3B48597  15.471  36.028   6.921
 3689POPC   C4B48598  15.584  35.923   7.332
 3690POPC   NC348599  30.312  24.448   5.532
 3690POPC   PO448600  29.756  24.673   5.392
 3690POPC   GL148601  29.890  24.676   5.819
 3690POPC   GL248602  29.748  24.363   5.895
 3690POPC   C1A48603  30.012  24.610   6.266
 3690POPC   D2A48604  30.157  24.837   6.623
 3690POPC   C3A48605  30.119  24.564   6.937
 3690POPC   C4A48606  30.279  24.268   7.209
 3690POPC   C1B48607  29.479  24.210   6.243
 3690POPC   C2B48608  29.548  23.962   6.584
 3690POPC   C3B48609  29.859  24.107   6.844
 3690POPC   C4B48610  29.735  24.313   7.190
 3691POPC   NC348611  16.097  43.415   5.362
 3691POPC   PO448612  15.841  42.798   5.356
 3691POPC   GL148613  15.768  43.115   5.669
 3691POPC   GL248614  16.105  43.132   5.788
 3691POPC   C1A48615  15.728  43.348   6.074
 3691POPC   D2A48616  15.579  43.482   6.490
 3691POPC   C3A48617  15.644  43.354   6.926
 3691POPC   C4A48618  15.933  43.391   7.270
 3691POPC   C1B48619  16.234  43.313   6.180
 3691POPC   C2B48620  16.077  43.348   6.591
 3691POPC   C3B48621  16.327  43.276   6.954
 3691POPC   C4B48622  16.249  43.017   7.305
 3692POPC   NC348623  32.763  19.450   5.575
 3692POPC   PO448624  32.079  19.603   5.473
 3692POPC   GL148625  32.187  19.703   5.812
 3692POPC   GL248626  32.502  19.861   5.760
 3692POPC   C1A48627  31.965  19.704   6.198
 3692POPC   D2A48628  32.151  19.832   6.562
 3692POPC   C3A48629  31.946  19.749   6.915
 3692POPC   C4A48630  32.096  19.950   7.233
 3692POPC   C1B48631  32.503  19.671   6.188
 3692POPC   C2B48632  32.590  19.537   6.604
 3692POPC   C3B48633  32.487  19.708   6.982
 3692POPC   C4B48634  32.411  19.599   7.408
 3693POPC   NC348635   1.549  33.672   5.466
 3693POPC   PO448636   1.218  34.286   5.352
 3693POPC   GL148637   1.240  34.018   5.753
 3693POPC   GL248638   0.897  33.862   5.906
 3693POPC   C1A48639   1.285  33.980   6.211
 3693POPC   D2A48640   1.032  33.934   6.598
 3693POPC   C3A48641   1.300  33.832   6.958
 3693POPC   C4A48642   1.497  33.508   7.218
 3693POPC   C1B48643   1.052  33.500   6.145
 3693POPC   C2B48644   0.944  33.314   6.543
 3693POPC   C3B48645   0.881  33.534   6.930
 3693POPC   C4B48646   1.000  33.427   7.343
 3694POPC   NC348647  22.458  30.673   5.352
 3694POPC   PO448648  21.864  30.759   5.524
 3694POPC   GL148649  21.984  30.848   5.885
 3694POPC   GL248650  22.312  30.933   5.792
 3694POPC   C1A48651  21.859  30.901   6.288
 3694POPC   D2A48652  22.184  30.762   6.533
 3694POPC   C3A48653  22.109  30.752   6.946
 3694POPC   C4A48654  21.904  30.593   7.252
 3694POPC   C1B48655  22.392  30.571   6.069
 3694POPC   C2B48656  22.584  30.466   6.482
 3694POPC   C3B48657  22.437  30.375   6.910
 3694POPC   C4B48658  22.420  30.539   7.357
 3695POPC   NC348659  14.613  17.675   5.226
 3695POPC   PO448660  14.118  17.298   5.468
 3695POPC   GL148661  14.016  17.456   5.874
 3695POPC   GL248662  14.122  17.822   5.918
 3695POPC   C1A48663  14.074  17.221   6.263
 3695POPC   D2A48664  14.238  17.265   6.675
 3695POPC   C3A48665  14.155  17.182   7.099
 3695POPC   C4A48666  14.381  17.367   7.431
 3695POPC   C1B48667  14.329  17.779   6.323
 3695POPC   C2B48668  14.301  17.781   6.786
 3695POPC   C3B48669  14.566  17.775   7.161
 3695POPC   C4B48670  14.584  17.819   7.613
 3696POPC   NC348671  23.232  41.795   5.346
 3696POPC   PO448672  22.750  41.366   5.391
 3696POPC   GL148673  22.961  41.571   5.716
 3696POPC   GL248674  23.172  41.260   5.692
 3696POPC   C1A48675  22.925  41.748   6.152
 3696POPC   D2A48676  23.134  41.606   6.518
 3696POPC   C3A48677  23.069  41.740   6.941
 3696POPC   C4A48678  23.067  41.640   7.387
 3696POPC   C1B48679  22.959  41.251   6.104
 3696POPC   C2B48680  23.034  41.075   6.483
 3696POPC   C3B48681  23.098  41.208   6.877
 3696POPC   C4B48682  22.986  41.146   7.284
 3697POPC   NC348683   8.927  43.615   5.335
 3697POPC   PO448684   8.796  44.267   5.450
 3697POPC   GL148685   8.779  43.981   5.840
 3697POPC   GL248686   8.437  43.849   5.919
 3697POPC   C1A48687   9.058  43.918   6.230
 3697POPC   D2A48688   9.309  44.083   6.590
 3697POPC   C3A48689   9.242  44.017   7.053
 3697POPC   C4A48690   9.134  43.652   7.285
 3697POPC   C1B48691   8.568  43.812   6.365
 3697POPC   C2B48692   8.857  43.823   6.722
 3697POPC   C3B48693   8.743  43.919   7.138
 3697POPC   C4B48694   8.527  43.812   7.511
 3698POPC   NC348695  10.401  24.822   5.356
 3698POPC   PO448696  10.747  24.316   5.491
 3698POPC   GL148697  10.709  24.207   5.902
 3698POPC   GL248698  10.386  24.031   5.877
 3698POPC   C1A48699  10.830  24.402   6.313
 3698POPC   D2A48700  10.690  24.750   6.606
 3698POPC   C3A48701  10.458  24.592   6.946
 3698POPC   C4A48702  10.731  24.299   7.136
 3698POPC   C1B48703  10.349  24.269   6.285
 3698POPC   C2B48704  10.464  24.153   6.695
 3698POPC   C3B48705  10.253  24.119   7.096
 3698POPC   C4B48706  10.395  24.190   7.537
 3699POPC   NC348707  34.306  19.266   5.519
 3699POPC   PO448708  33.777  18.862   5.297
 3699POPC   GL148709  33.688  19.116   5.678
 3699POPC   GL248710  33.914  19.372   5.836
 3699POPC   C1A48711  33.672  19.054   6.145
 3699POPC   D2A48712  33.822  19.191   6.549
 3699POPC   C3A48713  33.527  19.247   6.899
 3699POPC   C4A48714  33.576  19.017   7.286
 3699POPC   C1B48715  34.205  19.231   6.175
 3699POPC   C2B48716  34.299  19.370   6.587
 3699POPC   C3B48717  34.146  19.194   6.975
 3699POPC   C4B48718  33.874  19.424   7.239
 3700POPC   NC348719   5.746  40.893   5.272
 3700POPC   PO448720   6.304  40.745   5.541
 3700POPC   GL148721   5.883  40.783   5.749
 3700POPC   GL248722   5.731  41.108   5.738
 3700POPC   C1A48723   5.664  40.694   6.120
 3700POPC   D2A48724   5.898  40.547   6.490
 3700POPC   C3A48725   5.902  40.685   6.905
 3700POPC   C4A48726   5.867  40.558   7.328
 3700POPC   C1B48727   5.910  41.126   6.143
 3700POPC   C2B48728   6.055  41.051   6.545
 3700POPC   C3B48729   5.910  41.198   6.891
 3700POPC   C4B48730   5.884  41.048   7.296
 3701POPC   NC348731  26.129  23.845   5.373
 3701POPC   PO448732  25.450  23.502   5.509
 3701POPC   GL148733  25.660  23.585   6.021
 3701POPC   GL248734  26.083  23.716   5.991
 3701POPC   C1A48735  25.833  23.777   6.397
 3701POPC   D2A48736  26.175  23.694   6.644
 3701POPC   C3A48737  25.904  23.653   6.972
 3701POPC   C4A48738  25.745  23.642   7.342
 3701POPC   C1B48739  26.220  24.097   6.198
 3701POPC   C2B48740  26.366  24.171   6.650
 3701POPC   C3B48741  26.213  24.032   7.087
 3701POPC   C4B48742  26.441  23.948   7.476
 3702POPC   NC348743  27.589  16.005   5.430
 3702POPC   PO448744  27.244  15.416   5.304
 3702POPC   GL148745  27.409  15.587   5.715
 3702POPC   GL248746  27.072  15.634   5.835
 3702POPC   C1A48747  27.665  15.831   6.043
 3702POPC   D2A48748  27.662  16.178   6.344
 3702POPC   C3A48749  27.717  16.118   6.785
 3702POPC   C4A48750  27.457  16.172   7.164
 3702POPC   C1B48751  27.199  15.798   6.232
 3702POPC   C2B48752  27.524  15.691   6.532
 3702POPC   C3B48753  27.634  15.664   6.952
 3702POPC   C4B48754  27.404  15.678   7.294
 3703POPC   NC348755  24.443  17.981   5.195
 3703POPC   PO448756  24.296  17.350   5.331
 3703POPC   GL148757  24.553  17.570   5.674
 3703POPC   GL248758  24.283  17.769   5.731
 3703POPC   C1A48759  24.688  17.574   6.154
 3703POPC   D2A48760  24.799  17.325   6.588
 3703POPC   C3A48761  24.819  17.549   7.020
 3703POPC   C4A48762  24.537  17.521   7.408
 3703POPC   C1B48763  24.168  17.516   6.089
 3703POPC   C2B48764  24.304  17.572   6.518
 3703POPC   C3B48765  24.318  17.733   6.944
 3703POPC   C4B48766  24.100  17.754   7.331
 3704POPC   NC348767  21.943  35.809   5.466
 3704POPC   PO448768  22.378  35.316   5.278
 3704POPC   GL148769  22.253  35.275   5.764
 3704POPC   GL248770  21.995  34.985   5.822
 3704POPC   C1A48771  22.269  35.420   6.223
 3704POPC   D2A48772  22.312  35.635   6.657
 3704POPC   C3A48773  21.988  35.555   6.972
 3704POPC   C4A48774  22.077  35.377   7.376
 3704POPC   C1B48775  22.144  34.884   6.249
 3704POPC   C2B48776  22.116  35.134   6.644
 3704POPC   C3B48777  22.385  35.231   6.983
 3704POPC   C4B48778  22.378  34.969   7.321
 3705POPC   NC348779  19.426  13.002   5.115
 3705POPC   PO448780  19.985  13.020   5.424
 3705POPC   GL148781  19.910  12.909   5.822
 3705POPC   GL248782  19.987  12.581   5.794
 3705POPC   C1A48783  19.740  12.772   6.217
 3705POPC   D2A48784  19.876  12.740   6.595
 3705POPC   C3A48785  19.698  12.736   6.954
 3705POPC   C4A48786  19.812  12.887   7.339
 3705POPC   C1B48787  20.234  12.692   6.165
 3705POPC   C2B48788  20.371  12.758   6.561
 3705POPC   C3B48789  20.246  12.560   6.919
 3705POPC   C4B48790  20.207  12.555   7.306
 3706POPC   NC348791  24.630  20.164   5.599
 3706POPC   PO448792  24.436  19.567   5.277
 3706POPC   GL148793  24.451  19.538   5.746
 3706POPC   GL248794  24.759  19.682   5.829
 3706POPC   C1A48795  24.374  19.748   6.173
 3706POPC   D2A48796  24.178  19.850   6.582
 3706POPC   C3A48797  24.328  19.639   6.963
 3706POPC   C4A48798  24.290  19.941   7.267
 3706POPC   C1B48799  24.904  19.760   6.226
 3706POPC   C2B48800  24.695  19.738   6.592
 3706POPC   C3B48801  24.637  20.035   6.877
 3706POPC   C4B48802  24.796  19.861   7.229
 3707POPC   NC348803  18.000  33.993   5.522
 3707POPC   PO448804  18.456  33.451   5.430
 3707POPC   GL148805  18.268  33.642   5.811
 3707POPC   GL248806  18.417  33.990   5.856
 3707POPC   C1A48807  18.393  33.693   6.253
 3707POPC   D2A48808  18.531  33.916   6.607
 3707POPC   C3A48809  18.510  33.688   6.956
 3707POPC   C4A48810  18.187  33.476   7.173
 3707POPC   C1B48811  18.029  34.086   6.173
 3707POPC   C2B48812  17.809  34.130   6.601
 3707POPC   C3B48813  18.073  33.925   6.910
 3707POPC   C4B48814  18.290  33.944   7.343
 3708POPC   NC348815   1.829  30.306   5.555
 3708POPC   PO448816   2.319  29.930   5.337
 3708POPC   GL148817   2.099  29.840   5.734
 3708POPC   GL248818   2.438  29.807   5.868
 3708POPC   C1A48819   1.831  29.918   6.135
 3708POPC   D2A48820   1.736  30.122   6.565
 3708POPC   C3A48821   1.754  29.907   7.002
 3708POPC   C4A48822   1.830  29.947   7.474
 3708POPC   C1B48823   2.280  29.688   6.266
 3708POPC   C2B48824   2.341  29.496   6.677
 3708POPC   C3B48825   2.252  29.806   7.029
 3708POPC   C4B48826   2.381  29.827   7.463
 3709POPC   NC348827  12.907  11.502   5.406
 3709POPC   PO448828  13.291  10.981   5.520
 3709POPC   GL148829  12.994  11.005   5.874
 3709POPC   GL248830  13.089  11.036   6.224
 3709POPC   C1A48831  12.716  11.335   6.077
 3709POPC   D2A48832  12.619  11.521   6.478
 3709POPC   C3A48833  12.846  11.362   6.809
 3709POPC   C4A48834  12.735  11.449   7.241
 3709POPC   C1B48835  13.148  11.499   6.313
 3709POPC   C2B48836  13.188  11.750   6.698
 3709POPC   C3B48837  13.212  11.561   7.122
 3709POPC   C4B48838  13.185  11.239   7.466
 3710POPC   NC348839  19.440   1.758   5.372
 3710POPC   PO448840  19.894   2.276   5.353
 3710POPC   GL148841  19.943   1.930   5.664
 3710POPC   GL248842  19.640   1.862   5.832
 3710POPC   C1A48843  20.072   1.717   6.077
 3710POPC   D2A48844  19.932   1.642   6.507
 3710POPC   C3A48845  20.054   1.810   6.889
 3710POPC   C4A48846  19.802   2.076   7.154
 3710POPC   C1B48847  19.553   1.595   6.176
 3710POPC   C2B48848  19.440   1.810   6.575
 3710POPC   C3B48849  19.468   1.694   7.005
 3710POPC   C4B48850  19.827   1.592   7.284
 3711POPC   NC348851  24.900   7.354   5.300
 3711POPC   PO448852  24.227   7.470   5.353
 3711POPC   GL148853  24.470   7.321   5.741
 3711POPC   GL248854  24.632   7.592   5.910
 3711POPC   C1A48855  24.390   7.077   6.125
 3711POPC   D2A48856  24.526   7.142   6.557
 3711POPC   C3A48857  24.282   7.138   6.938
 3711POPC   C4A48858  24.617   7.233   7.172
 3711POPC   C1B48859  24.560   7.620   6.366
 3711POPC   C2B48860  24.526   7.603   6.823
 3711POPC   C3B48861  24.571   7.801   7.231
 3711POPC   C4B48862  24.385   7.967   7.614
 3712POPC   NC348863  36.233  11.593   5.462
 3712POPC   PO448864  35.937  12.158   5.511
 3712POPC   GL148865  36.167  12.099   5.848
 3712POPC   GL248866  36.480  11.971   5.765
 3712POPC   C1A48867  36.035  12.039   6.254
 3712POPC   D2A48868  36.190  12.240   6.595
 3712POPC   C3A48869  35.989  12.226   6.958
 3712POPC   C4A48870  36.241  12.264   7.241
 3712POPC   C1B48871  36.541  12.206   6.182
 3712POPC   C2B48872  36.674  12.067   6.589
 3712POPC   C3B48873  36.533  11.936   6.990
 3712POPC   C4B48874  36.507  11.877   7.438
 3713POPC   NC348875  41.888   9.867   5.361
 3713POPC   PO448876  42.554   9.721   5.169
 3713POPC   GL148877  42.383   9.783   5.615
 3713POPC   GL248878  42.094   9.615   5.790
 3713POPC   C1A48879  42.514   9.718   6.082
 3713POPC   D2A48880  42.538   9.600   6.547
 3713POPC   C3A48881  42.395   9.819   6.948
 3713POPC   C4A48882  42.090  10.021   7.254
 3713POPC   C1B48883  41.860   9.523   6.186
 3713POPC   C2B48884  41.720   9.524   6.626
 3713POPC   C3B48885  41.937   9.563   7.026
 3713POPC   C4B48886  41.857   9.609   7.468
 3714POPC   NC348887   9.377   8.368   5.102
 3714POPC   PO448888   9.669   7.933   5.506
 3714POPC   GL148889   9.784   8.064   5.918
 3714POPC   GL248890   9.942   8.380   5.870
 3714POPC   C1A48891   9.586   8.024   6.327
 3714POPC   D2A48892   9.450   7.746   6.668
 3714POPC   C3A48893   9.526   7.944   7.070
 3714POPC   C4A48894   9.728   7.816   7.466
 3714POPC   C1B48895  10.037   8.318   6.299
 3714POPC   C2B48896   9.956   8.494   6.661
 3714POPC   C3B48897   9.882   8.727   6.986
 3714POPC   C4B48898   9.687   8.497   7.319
 3715POPC   NC348899  38.019   9.208   5.375
 3715POPC   PO448900  37.722   8.622   5.472
 3715POPC   GL148901  37.785   8.907   5.754
 3715POPC   GL248902  37.522   9.123   5.650
 3715POPC   C1A48903  37.903   8.904   6.192
 3715POPC   D2A48904  37.943   8.736   6.607
 3715POPC   C3A48905  37.882   9.000   6.928
 3715POPC   C4A48906  37.753   8.866   7.295
 3715POPC   C1B48907  37.398   9.069   6.095
 3715POPC   C2B48908  37.496   8.991   6.530
 3715POPC   C3B48909  37.368   9.094   6.924
 3715POPC   C4B48910  37.229   8.859   7.243
 3716POPC   NC348911  30.948   3.774   5.452
 3716POPC   PO448912  31.616   3.686   5.261
 3716POPC   GL148913  31.416   3.562   5.671
 3716POPC   GL248914  31.717   3.388   5.681
 3716POPC   C1A48915  31.414   3.356   6.151
 3716POPC   D2A48916  31.499   3.228   6.633
 3716POPC   C3A48917  31.451   3.529   7.012
 3716POPC   C4A48918  31.314   3.844   7.338
 3716POPC   C1B48919  31.777   3.712   6.032
 3716POPC   C2B48920  31.647   3.711   6.483
 3716POPC   C3B48921  31.916   3.646   6.848
 3716POPC   C4B48922  31.924   3.892   7.211
 3717POPC   NC348923  13.458  12.745   5.038
 3717POPC   PO448924  13.611  12.341   5.460
 3717POPC   GL148925  13.684  12.218   5.895
 3717POPC   GL248926  14.008  12.383   5.790
 3717POPC   C1A48927  13.701  12.052   6.353
 3717POPC   D2A48928  13.656  12.230   6.802
 3717POPC   C3A48929  13.316  12.070   7.118
 3717POPC   C4A48930  13.403  12.064   7.608
 3717POPC   C1B48931  14.086  12.366   6.214
 3717POPC   C2B48932  14.198  12.263   6.648
 3717POPC   C3B48933  14.143  12.320   7.083
 3717POPC   C4B48934  13.787  12.217   7.311
 3718POPC   NC348935  34.806  12.283   5.486
 3718POPC   PO448936  34.181  12.028   5.383
 3718POPC   GL148937  34.431  12.023   5.765
 3718POPC   GL248938  34.719  11.789   5.738
 3718POPC   C1A48939  34.386  12.130   6.219
 3718POPC   D2A48940  34.329  12.294   6.644
 3718POPC   C3A48941  34.715  12.379   6.827
 3718POPC   C4A48942  34.946  12.231   7.170
 3718POPC   C1B48943  34.709  11.711   6.189
 3718POPC   C2B48944  34.563  11.829   6.620
 3718POPC   C3B48945  34.586  11.886   7.053
 3718POPC   C4B48946  34.945  11.710   7.261
 3719POPC   NC348947  40.911   8.688   5.167
 3719POPC   PO448948  40.757   9.379   5.215
 3719POPC   GL148949  40.785   9.063   5.611
 3719POPC   GL248950  40.878   8.695   5.711
 3719POPC   C1A48951  40.890   9.088   6.067
 3719POPC   D2A48952  41.128   9.243   6.461
 3719POPC   C3A48953  40.882   9.321   6.848
 3719POPC   C4A48954  40.808   9.009   7.174
 3719POPC   C1B48955  40.609   8.633   6.126
 3719POPC   C2B48956  40.404   8.705   6.568
 3719POPC   C3B48957  40.490   8.622   7.041
 3719POPC   C4B48958  40.852   8.522   7.357
 3720POPC   NC348959  20.089   6.696   5.487
 3720POPC   PO448960  19.839   6.191   5.151
 3720POPC   GL148961  19.829   6.291   5.662
 3720POPC   GL248962  19.699   6.627   5.788
 3720POPC   C1A48963  19.727   6.275   6.147
 3720POPC   D2A48964  19.634   6.120   6.592
 3720POPC   C3A48965  19.768   6.389   6.967
 3720POPC   C4A48966  19.707   6.674   7.362
 3720POPC   C1B48967  19.938   6.770   6.175
 3720POPC   C2B48968  20.045   6.886   6.638
 3720POPC   C3B48969  20.110   6.828   7.096
 3720POPC   C4B48970  20.227   6.721   7.547
 3721POPC   NC348971  16.618  12.562   5.303
 3721POPC   PO448972  16.694  13.081   5.614
 3721POPC   GL148973  16.761  12.673   5.803
 3721POPC   GL248974  17.070  12.550   5.927
 3721POPC   C1A48975  16.593  12.604   6.209
 3721POPC   D2A48976  16.570  12.955   6.540
 3721POPC   C3A48977  16.571  12.798   6.967
 3721POPC   C4A48978  16.322  12.906   7.312
 3721POPC   C1B48979  16.998  12.915   6.237
 3721POPC   C2B48980  17.051  12.870   6.704
 3721POPC   C3B48981  17.071  12.702   7.150
 3721POPC   C4B48982  17.177  12.616   7.597
 3722POPC   NC348983   5.692  42.352   5.782
 3722POPC   PO448984   6.082  42.741   5.483
 3722POPC   GL148985   6.202  42.438   5.830
 3722POPC   GL248986   6.085  42.046   5.817
 3722POPC   C1A48987   6.105  42.296   6.278
 3722POPC   D2A48988   5.669  42.252   6.447
 3722POPC   C3A48989   5.676  42.420   6.867
 3722POPC   C4A48990   5.817  42.275   7.277
 3722POPC   C1B48991   6.210  41.817   6.161
 3722POPC   C2B48992   6.000  41.833   6.551
 3722POPC   C3B48993   6.058  41.886   6.991
 3722POPC   C4B48994   6.041  41.812   7.430
 3723POPC   NC348995  22.529  33.250   5.186
 3723POPC   PO448996  22.104  32.801   5.294
 3723POPC   GL148997  22.123  32.981   5.723
 3723POPC   GL248998  22.386  32.797   5.926
 3723POPC   C1A48999  21.877  33.143   6.089
 3723POPC   D2A49000  21.952  33.352   6.491
 3723POPC   C3A49001  21.903  33.158   6.903
 3723POPC   C4A49002  21.740  32.773   7.090
 3723POPC   C1B49003  22.454  33.086   6.312
 3723POPC   C2B49004  22.415  33.173   6.749
 3723POPC   C3B49005  22.430  33.009   7.121
 3723POPC   C4B49006  22.218  32.646   7.226
 3724POPC   NC349007  36.409  23.751   5.031
 3724POPC   PO449008  36.494  23.967   5.647
 3724POPC   GL149009  36.204  23.613   5.763
 3724POPC   GL249010  35.896  23.636   5.590
 3724POPC   C1A49011  36.132  23.435   6.181
 3724POPC   D2A49012  36.414  23.550   6.498
 3724POPC   C3A49013  36.314  23.524   6.898
 3724POPC   C4A49014  36.497  23.731   7.225
 3724POPC   C1B49015  35.886  23.954   5.963
 3724POPC   C2B49016  35.992  23.903   6.389
 3724POPC   C3B49017  35.891  23.783   6.794
 3724POPC   C4B49018  36.029  23.954   7.167
 3725POPC   NC349019  15.615  23.290   5.307
 3725POPC   PO449020  15.073  22.773   5.311
 3725POPC   GL149021  15.289  23.016   5.648
 3725POPC   GL249022  15.026  23.239   5.794
 3725POPC   C1A49023  15.375  23.089   6.112
 3725POPC   D2A49024  15.360  22.863   6.487
 3725POPC   C3A49025  15.126  23.023   6.813
 3725POPC   C4A49026  15.289  23.025   7.198
 3725POPC   C1B49027  14.867  22.953   6.143
 3725POPC   C2B49028  14.818  22.662   6.510
 3725POPC   C3B49029  14.935  22.560   6.913
 3725POPC   C4B49030  14.851  22.780   7.242
 3726POPC   NC349031  38.529  36.886   5.406
 3726POPC   PO449032  38.159  37.354   5.499
 3726POPC   GL149033  38.383  37.233   5.873
 3726POPC   GL249034  38.718  37.121   5.800
 3726POPC   C1A49035  38.483  36.861   6.137
 3726POPC   D2A49036  38.504  36.784   6.552
 3726POPC   C3A49037  38.181  36.766   6.840
 3726POPC   C4A49038  38.493  36.644   7.143
 3726POPC   C1B49039  38.795  37.289   6.196
 3726POPC   C2B49040  38.458  37.279   6.507
 3726POPC   C3B49041  38.507  37.137   6.951
 3726POPC   C4B49042  38.641  37.067   7.392
 3727POPC   NC349043  44.539  10.058   5.498
 3727POPC   PO449044   0.127   9.760   5.477
 3727POPC   GL149045  44.887   9.816   5.816
 3727POPC   GL249046  44.670   9.544   5.689
 3727POPC   C1A49047  44.731  10.096   6.153
 3727POPC   D2A49048  44.385  10.038   6.460
 3727POPC   C3A49049  44.584   9.863   6.832
 3727POPC   C4A49050  44.651   9.805   7.251
 3727POPC   C1B49051  44.474   9.651   6.077
 3727POPC   C2B49052  44.457   9.524   6.479
 3727POPC   C3B49053  44.329   9.415   6.884
 3727POPC   C4B49054  44.354   9.288   7.306
 3728POPC   NC349055  27.750  30.901   5.394
 3728POPC   PO449056  27.149  30.446   5.336
 3728POPC   GL149057  27.451  30.516   5.696
 3728POPC   GL249058  27.559  30.827   5.845
 3728POPC   C1A49059  27.487  30.420   6.165
 3728POPC   D2A49060  27.318  30.453   6.592
 3728POPC   C3A49061  27.567  30.388   6.957
 3728POPC   C4A49062  27.659  30.172   7.331
 3728POPC   C1B49063  27.867  30.829   6.149
 3728POPC   C2B49064  27.819  30.947   6.574
 3728POPC   C3B49065  27.935  30.794   6.939
 3728POPC   C4B49066  27.910  30.609   7.294
 3729POPC   NC349067  23.610  39.220   5.305
 3729POPC   PO449068  24.212  39.513   5.571
 3729POPC   GL149069  23.860  39.289   5.812
 3729POPC   GL249070  23.432  39.254   5.772
 3729POPC   C1A49071  23.987  39.050   6.166
 3729POPC   D2A49072  24.142  39.023   6.551
 3729POPC   C3A49073  24.042  39.347   6.837
 3729POPC   C4A49074  23.874  39.265   7.237
 3729POPC   C1B49075  23.492  39.059   6.158
 3729POPC   C2B49076  23.631  39.129   6.584
 3729POPC   C3B49077  23.439  39.118   6.992
 3729POPC   C4B49078  23.305  39.413   7.307
 3730POPC   NC349079  36.010  20.950   5.417
 3730POPC   PO449080  36.115  20.332   5.443
 3730POPC   GL149081  36.254  20.559   5.783
 3730POPC   GL249082  36.256  20.903   5.859
 3730POPC   C1A49083  36.135  20.479   6.195
 3730POPC   D2A49084  36.145  20.213   6.541
 3730POPC   C3A49085  36.050  20.455   6.894
 3730POPC   C4A49086  36.057  20.850   7.108
 3730POPC   C1B49087  36.462  20.896   6.258
 3730POPC   C2B49088  36.441  20.835   6.712
 3730POPC   C3B49089  36.477  21.115   7.055
 3730POPC   C4B49090  36.495  21.080   7.508
 3731POPC   NC349091  27.222  18.595   5.442
 3731POPC   PO449092  26.771  18.190   5.232
 3731POPC   GL149093  26.793  18.041   5.684
 3731POPC   GL249094  26.472  18.077   5.844
 3731POPC   C1A49095  26.874  18.178   6.122
 3731POPC   D2A49096  26.706  18.019   6.520
 3731POPC   C3A49097  26.883  18.146   6.929
 3731POPC   C4A49098  26.680  18.082   7.363
 3731POPC   C1B49099  26.493  18.497   6.095
 3731POPC   C2B49100  26.722  18.524   6.512
 3731POPC   C3B49101  26.563  18.533   6.913
 3731POPC   C4B49102  26.445  18.559   7.313
 3732POPC   NC349103  33.613  34.617   5.497
 3732POPC   PO449104  34.225  34.557   5.808
 3732POPC   GL149105  33.812  34.505   5.967
 3732POPC   GL249106  33.602  34.829   5.963
 3732POPC   C1A49107  33.905  34.293   6.351
 3732POPC   D2A49108  34.261  34.438   6.550
 3732POPC   C3A49109  34.117  34.375   6.944
 3732POPC   C4A49110  33.973  34.568   7.259
 3732POPC   C1B49111  33.497  34.598   6.350
 3732POPC   C2B49112  33.665  34.614   6.770
 3732POPC   C3B49113  33.469  34.665   7.149
 3732POPC   C4B49114  33.376  34.624   7.575
 3733POPC   NC349115  40.414  15.126   5.649
 3733POPC   PO449116  40.870  15.462   5.386
 3733POPC   GL149117  40.924  15.201   5.766
 3733POPC   GL249118  40.758  15.463   5.941
 3733POPC   C1A49119  40.851  15.007   6.189
 3733POPC   D2A49120  41.025  15.177   6.582
 3733POPC   C3A49121  40.975  15.237   7.038
 3733POPC   C4A49122  40.877  14.961   7.435
 3733POPC   C1B49123  40.542  15.430   6.346
 3733POPC   C2B49124  40.529  15.418   6.806
 3733POPC   C3B49125  40.513  15.048   7.094
 3733POPC   C4B49126  40.388  15.020   7.542
 3734POPC   NC349127  28.220  40.906   5.425
 3734POPC   PO449128  28.648  40.403   5.493
 3734POPC   GL149129  28.470  40.669   5.845
 3734POPC   GL249130  28.168  40.837   5.917
 3734POPC   C1A49131  28.527  40.850   6.280
 3734POPC   D2A49132  28.751  40.785   6.645
 3734POPC   C3A49133  28.522  40.613   6.977
 3734POPC   C4A49134  28.290  40.934   7.159
 3734POPC   C1B49135  28.119  40.518   6.253
 3734POPC   C2B49136  28.130  40.711   6.649
 3734POPC   C3B49137  27.920  40.622   7.041
 3734POPC   C4B49138  28.164  40.499   7.382
 3735POPC   NC349139  33.208   0.754   5.422
 3735POPC   PO449140  33.460   0.118   5.428
 3735POPC   GL149141  33.250   0.279   5.875
 3735POPC   GL249142  33.057   0.590   5.888
 3735POPC   C1A49143  33.080   0.289   6.311
 3735POPC   D2A49144  32.674   0.183   6.514
 3735POPC   C3A49145  32.689   0.108   6.941
 3735POPC   C4A49146  33.107   0.224   7.141
 3735POPC   C1B49147  33.227   0.810   6.274
 3735POPC   C2B49148  33.345   0.651   6.680
 3735POPC   C3B49149  33.345   0.694   7.124
 3735POPC   C4B49150  33.009   0.712   7.405
 3736POPC   NC349151  40.979  11.764   5.236
 3736POPC   PO449152  40.619  12.284   5.447
 3736POPC   GL149153  40.755  11.950   5.749
 3736POPC   GL249154  40.442  11.927   5.966
 3736POPC   C1A49155  40.925  11.866   6.188
 3736POPC   D2A49156  40.981  12.162   6.572
 3736POPC   C3A49157  40.982  11.988   6.998
 3736POPC   C4A49158  40.665  11.839   7.244
 3736POPC   C1B49159  40.662  12.271   6.143
 3736POPC   C2B49160  40.631  12.637   6.375
 3736POPC   C3B49161  40.643  12.598   6.802
 3736POPC   C4B49162  40.840  12.446   7.168
 3737POPC   NC349163  44.741  26.056   5.286
 3737POPC   PO449164  44.132  26.159   5.497
 3737POPC   GL149165  44.477  25.978   5.750
 3737POPC   GL249166  44.800  25.810   5.751
 3737POPC   C1A49167  44.690  26.147   6.133
 3737POPC   D2A49168  44.592  26.389   6.471
 3737POPC   C3A49169  44.525  26.233   6.881
 3737POPC   C4A49170  44.667  26.279   7.293
 3737POPC   C1B49171   0.002  25.757   6.167
 3737POPC   C2B49172   0.065  25.996   6.542
 3737POPC   C3B49173  44.941  25.908   6.937
 3737POPC   C4B49174   0.064  25.566   7.157
 3738POPC   NC349175  27.473  10.150   5.447
 3738POPC   PO449176  27.954   9.759   5.256
 3738POPC   GL149177  27.715   9.698   5.668
 3738POPC   GL249178  27.358   9.734   5.778
 3738POPC   C1A49179  27.735   9.769   6.131
 3738POPC   D2A49180  27.842  10.024   6.462
 3738POPC   C3A49181  27.846   9.836   6.886
 3738POPC   C4A49182  27.753  10.136   7.204
 3738POPC   C1B49183  27.238   9.705   6.246
 3738POPC   C2B49184  27.396   9.686   6.673
 3738POPC   C3B49185  27.339   9.825   7.120
 3738POPC   C4B49186  26.972   9.851   7.446
 3739POPC   NC349187  14.606  11.018   5.457
 3739POPC   PO449188  14.093  11.478   5.524
 3739POPC   GL149189  14.271  11.345   5.887
 3739POPC   GL249190  14.433  11.020   5.930
 3739POPC   C1A49191  14.407  11.380   6.288
 3739POPC   D2A49192  14.479  11.119   6.647
 3739POPC   C3A49193  14.566  11.393   6.988
 3739POPC   C4A49194  14.437  11.409   7.427
 3739POPC   C1B49195  14.073  10.968   6.222
 3739POPC   C2B49196  13.981  10.875   6.671
 3739POPC   C3B49197  14.108  11.135   7.053
 3739POPC   C4B49198  14.146  10.959   7.483
 3740POPC   NC349199  37.478  13.489   5.650
 3740POPC   PO449200  37.580  12.875   5.393
 3740POPC   GL149201  37.523  12.998   5.811
 3740POPC   GL249202  37.823  12.832   5.923
 3740POPC   C1A49203  37.391  12.851   6.230
 3740POPC   D2A49204  37.548  12.590   6.584
 3740POPC   C3A49205  37.333  12.713   6.961
 3740POPC   C4A49206  37.415  12.837   7.390
 3740POPC   C1B49207  37.883  12.944   6.364
 3740POPC   C2B49208  37.631  13.088   6.712
 3740POPC   C3B49209  37.800  12.953   7.091
 3740POPC   C4B49210  37.980  12.761   7.451
 3741POPC   NC349211  38.031  21.270   5.578
 3741POPC   PO449212  38.440  21.793   5.418
 3741POPC   GL149213  38.588  21.613   5.766
 3741POPC   GL249214  38.522  21.260   5.721
 3741POPC   C1A49215  38.303  21.655   6.112
 3741POPC   D2A49216  38.073  21.776   6.474
 3741POPC   C3A49217  38.291  21.829   6.851
 3741POPC   C4A49218  38.282  21.602   7.222
 3741POPC   C1B49219  38.368  21.167   6.150
 3741POPC   C2B49220  38.407  21.368   6.558
 3741POPC   C3B49221  38.531  21.236   6.969
 3741POPC   C4B49222  38.248  20.917   7.136
 3742POPC   NC349223  39.295  36.498   5.701
 3742POPC   PO449224  39.025  35.883   5.407
 3742POPC   GL149225  38.991  36.085   5.776
 3742POPC   GL249226  39.323  36.019   5.872
 3742POPC   C1A49227  38.874  36.187   6.183
 3742POPC   D2A49228  39.042  36.123   6.599
 3742POPC   C3A49229  38.917  36.270   6.974
 3742POPC   C4A49230  38.971  36.019   7.332
 3742POPC   C1B49231  39.418  36.230   6.292
 3742POPC   C2B49232  39.482  36.328   6.766
 3742POPC   C3B49233  39.367  36.317   7.230
 3742POPC   C4B49234  39.393  36.165   7.684
 3743POPC   NC349235  44.253  34.876   5.343
 3743POPC   PO449236  43.818  34.428   5.403
 3743POPC   GL149237  43.967  34.421   5.856
 3743POPC   GL249238  44.231  34.662   5.819
 3743POPC   C1A49239  44.149  34.148   6.193
 3743POPC   D2A49240  44.107  34.038   6.633
 3743POPC   C3A49241  43.882  34.358   6.839
 3743POPC   C4A49242  43.568  34.411   7.152
 3743POPC   C1B49243  44.368  34.615   6.261
 3743POPC   C2B49244  44.571  34.553   6.681
 3743POPC   C3B49245  44.382  34.457   7.053
 3743POPC   C4B49246  44.059  34.629   7.281
 3744POPC   NC349247  44.359   6.041   5.362
 3744POPC   PO449248   0.014   5.764   5.297
 3744POPC   GL149249  44.705   5.767   5.668
 3744POPC   GL249250  44.615   6.103   5.791
 3744POPC   C1A49251  44.479   5.708   6.090
 3744POPC   D2A49252  44.426   5.897   6.511
 3744POPC   C3A49253  44.485   5.619   6.887
 3744POPC   C4A49254  44.389   5.681   7.336
 3744POPC   C1B49255  44.776   6.144   6.197
 3744POPC   C2B49256  44.775   6.322   6.578
 3744POPC   C3B49257  44.668   6.097   6.933
 3744POPC   C4B49258  44.849   6.058   7.319
 3745POPC   NC349259   8.565   9.821   5.174
 3745POPC   PO449260   9.171   9.527   5.403
 3745POPC   GL149261   8.960   9.716   5.747
 3745POPC   GL249262   8.809   9.385   5.779
 3745POPC   C1A49263   8.988   9.938   6.159
 3745POPC   D2A49264   8.840   9.853   6.566
 3745POPC   C3A49265   9.114   9.988   6.874
 3745POPC   C4A49266   9.015   9.897   7.274
 3745POPC   C1B49267   8.758   9.482   6.200
 3745POPC   C2B49268   8.658   9.363   6.595
 3745POPC   C3B49269   8.734   9.535   7.010
 3745POPC   C4B49270   8.839   9.386   7.446
 3746POPC   NC349271   3.843   6.438   5.508
 3746POPC   PO449272   3.161   6.710   5.504
 3746POPC   GL149273   3.465   6.595   5.844
 3746POPC   GL249274   3.755   6.815   5.908
 3746POPC   C1A49275   3.626   6.443   6.264
 3746POPC   D2A49276   3.658   6.218   6.675
 3746POPC   C3A49277   3.553   6.439   7.036
 3746POPC   C4A49278   3.812   6.522   7.372
 3746POPC   C1B49279   3.964   6.856   6.312
 3746POPC   C2B49280   3.788   6.745   6.672
 3746POPC   C3B49281   3.786   6.914   7.049
 3746POPC   C4B49282   3.601   6.996   7.433
 3747POPC   NC349283  44.035  44.421   5.460
 3747POPC   PO449284  43.656  44.939   5.449
 3747POPC   GL149285  43.742  44.647   5.838
 3747POPC   GL249286  43.614  44.306   5.738
 3747POPC   C1A49287  43.948  44.672   6.290
 3747POPC   D2A49288  44.094   0.002   6.568
 3747POPC   C3A49289  44.020  44.885   6.971
 3747POPC   C4A49290  44.120  44.479   7.169
 3747POPC   C1B49291  43.838  44.198   6.112
 3747POPC   C2B49292  43.800  44.255   6.551
 3747POPC   C3B49293  43.688  44.303   6.960
 3747POPC   C4B49294  43.630  44.644   7.243
 3748POPC   NC349295  17.851  30.423   5.586
 3748POPC   PO449296  17.419  29.893   5.445
 3748POPC   GL149297  17.579  30.012   5.831
 3748POPC   GL249298  17.949  29.980   5.817
 3748POPC   C1A49299  17.374  30.080   6.268
 3748POPC   D2A49300  17.140  30.109   6.677
 3748POPC   C3A49301  17.254  29.877   7.058
 3748POPC   C4A49302  17.584  29.698   7.350
 3748POPC   C1B49303  17.877  30.040   6.244
 3748POPC   C2B49304  17.728  29.961   6.663
 3748POPC   C3B49305  17.900  29.995   7.088
 3748POPC   C4B49306  17.967  30.075   7.553
 3749POPC   NC349307  37.774   3.664   5.420
 3749POPC   PO449308  37.180   4.001   5.497
 3749POPC   GL149309  37.456   3.762   5.812
 3749POPC   GL249310  37.556   3.386   5.804
 3749POPC   C1A49311  37.835   3.750   6.099
 3749POPC   D2A49312  37.785   3.796   6.544
 3749POPC   C3A49313  37.820   3.450   6.816
 3749POPC   C4A49314  37.883   3.655   7.189
 3749POPC   C1B49315  37.469   3.396   6.272
 3749POPC   C2B49316  37.312   3.507   6.704
 3749POPC   C3B49317  37.402   3.444   7.144
 3749POPC   C4B49318  37.468   3.317   7.570
 3750POPC   NC349319   0.065  13.211   5.253
 3750POPC   PO449320   0.680  13.523   5.523
 3750POPC   GL149321   0.409  13.720   5.835
 3750POPC   GL249322   0.609  14.012   5.938
 3750POPC   C1A49323   0.140  13.550   6.185
 3750POPC   D2A49324   0.096  13.338   6.625
 3750POPC   C3A49325   0.397  13.359   6.969
 3750POPC   C4A49326   0.374  13.668   7.260
 3750POPC   C1B49327   0.458  13.939   6.330
 3750POPC   C2B49328   0.467  13.794   6.720
 3750POPC   C3B49329   0.804  13.772   6.983
 3750POPC   C4B49330   0.847  13.515   7.311
 3751POPC   NC349331   0.665  21.892   5.113
 3751POPC   PO449332   0.190  22.293   5.206
 3751POPC   GL149333   0.421  22.248   5.589
 3751POPC   GL249334   0.205  21.992   5.658
 3751POPC   C1A49335   0.461  22.190   6.056
 3751POPC   D2A49336   0.716  22.105   6.432
 3751POPC   C3A49337   0.509  22.268   6.820
 3751POPC   C4A49338   0.666  22.269   7.244
 3751POPC   C1B49339   0.103  21.826   6.041
 3751POPC   C2B49340   0.232  21.925   6.464
 3751POPC   C3B49341   0.391  21.756   6.830
 3751POPC   C4B49342   0.268  21.957   7.218
 3752POPC   NC349343  26.798  22.307   5.442
 3752POPC   PO449344  26.606  21.675   5.445
 3752POPC   GL149345  26.628  21.971   5.789
 3752POPC   GL249346  26.992  21.992   5.814
 3752POPC   C1A49347  26.666  22.226   6.165
 3752POPC   D2A49348  26.564  22.188   6.603
 3752POPC   C3A49349  26.697  22.341   6.997
 3752POPC   C4A49350  26.553  22.326   7.436
 3752POPC   C1B49351  26.960  21.810   6.236
 3752POPC   C2B49352  27.195  21.978   6.592
 3752POPC   C3B49353  27.241  22.197   6.992
 3752POPC   C4B49354  26.981  22.067   7.324
 3753POPC   NC349355  34.896   4.825   5.471
 3753POPC   PO449356  34.471   5.331   5.522
 3753POPC   GL149357  34.638   5.091   5.832
 3753POPC   GL249358  34.974   5.114   5.904
 3753POPC   C1A49359  34.607   5.184   6.256
 3753POPC   D2A49360  34.350   5.011   6.544
 3753POPC   C3A49361  34.598   5.066   6.896
 3753POPC   C4A49362  34.555   5.359   7.205
 3753POPC   C1B49363  34.912   4.775   6.171
 3753POPC   C2B49364  34.961   4.919   6.567
 3753POPC   C3B49365  35.048   4.788   6.976
 3753POPC   C4B49366  34.878   4.970   7.323
 3754POPC   NC349367  39.587   8.804   5.487
 3754POPC   PO449368  39.220   9.317   5.279
 3754POPC   GL149369  39.224   9.138   5.718
 3754POPC   GL249370  39.068   8.813   5.797
 3754POPC   C1A49371  39.409   9.005   6.145
 3754POPC   D2A49372  39.206   8.843   6.539
 3754POPC   C3A49373  39.396   8.883   6.959
 3754POPC   C4A49374  39.549   8.731   7.361
 3754POPC   C1B49375  38.882   9.060   6.152
 3754POPC   C2B49376  38.724   9.168   6.567
 3754POPC   C3B49377  38.914   9.056   6.950
 3754POPC   C4B49378  38.764   8.967   7.336
 3755POPC   NC349379  41.787  42.883   5.433
 3755POPC   PO449380  41.336  43.376   5.405
 3755POPC   GL149381  41.593  43.255   5.720
 3755POPC   GL249382  41.420  42.954   5.772
 3755POPC   C1A49383  41.694  43.196   6.140
 3755POPC   D2A49384  41.594  42.955   6.488
 3755POPC   C3A49385  41.883  43.028   6.814
 3755POPC   C4A49386  41.759  43.081   7.231
 3755POPC   C1B49387  41.175  42.855   6.117
 3755POPC   C2B49388  41.106  42.717   6.531
 3755POPC   C3B49389  41.381  42.731   6.906
 3755POPC   C4B49390  41.307  42.857   7.311
 3756POPC   NC349391  37.285  26.948   5.255
 3756POPC   PO449392  36.885  26.438   5.385
 3756POPC   GL149393  36.990  26.691   5.740
 3756POPC   GL249394  36.739  26.790   5.979
 3756POPC   C1A49395  37.135  26.583   6.173
 3756POPC   D2A49396  36.894  26.676   6.540
 3756POPC   C3A49397  37.112  26.654   6.915
 3756POPC   C4A49398  36.869  26.512   7.258
 3756POPC   C1B49399  36.982  27.094   6.281
 3756POPC   C2B49400  37.010  27.153   6.747
 3756POPC   C3B49401  36.833  27.035   7.162
 3756POPC   C4B49402  36.700  26.928   7.603
 3757POPC   NC349403  21.689  14.007   5.349
 3757POPC   PO449404  21.501  14.634   5.540
 3757POPC   GL149405  21.361  14.234   5.705
 3757POPC   GL249406  21.638  14.098   5.851
 3757POPC   C1A49407  21.154  14.217   6.086
 3757POPC   D2A49408  21.368  14.408   6.423
 3757POPC   C3A49409  21.180  14.351   6.830
 3757POPC   C4A49410  21.073  14.505   7.244
 3757POPC   C1B49411  21.721  14.063   6.286
 3757POPC   C2B49412  21.773  14.243   6.686
 3757POPC   C3B49413  21.602  14.620   6.888
 3757POPC   C4B49414  21.550  14.346   7.203
 3758POPC   NC349415   7.215  40.266   5.452
 3758POPC   PO449416   7.443  39.626   5.504
 3758POPC   GL149417   7.337  39.934   5.824
 3758POPC   GL249418   7.604  40.181   5.788
 3758POPC   C1A49419   7.329  40.049   6.273
 3758POPC   D2A49420   7.262  40.282   6.672
 3758POPC   C3A49421   7.321  40.190   7.131
 3758POPC   C4A49422   7.471  40.187   7.585
 3758POPC   C1B49423   7.817  40.290   6.147
 3758POPC   C2B49424   7.788  40.109   6.540
 3758POPC   C3B49425   7.864  40.240   6.938
 3758POPC   C4B49426   7.776  39.975   7.249
 3759POPC   NC349427  37.599  33.302   5.514
 3759POPC   PO449428  37.442  33.906   5.135
 3759POPC   GL149429  37.609  33.807   5.562
 3759POPC   GL249430  37.348  33.707   5.728
 3759POPC   C1A49431  37.707  33.746   6.061
 3759POPC   D2A49432  37.938  33.699   6.428
 3759POPC   C3A49433  37.723  33.868   6.766
 3759POPC   C4A49434  37.758  33.733   7.162
 3759POPC   C1B49435  37.323  33.398   6.080
 3759POPC   C2B49436  37.448  33.520   6.467
 3759POPC   C3B49437  37.493  33.384   6.854
 3759POPC   C4B49438  37.325  33.446   7.245
 3760POPC   NC349439   8.846  33.841   5.403
 3760POPC   PO449440   9.071  34.486   5.417
 3760POPC   GL149441   9.134  34.049   5.747
 3760POPC   GL249442   8.899  33.753   5.905
 3760POPC   C1A49443   9.387  33.721   6.031
 3760POPC   D2A49444   9.208  33.628   6.431
 3760POPC   C3A49445   9.386  33.641   6.859
 3760POPC   C4A49446   9.082  33.643   7.178
 3760POPC   C1B49447   8.737  34.134   6.121
 3760POPC   C2B49448   8.545  34.277   6.548
 3760POPC   C3B49449   8.642  34.192   7.007
 3760POPC   C4B49450   8.733  33.951   7.407
 3761POPC   NC349451  17.753   4.130   5.163
 3761POPC   PO449452  17.448   4.606   5.360
 3761POPC   GL149453  17.526   4.450   5.796
 3761POPC   GL249454  17.834   4.374   5.983
 3761POPC   C1A49455  17.346   4.369   6.202
 3761POPC   D2A49456  17.326   4.510   6.608
 3761POPC   C3A49457  17.316   4.312   6.996
 3761POPC   C4A49458  17.398   4.573   7.335
 3761POPC   C1B49459  17.793   4.567   6.403
 3761POPC   C2B49460  17.780   4.546   6.890
 3761POPC   C3B49461  17.787   4.196   7.171
 3761POPC   C4B49462  17.466   4.030   7.447
 3762POPC   NC349463  35.082  33.281   5.384
 3762POPC   PO449464  35.466  32.729   5.523
 3762POPC   GL149465  35.202  32.766   5.850
 3762POPC   GL249466  35.518  32.713   6.039
 3762POPC   C1A49467  35.082  32.882   6.266
 3762POPC   D2A49468  35.247  32.876   6.687
 3762POPC   C3A49469  35.099  33.047   7.091
 3762POPC   C4A49470  35.419  33.045   7.446
 3762POPC   C1B49471  35.648  33.145   6.131
 3762POPC   C2B49472  35.602  33.381   6.503
 3762POPC   C3B49473  35.567  33.246   6.938
 3762POPC   C4B49474  35.880  33.207   7.244
 3763POPC   NC349475  24.983   8.346   5.391
 3763POPC   PO449476  25.593   8.204   5.511
 3763POPC   GL149477  25.378   8.023   5.853
 3763POPC   GL249478  25.118   7.757   5.725
 3763POPC   C1A49479  25.297   8.202   6.266
 3763POPC   D2A49480  25.008   8.126   6.613
 3763POPC   C3A49481  25.175   8.210   7.026
 3763POPC   C4A49482  25.388   8.422   7.368
 3763POPC   C1B49483  25.054   7.764   6.201
 3763POPC   C2B49484  25.389   7.794   6.565
 3763POPC   C3B49485  25.550   7.862   7.005
 3763POPC   C4B49486  25.336   7.896   7.419
 3764POPC   NC349487   1.614  24.435   5.413
 3764POPC   PO449488   1.052  24.773   5.439
 3764POPC   GL149489   1.257  24.561   5.750
 3764POPC   GL249490   1.176  24.224   5.671
 3764POPC   C1A49491   1.480  24.361   6.080
 3764POPC   D2A49492   1.234  24.345   6.431
 3764POPC   C3A49493   1.190  24.608   6.768
 3764POPC   C4A49494   1.171  24.461   7.175
 3764POPC   C1B49495   0.879  24.264   6.030
 3764POPC   C2B49496   0.849  24.033   6.417
 3764POPC   C3B49497   0.925  24.131   6.830
 3764POPC   C4B49498   0.767  24.164   7.261
 3765POPC   NC349499  28.505   3.730   5.469
 3765POPC   PO449500  27.791   3.495   5.629
 3765POPC   GL149501  28.137   3.599   5.839
 3765POPC   GL249502  28.406   3.379   5.815
 3765POPC   C1A49503  28.234   3.707   6.265
 3765POPC   D2A49504  28.489   3.834   6.613
 3765POPC   C3A49505  28.356   3.680   7.004
 3765POPC   C4A49506  28.620   3.742   7.321
 3765POPC   C1B49507  28.205   3.211   6.182
 3765POPC   C2B49508  28.243   3.328   6.621
 3765POPC   C3B49509  28.143   3.176   7.024
 3765POPC   C4B49510  28.420   3.282   7.345
 3766POPC   NC349511  12.332  27.421   5.425
 3766POPC   PO449512  11.675  27.407   5.469
 3766POPC   GL149513  11.954  27.430   5.834
 3766POPC   GL249514  12.305  27.232   5.892
 3766POPC   C1A49515  11.885  27.618   6.256
 3766POPC   D2A49516  11.711  27.810   6.645
 3766POPC   C3A49517  11.921  27.584   6.977
 3766POPC   C4A49518  12.103  27.322   7.297
 3766POPC   C1B49519  12.368  27.673   6.070
 3766POPC   C2B49520  12.282  27.849   6.474
 3766POPC   C3B49521  12.421  27.724   6.867
 3766POPC   C4B49522  12.349  27.773   7.311
 3767POPC   NC349523  17.775   9.932   5.363
 3767POPC   PO449524  17.199   9.960   5.716
 3767POPC   GL149525  17.541   9.807   5.790
 3767POPC   GL249526  17.668   9.520   5.656
 3767POPC   C1A49527  17.720   9.964   6.134
 3767POPC   D2A49528  17.842   9.982   6.526
 3767POPC   C3A49529  17.564   9.917   6.869
 3767POPC   C4A49530  17.276  10.062   7.195
 3767POPC   C1B49531  17.555   9.454   6.129
 3767POPC   C2B49532  17.822   9.453   6.492
 3767POPC   C3B49533  17.736   9.419   6.931
 3767POPC   C4B49534  17.366   9.538   7.173
 3768POPC   NC349535   0.632  17.342   5.480
 3768POPC   PO449536  44.915  17.425   5.526
 3768POPC   GL149537   0.242  17.468   5.882
 3768POPC   GL249538   0.568  17.632   5.915
 3768POPC   C1A49539   0.427  17.433   6.349
 3768POPC   D2A49540   0.630  17.379   6.774
 3768POPC   C3A49541   0.332  17.432   7.110
 3768POPC   C4A49542   0.136  17.512   7.545
 3768POPC   C1B49543   0.320  17.928   6.171
 3768POPC   C2B49544   0.395  18.126   6.567
 3768POPC   C3B49545   0.464  17.927   6.983
 3768POPC   C4B49546   0.631  17.733   7.374
 3769POPC   NC349547  35.146  14.005   5.589
 3769POPC   PO449548  34.878  14.606   5.531
 3769POPC   GL149549  35.171  14.489   5.882
 3769POPC   GL249550  35.364  14.197   5.991
 3769POPC   C1A49551  35.411  14.630   6.253
 3769POPC   D2A49552  35.563  14.555   6.657
 3769POPC   C3A49553  35.399  14.582   7.088
 3769POPC   C4A49554  35.567  14.727   7.513
 3769POPC   C1B49555  35.562  14.000   6.331
 3769POPC   C2B49556  35.548  14.042   6.777
 3769POPC   C3B49557  35.629  14.079   7.217
 3769POPC   C4B49558  35.573  13.924   7.651
 3770POPC   NC349559  30.990  23.853   5.100
 3770POPC   PO449560  30.607  24.107   5.578
 3770POPC   GL149561  30.690  23.743   5.810
 3770POPC   GL249562  31.019  23.615   5.794
 3770POPC   C1A49563  30.636  23.533   6.197
 3770POPC   D2A49564  30.645  23.751   6.578
 3770POPC   C3A49565  30.325  23.875   6.831
 3770POPC   C4A49566  30.469  23.809   7.201
 3770POPC   C1B49567  31.157  23.491   6.185
 3770POPC   C2B49568  30.993  23.366   6.586
 3770POPC   C3B49569  30.898  23.575   6.986
 3770POPC   C4B49570  31.050  23.535   7.389
 3771POPC   NC349571  30.811  40.308   5.170
 3771POPC   PO449572  30.358  39.891   5.351
 3771POPC   GL149573  30.385  40.107   5.795
 3771POPC   GL249574  30.716  40.310   5.765
 3771POPC   C1A49575  30.567  40.133   6.261
 3771POPC   D2A49576  30.921  39.903   6.549
 3771POPC   C3A49577  30.774  39.730   6.958
 3771POPC   C4A49578  30.431  39.882   7.202
 3771POPC   C1B49579  30.836  40.560   6.138
 3771POPC   C2B49580  30.916  40.424   6.559
 3771POPC   C3B49581  30.809  40.265   6.972
 3771POPC   C4B49582  30.929  40.422   7.374
 3772POPC   NC349583  13.300  36.591   5.372
 3772POPC   PO449584  12.717  36.887   5.296
 3772POPC   GL149585  12.858  36.958   5.712
 3772POPC   GL249586  12.950  36.684   5.834
 3772POPC   C1A49587  12.927  37.110   6.151
 3772POPC   D2A49588  12.958  36.914   6.571
 3772POPC   C3A49589  12.900  37.159   6.969
 3772POPC   C4A49590  12.647  37.086   7.354
 3772POPC   C1B49591  12.569  36.717   6.080
 3772POPC   C2B49592  12.454  36.844   6.495
 3772POPC   C3B49593  12.541  36.788   6.919
 3772POPC   C4B49594  12.392  36.552   7.250
 3773POPC   NC349595   0.716  27.757   5.468
 3773POPC   PO449596   0.210  27.330   5.644
 3773POPC   GL149597   0.446  27.392   5.982
 3773POPC   GL249598   0.495  27.748   5.938
 3773POPC   C1A49599   0.306  27.442   6.393
 3773POPC   D2A49600   0.174  27.320   6.799
 3773POPC   C3A49601   0.202  27.596   7.134
 3773POPC   C4A49602   0.187  28.041   7.091
 3773POPC   C1B49603   0.436  27.952   6.339
 3773POPC   C2B49604   0.517  27.771   6.754
 3773POPC   C3B49605   0.653  27.876   7.163
 3773POPC   C4B49606   0.796  27.683   7.548
 3774POPC   NC349607   1.989  22.937   5.381
 3774POPC   PO449608   1.458  22.681   5.632
 3774POPC   GL149609   1.847  22.799   5.903
 3774POPC   GL249610   2.214  22.811   5.854
 3774POPC   C1A49611   2.028  23.088   6.238
 3774POPC   D2A49612   2.119  23.268   6.615
 3774POPC   C3A49613   1.784  23.200   6.940
 3774POPC   C4A49614   1.958  23.099   7.364
 3774POPC   C1B49615   2.143  22.612   6.292
 3774POPC   C2B49616   1.943  22.737   6.723
 3774POPC   C3B49617   1.716  22.710   7.156
 3774POPC   C4B49618   1.781  22.722   7.659
 3775POPC   NC349619  27.472  38.737   5.047
 3775POPC   PO449620  27.793  38.137   5.231
 3775POPC   GL149621  27.675  38.392   5.612
 3775POPC   GL249622  27.413  38.235   5.768
 3775POPC   C1A49623  27.688  38.482   6.109
 3775POPC   D2A49624  27.722  38.326   6.558
 3775POPC   C3A49625  27.564  38.546   6.940
 3775POPC   C4A49626  27.653  38.447   7.377
 3775POPC   C1B49627  27.182  38.306   6.164
 3775POPC   C2B49628  27.230  38.203   6.595
 3775POPC   C3B49629  27.080  38.235   6.992
 3775POPC   C4B49630  27.159  38.532   7.312
 3776POPC   NC349631  23.746  40.985   5.629
 3776POPC   PO449632  23.685  41.664   5.461
 3776POPC   GL149633  23.765  41.532   5.871
 3776POPC   GL249634  23.435  41.610   5.927
 3776POPC   C1A49635  23.782  41.718   6.304
 3776POPC   D2A49636  23.692  41.919   6.721
 3776POPC   C3A49637  23.934  41.691   7.025
 3776POPC   C4A49638  23.906  41.338   7.302
 3776POPC   C1B49639  23.454  41.315   6.237
 3776POPC   C2B49640  23.576  41.405   6.654
 3776POPC   C3B49641  23.477  41.477   7.070
 3776POPC   C4B49642  23.512  41.850   7.285
 3777POPC   NC349643  37.109  37.828   5.511
 3777POPC   PO449644  36.597  37.368   5.546
 3777POPC   GL149645  36.776  37.669   5.867
 3777POPC   GL249646  36.797  38.031   5.935
 3777POPC   C1A49647  37.061  37.675   6.229
 3777POPC   D2A49648  36.873  37.637   6.664
 3777POPC   C3A49649  37.076  37.505   7.051
 3777POPC   C4A49650  37.373  37.639   7.362
 3777POPC   C1B49651  36.568  37.865   6.302
 3777POPC   C2B49652  36.369  37.716   6.711
 3777POPC   C3B49653  36.440  37.665   7.162
 3777POPC   C4B49654  36.755  37.652   7.540
 3778POPC   NC349655  24.298  36.182   5.038
 3778POPC   PO449656  24.341  36.113   5.620
 3778POPC   GL149657  24.415  36.176   5.998
 3778POPC   GL249658  24.162  36.444   5.966
 3778POPC   C1A49659  24.242  35.995   6.381
 3778POPC   D2A49660  24.152  35.972   6.821
 3778POPC   C3A49661  24.512  36.074   7.091
 3778POPC   C4A49662  24.557  36.275   7.506
 3778POPC   C1B49663  24.302  36.512   6.363
 3778POPC   C2B49664  24.112  36.546   6.737
 3778POPC   C3B49665  24.121  36.377   7.144
 3778POPC   C4B49666  24.076  36.402   7.602
 3779POPC   NC349667  37.891  41.044   5.618
 3779POPC   PO449668  38.301  40.677   5.333
 3779POPC   GL149669  38.514  40.775   5.717
 3779POPC   GL249670  38.236  40.783   5.864
 3779POPC   C1A49671  38.597  40.653   6.194
 3779POPC   D2A49672  38.669  40.875   6.585
 3779POPC   C3A49673  38.498  40.834   7.021
 3779POPC   C4A49674  38.688  40.863   7.437
 3779POPC   C1B49675  38.162  40.924   6.271
 3779POPC   C2B49676  38.200  41.110   6.664
 3779POPC   C3B49677  38.058  41.100   7.074
 3779POPC   C4B49678  38.068  40.910   7.438
 3780POPC   NC349679  28.266  27.551   5.532
 3780POPC   PO449680  28.883  27.783   5.481
 3780POPC   GL149681  28.618  27.677   5.891
 3780POPC   GL249682  28.287  27.859   5.940
 3780POPC   C1A49683  28.550  27.766   6.350
 3780POPC   D2A49684  28.235  27.713   6.678
 3780POPC   C3A49685  28.411  27.387   6.946
 3780POPC   C4A49686  28.671  27.677   7.115
 3780POPC   C1B49687  28.110  27.493   6.210
 3780POPC   C2B49688  27.945  27.287   6.609
 3780POPC   C3B49689  27.917  27.452   7.029
 3780POPC   C4B49690  28.186  27.718   7.294
 3781POPC   NC349691  34.650  42.419   5.380
 3781POPC   PO449692  34.653  41.792   5.500
 3781POPC   GL149693  34.492  42.018   5.857
 3781POPC   GL249694  34.534  42.368   5.871
 3781POPC   C1A49695  34.464  42.089   6.315
 3781POPC   D2A49696  34.388  42.257   6.733
 3781POPC   C3A49697  34.519  42.094   7.122
 3781POPC   C4A49698  34.512  42.012   7.576
 3781POPC   C1B49699  34.637  42.650   6.201
 3781POPC   C2B49700  34.531  42.745   6.630
 3781POPC   C3B49701  34.641  42.600   7.039
 3781POPC   C4B49702  34.560  42.521   7.495
 3782POPC   NC349703  23.139   2.338   5.210
 3782POPC   PO449704  22.840   2.923   5.152
 3782POPC   GL149705  22.960   2.780   5.604
 3782POPC   GL249706  22.688   2.901   5.781
 3782POPC   C1A49707  23.036   2.754   6.130
 3782POPC   D2A49708  22.809   2.656   6.571
 3782POPC   C3A49709  23.039   2.712   6.977
 3782POPC   C4A49710  23.038   2.917   7.391
 3782POPC   C1B49711  22.512   2.787   6.162
 3782POPC   C2B49712  22.435   3.018   6.519
 3782POPC   C3B49713  22.605   2.992   6.921
 3782POPC   C4B49714  22.580   2.731   7.279
 3783POPC   NC349715   9.156  18.776   5.434
 3783POPC   PO449716   8.818  18.151   5.183
 3783POPC   GL149717   8.877  18.099   5.643
 3783POPC   GL249718   9.119  18.357   5.749
 3783POPC   C1A49719   8.944  17.963   6.100
 3783POPC   D2A49720   8.752  17.834   6.517
 3783POPC   C3A49721   8.821  18.085   6.897
 3783POPC   C4A49722   9.000  17.924   7.242
 3783POPC   C1B49723   9.049  18.465   6.183
 3783POPC   C2B49724   9.145  18.226   6.533
 3783POPC   C3B49725   9.333  18.301   6.925
 3783POPC   C4B49726   9.109  18.417   7.299
 3784POPC   NC349727  32.518  15.301   4.836
 3784POPC   PO449728  32.240  15.159   5.403
 3784POPC   GL149729  32.182  15.047   5.843
 3784POPC   GL249730  32.072  15.382   5.897
 3784POPC   C1A49731  32.196  14.994   6.313
 3784POPC   D2A49732  32.312  14.785   6.689
 3784POPC   C3A49733  32.020  14.859   6.976
 3784POPC   C4A49734  32.026  15.045   7.366
 3784POPC   C1B49735  32.331  15.473   6.219
 3784POPC   C2B49736  32.428  15.389   6.649
 3784POPC   C3B49737  32.338  15.339   7.086
 3784POPC   C4B49738  32.448  15.268   7.534
 3785POPC   NC349739  20.191  22.059   5.400
 3785POPC   PO449740  19.580  21.852   5.402
 3785POPC   GL149741  19.639  21.983   5.816
 3785POPC   GL249742  19.897  22.212   5.785
 3785POPC   C1A49743  19.830  22.027   6.243
 3785POPC   D2A49744  19.895  22.157   6.667
 3785POPC   C3A49745  19.705  21.867   6.930
 3785POPC   C4A49746  19.623  21.991   7.332
 3785POPC   C1B49747  20.104  22.447   6.100
 3785POPC   C2B49748  20.381  22.336   6.427
 3785POPC   C3B49749  20.376  22.202   6.846
 3785POPC   C4B49750  20.125  22.156   7.237
 3786POPC   NC349751  12.333  17.727   5.458
 3786POPC   PO449752  11.807  17.269   5.450
 3786POPC   GL149753  12.056  17.401   5.774
 3786POPC   GL249754  11.934  17.743   5.841
 3786POPC   C1A49755  12.080  17.341   6.214
 3786POPC   D2A49756  12.027  17.602   6.586
 3786POPC   C3A49757  11.996  17.347   6.936
 3786POPC   C4A49758  11.953  17.239   7.343
 3786POPC   C1B49759  12.295  17.813   6.141
 3786POPC   C2B49760  12.440  17.942   6.580
 3786POPC   C3B49761  12.366  17.715   6.984
 3786POPC   C4B49762  12.450  17.280   7.149
 3787POPC   NC349763  35.419  11.550   5.441
 3787POPC   PO449764  35.323  10.932   5.092
 3787POPC   GL149765  35.233  11.076   5.562
 3787POPC   GL249766  35.527  11.091   5.788
 3787POPC   C1A49767  35.068  11.346   5.974
 3787POPC   D2A49768  35.199  11.675   6.352
 3787POPC   C3A49769  35.257  11.575   6.823
 3787POPC   C4A49770  35.334  11.393   7.225
 3787POPC   C1B49771  35.379  11.011   6.218
 3787POPC   C2B49772  35.466  11.149   6.648
 3787POPC   C3B49773  35.496  10.954   7.060
 3787POPC   C4B49774  35.196  10.696   7.261
 3788POPC   NC349775  36.627   2.160   5.439
 3788POPC   PO449776  37.233   1.836   5.413
 3788POPC   GL149777  37.140   1.948   5.850
 3788POPC   GL249778  36.793   2.048   5.927
 3788POPC   C1A49779  37.160   1.951   6.303
 3788POPC   D2A49780  36.906   2.026   6.636
 3788POPC   C3A49781  37.098   1.873   6.952
 3788POPC   C4A49782  37.276   2.040   7.273
 3788POPC   C1B49783  36.495   1.963   6.298
 3788POPC   C2B49784  36.430   2.177   6.720
 3788POPC   C3B49785  36.709   2.147   7.131
 3788POPC   C4B49786  36.834   1.805   7.435
 3789POPC   NC349787   4.861  42.262   5.314
 3789POPC   PO449788   5.519  42.037   5.498
 3789POPC   GL149789   5.191  42.283   5.756
 3789POPC   GL249790   4.998  41.985   5.766
 3789POPC   C1A49791   5.227  42.535   6.187
 3789POPC   D2A49792   5.205  42.455   6.633
 3789POPC   C3A49793   4.979  42.625   6.984
 3789POPC   C4A49794   5.314  42.478   7.221
 3789POPC   C1B49795   5.148  41.985   6.202
 3789POPC   C2B49796   4.997  41.971   6.631
 3789POPC   C3B49797   5.154  42.022   7.046
 3789POPC   C4B49798   5.081  42.072   7.505
 3790POPC   NC349799  25.101  30.834   5.592
 3790POPC   PO449800  25.637  30.403   5.525
 3790POPC   GL149801  25.504  30.605   5.874
 3790POPC   GL249802  25.751  30.862   5.907
 3790POPC   C1A49803  25.231  30.604   6.246
 3790POPC   D2A49804  25.393  30.735   6.655
 3790POPC   C3A49805  25.141  30.794   7.006
 3790POPC   C4A49806  25.047  30.539   7.332
 3790POPC   C1B49807  25.476  31.033   6.211
 3790POPC   C2B49808  25.526  31.266   6.558
 3790POPC   C3B49809  25.539  31.122   6.963
 3790POPC   C4B49810  25.452  30.974   7.400
 3791POPC   NC349811  11.424  27.815   5.440
 3791POPC   PO449812  10.966  27.372   5.505
 3791POPC   GL149813  11.308  27.457   5.818
 3791POPC   GL249814  11.529  27.765   5.923
 3791POPC   C1A49815  11.464  27.343   6.194
 3791POPC   D2A49816  11.271  27.509   6.551
 3791POPC   C3A49817  11.298  27.332   6.951
 3791POPC   C4A49818  11.471  27.557   7.248
 3791POPC   C1B49819  11.113  27.826   6.128
 3791POPC   C2B49820  11.015  27.954   6.553
 3791POPC   C3B49821  11.190  27.885   6.942
 3791POPC   C4B49822  11.110  28.056   7.360
 3792POPC   NC349823  43.181  24.256   5.616
 3792POPC   PO449824  42.751  24.688   5.379
 3792POPC   GL149825  42.966  24.717   5.802
 3792POPC   GL249826  42.855  24.410   5.985
 3792POPC   C1A49827  43.237  24.639   6.201
 3792POPC   D2A49828  43.222  24.439   6.594
 3792POPC   C3A49829  43.155  24.646   6.951
 3792POPC   C4A49830  42.849  24.538   7.249
 3792POPC   C1B49831  43.007  24.087   6.291
 3792POPC   C2B49832  43.227  23.929   6.669
 3792POPC   C3B49833  43.091  24.144   7.035
 3792POPC   C4B49834  43.291  24.378   7.411
 3793POPC   NC349835  19.557  36.123   5.453
 3793POPC   PO449836  20.173  36.402   5.381
 3793POPC   GL149837  20.139  36.160   5.803
 3793POPC   GL249838  19.843  35.977   5.820
 3793POPC   C1A49839  20.039  36.100   6.257
 3793POPC   D2A49840  20.209  36.194   6.618
 3793POPC   C3A49841  19.920  36.232   6.945
 3793POPC   C4A49842  19.997  36.153   7.352
 3793POPC   C1B49843  19.705  35.721   6.164
 3793POPC   C2B49844  19.749  35.825   6.634
 3793POPC   C3B49845  19.599  35.738   7.069
 3793POPC   C4B49846  19.513  35.878   7.490
 3794POPC   NC349847  11.781  24.258   5.427
 3794POPC   PO449848  12.467  24.415   5.425
 3794POPC   GL149849  12.363  24.690   5.803
 3794POPC   GL249850  11.985  24.656   5.832
 3794POPC   C1A49851  12.236  24.775   6.239
 3794POPC   D2A49852  11.915  24.751   6.566
 3794POPC   C3A49853  12.067  24.715   6.997
 3794POPC   C4A49854  11.984  24.726   7.451
 3794POPC   C1B49855  11.859  24.394   6.186
 3794POPC   C2B49856  11.982  24.213   6.593
 3794POPC   C3B49857  12.101  24.218   7.022
 3794POPC   C4B49858  12.073  23.921   7.360
 3795POPC   NC349859  33.283   6.653   5.581
 3795POPC   PO449860  33.936   6.576   5.435
 3795POPC   GL149861  33.678   6.371   5.791
 3795POPC   GL249862  33.575   6.043   5.703
 3795POPC   C1A49863  33.420   6.497   6.202
 3795POPC   D2A49864  33.433   6.696   6.624
 3795POPC   C3A49865  33.857   6.672   6.812
 3795POPC   C4A49866  34.131   6.735   7.153
 3795POPC   C1B49867  33.491   6.003   6.149
 3795POPC   C2B49868  33.649   6.198   6.567
 3795POPC   C3B49869  33.518   6.342   6.999
 3795POPC   C4B49870  33.528   6.535   7.443
 3796POPC   NC349871  42.774  11.848   5.467
 3796POPC   PO449872  43.172  12.413   5.411
 3796POPC   GL149873  42.977  12.227   5.768
 3796POPC   GL249874  43.121  11.901   5.868
 3796POPC   C1A49875  42.883  12.208   6.206
 3796POPC   D2A49876  43.152  12.106   6.561
 3796POPC   C3A49877  43.022  12.183   6.991
 3796POPC   C4A49878  43.165  12.436   7.349
 3796POPC   C1B49879  43.365  11.753   6.240
 3796POPC   C2B49880  43.563  11.807   6.670
 3796POPC   C3B49881  43.373  11.782   7.094
 3796POPC   C4B49882  43.089  11.926   7.440
 3797POPC   NC349883   5.550  44.957   5.489
 3797POPC   PO449884   6.156   0.044   5.189
 3797POPC   GL149885   6.062  44.908   5.641
 3797POPC   GL249886   5.896  44.595   5.674
 3797POPC   C1A49887   5.894  44.853   6.115
 3797POPC   D2A49888   5.701  44.930   6.543
 3797POPC   C3A49889   5.818  44.846   6.954
 3797POPC   C4A49890   6.104  44.924   7.296
 3797POPC   C1B49891   5.674  44.381   6.011
 3797POPC   C2B49892   5.626  44.407   6.478
 3797POPC   C3B49893   5.739  44.327   6.911
 3797POPC   C4B49894   5.839  44.490   7.319
 3798POPC   NC349895   1.295  23.348   5.299
 3798POPC   PO449896   1.556  23.955   5.422
 3798POPC   GL149897   1.309  23.692   5.728
 3798POPC   GL249898   0.940  23.599   5.781
 3798POPC   C1A49899   1.229  23.907   6.106
 3798POPC   D2A49900   1.315  23.854   6.533
 3798POPC   C3A49901   1.436  24.125   6.863
 3798POPC   C4A49902   1.242  23.964   7.212
 3798POPC   C1B49903   1.108  23.424   6.176
 3798POPC   C2B49904   1.371  23.356   6.558
 3798POPC   C3B49905   1.247  23.527   6.924
 3798POPC   C4B49906   1.207  23.487   7.322
 3799POPC   NC349907  13.111  31.592   5.597
 3799POPC   PO449908  12.546  31.243   5.547
 3799POPC   GL149909  12.645  31.583   5.820
 3799POPC   GL249910  12.889  31.325   5.992
 3799POPC   C1A49911  12.775  31.763   6.217
 3799POPC   D2A49912  12.858  31.456   6.540
 3799POPC   C3A49913  12.980  31.549   6.946
 3799POPC   C4A49914  12.843  31.834   7.243
 3799POPC   C1B49915  13.284  31.306   6.242
 3799POPC   C2B49916  13.420  31.365   6.667
 3799POPC   C3B49917  13.335  31.214   7.082
 3799POPC   C4B49918  13.278  31.128   7.510
 3800POPC   NC349919  37.939  30.464   5.403
 3800POPC   PO449920  37.668  29.814   5.311
 3800POPC   GL149921  37.694  30.091   5.680
 3800POPC   GL249922  38.043  30.216   5.824
 3800POPC   C1A49923  37.476  29.992   6.064
 3800POPC   D2A49924  37.626  29.919   6.491
 3800POPC   C3A49925  37.386  29.826   6.857
 3800POPC   C4A49926  37.637  29.749   7.214
 3800POPC   C1B49927  37.874  30.286   6.223
 3800POPC   C2B49928  37.640  30.446   6.574
 3800POPC   C3B49929  37.697  30.240   6.947
 3800POPC   C4B49930  38.089  30.217   7.139
 3801POPC   NC349931  38.223   6.790   5.412
 3801POPC   PO449932  38.879   6.587   5.506
 3801POPC   GL149933  38.538   6.636   5.802
 3801POPC   GL249934  38.250   6.393   5.789
 3801POPC   C1A49935  38.538   6.468   6.201
 3801POPC   D2A49936  38.816   6.373   6.492
 3801POPC   C3A49937  38.589   6.456   6.847
 3801POPC   C4A49938  38.515   6.221   7.179
 3801POPC   C1B49939  38.096   6.693   6.101
 3801POPC   C2B49940  38.290   6.837   6.492
 3801POPC   C3B49941  38.252   6.860   6.923
 3801POPC   C4B49942  38.524   6.806   7.244
 3802POPC   NC349943  38.152  40.262   5.492
 3802POPC   PO449944  38.579  39.785   5.285
 3802POPC   GL149945  38.460  39.922   5.782
 3802POPC   GL249946  38.452  40.274   5.888
 3802POPC   C1A49947  38.286  39.961   6.265
 3802POPC   D2A49948  38.098  40.070   6.714
 3802POPC   C3A49949  38.383  39.864   6.987
 3802POPC   C4A49950  38.743  39.745   7.139
 3802POPC   C1B49951  38.127  40.420   6.179
 3802POPC   C2B49952  38.245  40.549   6.589
 3802POPC   C3B49953  38.548  40.351   6.837
 3802POPC   C4B49954  38.340  40.324   7.200
 3803POPC   NC349955   1.487  14.592   5.388
 3803POPC   PO449956   1.039  14.242   5.410
 3803POPC   GL149957   0.947  14.387   5.819
 3803POPC   GL249958   1.300  14.431   5.896
 3803POPC   C1A49959   0.884  14.309   6.277
 3803POPC   D2A49960   0.763  14.262   6.714
 3803POPC   C3A49961   1.115  14.198   7.026
 3803POPC   C4A49962   1.247  14.373   7.420
 3803POPC   C1B49963   1.252  14.667   6.304
 3803POPC   C2B49964   1.307  14.635   6.760
 3803POPC   C3B49965   1.242  14.816   7.161
 3803POPC   C4B49966   1.154  14.871   7.610
 3804POPC   NC349967  34.310  31.233   5.444
 3804POPC   PO449968  34.954  31.601   5.344
 3804POPC   GL149969  34.730  31.492   5.735
 3804POPC   GL249970  34.389  31.639   5.757
 3804POPC   C1A49971  34.908  31.416   6.181
 3804POPC   D2A49972  34.726  31.250   6.600
 3804POPC   C3A49973  34.736  31.532   6.978
 3804POPC   C4A49974  34.871  31.513   7.415
 3804POPC   C1B49975  34.417  31.488   6.185
 3804POPC   C2B49976  34.405  31.662   6.604
 3804POPC   C3B49977  34.219  31.434   6.962
 3804POPC   C4B49978  34.401  31.366   7.365
 3805POPC   NC349979  13.731  11.186   5.524
 3805POPC   PO449980  13.423  11.779   5.463
 3805POPC   GL149981  13.590  11.615   5.842
 3805POPC   GL249982  13.448  11.283   5.936
 3805POPC   C1A49983  13.877  11.526   6.184
 3805POPC   D2A49984  13.988  11.371   6.595
 3805POPC   C3A49985  13.924  11.622   6.968
 3805POPC   C4A49986  13.646  11.735   7.308
 3805POPC   C1B49987  13.580  11.114   6.346
 3805POPC   C2B49988  13.474  11.258   6.764
 3805POPC   C3B49989  13.615  11.230   7.185
 3805POPC   C4B49990  13.645  11.039   7.606
 3806POPC   NC349991  12.420  38.213   5.574
 3806POPC   PO449992  11.804  38.487   5.376
 3806POPC   GL149993  12.039  38.504   5.793
 3806POPC   GL249994  12.183  38.795   5.870
 3806POPC   C1A49995  12.085  38.463   6.295
 3806POPC   D2A49996  12.061  38.254   6.700
 3806POPC   C3A49997  12.132  38.353   7.123
 3806POPC   C4A49998  11.912  38.224   7.527
 3806POPC   C1B49999  11.861  38.912   6.226
 3806POPC   C2B50000  11.716  38.878   6.638
 3806POPC   C3B50001  11.952  38.859   7.004
 3806POPC   C4B50002  11.959  38.732   7.442
 3807POPC   NC350003  25.410  20.314   5.548
 3807POPC   PO450004  25.137  20.898   5.458
 3807POPC   GL150005  25.133  20.832   5.884
 3807POPC   GL250006  25.045  20.465   5.930
 3807POPC   C1A50007  24.930  20.867   6.295
 3807POPC   D2A50008  25.138  20.771   6.666
 3807POPC   C3A50009  25.018  20.542   7.015
 3807POPC   C4A50010  25.128  20.665   7.443
 3807POPC   C1B50011  25.361  20.566   6.261
 3807POPC   C2B50012  25.508  20.392   6.676
 3807POPC   C3B50013  25.518  20.516   7.129
 3807POPC   C4B50014  25.514  20.401   7.612
 3808POPC   NC350015   2.537  38.968   5.599
 3808POPC   PO450016   2.731  38.437   5.275
 3808POPC   GL150017   2.893  38.530   5.691
 3808POPC   GL250018   2.578  38.518   5.850
 3808POPC   C1A50019   3.021  38.518   6.134
 3808POPC   D2A50020   2.841  38.296   6.513
 3808POPC   C3A50021   2.921  38.436   6.950
 3808POPC   C4A50022   2.875  38.680   7.333
 3808POPC   C1B50023   2.541  38.680   6.264
 3808POPC   C2B50024   2.599  38.745   6.686
 3808POPC   C3B50025   2.403  38.744   7.104
 3808POPC   C4B50026   2.501  39.000   7.491
 3809POPC   NC350027  36.462  26.285   5.201
 3809POPC   PO450028  36.841  25.843   5.627
 3809POPC   GL150029  37.016  26.050   5.957
 3809POPC   GL250030  37.328  25.886   5.972
 3809POPC   C1A50031  36.830  26.183   6.358
 3809POPC   D2A50032  36.777  26.253   6.799
 3809POPC   C3A50033  37.143  26.128   7.022
 3809POPC   C4A50034  36.879  25.971   7.313
 3809POPC   C1B50035  37.142  25.752   6.387
 3809POPC   C2B50036  36.860  25.722   6.779
 3809POPC   C3B50037  36.808  25.494   7.190
 3809POPC   C4B50038  37.063  25.594   7.620
 3810POPC   NC350039  10.124   7.825   5.567
 3810POPC   PO450040  10.670   8.132   5.276
 3810POPC   GL150041  10.625   8.281   5.735
 3810POPC   GL250042  10.363   8.071   5.954
 3810POPC   C1A50043  10.641   8.425   6.188
 3810POPC   D2A50044  10.491   8.106   6.494
 3810POPC   C3A50045  10.416   8.267   6.907
 3810POPC   C4A50046  10.702   8.419   7.239
 3810POPC   C1B50047  10.110   7.829   6.283
 3810POPC   C2B50048   9.929   7.962   6.701
 3810POPC   C3B50049  10.002   8.111   7.139
 3810POPC   C4B50050  10.368   8.087   7.420
 3811POPC   NC350051   7.113  21.550   5.373
 3811POPC   PO450052   6.555  21.330   5.315
 3811POPC   GL150053   6.517  21.318   5.745
 3811POPC   GL250054   6.225  21.151   5.833
 3811POPC   C1A50055   6.736  21.457   6.099
 3811POPC   D2A50056   6.969  21.338   6.445
 3811POPC   C3A50057   6.749  21.367   6.813
 3811POPC   C4A50058   6.872  21.342   7.229
 3811POPC   C1B50059   6.305  21.200   6.269
 3811POPC   C2B50060   6.437  20.963   6.629
 3811POPC   C3B50061   6.343  21.097   7.074
 3811POPC   C4B50062   6.478  21.187   7.520
 3812POPC   NC350063   9.494  19.741   5.507
 3812POPC   PO450064  10.152  19.500   5.624
 3812POPC   GL150065   9.879  19.738   5.896
 3812POPC   GL250066   9.768  20.058   5.817
 3812POPC   C1A50067   9.913  19.984   6.282
 3812POPC   D2A50068   9.809  19.705   6.572
 3812POPC   C3A50069   9.835  19.945   6.912
 3812POPC   C4A50070  10.003  19.833   7.290
 3812POPC   C1B50071   9.428  19.994   6.121
 3812POPC   C2B50072   9.442  20.060   6.555
 3812POPC   C3B50073   9.311  20.034   6.966
 3812POPC   C4B50074   9.552  20.046   7.327
 3813POPC   NC350075  43.402  28.134   5.495
 3813POPC   PO450076  42.951  28.559   5.406
 3813POPC   GL150077  43.028  28.394   5.806
 3813POPC   GL250078  43.362  28.469   5.924
 3813POPC   C1A50079  42.927  28.312   6.234
 3813POPC   D2A50080  43.035  28.444   6.630
 3813POPC   C3A50081  42.989  28.229   6.993
 3813POPC   C4A50082  43.114  28.424   7.327
 3813POPC   C1B50083  43.462  28.259   6.329
 3813POPC   C2B50084  43.526  28.406   6.760
 3813POPC   C3B50085  43.515  28.690   7.118
 3813POPC   C4B50086  43.529  28.677   7.576
 3814POPC   NC350087   8.696  15.468   5.423
 3814POPC   PO450088   9.046  14.885   5.425
 3814POPC   GL150089   9.136  14.926   5.857
 3814POPC   GL250090   9.345  15.205   5.935
 3814POPC   C1A50091   9.036  15.024   6.287
 3814POPC   D2A50092   9.301  15.069   6.618
 3814POPC   C3A50093   9.181  14.970   7.064
 3814POPC   C4A50094   8.944  15.253   7.379
 3814POPC   C1B50095   9.372  15.552   6.248
 3814POPC   C2B50096   9.545  15.542   6.628
 3814POPC   C3B50097   9.268  15.466   6.976
 3814POPC   C4B50098   9.442  15.362   7.340
 3815POPC   NC350099  24.175  25.472   5.307
 3815POPC   PO450100  24.891  25.275   5.295
 3815POPC   GL150101  24.671  25.170   5.684
 3815POPC   GL250102  24.365  25.030   5.639
 3815POPC   C1A50103  24.763  25.338   6.098
 3815POPC   D2A50104  24.693  25.588   6.463
 3815POPC   C3A50105  24.544  25.444   6.851
 3815POPC   C4A50106  24.704  25.163   7.150
 3815POPC   C1B50107  24.258  25.355   6.024
 3815POPC   C2B50108  24.167  25.240   6.502
 3815POPC   C3B50109  24.250  25.041   6.947
 3815POPC   C4B50110  24.322  24.951   7.389
 3816POPC   NC350111  41.828  27.179   5.574
 3816POPC   PO450112  41.400  26.785   5.196
 3816POPC   GL150113  41.474  26.794   5.670
 3816POPC   GL250114  41.364  27.114   5.841
 3816POPC   C1A50115  41.569  26.737   6.159
 3816POPC   D2A50116  41.751  26.594   6.590
 3816POPC   C3A50117  41.511  26.727   6.977
 3816POPC   C4A50118  41.633  26.608   7.421
 3816POPC   C1B50119  41.655  27.243   6.203
 3816POPC   C2B50120  41.766  27.106   6.587
 3816POPC   C3B50121  41.659  27.259   6.960
 3816POPC   C4B50122  41.648  27.124   7.370
 3817POPC   NC350123  31.054   6.174   5.477
 3817POPC   PO450124  30.633   5.860   5.185
 3817POPC   GL150125  30.680   5.838   5.680
 3817POPC   GL250126  30.450   6.031   5.865
 3817POPC   C1A50127  30.750   5.710   6.164
 3817POPC   D2A50128  30.676   5.417   6.578
 3817POPC   C3A50129  30.764   5.639   6.978
 3817POPC   C4A50130  30.970   6.040   6.987
 3817POPC   C1B50131  30.492   6.181   6.252
 3817POPC   C2B50132  30.602   5.946   6.603
 3817POPC   C3B50133  30.415   6.074   6.940
 3817POPC   C4B50134  30.274   6.499   6.941
 3818POPC   NC350135  38.183   6.004   5.449
 3818POPC   PO450136  38.815   5.868   5.491
 3818POPC   GL150137  38.503   5.886   5.835
 3818POPC   GL250138  38.265   5.578   5.749
 3818POPC   C1A50139  38.503   5.967   6.298
 3818POPC   D2A50140  38.782   5.874   6.625
 3818POPC   C3A50141  38.666   5.770   7.034
 3818POPC   C4A50142  38.642   5.843   7.484
 3818POPC   C1B50143  38.477   5.482   6.143
 3818POPC   C2B50144  38.424   5.521   6.588
 3818POPC   C3B50145  38.184   5.615   6.942
 3818POPC   C4B50146  38.144   5.836   7.297
 3819POPC   NC350147  28.575   5.737   5.108
 3819POPC   PO450148  28.128   6.224   5.395
 3819POPC   GL150149  28.382   6.044   5.690
 3819POPC   GL250150  28.277   6.293   5.880
 3819POPC   C1A50151  28.513   5.849   6.096
 3819POPC   D2A50152  28.673   5.675   6.499
 3819POPC   C3A50153  28.449   5.744   6.887
 3819POPC   C4A50154  28.599   5.644   7.261
 3819POPC   C1B50155  28.109   6.144   6.251
 3819POPC   C2B50156  28.403   6.127   6.563
 3819POPC   C3B50157  28.563   6.261   6.950
 3819POPC   C4B50158  28.535   6.223   7.391
 3820POPC   NC350159  39.259   0.132   5.466
 3820POPC   PO450160  39.372   0.814   5.377
 3820POPC   GL150161  39.215   0.577   5.760
 3820POPC   GL250162  39.470   0.347   5.904
 3820POPC   C1A50163  39.184   0.647   6.222
 3820POPC   D2A50164  39.313   0.729   6.647
 3820POPC   C3A50165  39.105   0.648   7.003
 3820POPC   C4A50166  39.517   0.646   7.213
 3820POPC   C1B50167  39.303   0.154   6.290
 3820POPC   C2B50168  39.207   0.197   6.740
 3820POPC   C3B50169  39.241   0.210   7.210
 3820POPC   C4B50170  39.047   0.177   7.631
 3821POPC   NC350171  21.176  44.520   5.453
 3821POPC   PO450172  21.748  44.847   5.433
 3821POPC   GL150173  21.481  44.802   5.781
 3821POPC   GL250174  21.215   0.022   5.714
 3821POPC   C1A50175  21.417  44.525   6.144
 3821POPC   D2A50176  21.432  44.275   6.534
 3821POPC   C3A50177  21.299  44.537   6.878
 3821POPC   C4A50178  21.158  44.324   7.214
 3821POPC   C1B50179  21.179   0.004   6.167
 3821POPC   C2B50180  20.899  44.937   6.537
 3821POPC   C3B50181  20.912   0.062   6.973
 3821POPC   C4B50182  21.241  44.973   7.258
 3822POPC   NC350183   8.276  10.100   5.604
 3822POPC   PO450184   8.385   9.453   5.402
 3822POPC   GL150185   8.108   9.635   5.751
 3822POPC   GL250186   8.423   9.705   5.882
 3822POPC   C1A50187   8.002   9.775   6.182
 3822POPC   D2A50188   8.237   9.687   6.576
 3822POPC   C3A50189   8.160   9.826   6.992
 3822POPC   C4A50190   8.007   9.669   7.385
 3822POPC   C1B50191   8.476   9.963   6.216
 3822POPC   C2B50192   8.426  10.150   6.606
 3822POPC   C3B50193   8.606  10.063   6.987
 3822POPC   C4B50194   8.502   9.849   7.358
 3823POPC   NC350195  20.749  10.739   5.461
 3823POPC   PO450196  20.637  11.429   5.329
 3823POPC   GL150197  20.555  11.174   5.730
 3823POPC   GL250198  20.324  11.407   5.870
 3823POPC   C1A50199  20.548  11.018   6.184
 3823POPC   D2A50200  20.433  11.015   6.648
 3823POPC   C3A50201  20.710  11.122   7.007
 3823POPC   C4A50202  20.549  11.021   7.414
 3823POPC   C1B50203  20.612  11.512   6.217
 3823POPC   C2B50204  20.566  11.527   6.689
 3823POPC   C3B50205  20.322  11.436   7.059
 3823POPC   C4B50206  20.402  11.504   7.484
 3824POPC   NC350207  34.277  21.063   5.508
 3824POPC   PO450208  34.664  21.563   5.558
 3824POPC   GL150209  34.636  21.211   5.815
 3824POPC   GL250210  34.985  21.184   5.851
 3824POPC   C1A50211  34.359  21.156   6.180
 3824POPC   D2A50212  34.357  21.449   6.537
 3824POPC   C3A50213  34.461  21.364   6.954
 3824POPC   C4A50214  34.111  21.540   7.146
 3824POPC   C1B50215  34.783  21.453   6.216
 3824POPC   C2B50216  34.861  21.472   6.634
 3824POPC   C3B50217  34.899  21.667   7.000
 3824POPC   C4B50218  35.073  21.567   7.379
 3825POPC   NC350219  16.282  29.829   5.336
 3825POPC   PO450220  15.773  30.177   5.201
 3825POPC   GL150221  15.918  30.023   5.684
 3825POPC   GL250222  15.693  29.737   5.849
 3825POPC   C1A50223  16.089  29.846   6.136
 3825POPC   D2A50224  15.770  29.724   6.492
 3825POPC   C3A50225  15.895  29.759   6.932
 3825POPC   C4A50226  16.310  29.711   7.069
 3825POPC   C1B50227  15.627  30.079   6.131
 3825POPC   C2B50228  15.652  30.240   6.559
 3825POPC   C3B50229  15.610  30.293   7.016
 3825POPC   C4B50230  15.726  30.110   7.437
 3826POPC   NC350231  23.851  36.455   5.543
 3826POPC   PO450232  23.595  35.889   5.340
 3826POPC   GL150233  23.832  36.000   5.734
 3826POPC   GL250234  24.032  35.786   5.913
 3826POPC   C1A50235  23.813  36.188   6.172
 3826POPC   D2A50236  23.705  36.026   6.558
 3826POPC   C3A50237  23.669  36.337   6.864
 3826POPC   C4A50238  23.661  36.354   7.309
 3826POPC   C1B50239  23.615  35.728   6.104
 3826POPC   C2B50240  23.316  35.694   6.403
 3826POPC   C3B50241  23.406  35.710   6.835
 3826POPC   C4B50242  23.717  35.879   7.097
 3827POPC   NC350243  22.587  32.374   5.377
 3827POPC   PO450244  23.088  31.995   5.385
 3827POPC   GL150245  22.815  32.015   5.774
 3827POPC   GL250246  22.746  32.356   5.858
 3827POPC   C1A50247  22.753  32.000   6.230
 3827POPC   D2A50248  22.936  32.170   6.620
 3827POPC   C3A50249  22.761  32.008   7.012
 3827POPC   C4A50250  22.716  31.985   7.474
 3827POPC   C1B50251  23.143  32.305   6.137
 3827POPC   C2B50252  23.240  32.600   6.492
 3827POPC   C3B50253  23.166  32.519   6.922
 3827POPC   C4B50254  23.047  32.340   7.318
 3828POPC   NC350255  38.923  17.448   5.085
 3828POPC   PO450256  39.276  17.855   5.445
 3828POPC   GL150257  39.375  17.563   5.738
 3828POPC   GL250258  39.283  17.255   5.869
 3828POPC   C1A50259  39.382  17.655   6.182
 3828POPC   D2A50260  39.097  17.600   6.502
 3828POPC   C3A50261  39.076  17.607   6.939
 3828POPC   C4A50262  39.062  17.549   7.396
 3828POPC   C1B50263  39.389  17.174   6.305
 3828POPC   C2B50264  39.346  17.208   6.729
 3828POPC   C3B50265  39.402  17.249   7.145
 3828POPC   C4B50266  39.163  17.016   7.430
 3829POPC   NC350267  22.440   2.720   5.302
 3829POPC   PO450268  21.721   2.722   5.329
 3829POPC   GL150269  22.047   2.872   5.638
 3829POPC   GL250270  22.258   2.600   5.758
 3829POPC   C1A50271  22.071   3.049   6.065
 3829POPC   D2A50272  21.872   2.865   6.458
 3829POPC   C3A50273  22.052   2.929   6.871
 3829POPC   C4A50274  21.913   2.801   7.290
 3829POPC   C1B50275  22.055   2.543   6.134
 3829POPC   C2B50276  22.259   2.517   6.548
 3829POPC   C3B50277  22.277   2.453   6.995
 3829POPC   C4B50278  22.187   2.388   7.466
 3830POPC   NC350279  13.939   1.809   5.068
 3830POPC   PO450280  13.491   2.196   5.389
 3830POPC   GL150281  13.669   1.900   5.620
 3830POPC   GL250282  13.914   2.142   5.727
 3830POPC   C1A50283  13.600   1.667   6.013
 3830POPC   D2A50284  13.736   1.777   6.420
 3830POPC   C3A50285  13.493   1.798   6.799
 3830POPC   C4A50286  13.567   1.899   7.223
 3830POPC   C1B50287  13.635   2.190   6.099
 3830POPC   C2B50288  13.506   2.255   6.524
 3830POPC   C3B50289  13.699   2.298   6.922
 3830POPC   C4B50290  13.576   2.433   7.301
 3831POPC   NC350291  39.939  13.758   5.228
 3831POPC   PO450292  40.553  13.745   5.217
 3831POPC   GL150293  40.185  13.691   5.682
 3831POPC   GL250294  39.872  13.487   5.681
 3831POPC   C1A50295  39.977  13.860   6.110
 3831POPC   D2A50296  39.763  13.795   6.561
 3831POPC   C3A50297  39.928  13.860   6.996
 3831POPC   C4A50298  39.941  13.722   7.419
 3831POPC   C1B50299  39.956  13.352   6.114
 3831POPC   C2B50300  39.879  13.258   6.553
 3831POPC   C3B50301  39.875  13.347   6.999
 3831POPC   C4B50302  40.238  13.297   7.234
 3832POPC   NC350303   2.758   8.510   5.235
 3832POPC   PO450304   2.956   9.100   5.411
 3832POPC   GL150305   2.791   9.094   5.809
 3832POPC   GL250306   2.759   8.762   5.763
 3832POPC   C1A50307   2.605   9.041   6.208
 3832POPC   D2A50308   2.408   9.127   6.607
 3832POPC   C3A50309   2.597   9.073   6.992
 3832POPC   C4A50310   2.759   9.293   7.351
 3832POPC   C1B50311   2.845   8.582   6.174
 3832POPC   C2B50312   2.731   8.690   6.583
 3832POPC   C3B50313   2.889   8.616   6.967
 3832POPC   C4B50314   2.838   8.798   7.356
 3833POPC   NC350315  35.190  34.068   5.450
 3833POPC   PO450316  35.443  33.518   5.174
 3833POPC   GL150317  35.430  33.675   5.668
 3833POPC   GL250318  35.109  33.756   5.893
 3833POPC   C1A50319  35.540  33.891   6.092
 3833POPC   D2A50320  35.292  33.829   6.453
 3833POPC   C3A50321  35.475  33.764   6.843
 3833POPC   C4A50322  35.546  34.014   7.159
 3833POPC   C1B50323  35.115  33.407   6.230
 3833POPC   C2B50324  35.131  33.403   6.701
 3833POPC   C3B50325  35.065  33.596   7.107
 3833POPC   C4B50326  35.060  33.419   7.485
 3834POPC   NC350327  32.122  20.683   5.412
 3834POPC   PO450328  32.645  20.267   5.230
 3834POPC   GL150329  32.469  20.364   5.662
 3834POPC   GL250330  32.123  20.249   5.728
 3834POPC   C1A50331  32.438  20.611   6.061
 3834POPC   D2A50332  32.259  20.900   6.385
 3834POPC   C3A50333  32.272  20.813   6.833
 3834POPC   C4A50334  32.038  20.759   7.219
 3834POPC   C1B50335  32.235  20.140   6.127
 3834POPC   C2B50336  32.174  20.387   6.476
 3834POPC   C3B50337  32.157  20.301   6.885
 3834POPC   C4B50338  32.363  20.375   7.266
 3835POPC   NC350339   4.460  35.672   5.635
 3835POPC   PO450340   4.023  36.094   5.243
 3835POPC   GL150341   4.135  36.245   5.748
 3835POPC   GL250342   4.495  36.248   5.738
 3835POPC   C1A50343   4.017  36.161   6.254
 3835POPC   D2A50344   4.260  35.923   6.622
 3835POPC   C3A50345   4.247  35.814   7.092
 3835POPC   C4A50346   4.168  36.048   7.504
 3835POPC   C1B50347   4.444  36.409   6.159
 3835POPC   C2B50348   4.634  36.295   6.576
 3835POPC   C3B50349   4.511  36.253   7.029
 3835POPC   C4B50350   4.441  36.564   7.344
 3836POPC   NC350351  26.054  27.835   5.398
 3836POPC   PO450352  26.298  27.273   5.517
 3836POPC   GL150353  26.293  27.616   5.806
 3836POPC   GL250354  26.193  28.010   5.849
 3836POPC   C1A50355  26.076  27.634   6.172
 3836POPC   D2A50356  26.257  27.606   6.552
 3836POPC   C3A50357  26.045  27.471   6.896
 3836POPC   C4A50358  26.212  27.475   7.303
 3836POPC   C1B50359  25.972  28.129   6.242
 3836POPC   C2B50360  25.882  27.954   6.665
 3836POPC   C3B50361  26.208  27.935   6.993
 3836POPC   C4B50362  26.342  27.990   7.399
 3837POPC   NC350363  14.157  39.985   5.295
 3837POPC   PO450364  14.250  40.628   5.486
 3837POPC   GL150365  14.055  40.350   5.805
 3837POPC   GL250366  14.253  40.025   5.840
 3837POPC   C1A50367  14.018  40.196   6.252
 3837POPC   D2A50368  13.986  39.993   6.683
 3837POPC   C3A50369  14.203  40.173   7.035
 3837POPC   C4A50370  14.555  40.449   7.056
 3837POPC   C1B50371  14.523  40.141   6.283
 3837POPC   C2B50372  14.639  40.038   6.768
 3837POPC   C3B50373  14.693  40.019   7.265
 3837POPC   C4B50374  14.587  39.749   7.633
 3838POPC   NC350375  42.018  11.288   5.128
 3838POPC   PO450376  42.610  11.413   5.386
 3838POPC   GL150377  42.377  11.208   5.741
 3838POPC   GL250378  42.244  11.519   5.852
 3838POPC   C1A50379  42.180  11.148   6.185
 3838POPC   D2A50380  42.072  11.432   6.543
 3838POPC   C3A50381  42.026  11.253   6.982
 3838POPC   C4A50382  42.411  11.171   7.238
 3838POPC   C1B50383  42.516  11.550   6.214
 3838POPC   C2B50384  42.565  11.494   6.666
 3838POPC   C3B50385  42.368  11.636   7.044
 3838POPC   C4B50386  42.262  11.615   7.517
 3839POPC   NC350387   2.927  22.409   5.500
 3839POPC   PO450388   2.595  21.847   5.368
 3839POPC   GL150389   2.697  22.055   5.781
 3839POPC   GL250390   2.519  22.396   5.804
 3839POPC   C1A50391   2.809  22.106   6.219
 3839POPC   D2A50392   2.847  21.777   6.560
 3839POPC   C3A50393   2.741  21.859   7.011
 3839POPC   C4A50394   2.854  21.950   7.447
 3839POPC   C1B50395   2.640  22.599   6.186
 3839POPC   C2B50396   2.899  22.558   6.548
 3839POPC   C3B50397   2.916  22.293   6.858
 3839POPC   C4B50398   3.232  22.105   7.124
 3840POPC   NC350399  42.523  25.008   5.634
 3840POPC   PO450400  42.029  25.380   5.380
 3840POPC   GL150401  42.243  25.453   5.757
 3840POPC   GL250402  42.601  25.597   5.643
 3840POPC   C1A50403  42.253  25.172   6.164
 3840POPC   D2A50404  42.498  25.019   6.513
 3840POPC   C3A50405  42.278  25.084   6.884
 3840POPC   C4A50406  42.267  25.254   7.265
 3840POPC   C1B50407  42.611  25.512   6.098
 3840POPC   C2B50408  42.700  25.491   6.537
 3840POPC   C3B50409  42.819  25.273   6.914
 3840POPC   C4B50410  42.714  25.019   7.277
 3841POPC   NC350411  37.342   9.989   5.433
 3841POPC   PO450412  37.882   9.617   5.558
 3841POPC   GL150413  37.755   9.728   5.927
 3841POPC   GL250414  37.823   9.367   6.003
 3841POPC   C1A50415  37.525   9.940   6.234
 3841POPC   D2A50416  37.293   9.833   6.589
 3841POPC   C3A50417  37.545   9.991   6.948
 3841POPC   C4A50418  37.681   9.827   7.350
 3841POPC   C1B50419  37.599   9.457   6.348
 3841POPC   C2B50420  37.781   9.658   6.632
 3841POPC   C3B50421  37.857   9.522   6.987
 3841POPC   C4B50422  37.600   9.338   7.293
 3842POPC   NC350423  28.167   8.514   5.497
 3842POPC   PO450424  28.152   9.197   5.395
 3842POPC   GL150425  28.502   9.220   5.779
 3842POPC   GL250426  28.604   8.880   5.877
 3842POPC   C1A50427  28.488   9.242   6.249
 3842POPC   D2A50428  28.114   9.049   6.455
 3842POPC   C3A50429  28.178   8.947   6.884
 3842POPC   C4A50430  28.587   9.092   7.038
 3842POPC   C1B50431  28.725   8.769   6.315
 3842POPC   C2B50432  28.773   8.639   6.756
 3842POPC   C3B50433  28.509   8.596   7.133
 3842POPC   C4B50434  28.051   8.515   7.210
 3843POPC   NC350435  23.197  40.189   4.969
 3843POPC   PO450436  22.772  39.969   5.430
 3843POPC   GL150437  22.835  39.919   5.858
 3843POPC   GL250438  23.171  39.791   5.907
 3843POPC   C1A50439  22.815  39.802   6.286
 3843POPC   D2A50440  22.834  39.846   6.729
 3843POPC   C3A50441  22.838  40.249   6.894
 3843POPC   C4A50442  22.727  40.211   7.293
 3843POPC   C1B50443  23.301  39.977   6.304
 3843POPC   C2B50444  23.314  40.021   6.752
 3843POPC   C3B50445  23.155  39.924   7.165
 3843POPC   C4B50446  23.195  40.242   7.505
 3844POPC   NC350447   1.998  25.236   5.137
 3844POPC   PO450448   1.696  25.654   5.504
 3844POPC   GL150449   1.786  25.381   5.879
 3844POPC   GL250450   2.115  25.300   5.982
 3844POPC   C1A50451   1.763  25.298   6.344
 3844POPC   D2A50452   2.161  25.382   6.548
 3844POPC   C3A50453   2.108  25.371   6.957
 3844POPC   C4A50454   2.021  25.709   7.174
 3844POPC   C1B50455   2.142  24.956   6.258
 3844POPC   C2B50456   1.956  24.918   6.675
 3844POPC   C3B50457   2.069  24.878   7.095
 3844POPC   C4B50458   1.750  25.108   7.285
 3845POPC   NC350459   2.566  11.309   5.128
 3845POPC   PO450460   2.092  11.478   5.572
 3845POPC   GL150461   2.498  11.224   5.660
 3845POPC   GL250462   2.887  11.265   5.685
 3845POPC   C1A50463   2.602  11.086   6.088
 3845POPC   D2A50464   2.616  11.311   6.486
 3845POPC   C3A50465   2.752  11.251   6.915
 3845POPC   C4A50466   2.647  11.237   7.364
 3845POPC   C1B50467   3.106  11.073   6.101
 3845POPC   C2B50468   3.048  10.979   6.593
 3845POPC   C3B50469   3.208  11.096   7.058
 3845POPC   C4B50470   3.190  11.249   7.514
 3846POPC   NC350471  19.839  23.121   5.366
 3846POPC   PO450472  19.967  22.466   5.332
 3846POPC   GL150473  19.839  22.723   5.734
 3846POPC   GL250474  19.545  22.581   5.903
 3846POPC   C1A50475  19.834  22.921   6.180
 3846POPC   D2A50476  19.565  22.956   6.614
 3846POPC   C3A50477  19.771  23.036   7.023
 3846POPC   C4A50478  20.221  23.091   7.055
 3846POPC   C1B50479  19.618  22.498   6.346
 3846POPC   C2B50480  19.981  22.646   6.578
 3846POPC   C3B50481  20.037  22.592   6.974
 3846POPC   C4B50482  19.777  22.547   7.298
 3847POPC   NC350483   9.107  34.725   5.017
 3847POPC   PO450484   8.945  35.129   5.443
 3847POPC   GL150485   8.877  34.876   5.874
 3847POPC   GL250486   9.058  34.563   5.927
 3847POPC   C1A50487   8.915  35.002   6.235
 3847POPC   D2A50488   9.168  34.923   6.584
 3847POPC   C3A50489   8.984  34.637   6.884
 3847POPC   C4A50490   8.792  34.861   7.235
 3847POPC   C1B50491   8.976  34.512   6.346
 3847POPC   C2B50492   9.042  34.155   6.557
 3847POPC   C3B50493   9.150  34.100   6.929
 3847POPC   C4B50494   9.092  34.309   7.305
 3848POPC   NC350495  38.874  38.482   5.434
 3848POPC   PO450496  39.462  38.147   5.303
 3848POPC   GL150497  39.303  38.301   5.731
 3848POPC   GL250498  39.033  38.497   5.905
 3848POPC   C1A50499  39.347  38.228   6.210
 3848POPC   D2A50500  39.442  38.150   6.680
 3848POPC   C3A50501  39.507  38.484   6.992
 3848POPC   C4A50502  39.713  38.560   7.384
 3848POPC   C1B50503  38.863  38.392   6.317
 3848POPC   C2B50504  38.996  38.507   6.732
 3848POPC   C3B50505  39.007  38.310   7.093
 3848POPC   C4B50506  38.704  37.980   7.123
 3849POPC   NC350507  13.180  12.184   5.416
 3849POPC   PO450508  12.735  11.834   5.141
 3849POPC   GL150509  12.795  11.929   5.652
 3849POPC   GL250510  13.151  11.941   5.870
 3849POPC   C1A50511  12.727  11.871   6.121
 3849POPC   D2A50512  12.531  12.020   6.527
 3849POPC   C3A50513  12.708  11.868   6.926
 3849POPC   C4A50514  12.659  11.945   7.370
 3849POPC   C1B50515  13.113  12.225   6.277
 3849POPC   C2B50516  13.011  12.430   6.714
 3849POPC   C3B50517  12.863  12.369   7.157
 3849POPC   C4B50518  12.980  12.326   7.618
 3850POPC   NC350519  20.053   4.720   5.396
 3850POPC   PO450520  19.676   5.243   5.425
 3850POPC   GL150521  19.687   4.948   5.801
 3850POPC   GL250522  20.008   4.833   5.870
 3850POPC   C1A50523  19.814   5.056   6.275
 3850POPC   D2A50524  19.939   5.444   6.504
 3850POPC   C3A50525  20.023   5.397   6.949
 3850POPC   C4A50526  19.826   5.023   7.123
 3850POPC   C1B50527  20.174   4.655   6.198
 3850POPC   C2B50528  20.260   4.796   6.609
 3850POPC   C3B50529  20.319   4.970   7.025
 3850POPC   C4B50530  20.198   4.991   7.496
 3851POPC   NC350531  20.349  33.968   5.449
 3851POPC   PO450532  20.968  33.823   5.527
 3851POPC   GL150533  20.643  33.682   5.801
 3851POPC   GL250534  20.292  33.550   5.792
 3851POPC   C1A50535  20.674  33.423   6.158
 3851POPC   D2A50536  20.996  33.457   6.478
 3851POPC   C3A50537  20.795  33.646   6.811
 3851POPC   C4A50538  20.842  33.809   7.176
 3851POPC   C1B50539  20.326  33.863   6.182
 3851POPC   C2B50540  20.486  34.062   6.602
 3851POPC   C3B50541  20.382  34.014   7.044
 3851POPC   C4B50542  20.423  33.642   7.360
 3852POPC   NC350543  19.491   0.907   5.385
 3852POPC   PO450544  19.811   1.494   5.245
 3852POPC   GL150545  19.848   1.373   5.732
 3852POPC   GL250546  19.644   1.047   5.849
 3852POPC   C1A50547  19.967   1.229   6.171
 3852POPC   D2A50548  20.215   0.936   6.388
 3852POPC   C3A50549  20.012   0.941   6.782
 3852POPC   C4A50550  20.135   1.240   7.088
 3852POPC   C1B50551  19.438   1.094   6.263
 3852POPC   C2B50552  19.608   1.268   6.640
 3852POPC   C3B50553  19.621   1.185   7.073
 3852POPC   C4B50554  19.683   1.139   7.519
 3853POPC   NC350555  44.295  12.366   5.057
 3853POPC   PO450556  44.781  12.150   5.504
 3853POPC   GL150557  44.645  12.095   5.894
 3853POPC   GL250558  44.901  12.315   5.982
 3853POPC   C1A50559  44.605  12.005   6.307
 3853POPC   D2A50560  44.753  11.997   6.693
 3853POPC   C3A50561  44.419  12.038   6.997
 3853POPC   C4A50562  44.693  11.822   7.197
 3853POPC   C1B50563  44.974  12.529   6.336
 3853POPC   C2B50564   0.045  12.423   6.752
 3853POPC   C3B50565  44.846  12.293   7.132
 3853POPC   C4B50566  44.652  12.393   7.552
 3854POPC   NC350567   1.017   7.844   5.224
 3854POPC   PO450568   0.304   8.126   5.369
 3854POPC   GL150569   0.296   8.236   5.783
 3854POPC   GL250570   0.097   8.521   5.829
 3854POPC   C1A50571   0.526   8.094   6.143
 3854POPC   D2A50572   0.353   7.948   6.505
 3854POPC   C3A50573   0.562   8.033   6.842
 3854POPC   C4A50574   0.342   8.169   7.167
 3854POPC   C1B50575   0.452   8.612   6.116
 3854POPC   C2B50576   0.603   8.462   6.536
 3854POPC   C3B50577   0.634   8.538   6.979
 3854POPC   C4B50578   0.695   8.399   7.428
 3855POPC   NC350579  37.006  10.995   5.671
 3855POPC   PO450580  36.699  11.603   5.461
 3855POPC   GL150581  36.905  11.495   5.795
 3855POPC   GL250582  36.594  11.319   5.914
 3855POPC   C1A50583  37.033  11.454   6.215
 3855POPC   D2A50584  36.760  11.532   6.554
 3855POPC   C3A50585  36.856  11.234   6.841
 3855POPC   C4A50586  37.073  11.218   7.219
 3855POPC   C1B50587  36.366  11.227   6.314
 3855POPC   C2B50588  36.409  10.983   6.700
 3855POPC   C3B50589  36.528  10.942   7.131
 3855POPC   C4B50590  36.735  11.028   7.536
 3856POPC   NC350591  43.346   8.851   5.529
 3856POPC   PO450592  42.616   9.044   5.547
 3856POPC   GL150593  42.957   9.028   5.840
 3856POPC   GL250594  43.301   9.169   5.918
 3856POPC   C1A50595  42.909   9.087   6.271
 3856POPC   D2A50596  42.676   9.133   6.605
 3856POPC   C3A50597  42.907   9.102   6.961
 3856POPC   C4A50598  43.258   9.310   7.161
 3856POPC   C1B50599  43.273   8.759   6.189
 3856POPC   C2B50600  43.172   8.751   6.631
 3856POPC   C3B50601  43.416   8.844   7.020
 3856POPC   C4B50602  43.555   8.592   7.363
 3857POPC   NC350603  31.863   5.608   5.639
 3857POPC   PO450604  31.531   6.219   5.439
 3857POPC   GL150605  31.447   6.040   5.822
 3857POPC   GL250606  31.741   6.206   5.932
 3857POPC   C1A50607  31.281   5.839   6.208
 3857POPC   D2A50608  31.463   5.587   6.539
 3857POPC   C3A50609  31.277   5.602   6.937
 3857POPC   C4A50610  31.284   5.491   7.360
 3857POPC   C1B50611  31.473   6.320   6.263
 3857POPC   C2B50612  31.399   6.103   6.659
 3857POPC   C3B50613  31.467   6.077   7.101
 3857POPC   C4B50614  31.347   5.980   7.541
 3858POPC   NC350615  26.971   6.851   5.026
 3858POPC   PO450616  26.520   6.535   5.379
 3858POPC   GL150617  26.758   6.701   5.739
 3858POPC   GL250618  26.566   6.714   5.986
 3858POPC   C1A50619  27.053   6.587   6.127
 3858POPC   D2A50620  26.898   6.642   6.576
 3858POPC   C3A50621  27.128   6.527   6.969
 3858POPC   C4A50622  27.220   6.613   7.421
 3858POPC   C1B50623  26.800   7.036   6.226
 3858POPC   C2B50624  26.660   7.222   6.610
 3858POPC   C3B50625  26.760   6.976   6.976
 3858POPC   C4B50626  26.771   6.923   7.413
 3859POPC   NC350627   3.734  20.937   5.348
 3859POPC   PO450628   3.238  20.421   5.277
 3859POPC   GL150629   3.388  20.640   5.650
 3859POPC   GL250630   3.248  20.967   5.704
 3859POPC   C1A50631   3.660  20.692   6.040
 3859POPC   D2A50632   3.649  20.745   6.510
 3859POPC   C3A50633   3.683  20.429   6.885
 3859POPC   C4A50634   3.602  20.553   7.331
 3859POPC   C1B50635   3.187  20.882   6.163
 3859POPC   C2B50636   3.150  20.693   6.586
 3859POPC   C3B50637   3.390  20.855   6.954
 3859POPC   C4B50638   3.197  20.845   7.370
 3860POPC   NC350639  29.990  17.085   5.640
 3860POPC   PO450640  29.876  17.531   5.154
 3860POPC   GL150641  29.764  17.544   5.646
 3860POPC   GL250642  30.087  17.564   5.873
 3860POPC   C1A50643  29.665  17.606   6.141
 3860POPC   D2A50644  29.778  17.479   6.564
 3860POPC   C3A50645  29.605  17.590   6.951
 3860POPC   C4A50646  29.873  17.589   7.333
 3860POPC   C1B50647  30.136  17.764   6.300
 3860POPC   C2B50648  30.247  17.690   6.748
 3860POPC   C3B50649  30.214  17.937   7.152
 3860POPC   C4B50650  30.205  17.859   7.617
 3861POPC   NC350651  38.602  11.890   4.961
 3861POPC   PO450652  38.244  12.345   5.312
 3861POPC   GL150653  38.397  12.338   5.748
 3861POPC   GL250654  38.527  11.971   5.786
 3861POPC   C1A50655  38.306  12.206   6.177
 3861POPC   D2A50656  38.171  11.948   6.526
 3861POPC   C3A50657  38.337  12.101   6.909
 3861POPC   C4A50658  38.317  12.360   7.272
 3861POPC   C1B50659  38.778  12.022   6.170
 3861POPC   C2B50660  39.051  12.072   6.523
 3861POPC   C3B50661  39.032  11.923   6.935
 3861POPC   C4B50662  38.728  12.012   7.240
 3862POPC   NC350663   3.322   2.896   5.423
 3862POPC   PO450664   3.796   2.560   5.330
 3862POPC   GL150665   3.563   2.626   5.808
 3862POPC   GL250666   3.703   2.867   6.011
 3862POPC   C1A50667   3.356   2.555   6.245
 3862POPC   D2A50668   3.521   2.584   6.689
 3862POPC   C3A50669   3.294   2.673   7.083
 3862POPC   C4A50670   3.404   2.504   7.481
 3862POPC   C1B50671   3.886   2.576   6.322
 3862POPC   C2B50672   4.059   2.487   6.738
 3862POPC   C3B50673   3.824   2.535   7.135
 3862POPC   C4B50674   3.692   2.922   7.340
 3863POPC   NC350675  31.654  13.038   5.490
 3863POPC   PO450676  31.323  12.473   5.333
 3863POPC   GL150677  31.391  12.572   5.786
 3863POPC   GL250678  31.323  12.942   5.866
 3863POPC   C1A50679  31.444  12.553   6.261
 3863POPC   D2A50680  31.394  12.732   6.692
 3863POPC   C3A50681  31.388  12.543   7.119
 3863POPC   C4A50682  31.657  12.651   7.441
 3863POPC   C1B50683  31.496  13.065   6.271
 3863POPC   C2B50684  31.529  13.249   6.690
 3863POPC   C3B50685  31.668  13.005   7.049
 3863POPC   C4B50686  31.315  13.034   7.339
 3864POPC   NC350687  41.708  24.759   5.432
 3864POPC   PO450688  41.659  24.094   5.458
 3864POPC   GL150689  41.676  24.327   5.848
 3864POPC   GL250690  41.378  24.562   5.792
 3864POPC   C1A50691  41.646  24.193   6.303
 3864POPC   D2A50692  41.294  24.093   6.616
 3864POPC   C3A50693  41.328  24.386   6.976
 3864POPC   C4A50694  41.732  24.569   7.170
 3864POPC   C1B50695  41.211  24.465   6.196
 3864POPC   C2B50696  41.201  24.711   6.546
 3864POPC   C3B50697  41.450  24.873   6.866
 3864POPC   C4B50698  41.315  24.844   7.305
 3865POPC   NC350699  17.946  13.091   5.434
 3865POPC   PO450700  17.722  12.468   5.559
 3865POPC   GL150701  17.547  12.756   5.882
 3865POPC   GL250702  17.278  13.003   5.807
 3865POPC   C1A50703  17.455  12.744   6.335
 3865POPC   D2A50704  17.685  12.550   6.642
 3865POPC   C3A50705  17.540  12.798   6.970
 3865POPC   C4A50706  17.524  12.944   7.389
 3865POPC   C1B50707  17.490  13.209   6.163
 3865POPC   C2B50708  17.414  13.233   6.626
 3865POPC   C3B50709  17.203  13.195   7.060
 3865POPC   C4B50710  17.043  13.109   7.485
 3866POPC   NC350711   1.013  22.745   5.490
 3866POPC   PO450712   1.581  22.997   5.137
 3866POPC   GL150713   1.584  23.162   5.648
 3866POPC   GL250714   1.217  23.142   5.758
 3866POPC   C1A50715   1.541  23.131   6.140
 3866POPC   D2A50716   1.435  22.831   6.526
 3866POPC   C3A50717   1.302  23.003   6.961
 3866POPC   C4A50718   1.453  23.052   7.412
 3866POPC   C1B50719   1.070  22.927   6.142
 3866POPC   C2B50720   0.962  23.057   6.561
 3866POPC   C3B50721   0.788  23.200   6.943
 3866POPC   C4B50722   0.945  23.066   7.336
 3867POPC   NC350723  43.331   2.640   5.534
 3867POPC   PO450724  42.857   2.994   5.135
 3867POPC   GL150725  42.965   3.003   5.646
 3867POPC   GL250726  43.328   3.104   5.749
 3867POPC   C1A50727  43.002   3.097   6.129
 3867POPC   D2A50728  43.152   2.862   6.505
 3867POPC   C3A50729  42.996   2.864   6.932
 3867POPC   C4A50730  43.114   3.114   7.323
 3867POPC   C1B50731  43.531   2.917   6.118
 3867POPC   C2B50732  43.658   2.856   6.548
 3867POPC   C3B50733  43.503   2.813   6.972
 3867POPC   C4B50734  43.305   2.642   7.319
 3868POPC   NC350735   1.171  37.283   5.522
 3868POPC   PO450736   0.941  36.688   5.457
 3868POPC   GL150737   1.342  36.765   5.773
 3868POPC   GL250738   1.486  37.123   5.873
 3868POPC   C1A50739   1.481  36.605   6.220
 3868POPC   D2A50740   1.667  36.616   6.671
 3868POPC   C3A50741   1.415  36.553   7.037
 3868POPC   C4A50742   0.978  36.721   7.136
 3868POPC   C1B50743   1.244  37.065   6.221
 3868POPC   C2B50744   1.219  36.852   6.611
 3868POPC   C3B50745   1.327  37.061   6.962
 3868POPC   C4B50746   1.085  37.254   7.296
 3869POPC   NC350747   2.683   9.463   5.470
 3869POPC   PO450748   3.181   9.858   5.440
 3869POPC   GL150749   3.088   9.987   5.860
 3869POPC   GL250750   2.753   9.859   5.805
 3869POPC   C1A50751   3.009   9.998   6.324
 3869POPC   D2A50752   3.003   9.700   6.692
 3869POPC   C3A50753   3.174   9.779   7.086
 3869POPC   C4A50754   3.077  10.012   7.536
 3869POPC   C1B50755   2.742   9.566   6.129
 3869POPC   C2B50756   2.552   9.716   6.483
 3869POPC   C3B50757   2.547   9.618   6.919
 3869POPC   C4B50758   2.714   9.785   7.287
 3870POPC   NC350759  39.381  19.829   5.412
 3870POPC   PO450760  38.882  20.278   5.305
 3870POPC   GL150761  39.020  19.938   5.742
 3870POPC   GL250762  39.203  19.664   5.860
 3870POPC   C1A50763  39.227  19.995   6.241
 3870POPC   D2A50764  39.448  19.866   6.664
 3870POPC   C3A50765  39.318  20.055   7.083
 3870POPC   C4A50766  38.944  20.005   7.349
 3870POPC   C1B50767  39.603  19.657   6.098
 3870POPC   C2B50768  39.667  19.432   6.492
 3870POPC   C3B50769  39.445  19.320   6.852
 3870POPC   C4B50770  39.140  19.582   7.047
 3871POPC   NC350771  31.080  29.128   5.225
 3871POPC   PO450772  30.545  28.876   5.575
 3871POPC   GL150773  30.875  29.030   5.770
 3871POPC   GL250774  30.750  29.346   5.835
 3871POPC   C1A50775  30.816  28.994   6.226
 3871POPC   D2A50776  30.602  28.820   6.600
 3871POPC   C3A50777  30.798  29.055   6.912
 3871POPC   C4A50778  31.032  29.085   7.302
 3871POPC   C1B50779  30.467  29.382   6.204
 3871POPC   C2B50780  30.418  29.315   6.645
 3871POPC   C3B50781  30.477  29.580   7.005
 3871POPC   C4B50782  30.256  29.596   7.406
 3872POPC   NC350783  41.759  15.628   5.142
 3872POPC   PO450784  42.338  15.993   5.244
 3872POPC   GL150785  42.367  16.072   5.763
 3872POPC   GL250786  42.049  16.192   5.958
 3872POPC   C1A50787  42.443  15.852   6.165
 3872POPC   D2A50788  42.248  15.595   6.514
 3872POPC   C3A50789  42.108  15.748   6.926
 3872POPC   C4A50790  42.359  15.735   7.297
 3872POPC   C1B50791  42.017  16.282   6.371
 3872POPC   C2B50792  42.353  16.103   6.614
 3872POPC   C3B50793  42.544  16.103   6.989
 3872POPC   C4B50794  42.183  16.202   7.250
 3873POPC   NC350795  16.336  11.169   5.656
 3873POPC   PO450796  16.945  11.194   5.278
 3873POPC   GL150797  16.856  11.340   5.720
 3873POPC   GL250798  16.631  11.653   5.761
 3873POPC   C1A50799  16.811  11.125   6.137
 3873POPC   D2A50800  16.897  11.069   6.593
 3873POPC   C3A50801  16.681  11.228   6.959
 3873POPC   C4A50802  16.882  11.128   7.370
 3873POPC   C1B50803  16.728  11.626   6.216
 3873POPC   C2B50804  16.604  11.678   6.662
 3873POPC   C3B50805  16.669  11.705   7.133
 3873POPC   C4B50806  16.527  11.474   7.492
 3874POPC   NC350807  31.768  27.777   5.447
 3874POPC   PO450808  31.114  27.503   5.299
 3874POPC   GL150809  31.332  27.640   5.684
 3874POPC   GL250810  31.506  27.361   5.816
 3874POPC   C1A50811  31.476  27.815   6.102
 3874POPC   D2A50812  31.609  27.809   6.549
 3874POPC   C3A50813  31.421  27.692   6.938
 3874POPC   C4A50814  31.664  27.816   7.291
 3874POPC   C1B50815  31.672  27.376   6.245
 3874POPC   C2B50816  31.609  27.275   6.667
 3874POPC   C3B50817  31.566  27.227   7.097
 3874POPC   C4B50818  31.696  27.351   7.495
 3875POPC   NC350819  41.773  19.151   5.470
 3875POPC   PO450820  42.413  19.099   5.183
 3875POPC   GL150821  42.560  19.076   5.619
 3875POPC   GL250822  42.422  18.741   5.687
 3875POPC   C1A50823  42.595  19.199   6.058
 3875POPC   D2A50824  42.483  19.392   6.474
 3875POPC   C3A50825  42.779  19.407   6.831
 3875POPC   C4A50826  42.606  19.338   7.227
 3875POPC   C1B50827  42.175  18.862   6.064
 3875POPC   C2B50828  42.257  18.858   6.513
 3875POPC   C3B50829  42.401  18.687   6.906
 3875POPC   C4B50830  42.266  18.954   7.218
 3876POPC   NC350831   9.169  19.277   5.123
 3876POPC   PO450832   8.684  18.895   5.473
 3876POPC   GL150833   8.845  19.201   5.783
 3876POPC   GL250834   9.009  18.899   5.898
 3876POPC   C1A50835   9.021  19.271   6.224
 3876POPC   D2A50836   8.929  19.089   6.591
 3876POPC   C3A50837   8.834  19.354   6.931
 3876POPC   C4A50838   8.903  19.476   7.341
 3876POPC   C1B50839   9.359  18.885   6.169
 3876POPC   C2B50840   9.335  18.714   6.585
 3876POPC   C3B50841   8.987  18.673   6.874
 3876POPC   C4B50842   8.943  18.932   7.253
 3877POPC   NC350843  11.067  39.463   5.312
 3877POPC   PO450844  11.217  40.066   5.553
 3877POPC   GL150845  11.482  39.964   5.854
 3877POPC   GL250846  11.457  40.315   5.954
 3877POPC   C1A50847  11.334  39.646   6.101
 3877POPC   D2A50848  11.074  39.662   6.428
 3877POPC   C3A50849  11.323  39.705   6.790
 3877POPC   C4A50850  11.363  39.598   7.193
 3877POPC   C1B50851  11.222  40.144   6.257
 3877POPC   C2B50852  11.503  40.105   6.540
 3877POPC   C3B50853  11.528  40.153   6.948
 3877POPC   C4B50854  11.187  40.121   7.190
 3878POPC   NC350855  17.108   9.557   5.537
 3878POPC   PO450856  16.673  10.004   5.416
 3878POPC   GL150857  16.744   9.791   5.860
 3878POPC   GL250858  17.047   9.596   6.033
 3878POPC   C1A50859  16.831   9.979   6.306
 3878POPC   D2A50860  17.012  10.024   6.749
 3878POPC   C3A50861  16.834   9.772   7.139
 3878POPC   C4A50862  16.589   9.631   7.557
 3878POPC   C1B50863  17.037   9.539   6.486
 3878POPC   C2B50864  16.983   9.334   6.899
 3878POPC   C3B50865  16.933   9.319   7.357
 3878POPC   C4B50866  17.026   9.321   7.821
 3879POPC   NC350867  38.801   9.146   5.271
 3879POPC   PO450868  38.250   8.815   5.194
 3879POPC   GL150869  38.316   8.842   5.652
 3879POPC   GL250870  38.601   9.041   5.723
 3879POPC   C1A50871  38.547   8.650   6.035
 3879POPC   D2A50872  38.412   8.773   6.441
 3879POPC   C3A50873  38.492   8.760   6.888
 3879POPC   C4A50874  38.267   8.870   7.266
 3879POPC   C1B50875  38.348   9.156   6.098
 3879POPC   C2B50876  38.141   9.231   6.522
 3879POPC   C3B50877  38.327   9.281   6.936
 3879POPC   C4B50878  38.694   9.511   7.031
 3880POPC   NC350879  33.292  12.798   5.277
 3880POPC   PO450880  32.775  12.410   5.489
 3880POPC   GL150881  32.774  12.817   5.706
 3880POPC   GL250882  33.091  12.996   5.773
 3880POPC   C1A50883  32.796  12.780   6.175
 3880POPC   D2A50884  33.133  12.732   6.474
 3880POPC   C3A50885  33.066  12.653   6.897
 3880POPC   C4A50886  32.810  12.860   7.207
 3880POPC   C1B50887  33.297  13.143   6.153
 3880POPC   C2B50888  33.356  13.224   6.585
 3880POPC   C3B50889  33.131  13.174   6.960
 3880POPC   C4B50890  33.317  12.933   7.276
 3881POPC   NC350891  38.096  26.475   5.599
 3881POPC   PO450892  38.525  26.669   5.069
 3881POPC   GL150893  38.545  26.925   5.508
 3881POPC   GL250894  38.557  26.660   5.704
 3881POPC   C1A50895  38.393  27.034   6.001
 3881POPC   D2A50896  38.455  26.886   6.445
 3881POPC   C3A50897  38.433  27.070   6.843
 3881POPC   C4A50898  38.296  26.973   7.235
 3881POPC   C1B50899  38.537  26.503   6.122
 3881POPC   C2B50900  38.813  26.516   6.469
 3881POPC   C3B50901  38.635  26.600   6.854
 3881POPC   C4B50902  38.514  26.525   7.267
 3882POPC   NC350903  40.168  31.164   5.091
 3882POPC   PO450904  39.836  31.707   5.482
 3882POPC   GL150905  39.856  31.501   5.837
 3882POPC   GL250906  39.815  31.123   5.728
 3882POPC   C1A50907  40.136  31.543   6.196
 3882POPC   D2A50908  40.352  31.549   6.563
 3882POPC   C3A50909  40.122  31.539   6.949
 3882POPC   C4A50910  39.741  31.585   7.204
 3882POPC   C1B50911  39.771  31.157   6.182
 3882POPC   C2B50912  39.789  31.368   6.569
 3882POPC   C3B50913  39.783  31.155   6.948
 3882POPC   C4B50914  39.801  30.842   7.208
 3883POPC   NC350915  22.925   8.240   5.246
 3883POPC   PO450916  23.293   7.732   5.319
 3883POPC   GL150917  22.975   7.745   5.706
 3883POPC   GL250918  22.868   8.096   5.797
 3883POPC   C1A50919  22.913   7.773   6.198
 3883POPC   D2A50920  22.774   7.959   6.611
 3883POPC   C3A50921  22.682   7.815   7.035
 3883POPC   C4A50922  22.833   7.972   7.421
 3883POPC   C1B50923  22.854   8.308   6.238
 3883POPC   C2B50924  23.021   8.409   6.685
 3883POPC   C3B50925  23.200   8.392   7.119
 3883POPC   C4B50926  23.318   8.703   7.472
 3884POPC   NC350927  37.811  35.169   5.442
 3884POPC   PO450928  37.619  35.756   5.654
 3884POPC   GL150929  37.679  35.430   5.947
 3884POPC   GL250930  37.703  35.072   5.919
 3884POPC   C1A50931  38.067  35.436   6.181
 3884POPC   D2A50932  38.160  35.707   6.527
 3884POPC   C3A50933  37.860  35.566   6.797
 3884POPC   C4A50934  37.945  35.302   7.131
 3884POPC   C1B50935  37.936  34.939   6.255
 3884POPC   C2B50936  37.811  35.001   6.664
 3884POPC   C3B50937  37.469  35.217   6.820
 3884POPC   C4B50938  37.455  35.100   7.209
 3885POPC   NC350939  27.365  19.288   4.932
 3885POPC   PO450940  27.850  19.142   5.358
 3885POPC   GL150941  27.646  19.155   5.756
 3885POPC   GL250942  27.983  19.236   5.858
 3885POPC   C1A50943  27.416  19.002   6.150
 3885POPC   D2A50944  27.596  18.849   6.569
 3885POPC   C3A50945  27.522  19.004   6.995
 3885POPC   C4A50946  27.512  18.687   7.314
 3885POPC   C1B50947  27.897  19.172   6.268
 3885POPC   C2B50948  28.040  19.302   6.655
 3885POPC   C3B50949  28.036  19.138   7.049
 3885POPC   C4B50950  27.897  19.170   7.473
 3886POPC   NC350951  22.054   7.768   5.115
 3886POPC   PO450952  22.477   8.261   5.273
 3886POPC   GL150953  22.377   7.998   5.702
 3886POPC   GL250954  22.026   7.929   5.851
 3886POPC   C1A50955  22.425   8.012   6.193
 3886POPC   D2A50956  22.120   7.946   6.549
 3886POPC   C3A50957  22.165   8.070   6.966
 3886POPC   C4A50958  22.393   8.229   7.287
 3886POPC   C1B50959  21.957   8.276   6.200
 3886POPC   C2B50960  21.992   8.447   6.650
 3886POPC   C3B50961  22.056   8.579   7.096
 3886POPC   C4B50962  21.930   8.416   7.513
 3887POPC   NC350963   2.247  42.677   5.476
 3887POPC   PO450964   1.915  43.223   5.474
 3887POPC   GL150965   2.002  42.982   5.829
 3887POPC   GL250966   1.731  42.782   5.820
 3887POPC   C1A50967   2.116  43.037   6.244
 3887POPC   D2A50968   2.119  43.308   6.599
 3887POPC   C3A50969   1.973  43.083   6.942
 3887POPC   C4A50970   2.140  42.924   7.310
 3887POPC   C1B50971   1.826  42.615   6.242
 3887POPC   C2B50972   1.975  42.492   6.655
 3887POPC   C3B50973   1.835  42.567   7.088
 3887POPC   C4B50974   1.688  42.788   7.481
 3888POPC   NC350975  37.334  24.018   5.365
 3888POPC   PO450976  36.857  23.564   5.154
 3888POPC   GL150977  36.940  23.712   5.605
 3888POPC   GL250978  36.986  24.064   5.725
 3888POPC   C1A50979  37.008  23.649   6.053
 3888POPC   D2A50980  36.837  23.857   6.407
 3888POPC   C3A50981  36.817  23.703   6.821
 3888POPC   C4A50982  37.005  23.668   7.221
 3888POPC   C1B50983  37.241  24.129   6.095
 3888POPC   C2B50984  37.163  24.244   6.520
 3888POPC   C3B50985  37.197  24.045   6.930
 3888POPC   C4B50986  37.153  24.099   7.435
 3889POPC   NC350987   9.826  37.789   5.269
 3889POPC   PO450988   9.942  38.237   5.700
 3889POPC   GL150989   9.918  37.899   5.934
 3889POPC   GL250990   9.654  37.806   5.761
 3889POPC   C1A50991   9.974  37.734   6.396
 3889POPC   D2A50992  10.199  37.413   6.666
 3889POPC   C3A50993   9.887  37.371   7.000
 3889POPC   C4A50994   9.728  37.788   7.100
 3889POPC   C1B50995   9.572  37.586   6.122
 3889POPC   C2B50996   9.456  37.683   6.555
 3889POPC   C3B50997   9.241  37.661   6.942
 3889POPC   C4B50998   9.334  37.632   7.385
 3890POPC   NC350999  34.827  39.816   5.289
 3890POPC   PO451000  34.438  40.267   5.587
 3890POPC   GL151001  34.586  39.982   5.889
 3890POPC   GL251002  34.598  39.651   5.794
 3890POPC   C1A51003  34.531  39.958   6.342
 3890POPC   D2A51004  34.466  39.994   6.773
 3890POPC   C3A51005  34.778  40.156   7.043
 3890POPC   C4A51006  34.651  40.192   7.462
 3890POPC   C1B51007  34.606  39.463   6.227
 3890POPC   C2B51008  34.689  39.550   6.675
 3890POPC   C3B51009  34.860  39.626   7.106
 3890POPC   C4B51010  34.723  39.671   7.590
 3891POPC   NC351011  32.893  42.522   5.384
 3891POPC   PO451012  33.388  42.239   5.607
 3891POPC   GL151013  33.103  42.143   5.925
 3891POPC   GL251014  32.827  42.319   5.863
 3891POPC   C1A51015  33.192  42.137   6.342
 3891POPC   D2A51016  33.380  41.967   6.717
 3891POPC   C3A51017  33.250  42.239   7.069
 3891POPC   C4A51018  33.380  42.480   7.439
 3891POPC   C1B51019  32.725  42.465   6.270
 3891POPC   C2B51020  32.524  42.407   6.654
 3891POPC   C3B51021  32.644  42.429   7.095
 3891POPC   C4B51022  32.541  42.502   7.550
 3892POPC   NC351023  32.714  22.090   5.240
 3892POPC   PO451024  33.281  22.352   5.234
 3892POPC   GL151025  33.115  22.133   5.580
 3892POPC   GL251026  33.340  22.284   5.815
 3892POPC   C1A51027  32.845  22.187   5.992
 3892POPC   D2A51028  32.725  22.127   6.464
 3892POPC   C3A51029  32.931  22.333   6.844
 3892POPC   C4A51030  32.861  22.162   7.261
 3892POPC   C1B51031  33.288  22.187   6.263
 3892POPC   C2B51032  33.221  21.963   6.626
 3892POPC   C3B51033  33.252  21.894   7.050
 3892POPC   C4B51034  33.332  22.152   7.416
 3893POPC   NC351035  11.110  33.129   5.451
 3893POPC   PO451036  11.383  32.529   5.255
 3893POPC   GL151037  11.425  32.771   5.730
 3893POPC   GL251038  11.478  33.140   5.809
 3893POPC   C1A51039  11.179  32.899   6.178
 3893POPC   D2A51040  11.178  33.188   6.561
 3893POPC   C3A51041  11.146  32.979   6.973
 3893POPC   C4A51042  11.324  32.942   7.401
 3893POPC   C1B51043  11.683  32.965   6.177
 3893POPC   C2B51044  11.674  33.014   6.635
 3893POPC   C3B51045  11.624  33.188   7.050
 3893POPC   C4B51046  11.727  33.217   7.511
 3894POPC   NC351047  41.906  28.699   5.068
 3894POPC   PO451048  42.474  29.103   5.325
 3894POPC   GL151049  42.331  29.170   5.773
 3894POPC   GL251050  42.111  28.884   5.887
 3894POPC   C1A51051  42.504  29.132   6.212
 3894POPC   D2A51052  42.300  29.126   6.639
 3894POPC   C3A51053  42.617  29.190   6.970
 3894POPC   C4A51054  42.784  29.401   7.309
 3894POPC   C1B51055  42.004  28.673   6.301
 3894POPC   C2B51056  42.219  28.611   6.715
 3894POPC   C3B51057  42.286  28.789   7.145
 3894POPC   C4B51058  42.202  28.729   7.611
 3895POPC   NC351059  27.211  37.069   5.268
 3895POPC   PO451060  27.758  36.682   5.419
 3895POPC   GL151061  27.530  36.856   5.743
 3895POPC   GL251062  27.813  37.024   5.892
 3895POPC   C1A51063  27.332  37.077   6.113
 3895POPC   D2A51064  27.528  37.147   6.535
 3895POPC   C3A51065  27.328  37.038   6.945
 3895POPC   C4A51066  27.301  37.158   7.387
 3895POPC   C1B51067  27.650  36.677   6.195
 3895POPC   C2B51068  27.475  36.631   6.602
 3895POPC   C3B51069  27.687  36.656   6.985
 3895POPC   C4B51070  27.637  36.790   7.399
 3896POPC   NC351071   5.325  38.938   5.285
 3896POPC   PO451072   4.976  38.328   5.326
 3896POPC   GL151073   4.902  38.208   5.782
 3896POPC   GL251074   5.263  38.188   5.883
 3896POPC   C1A51075   4.796  38.356   6.253
 3896POPC   D2A51076   4.717  38.697   6.625
 3896POPC   C3A51077   4.921  38.679   7.062
 3896POPC   C4A51078   4.881  38.321   7.387
 3896POPC   C1B51079   5.300  38.474   6.258
 3896POPC   C2B51080   5.158  38.424   6.693
 3896POPC   C3B51081   5.342  38.346   7.118
 3896POPC   C4B51082   5.348  37.998   7.421
 3897POPC   NC351083  41.473  32.000   5.357
 3897POPC   PO451084  41.634  32.564   5.486
 3897POPC   GL151085  41.380  32.370   5.835
 3897POPC   GL251086  41.392  32.007   5.861
 3897POPC   C1A51087  41.450  32.408   6.302
 3897POPC   D2A51088  41.544  32.598   6.713
 3897POPC   C3A51089  41.658  32.370   7.088
 3897POPC   C4A51090  41.832  32.398   7.519
 3897POPC   C1B51091  41.194  31.947   6.261
 3897POPC   C2B51092  41.247  32.109   6.697
 3897POPC   C3B51093  41.398  31.899   7.059
 3897POPC   C4B51094  41.489  32.045   7.452
 3898POPC   NC351095  30.206  30.734   5.323
 3898POPC   PO451096  29.731  30.349   5.683
 3898POPC   GL151097  29.788  30.552   6.063
 3898POPC   GL251098  29.966  30.895   5.946
 3898POPC   C1A51099  29.591  30.683   6.393
 3898POPC   D2A51100  29.745  31.007   6.599
 3898POPC   C3A51101  29.996  30.905   6.942
 3898POPC   C4A51102  30.081  30.862   7.382
 3898POPC   C1B51103  30.188  30.916   6.329
 3898POPC   C2B51104  30.333  30.636   6.635
 3898POPC   C3B51105  30.395  30.563   7.062
 3898POPC   C4B51106  30.387  30.483   7.493
 3899POPC   NC351107   1.096  25.244   5.408
 3899POPC   PO451108   1.748  24.936   5.393
 3899POPC   GL151109   1.405  25.057   5.770
 3899POPC   GL251110   1.022  25.036   5.862
 3899POPC   C1A51111   1.292  25.381   6.113
 3899POPC   D2A51112   0.979  25.462   6.470
 3899POPC   C3A51113   1.171  25.658   6.848
 3899POPC   C4A51114   1.353  25.436   7.183
 3899POPC   C1B51115   1.150  24.801   6.197
 3899POPC   C2B51116   1.309  25.053   6.512
 3899POPC   C3B51117   1.465  25.027   6.882
 3899POPC   C4B51118   1.228  24.951   7.259
 3900POPC   NC351119  40.330   4.597   5.441
 3900POPC   PO451120  39.837   4.124   5.542
 3900POPC   GL151121  40.113   4.171   5.861
 3900POPC   GL251122  40.449   4.076   5.699
 3900POPC   C1A51123  39.862   4.300   6.241
 3900POPC   D2A51124  39.722   4.069   6.606
 3900POPC   C3A51125  39.749   4.341   6.930
 3900POPC   C4A51126  40.010   4.542   7.197
 3900POPC   C1B51127  40.556   4.122   6.122
 3900POPC   C2B51128  40.329   4.220   6.472
 3900POPC   C3B51129  40.230   4.202   6.885
 3900POPC   C4B51130  40.471   3.914   7.086
 3901POPC   NC351131  13.230  19.398   5.352
 3901POPC   PO451132  12.700  18.883   5.368
 3901POPC   GL151133  12.667  19.104   5.741
 3901POPC   GL251134  13.030  19.134   5.729
 3901POPC   C1A51135  12.601  19.122   6.202
 3901POPC   D2A51136  12.526  18.838   6.573
 3901POPC   C3A51137  12.510  19.008   6.994
 3901POPC   C4A51138  12.661  19.386   7.173
 3901POPC   C1B51139  13.091  18.997   6.114
 3901POPC   C2B51140  13.011  19.205   6.513
 3901POPC   C3B51141  13.091  19.028   6.913
 3901POPC   C4B51142  12.993  19.026   7.313
 3902POPC   NC351143  35.810   5.215   5.362
 3902POPC   PO451144  35.152   5.262   5.460
 3902POPC   GL151145  35.476   5.159   5.787
 3902POPC   GL251146  35.669   5.467   5.805
 3902POPC   C1A51147  35.422   4.952   6.218
 3902POPC   D2A51148  35.417   4.696   6.624
 3902POPC   C3A51149  35.574   4.860   7.036
 3902POPC   C4A51150  35.349   4.850   7.458
 3902POPC   C1B51151  35.563   5.456   6.261
 3902POPC   C2B51152  35.414   5.226   6.657
 3902POPC   C3B51153  35.284   5.265   7.105
 3902POPC   C4B51154  35.465   5.341   7.524
 3903POPC   NC351155  13.242  22.479   5.522
 3903POPC   PO451156  12.821  21.859   5.431
 3903POPC   GL151157  12.852  22.222   5.734
 3903POPC   GL251158  12.502  22.292   5.812
 3903POPC   C1A51159  12.993  22.511   6.124
 3903POPC   D2A51160  13.151  22.679   6.542
 3903POPC   C3A51161  13.148  22.333   6.849
 3903POPC   C4A51162  12.959  22.165   7.228
 3903POPC   C1B51163  12.713  22.049   6.179
 3903POPC   C2B51164  12.675  21.960   6.618
 3903POPC   C3B51165  12.481  22.123   6.991
 3903POPC   C4B51166  12.465  22.100   7.467
 3904POPC   NC351167  10.030  36.365   5.298
 3904POPC   PO451168   9.934  35.701   5.140
 3904POPC   GL151169   9.965  35.945   5.608
 3904POPC   GL251170   9.970  36.308   5.789
 3904POPC   C1A51171   9.869  35.894   6.074
 3904POPC   D2A51172   9.531  35.916   6.399
 3904POPC   C3A51173   9.656  36.061   6.824
 3904POPC   C4A51174   9.720  35.804   7.200
 3904POPC   C1B51175  10.164  36.390   6.208
 3904POPC   C2B51176  10.125  36.368   6.677
 3904POPC   C3B51177   9.980  36.387   7.118
 3904POPC   C4B51178   9.573  36.564   7.304
 3905POPC   NC351179  24.918  21.881   5.434
 3905POPC   PO451180  25.626  21.872   5.478
 3905POPC   GL151181  25.359  22.138   5.785
 3905POPC   GL251182  25.485  22.494   5.863
 3905POPC   C1A51183  25.156  22.258   6.195
 3905POPC   D2A51184  25.202  22.348   6.654
 3905POPC   C3A51185  24.869  22.234   6.988
 3905POPC   C4A51186  24.896  22.295   7.491
 3905POPC   C1B51187  25.789  22.497   6.192
 3905POPC   C2B51188  25.783  22.333   6.597
 3905POPC   C3B51189  25.623  22.374   6.977
 3905POPC   C4B51190  25.317  22.141   7.133
 3906POPC   NC351191   9.598  27.856   5.271
 3906POPC   PO451192   9.701  28.494   5.415
 3906POPC   GL151193   9.896  28.311   5.776
 3906POPC   GL251194   9.615  28.104   5.808
 3906POPC   C1A51195   9.870  28.436   6.212
 3906POPC   D2A51196  10.022  28.324   6.621
 3906POPC   C3A51197   9.937  28.600   6.967
 3906POPC   C4A51198   9.946  28.410   7.356
 3906POPC   C1B51199   9.421  28.157   6.225
 3906POPC   C2B51200   9.522  28.130   6.642
 3906POPC   C3B51201   9.623  28.178   7.048
 3906POPC   C4B51202   9.500  28.197   7.487
 3907POPC   NC351203  10.654  19.324   5.470
 3907POPC   PO451204  10.426  18.725   5.601
 3907POPC   GL151205  10.428  19.110   5.873
 3907POPC   GL251206  10.784  19.281   5.946
 3907POPC   C1A51207  10.349  19.257   6.287
 3907POPC   D2A51208  10.595  19.321   6.669
 3907POPC   C3A51209  10.448  19.062   7.019
 3907POPC   C4A51210  10.047  18.907   7.192
 3907POPC   C1B51211  10.819  18.896   6.152
 3907POPC   C2B51212  10.730  18.801   6.563
 3907POPC   C3B51213  10.941  18.895   6.935
 3907POPC   C4B51214  10.756  18.680   7.255
 3908POPC   NC351215   8.440  10.962   5.530
 3908POPC   PO451216   9.018  11.143   5.315
 3908POPC   GL151217   8.926  11.341   5.715
 3908POPC   GL251218   8.611  11.469   5.709
 3908POPC   C1A51219   8.884  11.178   6.145
 3908POPC   D2A51220   8.736  10.884   6.462
 3908POPC   C3A51221   8.982  10.975   6.836
 3908POPC   C4A51222   8.847  10.923   7.231
 3908POPC   C1B51223   8.748  11.672   6.097
 3908POPC   C2B51224   8.904  11.652   6.512
 3908POPC   C3B51225   8.796  11.544   6.929
 3908POPC   C4B51226   8.805  11.641   7.355
 3909POPC   NC351227  43.544   3.269   5.269
 3909POPC   PO451228  43.777   2.646   5.415
 3909POPC   GL151229  43.957   2.797   5.776
 3909POPC   GL251230  43.834   3.116   5.720
 3909POPC   C1A51231  44.024   2.663   6.195
 3909POPC   D2A51232  44.066   2.438   6.570
 3909POPC   C3A51233  43.985   2.683   6.919
 3909POPC   C4A51234  44.140   2.876   7.270
 3909POPC   C1B51235  43.987   3.156   6.158
 3909POPC   C2B51236  44.111   3.058   6.573
 3909POPC   C3B51237  43.877   3.200   6.926
 3909POPC   C4B51238  43.636   3.194   7.304
 3910POPC   NC351239  14.652  35.501   5.632
 3910POPC   PO451240  15.153  35.197   5.305
 3910POPC   GL151241  15.111  35.332   5.778
 3910POPC   GL251242  15.418  35.374   5.980
 3910POPC   C1A51243  14.891  35.155   6.174
 3910POPC   D2A51244  15.057  35.161   6.610
 3910POPC   C3A51245  14.915  35.297   7.018
 3910POPC   C4A51246  14.917  35.137   7.421
 3910POPC   C1B51247  15.113  35.597   6.256
 3910POPC   C2B51248  15.077  35.683   6.679
 3910POPC   C3B51249  15.360  35.545   6.983
 3910POPC   C4B51250  15.398  35.247   7.303
 3911POPC   NC351251  41.507  27.207   5.045
 3911POPC   PO451252  41.664  27.700   5.500
 3911POPC   GL151253  41.789  27.625   5.873
 3911POPC   GL251254  41.420  27.619   5.958
 3911POPC   C1A51255  41.765  27.851   6.243
 3911POPC   D2A51256  41.430  27.768   6.521
 3911POPC   C3A51257  41.624  27.777   6.900
 3911POPC   C4A51258  41.420  27.665   7.256
 3911POPC   C1B51259  41.147  27.399   6.260
 3911POPC   C2B51260  41.234  27.195   6.666
 3911POPC   C3B51261  41.186  27.210   7.122
 3911POPC   C4B51262  41.120  27.387   7.550
 3912POPC   NC351263  41.981  17.466   5.074
 3912POPC   PO451264  41.421  17.299   5.442
 3912POPC   GL151265  41.404  17.483   5.883
 3912POPC   GL251266  41.288  17.855   5.899
 3912POPC   C1A51267  41.602  17.609   6.284
 3912POPC   D2A51268  41.879  17.927   6.515
 3912POPC   C3A51269  41.872  17.849   6.958
 3912POPC   C4A51270  41.868  17.405   7.129
 3912POPC   C1B51271  41.078  17.664   6.248
 3912POPC   C2B51272  41.210  17.440   6.643
 3912POPC   C3B51273  41.341  17.274   7.083
 3912POPC   C4B51274  41.252  17.185   7.522
 3913POPC   NC351275   6.411  30.451   5.455
 3913POPC   PO451276   6.420  29.792   5.442
 3913POPC   GL151277   6.484  29.894   5.823
 3913POPC   GL251278   6.640  30.199   5.834
 3913POPC   C1A51279   6.272  30.080   6.179
 3913POPC   D2A51280   6.457  29.983   6.575
 3913POPC   C3A51281   6.344  29.632   6.849
 3913POPC   C4A51282   6.493  29.713   7.293
 3913POPC   C1B51283   6.846  30.011   6.179
 3913POPC   C2B51284   6.964  29.823   6.535
 3913POPC   C3B51285   6.829  29.863   6.931
 3913POPC   C4B51286   6.992  29.800   7.318
 3914POPC   NC351287   6.762  44.355   5.485
 3914POPC   PO451288   6.921  44.976   5.457
 3914POPC   GL151289   6.587  44.907   5.822
 3914POPC   GL251290   6.427  44.583   5.797
 3914POPC   C1A51291   6.513  44.905   6.296
 3914POPC   D2A51292   6.669  44.636   6.655
 3914POPC   C3A51293   6.762  44.742   7.095
 3914POPC   C4A51294   6.574   0.085   7.281
 3914POPC   C1B51295   6.173  44.440   6.131
 3914POPC   C2B51296   6.115  44.615   6.546
 3914POPC   C3B51297   6.250  44.577   6.960
 3914POPC   C4B51298   6.361  44.508   7.378
 3915POPC   NC351299  12.226   2.231   5.495
 3915POPC   PO451300  11.613   2.074   5.203
 3915POPC   GL151301  11.793   2.010   5.688
 3915POPC   GL251302  12.057   1.831   5.767
 3915POPC   C1A51303  11.903   2.115   6.170
 3915POPC   D2A51304  11.923   1.917   6.598
 3915POPC   C3A51305  11.987   2.148   6.983
 3915POPC   C4A51306  12.254   2.044   7.325
 3915POPC   C1B51307  12.288   1.740   6.166
 3915POPC   C2B51308  12.222   1.503   6.546
 3915POPC   C3B51309  12.287   1.678   6.944
 3915POPC   C4B51310  12.544   1.570   7.326
 3916POPC   NC351311  24.696  21.056   5.445
 3916POPC   PO451312  24.236  20.464   5.485
 3916POPC   GL151313  24.327  20.607   5.893
 3916POPC   GL251314  24.621  20.784   5.883
 3916POPC   C1A51315  24.491  20.471   6.300
 3916POPC   D2A51316  24.281  20.401   6.696
 3916POPC   C3A51317  24.512  20.482   7.077
 3916POPC   C4A51318  24.750  20.319   7.412
 3916POPC   C1B51319  24.434  20.992   6.256
 3916POPC   C2B51320  24.578  21.135   6.631
 3916POPC   C3B51321  24.717  20.966   6.985
 3916POPC   C4B51322  24.660  20.842   7.395
 3917POPC   NC351323   8.627  39.662   5.260
 3917POPC   PO451324   8.888  40.155   5.441
 3917POPC   GL151325   8.914  39.870   5.756
 3917POPC   GL251326   8.760  39.549   5.725
 3917POPC   C1A51327   8.920  40.047   6.170
 3917POPC   D2A51328   9.205  40.070   6.519
 3917POPC   C3A51329   9.080  39.924   6.931
 3917POPC   C4A51330   9.279  40.033   7.341
 3917POPC   C1B51331   8.638  39.629   6.135
 3917POPC   C2B51332   8.589  39.888   6.534
 3917POPC   C3B51333   8.565  39.769   6.969
 3917POPC   C4B51334   8.827  39.571   7.244
 3918POPC   NC351335  38.101  17.694   5.599
 3918POPC   PO451336  37.737  17.148   5.342
 3918POPC   GL151337  37.622  17.423   5.687
 3918POPC   GL251338  37.376  17.665   5.596
 3918POPC   C1A51339  37.711  17.416   6.124
 3918POPC   D2A51340  37.655  17.237   6.535
 3918POPC   C3A51341  37.904  17.451   6.856
 3918POPC   C4A51342  37.821  17.325   7.254
 3918POPC   C1B51343  37.293  17.686   6.038
 3918POPC   C2B51344  37.484  17.766   6.445
 3918POPC   C3B51345  37.416  17.601   6.829
 3918POPC   C4B51346  37.501  17.714   7.197
 3919POPC   NC351347  27.904  18.721   5.554
 3919POPC   PO451348  27.462  18.182   5.442
 3919POPC   GL151349  27.319  17.955   5.815
 3919POPC   GL251350  27.656  17.977   5.909
 3919POPC   C1A51351  27.329  18.077   6.288
 3919POPC   D2A51352  27.225  18.426   6.568
 3919POPC   C3A51353  27.419  18.331   6.952
 3919POPC   C4A51354  27.417  17.943   7.169
 3919POPC   C1B51355  27.966  17.829   6.186
 3919POPC   C2B51356  28.132  17.992   6.567
 3919POPC   C3B51357  27.915  18.005   6.955
 3919POPC   C4B51358  27.826  18.255   7.295
 3920POPC   NC351359  41.760   3.599   5.088
 3920POPC   PO451360  41.230   3.370   5.492
 3920POPC   GL151361  41.410   3.611   5.796
 3920POPC   GL251362  41.768   3.655   5.738
 3920POPC   C1A51363  41.485   3.528   6.221
 3920POPC   D2A51364  41.222   3.668   6.561
 3920POPC   C3A51365  41.434   3.591   6.926
 3920POPC   C4A51366  41.273   3.626   7.337
 3920POPC   C1B51367  41.900   3.874   6.119
 3920POPC   C2B51368  41.917   3.715   6.544
 3920POPC   C3B51369  41.914   3.790   6.999
 3920POPC   C4B51370  41.815   3.378   7.217
 3921POPC   NC351371  14.104  42.897   5.306
 3921POPC   PO451372  13.531  43.199   5.209
 3921POPC   GL151373  13.704  43.145   5.651
 3921POPC   GL251374  13.898  42.854   5.775
 3921POPC   C1A51375  13.687  43.172   6.114
 3921POPC   D2A51376  13.493  43.046   6.496
 3921POPC   C3A51377  13.506  43.312   6.832
 3921POPC   C4A51378  13.575  43.137   7.215
 3921POPC   C1B51379  13.918  42.679   6.199
 3921POPC   C2B51380  13.943  42.840   6.643
 3921POPC   C3B51381  14.017  42.860   7.095
 3921POPC   C4B51382  13.813  42.696   7.424
 3922POPC   NC351383  43.019   0.926   5.371
 3922POPC   PO451384  43.416   0.455   5.532
 3922POPC   GL151385  43.041   0.499   5.746
 3922POPC   GL251386  42.919   0.802   5.833
 3922POPC   C1A51387  42.928   0.388   6.157
 3922POPC   D2A51388  43.198   0.183   6.485
 3922POPC   C3A51389  43.171   0.359   6.909
 3922POPC   C4A51390  43.016   0.284   7.342
 3922POPC   C1B51391  43.118   0.864   6.191
 3922POPC   C2B51392  42.978   0.712   6.563
 3922POPC   C3B51393  42.847   0.775   6.969
 3922POPC   C4B51394  43.206   0.800   7.208
 3923POPC   NC351395  38.139   0.808   5.465
 3923POPC   PO451396  38.811   0.427   5.469
 3923POPC   GL151397  38.665   0.567   5.843
 3923POPC   GL251398  38.304   0.577   5.910
 3923POPC   C1A51399  38.684   0.518   6.273
 3923POPC   D2A51400  38.388   0.610   6.592
 3923POPC   C3A51401  38.531   0.450   7.011
 3923POPC   C4A51402  38.548   0.340   7.451
 3923POPC   C1B51403  37.936   0.803   6.140
 3923POPC   C2B51404  37.844   0.845   6.589
 3923POPC   C3B51405  38.034   0.688   6.961
 3923POPC   C4B51406  38.201   0.697   7.342
 3924POPC   NC351407  40.856  37.726   5.378
 3924POPC   PO451408  40.348  37.876   5.318
 3924POPC   GL151409  40.266  37.802   5.766
 3924POPC   GL251410  40.625  37.784   5.844
 3924POPC   C1A51411  40.328  37.833   6.261
 3924POPC   D2A51412  40.569  37.754   6.671
 3924POPC   C3A51413  40.373  37.798   7.098
 3924POPC   C4A51414  40.531  38.058   7.459
 3924POPC   C1B51415  40.906  37.888   6.217
 3924POPC   C2B51416  41.105  37.712   6.605
 3924POPC   C3B51417  40.951  37.466   6.934
 3924POPC   C4B51418  40.805  37.598   7.311
 3925POPC   NC351419  11.172  13.677   5.129
 3925POPC   PO451420  10.991  13.226   5.589
 3925POPC   GL151421  11.170  13.386   5.894
 3925POPC   GL251422  11.210  13.675   5.705
 3925POPC   C1A51423  11.127  13.231   6.296
 3925POPC   D2A51424  10.941  13.261   6.693
 3925POPC   C3A51425  11.255  13.324   6.967
 3925POPC   C4A51426  11.363  13.642   7.225
 3925POPC   C1B51427  11.293  13.790   6.153
 3925POPC   C2B51428  11.296  13.644   6.557
 3925POPC   C3B51429  11.268  13.951   6.841
 3925POPC   C4B51430  11.341  14.147   7.215
 3926POPC   NC351431  22.211  20.136   5.266
 3926POPC   PO451432  21.911  19.541   5.538
 3926POPC   GL151433  22.076  19.887   5.729
 3926POPC   GL251434  22.427  19.928   5.746
 3926POPC   C1A51435  22.081  19.944   6.170
 3926POPC   D2A51436  21.898  19.686   6.504
 3926POPC   C3A51437  21.891  19.850   6.910
 3926POPC   C4A51438  21.803  19.593   7.252
 3926POPC   C1B51439  22.564  19.818   6.140
 3926POPC   C2B51440  22.418  19.731   6.551
 3926POPC   C3B51441  22.401  19.983   6.903
 3926POPC   C4B51442  22.223  19.948   7.293
 3927POPC   NC351443  11.447   2.344   5.553
 3927POPC   PO451444  11.003   2.814   5.306
 3927POPC   GL151445  11.132   2.730   5.745
 3927POPC   GL251446  11.097   2.400   5.929
 3927POPC   C1A51447  11.230   2.840   6.175
 3927POPC   D2A51448  11.203   2.655   6.580
 3927POPC   C3A51449  11.295   2.915   6.903
 3927POPC   C4A51450  11.006   3.020   7.191
 3927POPC   C1B51451  11.451   2.367   6.226
 3927POPC   C2B51452  11.600   2.314   6.651
 3927POPC   C3B51453  11.647   2.563   7.030
 3927POPC   C4B51454  11.268   2.581   7.295
 3928POPC   NC351455  37.586  14.258   5.397
 3928POPC   PO451456  37.405  14.776   5.518
 3928POPC   GL151457  37.601  14.559   5.830
 3928POPC   GL251458  37.889  14.299   5.804
 3928POPC   C1A51459  37.446  14.671   6.203
 3928POPC   D2A51460  37.627  14.688   6.590
 3928POPC   C3A51461  37.513  14.505   6.956
 3928POPC   C4A51462  37.911  14.464   7.149
 3928POPC   C1B51463  37.817  14.306   6.253
 3928POPC   C2B51464  37.966  14.228   6.667
 3928POPC   C3B51465  37.951  13.956   7.010
 3928POPC   C4B51466  37.592  14.066   7.217
 3929POPC   NC351467  22.874  37.637   5.417
 3929POPC   PO451468  22.623  37.180   5.843
 3929POPC   GL151469  22.946  37.489   5.890
 3929POPC   GL251470  22.784  37.815   5.878
 3929POPC   C1A51471  23.174  37.666   6.211
 3929POPC   D2A51472  22.952  37.605   6.584
 3929POPC   C3A51473  23.173  37.689   6.950
 3929POPC   C4A51474  23.306  37.610   7.370
 3929POPC   C1B51475  22.556  38.035   6.178
 3929POPC   C2B51476  22.690  38.064   6.577
 3929POPC   C3B51477  22.671  37.871   6.963
 3929POPC   C4B51478  22.798  37.639   7.296
 3930POPC   NC351479  14.635  42.716   5.483
 3930POPC   PO451480  14.204  43.299   5.529
 3930POPC   GL151481  14.428  43.305   5.848
 3930POPC   GL251482  14.389  42.983   5.891
 3930POPC   C1A51483  14.604  43.370   6.225
 3930POPC   D2A51484  14.435  43.537   6.570
 3930POPC   C3A51485  14.666  43.436   6.911
 3930POPC   C4A51486  14.480  43.140   7.184
 3930POPC   C1B51487  14.192  43.104   6.274
 3930POPC   C2B51488  14.402  43.039   6.676
 3930POPC   C3B51489  14.464  42.670   6.938
 3930POPC   C4B51490  14.744  42.637   7.318
 3931POPC   NC351491  31.190   4.895   5.431
 3931POPC   PO451492  31.807   5.174   5.500
 3931POPC   GL151493  31.550   5.058   5.822
 3931POPC   GL251494  31.556   4.701   5.815
 3931POPC   C1A51495  31.562   5.131   6.259
 3931POPC   D2A51496  31.666   4.887   6.607
 3931POPC   C3A51497  31.695   5.109   6.998
 3931POPC   C4A51498  31.649   4.849   7.368
 3931POPC   C1B51499  31.242   4.738   6.164
 3931POPC   C2B51500  31.198   4.601   6.597
 3931POPC   C3B51501  31.300   4.753   7.008
 3931POPC   C4B51502  31.123   4.861   7.427
 3932POPC   NC351503  20.971  24.325   5.537
 3932POPC   PO451504  21.632  24.406   5.592
 3932POPC   GL151505  21.393  24.350   5.882
 3932POPC   GL251506  21.210  24.678   5.807
 3932POPC   C1A51507  21.516  24.222   6.300
 3932POPC   D2A51508  21.776  24.432   6.607
 3932POPC   C3A51509  21.516  24.468   6.915
 3932POPC   C4A51510  21.330  24.429   7.300
 3932POPC   C1B51511  21.016  24.469   6.170
 3932POPC   C2B51512  21.039  24.218   6.520
 3932POPC   C3B51513  20.998  24.333   6.916
 3932POPC   C4B51514  20.862  24.256   7.299
 3933POPC   NC351515  24.745  41.810   5.331
 3933POPC   PO451516  25.286  41.588   5.472
 3933POPC   GL151517  25.154  41.489   5.909
 3933POPC   GL251518  25.052  41.807   5.933
 3933POPC   C1A51519  24.985  41.191   6.241
 3933POPC   D2A51520  24.818  41.247   6.677
 3933POPC   C3A51521  25.163  41.458   6.916
 3933POPC   C4A51522  25.554  41.348   7.172
 3933POPC   C1B51523  24.798  41.675   6.269
 3933POPC   C2B51524  24.703  41.755   6.672
 3933POPC   C3B51525  24.833  41.809   7.100
 3933POPC   C4B51526  25.131  42.053   7.374
 3934POPC   NC351527  20.836  21.686   5.354
 3934POPC   PO451528  20.572  22.267   5.545
 3934POPC   GL151529  20.665  22.340   5.956
 3934POPC   GL251530  20.808  22.003   5.959
 3934POPC   C1A51531  20.859  22.565   6.305
 3934POPC   D2A51532  21.075  22.563   6.693
 3934POPC   C3A51533  20.906  22.262   6.933
 3934POPC   C4A51534  20.669  22.209   7.274
 3934POPC   C1B51535  20.352  21.934   6.086
 3934POPC   C2B51536  20.220  21.811   6.495
 3934POPC   C3B51537  20.195  21.744   6.935
 3934POPC   C4B51538  20.418  21.718   7.344
 3935POPC   NC351539   9.000  16.092   5.388
 3935POPC   PO451540   9.057  15.530   5.695
 3935POPC   GL151541   9.041  15.914   5.886
 3935POPC   GL251542   8.713  16.025   5.824
 3935POPC   C1A51543   9.145  16.026   6.335
 3935POPC   D2A51544   9.232  15.909   6.729
 3935POPC   C3A51545   9.135  16.056   7.103
 3935POPC   C4A51546   9.141  15.752   7.415
 3935POPC   C1B51547   8.672  15.872   6.235
 3935POPC   C2B51548   8.722  15.937   6.653
 3935POPC   C3B51549   8.750  15.725   7.034
 3935POPC   C4B51550   8.688  15.999   7.370
 3936POPC   NC351551  42.139   1.701   5.389
 3936POPC   PO451552  42.600   2.146   5.189
 3936POPC   GL151553  42.384   2.132   5.619
 3936POPC   GL251554  42.249   1.850   5.851
 3936POPC   C1A51555  42.474   2.247   6.070
 3936POPC   D2A51556  42.407   2.313   6.534
 3936POPC   C3A51557  42.579   2.079   6.883
 3936POPC   C4A51558  42.478   2.199   7.324
 3936POPC   C1B51559  42.585   1.749   6.156
 3936POPC   C2B51560  42.668   1.663   6.555
 3936POPC   C3B51561  42.322   1.566   6.802
 3936POPC   C4B51562  42.256   1.762   7.150
 3937POPC   NC351563  21.940  14.681   5.685
 3937POPC   PO451564  22.197  14.128   5.467
 3937POPC   GL151565  22.353  14.415   5.807
 3937POPC   GL251566  22.086  14.298   6.014
 3937POPC   C1A51567  22.402  14.621   6.233
 3937POPC   D2A51568  22.346  14.326   6.554
 3937POPC   C3A51569  22.524  14.338   6.966
 3937POPC   C4A51570  22.402  14.256   7.420
 3937POPC   C1B51571  21.882  14.580   6.314
 3937POPC   C2B51572  22.051  14.696   6.682
 3937POPC   C3B51573  22.036  14.443   7.084
 3937POPC   C4B51574  21.925  14.647   7.517
 3938POPC   NC351575  28.353  33.319   5.499
 3938POPC   PO451576  28.653  33.980   5.454
 3938POPC   GL151577  28.389  33.757   5.781
 3938POPC   GL251578  28.667  33.539   5.837
 3938POPC   C1A51579  28.291  33.643   6.241
 3938POPC   D2A51580  28.069  33.429   6.616
 3938POPC   C3A51581  28.187  33.571   7.046
 3938POPC   C4A51582  28.205  33.941   7.284
 3938POPC   C1B51583  28.732  33.906   6.128
 3938POPC   C2B51584  28.856  33.840   6.519
 3938POPC   C3B51585  28.640  33.859   6.920
 3938POPC   C4B51586  28.712  34.028   7.360
 3939POPC   NC351587  29.299   4.482   5.466
 3939POPC   PO451588  28.743   4.168   5.447
 3939POPC   GL151589  28.971   4.168   5.817
 3939POPC   GL251590  29.295   4.028   5.783
 3939POPC   C1A51591  28.917   4.254   6.243
 3939POPC   D2A51592  29.119   4.065   6.598
 3939POPC   C3A51593  28.943   4.293   6.921
 3939POPC   C4A51594  28.813   4.253   7.340
 3939POPC   C1B51595  29.417   4.224   6.192
 3939POPC   C2B51596  29.639   4.289   6.564
 3939POPC   C3B51597  29.520   4.137   6.941
 3939POPC   C4B51598  29.315   4.316   7.263
 3940POPC   NC351599   5.762   9.280   5.467
 3940POPC   PO451600   5.800   8.638   5.281
 3940POPC   GL151601   5.964   8.847   5.669
 3940POPC   GL251602   6.052   8.604   5.856
 3940POPC   C1A51603   5.804   8.975   6.125
 3940POPC   D2A51604   5.653   8.713   6.495
 3940POPC   C3A51605   5.675   8.879   6.933
 3940POPC   C4A51606   5.524   8.623   7.268
 3940POPC   C1B51607   6.264   8.792   6.206
 3940POPC   C2B51608   6.101   8.966   6.567
 3940POPC   C3B51609   6.176   8.881   6.967
 3940POPC   C4B51610   6.025   8.649   7.263
 3941POPC   NC351611  21.640   3.162   5.440
 3941POPC   PO451612  21.851   3.846   5.337
 3941POPC   GL151613  21.569   3.799   5.685
 3941POPC   GL251614  21.496   3.463   5.822
 3941POPC   C1A51615  21.371   3.857   6.123
 3941POPC   D2A51616  21.189   3.524   6.416
 3941POPC   C3A51617  21.300   3.565   6.870
 3941POPC   C4A51618  21.317   3.779   7.276
 3941POPC   C1B51619  21.622   3.264   6.189
 3941POPC   C2B51620  21.542   3.194   6.622
 3941POPC   C3B51621  21.562   3.089   7.024
 3941POPC   C4B51622  21.581   3.360   7.298
 3942POPC   NC351623  20.389   8.030   5.289
 3942POPC   PO451624  20.896   8.372   5.376
 3942POPC   GL151625  20.643   8.197   5.741
 3942POPC   GL251626  20.513   7.819   5.748
 3942POPC   C1A51627  20.603   8.407   6.176
 3942POPC   D2A51628  20.287   8.579   6.496
 3942POPC   C3A51629  20.408   8.484   6.915
 3942POPC   C4A51630  20.595   8.145   7.138
 3942POPC   C1B51631  20.462   7.918   6.189
 3942POPC   C2B51632  20.637   8.024   6.595
 3942POPC   C3B51633  20.843   7.767   6.919
 3942POPC   C4B51634  20.639   7.654   7.300
 3943POPC   NC351635   6.556  34.302   5.373
 3943POPC   PO451636   6.978  34.755   5.317
 3943POPC   GL151637   6.921  34.661   5.741
 3943POPC   GL251638   7.012  34.324   5.717
 3943POPC   C1A51639   6.597  34.765   6.100
 3943POPC   D2A51640   6.361  34.669   6.509
 3943POPC   C3A51641   6.637  34.752   6.867
 3943POPC   C4A51642   6.668  34.731   7.330
 3943POPC   C1B51643   6.890  34.353   6.167
 3943POPC   C2B51644   6.741  34.298   6.597
 3943POPC   C3B51645   6.710  34.286   7.048
 3943POPC   C4B51646   7.068  34.287   7.322
 3944POPC   NC351647  10.104  29.939   5.501
 3944POPC   PO451648   9.451  29.989   5.274
 3944POPC   GL151649   9.662  29.783   5.680
 3944POPC   GL251650   9.532  29.461   5.741
 3944POPC   C1A51651   9.932  29.855   6.126
 3944POPC   D2A51652  10.032  30.085   6.504
 3944POPC   C3A51653   9.846  30.108   6.897
 3944POPC   C4A51654   9.987  29.918   7.275
 3944POPC   C1B51655   9.534  29.549   6.162
 3944POPC   C2B51656   9.615  29.717   6.563
 3944POPC   C3B51657   9.734  29.597   6.962
 3944POPC   C4B51658   9.597  29.530   7.399
 3945POPC   NC351659  23.288  23.641   5.372
 3945POPC   PO451660  22.767  23.265   5.344
 3945POPC   GL151661  22.711  23.476   5.735
 3945POPC   GL251662  22.952  23.723   5.763
 3945POPC   C1A51663  22.686  23.543   6.180
 3945POPC   D2A51664  22.917  23.456   6.555
 3945POPC   C3A51665  22.712  23.517   6.979
 3945POPC   C4A51666  22.770  23.669   7.394
 3945POPC   C1B51667  23.164  23.738   6.171
 3945POPC   C2B51668  23.168  23.944   6.581
 3945POPC   C3B51669  23.083  23.885   7.019
 3945POPC   C4B51670  23.127  24.029   7.468
 3946POPC   NC351671   0.088  34.709   5.230
 3946POPC   PO451672   0.608  34.401   5.589
 3946POPC   GL151673   0.470  34.692   5.834
 3946POPC   GL251674   0.746  34.917   5.855
 3946POPC   C1A51675   0.398  34.515   6.244
 3946POPC   D2A51676   0.626  34.329   6.593
 3946POPC   C3A51677   0.386  34.465   6.942
 3946POPC   C4A51678   0.269  34.471   7.338
 3946POPC   C1B51679   0.561  34.987   6.239
 3946POPC   C2B51680   0.555  34.836   6.645
 3946POPC   C3B51681   0.369  34.953   7.068
 3946POPC   C4B51682   0.146  34.974   7.483
 3947POPC   NC351683  20.913  41.248   5.468
 3947POPC   PO451684  20.478  40.671   5.361
 3947POPC   GL151685  20.656  40.725   5.795
 3947POPC   GL251686  20.709  41.075   5.896
 3947POPC   C1A51687  20.737  40.703   6.262
 3947POPC   D2A51688  20.473  40.680   6.621
 3947POPC   C3A51689  20.663  40.807   7.032
 3947POPC   C4A51690  20.885  40.820   7.468
 3947POPC   C1B51691  20.417  41.109   6.233
 3947POPC   C2B51692  20.366  41.219   6.664
 3947POPC   C3B51693  20.375  41.230   7.104
 3947POPC   C4B51694  20.707  41.299   7.437
 3948POPC   NC351695  40.893  41.228   5.124
 3948POPC   PO451696  41.075  41.807   5.384
 3948POPC   GL151697  40.801  41.700   5.735
 3948POPC   GL251698  40.756  41.359   5.714
 3948POPC   C1A51699  40.663  41.857   6.150
 3948POPC   D2A51700  40.761  41.679   6.573
 3948POPC   C3A51701  41.046  41.404   6.817
 3948POPC   C4A51702  40.916  41.597   7.203
 3948POPC   C1B51703  40.521  41.363   6.109
 3948POPC   C2B51704  40.265  41.626   6.403
 3948POPC   C3B51705  40.251  41.509   6.819
 3948POPC   C4B51706  40.469  41.389   7.198
 3949POPC   NC351707  36.960  44.746   5.344
 3949POPC   PO451708  36.463  44.361   5.424
 3949POPC   GL151709  36.756  44.546   5.799
 3949POPC   GL251710  36.991  44.882   5.826
 3949POPC   C1A51711  36.830  44.665   6.246
 3949POPC   D2A51712  36.990  44.894   6.585
 3949POPC   C3A51713  36.840  44.634   6.908
 3949POPC   C4A51714  36.900  44.456   7.310
 3949POPC   C1B51715  37.278   0.083   6.161
 3949POPC   C2B51716  37.499   0.002   6.578
 3949POPC   C3B51717  37.349  44.758   6.966
 3949POPC   C4B51718  37.242  44.801   7.432
 3950POPC   NC351719  42.947  23.441   5.402
 3950POPC   PO451720  42.776  24.015   5.681
 3950POPC   GL151721  43.120  23.781   5.878
 3950POPC   GL251722  43.378  23.626   5.668
 3950POPC   C1A51723  43.114  23.583   6.302
 3950POPC   D2A51724  42.840  23.559   6.706
 3950POPC   C3A51725  43.029  23.617   7.117
 3950POPC   C4A51726  43.330  23.881   7.377
 3950POPC   C1B51727  43.586  23.627   6.105
 3950POPC   C2B51728  43.546  23.407   6.537
 3950POPC   C3B51729  43.448  23.392   6.984
 3950POPC   C4B51730  43.358  23.389   7.460
 3951POPC   NC351731   3.847  31.262   5.245
 3951POPC   PO451732   3.328  31.642   5.470
 3951POPC   GL151733   3.597  31.450   5.711
 3951POPC   GL251734   3.326  31.503   5.963
 3951POPC   C1A51735   3.761  31.279   6.077
 3951POPC   D2A51736   3.548  31.257   6.463
 3951POPC   C3A51737   3.812  31.211   6.825
 3951POPC   C4A51738   3.716  31.447   7.195
 3951POPC   C1B51739   3.084  31.235   6.218
 3951POPC   C2B51740   3.016  31.234   6.640
 3951POPC   C3B51741   3.277  31.382   6.949
 3951POPC   C4B51742   3.221  31.464   7.379
 3952POPC   NC351743  31.333  42.062   5.384
 3952POPC   PO451744  31.593  42.692   5.379
 3952POPC   GL151745  31.525  42.464   5.746
 3952POPC   GL251746  31.215  42.534   5.828
 3952POPC   C1A51747  31.594  42.522   6.207
 3952POPC   D2A51748  31.272  42.523   6.564
 3952POPC   C3A51749  31.392  42.549   7.016
 3952POPC   C4A51750  31.748  42.440   7.257
 3952POPC   C1B51751  31.196  42.179   6.148
 3952POPC   C2B51752  31.528  42.060   6.454
 3952POPC   C3B51753  31.675  42.106   6.854
 3952POPC   C4B51754  31.419  41.980   7.154
 3953POPC   NC351755   3.696   8.312   5.388
 3953POPC   PO451756   3.015   8.116   5.336
 3953POPC   GL151757   3.359   8.104   5.704
 3953POPC   GL251758   3.695   7.899   5.709
 3953POPC   C1A51759   3.456   8.496   6.004
 3953POPC   D2A51760   3.530   8.686   6.443
 3953POPC   C3A51761   3.649   8.462   6.845
 3953POPC   C4A51762   3.418   8.245   7.201
 3953POPC   C1B51763   3.871   8.200   6.045
 3953POPC   C2B51764   3.694   8.114   6.459
 3953POPC   C3B51765   3.624   7.921   6.872
 3953POPC   C4B51766   3.749   7.812   7.294
 3954POPC   NC351767  33.676  42.601   5.561
 3954POPC   PO451768  34.203  42.443   5.310
 3954POPC   GL151769  34.025  42.250   5.725
 3954POPC   GL251770  34.061  42.546   5.907
 3954POPC   C1A51771  33.750  42.225   6.145
 3954POPC   D2A51772  33.917  42.113   6.547
 3954POPC   C3A51773  33.774  42.211   6.949
 3954POPC   C4A51774  33.604  41.909   7.236
 3954POPC   C1B51775  34.154  42.502   6.333
 3954POPC   C2B51776  34.029  42.630   6.743
 3954POPC   C3B51777  34.154  42.486   7.168
 3954POPC   C4B51778  34.063  42.080   7.365
 3955POPC   NC351779  28.501   6.551   5.473
 3955POPC   PO451780  27.951   6.973   5.323
 3955POPC   GL151781  28.093   6.764   5.713
 3955POPC   GL251782  28.450   6.810   5.904
 3955POPC   C1A51783  28.023   6.632   6.125
 3955POPC   D2A51784  28.329   6.622   6.429
 3955POPC   C3A51785  28.114   6.507   6.790
 3955POPC   C4A51786  28.216   6.570   7.196
 3955POPC   C1B51787  28.702   6.431   6.110
 3955POPC   C2B51788  28.826   6.445   6.540
 3955POPC   C3B51789  28.650   6.749   6.851
 3955POPC   C4B51790  28.741   6.696   7.279
 3956POPC   NC351791  44.071  25.620   5.512
 3956POPC   PO451792  44.722  25.592   5.243
 3956POPC   GL151793  44.740  25.321   5.663
 3956POPC   GL251794  44.420  25.335   5.806
 3956POPC   C1A51795  44.826  25.282   6.153
 3956POPC   D2A51796  44.915  25.456   6.613
 3956POPC   C3A51797  44.729  25.221   6.992
 3956POPC   C4A51798  44.892  24.851   7.249
 3956POPC   C1B51799  44.469  25.654   6.146
 3956POPC   C2B51800  44.556  25.821   6.563
 3956POPC   C3B51801  44.474  25.720   7.012
 3956POPC   C4B51802  44.687  25.788   7.417
 3957POPC   NC351803  44.104  17.458   5.379
 3957POPC   PO451804  43.503  17.775   5.395
 3957POPC   GL151805  43.779  17.671   5.749
 3957POPC   GL251806  44.135  17.776   5.792
 3957POPC   C1A51807  43.712  17.479   6.162
 3957POPC   D2A51808  43.803  17.718   6.544
 3957POPC   C3A51809  43.697  17.482   6.912
 3957POPC   C4A51810  43.600  17.474   7.369
 3957POPC   C1B51811  44.205  17.567   6.230
 3957POPC   C2B51812  44.119  17.292   6.618
 3957POPC   C3B51813  44.140  17.303   7.083
 3957POPC   C4B51814  44.120  17.464   7.524
 3958POPC   NC351815  39.093  18.998   5.631
 3958POPC   PO451816  39.591  19.384   5.362
 3958POPC   GL151817  39.585  19.083   5.737
 3958POPC   GL251818  39.391  19.213   5.994
 3958POPC   C1A51819  39.646  18.803   6.102
 3958POPC   D2A51820  39.389  18.959   6.464
 3958POPC   C3A51821  39.427  18.805   6.879
 3958POPC   C4A51822  39.554  18.989   7.254
 3958POPC   C1B51823  39.164  19.428   6.322
 3958POPC   C2B51824  38.974  19.228   6.665
 3958POPC   C3B51825  38.976  19.019   7.064
 3958POPC   C4B51826  39.122  18.838   7.451
 3959POPC   NC351827  28.477  32.578   5.589
 3959POPC   PO451828  28.525  31.905   5.559
 3959POPC   GL151829  28.267  32.139   5.895
 3959POPC   GL251830  27.987  32.420   5.817
 3959POPC   C1A51831  28.480  32.245   6.305
 3959POPC   D2A51832  28.674  32.351   6.719
 3959POPC   C3A51833  28.452  32.139   7.041
 3959POPC   C4A51834  28.542  32.048   7.444
 3959POPC   C1B51835  28.015  32.458   6.288
 3959POPC   C2B51836  28.184  32.494   6.739
 3959POPC   C3B51837  28.340  32.634   7.144
 3959POPC   C4B51838  28.083  32.765   7.503
 3960POPC   NC351839  37.877  27.571   5.388
 3960POPC   PO451840  37.187  27.392   5.387
 3960POPC   GL151841  37.452  27.729   5.620
 3960POPC   GL251842  37.552  27.417   5.785
 3960POPC   C1A51843  37.618  27.811   6.079
 3960POPC   D2A51844  37.680  27.515   6.450
 3960POPC   C3A51845  37.592  27.656   6.882
 3960POPC   C4A51846  37.261  27.439   7.100
 3960POPC   C1B51847  37.907  27.241   6.034
 3960POPC   C2B51848  38.148  27.295   6.419
 3960POPC   C3B51849  38.000  27.336   6.848
 3960POPC   C4B51850  37.749  27.293   7.222
 3961POPC   NC351851   2.789  28.621   5.146
 3961POPC   PO451852   2.937  29.220   5.442
 3961POPC   GL151853   2.727  29.327   5.841
 3961POPC   GL251854   2.822  28.978   5.924
 3961POPC   C1A51855   2.510  29.234   6.261
 3961POPC   D2A51856   2.532  29.007   6.655
 3961POPC   C3A51857   2.420  29.172   7.079
 3961POPC   C4A51858   2.631  28.897   7.395
 3961POPC   C1B51859   2.980  29.046   6.335
 3961POPC   C2B51860   2.922  29.343   6.671
 3961POPC   C3B51861   2.946  29.238   7.119
 3961POPC   C4B51862   3.233  29.324   7.425
 3962POPC   NC351863  32.606  39.234   5.610
 3962POPC   PO451864  32.199  39.548   5.231
 3962POPC   GL151865  32.102  39.323   5.663
 3962POPC   GL251866  31.929  38.989   5.693
 3962POPC   C1A51867  32.187  39.261   6.127
 3962POPC   D2A51868  32.318  39.029   6.520
 3962POPC   C3A51869  32.364  39.317   6.880
 3962POPC   C4A51870  32.069  39.545   7.131
 3962POPC   C1B51871  31.958  38.799   6.118
 3962POPC   C2B51872  31.804  38.862   6.560
 3962POPC   C3B51873  32.061  38.927   6.955
 3962POPC   C4B51874  31.897  39.062   7.355
 3963POPC   NC351875  12.550  32.390   5.367
 3963POPC   PO451876  13.140  32.054   5.553
 3963POPC   GL151877  12.919  32.363   5.760
 3963POPC   GL251878  12.645  32.133   5.825
 3963POPC   C1A51879  12.955  32.412   6.202
 3963POPC   D2A51880  12.818  32.160   6.557
 3963POPC   C3A51881  12.963  32.225   6.940
 3963POPC   C4A51882  12.949  32.534   7.227
 3963POPC   C1B51883  12.430  32.163   6.221
 3963POPC   C2B51884  12.281  32.192   6.679
 3963POPC   C3B51885  12.455  32.173   7.135
 3963POPC   C4B51886  12.440  31.953   7.549
 3964POPC   NC351887  30.974  30.095   5.364
 3964POPC   PO451888  30.749  29.461   5.270
 3964POPC   GL151889  30.636  29.783   5.597
 3964POPC   GL251890  30.963  29.823   5.782
 3964POPC   C1A51891  30.566  29.865   6.048
 3964POPC   D2A51892  30.615  29.819   6.500
 3964POPC   C3A51893  30.360  30.114   6.762
 3964POPC   C4A51894  30.270  30.076   7.180
 3964POPC   C1B51895  31.033  30.007   6.234
 3964POPC   C2B51896  31.242  29.903   6.642
 3964POPC   C3B51897  31.203  29.958   7.095
 3964POPC   C4B51898  30.895  29.741   7.371
 3965POPC   NC351899  14.023  33.218   5.409
 3965POPC   PO451900  14.677  33.312   5.502
 3965POPC   GL151901  14.620  33.114   5.882
 3965POPC   GL251902  14.941  33.216   5.974
 3965POPC   C1A51903  14.240  33.000   6.103
 3965POPC   D2A51904  14.094  32.835   6.497
 3965POPC   C3A51905  14.229  33.048   6.894
 3965POPC   C4A51906  14.083  33.014   7.324
 3965POPC   C1B51907  14.816  33.163   6.379
 3965POPC   C2B51908  14.884  33.349   6.765
 3965POPC   C3B51909  14.924  33.153   7.140
 3965POPC   C4B51910  14.597  32.904   7.291
 3966POPC   NC351911  14.818  40.530   5.403
 3966POPC   PO451912  14.937  41.144   5.347
 3966POPC   GL151913  15.084  41.074   5.796
 3966POPC   GL251914  15.086  40.713   5.817
 3966POPC   C1A51915  15.192  40.948   6.270
 3966POPC   D2A51916  15.259  40.847   6.753
 3966POPC   C3A51917  15.235  41.167   7.133
 3966POPC   C4A51918  15.497  41.109   7.526
 3966POPC   C1B51919  14.863  40.552   6.192
 3966POPC   C2B51920  14.849  40.501   6.634
 3966POPC   C3B51921  15.051  40.370   7.018
 3966POPC   C4B51922  15.291  40.653   7.264
 3967POPC   NC351923  29.783   3.002   5.558
 3967POPC   PO451924  30.340   2.604   5.444
 3967POPC   GL151925  30.100   2.659   5.832
 3967POPC   GL251926  29.723   2.653   5.924
 3967POPC   C1A51927  30.104   2.593   6.292
 3967POPC   D2A51928  29.784   2.664   6.614
 3967POPC   C3A51929  29.898   2.561   7.013
 3967POPC   C4A51930  30.135   2.549   7.357
 3967POPC   C1B51931  29.722   3.009   6.243
 3967POPC   C2B51932  29.677   3.198   6.678
 3967POPC   C3B51933  29.668   3.013   7.130
 3967POPC   C4B51934  29.578   3.085   7.659
 3968POPC   NC351935  22.518  33.300   5.712
 3968POPC   PO451936  22.056  33.758   5.470
 3968POPC   GL151937  22.195  33.908   5.871
 3968POPC   GL251938  22.526  33.814   5.826
 3968POPC   C1A51939  22.251  33.741   6.269
 3968POPC   D2A51940  22.095  33.790   6.676
 3968POPC   C3A51941  22.206  33.569   7.052
 3968POPC   C4A51942  22.083  33.952   7.246
 3968POPC   C1B51943  22.707  33.999   6.175
 3968POPC   C2B51944  22.530  34.099   6.562
 3968POPC   C3B51945  22.521  33.978   6.994
 3968POPC   C4B51946  22.552  33.990   7.460
 3969POPC   NC351947  24.258  27.920   5.668
 3969POPC   PO451948  24.637  27.492   5.285
 3969POPC   GL151949  24.551  27.484   5.764
 3969POPC   GL251950  24.227  27.411   5.895
 3969POPC   C1A51951  24.717  27.518   6.229
 3969POPC   D2A51952  24.690  27.759   6.645
 3969POPC   C3A51953  24.485  27.684   7.061
 3969POPC   C4A51954  24.441  27.545   7.501
 3969POPC   C1B51955  24.348  27.150   6.237
 3969POPC   C2B51956  24.222  27.150   6.664
 3969POPC   C3B51957  24.282  27.213   7.122
 3969POPC   C4B51958  23.990  27.276   7.457
 3970POPC   NC351959  37.555  24.780   5.331
 3970POPC   PO451960  37.801  24.109   5.400
 3970POPC   GL151961  37.586  24.403   5.734
 3970POPC   GL251962  37.797  24.723   5.790
 3970POPC   C1A51963  37.634  24.451   6.220
 3970POPC   D2A51964  37.595  24.438   6.685
 3970POPC   C3A51965  37.945  24.555   6.981
 3970POPC   C4A51966  37.809  24.624   7.431
 3970POPC   C1B51967  37.758  24.974   6.180
 3970POPC   C2B51968  37.763  24.920   6.628
 3970POPC   C3B51969  37.524  24.816   7.014
 3970POPC   C4B51970  37.528  25.033   7.348
 3971POPC   NC351971  22.506   4.298   5.622
 3971POPC   PO451972  22.065   4.668   5.369
 3971POPC   GL151973  22.031   4.468   5.767
 3971POPC   GL251974  22.049   4.076   5.751
 3971POPC   C1A51975  22.099   4.561   6.208
 3971POPC   D2A51976  22.182   4.340   6.593
 3971POPC   C3A51977  22.077   4.462   7.009
 3971POPC   C4A51978  22.291   4.300   7.360
 3971POPC   C1B51979  22.270   4.023   6.158
 3971POPC   C2B51980  22.149   3.841   6.543
 3971POPC   C3B51981  22.201   3.953   6.956
 3971POPC   C4B51982  22.475   3.796   7.252
 3972POPC   NC351983  35.822   3.582   5.698
 3972POPC   PO451984  36.423   3.904   5.323
 3972POPC   GL151985  36.314   3.656   5.723
 3972POPC   GL251986  36.282   3.308   5.635
 3972POPC   C1A51987  36.243   3.604   6.209
 3972POPC   D2A51988  36.303   3.800   6.638
 3972POPC   C3A51989  36.127   3.572   6.985
 3972POPC   C4A51990  36.391   3.329   7.243
 3972POPC   C1B51991  36.282   3.133   6.061
 3972POPC   C2B51992  36.101   3.170   6.466
 3972POPC   C3B51993  36.134   3.064   6.884
 3972POPC   C4B51994  35.873   3.156   7.239
 3973POPC   NC351995  15.319  27.405   5.409
 3973POPC   PO451996  14.888  27.870   5.362
 3973POPC   GL151997  15.117  27.727   5.761
 3973POPC   GL251998  15.473  27.822   5.701
 3973POPC   C1A51999  15.045  27.362   6.094
 3973POPC   D2A52000  14.865  27.326   6.543
 3973POPC   C3A52001  14.985  27.489   6.968
 3973POPC   C4A52002  14.920  27.487   7.433
 3973POPC   C1B52003  15.502  27.600   6.105
 3973POPC   C2B52004  15.341  27.508   6.530
 3973POPC   C3B52005  15.500  27.445   6.955
 3973POPC   C4B52006  15.389  27.616   7.318
 3974POPC   NC352007  40.073  16.270   5.700
 3974POPC   PO452008  39.854  15.722   5.273
 3974POPC   GL152009  39.962  15.757   5.736
 3974POPC   GL252010  40.281  15.610   5.782
 3974POPC   C1A52011  39.820  15.906   6.195
 3974POPC   D2A52012  39.967  16.072   6.621
 3974POPC   C3A52013  39.949  15.782   6.993
 3974POPC   C4A52014  39.818  15.725   7.451
 3974POPC   C1B52015  40.318  15.850   6.168
 3974POPC   C2B52016  40.462  15.926   6.590
 3974POPC   C3B52017  40.364  16.165   6.980
 3974POPC   C4B52018  40.039  16.174   7.299
 3975POPC   NC352019  39.491  13.079   5.521
 3975POPC   PO452020  40.186  13.116   5.500
 3975POPC   GL152021  39.966  12.860   5.808
 3975POPC   GL252022  39.673  12.614   5.758
 3975POPC   C1A52023  40.024  12.862   6.240
 3975POPC   D2A52024  40.146  12.687   6.603
 3975POPC   C3A52025  39.831  12.829   6.857
 3975POPC   C4A52026  39.957  12.886   7.259
 3975POPC   C1B52027  39.695  12.415   6.184
 3975POPC   C2B52028  39.821  12.287   6.626
 3975POPC   C3B52029  39.880  12.384   7.098
 3975POPC   C4B52030  40.099  12.470   7.536
 3976POPC   NC352031  41.882   6.662   5.264
 3976POPC   PO452032  41.217   6.731   5.275
 3976POPC   GL152033  41.483   6.777   5.668
 3976POPC   GL252034  41.704   6.477   5.719
 3976POPC   C1A52035  41.590   6.720   6.158
 3976POPC   D2A52036  41.760   6.623   6.605
 3976POPC   C3A52037  41.504   6.724   6.990
 3976POPC   C4A52038  41.629   7.011   7.326
 3976POPC   C1B52039  41.824   6.247   6.114
 3976POPC   C2B52040  41.936   6.146   6.545
 3976POPC   C3B52041  41.770   6.239   6.973
 3976POPC   C4B52042  41.805   6.338   7.416
 3977POPC   NC352043  30.963  33.462   5.096
 3977POPC   PO452044  31.436  33.905   5.401
 3977POPC   GL152045  31.587  33.897   5.795
 3977POPC   GL252046  31.356  33.646   5.888
 3977POPC   C1A52047  31.715  33.901   6.220
 3977POPC   D2A52048  31.773  34.072   6.644
 3977POPC   C3A52049  31.606  33.823   6.945
 3977POPC   C4A52050  31.721  33.787   7.354
 3977POPC   C1B52051  31.229  34.021   6.140
 3977POPC   C2B52052  31.275  33.918   6.555
 3977POPC   C3B52053  31.056  33.827   6.924
 3977POPC   C4B52054  31.144  33.973   7.341
 3978POPC   NC352055  37.126  11.749   5.305
 3978POPC   PO452056  36.770  12.299   5.284
 3978POPC   GL152057  36.946  12.150   5.656
 3978POPC   GL252058  36.749  12.444   5.786
 3978POPC   C1A52059  36.933  11.925   6.079
 3978POPC   D2A52060  37.147  11.899   6.509
 3978POPC   C3A52061  37.003  11.742   6.949
 3978POPC   C4A52062  37.013  11.928   7.355
 3978POPC   C1B52063  37.064  12.420   6.115
 3978POPC   C2B52064  37.066  12.420   6.553
 3978POPC   C3B52065  37.034  12.264   6.960
 3978POPC   C4B52066  36.723  12.347   7.271
 3979POPC   NC352067  26.752   9.378   4.982
 3979POPC   PO452068  27.181   9.142   5.334
 3979POPC   GL152069  27.191   9.171   5.801
 3979POPC   GL252070  27.304   8.864   5.991
 3979POPC   C1A52071  27.047   9.227   6.232
 3979POPC   D2A52072  27.177   9.207   6.639
 3979POPC   C3A52073  26.859   9.244   6.922
 3979POPC   C4A52074  27.057   9.410   7.228
 3979POPC   C1B52075  27.014   8.714   6.347
 3979POPC   C2B52076  26.976   8.742   6.801
 3979POPC   C3B52077  27.215   8.932   7.129
 3979POPC   C4B52078  27.169   8.951   7.558
 3980POPC   NC352079  36.091  32.046   5.228
 3980POPC   PO452080  36.455  32.601   5.578
 3980POPC   GL152081  36.222  32.391   5.908
 3980POPC   GL252082  36.241  32.040   5.944
 3980POPC   C1A52083  36.225  32.363   6.370
 3980POPC   D2A52084  36.276  32.708   6.656
 3980POPC   C3A52085  36.319  32.481   6.988
 3980POPC   C4A52086  35.997  32.271   7.134
 3980POPC   C1B52087  36.269  31.842   6.323
 3980POPC   C2B52088  36.173  31.924   6.750
 3980POPC   C3B52089  36.386  31.953   7.146
 3980POPC   C4B52090  36.362  32.027   7.594
 3981POPC   NC352091  40.020  27.039   5.106
 3981POPC   PO452092  40.096  27.666   5.433
 3981POPC   GL152093  40.011  27.541   5.832
 3981POPC   GL252094  40.337  27.397   5.823
 3981POPC   C1A52095  39.825  27.627   6.256
 3981POPC   D2A52096  39.979  27.841   6.643
 3981POPC   C3A52097  39.845  27.750   7.058
 3981POPC   C4A52098  39.911  27.883   7.489
 3981POPC   C1B52099  40.248  27.292   6.214
 3981POPC   C2B52100  40.096  27.336   6.596
 3981POPC   C3B52101  40.283  27.505   6.929
 3981POPC   C4B52102  40.375  27.125   7.096
 3982POPC   NC352103   1.221   8.762   5.271
 3982POPC   PO452104   1.393   9.387   5.125
 3982POPC   GL152105   1.293   9.167   5.566
 3982POPC   GL252106   1.390   8.906   5.782
 3982POPC   C1A52107   1.051   9.116   6.061
 3982POPC   D2A52108   1.184   9.034   6.520
 3982POPC   C3A52109   0.998   9.177   6.923
 3982POPC   C4A52110   1.175   9.118   7.360
 3982POPC   C1B52111   1.569   8.927   6.180
 3982POPC   C2B52112   1.574   8.690   6.580
 3982POPC   C3B52113   1.413   8.834   6.976
 3982POPC   C4B52114   1.083   8.642   7.184
 3983POPC   NC352115  27.776  22.097   5.446
 3983POPC   PO452116  27.211  22.450   5.626
 3983POPC   GL152117  27.548  22.243   5.879
 3983POPC   GL252118  27.929  22.331   5.855
 3983POPC   C1A52119  27.731  21.948   6.192
 3983POPC   D2A52120  27.907  21.856   6.618
 3983POPC   C3A52121  27.557  21.778   6.904
 3983POPC   C4A52122  27.425  21.834   7.334
 3983POPC   C1B52123  27.823  22.498   6.222
 3983POPC   C2B52124  27.627  22.312   6.592
 3983POPC   C3B52125  27.784  22.227   6.996
 3983POPC   C4B52126  27.598  22.303   7.403
 3984POPC   NC352127  37.174  35.706   5.572
 3984POPC   PO452128  36.938  35.208   5.168
 3984POPC   GL152129  36.912  35.198   5.637
 3984POPC   GL252130  37.249  35.184   5.713
 3984POPC   C1A52131  36.826  35.417   6.072
 3984POPC   D2A52132  36.589  35.592   6.465
 3984POPC   C3A52133  36.638  35.534   6.931
 3984POPC   C4A52134  36.698  35.405   7.391
 3984POPC   C1B52135  37.262  35.167   6.177
 3984POPC   C2B52136  36.960  35.209   6.534
 3984POPC   C3B52137  36.969  35.141   6.960
 3984POPC   C4B52138  37.132  35.473   7.183
 3985POPC   NC352139  15.967  23.755   5.374
 3985POPC   PO452140  15.963  23.138   5.584
 3985POPC   GL152141  16.068  23.497   5.882
 3985POPC   GL252142  16.087  23.899   5.851
 3985POPC   C1A52143  15.814  23.587   6.262
 3985POPC   D2A52144  15.544  23.917   6.462
 3985POPC   C3A52145  15.553  23.872   6.898
 3985POPC   C4A52146  15.743  23.574   7.208
 3985POPC   C1B52147  16.264  23.808   6.278
 3985POPC   C2B52148  16.266  23.446   6.608
 3985POPC   C3B52149  16.219  23.580   7.054
 3985POPC   C4B52150  16.018  23.994   7.032
 3986POPC   NC352151   2.617  30.263   5.502
 3986POPC   PO452152   3.091  30.695   5.254
 3986POPC   GL152153   2.985  30.714   5.723
 3986POPC   GL252154   2.616  30.649   5.835
 3986POPC   C1A52155   2.961  30.724   6.199
 3986POPC   D2A52156   2.641  30.862   6.497
 3986POPC   C3A52157   2.795  30.838   6.928
 3986POPC   C4A52158   3.131  30.937   7.227
 3986POPC   C1B52159   2.535  30.420   6.229
 3986POPC   C2B52160   2.698  30.391   6.678
 3986POPC   C3B52161   2.621  30.234   7.082
 3986POPC   C4B52162   2.959  30.472   7.261
 3987POPC   NC352163   6.696  36.068   5.411
 3987POPC   PO452164   5.969  36.085   5.461
 3987POPC   GL152165   6.335  36.041   5.790
 3987POPC   GL252166   6.748  36.000   5.895
 3987POPC   C1A52167   6.436  36.204   6.207
 3987POPC   D2A52168   6.702  36.134   6.527
 3987POPC   C3A52169   6.493  36.180   6.874
 3987POPC   C4A52170   6.609  36.172   7.260
 3987POPC   C1B52171   6.939  36.360   6.126
 3987POPC   C2B52172   7.063  36.498   6.547
 3987POPC   C3B52173   6.897  36.522   6.969
 3987POPC   C4B52174   7.019  36.481   7.402
 3988POPC   NC352175  29.291  32.909   5.456
 3988POPC   PO452176  28.657  33.001   5.630
 3988POPC   GL152177  28.919  32.829   5.869
 3988POPC   GL252178  29.210  33.041   5.955
 3988POPC   C1A52179  28.949  32.761   6.285
 3988POPC   D2A52180  29.268  32.887   6.536
 3988POPC   C3A52181  29.052  32.803   6.900
 3988POPC   C4A52182  28.985  32.911   7.307
 3988POPC   C1B52183  29.516  33.278   6.226
 3988POPC   C2B52184  29.624  33.321   6.642
 3988POPC   C3B52185  29.345  33.215   6.964
 3988POPC   C4B52186  29.229  33.346   7.398
 3989POPC   NC352187  30.836   2.645   5.396
 3989POPC   PO452188  30.911   3.305   5.474
 3989POPC   GL152189  30.643   3.018   5.817
 3989POPC   GL252190  30.627   2.619   5.869
 3989POPC   C1A52191  30.621   2.883   6.301
 3989POPC   D2A52192  30.513   2.685   6.715
 3989POPC   C3A52193  30.726   2.937   7.044
 3989POPC   C4A52194  31.025   3.264   7.118
 3989POPC   C1B52195  30.612   2.378   6.269
 3989POPC   C2B52196  30.937   2.405   6.575
 3989POPC   C3B52197  30.959   2.370   6.990
 3989POPC   C4B52198  30.602   2.473   7.204
 3990POPC   NC352199  29.723  37.161   5.398
 3990POPC   PO452200  29.000  36.985   5.438
 3990POPC   GL152201  29.097  37.086   5.828
 3990POPC   GL252202  29.438  36.978   5.788
 3990POPC   C1A52203  29.134  36.879   6.204
 3990POPC   D2A52204  28.965  36.686   6.538
 3990POPC   C3A52205  29.147  36.855   6.885
 3990POPC   C4A52206  28.848  36.818   7.169
 3990POPC   C1B52207  29.515  37.207   6.150
 3990POPC   C2B52208  29.423  37.220   6.584
 3990POPC   C3B52209  29.532  37.222   7.020
 3990POPC   C4B52210  29.366  37.123   7.424
 3991POPC   NC352211  38.617  37.519   5.515
 3991POPC   PO452212  38.464  38.107   5.266
 3991POPC   GL152213  38.338  37.892   5.718
 3991POPC   GL252214  38.019  37.730   5.806
 3991POPC   C1A52215  38.474  37.671   6.123
 3991POPC   D2A52216  38.473  37.780   6.551
 3991POPC   C3A52217  38.752  37.559   6.829
 3991POPC   C4A52218  38.824  37.502   7.252
 3991POPC   C1B52219  38.094  37.976   6.148
 3991POPC   C2B52220  37.992  37.980   6.569
 3991POPC   C3B52221  38.194  37.958   6.958
 3991POPC   C4B52222  38.271  38.131   7.334
 3992POPC   NC352223  14.590  30.039   5.498
 3992POPC   PO452224  13.949  29.755   5.267
 3992POPC   GL152225  14.222  29.623   5.664
 3992POPC   GL252226  14.457  29.753   5.876
 3992POPC   C1A52227  14.102  29.525   6.160
 3992POPC   D2A52228  14.307  29.681   6.557
 3992POPC   C3A52229  14.183  29.770   6.998
 3992POPC   C4A52230  14.295  30.069   7.344
 3992POPC   C1B52231  14.704  29.799   6.215
 3992POPC   C2B52232  14.805  29.881   6.626
 3992POPC   C3B52233  14.734  30.056   7.011
 3992POPC   C4B52234  14.835  29.672   7.175
 3993POPC   NC352235  10.761  34.808   5.449
 3993POPC   PO452236  10.349  34.318   5.271
 3993POPC   GL152237  10.564  34.415   5.719
 3993POPC   GL252238  10.512  34.775   5.876
 3993POPC   C1A52239  10.700  34.432   6.186
 3993POPC   D2A52240  10.447  34.590   6.562
 3993POPC   C3A52241  10.594  34.622   7.014
 3993POPC   C4A52242  10.445  34.599   7.469
 3993POPC   C1B52243  10.762  34.959   6.250
 3993POPC   C2B52244  10.696  35.033   6.708
 3993POPC   C3B52245  10.748  35.113   7.164
 3993POPC   C4B52246  10.715  35.067   7.607
 3994POPC   NC352247  28.822  21.579   5.374
 3994POPC   PO452248  29.414  21.246   5.281
 3994POPC   GL152249  29.201  21.407   5.678
 3994POPC   GL252250  29.314  21.692   5.847
 3994POPC   C1A52251  28.968  21.401   6.109
 3994POPC   D2A52252  28.998  21.223   6.547
 3994POPC   C3A52253  28.981  21.469   6.947
 3994POPC   C4A52254  29.141  21.596   7.348
 3994POPC   C1B52255  29.519  21.280   6.065
 3994POPC   C2B52256  29.545  20.960   6.433
 3994POPC   C3B52257  29.410  21.069   6.843
 3994POPC   C4B52258  29.539  21.106   7.250
 3995POPC   NC352259  17.168  42.657   5.037
 3995POPC   PO452260  17.492  43.191   5.377
 3995POPC   GL152261  17.481  43.169   5.813
 3995POPC   GL252262  17.507  43.529   5.784
 3995POPC   C1A52263  17.409  43.022   6.232
 3995POPC   D2A52264  17.598  43.032   6.614
 3995POPC   C3A52265  17.334  42.870   6.934
 3995POPC   C4A52266  17.590  42.900   7.259
 3995POPC   C1B52267  17.343  43.530   6.187
 3995POPC   C2B52268  17.492  43.520   6.599
 3995POPC   C3B52269  17.457  43.353   7.010
 3995POPC   C4B52270  17.444  43.630   7.330
 3996POPC   NC352271   1.629   3.768   5.504
 3996POPC   PO452272   2.197   3.379   5.380
 3996POPC   GL152273   2.140   3.349   5.832
 3996POPC   GL252274   1.792   3.356   5.919
 3996POPC   C1A52275   2.054   3.605   6.266
 3996POPC   D2A52276   1.788   3.611   6.607
 3996POPC   C3A52277   2.071   3.676   6.932
 3996POPC   C4A52278   2.294   3.470   7.207
 3996POPC   C1B52279   2.047   3.115   6.264
 3996POPC   C2B52280   2.089   3.200   6.675
 3996POPC   C3B52281   1.915   3.160   7.010
 3996POPC   C4B52282   1.647   3.429   7.111
 3997POPC   NC352283   3.891  30.443   5.315
 3997POPC   PO452284   4.546  30.405   5.470
 3997POPC   GL152285   4.366  30.553   5.826
 3997POPC   GL252286   4.718  30.486   5.949
 3997POPC   C1A52287   4.045  30.619   6.152
 3997POPC   D2A52288   4.062  30.876   6.520
 3997POPC   C3A52289   3.927  30.675   6.887
 3997POPC   C4A52290   4.263  30.570   7.132
 3997POPC   C1B52291   4.548  30.724   6.266
 3997POPC   C2B52292   4.792  30.661   6.565
 3997POPC   C3B52293   4.755  30.521   6.921
 3997POPC   C4B52294   4.712  30.447   7.290
 3998POPC   NC352295  43.378   6.144   5.524
 3998POPC   PO452296  43.976   5.733   5.470
 3998POPC   GL152297  43.855   6.087   5.733
 3998POPC   GL252298  44.139   6.318   5.716
 3998POPC   C1A52299  43.617   5.998   6.150
 3998POPC   D2A52300  43.526   5.740   6.549
 3998POPC   C3A52301  43.628   5.930   6.945
 3998POPC   C4A52302  43.858   5.798   7.338
 3998POPC   C1B52303  44.142   6.165   6.149
 3998POPC   C2B52304  43.929   6.100   6.549
 3998POPC   C3B52305  44.130   5.998   6.934
 3998POPC   C4B52306  44.290   6.182   7.276
 3999POPC   NC352307   6.060  35.675   5.257
 3999POPC   PO452308   5.656  35.135   5.449
 3999POPC   GL152309   5.704  35.204   5.886
 3999POPC   GL252310   5.899  35.517   5.936
 3999POPC   C1A52311   5.518  35.332   6.275
 3999POPC   D2A52312   5.691  35.570   6.602
 3999POPC   C3A52313   5.618  35.367   6.985
 3999POPC   C4A52314   5.857  35.162   7.249
 3999POPC   C1B52315   6.091  35.823   6.226
 3999POPC   C2B52316   6.177  35.826   6.668
 3999POPC   C3B52317   6.133  35.469   6.958
 3999POPC   C4B52318   6.215  35.448   7.442
 4000POPC   NC352319  44.512  24.922   5.444
 4000POPC   PO452320  44.401  24.220   5.509
 4000POPC   GL152321  44.612  24.506   5.852
 4000POPC   GL252322  44.664  24.859   5.917
 4000POPC   C1A52323  44.794  24.498   6.286
 4000POPC   D2A52324  44.974  24.324   6.695
 4000POPC   C3A52325  44.685  24.387   7.072
 4000POPC   C4A52326  44.645  24.450   7.527
 4000POPC   C1B52327  44.479  24.922   6.309
 4000POPC   C2B52328  44.533  24.802   6.750
 4000POPC   C3B52329  44.402  24.830   7.181
 4000POPC   C4B52330  44.456  24.925   7.634
 4001POPC   NC352331   8.723   0.407   5.460
 4001POPC   PO452332   9.271   0.129   5.632
 4001POPC   GL152333   9.141   0.468   5.900
 4001POPC   GL252334   8.785   0.548   5.931
 4001POPC   C1A52335   9.278   0.455   6.332
 4001POPC   D2A52336   9.404   0.323   6.738
 4001POPC   C3A52337   9.300   0.521   7.146
 4001POPC   C4A52338   9.321   0.683   7.586
 4001POPC   C1B52339   8.535   0.584   6.273
 4001POPC   C2B52340   8.592   0.725   6.680
 4001POPC   C3B52341   8.537   0.534   7.083
 4001POPC   C4B52342   8.862   0.548   7.407
 4002POPC   NC352343  36.405   6.213   5.345
 4002POPC   PO452344  36.007   5.647   5.429
 4002POPC   GL152345  36.153   5.943   5.758
 4002POPC   GL252346  35.852   5.912   5.972
 4002POPC   C1A52347  36.273   6.105   6.169
 4002POPC   D2A52348  36.382   5.844   6.526
 4002POPC   C3A52349  36.137   5.764   6.890
 4002POPC   C4A52350  36.326   5.845   7.265
 4002POPC   C1B52351  35.859   5.907   6.418
 4002POPC   C2B52352  35.611   5.722   6.717
 4002POPC   C3B52353  35.658   5.651   7.139
 4002POPC   C4B52354  35.864   5.672   7.533
 4003POPC   NC352355  29.920  44.935   5.442
 4003POPC   PO452356  29.607  44.380   5.431
 4003POPC   GL152357  29.744  44.593   5.825
 4003POPC   GL252358  30.109  44.678   5.873
 4003POPC   C1A52359  29.802  44.713   6.275
 4003POPC   D2A52360  30.150  44.541   6.522
 4003POPC   C3A52361  30.010  44.512   6.931
 4003POPC   C4A52362  29.725  44.605   7.274
 4003POPC   C1B52363  30.233  44.987   6.230
 4003POPC   C2B52364  30.095   0.008   6.703
 4003POPC   C3B52365  30.045  44.994   7.165
 4003POPC   C4B52366  30.114  44.939   7.673
 4004POPC   NC352367  21.979  24.697   5.508
 4004POPC   PO452368  22.193  24.082   5.395
 4004POPC   GL152369  22.107  24.305   5.809
 4004POPC   GL252370  22.223  24.647   5.955
 4004POPC   C1A52371  22.038  24.228   6.228
 4004POPC   D2A52372  22.254  24.185   6.634
 4004POPC   C3A52373  22.040  24.205   7.008
 4004POPC   C4A52374  21.926  24.605   7.172
 4004POPC   C1B52375  22.315  24.650   6.412
 4004POPC   C2B52376  22.292  24.820   6.847
 4004POPC   C3B52377  22.300  24.904   7.333
 4004POPC   C4B52378  22.243  24.985   7.794
 4005POPC   NC352379  10.671  23.863   5.449
 4005POPC   PO452380  10.201  23.407   5.415
 4005POPC   GL152381  10.449  23.484   5.794
 4005POPC   GL252382  10.761  23.679   5.901
 4005POPC   C1A52383  10.377  23.497   6.223
 4005POPC   D2A52384  10.281  23.695   6.570
 4005POPC   C3A52385  10.323  23.442   6.911
 4005POPC   C4A52386  10.185  23.631   7.265
 4005POPC   C1B52387  10.696  23.879   6.297
 4005POPC   C2B52388  10.771  23.670   6.682
 4005POPC   C3B52389  10.656  23.805   7.075
 4005POPC   C4B52390  10.791  23.864   7.480
 4006POPC   NC352391  33.969  20.711   5.097
 4006POPC   PO452392  33.400  20.316   5.311
 4006POPC   GL152393  33.817  20.443   5.526
 4006POPC   GL252394  33.835  20.804   5.609
 4006POPC   C1A52395  34.008  20.445   5.961
 4006POPC   D2A52396  33.890  20.210   6.365
 4006POPC   C3A52397  33.943  20.310   6.805
 4006POPC   C4A52398  33.670  20.286   7.188
 4006POPC   C1B52399  33.761  20.882   6.061
 4006POPC   C2B52400  33.787  20.738   6.498
 4006POPC   C3B52401  33.694  20.738   6.931
 4006POPC   C4B52402  34.023  20.638   7.245
 4007POPC   NC352403  36.583  20.514   5.375
 4007POPC   PO452404  37.296  20.499   5.381
 4007POPC   GL152405  37.041  20.501   5.739
 4007POPC   GL252406  36.761  20.742   5.788
 4007POPC   C1A52407  37.163  20.566   6.156
 4007POPC   D2A52408  37.166  20.302   6.543
 4007POPC   C3A52409  37.071  20.526   6.924
 4007POPC   C4A52410  37.296  20.861   7.188
 4007POPC   C1B52411  36.648  20.441   6.109
 4007POPC   C2B52412  36.639  20.350   6.549
 4007POPC   C3B52413  36.546  20.404   6.995
 4007POPC   C4B52414  36.738  20.716   7.248
 4008POPC   NC352415  33.939   2.250   5.400
 4008POPC   PO452416  33.641   1.690   5.455
 4008POPC   GL152417  33.786   1.684   5.880
 4008POPC   GL252418  34.082   1.863   5.765
 4008POPC   C1A52419  33.798   1.773   6.343
 4008POPC   D2A52420  33.631   2.116   6.618
 4008POPC   C3A52421  33.718   2.079   7.059
 4008POPC   C4A52422  33.629   1.719   7.288
 4008POPC   C1B52423  33.937   2.203   6.067
 4008POPC   C2B52424  34.083   2.288   6.484
 4008POPC   C3B52425  34.137   2.331   6.927
 4008POPC   C4B52426  34.194   2.210   7.373
 4009POPC   NC352427   6.373  16.291   5.227
 4009POPC   PO452428   6.840  15.831   5.375
 4009POPC   GL152429   6.730  16.084   5.765
 4009POPC   GL252430   6.812  15.813   5.969
 4009POPC   C1A52431   6.607  16.224   6.208
 4009POPC   D2A52432   6.782  16.354   6.636
 4009POPC   C3A52433   6.728  16.128   7.087
 4009POPC   C4A52434   6.684  16.034   7.574
 4009POPC   C1B52435   6.964  15.901   6.388
 4009POPC   C2B52436   6.952  15.731   6.822
 4009POPC   C3B52437   6.671  15.494   7.118
 4009POPC   C4B52438   6.372  15.644   7.431
 4010POPC   NC352439  32.929   2.120   5.434
 4010POPC   PO452440  32.847   1.499   5.639
 4010POPC   GL152441  33.158   1.813   5.782
 4010POPC   GL252442  32.928   2.101   5.938
 4010POPC   C1A52443  33.379   2.002   6.146
 4010POPC   D2A52444  33.112   2.179   6.496
 4010POPC   C3A52445  33.215   2.050   6.922
 4010POPC   C4A52446  33.295   2.080   7.357
 4010POPC   C1B52447  32.932   1.761   6.248
 4010POPC   C2B52448  32.775   1.756   6.641
 4010POPC   C3B52449  32.687   1.571   7.014
 4010POPC   C4B52450  32.823   1.908   7.225
 4011POPC   NC352451  33.005   0.139   5.466
 4011POPC   PO452452  32.904  44.470   5.352
 4011POPC   GL152453  32.888  44.715   5.767
 4011POPC   GL252454  33.227  44.771   5.764
 4011POPC   C1A52455  32.742  44.777   6.209
 4011POPC   D2A52456  32.881  44.649   6.641
 4011POPC   C3A52457  32.915  44.687   7.097
 4011POPC   C4A52458  33.155  44.425   7.340
 4011POPC   C1B52459  33.248  44.812   6.213
 4011POPC   C2B52460  33.318  44.943   6.638
 4011POPC   C3B52461  33.411  44.808   7.040
 4011POPC   C4B52462  33.309  44.882   7.461
 4012POPC   NC352463   6.300  32.992   5.177
 4012POPC   PO452464   5.670  32.778   5.471
 4012POPC   GL152465   5.722  33.059   5.828
 4012POPC   GL252466   5.402  32.998   5.952
 4012POPC   C1A52467   5.879  33.218   6.205
 4012POPC   D2A52468   5.720  33.295   6.611
 4012POPC   C3A52469   5.969  33.280   7.006
 4012POPC   C4A52470   5.768  33.198   7.412
 4012POPC   C1B52471   5.704  32.724   6.192
 4012POPC   C2B52472   5.929  32.799   6.540
 4012POPC   C3B52473   5.904  32.780   6.976
 4012POPC   C4B52474   6.045  32.497   7.268
 4013POPC   NC352475  11.394  44.912   5.425
 4013POPC   PO452476  11.211  44.249   5.463
 4013POPC   GL152477  11.196  44.512   5.795
 4013POPC   GL252478  10.989  44.816   5.733
 4013POPC   C1A52479  11.414  44.534   6.188
 4013POPC   D2A52480  11.433  44.849   6.490
 4013POPC   C3A52481  11.369  44.665   6.841
 4013POPC   C4A52482  11.339  44.363   7.114
 4013POPC   C1B52483  11.018  44.879   6.170
 4013POPC   C2B52484  10.906  44.723   6.579
 4013POPC   C3B52485  10.888  44.624   7.017
 4013POPC   C4B52486  11.100  44.917   7.278
 4014POPC   NC352487   6.199  39.055   5.260
 4014POPC   PO452488   5.844  39.607   5.366
 4014POPC   GL152489   5.858  39.250   5.672
 4014POPC   GL252490   5.536  39.073   5.732
 4014POPC   C1A52491   6.089  39.187   6.067
 4014POPC   D2A52492   6.162  39.416   6.471
 4014POPC   C3A52493   6.164  39.212   6.874
 4014POPC   C4A52494   5.780  39.166   7.112
 4014POPC   C1B52495   5.574  39.132   6.175
 4014POPC   C2B52496   5.711  38.990   6.600
 4014POPC   C3B52497   5.420  38.839   6.933
 4014POPC   C4B52498   5.351  38.905   7.352
 4015POPC   NC352499  10.868  22.196   5.229
 4015POPC   PO452500  10.305  21.919   5.501
 4015POPC   GL152501  10.618  22.076   5.730
 4015POPC   GL252502  10.571  21.780   5.919
 4015POPC   C1A52503  10.663  22.235   6.164
 4015POPC   D2A52504  10.624  22.589   6.472
 4015POPC   C3A52505  10.545  22.498   6.907
 4015POPC   C4A52506  10.787  22.475   7.275
 4015POPC   C1B52507  10.385  21.780   6.303
 4015POPC   C2B52508  10.507  22.016   6.619
 4015POPC   C3B52509  10.300  22.027   6.968
 4015POPC   C4B52510  10.554  22.027   7.282
 4016POPC   NC352511  31.298  18.853   5.398
 4016POPC   PO452512  30.634  19.036   5.321
 4016POPC   GL152513  30.681  19.098   5.726
 4016POPC   GL252514  30.877  18.786   5.747
 4016POPC   C1A52515  30.520  19.243   6.114
 4016POPC   D2A52516  30.678  19.017   6.443
 4016POPC   C3A52517  30.724  19.089   6.849
 4016POPC   C4A52518  30.557  19.198   7.210
 4016POPC   C1B52519  30.987  18.693   6.192
 4016POPC   C2B52520  31.092  18.768   6.669
 4016POPC   C3B52521  30.960  18.738   7.150
 4016POPC   C4B52522  30.919  18.550   7.573
 4017POPC   NC352523   9.301  17.009   5.128
 4017POPC   PO452524   9.317  16.474   5.491
 4017POPC   GL152525   9.152  16.694   5.820
 4017POPC   GL252526   8.841  16.508   5.738
 4017POPC   C1A52527   9.112  16.893   6.234
 4017POPC   D2A52528   9.169  16.850   6.659
 4017POPC   C3A52529   8.804  16.973   6.869
 4017POPC   C4A52530   8.683  17.004   7.270
 4017POPC   C1B52531   8.875  16.415   6.167
 4017POPC   C2B52532   8.870  16.435   6.609
 4017POPC   C3B52533   8.983  16.540   7.049
 4017POPC   C4B52534   8.913  16.477   7.490
 4018POPC   NC352535  13.010  41.084   5.542
 4018POPC   PO452536  12.649  40.569   5.196
 4018POPC   GL152537  12.806  40.629   5.697
 4018POPC   GL252538  12.813  40.913   5.965
 4018POPC   C1A52539  13.048  40.506   6.139
 4018POPC   D2A52540  13.218  40.331   6.560
 4018POPC   C3A52541  12.965  40.392   6.957
 4018POPC   C4A52542  12.743  40.626   7.286
 4018POPC   C1B52543  12.655  41.021   6.365
 4018POPC   C2B52544  12.678  40.800   6.764
 4018POPC   C3B52545  13.032  40.923   7.003
 4018POPC   C4B52546  13.147  41.362   7.111
 4019POPC   NC352547  20.270  31.957   5.390
 4019POPC   PO452548  20.537  31.332   5.280
 4019POPC   GL152549  20.627  31.381   5.707
 4019POPC   GL252550  20.532  31.743   5.797
 4019POPC   C1A52551  20.880  31.164   6.046
 4019POPC   D2A52552  21.044  31.406   6.435
 4019POPC   C3A52553  20.848  31.380   6.850
 4019POPC   C4A52554  20.671  31.324   7.262
 4019POPC   C1B52555  20.565  31.522   6.216
 4019POPC   C2B52556  20.385  31.483   6.634
 4019POPC   C3B52557  20.229  31.431   7.053
 4019POPC   C4B52558  20.346  31.720   7.453
 4020POPC   NC352559  35.318  14.761   5.485
 4020POPC   PO452560  35.087  15.292   5.227
 4020POPC   GL152561  35.206  15.230   5.669
 4020POPC   GL252562  35.002  14.995   5.831
 4020POPC   C1A52563  35.433  15.121   6.092
 4020POPC   D2A52564  35.682  15.221   6.492
 4020POPC   C3A52565  35.632  15.028   6.903
 4020POPC   C4A52566  35.318  15.103   7.227
 4020POPC   C1B52567  34.973  14.854   6.251
 4020POPC   C2B52568  35.204  15.011   6.601
 4020POPC   C3B52569  35.046  15.357   6.867
 4020POPC   C4B52570  34.803  15.303   7.239
 4021POPC   NC352571  18.001  12.109   5.614
 4021POPC   PO452572  18.662  12.249   5.417
 4021POPC   GL152573  18.513  12.146   5.844
 4021POPC   GL252574  18.389  11.804   5.873
 4021POPC   C1A52575  18.296  12.247   6.262
 4021POPC   D2A52576  18.081  12.156   6.686
 4021POPC   C3A52577  18.024  12.489   7.017
 4021POPC   C4A52578  18.387  12.674   7.188
 4021POPC   C1B52579  18.217  11.739   6.287
 4021POPC   C2B52580  18.103  11.605   6.694
 4021POPC   C3B52581  18.256  11.632   7.072
 4021POPC   C4B52582  18.225  12.043   7.221
 4022POPC   NC352583   6.656  37.040   5.301
 4022POPC   PO452584   6.408  36.424   5.309
 4022POPC   GL152585   6.426  36.768   5.678
 4022POPC   GL252586   6.807  36.806   5.770
 4022POPC   C1A52587   6.464  36.924   6.134
 4022POPC   D2A52588   6.571  36.647   6.500
 4022POPC   C3A52589   6.382  36.679   6.920
 4022POPC   C4A52590   6.517  36.866   7.278
 4022POPC   C1B52591   6.970  36.879   6.219
 4022POPC   C2B52592   6.941  36.985   6.689
 4022POPC   C3B52593   7.013  36.997   7.177
 4022POPC   C4B52594   7.082  37.293   7.542
 4023POPC   NC352595  17.032  10.322   5.496
 4023POPC   PO452596  16.512  10.728   5.513
 4023POPC   GL152597  16.727  10.638   5.894
 4023POPC   GL252598  16.710  10.297   5.898
 4023POPC   C1A52599  16.661  10.678   6.356
 4023POPC   D2A52600  16.443  10.802   6.736
 4023POPC   C3A52601  16.662  10.750   7.115
 4023POPC   C4A52602  16.791  10.618   7.538
 4023POPC   C1B52603  16.403  10.264   6.249
 4023POPC   C2B52604  16.510  10.292   6.716
 4023POPC   C3B52605  16.739  10.263   7.128
 4023POPC   C4B52606  16.709  10.114   7.550
 4024POPC   NC352607  28.819  37.484   5.490
 4024POPC   PO452608  29.478  37.523   5.550
 4024POPC   GL152609  29.206  37.583   5.901
 4024POPC   GL252610  28.879  37.795   5.918
 4024POPC   C1A52611  29.221  37.647   6.344
 4024POPC   D2A52612  29.181  37.989   6.639
 4024POPC   C3A52613  29.252  37.913   7.041
 4024POPC   C4A52614  29.181  37.550   7.241
 4024POPC   C1B52615  28.785  37.420   6.151
 4024POPC   C2B52616  28.919  37.210   6.534
 4024POPC   C3B52617  28.855  37.295   6.951
 4024POPC   C4B52618  28.651  37.566   7.236
 4025POPC   NC352619   9.258  12.279   5.531
 4025POPC   PO452620   8.714  11.870   5.400
 4025POPC   GL152621   9.014  11.882   5.735
 4025POPC   GL252622   8.841  12.172   5.836
 4025POPC   C1A52623   9.121  12.028   6.215
 4025POPC   D2A52624   8.897  12.159   6.620
 4025POPC   C3A52625   8.976  12.043   7.053
 4025POPC   C4A52626   9.300  11.787   7.236
 4025POPC   C1B52627   8.575  12.167   6.189
 4025POPC   C2B52628   8.485  12.419   6.526
 4025POPC   C3B52629   8.569  12.370   6.964
 4025POPC   C4B52630   8.807  12.449   7.357
 4026POPC   NC352631  14.871  22.137   5.381
 4026POPC   PO452632  14.399  22.567   5.512
 4026POPC   GL152633  14.568  22.232   5.782
 4026POPC   GL252634  14.369  21.925   5.799
 4026POPC   C1A52635  14.726  22.264   6.195
 4026POPC   D2A52636  14.560  22.142   6.601
 4026POPC   C3A52637  14.452  22.473   6.897
 4026POPC   C4A52638  14.618  22.314   7.273
 4026POPC   C1B52639  14.216  22.144   6.171
 4026POPC   C2B52640  14.063  22.287   6.572
 4026POPC   C3B52641  14.143  22.103   6.999
 4026POPC   C4B52642  14.058  22.344   7.368
 4027POPC   NC352643   5.253  10.814   5.440
 4027POPC   PO452644   4.691  10.430   5.314
 4027POPC   GL152645   4.944  10.415   5.770
 4027POPC   GL252646   5.250  10.559   5.896
 4027POPC   C1A52647   4.918  10.406   6.258
 4027POPC   D2A52648   4.871  10.639   6.671
 4027POPC   C3A52649   4.899  10.507   7.113
 4027POPC   C4A52650   5.193  10.694   7.399
 4027POPC   C1B52651   5.454  10.286   6.194
 4027POPC   C2B52652   5.400  10.098   6.614
 4027POPC   C3B52653   5.357  10.292   7.014
 4027POPC   C4B52654   5.457  10.278   7.436
 4028POPC   NC352655  29.870  20.759   5.134
 4028POPC   PO452656  29.537  20.348   5.586
 4028POPC   GL152657  29.893  20.584   5.739
 4028POPC   GL252658  30.247  20.647   5.616
 4028POPC   C1A52659  29.915  20.719   6.161
 4028POPC   D2A52660  30.056  20.825   6.572
 4028POPC   C3A52661  29.864  20.808   6.963
 4028POPC   C4A52662  30.082  21.030   7.295
 4028POPC   C1B52663  30.338  20.451   6.043
 4028POPC   C2B52664  30.164  20.307   6.469
 4028POPC   C3B52665  30.239  20.419   6.896
 4028POPC   C4B52666  30.100  20.507   7.304
 4029POPC   NC352667  43.829  14.577   5.413
 4029POPC   PO452668  43.919  13.924   5.580
 4029POPC   GL152669  43.826  14.255   5.809
 4029POPC   GL252670  43.519  14.436   5.802
 4029POPC   C1A52671  44.042  14.490   6.114
 4029POPC   D2A52672  44.271  14.580   6.494
 4029POPC   C3A52673  43.990  14.619   6.858
 4029POPC   C4A52674  44.021  14.365   7.220
 4029POPC   C1B52675  43.553  14.627   6.181
 4029POPC   C2B52676  43.657  14.840   6.523
 4029POPC   C3B52677  43.473  14.768   6.888
 4029POPC   C4B52678  43.537  14.493   7.161
 4030POPC   NC352679  24.533  22.489   5.342
 4030POPC   PO452680  24.510  21.831   5.179
 4030POPC   GL152681  24.440  22.009   5.631
 4030POPC   GL252682  24.329  22.354   5.792
 4030POPC   C1A52683  24.655  21.946   6.059
 4030POPC   D2A52684  24.741  22.120   6.483
 4030POPC   C3A52685  24.457  21.985   6.812
 4030POPC   C4A52686  24.426  21.830   7.261
 4030POPC   C1B52687  24.676  22.478   6.093
 4030POPC   C2B52688  24.758  22.623   6.543
 4030POPC   C3B52689  24.495  22.535   6.878
 4030POPC   C4B52690  24.417  22.344   7.245
 4031POPC   NC352691  30.586  10.221   5.602
 4031POPC   PO452692  30.943  10.571   5.135
 4031POPC   GL152693  30.939  10.768   5.627
 4031POPC   GL252694  30.653  10.683   5.810
 4031POPC   C1A52695  31.084  10.697   6.131
 4031POPC   D2A52696  30.928  10.705   6.579
 4031POPC   C3A52697  31.031  10.931   6.968
 4031POPC   C4A52698  30.841  10.612   7.266
 4031POPC   C1B52699  30.584  10.545   6.229
 4031POPC   C2B52700  30.350  10.446   6.605
 4031POPC   C3B52701  30.404  10.339   7.059
 4031POPC   C4B52702  30.350  10.649   7.388
 4032POPC   NC352703  26.700  24.614   5.244
 4032POPC   PO452704  26.544  24.017   5.476
 4032POPC   GL152705  26.671  24.132   5.872
 4032POPC   GL252706  27.025  24.129   5.801
 4032POPC   C1A52707  26.685  24.336   6.278
 4032POPC   D2A52708  26.759  24.697   6.507
 4032POPC   C3A52709  26.573  24.690   6.893
 4032POPC   C4A52710  26.543  24.391   7.224
 4032POPC   C1B52711  27.146  24.133   6.222
 4032POPC   C2B52712  27.216  24.420   6.606
 4032POPC   C3B52713  27.023  24.425   7.034
 4032POPC   C4B52714  27.075  24.377   7.503
 4033POPC   NC352715  20.367  10.304   5.546
 4033POPC   PO452716  21.006  10.543   5.780
 4033POPC   GL152717  20.580  10.586   5.923
 4033POPC   GL252718  20.564  10.251   5.997
 4033POPC   C1A52719  20.358  10.543   6.344
 4033POPC   D2A52720  20.553  10.354   6.721
 4033POPC   C3A52721  20.583  10.638   7.038
 4033POPC   C4A52722  20.564  10.519   7.437
 4033POPC   C1B52723  20.872  10.213   6.333
 4033POPC   C2B52724  21.057  10.129   6.747
 4033POPC   C3B52725  20.883  10.250   7.133
 4033POPC   C4B52726  21.000  10.268   7.570
 4034POPC   NC352727  42.651  10.244   5.295
 4034POPC   PO452728  43.269  10.420   5.180
 4034POPC   GL152729  43.102  10.385   5.618
 4034POPC   GL252730  43.322  10.165   5.782
 4034POPC   C1A52731  43.000  10.565   6.055
 4034POPC   D2A52732  42.706  10.500   6.437
 4034POPC   C3A52733  42.828  10.632   6.876
 4034POPC   C4A52734  43.240  10.695   7.058
 4034POPC   C1B52735  43.450  10.076   6.239
 4034POPC   C2B52736  43.369  10.157   6.713
 4034POPC   C3B52737  43.298  10.181   7.172
 4034POPC   C4B52738  43.165  10.128   7.615
 4035POPC   NC352739  18.814  22.671   5.335
 4035POPC   PO452740  19.437  22.842   5.437
 4035POPC   GL152741  19.150  22.951   5.762
 4035POPC   GL252742  18.821  23.096   5.648
 4035POPC   C1A52743  19.285  22.913   6.179
 4035POPC   D2A52744  19.047  22.971   6.515
 4035POPC   C3A52745  19.158  22.784   6.893
 4035POPC   C4A52746  19.360  22.816   7.280
 4035POPC   C1B52747  18.671  23.047   6.087
 4035POPC   C2B52748  18.654  23.297   6.469
 4035POPC   C3B52749  18.804  23.236   6.878
 4035POPC   C4B52750  18.917  23.058   7.263
 4036POPC   NC352751  40.564  27.622   5.406
 4036POPC   PO452752  41.146  27.236   5.368
 4036POPC   GL152753  40.927  27.404   5.747
 4036POPC   GL252754  40.980  27.737   5.734
 4036POPC   C1A52755  40.693  27.603   6.103
 4036POPC   D2A52756  40.614  27.526   6.491
 4036POPC   C3A52757  40.927  27.601   6.767
 4036POPC   C4A52758  40.757  27.472   7.141
 4036POPC   C1B52759  41.076  27.958   6.149
 4036POPC   C2B52760  41.022  28.113   6.595
 4036POPC   C3B52761  41.152  28.006   7.013
 4036POPC   C4B52762  40.927  27.841   7.427
 4037POPC   NC352763   6.353  37.955   5.566
 4037POPC   PO452764   6.747  37.469   5.427
 4037POPC   GL152765   6.743  37.329   5.802
 4037POPC   GL252766   6.666  37.692   5.870
 4037POPC   C1A52767   6.848  37.366   6.221
 4037POPC   D2A52768   6.667  37.480   6.575
 4037POPC   C3A52769   6.524  37.193   6.876
 4037POPC   C4A52770   6.668  37.367   7.260
 4037POPC   C1B52771   6.609  37.897   6.241
 4037POPC   C2B52772   6.883  37.958   6.561
 4037POPC   C3B52773   6.776  37.818   6.962
 4037POPC   C4B52774   7.020  37.753   7.294
 4038POPC   NC352775   7.319  28.346   5.409
 4038POPC   PO452776   7.171  28.996   5.319
 4038POPC   GL152777   7.261  28.796   5.768
 4038POPC   GL252778   7.575  28.567   5.831
 4038POPC   C1A52779   7.324  28.730   6.250
 4038POPC   D2A52780   7.499  28.557   6.645
 4038POPC   C3A52781   7.183  28.382   6.958
 4038POPC   C4A52782   7.011  28.482   7.364
 4038POPC   C1B52783   7.793  28.311   6.190
 4038POPC   C2B52784   7.853  28.153   6.636
 4038POPC   C3B52785   7.732  28.311   7.049
 4038POPC   C4B52786   7.827  28.120   7.431
 4039POPC   NC352787  40.014   0.414   5.351
 4039POPC   PO452788  39.683  44.965   5.631
 4039POPC   GL152789  39.998   0.161   5.857
 4039POPC   GL252790  40.084   0.525   5.855
 4039POPC   C1A52791  39.861   0.199   6.267
 4039POPC   D2A52792  39.786   0.552   6.508
 4039POPC   C3A52793  39.910   0.483   6.917
 4039POPC   C4A52794  39.769   0.180   7.193
 4039POPC   C1B52795  40.316   0.713   6.207
 4039POPC   C2B52796  40.219   0.831   6.637
 4039POPC   C3B52797  40.371   0.699   7.018
 4039POPC   C4B52798  40.377   0.620   7.478
 4040POPC   NC352799  24.804  26.117   5.495
 4040POPC   PO452800  24.221  25.892   5.503
 4040POPC   GL152801  24.313  26.213   5.834
 4040POPC   GL252802  24.674  26.320   5.950
 4040POPC   C1A52803  24.272  26.127   6.304
 4040POPC   D2A52804  24.222  25.777   6.632
 4040POPC   C3A52805  24.354  25.939   7.055
 4040POPC   C4A52806  24.647  26.313   7.089
 4040POPC   C1B52807  24.803  26.105   6.266
 4040POPC   C2B52808  24.674  26.056   6.652
 4040POPC   C3B52809  24.841  25.844   6.938
 4040POPC   C4B52810  24.813  25.634   7.277
 4041POPC   NC352811  11.973   4.707   5.537
 4041POPC   PO452812  11.892   4.102   5.404
 4041POPC   GL152813  11.925   4.248   5.806
 4041POPC   GL252814  11.967   3.914   5.952
 4041POPC   C1A52815  11.955   4.449   6.222
 4041POPC   D2A52816  11.965   4.234   6.621
 4041POPC   C3A52817  12.131   4.455   6.964
 4041POPC   C4A52818  12.101   4.738   7.296
 4041POPC   C1B52819  12.279   4.030   6.273
 4041POPC   C2B52820  12.520   4.001   6.695
 4041POPC   C3B52821  12.553   4.179   7.125
 4041POPC   C4B52822  12.238   4.242   7.476
 4042POPC   NC352823  24.910  32.421   5.092
 4042POPC   PO452824  25.430  32.690   5.416
 4042POPC   GL152825  25.262  32.419   5.752
 4042POPC   GL252826  25.203  32.055   5.668
 4042POPC   C1A52827  25.265  32.379   6.213
 4042POPC   D2A52828  25.299  32.066   6.551
 4042POPC   C3A52829  25.312  32.341   6.907
 4042POPC   C4A52830  25.195  32.477   7.302
 4042POPC   C1B52831  24.971  31.977   6.099
 4042POPC   C2B52832  24.801  32.030   6.539
 4042POPC   C3B52833  24.973  31.954   6.970
 4042POPC   C4B52834  25.324  31.968   7.270
 4043POPC   NC352835  38.688  16.014   5.445
 4043POPC   PO452836  38.275  15.556   5.224
 4043POPC   GL152837  38.299  15.742   5.671
 4043POPC   GL252838  38.616  15.657   5.807
 4043POPC   C1A52839  38.317  16.081   6.040
 4043POPC   D2A52840  38.304  16.324   6.453
 4043POPC   C3A52841  38.358  16.084   6.852
 4043POPC   C4A52842  38.197  16.146   7.279
 4043POPC   C1B52843  38.797  15.906   6.119
 4043POPC   C2B52844  38.699  15.816   6.507
 4043POPC   C3B52845  38.818  15.800   6.901
 4043POPC   C4B52846  38.577  15.837   7.267
 4044POPC   NC352847  36.452   4.449   5.382
 4044POPC   PO452848  35.957   4.003   5.550
 4044POPC   GL152849  36.169   4.346   5.794
 4044POPC   GL252850  36.471   4.129   5.836
 4044POPC   C1A52851  35.950   4.563   6.172
 4044POPC   D2A52852  35.900   4.840   6.560
 4044POPC   C3A52853  36.037   4.634   6.935
 4044POPC   C4A52854  36.301   4.630   7.253
 4044POPC   C1B52855  36.182   4.095   6.217
 4044POPC   C2B52856  36.023   4.242   6.604
 4044POPC   C3B52857  36.044   4.077   7.019
 4044POPC   C4B52858  36.142   4.177   7.398
 4045POPC   NC352859   2.683  34.691   5.123
 4045POPC   PO452860   2.907  34.137   5.520
 4045POPC   GL152861   2.793  34.474   5.814
 4045POPC   GL252862   2.542  34.714   5.844
 4045POPC   C1A52863   2.696  34.492   6.277
 4045POPC   D2A52864   2.569  34.244   6.631
 4045POPC   C3A52865   2.592  34.444   7.027
 4045POPC   C4A52866   2.944  34.638   7.225
 4045POPC   C1B52867   2.757  35.015   6.164
 4045POPC   C2B52868   2.757  35.000   6.647
 4045POPC   C3B52869   2.648  35.032   7.114
 4045POPC   C4B52870   2.843  35.016   7.572
 4046POPC   NC352871  10.862  28.597   5.419
 4046POPC   PO452872  11.512  28.313   5.425
 4046POPC   GL152873  11.363  28.289   5.849
 4046POPC   GL252874  11.201  28.636   5.846
 4046POPC   C1A52875  11.489  28.140   6.291
 4046POPC   D2A52876  11.389  28.315   6.713
 4046POPC   C3A52877  11.585  28.168   7.108
 4046POPC   C4A52878  11.554  28.174   7.562
 4046POPC   C1B52879  11.122  28.495   6.268
 4046POPC   C2B52880  10.824  28.430   6.579
 4046POPC   C3B52881  10.941  28.348   6.976
 4046POPC   C4B52882  11.200  28.537   7.253
 4047POPC   NC352883  15.360  25.700   5.182
 4047POPC   PO452884  14.850  26.108   5.306
 4047POPC   GL152885  15.186  26.094   5.651
 4047POPC   GL252886  15.074  25.798   5.753
 4047POPC   C1A52887  15.324  26.067   6.124
 4047POPC   D2A52888  15.103  26.156   6.534
 4047POPC   C3A52889  15.247  26.048   6.977
 4047POPC   C4A52890  15.484  26.015   7.377
 4047POPC   C1B52891  14.869  25.860   6.160
 4047POPC   C2B52892  14.862  25.665   6.546
 4047POPC   C3B52893  15.034  25.569   6.923
 4047POPC   C4B52894  14.968  25.736   7.312
 4048POPC   NC352895   4.767  37.918   5.306
 4048POPC   PO452896   5.322  37.628   5.295
 4048POPC   GL152897   5.061  37.707   5.684
 4048POPC   GL252898   4.801  37.456   5.618
 4048POPC   C1A52899   5.006  37.833   6.149
 4048POPC   D2A52900   4.885  37.961   6.595
 4048POPC   C3A52901   5.193  37.831   6.939
 4048POPC   C4A52902   5.284  37.394   7.085
 4048POPC   C1B52903   4.824  37.336   6.032
 4048POPC   C2B52904   4.718  37.342   6.460
 4048POPC   C3B52905   4.863  37.198   6.849
 4048POPC   C4B52906   4.715  37.308   7.225
 4049POPC   NC352907   4.698  30.847   5.568
 4049POPC   PO452908   5.191  30.535   5.327
 4049POPC   GL152909   5.205  30.697   5.749
 4049POPC   GL252910   5.409  30.428   5.806
 4049POPC   C1A52911   5.046  30.875   6.150
 4049POPC   D2A52912   4.999  31.128   6.538
 4049POPC   C3A52913   5.111  30.892   6.900
 4049POPC   C4A52914   5.122  30.804   7.344
 4049POPC   C1B52915   5.172  30.377   6.201
 4049POPC   C2B52916   5.262  30.452   6.631
 4049POPC   C3B52917   5.222  30.388   7.054
 4049POPC   C4B52918   5.162  30.317   7.457
 4050POPC   NC352919  23.863  17.527   5.425
 4050POPC   PO452920  23.259  17.893   5.392
 4050POPC   GL152921  23.473  17.672   5.754
 4050POPC   GL252922  23.787  17.820   5.817
 4050POPC   C1A52923  23.641  17.481   6.157
 4050POPC   D2A52924  23.867  17.255   6.476
 4050POPC   C3A52925  23.596  17.304   6.815
 4050POPC   C4A52926  23.630  17.502   7.194
 4050POPC   C1B52927  23.936  17.974   6.188
 4050POPC   C2B52928  23.814  17.786   6.575
 4050POPC   C3B52929  23.797  17.943   6.980
 4050POPC   C4B52930  23.967  18.257   7.290
 4051POPC   NC352931  17.801   2.018   5.368
 4051POPC   PO452932  17.147   2.025   5.079
 4051POPC   GL152933  17.339   1.918   5.563
 4051POPC   GL252934  17.075   1.751   5.728
 4051POPC   C1A52935  17.415   1.944   6.071
 4051POPC   D2A52936  17.697   1.950   6.486
 4051POPC   C3A52937  17.602   1.988   6.946
 4051POPC   C4A52938  17.686   2.162   7.408
 4051POPC   C1B52939  16.962   1.661   6.147
 4051POPC   C2B52940  17.170   1.692   6.535
 4051POPC   C3B52941  17.065   1.810   6.926
 4051POPC   C4B52942  17.234   1.927   7.269
 4052POPC   NC352943  22.662  29.721   5.583
 4052POPC   PO452944  22.635  29.038   5.384
 4052POPC   GL152945  22.946  29.184   5.713
 4052POPC   GL252946  22.718  29.343   5.920
 4052POPC   C1A52947  23.067  29.065   6.170
 4052POPC   D2A52948  22.849  29.027   6.583
 4052POPC   C3A52949  23.054  29.063   6.985
 4052POPC   C4A52950  22.815  28.883   7.319
 4052POPC   C1B52951  22.812  29.522   6.323
 4052POPC   C2B52952  22.863  29.520   6.766
 4052POPC   C3B52953  22.719  29.385   7.191
 4052POPC   C4B52954  22.630  29.269   7.650
 4053POPC   NC352955  10.330  38.215   5.429
 4053POPC   PO452956  10.839  38.661   5.575
 4053POPC   GL152957  10.636  38.322   5.819
 4053POPC   GL252958  10.327  38.426   5.951
 4053POPC   C1A52959  10.721  38.223   6.249
 4053POPC   D2A52960  10.800  38.491   6.567
 4053POPC   C3A52961  10.621  38.407   6.947
 4053POPC   C4A52962  10.223  38.466   7.115
 4053POPC   C1B52963  10.373  38.656   6.338
 4053POPC   C2B52964  10.222  38.861   6.723
 4053POPC   C3B52965  10.036  38.944   7.137
 4053POPC   C4B52966  10.226  38.785   7.555
 4054POPC   NC352967  12.475  29.008   5.240
 4054POPC   PO452968  11.875  29.237   5.542
 4054POPC   GL152969  12.268  29.183   5.773
 4054POPC   GL252970  12.459  28.862   5.721
 4054POPC   C1A52971  12.118  29.275   6.201
 4054POPC   D2A52972  11.933  29.332   6.638
 4054POPC   C3A52973  11.822  29.050   7.014
 4054POPC   C4A52974  11.772  29.111   7.507
 4054POPC   C1B52975  12.552  28.966   6.153
 4054POPC   C2B52976  12.458  29.185   6.550
 4054POPC   C3B52977  12.358  29.084   6.935
 4054POPC   C4B52978  12.241  29.040   7.326
 4055POPC   NC352979   5.645  30.714   5.412
 4055POPC   PO452980   6.347  30.926   5.428
 4055POPC   GL152981   6.014  30.803   5.764
 4055POPC   GL252982   5.684  30.934   5.875
 4055POPC   C1A52983   6.059  30.648   6.210
 4055POPC   D2A52984   6.137  30.394   6.579
 4055POPC   C3A52985   6.090  30.608   6.950
 4055POPC   C4A52986   6.032  30.834   7.293
 4055POPC   C1B52987   5.553  30.702   6.215
 4055POPC   C2B52988   5.702  30.718   6.612
 4055POPC   C3B52989   5.595  30.794   7.026
 4055POPC   C4B52990   5.590  30.587   7.388
 4056POPC   NC352991  43.455  43.599   5.456
 4056POPC   PO452992  43.717  42.969   5.361
 4056POPC   GL152993  43.882  43.066   5.766
 4056POPC   GL252994  43.731  43.342   5.844
 4056POPC   C1A52995  44.072  43.203   6.182
 4056POPC   D2A52996  44.146  43.292   6.616
 4056POPC   C3A52997  44.062  43.024   6.979
 4056POPC   C4A52998  44.102  43.237   7.349
 4056POPC   C1B52999  43.566  43.024   6.153
 4056POPC   C2B53000  43.378  42.890   6.527
 4056POPC   C3B53001  43.543  43.000   6.927
 4056POPC   C4B53002  43.649  43.000   7.326
 4057POPC   NC353003  34.326  29.285   5.457
 4057POPC   PO453004  33.683  29.151   5.442
 4057POPC   GL153005  33.913  29.099   5.791
 4057POPC   GL253006  34.157  28.900   5.830
 4057POPC   C1A53007  33.768  29.067   6.182
 4057POPC   D2A53008  33.859  29.208   6.549
 4057POPC   C3A53009  33.613  29.278   6.893
 4057POPC   C4A53010  33.704  29.246   7.310
 4057POPC   C1B53011  34.109  28.700   6.208
 4057POPC   C2B53012  34.227  28.850   6.572
 4057POPC   C3B53013  34.015  28.919   6.927
 4057POPC   C4B53014  33.981  28.747   7.301
 4058POPC   NC353015  20.192  11.274   5.380
 4058POPC   PO453016  19.519  11.448   5.428
 4058POPC   GL153017  19.805  11.280   5.743
 4058POPC   GL253018  19.787  10.947   5.655
 4058POPC   C1A53019  19.987  11.177   6.168
 4058POPC   D2A53020  20.092  11.401   6.549
 4058POPC   C3A53021  19.864  11.278   6.937
 4058POPC   C4A53022  19.943  11.313   7.410
 4058POPC   C1B53023  19.523  10.987   6.043
 4058POPC   C2B53024  19.648  10.858   6.447
 4058POPC   C3B53025  19.679  10.780   6.866
 4058POPC   C4B53026  19.617  10.945   7.251
 4059POPC   NC353027  13.081  17.811   5.443
 4059POPC   PO453028  12.567  17.300   5.440
 4059POPC   GL153029  12.893  17.428   5.716
 4059POPC   GL253030  12.738  17.735   5.823
 4059POPC   C1A53031  13.074  17.389   6.120
 4059POPC   D2A53032  13.242  17.236   6.487
 4059POPC   C3A53033  13.225  17.291   6.931
 4059POPC   C4A53034  12.936  17.123   7.236
 4059POPC   C1B53035  12.842  17.839   6.234
 4059POPC   C2B53036  12.963  17.669   6.656
 4059POPC   C3B53037  12.863  17.610   7.111
 4059POPC   C4B53038  12.639  17.881   7.372
 4060POPC   NC353039  29.253  39.566   5.202
 4060POPC   PO453040  29.298  38.978   5.574
 4060POPC   GL153041  29.040  39.143   5.873
 4060POPC   GL253042  28.739  38.936   5.876
 4060POPC   C1A53043  29.230  39.240   6.280
 4060POPC   D2A53044  29.367  38.984   6.626
 4060POPC   C3A53045  29.298  39.175   7.026
 4060POPC   C4A53046  29.095  39.135   7.419
 4060POPC   C1B53047  28.726  39.122   6.285
 4060POPC   C2B53048  28.897  39.220   6.681
 4060POPC   C3B53049  28.785  39.379   7.065
 4060POPC   C4B53050  28.797  39.722   7.329
 4061POPC   NC353051  18.084   2.737   5.217
 4061POPC   PO453052  18.703   2.915   5.116
 4061POPC   GL153053  18.525   2.833   5.601
 4061POPC   GL253054  18.183   2.943   5.704
 4061POPC   C1A53055  18.467   2.674   6.087
 4061POPC   D2A53056  18.518   2.843   6.561
 4061POPC   C3A53057  18.306   2.766   6.980
 4061POPC   C4A53058  18.252   2.458   7.309
 4061POPC   C1B53059  18.052   2.995   6.152
 4061POPC   C2B53060  17.983   2.824   6.569
 4061POPC   C3B53061  17.818   2.541   6.897
 4061POPC   C4B53062  17.800   2.743   7.266
 4062POPC   NC353063   0.859  13.112   5.379
 4062POPC   PO453064   1.325  12.652   5.439
 4062POPC   GL153065   1.177  12.692   5.873
 4062POPC   GL253066   0.841  12.635   5.867
 4062POPC   C1A53067   1.136  12.864   6.318
 4062POPC   D2A53068   1.261  13.033   6.725
 4062POPC   C3A53069   1.345  12.919   7.157
 4062POPC   C4A53070   1.223  13.218   7.449
 4062POPC   C1B53071   0.826  12.467   6.291
 4062POPC   C2B53072   0.899  12.619   6.720
 4062POPC   C3B53073   0.964  12.580   7.129
 4062POPC   C4B53074   0.999  12.719   7.548
 4063POPC   NC353075   1.304   7.723   5.668
 4063POPC   PO453076   1.161   8.294   5.246
 4063POPC   GL153077   1.313   8.414   5.657
 4063POPC   GL253078   1.589   8.260   5.775
 4063POPC   C1A53079   1.278   8.487   6.128
 4063POPC   D2A53080   1.051   8.190   6.421
 4063POPC   C3A53081   1.069   8.227   6.867
 4063POPC   C4A53082   0.926   7.965   7.182
 4063POPC   C1B53083   1.553   8.058   6.216
 4063POPC   C2B53084   1.533   8.093   6.646
 4063POPC   C3B53085   1.683   7.926   7.022
 4063POPC   C4B53086   1.401   7.785   7.334
 4064POPC   NC353087  40.293  44.291   5.363
 4064POPC   PO453088  40.087  44.976   5.231
 4064POPC   GL153089  40.213  44.755   5.623
 4064POPC   GL253090  39.984  44.486   5.738
 4064POPC   C1A53091  40.210  44.741   6.099
 4064POPC   D2A53092  40.177  44.394   6.413
 4064POPC   C3A53093  40.099  44.574   6.823
 4064POPC   C4A53094  40.024  44.739   7.224
 4064POPC   C1B53095  39.720  44.513   6.149
 4064POPC   C2B53096  39.523  44.739   6.523
 4064POPC   C3B53097  39.576  44.750   6.973
 4064POPC   C4B53098  39.642  44.389   7.260
 4065POPC   NC353099   2.252  33.415   5.437
 4065POPC   PO453100   1.917  34.001   5.475
 4065POPC   GL153101   2.008  33.949   5.834
 4065POPC   GL253102   1.969  33.565   5.885
 4065POPC   C1A53103   1.809  33.959   6.189
 4065POPC   D2A53104   1.726  33.584   6.378
 4065POPC   C3A53105   1.760  33.637   6.799
 4065POPC   C4A53106   1.792  33.942   7.125
 4065POPC   C1B53107   2.238  33.494   6.292
 4065POPC   C2B53108   2.259  33.475   6.763
 4065POPC   C3B53109   2.059  33.494   7.191
 4065POPC   C4B53110   2.259  33.423   7.585
 4066POPC   NC353111  17.203  34.105   5.345
 4066POPC   PO453112  17.706  33.625   5.482
 4066POPC   GL153113  17.529  33.901   5.777
 4066POPC   GL253114  17.284  33.688   5.915
 4066POPC   C1A53115  17.470  34.036   6.233
 4066POPC   D2A53116  17.308  33.928   6.663
 4066POPC   C3A53117  17.582  33.821   7.014
 4066POPC   C4A53118  17.797  34.137   7.272
 4066POPC   C1B53119  17.309  33.511   6.342
 4066POPC   C2B53120  17.286  33.428   6.799
 4066POPC   C3B53121  17.367  33.261   7.222
 4066POPC   C4B53122  17.225  33.442   7.671
 4067POPC   NC353123   7.788  30.995   5.284
 4067POPC   PO453124   7.700  31.727   5.432
 4067POPC   GL153125   7.638  31.541   5.835
 4067POPC   GL253126   7.622  31.220   5.729
 4067POPC   C1A53127   7.348  31.415   6.163
 4067POPC   D2A53128   7.107  31.320   6.531
 4067POPC   C3A53129   7.213  31.560   6.930
 4067POPC   C4A53130   6.946  31.899   7.170
 4067POPC   C1B53131   7.769  31.122   6.151
 4067POPC   C2B53132   7.596  31.176   6.584
 4067POPC   C3B53133   7.749  31.147   7.023
 4067POPC   C4B53134   7.784  31.480   7.334
 4068POPC   NC353135  13.842  44.320   5.346
 4068POPC   PO453136  13.462  44.780   5.290
 4068POPC   GL153137  13.639  44.623   5.680
 4068POPC   GL253138  13.799  44.881   5.823
 4068POPC   C1A53139  13.784  44.398   6.032
 4068POPC   D2A53140  14.083  44.384   6.352
 4068POPC   C3A53141  13.909  44.556   6.718
 4068POPC   C4A53142  13.766  44.550   7.134
 4068POPC   C1B53143  13.882  44.860   6.278
 4068POPC   C2B53144  13.760   0.059   6.678
 4068POPC   C3B53145  13.996   0.149   7.072
 4068POPC   C4B53146  14.041  44.900   7.444
 4069POPC   NC353147  19.313   9.045   4.893
 4069POPC   PO453148  19.136   8.625   5.470
 4069POPC   GL153149  18.856   8.759   5.839
 4069POPC   GL253150  18.773   9.150   5.892
 4069POPC   C1A53151  19.071   8.835   6.259
 4069POPC   D2A53152  19.277   8.681   6.652
 4069POPC   C3A53153  19.290   8.962   7.023
 4069POPC   C4A53154  19.153   8.873   7.449
 4069POPC   C1B53155  18.876   9.300   6.306
 4069POPC   C2B53156  18.830   9.025   6.675
 4069POPC   C3B53157  18.771   9.034   7.103
 4069POPC   C4B53158  18.612   9.435   7.203
 4070POPC   NC353159  21.529  34.397   5.343
 4070POPC   PO453160  21.049  34.819   5.479
 4070POPC   GL153161  21.138  34.631   5.841
 4070POPC   GL253162  21.503  34.516   5.858
 4070POPC   C1A53163  21.157  34.434   6.227
 4070POPC   D2A53164  21.438  34.586   6.559
 4070POPC   C3A53165  21.318  34.464   6.964
 4070POPC   C4A53166  21.283  34.684   7.351
 4070POPC   C1B53167  21.620  34.220   6.233
 4070POPC   C2B53168  21.653  34.137   6.719
 4070POPC   C3B53169  21.613  34.117   7.218
 4070POPC   C4B53170  21.572  34.045   7.693
 4071POPC   NC353171  19.401  10.049   5.589
 4071POPC   PO453172  18.997   9.522   5.436
 4071POPC   GL153173  19.092   9.567   5.857
 4071POPC   GL253174  19.431   9.446   5.823
 4071POPC   C1A53175  19.227   9.701   6.262
 4071POPC   D2A53176  19.394   9.811   6.659
 4071POPC   C3A53177  19.069   9.982   6.909
 4071POPC   C4A53178  18.930   9.825   7.275
 4071POPC   C1B53179  19.579   9.331   6.242
 4071POPC   C2B53180  19.308   9.266   6.590
 4071POPC   C3B53181  19.057   9.445   6.923
 4071POPC   C4B53182  19.154   9.382   7.367
 4072POPC   NC353183   6.374  33.574   5.489
 4072POPC   PO453184   6.920  33.995   5.323
 4072POPC   GL153185   6.728  33.879   5.675
 4072POPC   GL253186   6.871  33.555   5.705
 4072POPC   C1A53187   6.540  33.986   6.077
 4072POPC   D2A53188   6.315  34.023   6.491
 4072POPC   C3A53189   6.591  33.845   6.822
 4072POPC   C4A53190   6.789  33.810   7.236
 4072POPC   C1B53191   6.700  33.480   6.118
 4072POPC   C2B53192   6.662  33.389   6.569
 4072POPC   C3B53193   6.515  33.390   7.037
 4072POPC   C4B53194   6.691  33.353   7.479
 4073POPC   NC353195  44.953  42.129   5.576
 4073POPC   PO453196   0.441  42.524   5.335
 4073POPC   GL153197   0.446  42.302   5.745
 4073POPC   GL253198   0.688  42.046   5.800
 4073POPC   C1A53199   0.411  42.305   6.217
 4073POPC   D2A53200   0.380  42.507   6.640
 4073POPC   C3A53201   0.138  42.236   6.902
 4073POPC   C4A53202   0.113  42.152   7.335
 4073POPC   C1B53203   0.707  41.874   6.214
 4073POPC   C2B53204   0.565  41.946   6.635
 4073POPC   C3B53205   0.619  42.172   7.032
 4073POPC   C4B53206   0.606  42.018   7.446
 4074POPC   NC353207  20.549  20.843   5.407
 4074POPC   PO453208  20.332  21.563   5.365
 4074POPC   GL153209  20.560  21.538   5.782
 4074POPC   GL253210  20.927  21.507   5.857
 4074POPC   C1A53211  20.597  21.493   6.237
 4074POPC   D2A53212  20.350  21.330   6.555
 4074POPC   C3A53213  20.545  21.391   6.905
 4074POPC   C4A53214  20.464  21.205   7.272
 4074POPC   C1B53215  21.134  21.245   6.208
 4074POPC   C2B53216  21.197  20.990   6.583
 4074POPC   C3B53217  20.912  21.046   6.965
 4074POPC   C4B53218  20.918  21.450   7.245
 4075POPC   NC353219  16.334  10.288   5.484
 4075POPC   PO453220  15.939  10.715   5.181
 4075POPC   GL153221  15.895  10.631   5.639
 4075POPC   GL253222  16.180  10.601   5.872
 4075POPC   C1A53223  15.718  10.685   6.079
 4075POPC   D2A53224  16.053  10.682   6.378
 4075POPC   C3A53225  15.919  10.734   6.788
 4075POPC   C4A53226  16.153  10.646   7.154
 4075POPC   C1B53227  15.930  10.237   6.036
 4075POPC   C2B53228  15.906  10.199   6.490
 4075POPC   C3B53229  15.858  10.234   6.949
 4075POPC   C4B53230  16.241  10.137   7.178
 4076POPC   NC353231  27.555  32.567   5.362
 4076POPC   PO453232  27.751  31.986   5.581
 4076POPC   GL153233  27.502  32.178   5.868
 4076POPC   GL253234  27.452  32.498   5.851
 4076POPC   C1A53235  27.554  32.257   6.294
 4076POPC   D2A53236  27.578  31.997   6.629
 4076POPC   C3A53237  27.620  32.195   7.018
 4076POPC   C4A53238  27.992  32.286   7.281
 4076POPC   C1B53239  27.295  32.704   6.202
 4076POPC   C2B53240  27.493  32.743   6.580
 4076POPC   C3B53241  27.378  32.669   6.973
 4076POPC   C4B53242  27.588  32.598   7.346
 4077POPC   NC353243  33.712  11.893   5.332
 4077POPC   PO453244  33.710  12.602   5.191
 4077POPC   GL153245  33.757  12.282   5.642
 4077POPC   GL253246  33.506  12.073   5.793
 4077POPC   C1A53247  33.959  11.962   5.987
 4077POPC   D2A53248  33.784  11.825   6.398
 4077POPC   C3A53249  34.041  11.838   6.808
 4077POPC   C4A53250  34.109  11.841   7.284
 4077POPC   C1B53251  33.665  12.327   6.171
 4077POPC   C2B53252  33.825  12.346   6.575
 4077POPC   C3B53253  33.683  12.306   6.974
 4077POPC   C4B53254  33.614  11.932   7.192
 4078POPC   NC353255  10.091   6.112   5.468
 4078POPC   PO453256  10.509   5.688   5.366
 4078POPC   GL153257  10.459   5.945   5.785
 4078POPC   GL253258  10.814   6.061   5.813
 4078POPC   C1A53259  10.284   6.010   6.241
 4078POPC   D2A53260  10.295   5.820   6.663
 4078POPC   C3A53261  10.298   5.895   7.103
 4078POPC   C4A53262  10.254   5.942   7.559
 4078POPC   C1B53263  10.774   5.834   6.209
 4078POPC   C2B53264  10.717   6.089   6.551
 4078POPC   C3B53265  10.754   6.111   6.997
 4078POPC   C4B53266  10.742   5.878   7.397
 4079POPC   NC353267   7.021  40.975   5.372
 4079POPC   PO453268   6.825  40.364   5.229
 4079POPC   GL153269   6.808  40.563   5.698
 4079POPC   GL253270   6.667  40.907   5.837
 4079POPC   C1A53271   6.840  40.584   6.192
 4079POPC   D2A53272   7.037  40.739   6.592
 4079POPC   C3A53273   6.953  40.545   6.996
 4079POPC   C4A53274   6.792  40.824   7.236
 4079POPC   C1B53275   6.353  40.783   6.200
 4079POPC   C2B53276   6.389  40.677   6.642
 4079POPC   C3B53277   6.343  40.922   7.016
 4079POPC   C4B53278   6.344  40.847   7.464
 4080POPC   NC353279  10.905  42.024   5.436
 4080POPC   PO453280  10.275  42.139   5.392
 4080POPC   GL153281  10.516  42.186   5.758
 4080POPC   GL253282  10.671  42.535   5.785
 4080POPC   C1A53283  10.398  42.319   6.174
 4080POPC   D2A53284  10.470  42.542   6.542
 4080POPC   C3A53285  10.430  42.280   6.886
 4080POPC   C4A53286  10.153  42.236   7.225
 4080POPC   C1B53287  10.892  42.549   6.213
 4080POPC   C2B53288  10.964  42.615   6.669
 4080POPC   C3B53289  10.648  42.733   6.989
 4080POPC   C4B53290  10.326  42.735   7.307
 4081POPC   NC353291   7.618  20.494   5.453
 4081POPC   PO453292   7.313  21.120   5.330
 4081POPC   GL153293   7.231  20.756   5.682
 4081POPC   GL253294   7.557  20.673   5.927
 4081POPC   C1A53295   7.093  20.546   6.101
 4081POPC   D2A53296   7.382  20.537   6.458
 4081POPC   C3A53297   7.244  20.573   6.889
 4081POPC   C4A53298   7.238  20.377   7.294
 4081POPC   C1B53299   7.757  20.298   6.184
 4081POPC   C2B53300   7.677  20.112   6.598
 4081POPC   C3B53301   7.684  20.279   7.017
 4081POPC   C4B53302   7.668  20.668   7.274
 4082POPC   NC353303   2.111  38.578   5.202
 4082POPC   PO453304   1.752  38.821   5.619
 4082POPC   GL153305   2.066  38.700   5.893
 4082POPC   GL253306   2.083  38.353   5.867
 4082POPC   C1A53307   2.046  38.590   6.327
 4082POPC   D2A53308   2.077  38.812   6.688
 4082POPC   C3A53309   1.862  38.631   7.018
 4082POPC   C4A53310   1.909  38.350   7.357
 4082POPC   C1B53311   2.373  38.199   6.210
 4082POPC   C2B53312   2.336  38.292   6.649
 4082POPC   C3B53313   2.228  38.084   7.029
 4082POPC   C4B53314   2.501  38.291   7.299
 4083POPC   NC353315  37.727  37.063   5.499
 4083POPC   PO453316  38.241  36.503   5.420
 4083POPC   GL153317  37.883  36.588   5.733
 4083POPC   GL253318  38.026  36.880   5.876
 4083POPC   C1A53319  37.622  36.718   6.137
 4083POPC   D2A53320  37.495  36.534   6.542
 4083POPC   C3A53321  37.396  36.747   6.924
 4083POPC   C4A53322  37.749  36.796   7.164
 4083POPC   C1B53323  38.036  36.982   6.331
 4083POPC   C2B53324  37.746  37.007   6.648
 4083POPC   C3B53325  37.555  37.285   6.934
 4083POPC   C4B53326  37.772  37.321   7.291
 4084POPC   NC353327   4.585   1.483   5.242
 4084POPC   PO453328   5.230   1.234   5.262
 4084POPC   GL153329   4.956   1.159   5.653
 4084POPC   GL253330   5.027   0.857   5.870
 4084POPC   C1A53331   4.785   1.236   6.104
 4084POPC   D2A53332   4.717   1.024   6.533
 4084POPC   C3A53333   4.744   1.191   6.968
 4084POPC   C4A53334   5.014   1.184   7.348
 4084POPC   C1B53335   5.116   0.779   6.322
 4084POPC   C2B53336   5.187   0.948   6.773
 4084POPC   C3B53337   5.486   1.074   7.120
 4084POPC   C4B53338   5.867   1.262   7.329
 4085POPC   NC353339  18.585  43.536   5.422
 4085POPC   PO453340  18.092  44.003   5.408
 4085POPC   GL153341  18.239  43.803   5.749
 4085POPC   GL253342  18.565  43.931   5.811
 4085POPC   C1A53343  18.273  43.676   6.175
 4085POPC   D2A53344  18.475  43.640   6.581
 4085POPC   C3A53345  18.323  43.869   6.935
 4085POPC   C4A53346  18.238  43.645   7.331
 4085POPC   C1B53347  18.643  44.269   6.137
 4085POPC   C2B53348  18.661  44.192   6.588
 4085POPC   C3B53349  18.647  44.278   7.020
 4085POPC   C4B53350  18.600  44.008   7.373
 4086POPC   NC353351  11.604  40.291   5.473
 4086POPC   PO453352  11.215  40.768   5.271
 4086POPC   GL153353  11.166  40.674   5.702
 4086POPC   GL253354  11.480  40.825   5.747
 4086POPC   C1A53355  11.099  40.956   6.077
 4086POPC   D2A53356  11.398  41.157   6.363
 4086POPC   C3A53357  11.345  41.022   6.811
 4086POPC   C4A53358  11.229  41.097   7.244
 4086POPC   C1B53359  11.615  40.739   6.175
 4086POPC   C2B53360  11.300  40.612   6.472
 4086POPC   C3B53361  11.143  40.536   6.879
 4086POPC   C4B53362  11.418  40.580   7.245
 4087POPC   NC353363  28.412  26.119   4.938
 4087POPC   PO453364  28.691  26.282   5.576
 4087POPC   GL153365  28.574  26.246   5.961
 4087POPC   GL253366  28.243  26.189   5.913
 4087POPC   C1A53367  28.493  26.172   6.380
 4087POPC   D2A53368  28.647  25.934   6.703
 4087POPC   C3A53369  28.373  26.107   6.984
 4087POPC   C4A53370  28.455  26.144   7.395
 4087POPC   C1B53371  28.052  26.423   6.229
 4087POPC   C2B53372  27.888  26.243   6.584
 4087POPC   C3B53373  27.926  26.376   6.995
 4087POPC   C4B53374  27.990  26.352   7.401
 4088POPC   NC353375   3.349  34.198   5.669
 4088POPC   PO453376   3.613  34.841   5.599
 4088POPC   GL153377   3.280  34.654   5.937
 4088POPC   GL253378   3.163  34.306   6.123
 4088POPC   C1A53379   3.152  34.750   6.374
 4088POPC   D2A53380   3.039  34.494   6.728
 4088POPC   C3A53381   3.393  34.482   7.022
 4088POPC   C4A53382   3.628  34.648   7.375
 4088POPC   C1B53383   3.547  34.337   6.325
 4088POPC   C2B53384   3.790  34.255   6.685
 4088POPC   C3B53385   3.838  34.248   7.113
 4088POPC   C4B53386   3.590  34.105   7.387
 4089POPC   NC353387  17.945  22.685   5.546
 4089POPC   PO453388  18.479  23.017   5.209
 4089POPC   GL153389  18.297  23.082   5.625
 4089POPC   GL253390  18.424  22.767   5.723
 4089POPC   C1A53391  18.150  23.026   6.089
 4089POPC   D2A53392  18.166  23.183   6.533
 4089POPC   C3A53393  18.177  22.997   6.962
 4089POPC   C4A53394  18.238  23.051   7.429
 4089POPC   C1B53395  18.424  22.562   6.134
 4089POPC   C2B53396  18.611  22.710   6.522
 4089POPC   C3B53397  18.629  22.766   6.960
 4089POPC   C4B53398  18.390  22.603   7.314
 4090POPC   NC353399   3.947  41.726   5.516
 4090POPC   PO453400   3.424  41.293   5.626
 4090POPC   GL153401   3.416  41.712   5.799
 4090POPC   GL253402   3.092  41.796   5.949
 4090POPC   C1A53403   3.501  41.838   6.233
 4090POPC   D2A53404   3.378  41.947   6.662
 4090POPC   C3A53405   3.752  41.931   6.926
 4090POPC   C4A53406   4.004  41.621   7.117
 4090POPC   C1B53407   3.135  41.422   6.199
 4090POPC   C2B53408   3.304  41.300   6.578
 4090POPC   C3B53409   3.511  41.487   6.918
 4090POPC   C4B53410   3.589  41.379   7.349
 4091POPC   NC353411  27.357  36.457   5.482
 4091POPC   PO453412  27.725  36.074   5.158
 4091POPC   GL153413  27.727  36.265   5.724
 4091POPC   GL253414  27.993  36.503   5.842
 4091POPC   C1A53415  27.443  36.206   6.159
 4091POPC   D2A53416  27.227  36.189   6.604
 4091POPC   C3A53417  27.235  35.937   6.985
 4091POPC   C4A53418  27.445  35.954   7.421
 4091POPC   C1B53419  27.961  36.222   6.176
 4091POPC   C2B53420  27.773  36.202   6.567
 4091POPC   C3B53421  27.702  36.147   7.010
 4091POPC   C4B53422  27.934  36.343   7.329
 4092POPC   NC353423  29.859   8.526   5.268
 4092POPC   PO453424  30.324   9.053   5.344
 4092POPC   GL153425  29.988   8.890   5.697
 4092POPC   GL253426  29.603   8.995   5.730
 4092POPC   C1A53427  29.848   8.846   6.172
 4092POPC   D2A53428  29.662   9.015   6.572
 4092POPC   C3A53429  29.813   8.844   6.968
 4092POPC   C4A53430  29.700   8.537   7.282
 4092POPC   C1B53431  29.548   9.275   6.124
 4092POPC   C2B53432  29.874   9.468   6.449
 4092POPC   C3B53433  30.062   9.302   6.828
 4092POPC   C4B53434  29.886   9.304   7.258
 4093POPC   NC353435  16.581   0.116   5.450
 4093POPC   PO453436  16.742  44.418   5.294
 4093POPC   GL153437  16.850  44.702   5.689
 4093POPC   GL253438  16.634  44.942   5.953
 4093POPC   C1A53439  16.955  44.579   6.122
 4093POPC   D2A53440  16.891  44.586   6.568
 4093POPC   C3A53441  17.014  44.252   6.853
 4093POPC   C4A53442  17.014  44.441   7.277
 4093POPC   C1B53443  16.447  44.594   6.237
 4093POPC   C2B53444  16.499  44.253   6.525
 4093POPC   C3B53445  16.532  44.377   6.961
 4093POPC   C4B53446  16.590  44.129   7.302
 4094POPC   NC353447   3.495  26.406   5.489
 4094POPC   PO453448   3.906  25.915   5.361
 4094POPC   GL153449   3.658  25.977   5.761
 4094POPC   GL253450   3.285  26.040   5.804
 4094POPC   C1A53451   3.589  26.108   6.210
 4094POPC   D2A53452   3.403  25.973   6.602
 4094POPC   C3A53453   3.694  26.006   6.994
 4094POPC   C4A53454   3.695  26.051   7.452
 4094POPC   C1B53455   3.087  26.237   6.172
 4094POPC   C2B53456   3.165  26.440   6.584
 4094POPC   C3B53457   3.254  26.258   7.011
 4094POPC   C4B53458   3.319  26.382   7.443
 4095POPC   NC353459   8.116  40.442   5.281
 4095POPC   PO453460   8.325  40.974   5.550
 4095POPC   GL153461   8.206  40.638   5.781
 4095POPC   GL253462   8.510  40.448   5.652
 4095POPC   C1A53463   8.069  40.742   6.209
 4095POPC   D2A53464   8.072  40.970   6.603
 4095POPC   C3A53465   8.052  40.732   6.959
 4095POPC   C4A53466   8.183  41.017   7.251
 4095POPC   C1B53467   8.577  40.498   6.100
 4095POPC   C2B53468   8.531  40.798   6.428
 4095POPC   C3B53469   8.555  40.820   6.884
 4095POPC   C4B53470   8.482  40.597   7.274
 4096POPC   NC353471  27.317  38.774   5.567
 4096POPC   PO453472  27.714  39.131   5.160
 4096POPC   GL153473  27.663  39.177   5.645
 4096POPC   GL253474  27.600  39.525   5.781
 4096POPC   C1A53475  27.684  39.013   6.095
 4096POPC   D2A53476  27.842  38.844   6.513
 4096POPC   C3A53477  27.850  39.071   6.924
 4096POPC   C4A53478  27.620  38.970   7.309
 4096POPC   C1B53479  27.799  39.497   6.204
 4096POPC   C2B53480  27.678  39.490   6.659
 4096POPC   C3B53481  27.459  39.425   7.051
 4096POPC   C4B53482  27.449  39.431   7.510
 4097POPC   NC353483  23.831  24.311   5.450
 4097POPC   PO453484  23.310  24.674   5.592
 4097POPC   GL153485  23.650  24.641   5.835
 4097POPC   GL253486  23.445  24.361   5.961
 4097POPC   C1A53487  23.850  24.476   6.224
 4097POPC   D2A53488  23.639  24.422   6.610
 4097POPC   C3A53489  23.879  24.366   6.962
 4097POPC   C4A53490  23.960  24.586   7.300
 4097POPC   C1B53491  23.272  24.653   6.291
 4097POPC   C2B53492  23.267  24.802   6.740
 4097POPC   C3B53493  23.447  24.591   7.101
 4097POPC   C4B53494  23.531  24.660   7.550
 4098POPC   NC353495  25.020  32.901   5.460
 4098POPC   PO453496  25.557  33.358   5.463
 4098POPC   GL153497  25.362  33.147   5.827
 4098POPC   GL253498  25.068  33.224   5.845
 4098POPC   C1A53499  25.465  32.949   6.261
 4098POPC   D2A53500  25.477  32.797   6.718
 4098POPC   C3A53501  25.516  33.072   7.113
 4098POPC   C4A53502  25.533  33.222   7.581
 4098POPC   C1B53503  24.949  32.936   6.177
 4098POPC   C2B53504  24.808  32.953   6.606
 4098POPC   C3B53505  25.007  32.893   7.008
 4098POPC   C4B53506  25.128  32.966   7.432
 4099POPC   NC353507  25.759   7.757   5.615
 4099POPC   PO453508  25.370   7.365   5.258
 4099POPC   GL153509  25.308   7.248   5.708
 4099POPC   GL253510  24.996   7.234   5.790
 4099POPC   C1A53511  25.371   7.378   6.179
 4099POPC   D2A53512  25.556   7.325   6.609
 4099POPC   C3A53513  25.406   7.370   7.020
 4099POPC   C4A53514  25.118   7.062   7.136
 4099POPC   C1B53515  24.881   7.241   6.205
 4099POPC   C2B53516  25.003   7.438   6.600
 4099POPC   C3B53517  25.023   7.719   6.939
 4099POPC   C4B53518  24.991   7.531   7.307
 4100POPC   NC353519  38.114  23.072   5.585
 4100POPC   PO453520  38.739  22.795   5.483
 4100POPC   GL153521  38.711  22.807   5.933
 4100POPC   GL253522  38.438  23.048   5.982
 4100POPC   C1A53523  38.720  22.898   6.391
 4100POPC   D2A53524  38.391  22.771   6.665
 4100POPC   C3A53525  38.219  23.105   6.913
 4100POPC   C4A53526  38.569  22.961   7.151
 4100POPC   C1B53527  38.318  23.207   6.399
 4100POPC   C2B53528  38.638  23.351   6.722
 4100POPC   C3B53529  38.738  23.422   7.164
 4100POPC   C4B53530  38.299  23.334   7.400
 4101POPC   NC353531  42.591  28.746   5.613
 4101POPC   PO453532  41.957  28.526   5.505
 4101POPC   GL153533  42.144  28.368   5.905
 4101POPC   GL253534  42.511  28.310   5.910
 4101POPC   C1A53535  42.209  28.185   6.325
 4101POPC   D2A53536  42.566  28.207   6.618
 4101POPC   C3A53537  42.451  28.277   7.041
 4101POPC   C4A53538  42.121  28.300   7.345
 4101POPC   C1B53539  42.516  28.614   6.262
 4101POPC   C2B53540  42.707  28.820   6.612
 4101POPC   C3B53541  42.766  28.683   7.048
 4101POPC   C4B53542  42.629  28.474   7.484
 4102POPC   NC353543  28.644  24.735   5.469
 4102POPC   PO453544  28.017  24.309   5.412
 4102POPC   GL153545  28.201  24.561   5.755
 4102POPC   GL253546  28.542  24.423   5.868
 4102POPC   C1A53547  28.134  24.413   6.173
 4102POPC   D2A53548  28.300  24.238   6.523
 4102POPC   C3A53549  28.304  24.389   6.931
 4102POPC   C4A53550  28.030  24.448   7.291
 4102POPC   C1B53551  28.581  24.698   6.235
 4102POPC   C2B53552  28.662  24.761   6.698
 4102POPC   C3B53553  28.801  24.478   7.038
 4102POPC   C4B53554  28.592  24.350   7.400
 4103POPC   NC353555  33.667  13.841   5.478
 4103POPC   PO453556  33.207  13.271   5.353
 4103POPC   GL153557  33.484  13.421   5.763
 4103POPC   GL253558  33.865  13.509   5.828
 4103POPC   C1A53559  33.600  13.577   6.227
 4103POPC   D2A53560  34.015  13.567   6.436
 4103POPC   C3A53561  33.917  13.360   6.847
 4103POPC   C4A53562  33.542  13.412   7.109
 4103POPC   C1B53563  33.951  13.940   6.040
 4103POPC   C2B53564  34.012  14.121   6.438
 4103POPC   C3B53565  33.853  13.894   6.783
 4103POPC   C4B53566  34.125  13.803   7.073
 4104POPC   NC353567  38.634  15.131   4.978
 4104POPC   PO453568  38.658  15.198   5.613
 4104POPC   GL153569  38.539  15.140   5.986
 4104POPC   GL253570  38.230  15.281   5.939
 4104POPC   C1A53571  38.546  15.159   6.432
 4104POPC   D2A53572  38.723  15.298   6.811
 4104POPC   C3A53573  38.682  15.084   7.195
 4104POPC   C4A53574  38.252  14.862   7.201
 4104POPC   C1B53575  38.308  15.602   6.243
 4104POPC   C2B53576  38.307  15.575   6.708
 4104POPC   C3B53577  38.316  15.408   7.137
 4104POPC   C4B53578  38.505  15.452   7.580
 4105POPC   NC353579  30.410   5.467   5.183
 4105POPC   PO453580  30.724   4.895   5.428
 4105POPC   GL153581  30.789   5.068   5.856
 4105POPC   GL253582  30.519   5.330   5.898
 4105POPC   C1A53583  31.015   5.217   6.240
 4105POPC   D2A53584  31.205   5.140   6.657
 4105POPC   C3A53585  30.933   5.147   7.022
 4105POPC   C4A53586  30.582   4.967   7.261
 4105POPC   C1B53587  30.426   5.046   6.274
 4105POPC   C2B53588  30.284   5.072   6.733
 4105POPC   C3B53589  30.337   5.370   7.060
 4105POPC   C4B53590  30.512   5.476   7.472
 4106POPC   NC353591  28.263  19.354   5.220
 4106POPC   PO453592  28.732  18.862   5.383
 4106POPC   GL153593  28.397  18.967   5.662
 4106POPC   GL253594  28.476  19.309   5.725
 4106POPC   C1A53595  28.375  18.932   6.123
 4106POPC   D2A53596  28.636  18.820   6.506
 4106POPC   C3A53597  28.460  18.886   6.913
 4106POPC   C4A53598  28.471  18.932   7.362
 4106POPC   C1B53599  28.356  19.440   6.168
 4106POPC   C2B53600  28.541  19.348   6.587
 4106POPC   C3B53601  28.426  19.468   7.011
 4106POPC   C4B53602  28.322  19.404   7.428
 4107POPC   NC353603  32.743  27.569   5.364
 4107POPC   PO453604  32.187  27.861   5.286
 4107POPC   GL153605  32.329  27.632   5.693
 4107POPC   GL253606  32.026  27.411   5.749
 4107POPC   C1A53607  32.551  27.792   6.097
 4107POPC   D2A53608  32.418  27.976   6.504
 4107POPC   C3A53609  32.424  27.788   6.908
 4107POPC   C4A53610  32.621  27.763   7.298
 4107POPC   C1B53611  32.177  27.466   6.167
 4107POPC   C2B53612  32.058  27.610   6.555
 4107POPC   C3B53613  31.947  27.529   6.955
 4107POPC   C4B53614  32.172  27.531   7.303
 4108POPC   NC353615  35.259  44.177   5.398
 4108POPC   PO453616  35.073  44.824   5.296
 4108POPC   GL153617  35.171  44.614   5.705
 4108POPC   GL253618  35.509  44.512   5.707
 4108POPC   C1A53619  35.050  44.693   6.180
 4108POPC   D2A53620  35.069  44.941   6.587
 4108POPC   C3A53621  35.064  44.710   6.978
 4108POPC   C4A53622  34.965  44.234   7.021
 4108POPC   C1B53623  35.499  44.871   6.000
 4108POPC   C2B53624  35.544  44.889   6.435
 4108POPC   C3B53625  35.595  44.873   6.909
 4108POPC   C4B53626  35.406  44.840   7.352
 4109POPC   NC353627  29.218  26.403   5.426
 4109POPC   PO453628  28.747  25.914   5.183
 4109POPC   GL153629  28.886  25.841   5.720
 4109POPC   GL253630  29.126  26.092   5.807
 4109POPC   C1A53631  28.892  25.918   6.201
 4109POPC   D2A53632  29.199  26.036   6.534
 4109POPC   C3A53633  29.123  25.854   6.940
 4109POPC   C4A53634  28.946  26.121   7.226
 4109POPC   C1B53635  29.381  26.374   6.056
 4109POPC   C2B53636  29.416  26.527   6.505
 4109POPC   C3B53637  29.348  26.452   6.938
 4109POPC   C4B53638  29.551  26.172   7.196
 4110POPC   NC353639   9.593   1.254   5.489
 4110POPC   PO453640  10.037   0.770   5.600
 4110POPC   GL153641   9.704   0.924   5.854
 4110POPC   GL253642   9.793   1.303   5.963
 4110POPC   C1A53643   9.499   0.964   6.219
 4110POPC   D2A53644   9.761   1.205   6.521
 4110POPC   C3A53645   9.581   1.221   6.916
 4110POPC   C4A53646   9.612   0.926   7.232
 4110POPC   C1B53647   9.448   1.473   6.242
 4110POPC   C2B53648   9.233   1.506   6.678
 4110POPC   C3B53649   9.442   1.716   7.084
 4110POPC   C4B53650   9.547   1.661   7.544
 4111POPC   NC353651  34.905  28.844   5.353
 4111POPC   PO453652  34.750  29.494   5.431
 4111POPC   GL153653  34.949  29.200   5.713
 4111POPC   GL253654  34.610  29.123   5.846
 4111POPC   C1A53655  34.998  29.012   6.128
 4111POPC   D2A53656  34.702  29.098   6.471
 4111POPC   C3A53657  34.751  29.015   6.885
 4111POPC   C4A53658  34.750  29.203   7.280
 4111POPC   C1B53659  34.294  29.218   6.221
 4111POPC   C2B53660  34.303  29.330   6.734
 4111POPC   C3B53661  34.251  29.228   7.219
 4111POPC   C4B53662  34.113  29.450   7.609
 4112POPC   NC353663  12.131  24.895   5.411
 4112POPC   PO453664  11.817  25.615   5.404
 4112POPC   GL153665  11.873  25.249   5.694
 4112POPC   GL253666  12.224  25.226   5.811
 4112POPC   C1A53667  11.849  25.098   6.121
 4112POPC   D2A53668  11.637  25.252   6.495
 4112POPC   C3A53669  11.613  25.015   6.903
 4112POPC   C4A53670  11.920  25.148   7.202
 4112POPC   C1B53671  12.387  25.248   6.251
 4112POPC   C2B53672  12.557  24.987   6.601
 4112POPC   C3B53673  12.469  25.051   7.034
 4112POPC   C4B53674  12.422  25.473   7.164
 4113POPC   NC353675  28.876  34.828   5.385
 4113POPC   PO453676  29.333  34.354   5.343
 4113POPC   GL153677  29.253  34.613   5.704
 4113POPC   GL253678  28.930  34.489   5.808
 4113POPC   C1A53679  29.332  34.643   6.147
 4113POPC   D2A53680  29.142  34.542   6.533
 4113POPC   C3A53681  29.337  34.653   6.923
 4113POPC   C4A53682  29.525  35.000   7.162
 4113POPC   C1B53683  28.863  34.841   6.107
 4113POPC   C2B53684  28.692  34.842   6.522
 4113POPC   C3B53685  28.831  34.714   6.917
 4113POPC   C4B53686  29.023  34.861   7.283
 4114POPC   NC353687  30.432  36.008   5.646
 4114POPC   PO453688  30.744  36.566   5.462
 4114POPC   GL153689  30.842  36.295   5.807
 4114POPC   GL253690  30.908  35.955   5.871
 4114POPC   C1A53691  30.631  36.205   6.234
 4114POPC   D2A53692  30.722  36.261   6.672
 4114POPC   C3A53693  30.546  36.008   6.990
 4114POPC   C4A53694  30.328  36.272   7.251
 4114POPC   C1B53695  31.129  36.190   6.237
 4114POPC   C2B53696  31.216  36.163   6.705
 4114POPC   C3B53697  31.036  36.040   7.099
 4114POPC   C4B53698  30.854  35.701   7.340
 4115POPC   NC353699  39.817  26.254   5.557
 4115POPC   PO453700  39.197  25.998   5.386
 4115POPC   GL153701  39.274  25.945   5.798
 4115POPC   GL253702  39.012  25.703   5.864
 4115POPC   C1A53703  39.349  26.224   6.149
 4115POPC   D2A53704  39.191  26.152   6.563
 4115POPC   C3A53705  39.335  25.946   6.921
 4115POPC   C4A53706  39.263  26.219   7.305
 4115POPC   C1B53707  39.199  25.724   6.274
 4115POPC   C2B53708  39.131  25.511   6.628
 4115POPC   C3B53709  38.894  25.633   6.940
 4115POPC   C4B53710  39.026  25.778   7.302
 4116POPC   NC353711  32.831  28.306   5.330
 4116POPC   PO453712  33.481  28.509   5.471
 4116POPC   GL153713  33.100  28.396   5.759
 4116POPC   GL253714  32.850  28.079   5.782
 4116POPC   C1A53715  32.872  28.480   6.155
 4116POPC   D2A53716  32.812  28.288   6.569
 4116POPC   C3A53717  33.155  28.384   6.866
 4116POPC   C4A53718  33.128  28.519   7.269
 4116POPC   C1B53719  33.034  27.957   6.159
 4116POPC   C2B53720  32.907  27.762   6.543
 4116POPC   C3B53721  32.945  27.931   6.947
 4116POPC   C4B53722  33.095  27.968   7.373
 4117POPC   NC353723   2.219  36.037   5.420
 4117POPC   PO453724   1.732  36.406   5.413
 4117POPC   GL153725   1.843  36.182   5.753
 4117POPC   GL253726   2.109  36.371   5.807
 4117POPC   C1A53727   2.087  35.911   6.052
 4117POPC   D2A53728   2.117  35.835   6.491
 4117POPC   C3A53729   1.989  36.119   6.812
 4117POPC   C4A53730   1.954  36.132   7.252
 4117POPC   C1B53731   1.938  36.373   6.224
 4117POPC   C2B53732   2.132  36.536   6.533
 4117POPC   C3B53733   2.174  36.558   6.952
 4117POPC   C4B53734   2.159  36.641   7.358
 4118POPC   NC353735  29.304  11.621   5.505
 4118POPC   PO453736  28.995  11.007   5.600
 4118POPC   GL153737  29.019  11.365   5.838
 4118POPC   GL253738  29.410  11.398   5.940
 4118POPC   C1A53739  28.995  11.512   6.207
 4118POPC   D2A53740  29.263  11.296   6.477
 4118POPC   C3A53741  29.145  11.338   6.888
 4118POPC   C4A53742  28.949  11.127   7.215
 4118POPC   C1B53743  29.419  11.754   6.218
 4118POPC   C2B53744  29.238  11.798   6.616
 4118POPC   C3B53745  29.431  11.733   7.019
 4118POPC   C4B53746  29.303  11.475   7.391
 4119POPC   NC353747  22.742  44.136   5.426
 4119POPC   PO453748  23.170  43.621   5.462
 4119POPC   GL153749  23.013  43.685   5.925
 4119POPC   GL253750  22.827  44.002   5.933
 4119POPC   C1A53751  23.070  43.762   6.400
 4119POPC   D2A53752  22.878  44.026   6.745
 4119POPC   C3A53753  23.017  43.828   7.096
 4119POPC   C4A53754  23.103  43.381   7.042
 4119POPC   C1B53755  22.590  43.801   6.283
 4119POPC   C2B53756  22.662  43.582   6.701
 4119POPC   C3B53757  22.515  43.787   7.093
 4119POPC   C4B53758  22.465  43.758   7.555
 4120POPC   NC353759  34.530  44.823   5.375
 4120POPC   PO453760  34.825  44.244   5.560
 4120POPC   GL153761  34.664  44.611   5.817
 4120POPC   GL253762  34.826  44.977   5.777
 4120POPC   C1A53763  34.534  44.591   6.245
 4120POPC   D2A53764  34.755  44.500   6.638
 4120POPC   C3A53765  34.575  44.574   7.097
 4120POPC   C4A53766  34.548  44.314   7.499
 4120POPC   C1B53767  34.709   0.085   6.189
 4120POPC   C2B53768  34.558  44.989   6.578
 4120POPC   C3B53769  34.708   0.085   6.953
 4120POPC   C4B53770  34.419   0.145   7.255
 4121POPC   NC353771  26.279  29.271   5.307
 4121POPC   PO453772  25.762  28.871   5.327
 4121POPC   GL153773  25.859  29.199   5.635
 4121POPC   GL253774  26.194  29.156   5.785
 4121POPC   C1A53775  25.786  29.173   6.088
 4121POPC   D2A53776  26.071  29.075   6.407
 4121POPC   C3A53777  25.977  29.105   6.839
 4121POPC   C4A53778  25.794  29.044   7.234
 4121POPC   C1B53779  26.490  29.195   6.123
 4121POPC   C2B53780  26.490  29.351   6.513
 4121POPC   C3B53781  26.509  29.298   6.927
 4121POPC   C4B53782  26.269  29.215   7.260
 4122POPC   NC353783  28.198  34.141   5.471
 4122POPC   PO453784  28.412  34.779   5.377
 4122POPC   GL153785  28.403  34.564   5.753
 4122POPC   GL253786  28.066  34.601   5.795
 4122POPC   C1A53787  28.545  34.440   6.174
 4122POPC   D2A53788  28.686  34.311   6.582
 4122POPC   C3A53789  28.493  34.344   6.991
 4122POPC   C4A53790  28.575  34.554   7.349
 4122POPC   C1B53791  28.034  34.476   6.180
 4122POPC   C2B53792  28.187  34.474   6.582
 4122POPC   C3B53793  27.998  34.253   6.926
 4122POPC   C4B53794  28.057  34.435   7.319
 4123POPC   NC353795  43.324  26.896   5.045
 4123POPC   PO453796  43.636  26.695   5.599
 4123POPC   GL153797  43.756  26.764   5.983
 4123POPC   GL253798  43.931  27.050   5.926
 4123POPC   C1A53799  44.086  26.731   6.296
 4123POPC   D2A53800  44.169  26.594   6.710
 4123POPC   C3A53801  43.817  26.465   6.957
 4123POPC   C4A53802  43.583  26.539   7.348
 4123POPC   C1B53803  43.722  27.180   6.294
 4123POPC   C2B53804  43.727  26.908   6.647
 4123POPC   C3B53805  43.851  26.961   7.054
 4123POPC   C4B53806  43.550  27.036   7.301
 4124POPC   NC353807   1.583  44.910   5.614
 4124POPC   PO453808   1.168  44.466   5.394
 4124POPC   GL153809   1.121  44.671   5.758
 4124POPC   GL253810   1.383  44.453   5.858
 4124POPC   C1A53811   0.950  44.605   6.159
 4124POPC   D2A53812   0.848  44.450   6.538
 4124POPC   C3A53813   0.981  44.540   6.942
 4124POPC   C4A53814   1.193  44.642   7.334
 4124POPC   C1B53815   1.470  44.581   6.242
 4124POPC   C2B53816   1.316  44.735   6.599
 4124POPC   C3B53817   1.532  44.672   6.967
 4124POPC   C4B53818   1.694   0.028   7.183
 4125POPC   NC353819  31.852  39.845   5.369
 4125POPC   PO453820  31.281  40.319   5.236
 4125POPC   GL153821  31.390  40.159   5.698
 4125POPC   GL253822  31.713  40.314   5.709
 4125POPC   C1A53823  31.290  40.065   6.191
 4125POPC   D2A53824  31.381  40.181   6.655
 4125POPC   C3A53825  31.237  39.988   7.088
 4125POPC   C4A53826  31.306  40.132   7.547
 4125POPC   C1B53827  31.796  39.983   6.018
 4125POPC   C2B53828  31.824  39.923   6.466
 4125POPC   C3B53829  31.688  39.798   6.877
 4125POPC   C4B53830  31.690  39.899   7.325
 4126POPC   NC353831   8.964  40.591   5.411
 4126POPC   PO453832   9.003  41.206   5.399
 4126POPC   GL153833   8.843  40.954   5.774
 4126POPC   GL253834   9.033  40.637   5.895
 4126POPC   C1A53835   8.962  41.039   6.209
 4126POPC   D2A53836   8.989  40.899   6.614
 4126POPC   C3A53837   9.047  41.165   6.891
 4126POPC   C4A53838   9.044  41.056   7.297
 4126POPC   C1B53839   9.048  40.515   6.294
 4126POPC   C2B53840   8.786  40.375   6.590
 4126POPC   C3B53841   8.878  40.400   6.999
 4126POPC   C4B53842   9.093  40.493   7.343
 4127POPC   NC353843  39.352  31.678   5.457
 4127POPC   PO453844  38.874  31.200   5.431
 4127POPC   GL153845  39.038  31.464   5.805
 4127POPC   GL253846  39.356  31.311   5.839
 4127POPC   C1A53847  39.235  31.655   6.223
 4127POPC   D2A53848  39.287  31.815   6.685
 4127POPC   C3A53849  39.222  31.567   7.100
 4127POPC   C4A53850  39.368  31.691   7.565
 4127POPC   C1B53851  39.245  31.151   6.240
 4127POPC   C2B53852  39.279  31.288   6.648
 4127POPC   C3B53853  39.265  31.039   6.989
 4127POPC   C4B53854  38.939  30.918   7.250
 4128POPC   NC353855   7.176  43.212   5.167
 4128POPC   PO453856   6.488  43.223   5.360
 4128POPC   GL153857   6.678  43.192   5.770
 4128POPC   GL253858   6.471  42.941   5.930
 4128POPC   C1A53859   6.664  43.305   6.233
 4128POPC   D2A53860   6.935  43.437   6.565
 4128POPC   C3A53861   6.739  43.363   6.940
 4128POPC   C4A53862   6.814  43.524   7.337
 4128POPC   C1B53863   6.909  42.880   6.138
 4128POPC   C2B53864   6.913  42.935   6.611
 4128POPC   C3B53865   6.675  42.878   7.017
 4128POPC   C4B53866   6.214  42.917   7.128
 4129POPC   NC353867  30.602  18.519   5.321
 4129POPC   PO453868  30.568  17.849   5.179
 4129POPC   GL153869  30.511  18.096   5.585
 4129POPC   GL253870  30.854  18.110   5.658
 4129POPC   C1A53871  30.593  18.408   5.984
 4129POPC   D2A53872  30.601  18.523   6.452
 4129POPC   C3A53873  30.761  18.389   6.838
 4129POPC   C4A53874  30.574  18.331   7.244
 4129POPC   C1B53875  31.040  18.151   6.067
 4129POPC   C2B53876  31.163  18.285   6.463
 4129POPC   C3B53877  31.195  18.088   6.853
 4129POPC   C4B53878  31.060  18.196   7.251
 4130POPC   NC353879  40.263  30.345   5.508
 4130POPC   PO453880  40.807  30.041   5.316
 4130POPC   GL153881  40.779  29.857   5.729
 4130POPC   GL253882  40.549  30.069   5.813
 4130POPC   C1A53883  40.875  29.897   6.195
 4130POPC   D2A53884  41.126  30.015   6.586
 4130POPC   C3A53885  40.912  29.975   6.967
 4130POPC   C4A53886  40.993  29.971   7.393
 4130POPC   C1B53887  40.497  30.248   6.185
 4130POPC   C2B53888  40.634  30.180   6.580
 4130POPC   C3B53889  40.464  30.277   6.956
 4130POPC   C4B53890  40.627  30.332   7.313
 4131POPC   NC353891  33.172  12.465   5.731
 4131POPC   PO453892  33.211  11.800   5.468
 4131POPC   GL153893  33.006  11.979   5.861
 4131POPC   GL253894  32.630  12.010   5.864
 4131POPC   C1A53895  33.211  12.110   6.278
 4131POPC   D2A53896  33.392  11.986   6.682
 4131POPC   C3A53897  33.181  12.131   7.043
 4131POPC   C4A53898  32.933  12.372   7.304
 4131POPC   C1B53899  32.714  12.253   6.226
 4131POPC   C2B53900  32.866  12.234   6.633
 4131POPC   C3B53901  32.688  12.053   6.965
 4131POPC   C4B53902  32.827  11.876   7.342
 4132POPC   NC353903  13.212  34.809   5.407
 4132POPC   PO453904  12.689  34.378   5.411
 4132POPC   GL153905  12.968  34.478   5.747
 4132POPC   GL253906  12.876  34.839   5.832
 4132POPC   C1A53907  13.068  34.524   6.184
 4132POPC   D2A53908  13.151  34.453   6.598
 4132POPC   C3A53909  12.831  34.478   6.873
 4132POPC   C4A53910  13.057  34.452   7.243
 4132POPC   C1B53911  12.627  34.793   6.254
 4132POPC   C2B53912  12.769  34.950   6.659
 4132POPC   C3B53913  13.146  34.884   6.912
 4132POPC   C4B53914  13.135  34.968   7.338
 4133POPC   NC353915  31.273  34.354   5.423
 4133POPC   PO453916  31.710  34.835   5.646
 4133POPC   GL153917  31.583  34.468   5.868
 4133POPC   GL253918  31.247  34.564   5.896
 4133POPC   C1A53919  31.530  34.389   6.307
 4133POPC   D2A53920  31.206  34.459   6.585
 4133POPC   C3A53921  31.312  34.267   6.959
 4133POPC   C4A53922  31.679  34.276   7.210
 4133POPC   C1B53923  31.341  34.867   6.235
 4133POPC   C2B53924  31.727  34.856   6.449
 4133POPC   C3B53925  31.663  34.612   6.819
 4133POPC   C4B53926  31.370  34.735   7.187
 4134POPC   NC353927  37.686  13.282   5.202
 4134POPC   PO453928  37.933  13.927   5.417
 4134POPC   GL153929  37.837  13.770   5.877
 4134POPC   GL253930  37.913  13.363   5.897
 4134POPC   C1A53931  38.004  13.828   6.292
 4134POPC   D2A53932  37.632  13.864   6.546
 4134POPC   C3A53933  37.511  13.628   6.894
 4134POPC   C4A53934  37.229  13.716   7.210
 4134POPC   C1B53935  37.712  13.414   6.301
 4134POPC   C2B53936  37.972  13.484   6.692
 4134POPC   C3B53937  37.914  13.444   7.137
 4134POPC   C4B53938  37.509  13.325   7.329
 4135POPC   NC353939  16.309  10.992   5.175
 4135POPC   PO453940  15.707  11.118   5.552
 4135POPC   GL153941  15.891  11.116   5.913
 4135POPC   GL253942  15.944  11.452   5.901
 4135POPC   C1A53943  15.862  11.178   6.358
 4135POPC   D2A53944  16.225  11.255   6.635
 4135POPC   C3A53945  16.171  11.154   7.060
 4135POPC   C4A53946  15.803  11.153   7.289
 4135POPC   C1B53947  16.177  11.604   6.240
 4135POPC   C2B53948  15.955  11.701   6.608
 4135POPC   C3B53949  16.179  11.688   6.951
 4135POPC   C4B53950  16.079  11.597   7.310
 4136POPC   NC353951  42.208  31.923   5.594
 4136POPC   PO453952  42.472  32.532   5.448
 4136POPC   GL153953  42.123  32.547   5.791
 4136POPC   GL253954  41.876  32.250   5.811
 4136POPC   C1A53955  42.141  32.385   6.232
 4136POPC   D2A53956  42.345  32.236   6.623
 4136POPC   C3A53957  42.190  32.397   7.025
 4136POPC   C4A53958  42.330  32.445   7.454
 4136POPC   C1B53959  41.772  32.023   6.205
 4136POPC   C2B53960  41.788  32.144   6.621
 4136POPC   C3B53961  41.897  31.944   6.974
 4136POPC   C4B53962  42.130  31.979   7.331
 4137POPC   NC353963  29.489  23.409   5.372
 4137POPC   PO453964  30.133  23.045   5.472
 4137POPC   GL153965  29.897  23.043   5.828
 4137POPC   GL253966  29.786  23.356   5.784
 4137POPC   C1A53967  29.894  22.854   6.216
 4137POPC   D2A53968  30.222  22.821   6.487
 4137POPC   C3A53969  30.297  22.740   6.890
 4137POPC   C4A53970  30.190  22.933   7.257
 4137POPC   C1B53971  29.660  23.311   6.216
 4137POPC   C2B53972  29.840  23.171   6.610
 4137POPC   C3B53973  29.764  23.101   7.021
 4137POPC   C4B53974  29.615  23.373   7.339
 4138POPC   NC353975  13.276  38.333   5.404
 4138POPC   PO453976  13.935  38.559   5.307
 4138POPC   GL153977  13.646  38.562   5.692
 4138POPC   GL253978  13.469  38.259   5.841
 4138POPC   C1A53979  13.726  38.535   6.155
 4138POPC   D2A53980  13.717  38.820   6.466
 4138POPC   C3A53981  13.714  38.662   6.862
 4138POPC   C4A53982  13.820  38.386   7.169
 4138POPC   C1B53983  13.232  38.473   6.130
 4138POPC   C2B53984  13.344  38.442   6.549
 4138POPC   C3B53985  13.364  38.277   6.955
 4138POPC   C4B53986  13.351  38.496   7.331
 4139POPC   NC353987  17.497   5.049   5.465
 4139POPC   PO453988  17.473   5.677   5.594
 4139POPC   GL153989  17.684   5.316   5.908
 4139POPC   GL253990  17.767   4.917   5.885
 4139POPC   C1A53991  17.818   5.164   6.352
 4139POPC   D2A53992  17.572   4.960   6.678
 4139POPC   C3A53993  17.544   5.067   7.118
 4139POPC   C4A53994  17.557   5.200   7.557
 4139POPC   C1B53995  17.424   4.877   6.172
 4139POPC   C2B53996  17.091   4.941   6.484
 4139POPC   C3B53997  17.117   4.833   6.947
 4139POPC   C4B53998  17.100   5.007   7.369
 4140POPC   NC353999  37.197  42.114   5.595
 4140POPC   PO454000  36.761  42.643   5.461
 4140POPC   GL154001  36.841  42.409   5.823
 4140POPC   GL254002  36.636  42.113   5.720
 4140POPC   C1A54003  36.996  42.373   6.244
 4140POPC   D2A54004  36.844  42.278   6.652
 4140POPC   C3A54005  37.037  42.448   7.028
 4140POPC   C4A54006  37.296  42.218   7.308
 4140POPC   C1B54007  36.532  42.133   6.170
 4140POPC   C2B54008  36.398  41.988   6.595
 4140POPC   C3B54009  36.525  42.110   7.010
 4140POPC   C4B54010  36.789  42.142   7.360
 4141POPC   NC354011   3.852   1.233   5.377
 4141POPC   PO454012   3.276   0.867   5.527
 4141POPC   GL154013   3.500   0.993   5.859
 4141POPC   GL254014   3.470   1.314   5.766
 4141POPC   C1A54015   3.331   1.168   6.244
 4141POPC   D2A54016   3.267   1.363   6.626
 4141POPC   C3A54017   3.395   1.140   7.012
 4141POPC   C4A54018   3.553   0.808   7.302
 4141POPC   C1B54019   3.773   1.393   6.091
 4141POPC   C2B54020   3.756   1.599   6.490
 4141POPC   C3B54021   3.515   1.729   6.845
 4141POPC   C4B54022   3.568   1.592   7.245
 4142POPC   NC354023  35.665  30.338   5.459
 4142POPC   PO454024  35.099  30.054   5.290
 4142POPC   GL154025  35.300  30.105   5.726
 4142POPC   GL254026  35.213  30.428   5.782
 4142POPC   C1A54027  35.216  29.919   6.144
 4142POPC   D2A54028  35.366  29.734   6.525
 4142POPC   C3A54029  35.325  29.939   6.881
 4142POPC   C4A54030  35.008  29.833   7.204
 4142POPC   C1B54031  34.978  30.383   6.167
 4142POPC   C2B54032  34.920  30.138   6.554
 4142POPC   C3B54033  35.028  30.344   6.933
 4142POPC   C4B54034  35.277  30.268   7.275
 4143POPC   NC354035  31.043  13.595   5.352
 4143POPC   PO454036  30.421  13.685   5.182
 4143POPC   GL154037  30.568  13.489   5.627
 4143POPC   GL254038  30.874  13.271   5.741
 4143POPC   C1A54039  30.623  13.571   6.106
 4143POPC   D2A54040  30.680  13.830   6.497
 4143POPC   C3A54041  30.489  13.689   6.909
 4143POPC   C4A54042  30.652  13.827   7.328
 4143POPC   C1B54043  31.055  13.285   6.187
 4143POPC   C2B54044  31.141  13.579   6.527
 4143POPC   C3B54045  31.000  13.636   6.935
 4143POPC   C4B54046  31.086  13.507   7.347
 4144POPC   NC354047   9.102  35.571   5.441
 4144POPC   PO454048   8.453  35.249   5.420
 4144POPC   GL154049   8.651  35.330   5.826
 4144POPC   GL254050   9.041  35.365   5.896
 4144POPC   C1A54051   8.717  35.487   6.266
 4144POPC   D2A54052   8.826  35.293   6.629
 4144POPC   C3A54053   8.847  35.482   6.976
 4144POPC   C4A54054   8.849  35.366   7.387
 4144POPC   C1B54055   9.273  35.380   6.302
 4144POPC   C2B54056   9.347  35.364   6.777
 4144POPC   C3B54057   9.241  35.067   7.121
 4144POPC   C4B54058   9.205  35.114   7.632
 4145POPC   NC354059   3.810  38.164   5.459
 4145POPC   PO454060   3.660  37.454   5.452
 4145POPC   GL154061   3.574  37.779   5.701
 4145POPC   GL254062   3.238  37.794   5.716
 4145POPC   C1A54063   3.604  37.832   6.128
 4145POPC   D2A54064   3.818  37.641   6.448
 4145POPC   C3A54065   3.618  37.765   6.799
 4145POPC   C4A54066   3.574  37.715   7.211
 4145POPC   C1B54067   3.202  37.503   6.075
 4145POPC   C2B54068   3.326  37.423   6.509
 4145POPC   C3B54069   3.180  37.496   6.944
 4145POPC   C4B54070   3.252  37.336   7.374
 4146POPC   NC354071  42.928  22.175   5.253
 4146POPC   PO454072  43.401  22.425   5.587
 4146POPC   GL154073  43.145  22.150   5.797
 4146POPC   GL254074  42.805  22.247   5.762
 4146POPC   C1A54075  43.236  22.183   6.232
 4146POPC   D2A54076  43.289  22.011   6.624
 4146POPC   C3A54077  43.155  22.287   6.948
 4146POPC   C4A54078  43.282  22.418   7.341
 4146POPC   C1B54079  42.770  22.008   6.154
 4146POPC   C2B54080  42.771  22.176   6.558
 4146POPC   C3B54081  42.629  22.212   6.961
 4146POPC   C4B54082  42.820  22.191   7.350
 4147POPC   NC354083  15.161  28.225   5.456
 4147POPC   PO454084  15.350  28.816   5.503
 4147POPC   GL154085  15.140  28.548   5.847
 4147POPC   GL254086  15.334  28.267   5.917
 4147POPC   C1A54087  15.215  28.601   6.297
 4147POPC   D2A54088  15.015  28.669   6.668
 4147POPC   C3A54089  15.293  28.758   6.932
 4147POPC   C4A54090  15.256  28.403   7.121
 4147POPC   C1B54091  15.305  28.062   6.269
 4147POPC   C2B54092  15.125  28.172   6.617
 4147POPC   C3B54093  15.245  27.931   6.924
 4147POPC   C4B54094  15.014  27.959   7.265
 4148POPC   NC354095   5.366  18.510   5.477
 4148POPC   PO454096   4.802  18.134   5.358
 4148POPC   GL154097   5.037  18.045   5.722
 4148POPC   GL254098   4.812  18.123   6.006
 4148POPC   C1A54099   5.347  18.141   6.061
 4148POPC   D2A54100   5.314  18.414   6.430
 4148POPC   C3A54101   4.993  18.330   6.757
 4148POPC   C4A54102   5.094  18.183   7.178
 4148POPC   C1B54103   4.850  18.534   6.245
 4148POPC   C2B54104   4.587  18.734   6.551
 4148POPC   C3B54105   4.565  18.552   6.964
 4148POPC   C4B54106   4.739  18.485   7.393
 4149POPC   NC354107  20.880  43.156   5.510
 4149POPC   PO454108  20.237  43.013   5.616
 4149POPC   GL154109  20.555  43.146   5.885
 4149POPC   GL254110  20.796  42.872   5.943
 4149POPC   C1A54111  20.897  43.299   6.186
 4149POPC   D2A54112  20.887  43.160   6.587
 4149POPC   C3A54113  20.875  43.448   6.901
 4149POPC   C4A54114  20.845  43.371   7.310
 4149POPC   C1B54115  20.494  42.900   6.327
 4149POPC   C2B54116  20.468  42.928   6.798
 4149POPC   C3B54117  20.587  42.950   7.232
 4149POPC   C4B54118  20.553  43.103   7.672
 4150POPC   NC354119  33.547  19.890   5.482
 4150POPC   PO454120  34.171  19.738   5.577
 4150POPC   GL154121  33.940  19.890   5.940
 4150POPC   GL254122  33.654  20.118   5.906
 4150POPC   C1A54123  33.869  19.681   6.338
 4150POPC   D2A54124  33.860  19.641   6.787
 4150POPC   C3A54125  33.993  19.920   7.146
 4150POPC   C4A54126  34.056  20.187   7.548
 4150POPC   C1B54127  33.421  19.963   6.219
 4150POPC   C2B54128  33.126  20.133   6.502
 4150POPC   C3B54129  33.420  20.097   6.803
 4150POPC   C4B54130  33.494  19.757   7.121
 4151POPC   NC354131  42.564  43.502   5.323
 4151POPC   PO454132  42.141  43.969   5.396
 4151POPC   GL154133  42.249  43.730   5.709
 4151POPC   GL254134  41.986  43.564   5.872
 4151POPC   C1A54135  42.464  43.799   6.086
 4151POPC   D2A54136  42.386  43.987   6.483
 4151POPC   C3A54137  42.552  43.805   6.846
 4151POPC   C4A54138  42.553  44.084   7.181
 4151POPC   C1B54139  42.054  43.568   6.307
 4151POPC   C2B54140  41.906  43.877   6.598
 4151POPC   C3B54141  42.088  43.960   6.967
 4151POPC   C4B54142  42.217  43.756   7.356
 4152POPC   NC354143  32.082  23.000   5.196
 4152POPC   PO454144  32.504  22.514   5.354
 4152POPC   GL154145  32.214  22.805   5.645
 4152POPC   GL254146  32.249  23.197   5.678
 4152POPC   C1A54147  32.027  22.914   6.067
 4152POPC   D2A54148  32.253  22.883   6.465
 4152POPC   C3A54149  32.035  22.990   6.860
 4152POPC   C4A54150  32.215  22.742   7.212
 4152POPC   C1B54151  32.518  23.182   6.090
 4152POPC   C2B54152  32.680  23.237   6.527
 4152POPC   C3B54153  32.522  23.069   6.892
 4152POPC   C4B54154  32.338  23.231   7.253
 4153POPC   NC354155  21.258  38.880   5.460
 4153POPC   PO454156  21.529  38.281   5.473
 4153POPC   GL154157  21.407  38.527   5.851
 4153POPC   GL254158  21.614  38.855   5.829
 4153POPC   C1A54159  21.201  38.507   6.282
 4153POPC   D2A54160  21.103  38.348   6.725
 4153POPC   C3A54161  21.399  38.382   7.059
 4153POPC   C4A54162  21.349  38.464   7.456
 4153POPC   C1B54163  21.698  38.701   6.243
 4153POPC   C2B54164  21.546  38.636   6.656
 4153POPC   C3B54165  21.691  38.810   7.070
 4153POPC   C4B54166  21.686  38.828   7.551
 4154POPC   NC354167   3.014   0.579   5.291
 4154POPC   PO454168   2.613   0.119   5.497
 4154POPC   GL154169   2.515   0.422   5.836
 4154POPC   GL254170   2.838   0.591   5.857
 4154POPC   C1A54171   2.617   0.442   6.301
 4154POPC   D2A54172   2.831   0.428   6.692
 4154POPC   C3A54173   2.502   0.511   6.994
 4154POPC   C4A54174   2.352   0.786   7.314
 4154POPC   C1B54175   3.031   0.736   6.257
 4154POPC   C2B54176   3.045   0.909   6.654
 4154POPC   C3B54177   3.107   0.695   7.062
 4154POPC   C4B54178   2.882   0.447   7.324
 4155POPC   NC354179  19.464   6.445   5.324
 4155POPC   PO454180  18.892   6.726   5.168
 4155POPC   GL154181  18.912   6.787   5.611
 4155POPC   GL254182  19.244   6.829   5.685
 4155POPC   C1A54183  18.978   6.581   6.045
 4155POPC   D2A54184  19.080   6.716   6.481
 4155POPC   C3A54185  19.102   6.438   6.845
 4155POPC   C4A54186  18.818   6.456   7.221
 4155POPC   C1B54187  19.421   6.889   6.120
 4155POPC   C2B54188  19.583   6.656   6.511
 4155POPC   C3B54189  19.479   6.802   6.909
 4155POPC   C4B54190  19.119   6.859   7.158
 4156POPC   NC354191  22.228  29.180   5.224
 4156POPC   PO454192  22.238  29.836   5.427
 4156POPC   GL154193  22.237  29.515   5.774
 4156POPC   GL254194  21.911  29.506   5.894
 4156POPC   C1A54195  22.298  29.302   6.204
 4156POPC   D2A54196  22.415  29.330   6.649
 4156POPC   C3A54197  22.416  29.010   7.002
 4156POPC   C4A54198  22.333  28.864   7.460
 4156POPC   C1B54199  21.804  29.451   6.359
 4156POPC   C2B54200  21.899  29.268   6.781
 4156POPC   C3B54201  21.946  29.127   7.220
 4156POPC   C4B54202  22.094  29.329   7.606
 4157POPC   NC354203  36.639  38.808   5.209
 4157POPC   PO454204  36.970  38.296   5.544
 4157POPC   GL154205  37.132  38.464   5.910
 4157POPC   GL254206  37.315  38.148   5.950
 4157POPC   C1A54207  36.952  38.661   6.298
 4157POPC   D2A54208  37.112  38.546   6.714
 4157POPC   C3A54209  36.881  38.538   7.106
 4157POPC   C4A54210  37.018  38.651   7.516
 4157POPC   C1B54211  37.079  38.164   6.357
 4157POPC   C2B54212  36.749  38.142   6.701
 4157POPC   C3B54213  36.873  38.001   7.114
 4157POPC   C4B54214  37.299  38.144   7.244
 4158POPC   NC354215  20.613  34.798   5.348
 4158POPC   PO454216  20.472  35.448   5.388
 4158POPC   GL154217  20.541  35.300   5.831
 4158POPC   GL254218  20.849  35.123   5.839
 4158POPC   C1A54219  20.397  35.161   6.279
 4158POPC   D2A54220  20.302  35.190   6.743
 4158POPC   C3A54221  20.524  35.468   7.043
 4158POPC   C4A54222  20.475  35.374   7.478
 4158POPC   C1B54223  20.887  35.309   6.231
 4158POPC   C2B54224  20.789  35.215   6.651
 4158POPC   C3B54225  21.003  35.296   7.031
 4158POPC   C4B54226  20.925  35.128   7.436
 4159POPC   NC354227  30.045   3.909   5.550
 4159POPC   PO454228  29.750   4.504   5.274
 4159POPC   GL154229  29.713   4.495   5.768
 4159POPC   GL254230  29.782   4.170   5.878
 4159POPC   C1A54231  29.855   4.590   6.203
 4159POPC   D2A54232  30.140   4.598   6.563
 4159POPC   C3A54233  29.936   4.493   6.974
 4159POPC   C4A54234  29.798   4.339   7.383
 4159POPC   C1B54235  29.961   4.002   6.255
 4159POPC   C2B54236  30.104   4.084   6.675
 4159POPC   C3B54237  29.975   3.953   7.092
 4159POPC   C4B54238  29.603   3.872   7.368
 4160POPC   NC354239  12.158  31.474   5.448
 4160POPC   PO454240  11.606  31.827   5.666
 4160POPC   GL154241  11.805  31.452   5.841
 4160POPC   GL254242  12.145  31.532   5.945
 4160POPC   C1A54243  11.883  31.199   6.212
 4160POPC   D2A54244  12.055  31.471   6.520
 4160POPC   C3A54245  12.003  31.318   6.941
 4160POPC   C4A54246  12.086  31.584   7.264
 4160POPC   C1B54247  12.427  31.298   6.204
 4160POPC   C2B54248  12.427  31.129   6.610
 4160POPC   C3B54249  12.504  31.357   6.996
 4160POPC   C4B54250  12.552  31.467   7.444
 4161POPC   NC354251  30.131  15.083   5.431
 4161POPC   PO454252  29.514  15.270   5.442
 4161POPC   GL154253  29.740  15.143   5.834
 4161POPC   GL254254  30.055  15.347   5.868
 4161POPC   C1A54255  29.794  15.041   6.295
 4161POPC   D2A54256  29.989  14.992   6.729
 4161POPC   C3A54257  29.846  15.141   7.128
 4161POPC   C4A54258  29.730  15.556   7.213
 4161POPC   C1B54259  30.257  15.255   6.259
 4161POPC   C2B54260  30.409  15.484   6.611
 4161POPC   C3B54261  30.295  15.360   7.031
 4161POPC   C4B54262  30.338  14.973   7.265
 4162POPC   NC354263  23.372  30.200   5.067
 4162POPC   PO454264  23.734  30.661   5.435
 4162POPC   GL154265  23.690  30.673   5.848
 4162POPC   GL254266  23.337  30.719   5.899
 4162POPC   C1A54267  23.676  30.763   6.259
 4162POPC   D2A54268  23.834  30.575   6.557
 4162POPC   C3A54269  23.754  30.783   6.896
 4162POPC   C4A54270  23.751  30.758   7.304
 4162POPC   C1B54271  23.398  30.341   6.218
 4162POPC   C2B54272  23.431  30.299   6.680
 4162POPC   C3B54273  23.379  30.464   7.102
 4162POPC   C4B54274  23.368  30.545   7.564
 4163POPC   NC354275  13.906  27.024   5.608
 4163POPC   PO454276  14.437  26.581   5.591
 4163POPC   GL154277  14.294  26.881   5.906
 4163POPC   GL254278  14.322  27.224   5.796
 4163POPC   C1A54279  14.078  26.837   6.295
 4163POPC   D2A54280  14.234  26.499   6.565
 4163POPC   C3A54281  14.416  26.626   6.937
 4163POPC   C4A54282  14.356  26.824   7.341
 4163POPC   C1B54283  14.498  27.258   6.199
 4163POPC   C2B54284  14.477  26.998   6.580
 4163POPC   C3B54285  14.654  27.091   6.979
 4163POPC   C4B54286  14.457  27.343   7.273
 4164POPC   NC354287  43.448  17.324   5.484
 4164POPC   PO454288  42.882  17.043   5.587
 4164POPC   GL154289  42.964  17.497   5.771
 4164POPC   GL254290  43.274  17.631   5.856
 4164POPC   C1A54291  42.912  17.824   6.157
 4164POPC   D2A54292  42.773  17.817   6.611
 4164POPC   C3A54293  42.830  17.521   6.926
 4164POPC   C4A54294  43.101  17.457   7.271
 4164POPC   C1B54295  43.187  17.376   6.239
 4164POPC   C2B54296  43.257  17.340   6.691
 4164POPC   C3B54297  43.400  17.087   7.057
 4164POPC   C4B54298  43.346  17.032   7.493
 4165POPC   NC354299  16.492  14.503   5.688
 4165POPC   PO454300  16.857  14.005   5.493
 4165POPC   GL154301  16.825  14.180   5.871
 4165POPC   GL254302  16.954  14.496   5.910
 4165POPC   C1A54303  16.664  14.284   6.297
 4165POPC   D2A54304  16.411  14.185   6.622
 4165POPC   C3A54305  16.606  14.355   6.933
 4165POPC   C4A54306  16.587  14.318   7.347
 4165POPC   C1B54307  16.779  14.758   6.299
 4165POPC   C2B54308  16.764  14.806   6.763
 4165POPC   C3B54309  16.943  14.664   7.177
 4165POPC   C4B54310  17.130  14.832   7.579
 4166POPC   NC354311  11.565  23.416   5.407
 4166POPC   PO454312  10.931  23.480   5.439
 4166POPC   GL154313  11.240  23.505   5.805
 4166POPC   GL254314  11.331  23.816   5.935
 4166POPC   C1A54315  11.377  23.354   6.215
 4166POPC   D2A54316  11.203  23.295   6.650
 4166POPC   C3A54317  11.306  23.622   6.947
 4166POPC   C4A54318  11.679  23.912   7.004
 4166POPC   C1B54319  11.182  23.803   6.386
 4166POPC   C2B54320  11.006  24.107   6.721
 4166POPC   C3B54321  11.196  24.091   7.144
 4166POPC   C4B54322  11.287  24.004   7.573
 4167POPC   NC354323  12.186  40.714   5.330
 4167POPC   PO454324  12.556  41.204   5.635
 4167POPC   GL154325  12.319  40.884   5.840
 4167POPC   GL254326  11.979  40.861   5.803
 4167POPC   C1A54327  12.238  40.699   6.257
 4167POPC   D2A54328  12.030  40.803   6.644
 4167POPC   C3A54329  12.273  40.673   7.059
 4167POPC   C4A54330  12.301  40.499   7.527
 4167POPC   C1B54331  11.979  41.134   6.199
 4167POPC   C2B54332  12.255  41.278   6.549
 4167POPC   C3B54333  12.144  41.168   6.971
 4167POPC   C4B54334  11.791  40.882   7.091
 4168POPC   NC354335  33.838  38.690   5.469
 4168POPC   PO454336  33.308  38.329   5.402
 4168POPC   GL154337  33.563  38.331   5.786
 4168POPC   GL254338  33.948  38.336   5.808
 4168POPC   C1A54339  33.563  38.593   6.163
 4168POPC   D2A54340  33.773  38.648   6.555
 4168POPC   C3A54341  33.587  38.722   6.938
 4168POPC   C4A54342  33.787  38.705   7.323
 4168POPC   C1B54343  34.157  38.141   6.153
 4168POPC   C2B54344  34.009  38.188   6.566
 4168POPC   C3B54345  33.892  38.298   6.990
 4168POPC   C4B54346  34.139  38.105   7.306
 4169POPC   NC354347  15.149  34.759   5.181
 4169POPC   PO454348  14.965  34.170   5.263
 4169POPC   GL154349  15.166  34.539   5.694
 4169POPC   GL254350  15.107  34.843   5.729
 4169POPC   C1A54351  15.042  34.547   6.193
 4169POPC   D2A54352  15.281  34.290   6.504
 4169POPC   C3A54353  15.069  34.253   6.893
 4169POPC   C4A54354  14.938  34.491   7.254
 4169POPC   C1B54355  15.351  34.919   6.142
 4169POPC   C2B54356  15.404  34.796   6.597
 4169POPC   C3B54357  15.250  34.838   7.035
 4169POPC   C4B54358  15.290  34.792   7.519
 4170POPC   NC354359  18.560   9.542   5.323
 4170POPC   PO454360  18.207  10.133   5.405
 4170POPC   GL154361  18.178   9.740   5.641
 4170POPC   GL254362  18.514   9.673   5.811
 4170POPC   C1A54363  18.048   9.602   6.041
 4170POPC   D2A54364  18.277   9.716   6.446
 4170POPC   C3A54365  18.116   9.738   6.876
 4170POPC   C4A54366  18.102   9.542   7.277
 4170POPC   C1B54367  18.710   9.790   6.167
 4170POPC   C2B54368  18.776   9.728   6.586
 4170POPC   C3B54369  18.573   9.934   6.915
 4170POPC   C4B54370  18.440   9.923   7.306
 4171POPC   NC354371   5.237  31.627   5.388
 4171POPC   PO454372   4.609  31.315   5.559
 4171POPC   GL154373   4.979  31.519   5.807
 4171POPC   GL254374   5.247  31.258   5.858
 4171POPC   C1A54375   5.317  31.712   6.103
 4171POPC   D2A54376   5.227  31.606   6.525
 4171POPC   C3A54377   5.168  31.647   6.965
 4171POPC   C4A54378   4.877  31.411   7.214
 4171POPC   C1B54379   5.441  31.195   6.271
 4171POPC   C2B54380   5.498  31.212   6.734
 4171POPC   C3B54381   5.362  31.230   7.194
 4171POPC   C4B54382   5.364  31.146   7.644
 4172POPC   NC354383  15.806   1.840   5.302
 4172POPC   PO454384  16.229   2.267   5.103
 4172POPC   GL154385  16.150   1.992   5.623
 4172POPC   GL254386  15.783   2.025   5.780
 4172POPC   C1A54387  16.174   2.077   6.111
 4172POPC   D2A54388  16.077   2.211   6.575
 4172POPC   C3A54389  16.321   2.030   6.920
 4172POPC   C4A54390  16.194   1.839   7.264
 4172POPC   C1B54391  15.624   2.102   6.209
 4172POPC   C2B54392  15.647   1.958   6.625
 4172POPC   C3B54393  15.781   2.064   7.036
 4172POPC   C4B54394  15.697   1.828   7.397
 4173POPC   NC354395  36.502   8.078   5.459
 4173POPC   PO454396  35.946   8.264   5.322
 4173POPC   GL154397  35.970   8.337   5.737
 4173POPC   GL254398  36.323   8.392   5.854
 4173POPC   C1A54399  35.964   8.083   6.124
 4173POPC   D2A54400  36.147   8.250   6.499
 4173POPC   C3A54401  35.930   8.227   6.861
 4173POPC   C4A54402  35.889   8.102   7.240
 4173POPC   C1B54403  36.497   8.052   6.149
 4173POPC   C2B54404  36.513   7.894   6.571
 4173POPC   C3B54405  36.410   8.080   6.959
 4173POPC   C4B54406  36.319   7.852   7.332
 4174POPC   NC354407  35.237  25.451   5.367
 4174POPC   PO454408  35.278  26.099   5.375
 4174POPC   GL154409  35.373  26.261   5.762
 4174POPC   GL254410  35.108  26.340   5.996
 4174POPC   C1A54411  35.576  26.195   6.173
 4174POPC   D2A54412  35.357  26.197   6.552
 4174POPC   C3A54413  35.443  25.907   6.863
 4174POPC   C4A54414  35.207  26.017   7.198
 4174POPC   C1B54415  35.180  25.880   6.162
 4174POPC   C2B54416  35.120  25.619   6.569
 4174POPC   C3B54417  35.074  25.552   7.033
 4174POPC   C4B54418  34.901  25.436   7.447
 4175POPC   NC354419  14.749  31.757   5.397
 4175POPC   PO454420  14.376  31.225   5.279
 4175POPC   GL154421  14.436  31.517   5.741
 4175POPC   GL254422  14.762  31.646   5.934
 4175POPC   C1A54423  14.296  31.573   6.193
 4175POPC   D2A54424  14.224  31.377   6.618
 4175POPC   C3A54425  14.224  31.588   6.996
 4175POPC   C4A54426  14.444  31.742   7.333
 4175POPC   C1B54427  14.666  31.239   6.136
 4175POPC   C2B54428  14.665  31.118   6.538
 4175POPC   C3B54429  14.586  31.152   6.954
 4175POPC   C4B54430  14.821  31.336   7.258
 4176POPC   NC354431  29.159  44.285   5.468
 4176POPC   PO454432  29.395  43.654   5.404
 4176POPC   GL154433  29.235  43.864   5.769
 4176POPC   GL254434  29.526  44.077   5.833
 4176POPC   C1A54435  29.180  43.860   6.245
 4176POPC   D2A54436  29.330  43.761   6.700
 4176POPC   C3A54437  29.070  43.701   7.100
 4176POPC   C4A54438  29.121  43.403   7.452
 4176POPC   C1B54439  29.451  44.309   6.218
 4176POPC   C2B54440  29.573  44.217   6.655
 4176POPC   C3B54441  29.382  44.133   7.085
 4176POPC   C4B54442  28.974  44.180   7.345
 4177POPC   NC354443   4.118   9.884   5.302
 4177POPC   PO454444   4.525   9.453   5.451
 4177POPC   GL154445   4.221   9.594   5.745
 4177POPC   GL254446   3.956   9.870   5.771
 4177POPC   C1A54447   4.184   9.482   6.167
 4177POPC   D2A54448   4.365   9.726   6.510
 4177POPC   C3A54449   4.292   9.625   6.933
 4177POPC   C4A54450   4.531   9.812   7.241
 4177POPC   C1B54451   4.065   9.973   6.158
 4177POPC   C2B54452   3.931  10.012   6.583
 4177POPC   C3B54453   4.093  10.079   6.979
 4177POPC   C4B54454   4.036   9.835   7.347
 4178POPC   NC354455  21.344  20.944   5.306
 4178POPC   PO454456  21.253  20.294   5.561
 4178POPC   GL154457  21.474  20.667   5.757
 4178POPC   GL254458  21.529  20.424   5.989
 4178POPC   C1A54459  21.606  20.864   6.199
 4178POPC   D2A54460  21.660  20.688   6.638
 4178POPC   C3A54461  21.278  20.565   6.828
 4178POPC   C4A54462  21.228  20.734   7.196
 4178POPC   C1B54463  21.281  20.491   6.316
 4178POPC   C2B54464  21.089  20.171   6.472
 4178POPC   C3B54465  21.118  20.077   6.870
 4178POPC   C4B54466  21.083  20.249   7.248
 4179POPC   NC354467  31.031   6.900   5.453
 4179POPC   PO454468  30.614   6.357   5.491
 4179POPC   GL154469  30.755   6.450   5.875
 4179POPC   GL254470  30.959   6.177   5.978
 4179POPC   C1A54471  30.614   6.692   6.252
 4179POPC   D2A54472  30.756   6.979   6.569
 4179POPC   C3A54473  30.615   6.890   6.951
 4179POPC   C4A54474  30.764   6.992   7.310
 4179POPC   C1B54475  30.974   6.241   6.405
 4179POPC   C2B54476  30.734   6.445   6.710
 4179POPC   C3B54477  30.742   6.451   7.165
 4179POPC   C4B54478  30.934   6.312   7.567
 4180POPC   NC354479  40.406   7.827   5.221
 4180POPC   PO454480  39.775   8.150   5.205
 4180POPC   GL154481  39.898   8.211   5.658
 4180POPC   GL254482  39.949   7.860   5.814
 4180POPC   C1A54483  39.814   8.311   6.110
 4180POPC   D2A54484  39.999   8.373   6.505
 4180POPC   C3A54485  39.746   8.510   6.839
 4180POPC   C4A54486  39.989   8.499   7.185
 4180POPC   C1B54487  40.227   8.026   6.135
 4180POPC   C2B54488  40.314   7.968   6.575
 4180POPC   C3B54489  40.259   8.110   7.006
 4180POPC   C4B54490  40.179   7.941   7.448
 4181POPC   NC354491   1.630   5.448   5.375
 4181POPC   PO454492   1.175   4.972   5.111
 4181POPC   GL154493   1.335   4.983   5.581
 4181POPC   GL254494   1.353   5.298   5.771
 4181POPC   C1A54495   1.334   4.889   6.068
 4181POPC   D2A54496   1.442   5.014   6.520
 4181POPC   C3A54497   1.250   4.803   6.875
 4181POPC   C4A54498   1.190   4.953   7.286
 4181POPC   C1B54499   1.190   5.345   6.204
 4181POPC   C2B54500   0.974   5.261   6.553
 4181POPC   C3B54501   1.195   5.318   6.919
 4181POPC   C4B54502   1.045   5.429   7.304
 4182POPC   NC354503  42.695  19.546   5.414
 4182POPC   PO454504  42.358  20.095   5.146
 4182POPC   GL154505  42.210  19.873   5.575
 4182POPC   GL254506  42.385  19.612   5.827
 4182POPC   C1A54507  42.079  19.963   6.030
 4182POPC   D2A54508  42.087  19.743   6.438
 4182POPC   C3A54509  42.034  19.907   6.870
 4182POPC   C4A54510  42.132  19.599   7.194
 4182POPC   C1B54511  42.553  19.851   6.229
 4182POPC   C2B54512  42.428  20.117   6.615
 4182POPC   C3B54513  42.540  19.928   7.035
 4182POPC   C4B54514  42.766  19.774   7.415
 4183POPC   NC354515  31.506  13.994   5.744
 4183POPC   PO454516  31.518  13.454   5.336
 4183POPC   GL154517  31.373  13.474   5.794
 4183POPC   GL254518  31.112  13.720   5.958
 4183POPC   C1A54519  31.553  13.566   6.219
 4183POPC   D2A54520  31.811  13.683   6.556
 4183POPC   C3A54521  31.577  13.717   6.931
 4183POPC   C4A54522  31.601  13.461   7.265
 4183POPC   C1B54523  31.204  14.045   6.295
 4183POPC   C2B54524  31.525  14.133   6.585
 4183POPC   C3B54525  31.237  14.085   6.855
 4183POPC   C4B54526  31.106  14.024   7.251
 4184POPC   NC354527   1.585  19.584   5.344
 4184POPC   PO454528   0.917  19.788   5.421
 4184POPC   GL154529   0.984  19.859   5.832
 4184POPC   GL254530   1.336  19.919   5.816
 4184POPC   C1A54531   1.155  19.633   6.197
 4184POPC   D2A54532   1.310  19.776   6.610
 4184POPC   C3A54533   1.119  19.522   6.907
 4184POPC   C4A54534   1.100  19.528   7.315
 4184POPC   C1B54535   1.523  20.178   6.138
 4184POPC   C2B54536   1.697  20.154   6.567
 4184POPC   C3B54537   1.614  20.191   7.000
 4184POPC   C4B54538   1.504  20.061   7.412
 4185POPC   NC354539   4.752  34.115   5.130
 4185POPC   PO454540   5.238  33.679   5.435
 4185POPC   GL154541   5.270  33.864   5.842
 4185POPC   GL254542   4.947  33.795   6.017
 4185POPC   C1A54543   5.340  34.077   6.244
 4185POPC   D2A54544   5.226  33.892   6.617
 4185POPC   C3A54545   5.276  34.066   7.032
 4185POPC   C4A54546   5.431  33.967   7.465
 4185POPC   C1B54547   4.828  34.065   6.318
 4185POPC   C2B54548   4.691  33.989   6.694
 4185POPC   C3B54549   4.785  34.218   7.029
 4185POPC   C4B54550   4.945  34.058   7.427
 4186POPC   NC354551   5.664  17.028   5.389
 4186POPC   PO454552   6.121  16.668   5.142
 4186POPC   GL154553   6.124  16.674   5.643
 4186POPC   GL254554   5.785  16.768   5.821
 4186POPC   C1A54555   6.185  16.754   6.125
 4186POPC   D2A54556   5.971  16.687   6.544
 4186POPC   C3A54557   6.073  16.888   6.950
 4186POPC   C4A54558   5.992  16.720   7.387
 4186POPC   C1B54559   5.733  17.032   6.233
 4186POPC   C2B54560   5.642  17.068   6.718
 4186POPC   C3B54561   5.522  16.825   7.117
 4186POPC   C4B54562   5.553  16.893   7.600
 4187POPC   NC354563  20.891  39.544   5.383
 4187POPC   PO454564  21.554  39.259   5.456
 4187POPC   GL154565  21.340  39.290   5.825
 4187POPC   GL254566  21.570  39.550   5.899
 4187POPC   C1A54567  21.278  39.019   6.211
 4187POPC   D2A54568  21.073  38.865   6.631
 4187POPC   C3A54569  21.197  38.954   7.080
 4187POPC   C4A54570  21.261  39.343   7.373
 4187POPC   C1B54571  21.522  39.455   6.309
 4187POPC   C2B54572  21.614  39.141   6.582
 4187POPC   C3B54573  21.504  39.342   6.921
 4187POPC   C4B54574  21.583  39.724   7.193
 4188POPC   NC354575  23.252   4.078   5.451
 4188POPC   PO454576  22.806   4.605   5.471
 4188POPC   GL154577  22.959   4.402   5.830
 4188POPC   GL254578  23.271   4.540   5.828
 4188POPC   C1A54579  22.736   4.315   6.233
 4188POPC   D2A54580  22.628   4.037   6.567
 4188POPC   C3A54581  22.613   4.270   6.943
 4188POPC   C4A54582  22.777   4.179   7.343
 4188POPC   C1B54583  23.297   4.341   6.231
 4188POPC   C2B54584  23.074   4.326   6.633
 4188POPC   C3B54585  23.248   4.457   7.020
 4188POPC   C4B54586  23.184   4.459   7.443
 4189POPC   NC354587  43.076   7.895   5.417
 4189POPC   PO454588  43.005   8.559   5.577
 4189POPC   GL154589  43.309   8.381   5.837
 4189POPC   GL254590  43.191   8.056   5.890
 4189POPC   C1A54591  43.483   8.283   6.272
 4189POPC   D2A54592  43.589   8.459   6.694
 4189POPC   C3A54593  43.261   8.352   6.997
 4189POPC   C4A54594  43.374   8.109   7.327
 4189POPC   C1B54595  42.953   8.288   6.221
 4189POPC   C2B54596  42.917   8.169   6.649
 4189POPC   C3B54597  42.700   8.240   7.041
 4189POPC   C4B54598  42.821   8.055   7.446
 4190POPC   NC354599  23.136  42.537   5.686
 4190POPC   PO454600  22.838  42.057   5.333
 4190POPC   GL154601  22.843  42.096   5.783
 4190POPC   GL254602  23.194  42.040   5.810
 4190POPC   C1A54603  22.903  42.258   6.240
 4190POPC   D2A54604  22.945  42.545   6.618
 4190POPC   C3A54605  22.660  42.460   6.977
 4190POPC   C4A54606  22.773  42.514   7.408
 4190POPC   C1B54607  23.362  41.996   6.222
 4190POPC   C2B54608  23.227  42.104   6.611
 4190POPC   C3B54609  23.123  42.234   6.994
 4190POPC   C4B54610  23.208  42.247   7.406
 4191POPC   NC354611  23.391  43.187   5.507
 4191POPC   PO454612  22.781  42.811   5.661
 4191POPC   GL154613  22.940  43.180   5.818
 4191POPC   GL254614  23.216  42.988   5.946
 4191POPC   C1A54615  22.815  43.314   6.243
 4191POPC   D2A54616  23.014  43.076   6.576
 4191POPC   C3A54617  22.780  42.967   6.916
 4191POPC   C4A54618  22.590  43.283   7.122
 4191POPC   C1B54619  23.320  43.348   6.186
 4191POPC   C2B54620  23.431  43.362   6.630
 4191POPC   C3B54621  23.436  43.014   6.926
 4191POPC   C4B54622  23.190  42.709   7.137
 4192POPC   NC354623  12.475  14.486   5.616
 4192POPC   PO454624  11.902  14.118   5.519
 4192POPC   GL154625  12.002  14.400   5.862
 4192POPC   GL254626  12.311  14.233   6.025
 4192POPC   C1A54627  11.991  14.549   6.307
 4192POPC   D2A54628  12.067  14.302   6.702
 4192POPC   C3A54629  11.896  14.465   7.109
 4192POPC   C4A54630  12.184  14.454   7.491
 4192POPC   C1B54631  11.961  14.035   6.235
 4192POPC   C2B54632  11.771  13.811   6.557
 4192POPC   C3B54633  11.779  13.956   6.972
 4192POPC   C4B54634  12.183  14.053   7.180
 4193POPC   NC354635  13.025  17.012   5.357
 4193POPC   PO454636  12.633  16.476   5.464
 4193POPC   GL154637  12.716  16.612   5.879
 4193POPC   GL254638  12.871  16.927   5.846
 4193POPC   C1A54639  12.639  16.595   6.334
 4193POPC   D2A54640  12.849  16.819   6.675
 4193POPC   C3A54641  12.658  16.750   7.047
 4193POPC   C4A54642  12.553  16.442   7.337
 4193POPC   C1B54643  13.103  16.803   6.219
 4193POPC   C2B54644  13.355  16.769   6.616
 4193POPC   C3B54645  13.230  16.769   7.032
 4193POPC   C4B54646  13.032  16.607   7.391
 4194POPC   NC354647  33.915  28.722   5.426
 4194POPC   PO454648  34.095  28.025   5.519
 4194POPC   GL154649  33.945  28.329   5.850
 4194POPC   GL254650  33.723  28.610   5.892
 4194POPC   C1A54651  33.855  28.281   6.314
 4194POPC   D2A54652  33.951  28.451   6.747
 4194POPC   C3A54653  34.130  28.200   7.100
 4194POPC   C4A54654  33.947  28.054   7.515
 4194POPC   C1B54655  33.372  28.729   6.134
 4194POPC   C2B54656  33.423  28.906   6.553
 4194POPC   C3B54657  33.543  28.738   6.959
 4194POPC   C4B54658  33.644  28.355   7.189
 4195POPC   NC354659   3.326  30.305   5.451
 4195POPC   PO454660   3.664  30.847   5.305
 4195POPC   GL154661   3.504  30.729   5.678
 4195POPC   GL254662   3.681  30.422   5.817
 4195POPC   C1A54663   3.441  30.888   6.072
 4195POPC   D2A54664   3.591  30.735   6.456
 4195POPC   C3A54665   3.412  30.903   6.810
 4195POPC   C4A54666   3.627  30.949   7.208
 4195POPC   C1B54667   3.363  30.395   6.151
 4195POPC   C2B54668   3.197  30.468   6.624
 4195POPC   C3B54669   3.437  30.454   7.038
 4195POPC   C4B54670   3.408  30.586   7.493
 4196POPC   NC354671  40.567  22.387   5.441
 4196POPC   PO454672  41.075  21.971   5.344
 4196POPC   GL154673  40.892  22.099   5.762
 4196POPC   GL254674  40.534  21.973   5.799
 4196POPC   C1A54675  41.041  22.242   6.190
 4196POPC   D2A54676  41.093  22.012   6.593
 4196POPC   C3A54677  41.056  22.192   7.056
 4196POPC   C4A54678  41.175  21.942   7.453
 4196POPC   C1B54679  40.578  22.048   6.254
 4196POPC   C2B54680  40.713  22.355   6.611
 4196POPC   C3B54681  40.460  22.515   6.945
 4196POPC   C4B54682  40.520  22.143   7.184
 4197POPC   NC354683  12.257  19.178   5.292
 4197POPC   PO454684  11.746  18.828   5.665
 4197POPC   GL154685  12.164  18.856   5.730
 4197POPC   GL254686  12.141  19.198   5.810
 4197POPC   C1A54687  12.192  18.816   6.177
 4197POPC   D2A54688  11.878  18.952   6.479
 4197POPC   C3A54689  11.981  19.005   6.888
 4197POPC   C4A54690  12.075  18.953   7.338
 4197POPC   C1B54691  12.166  19.394   6.239
 4197POPC   C2B54692  12.317  19.388   6.688
 4197POPC   C3B54693  12.148  19.414   7.127
 4197POPC   C4B54694  12.265  19.362   7.574
 4198POPC   NC354695  39.643   1.181   5.444
 4198POPC   PO454696  38.984   1.412   5.470
 4198POPC   GL154697  39.330   1.431   5.769
 4198POPC   GL254698  39.245   1.083   5.809
 4198POPC   C1A54699  39.527   1.299   6.164
 4198POPC   D2A54700  39.241   1.204   6.506
 4198POPC   C3A54701  39.413   1.279   6.916
 4198POPC   C4A54702  39.214   1.567   7.189
 4198POPC   C1B54703  38.909   1.063   6.131
 4198POPC   C2B54704  38.818   0.924   6.570
 4198POPC   C3B54705  38.940   1.129   6.959
 4198POPC   C4B54706  39.210   1.034   7.329
 4199POPC   NC354707  16.069   3.736   5.356
 4199POPC   PO454708  15.851   3.141   5.408
 4199POPC   GL154709  16.115   3.304   5.779
 4199POPC   GL254710  16.209   3.643   5.840
 4199POPC   C1A54711  16.084   3.398   6.247
 4199POPC   D2A54712  15.817   3.501   6.577
 4199POPC   C3A54713  15.956   3.440   6.956
 4199POPC   C4A54714  15.813   3.174   7.236
 4199POPC   C1B54715  16.254   3.895   6.237
 4199POPC   C2B54716  16.178   3.880   6.699
 4199POPC   C3B54717  16.262   3.819   7.146
 4199POPC   C4B54718  15.944   3.653   7.434
 4200POPC   NC354719  37.743   7.044   5.264
 4200POPC   PO454720  37.949   6.397   5.377
 4200POPC   GL154721  37.750   6.670   5.692
 4200POPC   GL254722  37.432   6.490   5.819
 4200POPC   C1A54723  37.609   6.852   6.110
 4200POPC   D2A54724  37.352   6.850   6.479
 4200POPC   C3A54725  37.290   6.751   6.931
 4200POPC   C4A54726  37.335   6.480   7.311
 4200POPC   C1B54727  37.666   6.358   6.232
 4200POPC   C2B54728  37.618   6.402   6.687
 4200POPC   C3B54729  37.795   6.608   7.024
 4200POPC   C4B54730  38.127   6.502   7.283
 4201POPC   NC354731  34.375   2.548   5.053
 4201POPC   PO454732  34.940   2.804   5.400
 4201POPC   GL154733  34.780   2.780   5.804
 4201POPC   GL254734  34.756   3.103   5.982
 4201POPC   C1A54735  34.557   2.650   6.176
 4201POPC   D2A54736  34.338   2.717   6.551
 4201POPC   C3A54737  34.567   2.610   6.903
 4201POPC   C4A54738  34.427   2.645   7.299
 4201POPC   C1B54739  34.923   3.220   6.372
 4201POPC   C2B54740  34.643   3.098   6.676
 4201POPC   C3B54741  34.451   3.114   7.045
 4201POPC   C4B54742  34.667   3.101   7.419
 4202POPC   NC354743  18.052  32.449   5.459
 4202POPC   PO454744  18.699  32.318   5.637
 4202POPC   GL154745  18.303  32.187   5.835
 4202POPC   GL254746  18.188  32.517   5.967
 4202POPC   C1A54747  18.124  32.034   6.231
 4202POPC   D2A54748  18.121  32.278   6.633
 4202POPC   C3A54749  18.134  32.045   7.016
 4202POPC   C4A54750  18.254  32.112   7.451
 4202POPC   C1B54751  18.524  32.378   6.274
 4202POPC   C2B54752  18.724  32.333   6.670
 4202POPC   C3B54753  18.634  32.204   7.117
 4202POPC   C4B54754  18.737  32.198   7.584
 4203POPC   NC354755  33.477  29.682   5.396
 4203POPC   PO454756  34.100  30.007   5.260
 4203POPC   GL154757  33.875  29.844   5.725
 4203POPC   GL254758  33.678  29.543   5.831
 4203POPC   C1A54759  33.774  30.047   6.176
 4203POPC   D2A54760  33.661  30.223   6.607
 4203POPC   C3A54761  33.850  30.048   7.003
 4203POPC   C4A54762  33.986  29.641   7.110
 4203POPC   C1B54763  33.928  29.566   6.184
 4203POPC   C2B54764  33.856  29.725   6.587
 4203POPC   C3B54765  33.464  29.769   6.791
 4203POPC   C4B54766  33.477  29.716   7.199
 4204POPC   NC354767  37.192   2.982   5.494
 4204POPC   PO454768  36.618   2.624   5.429
 4204POPC   GL154769  36.879   2.610   5.780
 4204POPC   GL254770  37.193   2.435   5.626
 4204POPC   C1A54771  36.934   2.829   6.225
 4204POPC   D2A54772  37.058   2.944   6.704
 4204POPC   C3A54773  36.891   2.931   7.169
 4204POPC   C4A54774  37.123   2.956   7.614
 4204POPC   C1B54775  37.223   2.406   6.075
 4204POPC   C2B54776  37.155   2.450   6.506
 4204POPC   C3B54777  37.099   2.451   6.944
 4204POPC   C4B54778  37.146   2.526   7.364
 4205POPC   NC354779  14.637  25.407   5.306
 4205POPC   PO454780  14.138  24.942   5.263
 4205POPC   GL154781  14.241  25.076   5.710
 4205POPC   GL254782  14.588  25.142   5.747
 4205POPC   C1A54783  14.245  25.216   6.156
 4205POPC   D2A54784  13.962  25.473   6.422
 4205POPC   C3A54785  14.039  25.578   6.871
 4205POPC   C4A54786  14.137  25.353   7.255
 4205POPC   C1B54787  14.745  25.326   6.160
 4205POPC   C2B54788  14.597  25.217   6.575
 4205POPC   C3B54789  14.591  25.342   7.012
 4205POPC   C4B54790  14.613  25.366   7.464
 4206POPC   NC354791  22.477  22.211   5.447
 4206POPC   PO454792  21.920  21.951   5.320
 4206POPC   GL154793  22.120  21.936   5.721
 4206POPC   GL254794  22.065  22.287   5.763
 4206POPC   C1A54795  22.303  21.934   6.153
 4206POPC   D2A54796  22.471  21.794   6.555
 4206POPC   C3A54797  22.325  22.040   6.887
 4206POPC   C4A54798  22.228  22.112   7.333
 4206POPC   C1B54799  21.975  22.353   6.182
 4206POPC   C2B54800  21.931  22.503   6.630
 4206POPC   C3B54801  21.857  22.637   7.081
 4206POPC   C4B54802  21.841  22.428   7.525
 4207POPC   NC354803  23.738  35.488   5.492
 4207POPC   PO454804  23.551  34.901   5.192
 4207POPC   GL154805  23.574  35.044   5.664
 4207POPC   GL254806  23.717  34.790   5.797
 4207POPC   C1A54807  23.796  35.229   6.087
 4207POPC   D2A54808  24.034  35.516   6.367
 4207POPC   C3A54809  23.917  35.483   6.808
 4207POPC   C4A54810  23.926  35.433   7.263
 4207POPC   C1B54811  23.469  34.855   6.163
 4207POPC   C2B54812  23.528  35.045   6.603
 4207POPC   C3B54813  23.447  35.246   7.039
 4207POPC   C4B54814  23.321  35.128   7.468
 4208POPC   NC354815  18.812   1.365   5.484
 4208POPC   PO454816  19.373   1.329   5.537
 4208POPC   GL154817  19.134   1.201   5.854
 4208POPC   GL254818  18.938   0.914   5.751
 4208POPC   C1A54819  19.039   1.440   6.212
 4208POPC   D2A54820  19.121   1.434   6.651
 4208POPC   C3A54821  19.153   1.048   6.876
 4208POPC   C4A54822  19.183   1.099   7.324
 4208POPC   C1B54823  18.846   0.942   6.190
 4208POPC   C2B54824  18.679   1.212   6.494
 4208POPC   C3B54825  18.701   1.301   6.911
 4208POPC   C4B54826  18.686   0.961   7.228
 4209POPC   NC354827   3.428  44.431   5.658
 4209POPC   PO454828   3.563   0.099   5.582
 4209POPC   GL154829   3.404  44.872   5.924
 4209POPC   GL254830   3.744  44.710   5.980
 4209POPC   C1A54831   3.373  44.684   6.335
 4209POPC   D2A54832   3.631  44.537   6.665
 4209POPC   C3A54833   3.434  44.599   7.054
 4209POPC   C4A54834   3.241  44.699   7.456
 4209POPC   C1B54835   4.025  44.434   6.259
 4209POPC   C2B54836   4.053  44.225   6.667
 4209POPC   C3B54837   3.901  44.362   7.075
 4209POPC   C4B54838   3.661  44.393   7.496
 4210POPC   NC354839  41.140  31.316   5.273
 4210POPC   PO454840  40.467  31.592   5.290
 4210POPC   GL154841  40.732  31.565   5.677
 4210POPC   GL254842  40.721  31.216   5.816
 4210POPC   C1A54843  40.699  31.724   6.134
 4210POPC   D2A54844  40.864  31.655   6.561
 4210POPC   C3A54845  40.656  31.503   6.957
 4210POPC   C4A54846  40.908  31.807   7.121
 4210POPC   C1B54847  40.647  31.239   6.265
 4210POPC   C2B54848  40.890  31.148   6.632
 4210POPC   C3B54849  41.154  31.420   6.928
 4210POPC   C4B54850  40.986  31.252   7.288
 4211POPC   NC354851   5.693  37.308   5.338
 4211POPC   PO454852   5.881  37.956   5.534
 4211POPC   GL154853   5.934  37.583   5.770
 4211POPC   GL254854   6.248  37.423   5.696
 4211POPC   C1A54855   5.884  37.664   6.218
 4211POPC   D2A54856   5.978  37.918   6.605
 4211POPC   C3A54857   5.727  37.719   6.953
 4211POPC   C4A54858   5.847  37.755   7.400
 4211POPC   C1B54859   6.339  37.439   6.157
 4211POPC   C2B54860   6.166  37.451   6.597
 4211POPC   C3B54861   6.198  37.537   7.063
 4211POPC   C4B54862   6.209  37.281   7.455
 4212POPC   NC354863  11.809  41.780   5.528
 4212POPC   PO454864  11.915  41.151   5.337
 4212POPC   GL154865  12.061  41.378   5.760
 4212POPC   GL254866  11.824  41.574   5.976
 4212POPC   C1A54867  12.321  41.590   6.111
 4212POPC   D2A54868  12.341  41.868   6.497
 4212POPC   C3A54869  12.123  41.682   6.863
 4212POPC   C4A54870  12.355  41.534   7.232
 4212POPC   C1B54871  11.896  41.609   6.397
 4212POPC   C2B54872  11.755  41.320   6.680
 4212POPC   C3B54873  11.650  41.373   7.076
 4212POPC   C4B54874  11.886  41.599   7.360
 4213POPC   NC354875  24.282  27.032   5.411
 4213POPC   PO454876  24.782  26.568   5.512
 4213POPC   GL154877  24.448  26.711   5.752
 4213POPC   GL254878  24.587  26.990   5.819
 4213POPC   C1A54879  24.284  26.629   6.152
 4213POPC   D2A54880  24.521  26.523   6.528
 4213POPC   C3A54881  24.421  26.744   6.903
 4213POPC   C4A54882  24.586  26.777   7.296
 4213POPC   C1B54883  24.758  26.807   6.174
 4213POPC   C2B54884  24.847  26.930   6.578
 4213POPC   C3B54885  24.712  27.252   6.832
 4213POPC   C4B54886  24.772  27.257   7.249
 4214POPC   NC354887  43.730   1.193   5.209
 4214POPC   PO454888  43.076   1.307   5.134
 4214POPC   GL154889  43.037   1.358   5.630
 4214POPC   GL254890  43.297   1.158   5.769
 4214POPC   C1A54891  42.874   1.300   6.083
 4214POPC   D2A54892  43.014   1.261   6.532
 4214POPC   C3A54893  42.783   1.314   6.937
 4214POPC   C4A54894  42.923   1.208   7.353
 4214POPC   C1B54895  43.421   1.295   6.196
 4214POPC   C2B54896  43.431   1.571   6.585
 4214POPC   C3B54897  43.370   1.455   7.013
 4214POPC   C4B54898  43.572   1.171   7.259
 4215POPC   NC354899  35.416   0.164   5.367
 4215POPC   PO454900  35.162   0.810   5.442
 4215POPC   GL154901  35.136   0.467   5.759
 4215POPC   GL254902  35.498   0.489   5.769
 4215POPC   C1A54903  35.258   0.291   6.205
 4215POPC   D2A54904  35.443   0.335   6.647
 4215POPC   C3A54905  35.214   0.210   7.028
 4215POPC   C4A54906  35.302   0.327   7.474
 4215POPC   C1B54907  35.349   0.815   6.082
 4215POPC   C2B54908  35.295   0.813   6.522
 4215POPC   C3B54909  35.200   0.705   6.950
 4215POPC   C4B54910  35.240   0.836   7.369
 4216POPC   NC354911  25.424  37.794   5.466
 4216POPC   PO454912  24.854  37.504   5.393
 4216POPC   GL154913  25.089  37.588   5.800
 4216POPC   GL254914  25.425  37.469   5.871
 4216POPC   C1A54915  25.312  37.922   6.075
 4216POPC   D2A54916  25.576  37.895   6.413
 4216POPC   C3A54917  25.332  37.791   6.764
 4216POPC   C4A54918  25.285  37.936   7.198
 4216POPC   C1B54919  25.357  37.442   6.306
 4216POPC   C2B54920  25.666  37.411   6.644
 4216POPC   C3B54921  25.599  37.525   7.088
 4216POPC   C4B54922  25.124  37.452   7.165
 4217POPC   NC354923  34.900   4.043   5.369
 4217POPC   PO454924  34.423   4.578   5.491
 4217POPC   GL154925  34.566   4.529   5.853
 4217POPC   GL254926  34.604   4.172   5.765
 4217POPC   C1A54927  34.389   4.519   6.252
 4217POPC   D2A54928  34.461   4.535   6.696
 4217POPC   C3A54929  34.487   4.614   7.115
 4217POPC   C4A54930  34.825   4.415   7.272
 4217POPC   C1B54931  34.418   3.971   6.101
 4217POPC   C2B54932  34.496   4.054   6.523
 4217POPC   C3B54933  34.674   4.046   6.929
 4217POPC   C4B54934  34.447   3.956   7.306
 4218POPC   NC354935  18.440   1.819   5.391
 4218POPC   PO454936  18.343   2.342   5.213
 4218POPC   GL154937  18.431   2.250   5.691
 4218POPC   GL254938  18.654   1.939   5.825
 4218POPC   C1A54939  18.306   2.161   6.160
 4218POPC   D2A54940  18.169   2.342   6.573
 4218POPC   C3A54941  18.090   2.099   6.975
 4218POPC   C4A54942  18.074   1.817   7.363
 4218POPC   C1B54943  18.805   2.266   6.068
 4218POPC   C2B54944  18.696   2.365   6.490
 4218POPC   C3B54945  18.568   2.300   6.905
 4218POPC   C4B54946  18.544   1.939   7.156
 4219POPC   NC354947  13.602  30.044   5.191
 4219POPC   PO454948  13.686  30.705   5.100
 4219POPC   GL154949  13.633  30.816   5.565
 4219POPC   GL254950  13.349  30.632   5.769
 4219POPC   C1A54951  13.754  30.877   6.017
 4219POPC   D2A54952  13.741  30.960   6.479
 4219POPC   C3A54953  13.777  30.624   6.784
 4219POPC   C4A54954  13.760  30.661   7.210
 4219POPC   C1B54955  13.313  30.722   6.252
 4219POPC   C2B54956  13.302  30.841   6.723
 4219POPC   C3B54957  13.240  30.721   7.171
 4219POPC   C4B54958  13.392  30.392   7.440
 4220POPC   NC354959  30.579  20.080   5.322
 4220POPC   PO454960  30.715  20.684   5.375
 4220POPC   GL154961  30.763  20.689   5.825
 4220POPC   GL254962  30.812  20.953   6.023
 4220POPC   C1A54963  30.855  20.497   6.210
 4220POPC   D2A54964  30.631  20.454   6.560
 4220POPC   C3A54965  30.742  20.630   6.920
 4220POPC   C4A54966  30.523  20.770   7.273
 4220POPC   C1B54967  30.489  20.910   6.308
 4220POPC   C2B54968  30.506  21.056   6.746
 4220POPC   C3B54969  30.860  21.104   7.056
 4220POPC   C4B54970  30.930  20.945   7.510
 4221POPC   NC354971  29.175  12.370   5.355
 4221POPC   PO454972  28.831  11.726   5.517
 4221POPC   GL154973  29.060  11.913   5.860
 4221POPC   GL254974  29.285  12.211   5.848
 4221POPC   C1A54975  29.003  12.100   6.264
 4221POPC   D2A54976  28.815  12.230   6.665
 4221POPC   C3A54977  29.085  12.108   6.981
 4221POPC   C4A54978  28.927  11.739   7.139
 4221POPC   C1B54979  29.614  12.219   6.175
 4221POPC   C2B54980  29.682  12.070   6.610
 4221POPC   C3B54981  29.572  12.257   7.013
 4221POPC   C4B54982  29.549  12.402   7.474
 4222POPC   NC354983  38.338   9.968   5.604
 4222POPC   PO454984  38.440   9.405   5.346
 4222POPC   GL154985  38.559   9.537   5.773
 4222POPC   GL254986  38.260   9.639   5.975
 4222POPC   C1A54987  38.698   9.543   6.207
 4222POPC   D2A54988  38.455   9.648   6.572
 4222POPC   C3A54989  38.634   9.993   6.796
 4222POPC   C4A54990  38.696   9.997   7.215
 4222POPC   C1B54991  38.074   9.915   6.305
 4222POPC   C2B54992  38.112  10.020   6.791
 4222POPC   C3B54993  38.196   9.858   7.217
 4222POPC   C4B54994  38.081   9.857   7.677
 4223POPC   NC354995  42.533   2.604   5.219
 4223POPC   PO454996  41.944   2.831   5.507
 4223POPC   GL154997  42.312   2.667   5.786
 4223POPC   GL254998  42.688   2.554   5.717
 4223POPC   C1A54999  42.196   2.681   6.237
 4223POPC   D2A55000  42.044   2.985   6.593
 4223POPC   C3A55001  42.139   2.934   7.061
 4223POPC   C4A55002  42.120   2.587   7.352
 4223POPC   C1B55003  42.709   2.690   6.178
 4223POPC   C2B55004  42.556   2.809   6.599
 4223POPC   C3B55005  42.540   2.604   6.995
 4223POPC   C4B55006  42.653   2.885   7.322
 4224POPC   NC355007  30.210  39.492   5.525
 4224POPC   PO455008  30.709  38.958   5.433
 4224POPC   GL155009  30.523  39.038   5.797
 4224POPC   GL255010  30.663  39.364   5.809
 4224POPC   C1A55011  30.643  39.051   6.230
 4224POPC   D2A55012  30.748  39.307   6.610
 4224POPC   C3A55013  30.755  39.043   6.992
 4224POPC   C4A55014  30.584  38.962   7.431
 4224POPC   C1B55015  30.627  39.610   6.190
 4224POPC   C2B55016  30.432  39.752   6.571
 4224POPC   C3B55017  30.167  39.582   6.852
 4224POPC   C4B55018  30.382  39.358   7.146
 4225POPC   NC355019  27.369  37.947   5.299
 4225POPC   PO455020  27.505  37.317   5.533
 4225POPC   GL155021  27.547  37.735   5.784
 4225POPC   GL255022  27.869  37.938   5.768
 4225POPC   C1A55023  27.538  37.958   6.215
 4225POPC   D2A55024  27.509  37.776   6.650
 4225POPC   C3A55025  27.542  38.014   7.051
 4225POPC   C4A55026  27.405  38.043   7.511
 4225POPC   C1B55027  27.945  37.684   6.169
 4225POPC   C2B55028  27.926  37.477   6.567
 4225POPC   C3B55029  27.703  37.406   6.968
 4225POPC   C4B55030  27.608  37.598   7.360
 4226POPC   NC355031  30.844  11.639   5.481
 4226POPC   PO455032  30.380  12.161   5.449
 4226POPC   GL155033  30.537  11.940   5.796
 4226POPC   GL255034  30.758  12.205   5.949
 4226POPC   C1A55035  30.584  11.865   6.250
 4226POPC   D2A55036  30.589  12.144   6.589
 4226POPC   C3A55037  30.549  11.916   6.963
 4226POPC   C4A55038  30.304  12.017   7.314
 4226POPC   C1B55039  31.025  12.268   6.334
 4226POPC   C2B55040  31.010  12.346   6.801
 4226POPC   C3B55041  30.739  12.369   7.205
 4226POPC   C4B55042  30.820  12.354   7.696
 4227POPC   NC355043  11.911  22.480   5.351
 4227POPC   PO455044  11.272  22.169   5.456
 4227POPC   GL155045  11.111  22.149   5.862
 4227POPC   GL255046  11.076  21.802   5.844
 4227POPC   C1A55047  11.137  22.379   6.277
 4227POPC   D2A55048  10.970  22.248   6.675
 4227POPC   C3A55049  11.209  22.428   6.969
 4227POPC   C4A55050  11.309  22.551   7.372
 4227POPC   C1B55051  11.285  21.905   6.260
 4227POPC   C2B55052  11.465  22.058   6.645
 4227POPC   C3B55053  11.394  21.861   7.007
 4227POPC   C4B55054  11.049  22.013   7.207
 4228POPC   NC355055  34.135   4.967   5.430
 4228POPC   PO455056  33.484   4.934   5.584
 4228POPC   GL155057  33.819   5.043   5.878
 4228POPC   GL255058  34.175   4.922   5.965
 4228POPC   C1A55059  33.755   5.020   6.321
 4228POPC   D2A55060  33.688   4.977   6.745
 4228POPC   C3A55061  33.624   5.337   7.002
 4228POPC   C4A55062  33.639   5.075   7.331
 4228POPC   C1B55063  34.125   5.337   6.180
 4228POPC   C2B55064  33.979   5.389   6.614
 4228POPC   C3B55065  34.105   5.169   7.003
 4228POPC   C4B55066  34.086   5.307   7.421
 4229POPC   NC355067  14.434  27.870   5.427
 4229POPC   PO455068  13.978  27.452   5.442
 4229POPC   GL155069  14.196  27.710   5.843
 4229POPC   GL255070  14.596  27.655   5.865
 4229POPC   C1A55071  14.336  27.756   6.302
 4229POPC   D2A55072  14.371  27.494   6.688
 4229POPC   C3A55073  14.091  27.634   7.045
 4229POPC   C4A55074  14.088  27.637   7.526
 4229POPC   C1B55075  14.847  27.808   6.224
 4229POPC   C2B55076  14.759  27.839   6.651
 4229POPC   C3B55077  14.580  27.806   7.037
 4229POPC   C4B55078  14.557  27.813   7.451
 4230POPC   NC355079   4.901  17.657   5.239
 4230POPC   PO455080   5.544  17.465   5.318
 4230POPC   GL155081   5.195  17.545   5.677
 4230POPC   GL255082   4.785  17.561   5.728
 4230POPC   C1A55083   5.096  17.693   6.111
 4230POPC   D2A55084   5.133  17.917   6.491
 4230POPC   C3A55085   5.087  17.749   6.912
 4230POPC   C4A55086   5.060  17.608   7.324
 4230POPC   C1B55087   4.698  17.387   6.169
 4230POPC   C2B55088   5.008  17.384   6.542
 4230POPC   C3B55089   5.192  17.243   6.951
 4230POPC   C4B55090   5.113  17.059   7.347
 4231POPC   NC355091  41.641   6.016   5.495
 4231POPC   PO455092  41.813   5.379   5.527
 4231POPC   GL155093  41.756   5.664   5.871
 4231POPC   GL255094  41.423   5.773   5.904
 4231POPC   C1A55095  41.689   5.753   6.328
 4231POPC   D2A55096  41.466   5.916   6.687
 4231POPC   C3A55097  41.581   5.666   7.059
 4231POPC   C4A55098  41.798   5.837   7.426
 4231POPC   C1B55099  41.340   6.116   6.188
 4231POPC   C2B55100  41.302   6.406   6.547
 4231POPC   C3B55101  41.163   6.337   6.966
 4231POPC   C4B55102  41.380   6.090   7.277
 4232POPC   NC355103  28.601  31.224   5.343
 4232POPC   PO455104  29.090  31.592   5.112
 4232POPC   GL155105  29.080  31.521   5.660
 4232POPC   GL255106  28.825  31.352   5.807
 4232POPC   C1A55107  29.160  31.574   6.110
 4232POPC   D2A55108  28.983  31.559   6.529
 4232POPC   C3A55109  29.076  31.435   6.929
 4232POPC   C4A55110  29.327  31.656   7.205
 4232POPC   C1B55111  28.850  31.160   6.217
 4232POPC   C2B55112  28.717  31.137   6.627
 4232POPC   C3B55113  28.808  30.992   7.032
 4232POPC   C4B55114  29.028  31.184   7.368
 4233POPC   NC355115  20.815  19.272   5.343
 4233POPC   PO455116  20.298  19.027   5.446
 4233POPC   GL155117  20.709  19.031   5.776
 4233POPC   GL255118  20.693  18.711   5.925
 4233POPC   C1A55119  20.994  19.016   6.200
 4233POPC   D2A55120  20.811  18.923   6.640
 4233POPC   C3A55121  20.893  19.120   7.060
 4233POPC   C4A55122  20.818  18.845   7.414
 4233POPC   C1B55123  20.469  19.008   6.236
 4233POPC   C2B55124  20.319  19.057   6.676
 4233POPC   C3B55125  20.425  18.855   7.089
 4233POPC   C4B55126  20.331  18.981   7.529
 4234POPC   NC355127   1.650  44.274   5.393
 4234POPC   PO455128   2.032  44.876   5.512
 4234POPC   GL155129   2.101  44.747   5.878
 4234POPC   GL255130   1.882  44.486   5.837
 4234POPC   C1A55131   1.949  44.738   6.281
 4234POPC   D2A55132   1.865  44.930   6.648
 4234POPC   C3A55133   2.050  44.631   6.869
 4234POPC   C4A55134   1.953  44.552   7.270
 4234POPC   C1B55135   2.197  44.271   6.088
 4234POPC   C2B55136   2.446  44.293   6.469
 4234POPC   C3B55137   2.313  44.177   6.868
 4234POPC   C4B55138   2.206  44.107   7.281
 4235POPC   NC355139  20.353  40.217   5.420
 4235POPC   PO455140  20.535  39.592   5.678
 4235POPC   GL155141  20.665  39.865   5.992
 4235POPC   GL255142  20.711  40.197   5.845
 4235POPC   C1A55143  20.824  39.989   6.366
 4235POPC   D2A55144  20.887  40.291   6.694
 4235POPC   C3A55145  20.751  40.056   7.050
 4235POPC   C4A55146  20.639  39.648   7.182
 4235POPC   C1B55147  20.425  40.299   6.210
 4235POPC   C2B55148  20.400  40.137   6.639
 4235POPC   C3B55149  20.341  40.348   7.007
 4235POPC   C4B55150  20.566  40.424   7.372
 4236POPC   NC355151   6.507   0.239   5.419
 4236POPC   PO455152   6.850   0.796   5.287
 4236POPC   GL155153   6.725   0.661   5.741
 4236POPC   GL255154   6.850   0.343   5.800
 4236POPC   C1A55155   6.554   0.464   6.176
 4236POPC   D2A55156   6.683   0.374   6.600
 4236POPC   C3A55157   6.444   0.476   6.980
 4236POPC   C4A55158   6.505   0.785   7.311
 4236POPC   C1B55159   6.963   0.166   6.191
 4236POPC   C2B55160   7.073  44.971   6.554
 4236POPC   C3B55161   6.986   0.147   6.935
 4236POPC   C4B55162   6.932   0.526   7.133
 4237POPC   NC355163  22.292  21.509   5.428
 4237POPC   PO455164  21.648  21.290   5.331
 4237POPC   GL155165  21.905  21.281   5.699
 4237POPC   GL255166  22.203  21.047   5.659
 4237POPC   C1A55167  22.139  21.436   6.062
 4237POPC   D2A55168  22.007  21.526   6.460
 4237POPC   C3A55169  22.135  21.537   6.877
 4237POPC   C4A55170  21.969  21.680   7.266
 4237POPC   C1B55171  22.423  20.991   6.080
 4237POPC   C2B55172  22.384  21.173   6.514
 4237POPC   C3B55173  22.249  21.013   6.928
 4237POPC   C4B55174  22.302  21.244   7.316
 4238POPC   NC355175  43.900  22.451   5.531
 4238POPC   PO455176  43.644  21.799   5.342
 4238POPC   GL155177  43.706  22.024   5.771
 4238POPC   GL255178  44.096  22.058   5.832
 4238POPC   C1A55179  43.784  22.200   6.232
 4238POPC   D2A55180  43.949  22.068   6.660
 4238POPC   C3A55181  43.639  22.045   7.000
 4238POPC   C4A55182  43.677  22.130   7.452
 4238POPC   C1B55183  44.303  22.098   6.245
 4238POPC   C2B55184  44.497  22.271   6.616
 4238POPC   C3B55185  44.451  22.368   7.015
 4238POPC   C4B55186  44.061  22.290   7.167
 4239POPC   NC355187   9.577  32.522   5.420
 4239POPC   PO455188   9.360  31.952   5.455
 4239POPC   GL155189   9.615  32.016   5.822
 4239POPC   GL255190  10.004  32.085   5.823
 4239POPC   C1A55191   9.678  32.079   6.251
 4239POPC   D2A55192   9.965  32.174   6.571
 4239POPC   C3A55193   9.638  32.286   6.843
 4239POPC   C4A55194   9.504  32.019   7.174
 4239POPC   C1B55195   9.995  32.485   6.111
 4239POPC   C2B55196   9.861  32.684   6.530
 4239POPC   C3B55197   9.991  32.678   6.990
 4239POPC   C4B55198   9.943  32.556   7.454
 4240POPC   NC355199  29.709  42.105   5.461
 4240POPC   PO455200  30.254  42.535   5.423
 4240POPC   GL155201  30.057  42.404   5.816
 4240POPC   GL255202  29.848  42.159   5.947
 4240POPC   C1A55203  29.994  42.541   6.253
 4240POPC   D2A55204  29.849  42.336   6.611
 4240POPC   C3A55205  30.036  42.382   7.003
 4240POPC   C4A55206  29.706  42.407   7.274
 4240POPC   C1B55207  30.165  42.041   6.232
 4240POPC   C2B55208  30.227  41.878   6.615
 4240POPC   C3B55209  29.911  41.908   6.925
 4240POPC   C4B55210  29.776  41.907   7.364
 4241POPC   NC355211   6.958   9.158   5.369
 4241POPC   PO455212   6.622   8.547   5.362
 4241POPC   GL155213   6.495   8.839   5.683
 4241POPC   GL255214   6.362   9.179   5.636
 4241POPC   C1A55215   6.730   8.926   6.061
 4241POPC   D2A55216   6.736   8.654   6.446
 4241POPC   C3A55217   6.688   8.843   6.857
 4241POPC   C4A55218   6.535   8.612   7.215
 4241POPC   C1B55219   6.358   9.290   6.078
 4241POPC   C2B55220   6.543   9.183   6.495
 4241POPC   C3B55221   6.440   9.304   6.938
 4241POPC   C4B55222   6.223   9.224   7.353
 4242POPC   NC355223  16.867  24.017   5.337
 4242POPC   PO455224  16.395  23.566   5.472
 4242POPC   GL155225  16.602  23.810   5.866
 4242POPC   GL255226  16.920  23.987   5.830
 4242POPC   C1A55227  16.735  23.666   6.329
 4242POPC   D2A55228  16.641  23.735   6.787
 4242POPC   C3A55229  16.701  23.444   7.091
 4242POPC   C4A55230  16.699  23.203   7.432
 4242POPC   C1B55231  17.090  24.002   6.215
 4242POPC   C2B55232  17.133  23.867   6.642
 4242POPC   C3B55233  16.993  24.016   7.035
 4242POPC   C4B55234  16.913  24.007   7.492
 4243POPC   NC355235  11.972   6.328   5.240
 4243POPC   PO455236  11.676   6.829   5.385
 4243POPC   GL155237  11.672   6.779   5.854
 4243POPC   GL255238  11.758   6.451   5.897
 4243POPC   C1A55239  11.880   6.736   6.302
 4243POPC   D2A55240  12.083   6.550   6.692
 4243POPC   C3A55241  12.015   6.784   7.111
 4243POPC   C4A55242  12.210   6.947   7.504
 4243POPC   C1B55243  11.739   6.219   6.341
 4243POPC   C2B55244  11.777   6.125   6.801
 4243POPC   C3B55245  12.079   6.274   7.130
 4243POPC   C4B55246  12.012   6.452   7.524
 4244POPC   NC355247  22.499   0.985   5.398
 4244POPC   PO455248  23.200   0.934   5.401
 4244POPC   GL155249  23.215   1.000   5.831
 4244POPC   GL255250  22.878   1.184   5.824
 4244POPC   C1A55251  23.141   1.071   6.268
 4244POPC   D2A55252  22.997   1.307   6.601
 4244POPC   C3A55253  23.225   1.239   6.948
 4244POPC   C4A55254  23.044   1.430   7.261
 4244POPC   C1B55255  22.670   1.329   6.211
 4244POPC   C2B55256  22.504   1.162   6.618
 4244POPC   C3B55257  22.663   1.221   6.983
 4244POPC   C4B55258  22.444   1.100   7.280
 4245POPC   NC355259  32.083   3.722   5.393
 4245POPC   PO455260  32.754   3.466   5.469
 4245POPC   GL155261  32.583   3.345   5.837
 4245POPC   GL255262  32.232   3.389   5.773
 4245POPC   C1A55263  32.480   3.555   6.241
 4245POPC   D2A55264  32.570   3.884   6.577
 4245POPC   C3A55265  32.455   3.679   6.964
 4245POPC   C4A55266  32.580   3.274   7.108
 4245POPC   C1B55267  31.942   3.211   6.084
 4245POPC   C2B55268  31.986   3.235   6.506
 4245POPC   C3B55269  32.136   3.150   6.901
 4245POPC   C4B55270  32.119   3.399   7.267
 4246POPC   NC355271  33.447  21.946   5.110
 4246POPC   PO455272  34.088  22.168   5.227
 4246POPC   GL155273  33.823  22.106   5.650
 4246POPC   GL255274  33.559  21.828   5.610
 4246POPC   C1A55275  33.774  22.333   6.102
 4246POPC   D2A55276  33.794  22.505   6.541
 4246POPC   C3A55277  33.623  22.304   6.949
 4246POPC   C4A55278  33.785  22.337   7.396
 4246POPC   C1B55279  33.639  21.856   6.061
 4246POPC   C2B55280  33.729  21.983   6.489
 4246POPC   C3B55281  33.928  21.915   6.862
 4246POPC   C4B55282  33.715  21.845   7.253
 4247POPC   NC355283  24.204  18.475   5.478
 4247POPC   PO455284  24.848  18.181   5.265
 4247POPC   GL155285  24.605  18.157   5.670
 4247POPC   GL255286  24.553  18.462   5.848
 4247POPC   C1A55287  24.470  18.049   6.135
 4247POPC   D2A55288  24.587  18.230   6.563
 4247POPC   C3A55289  24.460  18.235   7.022
 4247POPC   C4A55290  24.665  18.010   7.334
 4247POPC   C1B55291  24.634  18.680   6.258
 4247POPC   C2B55292  24.497  18.723   6.694
 4247POPC   C3B55293  24.712  18.680   7.083
 4247POPC   C4B55294  24.920  18.534   7.462
 4248POPC   NC355295  14.838   2.127   5.367
 4248POPC   PO455296  15.378   1.748   5.189
 4248POPC   GL155297  15.277   1.827   5.655
 4248POPC   GL255298  15.205   2.179   5.757
 4248POPC   C1A55299  15.173   1.847   6.136
 4248POPC   D2A55300  15.168   2.131   6.507
 4248POPC   C3A55301  15.219   1.903   6.896
 4248POPC   C4A55302  15.208   1.839   7.328
 4248POPC   C1B55303  14.878   2.325   6.099
 4248POPC   C2B55304  14.680   2.288   6.538
 4248POPC   C3B55305  14.867   2.277   6.950
 4248POPC   C4B55306  14.913   2.231   7.428
 4249POPC   NC355307   1.872  20.452   5.403
 4249POPC   PO455308   2.541  20.280   5.522
 4249POPC   GL155309   2.213  20.357   5.845
 4249POPC   GL255310   1.859  20.500   5.899
 4249POPC   C1A55311   2.169  20.558   6.270
 4249POPC   D2A55312   2.008  20.579   6.719
 4249POPC   C3A55313   2.231  20.469   7.122
 4249POPC   C4A55314   2.295  20.758   7.515
 4249POPC   C1B55315   1.669  20.647   6.302
 4249POPC   C2B55316   1.489  20.615   6.709
 4249POPC   C3B55317   1.680  20.692   7.104
 4249POPC   C4B55318   1.822  20.460   7.423
 4250POPC   NC355319  10.192  44.736   5.408
 4250POPC   PO455320   9.683  44.282   5.299
 4250POPC   GL155321   9.679  44.623   5.669
 4250POPC   GL255322   9.973  44.730   5.851
 4250POPC   C1A55323   9.550  44.750   6.134
 4250POPC   D2A55324   9.569  44.524   6.547
 4250POPC   C3A55325   9.587  44.690   6.954
 4250POPC   C4A55326   9.529   0.082   7.159
 4250POPC   C1B55327  10.012  44.551   6.233
 4250POPC   C2B55328  10.103  44.640   6.646
 4250POPC   C3B55329  10.060  44.453   7.005
 4250POPC   C4B55330  10.082  44.494   7.418
 4251POPC   NC355331   3.313  20.060   5.577
 4251POPC   PO455332   3.499  19.522   5.170
 4251POPC   GL155333   3.492  19.616   5.762
 4251POPC   GL255334   3.703  19.965   5.903
 4251POPC   C1A55335   3.512  19.737   6.293
 4251POPC   D2A55336   3.797  19.839   6.662
 4251POPC   C3A55337   3.745  19.687   7.090
 4251POPC   C4A55338   3.373  19.560   7.291
 4251POPC   C1B55339   3.730  20.224   6.287
 4251POPC   C2B55340   3.357  20.212   6.532
 4251POPC   C3B55341   3.334  19.940   6.866
 4251POPC   C4B55342   3.487  20.074   7.271
 4252POPC   NC355343  31.800  18.314   5.416
 4252POPC   PO455344  31.082  18.429   5.335
 4252POPC   GL155345  31.353  18.259   5.664
 4252POPC   GL255346  31.310  18.540   5.846
 4252POPC   C1A55347  31.571  18.184   6.095
 4252POPC   D2A55348  31.619  18.029   6.529
 4252POPC   C3A55349  31.705  18.104   6.949
 4252POPC   C4A55350  31.526  18.007   7.323
 4252POPC   C1B55351  31.489  18.685   6.248
 4252POPC   C2B55352  31.579  18.535   6.649
 4252POPC   C3B55353  31.424  18.531   7.052
 4252POPC   C4B55354  31.758  18.491   7.303
 4253POPC   NC355355   3.948  19.349   5.332
 4253POPC   PO455356   3.397  18.880   5.403
 4253POPC   GL155357   3.571  18.829   5.811
 4253POPC   GL255358   3.737  19.147   5.853
 4253POPC   C1A55359   3.434  18.864   6.227
 4253POPC   D2A55360   3.637  18.904   6.612
 4253POPC   C3A55361   3.323  18.889   6.931
 4253POPC   C4A55362   3.284  19.048   7.354
 4253POPC   C1B55363   3.746  19.296   6.289
 4253POPC   C2B55364   3.554  19.382   6.723
 4253POPC   C3B55365   3.726  19.173   7.108
 4253POPC   C4B55366   3.768  19.325   7.532
 4254POPC   NC355367  26.772  15.677   5.368
 4254POPC   PO455368  27.155  16.235   5.492
 4254POPC   GL155369  26.794  16.064   5.740
 4254POPC   GL255370  26.664  16.372   5.903
 4254POPC   C1A55371  26.696  15.899   6.132
 4254POPC   D2A55372  26.839  16.055   6.528
 4254POPC   C3A55373  26.784  15.799   6.885
 4254POPC   C4A55374  27.001  15.952   7.218
 4254POPC   C1B55375  26.446  16.324   6.296
 4254POPC   C2B55376  26.527  16.505   6.695
 4254POPC   C3B55377  26.364  16.309   7.028
 4254POPC   C4B55378  26.495  16.002   7.261
 4255POPC   NC355379  19.159   8.129   5.265
 4255POPC   PO455380  18.509   8.088   5.392
 4255POPC   GL155381  18.839   8.217   5.726
 4255POPC   GL255382  19.203   8.197   5.767
 4255POPC   C1A55383  18.886   8.364   6.176
 4255POPC   D2A55384  18.793   8.509   6.621
 4255POPC   C3A55385  19.014   8.379   7.011
 4255POPC   C4A55386  18.972   8.100   7.380
 4255POPC   C1B55387  19.322   8.088   6.195
 4255POPC   C2B55388  19.099   8.075   6.588
 4255POPC   C3B55389  19.170   7.867   6.969
 4255POPC   C4B55390  19.273   7.691   7.353
 4256POPC   NC355391  35.305  27.936   5.473
 4256POPC   PO455392  35.754  27.411   5.450
 4256POPC   GL155393  35.504  27.556   5.797
 4256POPC   GL255394  35.640  27.894   5.888
 4256POPC   C1A55395  35.347  27.327   6.184
 4256POPC   D2A55396  35.604  27.136   6.519
 4256POPC   C3A55397  35.618  27.306   6.908
 4256POPC   C4A55398  35.324  27.612   7.056
 4256POPC   C1B55399  35.338  27.859   6.217
 4256POPC   C2B55400  35.111  27.861   6.617
 4256POPC   C3B55401  35.167  28.090   6.983
 4256POPC   C4B55402  35.509  28.093   7.238
 4257POPC   NC355403  40.662  23.071   5.627
 4257POPC   PO455404  41.098  22.687   5.449
 4257POPC   GL155405  40.870  22.630   5.831
 4257POPC   GL255406  40.870  22.961   6.066
 4257POPC   C1A55407  40.593  22.550   6.169
 4257POPC   D2A55408  40.504  22.825   6.503
 4257POPC   C3A55409  40.831  22.839   6.798
 4257POPC   C4A55410  40.851  22.674   7.229
 4257POPC   C1B55411  40.608  23.278   6.278
 4257POPC   C2B55412  40.515  23.369   6.687
 4257POPC   C3B55413  40.519  23.154   7.090
 4257POPC   C4B55414  40.639  23.104   7.523
 4258POPC   NC355415  19.801  20.427   5.456
 4258POPC   PO455416  20.422  20.527   5.746
 4258POPC   GL155417  19.989  20.645   5.886
 4258POPC   GL255418  19.703  20.851   5.758
 4258POPC   C1A55419  19.768  20.622   6.294
 4258POPC   D2A55420  19.880  20.862   6.667
 4258POPC   C3A55421  20.048  20.638   7.023
 4258POPC   C4A55422  20.081  20.897   7.352
 4258POPC   C1B55423  19.618  21.085   6.174
 4258POPC   C2B55424  19.405  21.028   6.562
 4258POPC   C3B55425  19.420  20.708   6.871
 4258POPC   C4B55426  19.606  20.660   7.273
 4259POPC   NC355427   4.684  20.703   5.155
 4259POPC   PO455428   4.041  20.570   5.332
 4259POPC   GL155429   4.116  20.522   5.801
 4259POPC   GL255430   4.167  20.875   5.877
 4259POPC   C1A55431   4.408  20.406   6.180
 4259POPC   D2A55432   4.600  20.691   6.537
 4259POPC   C3A55433   4.535  20.661   7.012
 4259POPC   C4A55434   4.520  20.271   7.236
 4259POPC   C1B55435   4.123  20.792   6.326
 4259POPC   C2B55436   4.094  20.737   6.778
 4259POPC   C3B55437   4.054  20.740   7.238
 4259POPC   C4B55438   4.048  21.048   7.602
 4260POPC   NC355439  30.383  29.297   5.483
 4260POPC   PO455440  29.742  29.376   5.455
 4260POPC   GL155441  29.852  29.182   5.847
 4260POPC   GL255442  30.087  28.904   5.806
 4260POPC   C1A55443  29.782  29.124   6.288
 4260POPC   D2A55444  29.762  29.397   6.641
 4260POPC   C3A55445  29.974  29.379   7.013
 4260POPC   C4A55446  29.786  29.010   7.135
 4260POPC   C1B55447  30.241  28.909   6.238
 4260POPC   C2B55448  30.061  28.923   6.675
 4260POPC   C3B55449  30.302  28.983   7.038
 4260POPC   C4B55450  30.549  29.183   7.362
 4261POPC   NC355451   8.959  13.163   5.172
 4261POPC   PO455452   8.896  12.573   5.495
 4261POPC   GL155453   9.050  12.663   5.856
 4261POPC   GL255454   8.875  13.003   5.799
 4261POPC   C1A55455   8.949  12.529   6.250
 4261POPC   D2A55456   8.911  12.728   6.618
 4261POPC   C3A55457   9.071  12.562   6.953
 4261POPC   C4A55458   9.221  12.789   7.284
 4261POPC   C1B55459   9.008  13.054   6.215
 4261POPC   C2B55460   9.119  13.265   6.598
 4261POPC   C3B55461   8.989  13.125   6.986
 4261POPC   C4B55462   8.835  13.066   7.416
 4262POPC   NC355463  12.371  18.525   5.374
 4262POPC   PO455464  11.907  18.036   5.405
 4262POPC   GL155465  12.202  18.180   5.733
 4262POPC   GL255466  11.941  18.394   5.864
 4262POPC   C1A55467  12.344  18.318   6.169
 4262POPC   D2A55468  12.177  18.429   6.588
 4262POPC   C3A55469  12.008  18.071   6.867
 4262POPC   C4A55470  12.123  18.060   7.338
 4262POPC   C1B55471  11.712  18.508   6.263
 4262POPC   C2B55472  11.684  18.507   6.731
 4262POPC   C3B55473  11.974  18.528   7.083
 4262POPC   C4B55474  11.895  18.495   7.513
 4263POPC   NC355475   6.315  18.679   5.581
 4263POPC   PO455476   5.785  18.264   5.500
 4263POPC   GL155477   5.948  18.453   5.897
 4263POPC   GL255478   6.297  18.333   5.957
 4263POPC   C1A55479   5.824  18.547   6.342
 4263POPC   D2A55480   5.589  18.726   6.719
 4263POPC   C3A55481   5.573  18.385   7.006
 4263POPC   C4A55482   5.996  18.401   7.140
 4263POPC   C1B55483   6.017  18.016   6.171
 4263POPC   C2B55484   5.878  17.890   6.584
 4263POPC   C3B55485   6.106  17.932   6.976
 4263POPC   C4B55486   6.198  17.981   7.406
 4264POPC   NC355487  24.675  17.102   5.473
 4264POPC   PO455488  24.342  16.526   5.537
 4264POPC   GL155489  24.468  16.638   5.938
 4264POPC   GL255490  24.793  16.854   5.927
 4264POPC   C1A55491  24.524  16.622   6.377
 4264POPC   D2A55492  24.726  16.730   6.757
 4264POPC   C3A55493  24.405  16.656   7.023
 4264POPC   C4A55494  24.297  16.524   7.431
 4264POPC   C1B55495  24.496  17.101   6.184
 4264POPC   C2B55496  24.347  17.069   6.606
 4264POPC   C3B55497  24.495  17.159   7.010
 4264POPC   C4B55498  24.368  17.020   7.397
 4265POPC   NC355499  13.680  14.839   5.611
 4265POPC   PO455500  13.868  15.460   5.358
 4265POPC   GL155501  13.707  15.446   5.800
 4265POPC   GL255502  13.866  15.155   5.951
 4265POPC   C1A55503  13.750  15.545   6.227
 4265POPC   D2A55504  13.960  15.422   6.586
 4265POPC   C3A55505  13.762  15.509   6.990
 4265POPC   C4A55506  13.517  15.188   7.245
 4265POPC   C1B55507  13.908  14.958   6.370
 4265POPC   C2B55508  13.880  14.819   6.822
 4265POPC   C3B55509  13.708  14.710   7.253
 4265POPC   C4B55510  13.727  14.935   7.661
 4266POPC   NC355511   9.561   0.494   5.573
 4266POPC   PO455512  10.065   0.205   5.260
 4266POPC   GL155513   9.984   0.252   5.758
 4266POPC   GL255514  10.236   0.418   5.965
 4266POPC   C1A55515   9.773   0.475   6.171
 4266POPC   D2A55516   9.731   0.685   6.568
 4266POPC   C3A55517   9.975   0.534   6.861
 4266POPC   C4A55518   9.847   0.465   7.244
 4266POPC   C1B55519  10.063   0.066   6.254
 4266POPC   C2B55520   9.852   0.069   6.676
 4266POPC   C3B55521  10.008  44.964   7.102
 4266POPC   C4B55522  10.081   0.127   7.537
 4267POPC   NC355523  34.888  35.658   5.590
 4267POPC   PO455524  34.358  35.360   5.283
 4267POPC   GL155525  34.378  35.505   5.722
 4267POPC   GL255526  34.439  35.161   5.808
 4267POPC   C1A55527  34.578  35.577   6.159
 4267POPC   D2A55528  34.759  35.845   6.511
 4267POPC   C3A55529  34.672  35.775   6.947
 4267POPC   C4A55530  34.830  35.512   7.280
 4267POPC   C1B55531  34.311  35.135   6.240
 4267POPC   C2B55532  34.439  35.379   6.610
 4267POPC   C3B55533  34.422  35.315   7.028
 4267POPC   C4B55534  34.233  35.013   7.300
 4268POPC   NC355535   8.432  35.737   5.442
 4268POPC   PO455536   7.937  36.341   5.424
 4268POPC   GL155537   8.222  36.139   5.744
 4268POPC   GL255538   8.094  35.822   5.842
 4268POPC   C1A55539   8.359  36.042   6.229
 4268POPC   D2A55540   8.575  35.849   6.617
 4268POPC   C3A55541   8.411  35.941   7.042
 4268POPC   C4A55542   8.517  36.272   7.333
 4268POPC   C1B55543   7.864  36.123   6.101
 4268POPC   C2B55544   7.943  36.182   6.544
 4268POPC   C3B55545   7.893  36.073   6.997
 4268POPC   C4B55546   8.053  36.081   7.452
 4269POPC   NC355547  11.878  33.242   5.464
 4269POPC   PO455548  11.917  32.593   5.451
 4269POPC   GL155549  12.068  32.835   5.769
 4269POPC   GL255550  12.392  32.916   5.626
 4269POPC   C1A55551  12.183  32.963   6.187
 4269POPC   D2A55552  12.057  33.338   6.416
 4269POPC   C3A55553  12.156  33.384   6.857
 4269POPC   C4A55554  12.141  33.091   7.188
 4269POPC   C1B55555  12.524  32.640   5.988
 4269POPC   C2B55556  12.539  32.601   6.434
 4269POPC   C3B55557  12.560  32.600   6.869
 4269POPC   C4B55558  12.449  32.669   7.296
 4270POPC   NC355559  25.917  30.749   5.428
 4270POPC   PO455560  26.370  30.303   5.372
 4270POPC   GL155561  26.129  30.405   5.744
 4270POPC   GL255562  26.262  30.741   5.786
 4270POPC   C1A55563  26.038  30.528   6.187
 4270POPC   D2A55564  25.861  30.831   6.494
 4270POPC   C3A55565  25.861  30.691   6.930
 4270POPC   C4A55566  26.170  30.635   7.267
 4270POPC   C1B55567  26.178  31.036   6.130
 4270POPC   C2B55568  26.141  31.266   6.504
 4270POPC   C3B55569  26.190  31.152   6.922
 4270POPC   C4B55570  25.962  31.099   7.244
 4271POPC   NC355571   7.767  19.691   5.329
 4271POPC   PO455572   7.403  20.148   5.670
 4271POPC   GL155573   7.663  19.836   5.817
 4271POPC   GL255574   7.384  19.591   5.824
 4271POPC   C1A55575   7.687  19.741   6.232
 4271POPC   D2A55576   7.394  19.671   6.570
 4271POPC   C3A55577   7.468  19.810   6.966
 4271POPC   C4A55578   7.419  19.914   7.373
 4271POPC   C1B55579   7.109  19.811   6.175
 4271POPC   C2B55580   7.137  20.105   6.568
 4271POPC   C3B55581   6.999  20.032   7.007
 4271POPC   C4B55582   6.932  19.952   7.456
 4272POPC   NC355583   6.112  32.822   5.629
 4272POPC   PO455584   6.648  33.217   5.380
 4272POPC   GL155585   6.618  33.072   5.775
 4272POPC   GL255586   6.309  33.225   5.867
 4272POPC   C1A55587   6.867  32.991   6.153
 4272POPC   D2A55588   6.755  32.833   6.537
 4272POPC   C3A55589   6.842  33.012   6.896
 4272POPC   C4A55590   6.920  32.897   7.309
 4272POPC   C1B55591   6.354  33.018   6.261
 4272POPC   C2B55592   6.323  33.046   6.706
 4272POPC   C3B55593   6.398  32.864   7.084
 4272POPC   C4B55594   6.212  32.960   7.456
 4273POPC   NC355595  43.098  16.618   5.631
 4273POPC   PO455596  43.615  16.178   5.510
 4273POPC   GL155597  43.469  16.406   5.923
 4273POPC   GL255598  43.148  16.372   6.064
 4273POPC   C1A55599  43.327  16.835   6.199
 4273POPC   D2A55600  43.185  16.838   6.653
 4273POPC   C3A55601  43.456  16.586   6.899
 4273POPC   C4A55602  43.521  16.584   7.340
 4273POPC   C1B55603  42.887  16.608   6.321
 4273POPC   C2B55604  42.898  16.371   6.694
 4273POPC   C3B55605  42.994  16.531   7.082
 4273POPC   C4B55606  42.927  16.941   7.218
 4274POPC   NC355607  35.786  41.942   5.550
 4274POPC   PO455608  36.431  41.823   5.297
 4274POPC   GL155609  36.244  41.764   5.762
 4274POPC   GL255610  36.210  41.392   5.925
 4274POPC   C1A55611  36.106  41.799   6.201
 4274POPC   D2A55612  36.225  41.509   6.535
 4274POPC   C3A55613  36.205  41.570   6.991
 4274POPC   C4A55614  36.201  41.897   7.321
 4274POPC   C1B55615  35.997  41.162   6.239
 4274POPC   C2B55616  35.801  41.254   6.636
 4274POPC   C3B55617  35.885  41.083   6.986
 4274POPC   C4B55618  35.842  41.154   7.413
 4275POPC   NC355619  37.395   6.126   5.453
 4275POPC   PO455620  37.829   5.701   5.473
 4275POPC   GL155621  37.625   5.852   5.819
 4275POPC   GL255622  37.797   6.141   5.792
 4275POPC   C1A55623  37.538   5.723   6.235
 4275POPC   D2A55624  37.429   5.919   6.613
 4275POPC   C3A55625  37.683   5.756   6.939
 4275POPC   C4A55626  37.558   5.548   7.313
 4275POPC   C1B55627  38.035   5.947   6.100
 4275POPC   C2B55628  38.011   5.879   6.528
 4275POPC   C3B55629  38.036   6.142   6.902
 4275POPC   C4B55630  37.736   6.150   7.253
 4276POPC   NC355631   0.830  16.514   5.377
 4276POPC   PO455632   0.346  16.920   5.021
 4276POPC   GL155633   0.347  16.696   5.495
 4276POPC   GL255634   0.311  16.980   5.751
 4276POPC   C1A55635   0.397  16.514   5.961
 4276POPC   D2A55636   0.178  16.563   6.374
 4276POPC   C3A55637   0.407  16.446   6.785
 4276POPC   C4A55638   0.269  16.541   7.205
 4276POPC   C1B55639   0.564  16.985   6.162
 4276POPC   C2B55640   0.487  16.916   6.579
 4276POPC   C3B55641   0.639  16.874   6.987
 4276POPC   C4B55642   0.759  17.166   7.275
 4277POPC   NC355643   0.906  34.776   5.395
 4277POPC   PO455644   1.618  34.954   5.519
 4277POPC   GL155645   1.497  34.686   5.874
 4277POPC   GL255646   1.147  34.557   5.808
 4277POPC   C1A55647   1.435  34.488   6.287
 4277POPC   D2A55648   1.583  34.162   6.606
 4277POPC   C3A55649   1.461  34.327   6.987
 4277POPC   C4A55650   1.151  34.353   7.280
 4277POPC   C1B55651   0.924  34.596   6.209
 4277POPC   C2B55652   1.052  34.686   6.624
 4277POPC   C3B55653   0.854  34.642   7.002
 4277POPC   C4B55654   0.770  34.719   7.402
 4278POPC   NC355655  20.139  17.844   5.316
 4278POPC   PO455656  19.830  17.353   5.366
 4278POPC   GL155657  20.182  17.476   5.689
 4278POPC   GL255658  20.353  17.198   5.831
 4278POPC   C1A55659  20.268  17.607   6.174
 4278POPC   D2A55660  20.165  17.666   6.679
 4278POPC   C3A55661  19.805  17.490   6.977
 4278POPC   C4A55662  19.783  17.426   7.451
 4278POPC   C1B55663  20.358  17.120   6.299
 4278POPC   C2B55664  20.267  17.160   6.751
 4278POPC   C3B55665  20.267  17.375   7.130
 4278POPC   C4B55666  20.241  17.232   7.582
 4279POPC   NC355667  33.234  30.652   5.406
 4279POPC   PO455668  32.635  30.433   5.377
 4279POPC   GL155669  32.875  30.635   5.769
 4279POPC   GL255670  33.174  30.895   5.875
 4279POPC   C1A55671  33.047  30.470   6.166
 4279POPC   D2A55672  32.840  30.649   6.530
 4279POPC   C3A55673  32.904  30.546   6.945
 4279POPC   C4A55674  32.847  30.861   7.255
 4279POPC   C1B55675  33.230  30.919   6.330
 4279POPC   C2B55676  33.358  30.662   6.697
 4279POPC   C3B55677  33.357  30.750   7.152
 4279POPC   C4B55678  33.349  30.740   7.600
 4280POPC   NC355679  36.170   2.673   5.361
 4280POPC   PO455680  35.813   3.218   5.403
 4280POPC   GL155681  35.959   2.892   5.764
 4280POPC   GL255682  35.923   2.524   5.806
 4280POPC   C1A55683  36.341   2.641   6.072
 4280POPC   D2A55684  36.497   2.820   6.510
 4280POPC   C3A55685  36.463   2.657   6.956
 4280POPC   C4A55686  36.290   2.847   7.332
 4280POPC   C1B55687  35.884   2.744   6.239
 4280POPC   C2B55688  36.007   2.618   6.660
 4280POPC   C3B55689  35.901   2.640   7.098
 4280POPC   C4B55690  35.681   2.386   7.379
 4281POPC   NC355691  25.453  39.356   5.178
 4281POPC   PO455692  25.119  39.769   5.533
 4281POPC   GL155693  25.234  39.377   5.751
 4281POPC   GL255694  25.539  39.300   5.684
 4281POPC   C1A55695  25.150  39.185   6.173
 4281POPC   D2A55696  24.970  39.375   6.573
 4281POPC   C3A55697  24.933  39.227   7.026
 4281POPC   C4A55698  25.147  39.157   7.416
 4281POPC   C1B55699  25.634  39.376   6.122
 4281POPC   C2B55700  25.566  39.248   6.552
 4281POPC   C3B55701  25.432  39.298   6.969
 4281POPC   C4B55702  25.448  39.556   7.344
 4282POPC   NC355703  34.100  32.710   5.365
 4282POPC   PO455704  33.906  33.379   5.365
 4282POPC   GL155705  33.867  33.080   5.689
 4282POPC   GL255706  34.192  33.119   5.778
 4282POPC   C1A55707  33.666  33.053   6.105
 4282POPC   D2A55708  33.830  33.075   6.543
 4282POPC   C3A55709  33.591  33.139   6.905
 4282POPC   C4A55710  33.604  32.874   7.248
 4282POPC   C1B55711  34.165  32.919   6.179
 4282POPC   C2B55712  34.302  32.879   6.620
 4282POPC   C3B55713  34.156  32.898   7.050
 4282POPC   C4B55714  34.030  32.637   7.390
 4283POPC   NC355715  20.047  35.190   5.406
 4283POPC   PO455716  19.589  35.669   5.471
 4283POPC   GL155717  19.763  35.429   5.740
 4283POPC   GL255718  20.112  35.571   5.736
 4283POPC   C1A55719  19.928  35.217   6.081
 4283POPC   D2A55720  19.947  35.400   6.464
 4283POPC   C3A55721  19.815  35.301   6.883
 4283POPC   C4A55722  20.079  35.225   7.204
 4283POPC   C1B55723  20.290  35.660   6.138
 4283POPC   C2B55724  20.343  35.698   6.598
 4283POPC   C3B55725  20.110  35.748   6.999
 4283POPC   C4B55726  19.973  35.655   7.428
 4284POPC   NC355727   6.952  38.691   5.251
 4284POPC   PO455728   6.809  38.110   5.526
 4284POPC   GL155729   6.738  38.519   5.723
 4284POPC   GL255730   6.789  38.323   6.001
 4284POPC   C1A55731   6.408  38.739   6.012
 4284POPC   D2A55732   6.327  38.924   6.446
 4284POPC   C3A55733   6.557  38.748   6.791
 4284POPC   C4A55734   6.849  38.785   7.119
 4284POPC   C1B55735   6.609  38.421   6.379
 4284POPC   C2B55736   6.478  38.231   6.747
 4284POPC   C3B55737   6.674  38.301   7.116
 4284POPC   C4B55738   6.616  38.047   7.442
 4285POPC   NC355739  38.284  18.206   5.214
 4285POPC   PO455740  38.766  18.664   5.483
 4285POPC   GL155741  38.492  18.296   5.693
 4285POPC   GL255742  38.142  18.228   5.745
 4285POPC   C1A55743  38.529  18.107   6.115
 4285POPC   D2A55744  38.606  18.315   6.534
 4285POPC   C3A55745  38.351  18.166   6.886
 4285POPC   C4A55746  38.394  18.155   7.319
 4285POPC   C1B55747  38.127  18.440   6.171
 4285POPC   C2B55748  38.154  18.577   6.605
 4285POPC   C3B55749  37.998  18.535   7.031
 4285POPC   C4B55750  38.185  18.603   7.418
 4286POPC   NC355751  36.741  36.926   5.592
 4286POPC   PO455752  37.375  36.734   5.510
 4286POPC   GL155753  37.231  36.959   5.875
 4286POPC   GL255754  37.105  37.288   5.809
 4286POPC   C1A55755  36.987  36.793   6.240
 4286POPC   D2A55756  36.972  36.619   6.652
 4286POPC   C3A55757  36.897  36.806   7.037
 4286POPC   C4A55758  36.963  36.718   7.478
 4286POPC   C1B55759  36.785  37.253   6.176
 4286POPC   C2B55760  36.794  37.120   6.599
 4286POPC   C3B55761  36.619  37.238   6.967
 4286POPC   C4B55762  36.783  37.187   7.363
 4287POPC   NC355763  11.549  17.735   5.451
 4287POPC   PO455764  11.055  17.371   5.236
 4287POPC   GL155765  11.202  17.431   5.688
 4287POPC   GL255766  11.529  17.396   5.851
 4287POPC   C1A55767  11.134  17.651   6.117
 4287POPC   D2A55768  10.946  17.542   6.538
 4287POPC   C3A55769  11.102  17.614   6.958
 4287POPC   C4A55770  11.172  17.219   7.189
 4287POPC   C1B55771  11.631  17.583   6.245
 4287POPC   C2B55772  11.521  17.725   6.661
 4287POPC   C3B55773  11.579  17.584   7.099
 4287POPC   C4B55774  11.760  17.702   7.463
 4288POPC   NC355775  16.237  22.791   5.375
 4288POPC   PO455776  15.751  22.930   5.047
 4288POPC   GL155777  15.742  22.691   5.563
 4288POPC   GL255778  16.040  22.555   5.760
 4288POPC   C1A55779  15.741  22.764   6.089
 4288POPC   D2A55780  15.828  23.088   6.430
 4288POPC   C3A55781  15.689  23.023   6.854
 4288POPC   C4A55782  15.790  23.066   7.279
 4288POPC   C1B55783  16.194  22.551   6.183
 4288POPC   C2B55784  15.943  22.595   6.580
 4288POPC   C3B55785  15.973  22.606   7.031
 4288POPC   C4B55786  16.347  22.488   7.246
 4289POPC   NC355787  30.679  42.718   5.362
 4289POPC   PO455788  30.905  43.293   5.381
 4289POPC   GL155789  30.930  43.004   5.774
 4289POPC   GL255790  30.635  42.832   5.857
 4289POPC   C1A55791  30.846  43.147   6.219
 4289POPC   D2A55792  30.611  43.237   6.602
 4289POPC   C3A55793  30.838  43.371   6.955
 4289POPC   C4A55794  30.562  43.230   7.261
 4289POPC   C1B55795  30.917  42.652   6.198
 4289POPC   C2B55796  30.727  42.739   6.583
 4289POPC   C3B55797  30.505  42.738   6.984
 4289POPC   C4B55798  30.821  42.787   7.286
 4290POPC   NC355799  43.566  15.694   5.448
 4290POPC   PO455800  43.574  14.949   5.516
 4290POPC   GL155801  43.888  15.027   5.761
 4290POPC   GL255802  43.931  15.385   5.763
 4290POPC   C1A55803  43.984  15.006   6.170
 4290POPC   D2A55804  44.129  15.058   6.572
 4290POPC   C3A55805  43.837  15.126   6.909
 4290POPC   C4A55806  43.823  14.879   7.311
 4290POPC   C1B55807  43.803  15.496   6.200
 4290POPC   C2B55808  43.765  15.704   6.612
 4290POPC   C3B55809  43.915  15.629   7.017
 4290POPC   C4B55810  43.982  15.352   7.335
 4291POPC   NC355811   4.048  34.879   5.449
 4291POPC   PO455812   4.517  34.372   5.433
 4291POPC   GL155813   4.321  34.546   5.783
 4291POPC   GL255814   4.525  34.340   6.000
 4291POPC   C1A55815   4.063  34.459   6.178
 4291POPC   D2A55816   4.301  34.395   6.571
 4291POPC   C3A55817   4.095  34.619   6.889
 4291POPC   C4A55818   4.098  34.866   7.226
 4291POPC   C1B55819   4.475  34.766   6.222
 4291POPC   C2B55820   4.640  34.875   6.630
 4291POPC   C3B55821   4.569  34.713   7.066
 4291POPC   C4B55822   4.488  34.742   7.516
 4292POPC   NC355823  18.878  36.411   5.274
 4292POPC   PO455824  18.500  35.937   5.293
 4292POPC   GL155825  18.339  36.017   5.727
 4292POPC   GL255826  18.119  36.319   5.831
 4292POPC   C1A55827  18.411  35.954   6.173
 4292POPC   D2A55828  18.194  35.777   6.542
 4292POPC   C3A55829  18.209  35.924   6.977
 4292POPC   C4A55830  18.137  36.051   7.405
 4292POPC   C1B55831  17.944  36.153   6.247
 4292POPC   C2B55832  17.924  36.249   6.700
 4292POPC   C3B55833  17.733  36.156   7.125
 4292POPC   C4B55834  17.634  36.197   7.592
 4293POPC   NC355835  32.820  37.150   5.536
 4293POPC   PO455836  32.748  36.500   5.506
 4293POPC   GL155837  32.992  36.683   5.847
 4293POPC   GL255838  33.201  37.001   5.852
 4293POPC   C1A55839  33.047  36.546   6.274
 4293POPC   D2A55840  32.947  36.325   6.662
 4293POPC   C3A55841  32.689  36.585   6.889
 4293POPC   C4A55842  32.766  36.932   7.140
 4293POPC   C1B55843  32.976  37.074   6.263
 4293POPC   C2B55844  33.069  36.897   6.693
 4293POPC   C3B55845  33.381  36.918   7.047
 4293POPC   C4B55846  33.289  36.967   7.476
 4294POPC   NC355847  11.544  14.421   5.515
 4294POPC   PO455848  11.033  14.083   5.307
 4294POPC   GL155849  11.265  14.155   5.797
 4294POPC   GL255850  11.163  14.524   5.857
 4294POPC   C1A55851  11.510  14.275   6.186
 4294POPC   D2A55852  11.561  14.348   6.643
 4294POPC   C3A55853  11.168  14.453   6.815
 4294POPC   C4A55854  10.923  14.519   7.138
 4294POPC   C1B55855  11.333  14.798   6.161
 4294POPC   C2B55856  11.324  14.880   6.586
 4294POPC   C3B55857  11.574  14.859   6.940
 4294POPC   C4B55858  11.413  14.642   7.264
 4295POPC   NC355859  13.692  37.440   5.235
 4295POPC   PO455860  13.536  37.954   5.425
 4295POPC   GL155861  13.593  37.766   5.818
 4295POPC   GL255862  13.407  37.456   5.766
 4295POPC   C1A55863  13.667  37.994   6.228
 4295POPC   D2A55864  13.787  38.209   6.624
 4295POPC   C3A55865  13.755  37.911   6.980
 4295POPC   C4A55866  13.460  37.613   7.165
 4295POPC   C1B55867  13.376  37.464   6.240
 4295POPC   C2B55868  13.576  37.465   6.671
 4295POPC   C3B55869  13.674  37.152   7.021
 4295POPC   C4B55870  13.532  37.175   7.459
 4296POPC   NC355871  14.417  41.001   5.274
 4296POPC   PO455872  14.533  40.240   5.223
 4296POPC   GL155873  14.565  40.425   5.798
 4296POPC   GL255874  14.595  40.840   5.787
 4296POPC   C1A55875  14.340  40.615   6.180
 4296POPC   D2A55876  14.391  40.734   6.626
 4296POPC   C3A55877  14.128  40.700   7.014
 4296POPC   C4A55878  14.427  40.818   7.376
 4296POPC   C1B55879  14.669  41.020   6.203
 4296POPC   C2B55880  14.809  41.038   6.641
 4296POPC   C3B55881  14.847  40.850   7.068
 4296POPC   C4B55882  14.934  40.895   7.554
 4297POPC   NC355883  11.091  43.939   5.152
 4297POPC   PO455884  11.624  43.592   5.504
 4297POPC   GL155885  11.284  43.822   5.772
 4297POPC   GL255886  10.957  44.019   5.845
 4297POPC   C1A55887  11.293  43.937   6.220
 4297POPC   D2A55888  11.401  43.683   6.554
 4297POPC   C3A55889  11.203  43.681   6.911
 4297POPC   C4A55890  11.362  43.883   7.259
 4297POPC   C1B55891  10.943  44.310   6.209
 4297POPC   C2B55892  11.101  44.254   6.632
 4297POPC   C3B55893  10.929  44.090   7.007
 4297POPC   C4B55894  10.944  44.163   7.436
 4298POPC   NC355895  28.576  28.153   5.493
 4298POPC   PO455896  28.183  28.632   5.660
 4298POPC   GL155897  28.382  28.361   5.920
 4298POPC   GL255898  28.630  28.537   5.940
 4298POPC   C1A55899  28.328  28.238   6.339
 4298POPC   D2A55900  28.189  28.431   6.720
 4298POPC   C3A55901  28.243  28.141   7.041
 4298POPC   C4A55902  28.087  28.215   7.483
 4298POPC   C1B55903  28.820  28.745   6.224
 4298POPC   C2B55904  28.623  28.699   6.606
 4298POPC   C3B55905  28.770  28.644   7.027
 4298POPC   C4B55906  28.410  28.545   7.277
 4299POPC   NC355907  10.308   8.725   5.173
 4299POPC   PO455908  10.768   9.116   5.129
 4299POPC   GL155909  10.447   9.035   5.568
 4299POPC   GL255910  10.267   8.735   5.694
 4299POPC   C1A55911  10.480   9.119   6.070
 4299POPC   D2A55912  10.687   9.380   6.384
 4299POPC   C3A55913  10.557   9.247   6.784
 4299POPC   C4A55914  10.600   9.174   7.204
 4299POPC   C1B55915  10.115   8.791   6.146
 4299POPC   C2B55916  10.400   8.777   6.529
 4299POPC   C3B55917  10.391   8.776   6.987
 4299POPC   C4B55918  10.213   8.565   7.345
 4300POPC   NC355919  18.008  21.143   5.433
 4300POPC   PO455920  18.684  21.414   5.473
 4300POPC   GL155921  18.447  21.592   5.874
 4300POPC   GL255922  18.067  21.669   5.857
 4300POPC   C1A55923  18.567  21.601   6.312
 4300POPC   D2A55924  18.449  21.444   6.744
 4300POPC   C3A55925  18.024  21.467   6.865
 4300POPC   C4A55926  17.924  21.399   7.247
 4300POPC   C1B55927  18.062  21.425   6.277
 4300POPC   C2B55928  17.978  21.062   6.588
 4300POPC   C3B55929  18.138  20.983   7.035
 4300POPC   C4B55930  18.052  20.986   7.516
 4301POPC   NC355931  28.359   4.452   5.394
 4301POPC   PO455932  28.088   3.870   5.339
 4301POPC   GL155933  28.279   4.084   5.755
 4301POPC   GL255934  28.120   4.378   5.855
 4301POPC   C1A55935  28.407   4.177   6.211
 4301POPC   D2A55936  28.529   4.374   6.608
 4301POPC   C3A55937  28.419   4.194   7.013
 4301POPC   C4A55938  28.343   4.133   7.464
 4301POPC   C1B55939  28.009   4.513   6.269
 4301POPC   C2B55940  27.748   4.611   6.593
 4301POPC   C3B55941  28.040   4.550   6.902
 4301POPC   C4B55942  28.062   4.512   7.331
 4302POPC   NC355943  16.935  20.859   4.883
 4302POPC   PO455944  16.709  20.358   5.230
 4302POPC   GL155945  16.678  20.484   5.723
 4302POPC   GL255946  16.533  20.820   5.781
 4302POPC   C1A55947  16.512  20.444   6.186
 4302POPC   D2A55948  16.420  20.684   6.621
 4302POPC   C3A55949  16.625  20.483   7.018
 4302POPC   C4A55950  16.524  20.304   7.455
 4302POPC   C1B55951  16.697  20.909   6.235
 4302POPC   C2B55952  16.858  20.955   6.688
 4302POPC   C3B55953  16.676  20.976   7.116
 4302POPC   C4B55954  16.725  20.767   7.488
 4303POPC   NC355955  28.267  13.862   5.721
 4303POPC   PO455956  28.531  13.402   5.412
 4303POPC   GL155957  28.415  13.299   5.803
 4303POPC   GL255958  28.093  13.389   5.845
 4303POPC   C1A55959  28.558  13.512   6.188
 4303POPC   D2A55960  28.622  13.755   6.572
 4303POPC   C3A55961  28.357  13.768   6.936
 4303POPC   C4A55962  28.594  14.037   7.183
 4303POPC   C1B55963  28.062  13.224   6.271
 4303POPC   C2B55964  27.999  13.297   6.711
 4303POPC   C3B55965  28.250  13.232   7.065
 4303POPC   C4B55966  28.151  13.270   7.487
 4304POPC   NC355967  23.195  40.150   5.559
 4304POPC   PO455968  23.650  40.118   5.049
 4304POPC   GL155969  23.686  40.066   5.575
 4304POPC   GL255970  23.626  39.729   5.669
 4304POPC   C1A55971  23.766  40.075   6.051
 4304POPC   D2A55972  24.026  40.040   6.432
 4304POPC   C3A55973  23.831  40.078   6.850
 4304POPC   C4A55974  23.584  40.161   7.185
 4304POPC   C1B55975  23.594  39.587   6.126
 4304POPC   C2B55976  23.708  39.663   6.544
 4304POPC   C3B55977  23.598  39.632   6.963
 4304POPC   C4B55978  23.743  39.740   7.380
 4305POPC   NC355979  28.499  29.921   5.227
 4305POPC   PO455980  28.826  30.310   5.730
 4305POPC   GL155981  28.408  30.174   5.888
 4305POPC   GL255982  28.189  29.880   5.829
 4305POPC   C1A55983  28.349  30.112   6.346
 4305POPC   D2A55984  28.687  30.146   6.658
 4305POPC   C3A55985  28.568  30.144   7.066
 4305POPC   C4A55986  28.614  29.901   7.384
 4305POPC   C1B55987  28.032  29.612   6.177
 4305POPC   C2B55988  28.103  29.658   6.611
 4305POPC   C3B55989  28.029  29.447   6.993
 4305POPC   C4B55990  28.109  29.794   7.265
 4306POPC   NC355991  41.842  12.208   5.478
 4306POPC   PO455992  42.507  12.232   5.520
 4306POPC   GL155993  42.482  12.016   5.883
 4306POPC   GL255994  42.137  12.024   5.852
 4306POPC   C1A55995  42.382  12.042   6.317
 4306POPC   D2A55996  42.662  11.989   6.629
 4306POPC   C3A55997  42.513  12.143   6.976
 4306POPC   C4A55998  42.594  11.965   7.364
 4306POPC   C1B55999  41.919  11.849   6.166
 4306POPC   C2B56000  41.835  11.886   6.564
 4306POPC   C3B56001  41.858  11.749   6.973
 4306POPC   C4B56002  42.091  12.015   7.240
 4307POPC   NC356003   5.110  32.480   5.035
 4307POPC   PO456004   5.039  32.012   5.593
 4307POPC   GL156005   5.160  32.205   5.905
 4307POPC   GL256006   5.113  32.536   5.759
 4307POPC   C1A56007   5.050  32.125   6.323
 4307POPC   D2A56008   5.213  32.106   6.707
 4307POPC   C3A56009   4.867  32.072   6.949
 4307POPC   C4A56010   4.894  31.914   7.354
 4307POPC   C1B56011   5.211  32.594   6.215
 4307POPC   C2B56012   5.054  32.602   6.650
 4307POPC   C3B56013   5.068  32.505   7.119
 4307POPC   C4B56014   5.282  32.509   7.529
 4308POPC   NC356015  10.731  43.090   5.181
 4308POPC   PO456016  10.124  43.208   5.471
 4308POPC   GL156017  10.433  43.285   5.793
 4308POPC   GL256018  10.722  43.072   5.707
 4308POPC   C1A56019  10.530  43.395   6.247
 4308POPC   D2A56020  10.601  43.081   6.600
 4308POPC   C3A56021  10.461  43.200   7.051
 4308POPC   C4A56022  10.535  43.318   7.503
 4308POPC   C1B56023  10.934  43.063   6.111
 4308POPC   C2B56024  11.158  43.082   6.502
 4308POPC   C3B56025  10.990  43.207   6.900
 4308POPC   C4B56026  10.922  43.058   7.286
 4309POPC   NC356027  26.731  30.577   5.491
 4309POPC   PO456028  26.487  31.185   5.459
 4309POPC   GL156029  26.705  30.963   5.836
 4309POPC   GL256030  27.047  30.842   5.799
 4309POPC   C1A56031  26.574  30.704   6.211
 4309POPC   D2A56032  26.360  30.782   6.614
 4309POPC   C3A56033  26.593  30.826   7.023
 4309POPC   C4A56034  26.530  30.943   7.487
 4309POPC   C1B56035  27.001  30.443   6.052
 4309POPC   C2B56036  26.867  30.263   6.430
 4309POPC   C3B56037  26.920  30.269   6.883
 4309POPC   C4B56038  27.120  30.615   7.126
 4310POPC   NC356039  15.335  41.384   5.371
 4310POPC   PO456040  15.054  42.001   5.308
 4310POPC   GL156041  15.067  41.743   5.701
 4310POPC   GL256042  15.365  41.704   5.828
 4310POPC   C1A56043  14.959  41.909   6.134
 4310POPC   D2A56044  15.018  41.837   6.581
 4310POPC   C3A56045  14.832  41.518   6.850
 4310POPC   C4A56046  14.959  41.658   7.234
 4310POPC   C1B56047  15.148  41.444   6.150
 4310POPC   C2B56048  15.234  41.356   6.587
 4310POPC   C3B56049  15.394  41.614   6.921
 4310POPC   C4B56050  15.452  41.604   7.370
 4311POPC   NC356051  42.687  42.967   5.559
 4311POPC   PO456052  42.107  43.241   5.377
 4311POPC   GL156053  42.128  43.065   5.806
 4311POPC   GL256054  42.418  43.270   5.854
 4311POPC   C1A56055  42.176  43.038   6.295
 4311POPC   D2A56056  42.389  42.861   6.692
 4311POPC   C3A56057  42.322  43.029   7.125
 4311POPC   C4A56058  42.126  43.272   7.513
 4311POPC   C1B56059  42.654  43.319   6.201
 4311POPC   C2B56060  42.503  43.363   6.593
 4311POPC   C3B56061  42.719  43.314   6.973
 4311POPC   C4B56062  42.593  43.405   7.366
 4312POPC   NC356063  14.578  18.545   5.535
 4312POPC   PO456064  14.302  17.989   5.384
 4312POPC   GL156065  14.150  18.321   5.727
 4312POPC   GL256066  14.401  18.279   5.968
 4312POPC   C1A56067  14.129  18.683   6.100
 4312POPC   D2A56068  13.979  18.668   6.551
 4312POPC   C3A56069  14.277  18.581   6.899
 4312POPC   C4A56070  14.256  18.184   7.114
 4312POPC   C1B56071  14.365  18.306   6.427
 4312POPC   C2B56072  14.637  18.219   6.782
 4312POPC   C3B56073  14.911  18.183   7.152
 4312POPC   C4B56074  14.968  18.197   7.624
 4313POPC   NC356075   3.534  10.133   5.553
 4313POPC   PO456076   3.837   9.511   5.390
 4313POPC   GL156077   3.509   9.627   5.782
 4313POPC   GL256078   3.153   9.469   5.798
 4313POPC   C1A56079   3.533   9.950   6.179
 4313POPC   D2A56080   3.426  10.219   6.578
 4313POPC   C3A56081   3.591  10.091   6.990
 4313POPC   C4A56082   3.548   9.946   7.408
 4313POPC   C1B56083   3.246   9.535   6.255
 4313POPC   C2B56084   3.503   9.697   6.640
 4313POPC   C3B56085   3.626   9.539   7.067
 4313POPC   C4B56086   3.972   9.314   7.233
 4314POPC   NC356087  25.493   6.124   5.459
 4314POPC   PO456088  25.134   5.576   5.277
 4314POPC   GL156089  25.190   5.769   5.703
 4314POPC   GL256090  25.547   5.796   5.846
 4314POPC   C1A56091  25.142   5.880   6.163
 4314POPC   D2A56092  25.356   5.821   6.567
 4314POPC   C3A56093  25.083   5.884   6.926
 4314POPC   C4A56094  25.053   6.213   7.255
 4314POPC   C1B56095  25.771   5.649   6.204
 4314POPC   C2B56096  25.721   5.454   6.617
 4314POPC   C3B56097  25.488   5.557   7.001
 4314POPC   C4B56098  25.467   5.887   7.276
 4315POPC   NC356099  16.418  44.301   5.622
 4315POPC   PO456100  15.949  43.854   5.363
 4315POPC   GL156101  15.959  43.696   5.776
 4315POPC   GL256102  16.293  43.634   5.803
 4315POPC   C1A56103  15.766  43.863   6.155
 4315POPC   D2A56104  15.476  43.985   6.481
 4315POPC   C3A56105  15.689  44.010   6.871
 4315POPC   C4A56106  15.659  43.819   7.264
 4315POPC   C1B56107  16.298  43.909   6.158
 4315POPC   C2B56108  16.095  43.908   6.555
 4315POPC   C3B56109  16.110  43.741   6.957
 4315POPC   C4B56110  16.186  43.824   7.390
 4316POPC   NC356111  30.575  14.008   5.478
 4316POPC   PO456112  30.290  14.637   5.459
 4316POPC   GL156113  30.604  14.430   5.817
 4316POPC   GL256114  30.701  14.057   5.950
 4316POPC   C1A56115  30.847  14.423   6.235
 4316POPC   D2A56116  30.669  14.463   6.618
 4316POPC   C3A56117  30.731  14.162   6.912
 4316POPC   C4A56118  30.635  14.434   7.203
 4316POPC   C1B56119  30.376  14.197   6.256
 4316POPC   C2B56120  30.269  14.101   6.688
 4316POPC   C3B56121  30.252  14.085   7.136
 4316POPC   C4B56122  30.309  14.203   7.534
 4317POPC   NC356123   2.256   5.629   5.255
 4317POPC   PO456124   2.123   4.931   5.389
 4317POPC   GL156125   1.904   5.063   5.758
 4317POPC   GL256126   2.008   5.394   5.696
 4317POPC   C1A56127   1.844   4.888   6.202
 4317POPC   D2A56128   2.149   4.788   6.552
 4317POPC   C3A56129   2.091   5.001   6.940
 4317POPC   C4A56130   1.680   5.001   7.137
 4317POPC   C1B56131   2.061   5.491   6.121
 4317POPC   C2B56132   1.856   5.618   6.503
 4317POPC   C3B56133   1.824   5.448   6.917
 4317POPC   C4B56134   2.011   5.357   7.331
 4318POPC   NC356135   7.827   7.757   5.519
 4318POPC   PO456136   8.456   7.311   5.427
 4318POPC   GL156137   8.288   7.223   5.837
 4318POPC   GL256138   7.953   7.338   5.851
 4318POPC   C1A56139   8.213   7.338   6.283
 4318POPC   D2A56140   8.397   7.153   6.626
 4318POPC   C3A56141   8.487   7.362   7.019
 4318POPC   C4A56142   8.498   7.167   7.414
 4318POPC   C1B56143   7.743   7.559   6.209
 4318POPC   C2B56144   7.923   7.665   6.645
 4318POPC   C3B56145   7.956   7.515   7.096
 4318POPC   C4B56146   7.796   7.676   7.523
 4319POPC   NC356147  34.430  25.039   4.944
 4319POPC   PO456148  34.958  25.080   5.332
 4319POPC   GL156149  34.598  25.058   5.654
 4319POPC   GL256150  34.471  25.399   5.797
 4319POPC   C1A56151  34.550  25.001   6.116
 4319POPC   D2A56152  34.715  25.269   6.463
 4319POPC   C3A56153  34.672  25.087   6.865
 4319POPC   C4A56154  34.545  25.067   7.272
 4319POPC   C1B56155  34.232  25.472   6.197
 4319POPC   C2B56156  34.312  25.656   6.588
 4319POPC   C3B56157  34.566  25.580   6.927
 4319POPC   C4B56158  34.408  25.562   7.299
 4320POPC   NC356159  17.049  21.423   5.462
 4320POPC   PO456160  17.704  21.462   5.325
 4320POPC   GL156161  17.486  21.563   5.690
 4320POPC   GL256162  17.404  21.235   5.798
 4320POPC   C1A56163  17.406  21.627   6.134
 4320POPC   D2A56164  17.629  21.515   6.537
 4320POPC   C3A56165  17.504  21.504   6.958
 4320POPC   C4A56166  17.285  21.611   7.358
 4320POPC   C1B56167  17.565  21.127   6.222
 4320POPC   C2B56168  17.443  21.059   6.677
 4320POPC   C3B56169  17.624  20.982   7.094
 4320POPC   C4B56170  17.599  20.722   7.510
 4321POPC   NC356171   3.095  38.730   5.272
 4321POPC   PO456172   3.350  38.169   5.383
 4321POPC   GL156173   3.387  38.304   5.801
 4321POPC   GL256174   3.399  38.677   5.786
 4321POPC   C1A56175   3.539  38.335   6.242
 4321POPC   D2A56176   3.430  38.339   6.681
 4321POPC   C3A56177   3.660  38.217   7.052
 4321POPC   C4A56178   3.387  38.483   7.229
 4321POPC   C1B56179   3.721  38.801   6.107
 4321POPC   C2B56180   3.659  38.803   6.525
 4321POPC   C3B56181   3.846  38.660   6.873
 4321POPC   C4B56182   3.772  38.859   7.226
 4322POPC   NC356183  22.422  13.622   5.459
 4322POPC   PO456184  21.817  13.571   5.317
 4322POPC   GL156185  21.947  13.692   5.761
 4322POPC   GL256186  22.282  13.843   5.894
 4322POPC   C1A56187  21.822  13.562   6.211
 4322POPC   D2A56188  21.801  13.712   6.661
 4322POPC   C3A56189  21.938  13.579   7.103
 4322POPC   C4A56190  21.976  13.385   7.531
 4322POPC   C1B56191  22.210  13.886   6.353
 4322POPC   C2B56192  22.253  13.909   6.835
 4322POPC   C3B56193  22.538  13.824   7.200
 4322POPC   C4B56194  22.720  13.911   7.661
 4323POPC   NC356195  35.490  39.702   5.423
 4323POPC   PO456196  35.116  40.127   5.075
 4323POPC   GL156197  35.154  40.076   5.590
 4323POPC   GL256198  35.098  39.742   5.740
 4323POPC   C1A56199  35.413  40.069   6.012
 4323POPC   D2A56200  35.562  40.056   6.462
 4323POPC   C3A56201  35.332  40.317   6.755
 4323POPC   C4A56202  35.348  40.468   7.166
 4323POPC   C1B56203  34.986  39.799   6.157
 4323POPC   C2B56204  35.054  39.892   6.582
 4323POPC   C3B56205  35.351  39.712   6.850
 4323POPC   C4B56206  35.535  39.997   7.122
 4324POPC   NC356207  23.396  32.868   5.506
 4324POPC   PO456208  22.663  32.893   5.499
 4324POPC   GL156209  22.931  33.013   5.845
 4324POPC   GL256210  23.126  32.739   5.910
 4324POPC   C1A56211  23.127  33.094   6.277
 4324POPC   D2A56212  22.993  33.279   6.654
 4324POPC   C3A56213  22.949  33.053   7.012
 4324POPC   C4A56214  23.067  33.253   7.347
 4324POPC   C1B56215  22.799  32.692   6.225
 4324POPC   C2B56216  22.761  32.784   6.637
 4324POPC   C3B56217  22.676  32.564   7.019
 4324POPC   C4B56218  22.814  32.763   7.406
 4325POPC   NC356219   6.376  22.401   5.398
 4325POPC   PO456220   5.871  22.034   5.469
 4325POPC   GL156221   5.871  21.986   5.928
 4325POPC   GL256222   5.756  22.328   6.008
 4325POPC   C1A56223   5.917  22.021   6.381
 4325POPC   D2A56224   5.756  22.150   6.756
 4325POPC   C3A56225   5.889  22.039   7.160
 4325POPC   C4A56226   5.870  22.242   7.573
 4325POPC   C1B56227   5.447  22.272   6.342
 4325POPC   C2B56228   5.352  22.451   6.759
 4325POPC   C3B56229   5.593  22.468   7.151
 4325POPC   C4B56230   5.548  22.686   7.564
 4326POPC   NC356231  37.245  30.165   5.338
 4326POPC   PO456232  36.694  29.648   5.355
 4326POPC   GL156233  36.718  29.852   5.781
 4326POPC   GL256234  36.991  30.102   5.803
 4326POPC   C1A56235  36.769  29.667   6.224
 4326POPC   D2A56236  36.674  29.440   6.621
 4326POPC   C3A56237  36.814  29.618   7.024
 4326POPC   C4A56238  36.568  29.695   7.406
 4326POPC   C1B56239  36.792  30.182   6.202
 4326POPC   C2B56240  36.661  30.029   6.612
 4326POPC   C3B56241  36.797  30.155   7.039
 4326POPC   C4B56242  37.188  30.062   7.309
 4327POPC   NC356243  22.460   6.931   5.135
 4327POPC   PO456244  22.045   6.387   5.248
 4327POPC   GL156245  22.126   6.360   5.702
 4327POPC   GL256246  22.043   6.684   5.795
 4327POPC   C1A56247  22.291   6.465   6.181
 4327POPC   D2A56248  22.435   6.611   6.590
 4327POPC   C3A56249  22.260   6.473   7.001
 4327POPC   C4A56250  22.384   6.215   7.390
 4327POPC   C1B56251  21.831   6.760   6.174
 4327POPC   C2B56252  21.627   6.633   6.530
 4327POPC   C3B56253  21.749   6.721   6.932
 4327POPC   C4B56254  21.896   6.703   7.324
 4328POPC   NC356255   1.478   2.176   5.216
 4328POPC   PO456256   0.949   1.740   5.387
 4328POPC   GL156257   1.243   1.975   5.667
 4328POPC   GL256258   1.465   1.731   5.807
 4328POPC   C1A56259   1.236   2.046   6.131
 4328POPC   D2A56260   1.081   2.145   6.547
 4328POPC   C3A56261   1.369   2.076   6.885
 4328POPC   C4A56262   1.344   1.907   7.286
 4328POPC   C1B56263   1.135   1.543   6.058
 4328POPC   C2B56264   0.964   1.631   6.461
 4328POPC   C3B56265   0.942   1.730   6.890
 4328POPC   C4B56266   0.605   1.517   7.085
 4329POPC   NC356267   4.079  29.650   5.512
 4329POPC   PO456268   4.642  29.733   5.170
 4329POPC   GL156269   4.558  29.859   5.654
 4329POPC   GL256270   4.246  30.060   5.763
 4329POPC   C1A56271   4.448  29.691   6.107
 4329POPC   D2A56272   4.501  29.782   6.548
 4329POPC   C3A56273   4.245  29.654   6.878
 4329POPC   C4A56274   4.422  29.658   7.278
 4329POPC   C1B56275   4.369  30.200   6.196
 4329POPC   C2B56276   4.375  30.352   6.623
 4329POPC   C3B56277   4.445  30.110   7.002
 4329POPC   C4B56278   4.203  30.113   7.396
 4330POPC   NC356279   8.585   8.392   5.316
 4330POPC   PO456280   8.109   8.122   5.535
 4330POPC   GL156281   8.168   8.405   5.853
 4330POPC   GL256282   8.535   8.398   5.835
 4330POPC   C1A56283   7.943   8.391   6.257
 4330POPC   D2A56284   7.780   8.572   6.642
 4330POPC   C3A56285   7.913   8.353   7.037
 4330POPC   C4A56286   8.223   7.975   7.038
 4330POPC   C1B56287   8.488   8.406   6.283
 4330POPC   C2B56288   8.306   8.388   6.698
 4330POPC   C3B56289   8.417   8.451   7.133
 4330POPC   C4B56290   8.584   8.153   7.383
 4331POPC   NC356291  35.689  22.341   5.538
 4331POPC   PO456292  36.264  22.039   5.414
 4331POPC   GL156293  36.130  22.249   5.812
 4331POPC   GL256294  36.151  22.604   5.791
 4331POPC   C1A56295  36.105  22.284   6.291
 4331POPC   D2A56296  36.065  22.553   6.676
 4331POPC   C3A56297  36.042  22.323   7.081
 4331POPC   C4A56298  35.823  21.964   7.266
 4331POPC   C1B56299  36.529  22.473   6.054
 4331POPC   C2B56300  36.602  22.364   6.489
 4331POPC   C3B56301  36.532  22.476   6.926
 4331POPC   C4B56302  36.501  22.233   7.291
 4332POPC   NC356303   5.303  20.044   5.583
 4332POPC   PO456304   4.673  19.808   5.472
 4332POPC   GL156305   4.857  20.027   5.821
 4332POPC   GL256306   4.956  19.690   5.920
 4332POPC   C1A56307   5.143  20.028   6.224
 4332POPC   D2A56308   5.213  19.851   6.644
 4332POPC   C3A56309   5.129  20.101   7.006
 4332POPC   C4A56310   5.179  20.111   7.448
 4332POPC   C1B56311   5.227  19.499   6.244
 4332POPC   C2B56312   5.384  19.318   6.637
 4332POPC   C3B56313   5.395  19.548   7.027
 4332POPC   C4B56314   5.036  19.662   7.241
 4333POPC   NC356315  20.785  30.827   5.303
 4333POPC   PO456316  20.369  30.343   5.289
 4333POPC   GL156317  20.579  30.513   5.670
 4333POPC   GL256318  20.488  30.874   5.719
 4333POPC   C1A56319  20.771  30.615   6.088
 4333POPC   D2A56320  20.679  30.549   6.528
 4333POPC   C3A56321  20.937  30.547   6.887
 4333POPC   C4A56322  20.715  30.593   7.298
 4333POPC   C1B56323  20.392  31.032   6.127
 4333POPC   C2B56324  20.637  31.057   6.498
 4333POPC   C3B56325  20.561  30.940   6.926
 4333POPC   C4B56326  20.249  30.895   7.257
 4334POPC   NC356327   6.131  20.332   5.103
 4334POPC   PO456328   5.757  20.199   5.636
 4334POPC   GL156329   5.729  19.859   5.903
 4334POPC   GL256330   6.083  19.878   5.977
 4334POPC   C1A56331   5.696  19.671   6.310
 4334POPC   D2A56332   5.803  19.595   6.718
 4334POPC   C3A56333   5.888  19.935   6.946
 4334POPC   C4A56334   5.606  19.975   7.226
 4334POPC   C1B56335   6.212  19.741   6.385
 4334POPC   C2B56336   6.288  19.498   6.741
 4334POPC   C3B56337   6.177  19.555   7.164
 4334POPC   C4B56338   5.989  19.811   7.532
 4335POPC   NC356339  10.076  31.656   5.442
 4335POPC   PO456340   9.589  31.221   5.443
 4335POPC   GL156341   9.663  31.499   5.762
 4335POPC   GL256342   9.950  31.327   5.867
 4335POPC   C1A56343   9.503  31.508   6.180
 4335POPC   D2A56344   9.414  31.318   6.587
 4335POPC   C3A56345   9.744  31.398   6.891
 4335POPC   C4A56346   9.865  31.077   7.182
 4335POPC   C1B56347  10.006  31.678   6.148
 4335POPC   C2B56348  10.288  31.738   6.491
 4335POPC   C3B56349  10.245  31.786   6.920
 4335POPC   C4B56350  10.025  31.625   7.278
 4336POPC   NC356351  31.873   2.651   4.977
 4336POPC   PO456352  31.330   2.493   5.357
 4336POPC   GL156353  31.344   2.604   5.804
 4336POPC   GL256354  31.561   2.907   5.871
 4336POPC   C1A56355  31.131   2.771   6.190
 4336POPC   D2A56356  31.025   3.026   6.571
 4336POPC   C3A56357  31.244   2.835   6.884
 4336POPC   C4A56358  31.307   2.646   7.245
 4336POPC   C1B56359  31.686   2.813   6.306
 4336POPC   C2B56360  31.763   2.794   6.756
 4336POPC   C3B56361  31.676   3.069   7.125
 4336POPC   C4B56362  31.437   3.096   7.511
 4337POPC   NC356363  13.090  35.512   5.603
 4337POPC   PO456364  12.535  35.305   5.369
 4337POPC   GL156365  12.633  35.354   5.788
 4337POPC   GL256366  12.434  35.100   5.897
 4337POPC   C1A56367  12.857  35.266   6.199
 4337POPC   D2A56368  12.787  35.471   6.607
 4337POPC   C3A56369  13.025  35.368   7.031
 4337POPC   C4A56370  13.045  35.414   7.527
 4337POPC   C1B56371  12.367  35.358   6.235
 4337POPC   C2B56372  12.318  35.254   6.639
 4337POPC   C3B56373  12.513  35.333   7.006
 4337POPC   C4B56374  12.584  35.240   7.415
 4338POPC   NC356375   4.284  36.468   5.326
 4338POPC   PO456376   4.457  37.136   5.401
 4338POPC   GL156377   4.416  37.087   5.804
 4338POPC   GL256378   4.303  36.750   5.774
 4338POPC   C1A56379   4.546  36.932   6.199
 4338POPC   D2A56380   4.374  36.748   6.547
 4338POPC   C3A56381   4.457  36.895   6.939
 4338POPC   C4A56382   4.242  37.147   7.195
 4338POPC   C1B56383   4.031  36.831   6.141
 4338POPC   C2B56384   3.872  36.622   6.519
 4338POPC   C3B56385   4.075  36.521   6.900
 4338POPC   C4B56386   3.952  36.435   7.285
 4339POPC   NC356387  38.237  13.647   5.623
 4339POPC   PO456388  38.767  13.850   5.305
 4339POPC   GL156389  38.659  13.828   5.805
 4339POPC   GL256390  38.594  13.407   5.880
 4339POPC   C1A56391  38.523  13.774   6.244
 4339POPC   D2A56392  38.712  13.823   6.639
 4339POPC   C3A56393  38.480  13.813   6.994
 4339POPC   C4A56394  38.691  13.750   7.398
 4339POPC   C1B56395  38.335  13.296   6.275
 4339POPC   C2B56396  38.469  13.347   6.737
 4339POPC   C3B56397  38.426  13.342   7.198
 4339POPC   C4B56398  38.133  13.247   7.579
 4340POPC   NC356399   1.816  41.891   5.615
 4340POPC   PO456400   1.867  41.296   5.214
 4340POPC   GL156401   1.759  41.385   5.678
 4340POPC   GL256402   2.054  41.388   5.861
 4340POPC   C1A56403   1.660  41.498   6.167
 4340POPC   D2A56404   1.852  41.383   6.599
 4340POPC   C3A56405   1.887  41.610   7.030
 4340POPC   C4A56406   1.779  41.530   7.503
 4340POPC   C1B56407   2.188  41.614   6.219
 4340POPC   C2B56408   2.356  41.577   6.619
 4340POPC   C3B56409   2.449  41.494   7.013
 4340POPC   C4B56410   2.266  41.659   7.371
 4341POPC   NC356411   5.228  11.448   5.444
 4341POPC   PO456412   4.824  11.003   5.392
 4341POPC   GL156413   4.960  10.973   5.836
 4341POPC   GL256414   5.312  11.118   5.873
 4341POPC   C1A56415   5.095  10.917   6.281
 4341POPC   D2A56416   5.347  11.100   6.617
 4341POPC   C3A56417   5.105  11.013   7.000
 4341POPC   C4A56418   4.957  11.144   7.425
 4341POPC   C1B56419   5.240  11.441   6.224
 4341POPC   C2B56420   5.318  11.603   6.667
 4341POPC   C3B56421   5.271  11.487   7.124
 4341POPC   C4B56422   5.286  11.518   7.577
 4342POPC   NC356423  36.539  24.387   5.469
 4342POPC   PO456424  37.188  24.494   5.315
 4342POPC   GL156425  37.064  24.570   5.751
 4342POPC   GL256426  36.712  24.676   5.846
 4342POPC   C1A56427  37.170  24.669   6.173
 4342POPC   D2A56428  37.260  24.803   6.576
 4342POPC   C3A56429  37.051  24.574   6.924
 4342POPC   C4A56430  36.759  24.659   7.272
 4342POPC   C1B56431  36.782  24.351   6.152
 4342POPC   C2B56432  36.637  24.298   6.555
 4342POPC   C3B56433  36.422  24.049   6.827
 4342POPC   C4B56434  36.747  24.150   7.136
 4343POPC   NC356435  29.431  31.382   5.340
 4343POPC   PO456436  30.069  31.169   5.236
 4343POPC   GL156437  29.901  31.339   5.674
 4343POPC   GL256438  29.581  31.380   5.839
 4343POPC   C1A56439  30.101  31.388   6.107
 4343POPC   D2A56440  30.053  31.416   6.582
 4343POPC   C3A56441  29.867  31.745   6.856
 4343POPC   C4A56442  29.814  31.579   7.260
 4343POPC   C1B56443  29.656  31.551   6.262
 4343POPC   C2B56444  29.500  31.449   6.651
 4343POPC   C3B56445  29.532  31.199   7.026
 4343POPC   C4B56446  29.529  31.220   7.465
 4344POPC   NC356447  13.102  29.396   5.375
 4344POPC   PO456448  12.873  28.734   5.315
 4344POPC   GL156449  12.989  28.916   5.667
 4344POPC   GL256450  12.836  29.221   5.779
 4344POPC   C1A56451  13.051  28.828   6.101
 4344POPC   D2A56452  12.931  28.989   6.504
 4344POPC   C3A56453  12.891  29.188   6.883
 4344POPC   C4A56454  12.767  28.975   7.245
 4344POPC   C1B56455  12.631  29.470   6.102
 4344POPC   C2B56456  12.787  29.565   6.516
 4344POPC   C3B56457  12.549  29.587   6.906
 4344POPC   C4B56458  12.523  29.450   7.318
 4345POPC   NC356459  23.396  14.688   5.013
 4345POPC   PO456460  23.827  15.210   5.307
 4345POPC   GL156461  23.771  15.213   5.768
 4345POPC   GL256462  24.080  15.340   5.822
 4345POPC   C1A56463  23.688  15.077   6.220
 4345POPC   D2A56464  23.504  15.256   6.605
 4345POPC   C3A56465  23.559  15.083   7.018
 4345POPC   C4A56466  23.617  15.234   7.449
 4345POPC   C1B56467  24.144  15.354   6.264
 4345POPC   C2B56468  24.322  15.368   6.679
 4345POPC   C3B56469  24.047  15.234   7.026
 4345POPC   C4B56470  24.111  15.025   7.406
 4346POPC   NC356471   5.935  27.421   5.286
 4346POPC   PO456472   5.991  27.963   5.548
 4346POPC   GL156473   5.848  27.691   5.842
 4346POPC   GL256474   5.629  27.921   5.970
 4346POPC   C1A56475   5.933  27.669   6.305
 4346POPC   D2A56476   5.732  27.684   6.708
 4346POPC   C3A56477   5.912  27.533   7.109
 4346POPC   C4A56478   5.719  27.444   7.513
 4346POPC   C1B56479   5.597  28.087   6.328
 4346POPC   C2B56480   5.922  28.161   6.597
 4346POPC   C3B56481   5.858  28.067   7.015
 4346POPC   C4B56482   5.871  27.919   7.435
 4347POPC   NC356483  25.450  23.118   5.266
 4347POPC   PO456484  24.969  22.626   5.467
 4347POPC   GL156485  25.073  22.788   5.917
 4347POPC   GL256486  25.275  23.117   5.881
 4347POPC   C1A56487  25.339  22.740   6.299
 4347POPC   D2A56488  25.560  22.845   6.694
 4347POPC   C3A56489  25.247  22.748   6.997
 4347POPC   C4A56490  24.860  22.701   7.205
 4347POPC   C1B56491  25.436  23.243   6.298
 4347POPC   C2B56492  25.513  23.452   6.680
 4347POPC   C3B56493  25.556  23.257   7.078
 4347POPC   C4B56494  25.346  23.029   7.405
 4348POPC   NC356495  14.145   1.697   5.589
 4348POPC   PO456496  14.387   2.274   5.275
 4348POPC   GL156497  14.438   2.105   5.750
 4348POPC   GL256498  14.759   1.914   5.845
 4348POPC   C1A56499  14.176   1.988   6.165
 4348POPC   D2A56500  14.042   2.167   6.557
 4348POPC   C3A56501  14.089   1.963   6.973
 4348POPC   C4A56502  14.431   2.179   7.178
 4348POPC   C1B56503  14.662   1.869   6.257
 4348POPC   C2B56504  14.497   1.831   6.666
 4348POPC   C3B56505  14.730   1.781   7.034
 4348POPC   C4B56506  14.729   1.729   7.446
 4349POPC   NC356507  23.158  19.829   5.359
 4349POPC   PO456508  22.640  20.212   5.399
 4349POPC   GL156509  22.925  20.118   5.748
 4349POPC   GL256510  22.977  19.762   5.846
 4349POPC   C1A56511  22.991  20.118   6.187
 4349POPC   D2A56512  22.902  19.875   6.543
 4349POPC   C3A56513  22.896  20.073   6.929
 4349POPC   C4A56514  22.721  20.127   7.308
 4349POPC   C1B56515  22.910  19.456   6.181
 4349POPC   C2B56516  23.061  19.399   6.596
 4349POPC   C3B56517  23.036  19.577   6.981
 4349POPC   C4B56518  23.125  19.680   7.437
 4350POPC   NC356519  42.060   5.009   5.450
 4350POPC   PO456520  42.606   5.238   5.204
 4350POPC   GL156521  42.531   5.085   5.640
 4350POPC   GL256522  42.261   5.312   5.833
 4350POPC   C1A56523  42.511   4.870   6.048
 4350POPC   D2A56524  42.339   5.181   6.333
 4350POPC   C3A56525  42.362   5.169   6.777
 4350POPC   C4A56526  42.354   5.149   7.213
 4350POPC   C1B56527  42.165   5.626   6.184
 4350POPC   C2B56528  42.098   5.607   6.651
 4350POPC   C3B56529  42.103   5.571   7.130
 4350POPC   C4B56530  42.226   5.563   7.599
 4351POPC   NC356531  26.549  37.855   5.193
 4351POPC   PO456532  27.029  37.496   5.308
 4351POPC   GL156533  26.806  37.759   5.637
 4351POPC   GL256534  27.024  37.914   5.863
 4351POPC   C1A56535  26.515  37.754   6.015
 4351POPC   D2A56536  26.499  37.908   6.427
 4351POPC   C3A56537  26.839  37.879   6.694
 4351POPC   C4A56538  26.740  37.746   7.097
 4351POPC   C1B56539  27.141  37.607   6.201
 4351POPC   C2B56540  27.105  37.429   6.633
 4351POPC   C3B56541  27.206  37.554   7.047
 4351POPC   C4B56542  27.125  37.620   7.498
 4352POPC   NC356543  30.380   2.179   5.666
 4352POPC   PO456544  29.807   1.963   5.458
 4352POPC   GL156545  29.819   1.650   5.834
 4352POPC   GL256546  30.177   1.750   5.923
 4352POPC   C1A56547  29.805   1.700   6.294
 4352POPC   D2A56548  29.735   2.130   6.482
 4352POPC   C3A56549  29.707   2.095   6.915
 4352POPC   C4A56550  29.862   1.769   7.137
 4352POPC   C1B56551  30.214   2.038   6.295
 4352POPC   C2B56552  30.188   2.260   6.694
 4352POPC   C3B56553  30.228   2.118   7.110
 4352POPC   C4B56554  30.401   2.161   7.562
 4353POPC   NC356555  16.988  15.327   5.166
 4353POPC   PO456556  16.681  14.806   5.397
 4353POPC   GL156557  16.710  14.962   5.829
 4353POPC   GL256558  17.069  14.993   5.922
 4353POPC   C1A56559  16.658  15.234   6.211
 4353POPC   D2A56560  16.420  15.218   6.596
 4353POPC   C3A56561  16.500  15.161   7.027
 4353POPC   C4A56562  16.458  14.789   7.216
 4353POPC   C1B56563  17.151  15.100   6.359
 4353POPC   C2B56564  16.949  15.271   6.708
 4353POPC   C3B56565  17.007  15.171   7.131
 4353POPC   C4B56566  17.287  15.312   7.469
 4354POPC   NC356567  34.874  10.714   5.516
 4354POPC   PO456568  35.523  10.508   5.350
 4354POPC   GL156569  35.402  10.596   5.786
 4354POPC   GL256570  35.105  10.491   5.897
 4354POPC   C1A56571  35.483  10.511   6.238
 4354POPC   D2A56572  35.294  10.665   6.628
 4354POPC   C3A56573  35.534  10.466   6.946
 4354POPC   C4A56574  35.435  10.229   7.318
 4354POPC   C1B56575  35.061  10.194   6.207
 4354POPC   C2B56576  35.299  10.158   6.582
 4354POPC   C3B56577  35.077  10.270   6.935
 4354POPC   C4B56578  34.863  10.316   7.260
 4355POPC   NC356579  36.907   5.994   4.945
 4355POPC   PO456580  36.873   5.446   5.328
 4355POPC   GL156581  36.796   5.630   5.734
 4355POPC   GL256582  37.085   5.857   5.795
 4355POPC   C1A56583  36.745   5.728   6.175
 4355POPC   D2A56584  36.901   5.917   6.556
 4355POPC   C3A56585  36.783   5.683   6.902
 4355POPC   C4A56586  36.817   5.655   7.318
 4355POPC   C1B56587  37.236   6.118   6.130
 4355POPC   C2B56588  37.142   6.370   6.504
 4355POPC   C3B56589  37.113   6.232   6.917
 4355POPC   C4B56590  37.243   5.954   7.237
 4356POPC   NC356591  16.729  29.337   5.257
 4356POPC   PO456592  16.922  28.793   5.438
 4356POPC   GL156593  16.639  29.137   5.724
 4356POPC   GL256594  16.862  29.239   5.973
 4356POPC   C1A56595  16.409  29.365   6.135
 4356POPC   D2A56596  16.641  29.283   6.541
 4356POPC   C3A56597  16.505  29.236   6.992
 4356POPC   C4A56598  16.772  29.182   7.352
 4356POPC   C1B56599  16.599  28.893   6.195
 4356POPC   C2B56600  16.463  28.817   6.650
 4356POPC   C3B56601  16.461  28.664   7.100
 4356POPC   C4B56602  16.801  28.671   7.431
 4357POPC   NC356603  28.893   8.229   5.665
 4357POPC   PO456604  29.499   8.527   5.552
 4357POPC   GL156605  29.309   8.349   5.937
 4357POPC   GL256606  29.244   7.994   6.018
 4357POPC   C1A56607  29.029   8.352   6.302
 4357POPC   D2A56608  29.071   8.042   6.609
 4357POPC   C3A56609  29.010   8.226   6.971
 4357POPC   C4A56610  29.238   8.310   7.311
 4357POPC   C1B56611  28.823   7.873   6.201
 4357POPC   C2B56612  28.630   7.751   6.596
 4357POPC   C3B56613  28.863   7.712   6.970
 4357POPC   C4B56614  29.101   7.833   7.326
 4358POPC   NC356615  21.008  43.812   5.407
 4358POPC   PO456616  21.572  44.126   5.424
 4358POPC   GL156617  21.402  43.887   5.756
 4358POPC   GL256618  21.654  43.691   5.914
 4358POPC   C1A56619  21.115  43.791   6.094
 4358POPC   D2A56620  21.134  43.653   6.509
 4358POPC   C3A56621  21.131  43.941   6.826
 4358POPC   C4A56622  21.029  43.839   7.237
 4358POPC   C1B56623  21.620  43.838   6.321
 4358POPC   C2B56624  21.608  43.720   6.747
 4358POPC   C3B56625  21.536  43.949   7.147
 4358POPC   C4B56626  21.641  44.213   7.504
 4359POPC   NC356627  27.530  26.227   5.335
 4359POPC   PO456628  28.113  25.857   5.195
 4359POPC   GL156629  27.923  25.883   5.660
 4359POPC   GL256630  27.585  26.010   5.770
 4359POPC   C1A56631  27.882  25.925   6.156
 4359POPC   D2A56632  27.668  25.714   6.520
 4359POPC   C3A56633  27.823  25.865   6.922
 4359POPC   C4A56634  27.994  25.868   7.319
 4359POPC   C1B56635  27.351  25.832   6.110
 4359POPC   C2B56636  27.228  25.996   6.497
 4359POPC   C3B56637  27.319  25.978   6.908
 4359POPC   C4B56638  27.523  26.117   7.261
 4360POPC   NC356639  25.879  39.641   5.493
 4360POPC   PO456640  26.187  40.275   5.473
 4360POPC   GL156641  26.042  40.019   5.801
 4360POPC   GL256642  26.294  39.786   5.747
 4360POPC   C1A56643  25.879  39.839   6.189
 4360POPC   D2A56644  25.582  39.777   6.533
 4360POPC   C3A56645  25.795  39.668   6.913
 4360POPC   C4A56646  25.866  39.856   7.305
 4360POPC   C1B56647  26.451  39.978   6.125
 4360POPC   C2B56648  26.273  39.858   6.507
 4360POPC   C3B56649  26.271  39.895   6.927
 4360POPC   C4B56650  26.354  40.012   7.327
 4361POPC   NC356651  44.469  18.575   5.440
 4361POPC   PO456652  44.647  19.182   5.172
 4361POPC   GL156653  44.550  19.072   5.629
 4361POPC   GL256654  44.809  18.870   5.796
 4361POPC   C1A56655  44.368  18.924   6.050
 4361POPC   D2A56656  44.555  18.952   6.490
 4361POPC   C3A56657  44.447  19.236   6.808
 4361POPC   C4A56658  44.655  19.125   7.191
 4361POPC   C1B56659  44.910  19.122   6.183
 4361POPC   C2B56660   0.038  19.026   6.652
 4361POPC   C3B56661  44.936  18.749   7.054
 4361POPC   C4B56662  44.931  18.899   7.545
 4362POPC   NC356663  34.636  35.697   5.088
 4362POPC   PO456664  34.343  36.234   5.430
 4362POPC   GL156665  34.500  36.256   5.803
 4362POPC   GL256666  34.835  36.163   5.752
 4362POPC   C1A56667  34.452  36.080   6.175
 4362POPC   D2A56668  34.458  36.319   6.540
 4362POPC   C3A56669  34.384  36.220   6.983
 4362POPC   C4A56670  34.519  36.288   7.430
 4362POPC   C1B56671  34.884  36.384   6.150
 4362POPC   C2B56672  34.974  36.341   6.595
 4362POPC   C3B56673  34.949  36.310   7.056
 4362POPC   C4B56674  34.938  36.010   7.392
 4363POPC   NC356675  16.656  43.952   5.264
 4363POPC   PO456676  17.282  44.169   5.369
 4363POPC   GL156677  16.969  44.186   5.743
 4363POPC   GL256678  16.751  43.881   5.764
 4363POPC   C1A56679  16.906  44.073   6.227
 4363POPC   D2A56680  17.005  43.722   6.518
 4363POPC   C3A56681  17.074  43.680   6.938
 4363POPC   C4A56682  17.050  43.936   7.274
 4363POPC   C1B56683  16.708  43.576   6.111
 4363POPC   C2B56684  16.517  43.595   6.517
 4363POPC   C3B56685  16.597  43.849   6.862
 4363POPC   C4B56686  16.633  43.600   7.229
 4364POPC   NC356687  14.457   0.499   5.569
 4364POPC   PO456688  14.785  44.945   5.651
 4364POPC   GL156689  14.462   0.148   5.924
 4364POPC   GL256690  14.108   0.303   5.894
 4364POPC   C1A56691  14.362   0.331   6.328
 4364POPC   D2A56692  14.527   0.608   6.614
 4364POPC   C3A56693  14.489   0.302   6.916
 4364POPC   C4A56694  14.479   0.099   7.284
 4364POPC   C1B56695  14.095   0.731   6.162
 4364POPC   C2B56696  14.221   1.021   6.502
 4364POPC   C3B56697  14.294   0.981   6.920
 4364POPC   C4B56698  14.046   0.673   7.135
 4365POPC   NC356699  38.559   0.031   5.374
 4365POPC   PO456700  38.203  44.404   5.382
 4365POPC   GL156701  38.428  44.658   5.741
 4365POPC   GL256702  38.429   0.045   5.852
 4365POPC   C1A56703  38.404  44.642   6.203
 4365POPC   D2A56704  38.463  44.571   6.649
 4365POPC   C3A56705  38.783  44.352   6.845
 4365POPC   C4A56706  38.617  44.428   7.241
 4365POPC   C1B56707  38.296   0.178   6.244
 4365POPC   C2B56708  38.461   0.096   6.647
 4365POPC   C3B56709  38.422  44.917   7.062
 4365POPC   C4B56710  38.743  44.884   7.371
 4366POPC   NC356711  43.594  12.996   5.389
 4366POPC   PO456712  43.932  12.393   5.345
 4366POPC   GL156713  43.707  12.541   5.705
 4366POPC   GL256714  43.981  12.507   5.917
 4366POPC   C1A56715  43.668  12.878   6.054
 4366POPC   D2A56716  43.470  12.965   6.454
 4366POPC   C3A56717  43.663  12.770   6.811
 4366POPC   C4A56718  43.652  13.080   7.116
 4366POPC   C1B56719  43.991  12.593   6.364
 4366POPC   C2B56720  44.268  12.886   6.542
 4366POPC   C3B56721  44.324  13.099   6.893
 4366POPC   C4B56722  44.116  12.960   7.209
 4367POPC   NC356723   7.911   9.299   5.404
 4367POPC   PO456724   8.284   8.745   5.398
 4367POPC   GL156725   8.368   8.873   5.812
 4367POPC   GL256726   8.310   9.179   5.815
 4367POPC   C1A56727   8.192   8.829   6.202
 4367POPC   D2A56728   8.423   8.867   6.568
 4367POPC   C3A56729   8.147   8.831   6.933
 4367POPC   C4A56730   8.123   8.829   7.375
 4367POPC   C1B56731   8.257   9.329   6.207
 4367POPC   C2B56732   8.052   9.207   6.583
 4367POPC   C3B56733   8.272   9.321   6.929
 4367POPC   C4B56734   8.354   9.289   7.324
 4368POPC   NC356735  41.246  23.877   5.517
 4368POPC   PO456736  41.784  23.414   5.463
 4368POPC   GL156737  41.655  23.688   5.805
 4368POPC   GL256738  41.351  23.501   5.860
 4368POPC   C1A56739  41.566  23.681   6.271
 4368POPC   D2A56740  41.673  23.390   6.607
 4368POPC   C3A56741  41.797  23.628   6.984
 4368POPC   C4A56742  41.551  23.976   7.185
 4368POPC   C1B56743  41.290  23.238   6.211
 4368POPC   C2B56744  41.021  23.259   6.560
 4368POPC   C3B56745  41.017  23.286   6.973
 4368POPC   C4B56746  41.391  23.428   7.220
 4369POPC   NC356747  17.042   3.342   5.331
 4369POPC   PO456748  16.437   3.472   5.337
 4369POPC   GL156749  16.671   3.508   5.690
 4369POPC   GL256750  16.626   3.203   5.750
 4369POPC   C1A56751  16.600   3.497   6.157
 4369POPC   D2A56752  16.469   3.498   6.575
 4369POPC   C3A56753  16.717   3.693   6.867
 4369POPC   C4A56754  16.812   3.683   7.281
 4369POPC   C1B56755  16.920   3.096   6.070
 4369POPC   C2B56756  17.051   3.213   6.481
 4369POPC   C3B56757  16.900   3.203   6.877
 4369POPC   C4B56758  16.780   3.152   7.277
 4370POPC   NC356759  41.263  25.430   5.675
 4370POPC   PO456760  41.638  25.876   5.340
 4370POPC   GL156761  41.791  25.953   5.746
 4370POPC   GL256762  41.903  26.285   5.641
 4370POPC   C1A56763  41.510  25.999   6.107
 4370POPC   D2A56764  41.357  26.315   6.406
 4370POPC   C3A56765  41.453  26.182   6.828
 4370POPC   C4A56766  41.536  25.741   6.963
 4370POPC   C1B56767  41.896  26.344   6.096
 4370POPC   C2B56768  41.885  26.093   6.466
 4370POPC   C3B56769  41.966  26.039   6.880
 4370POPC   C4B56770  41.725  26.108   7.253
 4371POPC   NC356771  30.512  25.136   5.351
 4371POPC   PO456772  31.013  25.566   5.399
 4371POPC   GL156773  30.635  25.534   5.655
 4371POPC   GL256774  30.835  25.251   5.797
 4371POPC   C1A56775  30.415  25.319   6.048
 4371POPC   D2A56776  30.676  25.227   6.430
 4371POPC   C3A56777  30.493  25.153   6.838
 4371POPC   C4A56778  30.238  25.035   7.163
 4371POPC   C1B56779  30.964  24.938   6.129
 4371POPC   C2B56780  30.915  24.796   6.588
 4371POPC   C3B56781  31.006  25.152   6.858
 4371POPC   C4B56782  30.784  25.529   7.012
 4372POPC   NC356783   9.949  40.767   5.417
 4372POPC   PO456784   9.400  40.459   5.322
 4372POPC   GL156785   9.534  40.644   5.721
 4372POPC   GL256786   9.380  41.003   5.785
 4372POPC   C1A56787   9.873  40.578   6.071
 4372POPC   D2A56788   9.916  40.817   6.462
 4372POPC   C3A56789   9.882  40.648   6.881
 4372POPC   C4A56790   9.826  40.937   7.228
 4372POPC   C1B56791   9.440  40.817   6.193
 4372POPC   C2B56792   9.429  40.666   6.616
 4372POPC   C3B56793   9.377  40.786   7.035
 4372POPC   C4B56794   9.429  40.823   7.535
 4373POPC   NC356795  31.240  28.623   5.516
 4373POPC   PO456796  31.749  28.215   5.599
 4373POPC   GL156797  31.397  28.262   5.859
 4373POPC   GL256798  31.137  28.108   5.712
 4373POPC   C1A56799  31.293  28.498   6.233
 4373POPC   D2A56800  31.355  28.638   6.681
 4373POPC   C3A56801  31.726  28.516   6.921
 4373POPC   C4A56802  31.701  28.334   7.357
 4373POPC   C1B56803  31.024  28.020   6.170
 4373POPC   C2B56804  31.215  28.126   6.572
 4373POPC   C3B56805  31.327  28.192   6.992
 4373POPC   C4B56806  31.194  28.080   7.389
 4374POPC   NC356807   3.074   4.347   5.276
 4374POPC   PO456808   3.655   4.314   5.233
 4374POPC   GL156809   3.487   4.309   5.699
 4374POPC   GL256810   3.145   4.226   5.814
 4374POPC   C1A56811   3.529   4.166   6.175
 4374POPC   D2A56812   3.426   4.269   6.649
 4374POPC   C3A56813   3.690   4.294   7.045
 4374POPC   C4A56814   3.940   4.250   7.453
 4374POPC   C1B56815   3.146   4.495   6.227
 4374POPC   C2B56816   3.066   4.621   6.676
 4374POPC   C3B56817   3.195   4.464   7.122
 4374POPC   C4B56818   3.136   4.488   7.588
 4375POPC   NC356819  26.616  40.069   5.480
 4375POPC   PO456820  26.668  39.412   5.447
 4375POPC   GL156821  26.738  39.569   5.876
 4375POPC   GL256822  26.892  39.884   5.860
 4375POPC   C1A56823  26.786  39.641   6.331
 4375POPC   D2A56824  26.755  39.984   6.621
 4375POPC   C3A56825  26.791  39.946   7.069
 4375POPC   C4A56826  26.878  40.291   7.380
 4375POPC   C1B56827  27.026  40.125   6.205
 4375POPC   C2B56828  27.241  40.198   6.580
 4375POPC   C3B56829  27.283  39.901   6.890
 4375POPC   C4B56830  27.257  39.935   7.323
 4376POPC   NC356831   4.622  18.470   5.643
 4376POPC   PO456832   4.315  18.959   5.294
 4376POPC   GL156833   4.241  19.089   5.754
 4376POPC   GL256834   4.373  18.807   5.942
 4376POPC   C1A56835   4.249  19.245   6.220
 4376POPC   D2A56836   4.362  19.556   6.598
 4376POPC   C3A56837   4.180  19.446   6.995
 4376POPC   C4A56838   4.272  19.253   7.384
 4376POPC   C1B56839   3.988  18.760   6.162
 4376POPC   C2B56840   4.058  18.631   6.578
 4376POPC   C3B56841   4.145  18.869   6.963
 4376POPC   C4B56842   4.197  18.755   7.383
 4377POPC   NC356843   1.453  16.958   5.446
 4377POPC   PO456844   0.780  16.926   5.582
 4377POPC   GL156845   0.917  16.647   5.878
 4377POPC   GL256846   1.295  16.638   5.819
 4377POPC   C1A56847   0.903  16.639   6.349
 4377POPC   D2A56848   0.989  17.029   6.591
 4377POPC   C3A56849   1.161  17.005   7.001
 4377POPC   C4A56850   1.039  16.623   7.179
 4377POPC   C1B56851   1.415  16.621   6.257
 4377POPC   C2B56852   1.320  16.636   6.681
 4377POPC   C3B56853   1.525  16.603   7.034
 4377POPC   C4B56854   1.482  16.776   7.400
 4378POPC   NC356855  40.534  10.869   5.214
 4378POPC   PO456856  40.617  11.529   5.428
 4378POPC   GL156857  40.831  11.421   5.771
 4378POPC   GL256858  40.874  11.082   5.650
 4378POPC   C1A56859  40.742  11.389   6.199
 4378POPC   D2A56860  40.652  11.272   6.616
 4378POPC   C3A56861  40.853  11.456   6.949
 4378POPC   C4A56862  40.642  11.275   7.253
 4378POPC   C1B56863  41.034  10.999   6.057
 4378POPC   C2B56864  41.113  11.144   6.479
 4378POPC   C3B56865  40.995  10.976   6.883
 4378POPC   C4B56866  40.947  10.816   7.293
 4379POPC   NC356867  40.350  41.046   5.460
 4379POPC   PO456868  39.783  40.752   5.335
 4379POPC   GL156869  39.889  40.917   5.715
 4379POPC   GL256870  39.696  41.216   5.685
 4379POPC   C1A56871  40.073  40.871   6.107
 4379POPC   D2A56872  40.170  41.107   6.470
 4379POPC   C3A56873  40.258  40.786   6.777
 4379POPC   C4A56874  40.283  40.504   7.137
 4379POPC   C1B56875  39.579  41.075   6.134
 4379POPC   C2B56876  39.720  40.852   6.516
 4379POPC   C3B56877  39.850  41.105   6.863
 4379POPC   C4B56878  40.103  41.026   7.194
 4380POPC   NC356879   0.162  32.986   5.544
 4380POPC   PO456880   0.697  32.801   5.244
 4380POPC   GL156881   0.608  32.748   5.717
 4380POPC   GL256882   0.558  33.098   5.877
 4380POPC   C1A56883   0.450  32.715   6.178
 4380POPC   D2A56884   0.635  32.849   6.566
 4380POPC   C3A56885   0.369  32.889   6.921
 4380POPC   C4A56886   0.422  32.687   7.311
 4380POPC   C1B56887   0.164  33.143   6.165
 4380POPC   C2B56888  44.855  33.277   6.500
 4380POPC   C3B56889  44.962  33.233   6.911
 4380POPC   C4B56890   0.114  33.091   7.312
 4381POPC   NC356891  23.459   1.363   5.052
 4381POPC   PO456892  24.003   1.129   5.459
 4381POPC   GL156893  23.756   1.230   5.802
 4381POPC   GL256894  23.497   1.362   5.589
 4381POPC   C1A56895  23.656   1.062   6.207
 4381POPC   D2A56896  23.860   1.126   6.618
 4381POPC   C3A56897  23.752   1.028   7.045
 4381POPC   C4A56898  24.080   1.072   7.359
 4381POPC   C1B56899  23.372   1.485   6.028
 4381POPC   C2B56900  23.475   1.453   6.488
 4381POPC   C3B56901  23.497   1.675   6.886
 4381POPC   C4B56902  23.537   1.524   7.292
 4382POPC   NC356903  13.019   2.187   5.372
 4382POPC   PO456904  12.509   1.749   5.507
 4382POPC   GL156905  12.807   1.925   5.839
 4382POPC   GL256906  13.189   1.956   5.832
 4382POPC   C1A56907  12.730   2.089   6.256
 4382POPC   D2A56908  12.351   2.229   6.467
 4382POPC   C3A56909  12.466   2.296   6.891
 4382POPC   C4A56910  12.685   1.975   7.073
 4382POPC   C1B56911  13.210   1.891   6.303
 4382POPC   C2B56912  13.059   2.067   6.715
 4382POPC   C3B56913  13.143   2.153   7.153
 4382POPC   C4B56914  13.219   2.209   7.591
 4383POPC   NC356915  38.695  19.113   5.279
 4383POPC   PO456916  38.052  18.956   5.314
 4383POPC   GL156917  38.147  19.061   5.761
 4383POPC   GL256918  38.520  19.089   5.763
 4383POPC   C1A56919  38.224  18.947   6.224
 4383POPC   D2A56920  38.554  18.913   6.560
 4383POPC   C3A56921  38.534  18.694   6.961
 4383POPC   C4A56922  38.499  18.984   7.304
 4383POPC   C1B56923  38.637  19.268   6.162
 4383POPC   C2B56924  38.523  19.444   6.541
 4383POPC   C3B56925  38.547  19.321   6.924
 4383POPC   C4B56926  38.722  19.433   7.277
 4384POPC   NC356927   0.139  34.359   5.584
 4384POPC   PO456928  44.696  34.867   5.412
 4384POPC   GL156929  44.752  34.622   5.827
 4384POPC   GL256930  44.582  34.301   5.922
 4384POPC   C1A56931  44.883  34.616   6.272
 4384POPC   D2A56932   0.058  34.756   6.675
 4384POPC   C3A56933  44.868  34.735   7.105
 4384POPC   C4A56934  44.553  34.743   7.464
 4384POPC   C1B56935  44.949  34.131   6.143
 4384POPC   C2B56936   0.114  34.233   6.555
 4384POPC   C3B56937  44.933  34.259   6.936
 4384POPC   C4B56938  44.762  34.282   7.326
 4385POPC   NC356939  44.171   1.323   5.579
 4385POPC   PO456940  43.936   0.797   5.158
 4385POPC   GL156941  43.803   0.884   5.655
 4385POPC   GL256942  43.546   0.738   5.928
 4385POPC   C1A56943  43.922   1.048   6.107
 4385POPC   D2A56944  43.892   1.406   6.414
 4385POPC   C3A56945  43.937   1.353   6.872
 4385POPC   C4A56946  44.265   1.468   7.167
 4385POPC   C1B56947  43.591   0.813   6.400
 4385POPC   C2B56948  44.042   0.806   6.559
 4385POPC   C3B56949  44.263   0.891   6.912
 4385POPC   C4B56950  44.082   1.007   7.290
 4386POPC   NC356951  20.541  36.692   5.401
 4386POPC   PO456952  20.154  37.212   5.353
 4386POPC   GL156953  20.598  37.173   5.645
 4386POPC   GL256954  20.910  36.891   5.690
 4386POPC   C1A56955  20.837  37.189   6.082
 4386POPC   D2A56956  20.946  36.935   6.460
 4386POPC   C3A56957  20.709  37.010   6.822
 4386POPC   C4A56958  20.814  37.091   7.213
 4386POPC   C1B56959  20.755  36.626   6.096
 4386POPC   C2B56960  20.626  36.545   6.589
 4386POPC   C3B56961  20.604  36.589   7.074
 4386POPC   C4B56962  20.471  36.403   7.463
 4387POPC   NC356963   0.731  21.793   5.607
 4387POPC   PO456964   0.152  21.630   5.322
 4387POPC   GL156965   0.318  21.496   5.739
 4387POPC   GL256966   0.378  21.189   5.824
 4387POPC   C1A56967   0.443  21.506   6.214
 4387POPC   D2A56968   0.081  21.421   6.495
 4387POPC   C3A56969   0.143  21.234   6.862
 4387POPC   C4A56970   0.444  21.347   7.159
 4387POPC   C1B56971   0.262  21.030   6.205
 4387POPC   C2B56972   0.511  21.036   6.578
 4387POPC   C3B56973   0.549  20.881   7.002
 4387POPC   C4B56974   0.904  21.081   7.215
 4388POPC   NC356975  27.863  29.608   5.412
 4388POPC   PO456976  27.500  29.025   5.445
 4388POPC   GL156977  27.708  29.232   5.735
 4388POPC   GL256978  27.474  29.518   5.775
 4388POPC   C1A56979  27.859  29.043   6.112
 4388POPC   D2A56980  27.940  29.185   6.512
 4388POPC   C3A56981  27.867  28.946   6.853
 4388POPC   C4A56982  27.737  29.083   7.235
 4388POPC   C1B56983  27.507  29.410   6.171
 4388POPC   C2B56984  27.596  29.560   6.532
 4388POPC   C3B56985  27.497  29.374   6.885
 4388POPC   C4B56986  27.263  29.266   7.244
 4389POPC   NC356987   5.686  33.890   5.406
 4389POPC   PO456988   6.018  33.273   5.442
 4389POPC   GL156989   5.866  33.548   5.763
 4389POPC   GL256990   6.064  33.851   5.808
 4389POPC   C1A56991   5.692  33.710   6.154
 4389POPC   D2A56992   5.766  33.912   6.558
 4389POPC   C3A56993   5.601  33.695   6.907
 4389POPC   C4A56994   5.752  33.658   7.274
 4389POPC   C1B56995   6.202  33.613   6.171
 4389POPC   C2B56996   6.171  33.532   6.592
 4389POPC   C3B56997   6.111  33.779   6.941
 4389POPC   C4B56998   6.318  33.983   7.260
 4390POPC   NC356999  25.324  15.932   5.132
 4390POPC   PO457000  24.710  15.677   5.364
 4390POPC   GL157001  25.001  15.718   5.719
 4390POPC   GL257002  25.336  15.888   5.685
 4390POPC   C1A57003  25.066  15.931   6.123
 4390POPC   D2A57004  25.278  15.836   6.496
 4390POPC   C3A57005  25.263  16.128   6.810
 4390POPC   C4A57006  25.101  15.840   7.111
 4390POPC   C1B57007  25.599  15.847   6.097
 4390POPC   C2B57008  25.800  15.789   6.504
 4390POPC   C3B57009  25.622  15.775   6.920
 4390POPC   C4B57010  25.565  15.822   7.355
 4391POPC   NC357011  10.249  11.511   5.377
 4391POPC   PO457012  10.419  10.927   5.544
 4391POPC   GL157013  10.491  11.186   5.914
 4391POPC   GL257014  10.829  11.316   5.855
 4391POPC   C1A57015  10.466  11.212   6.376
 4391POPC   D2A57016  10.534  11.280   6.805
 4391POPC   C3A57017  10.534  10.950   7.079
 4391POPC   C4A57018  10.444  10.956   7.530
 4391POPC   C1B57019  10.838  11.537   6.241
 4391POPC   C2B57020  10.915  11.638   6.675
 4391POPC   C3B57021  10.649  11.718   7.050
 4391POPC   C4B57022  10.518  11.422   7.353
 4392POPC   NC357023  38.815  20.701   5.517
 4392POPC   PO457024  38.162  20.868   5.409
 4392POPC   GL157025  38.402  20.763   5.817
 4392POPC   GL257026  38.750  20.874   5.984
 4392POPC   C1A57027  38.318  20.644   6.244
 4392POPC   D2A57028  38.097  20.379   6.561
 4392POPC   C3A57029  38.389  20.323   6.891
 4392POPC   C4A57030  38.458  20.408   7.307
 4392POPC   C1B57031  38.756  20.981   6.412
 4392POPC   C2B57032  38.534  20.794   6.700
 4392POPC   C3B57033  38.724  20.749   7.054
 4392POPC   C4B57034  38.872  21.007   7.353
 4393POPC   NC357035  24.614   6.228   5.433
 4393POPC   PO457036  24.286   5.663   5.643
 4393POPC   GL157037  24.313   6.002   5.866
 4393POPC   GL257038  24.214   5.775   6.127
 4393POPC   C1A57039  24.574   6.184   6.198
 4393POPC   D2A57040  24.791   6.332   6.570
 4393POPC   C3A57041  24.635   6.227   6.980
 4393POPC   C4A57042  24.659   5.820   7.204
 4393POPC   C1B57043  24.586   5.579   6.306
 4393POPC   C2B57044  24.645   5.828   6.650
 4393POPC   C3B57045  24.253   5.888   6.883
 4393POPC   C4B57046  24.051   5.685   7.218
 4394POPC   NC357047   6.192   8.395   5.286
 4394POPC   PO457048   6.600   7.759   5.445
 4394POPC   GL157049   6.593   8.029   5.833
 4394POPC   GL257050   6.430   8.294   5.764
 4394POPC   C1A57051   6.872   8.219   6.176
 4394POPC   D2A57052   6.693   8.108   6.600
 4394POPC   C3A57053   6.857   8.364   6.905
 4394POPC   C4A57054   6.982   8.350   7.327
 4394POPC   C1B57055   6.379   8.301   6.230
 4394POPC   C2B57056   6.292   8.468   6.664
 4394POPC   C3B57057   6.233   8.240   7.066
 4394POPC   C4B57058   6.237   8.296   7.547
 4395POPC   NC357059  36.588  17.991   5.488
 4395POPC   PO457060  35.973  18.227   5.269
 4395POPC   GL157061  36.187  18.319   5.666
 4395POPC   GL257062  35.991  18.083   5.848
 4395POPC   C1A57063  36.278  18.408   6.141
 4395POPC   D2A57064  36.105  18.252   6.570
 4395POPC   C3A57065  36.070  18.496   7.004
 4395POPC   C4A57066  35.976  18.508   7.487
 4395POPC   C1B57067  35.915  17.842   6.237
 4395POPC   C2B57068  36.086  17.731   6.654
 4395POPC   C3B57069  36.240  18.008   7.018
 4395POPC   C4B57070  36.020  18.027   7.408
 4396POPC   NC357071  40.269  31.312   5.593
 4396POPC   PO457072  39.993  30.723   5.426
 4396POPC   GL157073  40.093  30.698   5.871
 4396POPC   GL257074  40.247  31.009   6.002
 4396POPC   C1A57075  40.123  30.592   6.313
 4396POPC   D2A57076  40.026  30.693   6.753
 4396POPC   C3A57077  39.961  30.368   7.026
 4396POPC   C4A57078  39.755  30.375   7.380
 4396POPC   C1B57079  40.205  31.076   6.456
 4396POPC   C2B57080  40.328  31.078   6.891
 4396POPC   C3B57081  40.303  30.736   7.229
 4396POPC   C4B57082  40.068  30.692   7.621
 4397POPC   NC357083  17.911   1.012   5.130
 4397POPC   PO457084  18.355   1.373   5.460
 4397POPC   GL157085  18.436   1.048   5.745
 4397POPC   GL257086  18.604   1.302   5.950
 4397POPC   C1A57087  18.299   0.948   6.169
 4397POPC   D2A57088  18.181   1.272   6.485
 4397POPC   C3A57089  18.241   1.094   6.888
 4397POPC   C4A57090  17.986   1.247   7.237
 4397POPC   C1B57091  18.522   1.652   6.227
 4397POPC   C2B57092  18.399   1.857   6.617
 4397POPC   C3B57093  18.245   1.594   6.942
 4397POPC   C4B57094  18.445   1.402   7.333
 4398POPC   NC357095  26.757  30.065   5.242
 4398POPC   PO457096  27.361  29.701   5.328
 4398POPC   GL157097  26.944  29.740   5.623
 4398POPC   GL257098  26.807  30.084   5.744
 4398POPC   C1A57099  26.644  29.696   6.037
 4398POPC   D2A57100  26.722  29.793   6.501
 4398POPC   C3A57101  26.550  29.830   6.933
 4398POPC   C4A57102  26.771  29.897   7.336
 4398POPC   C1B57103  26.478  30.189   6.073
 4398POPC   C2B57104  26.356  30.278   6.509
 4398POPC   C3B57105  26.409  30.328   6.944
 4398POPC   C4B57106  26.665  30.413   7.306
 4399POPC   NC357107  31.369  38.224   5.383
 4399POPC   PO457108  31.599  38.769   5.048
 4399POPC   GL157109  31.468  38.746   5.574
 4399POPC   GL257110  31.581  38.417   5.796
 4399POPC   C1A57111  31.451  38.792   6.084
 4399POPC   D2A57112  31.398  38.507   6.417
 4399POPC   C3A57113  31.601  38.400   6.778
 4399POPC   C4A57114  31.619  38.726   7.051
 4399POPC   C1B57115  31.247  38.169   6.080
 4399POPC   C2B57116  31.176  38.079   6.567
 4399POPC   C3B57117  31.170  38.196   7.027
 4399POPC   C4B57118  30.846  38.162   7.341
 4400POPC   NC357119  11.411  25.336   5.462
 4400POPC   PO457120  10.746  25.077   5.544
 4400POPC   GL157121  11.002  25.376   5.828
 4400POPC   GL257122  11.373  25.298   5.962
 4400POPC   C1A57123  11.031  25.532   6.252
 4400POPC   D2A57124  10.996  25.301   6.627
 4400POPC   C3A57125  11.199  25.406   6.984
 4400POPC   C4A57126  11.090  25.142   7.300
 4400POPC   C1B57127  11.516  25.692   6.164
 4400POPC   C2B57128  11.634  25.795   6.584
 4400POPC   C3B57129  11.722  25.520   6.941
 4400POPC   C4B57130  11.530  25.421   7.373
 4401POPC   NC357131   3.705  18.508   5.441
 4401POPC   PO457132   3.194  18.104   5.444
 4401POPC   GL157133   3.390  18.299   5.774
 4401POPC   GL257134   3.644  18.054   5.700
 4401POPC   C1A57135   3.609  18.388   6.178
 4401POPC   D2A57136   3.434  18.442   6.605
 4401POPC   C3A57137   3.710  18.550   6.970
 4401POPC   C4A57138   3.569  18.362   7.313
 4401POPC   C1B57139   3.468  17.911   6.097
 4401POPC   C2B57140   3.449  17.928   6.532
 4401POPC   C3B57141   3.663  18.049   6.885
 4401POPC   C4B57142   3.882  17.977   7.247
 4402POPC   NC357143  43.400  20.742   5.642
 4402POPC   PO457144  43.957  20.638   5.191
 4402POPC   GL157145  43.934  20.636   5.690
 4402POPC   GL257146  43.776  20.357   5.853
 4402POPC   C1A57147  43.849  20.760   6.163
 4402POPC   D2A57148  43.978  20.604   6.592
 4402POPC   C3A57149  43.948  20.811   6.993
 4402POPC   C4A57150  44.147  21.194   7.176
 4402POPC   C1B57151  44.080  20.284   6.191
 4402POPC   C2B57152  44.012  20.098   6.615
 4402POPC   C3B57153  43.864  20.255   7.053
 4402POPC   C4B57154  43.857  20.542   7.434
 4403POPC   NC357155  28.265  10.093   5.293
 4403POPC   PO457156  28.381  10.818   5.434
 4403POPC   GL157157  28.422  10.676   5.869
 4403POPC   GL257158  28.698  10.873   6.014
 4403POPC   C1A57159  28.199  10.425   6.210
 4403POPC   D2A57160  28.245  10.276   6.648
 4403POPC   C3A57161  28.099  10.504   7.023
 4403POPC   C4A57162  28.366  10.731   7.314
 4403POPC   C1B57163  28.370  10.891   6.362
 4403POPC   C2B57164  28.275  10.984   6.816
 4403POPC   C3B57165  27.971  11.001   7.181
 4403POPC   C4B57166  27.968  10.838   7.632
 4404POPC   NC357167  37.163  42.902   5.372
 4404POPC   PO457168  36.757  43.445   5.150
 4404POPC   GL157169  36.908  43.320   5.607
 4404POPC   GL257170  36.708  43.051   5.776
 4404POPC   C1A57171  37.129  43.363   6.029
 4404POPC   D2A57172  37.043  43.284   6.506
 4404POPC   C3A57173  37.181  43.367   6.952
 4404POPC   C4A57174  36.947  43.471   7.383
 4404POPC   C1B57175  36.954  42.878   6.125
 4404POPC   C2B57176  36.854  42.793   6.561
 4404POPC   C3B57177  36.734  43.083   6.889
 4404POPC   C4B57178  36.907  42.990   7.256
 4405POPC   NC357179   7.906  39.503   5.402
 4405POPC   PO457180   8.313  40.029   5.218
 4405POPC   GL157181   8.405  39.941   5.661
 4405POPC   GL257182   8.246  39.642   5.780
 4405POPC   C1A57183   8.316  40.054   6.118
 4405POPC   D2A57184   8.243  40.351   6.487
 4405POPC   C3A57185   8.383  40.258   6.892
 4405POPC   C4A57186   8.263  40.098   7.288
 4405POPC   C1B57187   8.126  39.569   6.232
 4405POPC   C2B57188   8.117  39.715   6.699
 4405POPC   C3B57189   8.112  39.586   7.162
 4405POPC   C4B57190   8.361  39.645   7.543
 4406POPC   NC357191  17.883   1.025   5.635
 4406POPC   PO457192  17.717   1.569   5.313
 4406POPC   GL157193  17.456   1.401   5.689
 4406POPC   GL257194  17.433   1.060   5.839
 4406POPC   C1A57195  17.420   1.426   6.167
 4406POPC   D2A57196  17.667   1.422   6.540
 4406POPC   C3A57197  17.455   1.473   6.931
 4406POPC   C4A57198  17.617   1.586   7.327
 4406POPC   C1B57199  17.670   0.932   6.228
 4406POPC   C2B57200  17.960   0.821   6.554
 4406POPC   C3B57201  17.727   1.019   6.860
 4406POPC   C4B57202  17.521   1.061   7.231
 4407POPC   NC357203   2.585   3.657   5.264
 4407POPC   PO457204   2.949   3.147   5.398
 4407POPC   GL157205   2.674   3.385   5.683
 4407POPC   GL257206   2.876   3.721   5.721
 4407POPC   C1A57207   2.540   3.551   6.082
 4407POPC   D2A57208   2.488   3.449   6.519
 4407POPC   C3A57209   2.745   3.566   6.882
 4407POPC   C4A57210   2.789   3.552   7.313
 4407POPC   C1B57211   2.894   3.924   6.171
 4407POPC   C2B57212   2.992   3.977   6.640
 4407POPC   C3B57213   3.179   3.807   7.063
 4407POPC   C4B57214   3.242   3.617   7.522
 4408POPC   NC357215  41.435   1.479   5.421
 4408POPC   PO457216  42.059   1.305   5.180
 4408POPC   GL157217  41.935   1.250   5.647
 4408POPC   GL257218  41.807   1.534   5.833
 4408POPC   C1A57219  41.859   1.141   6.151
 4408POPC   D2A57220  41.622   1.017   6.582
 4408POPC   C3A57221  41.474   1.177   7.031
 4408POPC   C4A57222  41.185   1.105   7.440
 4408POPC   C1B57223  41.416   1.418   6.124
 4408POPC   C2B57224  41.251   1.398   6.570
 4408POPC   C3B57225  41.261   1.663   6.938
 4408POPC   C4B57226  41.427   1.569   7.369
 4409POPC   NC357227   9.341  20.723   5.394
 4409POPC   PO457228   8.688  20.497   5.356
 4409POPC   GL157229   8.933  20.417   5.721
 4409POPC   GL257230   9.028  20.726   5.796
 4409POPC   C1A57231   9.097  20.397   6.164
 4409POPC   D2A57232   8.977  20.252   6.556
 4409POPC   C3A57233   9.047  20.464   6.932
 4409POPC   C4A57234   9.274  20.475   7.319
 4409POPC   C1B57235   8.871  20.888   6.191
 4409POPC   C2B57236   8.972  20.906   6.604
 4409POPC   C3B57237   8.779  20.885   6.957
 4409POPC   C4B57238   8.909  20.834   7.290
 4410POPC   NC357239  14.133  20.039   5.501
 4410POPC   PO457240  14.332  19.571   5.165
 4410POPC   GL157241  14.280  19.570   5.730
 4410POPC   GL257242  14.040  19.748   5.912
 4410POPC   C1A57243  14.476  19.635   6.188
 4410POPC   D2A57244  14.543  19.949   6.591
 4410POPC   C3A57245  14.648  19.824   7.073
 4410POPC   C4A57246  14.769  19.949   7.527
 4410POPC   C1B57247  14.208  20.056   6.193
 4410POPC   C2B57248  14.107  20.221   6.585
 4410POPC   C3B57249  14.207  20.101   6.989
 4410POPC   C4B57250  14.132  19.706   7.196
 4411POPC   NC357251  42.707  33.678   5.491
 4411POPC   PO457252  42.221  34.019   5.259
 4411POPC   GL157253  42.260  33.933   5.708
 4411POPC   GL257254  42.288  33.602   5.792
 4411POPC   C1A57255  42.067  33.895   6.156
 4411POPC   D2A57256  42.025  33.729   6.572
 4411POPC   C3A57257  42.235  33.927   6.925
 4411POPC   C4A57258  42.281  33.954   7.376
 4411POPC   C1B57259  42.474  33.562   6.216
 4411POPC   C2B57260  42.612  33.694   6.648
 4411POPC   C3B57261  42.705  33.752   7.101
 4411POPC   C4B57262  42.580  33.437   7.388
 4412POPC   NC357263  36.915   7.595   5.359
 4412POPC   PO457264  36.412   7.078   5.304
 4412POPC   GL157265  36.663   7.098   5.741
 4412POPC   GL257266  36.910   7.354   5.824
 4412POPC   C1A57267  36.537   7.141   6.201
 4412POPC   D2A57268  36.372   7.286   6.611
 4412POPC   C3A57269  36.637   7.103   6.926
 4412POPC   C4A57270  37.054   7.221   7.091
 4412POPC   C1B57271  36.760   7.583   6.219
 4412POPC   C2B57272  36.856   7.489   6.645
 4412POPC   C3B57273  36.672   7.620   7.024
 4412POPC   C4B57274  36.743   7.635   7.468
 4413POPC   NC357275  10.050  10.684   5.412
 4413POPC   PO457276   9.416  10.389   5.450
 4413POPC   GL157277   9.673  10.419   5.825
 4413POPC   GL257278   9.946  10.198   5.786
 4413POPC   C1A57279   9.697  10.290   6.270
 4413POPC   D2A57280   9.640  10.251   6.710
 4413POPC   C3A57281   9.692  10.634   6.956
 4413POPC   C4A57282   9.617  10.548   7.377
 4413POPC   C1B57283  10.194  10.217   6.168
 4413POPC   C2B57284  10.157  10.390   6.561
 4413POPC   C3B57285  10.090  10.323   6.968
 4413POPC   C4B57286  10.139  10.645   7.235
 4414POPC   NC357287  20.208  39.317   5.487
 4414POPC   PO457288  20.826  39.010   5.349
 4414POPC   GL157289  20.816  39.149   5.784
 4414POPC   GL257290  20.457  39.079   5.867
 4414POPC   C1A57291  20.781  39.090   6.248
 4414POPC   D2A57292  20.567  39.019   6.606
 4414POPC   C3A57293  20.758  39.188   6.928
 4414POPC   C4A57294  20.792  39.193   7.322
 4414POPC   C1B57295  20.312  39.305   6.263
 4414POPC   C2B57296  20.421  39.505   6.690
 4414POPC   C3B57297  20.274  39.308   7.096
 4414POPC   C4B57298  20.007  39.134   7.437
 4415POPC   NC357299  33.285   2.840   5.361
 4415POPC   PO457300  33.964   2.677   5.222
 4415POPC   GL157301  33.907   2.753   5.673
 4415POPC   GL257302  33.630   2.970   5.752
 4415POPC   C1A57303  34.003   2.771   6.141
 4415POPC   D2A57304  33.808   2.781   6.558
 4415POPC   C3A57305  34.026   2.829   6.956
 4415POPC   C4A57306  33.876   2.622   7.295
 4415POPC   C1B57307  33.462   3.132   6.126
 4415POPC   C2B57308  33.333   3.056   6.541
 4415POPC   C3B57309  33.542   3.061   6.922
 4415POPC   C4B57310  33.474   3.023   7.345
 4416POPC   NC357311  20.114   3.564   5.407
 4416POPC   PO457312  19.438   3.541   5.375
 4416POPC   GL157313  19.717   3.363   5.712
 4416POPC   GL257314  19.888   3.670   5.853
 4416POPC   C1A57315  19.854   3.252   6.164
 4416POPC   D2A57316  19.577   3.233   6.560
 4416POPC   C3A57317  19.550   3.428   6.945
 4416POPC   C4A57318  19.772   3.332   7.353
 4416POPC   C1B57319  20.014   3.729   6.283
 4416POPC   C2B57320  20.012   3.509   6.675
 4416POPC   C3B57321  19.962   3.716   7.064
 4416POPC   C4B57322  20.067   3.720   7.487
 4417POPC   NC357323  12.157  29.624   5.527
 4417POPC   PO457324  12.303  30.277   5.524
 4417POPC   GL157325  11.968  30.061   5.748
 4417POPC   GL257326  11.679  29.808   5.764
 4417POPC   C1A57327  12.034  29.837   6.133
 4417POPC   D2A57328  12.289  29.702   6.456
 4417POPC   C3A57329  12.089  29.800   6.820
 4417POPC   C4A57330  12.061  29.475   7.114
 4417POPC   C1B57331  11.554  30.129   6.100
 4417POPC   C2B57332  11.611  30.318   6.513
 4417POPC   C3B57333  11.473  30.233   6.937
 4417POPC   C4B57334  11.763  30.063   7.241
 4418POPC   NC357335  31.452  10.722   5.580
 4418POPC   PO457336  31.002  11.181   5.257
 4418POPC   GL157337  31.134  11.246   5.690
 4418POPC   GL257338  31.481  11.298   5.715
 4418POPC   C1A57339  31.197  11.479   6.097
 4418POPC   D2A57340  31.264  11.307   6.505
 4418POPC   C3A57341  31.312  11.510   6.887
 4418POPC   C4A57342  31.347  11.266   7.242
 4418POPC   C1B57343  31.624  11.146   6.132
 4418POPC   C2B57344  31.789  11.267   6.539
 4418POPC   C3B57345  31.783  11.292   6.973
 4418POPC   C4B57346  32.050  11.425   7.260
 4419POPC   NC357347  22.544  25.376   5.439
 4419POPC   PO457348  23.077  25.050   5.222
 4419POPC   GL157349  23.036  25.082   5.711
 4419POPC   GL257350  22.738  25.185   5.858
 4419POPC   C1A57351  23.119  25.133   6.192
 4419POPC   D2A57352  23.180  25.403   6.565
 4419POPC   C3A57353  23.026  25.309   6.993
 4419POPC   C4A57354  23.261  25.027   7.266
 4419POPC   C1B57355  22.800  25.541   6.165
 4419POPC   C2B57356  22.853  25.802   6.541
 4419POPC   C3B57357  22.674  25.748   6.942
 4419POPC   C4B57358  22.749  25.614   7.344
 4420POPC   NC357359  31.497  40.583   4.929
 4420POPC   PO457360  31.665  40.904   5.499
 4420POPC   GL157361  31.633  40.775   5.908
 4420POPC   GL257362  31.332  40.554   6.052
 4420POPC   C1A57363  31.535  40.934   6.285
 4420POPC   D2A57364  31.359  40.735   6.594
 4420POPC   C3A57365  31.447  41.008   6.917
 4420POPC   C4A57366  31.632  40.925   7.295
 4420POPC   C1B57367  31.669  40.417   6.261
 4420POPC   C2B57368  31.836  40.516   6.611
 4420POPC   C3B57369  31.612  40.501   6.997
 4420POPC   C4B57370  31.765  40.403   7.389
 4421POPC   NC357371  16.700   1.911   4.983
 4421POPC   PO457372  16.941   2.226   5.564
 4421POPC   GL157373  16.669   2.053   5.883
 4421POPC   GL257374  16.567   1.725   5.780
 4421POPC   C1A57375  16.637   2.110   6.322
 4421POPC   D2A57376  16.564   2.384   6.649
 4421POPC   C3A57377  16.835   2.266   6.979
 4421POPC   C4A57378  16.759   2.060   7.348
 4421POPC   C1B57379  16.464   1.631   6.218
 4421POPC   C2B57380  16.628   1.708   6.659
 4421POPC   C3B57381  16.630   1.626   7.130
 4421POPC   C4B57382  16.512   1.498   7.562
 4422POPC   NC357383   8.673  14.787   5.672
 4422POPC   PO457384   9.031  14.330   5.240
 4422POPC   GL157385   9.075  14.431   5.664
 4422POPC   GL257386   8.773  14.301   5.822
 4422POPC   C1A57387   9.294  14.272   6.019
 4422POPC   D2A57388   9.100  14.089   6.388
 4422POPC   C3A57389   9.241  14.203   6.793
 4422POPC   C4A57390   9.159  14.099   7.217
 4422POPC   C1B57391   8.912  14.533   6.219
 4422POPC   C2B57392   9.025  14.635   6.637
 4422POPC   C3B57393   8.894  14.522   7.016
 4422POPC   C4B57394   8.728  14.799   7.285
 4423POPC   NC357395   6.224  20.294   5.633
 4423POPC   PO457396   5.812  20.668   5.214
 4423POPC   GL157397   5.986  20.744   5.656
 4423POPC   GL257398   5.754  20.657   5.886
 4423POPC   C1A57399   6.198  20.718   6.131
 4423POPC   D2A57400   5.969  20.577   6.531
 4423POPC   C3A57401   5.929  20.653   6.998
 4423POPC   C4A57402   6.013  20.299   7.322
 4423POPC   C1B57403   5.584  20.373   6.211
 4423POPC   C2B57404   5.621  20.137   6.542
 4423POPC   C3B57405   5.537  20.360   6.873
 4423POPC   C4B57406   5.496  20.462   7.265
 4424POPC   NC357407  42.454  17.126   5.446
 4424POPC   PO457408  42.279  17.778   5.258
 4424POPC   GL157409  42.170  17.763   5.728
 4424POPC   GL257410  42.498  17.691   5.863
 4424POPC   C1A57411  42.113  17.571   6.183
 4424POPC   D2A57412  42.351  17.519   6.611
 4424POPC   C3A57413  42.332  17.633   7.065
 4424POPC   C4A57414  42.181  17.544   7.525
 4424POPC   C1B57415  42.649  17.388   6.197
 4424POPC   C2B57416  42.717  17.117   6.578
 4424POPC   C3B57417  42.497  17.129   6.980
 4424POPC   C4B57418  42.615  17.316   7.367
 4425POPC   NC357419  26.617  26.288   5.683
 4425POPC   PO457420  27.122  25.928   5.302
 4425POPC   GL157421  26.911  25.870   5.677
 4425POPC   GL257422  27.077  26.145   5.814
 4425POPC   C1A57423  26.834  25.842   6.143
 4425POPC   D2A57424  26.905  25.603   6.518
 4425POPC   C3A57425  26.807  25.869   6.888
 4425POPC   C4A57426  27.005  25.846   7.302
 4425POPC   C1B57427  27.013  26.373   6.221
 4425POPC   C2B57428  26.902  26.369   6.683
 4425POPC   C3B57429  27.001  26.332   7.134
 4425POPC   C4B57430  27.146  26.299   7.558
 4426POPC   NC357431  42.543   5.694   5.207
 4426POPC   PO457432  42.084   6.242   5.371
 4426POPC   GL157433  42.145   6.020   5.767
 4426POPC   GL257434  42.455   5.815   5.747
 4426POPC   C1A57435  42.316   6.116   6.182
 4426POPC   D2A57436  42.483   5.984   6.570
 4426POPC   C3A57437  42.240   6.018   6.930
 4426POPC   C4A57438  42.277   6.033   7.352
 4426POPC   C1B57439  42.661   5.750   6.147
 4426POPC   C2B57440  42.677   5.513   6.538
 4426POPC   C3B57441  42.568   5.617   6.935
 4426POPC   C4B57442  42.656   5.562   7.339
 4427POPC   NC357443  44.592  22.838   5.522
 4427POPC   PO457444   0.239  23.013   5.467
 4427POPC   GL157445   0.103  23.159   5.863
 4427POPC   GL257446  44.731  23.152   5.936
 4427POPC   C1A57447   0.100  22.976   6.261
 4427POPC   D2A57448  44.871  23.031   6.619
 4427POPC   C3A57449  44.789  22.783   6.975
 4427POPC   C4A57450  44.865  23.130   7.245
 4427POPC   C1B57451  44.452  23.098   6.312
 4427POPC   C2B57452  44.334  22.931   6.709
 4427POPC   C3B57453  44.183  22.808   7.123
 4427POPC   C4B57454  44.446  22.680   7.454
 4428POPC   NC357455  32.428  36.166   5.514
 4428POPC   PO457456  32.039  35.710   5.290
 4428POPC   GL157457  32.026  35.850   5.768
 4428POPC   GL257458  32.210  36.126   5.960
 4428POPC   C1A57459  31.901  35.811   6.197
 4428POPC   D2A57460  32.104  36.024   6.548
 4428POPC   C3A57461  32.066  35.847   6.969
 4428POPC   C4A57462  32.289  36.093   7.246
 4428POPC   C1B57463  32.090  36.440   6.242
 4428POPC   C2B57464  32.258  36.523   6.622
 4428POPC   C3B57465  32.198  36.553   7.041
 4428POPC   C4B57466  32.463  36.577   7.375
 4429POPC   NC357467   2.928  38.021   5.353
 4429POPC   PO457468   2.596  37.469   5.484
 4429POPC   GL157469   2.758  37.667   5.839
 4429POPC   GL257470   2.787  38.043   5.846
 4429POPC   C1A57471   2.673  37.757   6.257
 4429POPC   D2A57472   2.780  37.596   6.623
 4429POPC   C3A57473   2.711  37.925   6.912
 4429POPC   C4A57474   2.598  37.810   7.331
 4429POPC   C1B57475   3.115  38.014   6.159
 4429POPC   C2B57476   3.178  37.907   6.583
 4429POPC   C3B57477   3.198  38.008   7.031
 4429POPC   C4B57478   2.996  38.143   7.399
 4430POPC   NC357479  38.930  41.970   5.246
 4430POPC   PO457480  39.081  42.653   5.474
 4430POPC   GL157481  39.101  42.234   5.677
 4430POPC   GL257482  39.470  42.119   5.642
 4430POPC   C1A57483  39.008  42.233   6.126
 4430POPC   D2A57484  39.176  42.589   6.419
 4430POPC   C3A57485  39.128  42.434   6.848
 4430POPC   C4A57486  38.995  42.641   7.228
 4430POPC   C1B57487  39.525  42.226   6.089
 4430POPC   C2B57488  39.363  42.122   6.497
 4430POPC   C3B57489  39.432  42.022   6.888
 4430POPC   C4B57490  39.281  42.199   7.276
 4431POPC   NC357491  43.847  29.351   5.484
 4431POPC   PO457492  44.251  28.821   5.484
 4431POPC   GL157493  44.071  29.087   5.842
 4431POPC   GL257494  44.245  29.435   5.778
 4431POPC   C1A57495  43.706  29.223   6.157
 4431POPC   D2A57496  43.473  29.306   6.569
 4431POPC   C3A57497  43.671  29.162   6.955
 4431POPC   C4A57498  44.054  29.036   7.193
 4431POPC   C1B57499  44.133  29.516   6.179
 4431POPC   C2B57500  43.983  29.374   6.571
 4431POPC   C3B57501  44.097  29.491   6.968
 4431POPC   C4B57502  44.106  29.818   7.267
 4432POPC   NC357503  13.721  20.932   5.241
 4432POPC   PO457504  13.940  20.444   5.479
 4432POPC   GL157505  13.689  20.634   5.761
 4432POPC   GL257506  13.801  20.947   5.730
 4432POPC   C1A57507  13.500  20.549   6.156
 4432POPC   D2A57508  13.652  20.440   6.569
 4432POPC   C3A57509  13.557  20.411   7.002
 4432POPC   C4A57510  13.830  20.238   7.309
 4432POPC   C1B57511  13.799  20.987   6.148
 4432POPC   C2B57512  13.525  20.934   6.491
 4432POPC   C3B57513  13.630  20.942   6.903
 4432POPC   C4B57514  13.753  20.795   7.288
 4433POPC   NC357515  17.123   1.592   5.239
 4433POPC   PO457516  16.336   1.505   5.345
 4433POPC   GL157517  16.590   1.212   5.651
 4433POPC   GL257518  16.948   1.255   5.788
 4433POPC   C1A57519  16.601   1.056   6.096
 4433POPC   D2A57520  16.765   1.237   6.486
 4433POPC   C3A57521  16.513   1.230   6.842
 4433POPC   C4A57522  16.620   1.119   7.254
 4433POPC   C1B57523  17.103   1.012   6.186
 4433POPC   C2B57524  17.276   1.080   6.590
 4433POPC   C3B57525  17.064   1.111   6.979
 4433POPC   C4B57526  17.074   0.937   7.421
 4434POPC   NC357527  43.572  10.592   5.466
 4434POPC   PO457528  44.087  10.219   5.575
 4434POPC   GL157529  43.805  10.322   5.903
 4434POPC   GL257530  43.543  10.587   5.971
 4434POPC   C1A57531  43.942  10.463   6.299
 4434POPC   D2A57532  44.115  10.508   6.705
 4434POPC   C3A57533  43.794  10.401   7.019
 4434POPC   C4A57534  44.034  10.433   7.384
 4434POPC   C1B57535  43.889  10.894   6.047
 4434POPC   C2B57536  43.956  11.023   6.478
 4434POPC   C3B57537  43.694  10.888   6.828
 4434POPC   C4B57538  43.679  10.840   7.268
 4435POPC   NC357539   1.557   1.401   5.421
 4435POPC   PO457540   0.938   1.045   5.365
 4435POPC   GL157541   1.091   0.945   5.779
 4435POPC   GL257542   1.416   1.141   5.839
 4435POPC   C1A57543   1.064   1.057   6.206
 4435POPC   D2A57544   1.299   1.219   6.505
 4435POPC   C3A57545   1.025   1.229   6.813
 4435POPC   C4A57546   1.115   1.324   7.198
 4435POPC   C1B57547   1.626   1.423   6.172
 4435POPC   C2B57548   1.475   1.711   6.485
 4435POPC   C3B57549   1.443   1.563   6.885
 4435POPC   C4B57550   1.709   1.538   7.218
 4436POPC   NC357551   3.985  42.702   5.442
 4436POPC   PO457552   4.432  42.269   5.140
 4436POPC   GL157553   4.439  42.482   5.562
 4436POPC   GL257554   4.542  42.213   5.732
 4436POPC   C1A57555   4.314  42.553   6.036
 4436POPC   D2A57556   4.079  42.546   6.423
 4436POPC   C3A57557   4.244  42.434   6.813
 4436POPC   C4A57558   4.158  42.164   7.140
 4436POPC   C1B57559   4.769  42.333   6.114
 4436POPC   C2B57560   4.701  42.427   6.570
 4436POPC   C3B57561   4.676  42.221   7.020
 4436POPC   C4B57562   4.567  42.216   7.482
 4437POPC   NC357563  37.799  34.195   5.266
 4437POPC   PO457564  37.520  34.803   5.481
 4437POPC   GL157565  37.708  34.565   5.870
 4437POPC   GL257566  37.659  34.216   5.861
 4437POPC   C1A57567  37.805  34.442   6.328
 4437POPC   D2A57568  37.640  34.492   6.742
 4437POPC   C3A57569  37.782  34.710   7.116
 4437POPC   C4A57570  37.499  34.682   7.487
 4437POPC   C1B57571  38.089  34.095   6.067
 4437POPC   C2B57572  38.212  34.126   6.517
 4437POPC   C3B57573  38.041  34.255   6.920
 4437POPC   C4B57574  37.801  34.230   7.304
 4438POPC   NC357575  15.253  43.042   5.353
 4438POPC   PO457576  14.563  43.077   5.214
 4438POPC   GL157577  14.856  43.110   5.666
 4438POPC   GL257578  15.210  43.193   5.829
 4438POPC   C1A57579  14.857  42.940   6.109
 4438POPC   D2A57580  14.931  43.139   6.521
 4438POPC   C3A57581  14.885  42.938   6.887
 4438POPC   C4A57582  15.007  43.174   7.218
 4438POPC   C1B57583  15.366  43.027   6.226
 4438POPC   C2B57584  15.314  42.798   6.590
 4438POPC   C3B57585  15.374  42.880   7.013
 4438POPC   C4B57586  15.702  42.932   7.260
 4439POPC   NC357587  20.342   2.222   5.455
 4439POPC   PO457588  20.545   1.541   5.548
 4439POPC   GL157589  20.691   1.798   5.857
 4439POPC   GL257590  20.410   2.033   5.908
 4439POPC   C1A57591  20.688   1.814   6.301
 4439POPC   D2A57592  20.325   1.993   6.471
 4439POPC   C3A57593  20.426   2.151   6.871
 4439POPC   C4A57594  20.565   1.999   7.252
 4439POPC   C1B57595  20.675   2.289   6.098
 4439POPC   C2B57596  20.766   2.289   6.513
 4439POPC   C3B57597  20.846   2.453   6.913
 4439POPC   C4B57598  20.677   2.509   7.307
 4440POPC   NC357599  31.440  26.852   5.253
 4440POPC   PO457600  31.030  26.560   5.621
 4440POPC   GL157601  31.266  26.568   5.965
 4440POPC   GL257602  31.508  26.839   5.884
 4440POPC   C1A57603  31.538  26.398   6.266
 4440POPC   D2A57604  31.756  26.606   6.567
 4440POPC   C3A57605  31.470  26.728   6.874
 4440POPC   C4A57606  31.587  26.759   7.279
 4440POPC   C1B57607  31.427  26.929   6.323
 4440POPC   C2B57608  31.141  27.057   6.662
 4440POPC   C3B57609  31.062  27.235   7.045
 4440POPC   C4B57610  31.224  27.084   7.458
 4441POPC   NC357611  27.735  28.624   5.534
 4441POPC   PO457612  28.049  27.952   5.488
 4441POPC   GL157613  27.891  28.227   5.841
 4441POPC   GL257614  27.528  28.292   5.910
 4441POPC   C1A57615  27.882  28.485   6.249
 4441POPC   D2A57616  27.627  28.533   6.634
 4441POPC   C3A57617  27.756  28.475   7.090
 4441POPC   C4A57618  27.564  28.281   7.482
 4441POPC   C1B57619  27.416  28.726   6.115
 4441POPC   C2B57620  27.429  29.004   6.500
 4441POPC   C3B57621  27.360  28.863   6.933
 4441POPC   C4B57622  27.368  28.759   7.370
 4442POPC   NC357623  22.913  17.708   5.170
 4442POPC   PO457624  22.740  17.312   5.685
 4442POPC   GL157625  22.990  17.566   5.909
 4442POPC   GL257626  23.017  17.914   5.860
 4442POPC   C1A57627  23.127  17.551   6.321
 4442POPC   D2A57628  22.910  17.595   6.697
 4442POPC   C3A57629  23.153  17.636   7.039
 4442POPC   C4A57630  23.164  17.362   7.375
 4442POPC   C1B57631  22.737  17.896   6.213
 4442POPC   C2B57632  22.372  17.849   6.478
 4442POPC   C3B57633  22.472  17.745   6.899
 4442POPC   C4B57634  22.707  17.703   7.280
 4443POPC   NC357635  25.136  23.878   5.450
 4443POPC   PO457636  25.759  23.914   5.649
 4443POPC   GL157637  25.367  23.971   5.899
 4443POPC   GL257638  25.152  23.648   5.900
 4443POPC   C1A57639  25.325  23.866   6.353
 4443POPC   D2A57640  25.545  23.993   6.751
 4443POPC   C3A57641  25.345  23.786   7.067
 4443POPC   C4A57642  24.925  23.747   7.178
 4443POPC   C1B57643  24.958  23.419   6.205
 4443POPC   C2B57644  24.983  23.522   6.634
 4443POPC   C3B57645  25.067  23.289   6.982
 4443POPC   C4B57646  24.877  23.190   7.339
 4444POPC   NC357647  32.642  21.448   5.435
 4444POPC   PO457648  31.994  21.095   5.236
 4444POPC   GL157649  32.124  21.294   5.641
 4444POPC   GL257650  32.390  21.054   5.734
 4444POPC   C1A57651  32.264  21.457   6.064
 4444POPC   D2A57652  32.415  21.418   6.498
 4444POPC   C3A57653  32.207  21.444   6.925
 4444POPC   C4A57654  32.412  21.447   7.326
 4444POPC   C1B57655  32.640  21.099   6.119
 4444POPC   C2B57656  32.823  21.072   6.523
 4444POPC   C3B57657  32.650  21.194   6.917
 4444POPC   C4B57658  32.519  20.958   7.296
 4445POPC   NC357659   6.939  11.485   5.552
 4445POPC   PO457660   6.335  11.260   5.524
 4445POPC   GL157661   6.606  11.178   5.880
 4445POPC   GL257662   6.937  11.068   5.882
 4445POPC   C1A57663   6.632  11.096   6.318
 4445POPC   D2A57664   6.397  11.036   6.676
 4445POPC   C3A57665   6.588  11.300   6.974
 4445POPC   C4A57666   6.323  11.348   7.351
 4445POPC   C1B57667   7.053  11.391   6.194
 4445POPC   C2B57668   6.949  11.637   6.584
 4445POPC   C3B57669   7.049  11.552   7.009
 4445POPC   C4B57670   7.065  11.091   7.127
 4446POPC   NC357671  20.301  44.134   5.452
 4446POPC   PO457672  20.634  43.531   5.375
 4446POPC   GL157673  20.602  43.838   5.715
 4446POPC   GL257674  20.629  43.647   5.964
 4446POPC   C1A57675  20.653  44.129   6.084
 4446POPC   D2A57676  20.680  43.881   6.455
 4446POPC   C3A57677  20.637  44.059   6.860
 4446POPC   C4A57678  20.545  43.771   7.141
 4446POPC   C1B57679  20.388  43.418   6.271
 4446POPC   C2B57680  20.419  43.428   6.664
 4446POPC   C3B57681  20.175  43.436   6.988
 4446POPC   C4B57682  20.327  43.377   7.331
 4447POPC   NC357683  10.189  39.646   5.448
 4447POPC   PO457684  10.799  39.863   5.183
 4447POPC   GL157685  10.658  39.885   5.644
 4447POPC   GL257686  10.841  40.101   5.893
 4447POPC   C1A57687  10.338  39.995   6.006
 4447POPC   D2A57688  10.226  40.245   6.404
 4447POPC   C3A57689  10.385  40.050   6.808
 4447POPC   C4A57690  10.263  39.735   7.145
 4447POPC   C1B57691  10.724  40.039   6.345
 4447POPC   C2B57692  10.922  40.050   6.750
 4447POPC   C3B57693  10.752  39.898   7.153
 4447POPC   C4B57694  10.717  40.136   7.554
 4448POPC   NC357695  36.399  17.011   5.429
 4448POPC   PO457696  35.768  16.858   5.648
 4448POPC   GL157697  36.163  16.882   5.868
 4448POPC   GL257698  36.393  16.599   5.713
 4448POPC   C1A57699  36.110  16.822   6.312
 4448POPC   D2A57700  35.860  16.631   6.626
 4448POPC   C3A57701  35.969  16.819   7.016
 4448POPC   C4A57702  36.189  17.158   7.207
 4448POPC   C1B57703  36.480  16.556   6.111
 4448POPC   C2B57704  36.334  16.345   6.472
 4448POPC   C3B57705  36.206  16.359   6.891
 4448POPC   C4B57706  36.467  16.644   7.152
 4449POPC   NC357707   9.240  31.519   5.442
 4449POPC   PO457708   8.593  31.292   5.511
 4449POPC   GL157709   8.708  31.574   5.828
 4449POPC   GL257710   9.075  31.662   5.892
 4449POPC   C1A57711   8.721  31.571   6.264
 4449POPC   D2A57712   8.949  31.559   6.622
 4449POPC   C3A57713   8.701  31.504   6.986
 4449POPC   C4A57714   8.886  31.225   7.257
 4449POPC   C1B57715   9.168  31.885   6.266
 4449POPC   C2B57716   9.407  31.826   6.665
 4449POPC   C3B57717   9.279  31.574   7.029
 4449POPC   C4B57718   9.055  31.734   7.331
 4450POPC   NC357719  19.491  42.780   5.420
 4450POPC   PO457720  19.804  42.196   5.553
 4450POPC   GL157721  19.852  42.263   5.908
 4450POPC   GL257722  19.774  41.935   5.974
 4450POPC   C1A57723  19.742  42.575   6.163
 4450POPC   D2A57724  19.814  42.713   6.552
 4450POPC   C3A57725  19.726  42.473   6.944
 4450POPC   C4A57726  19.710  42.627   7.362
 4450POPC   C1B57727  19.775  42.090   6.374
 4450POPC   C2B57728  19.781  41.968   6.759
 4450POPC   C3B57729  20.081  42.047   6.995
 4450POPC   C4B57730  19.947  42.167   7.333
 4451POPC   NC357731   8.694  38.926   5.431
 4451POPC   PO457732   9.118  39.503   5.233
 4451POPC   GL157733   9.111  39.219   5.569
 4451POPC   GL257734   9.290  39.449   5.736
 4451POPC   C1A57735   8.956  39.198   6.032
 4451POPC   D2A57736   8.917  39.075   6.456
 4451POPC   C3A57737   8.880  39.238   6.858
 4451POPC   C4A57738   9.048  39.087   7.216
 4451POPC   C1B57739   9.243  39.659   6.109
 4451POPC   C2B57740   9.046  39.580   6.485
 4451POPC   C3B57741   9.336  39.454   6.794
 4451POPC   C4B57742   9.341  39.554   7.200
 4452POPC   NC357743   1.826   6.382   5.674
 4452POPC   PO457744   1.785   5.845   5.165
 4452POPC   GL157745   2.032   5.917   5.610
 4452POPC   GL257746   1.829   5.874   5.891
 4452POPC   C1A57747   2.265   5.997   6.071
 4452POPC   D2A57748   2.350   5.772   6.439
 4452POPC   C3A57749   2.248   5.741   6.870
 4452POPC   C4A57750   2.345   6.047   7.154
 4452POPC   C1B57751   1.791   6.103   6.267
 4452POPC   C2B57752   1.981   6.111   6.653
 4452POPC   C3B57753   1.849   6.029   7.076
 4452POPC   C4B57754   2.017   5.854   7.486
 4453POPC   NC357755  33.938  30.315   5.584
 4453POPC   PO457756  33.624  30.884   5.329
 4453POPC   GL157757  33.633  30.693   5.745
 4453POPC   GL257758  33.977  30.789   5.847
 4453POPC   C1A57759  33.595  30.556   6.187
 4453POPC   D2A57760  33.883  30.683   6.518
 4453POPC   C3A57761  33.811  30.584   6.952
 4453POPC   C4A57762  33.838  30.669   7.392
 4453POPC   C1B57763  34.206  30.972   6.223
 4453POPC   C2B57764  34.280  30.975   6.692
 4453POPC   C3B57765  34.223  30.929   7.152
 4453POPC   C4B57766  34.171  31.009   7.628
 4454POPC   NC357767  20.937   6.989   5.371
 4454POPC   PO457768  20.597   7.618   5.268
 4454POPC   GL157769  20.654   7.339   5.616
 4454POPC   GL257770  20.334   7.254   5.692
 4454POPC   C1A57771  20.694   7.427   6.062
 4454POPC   D2A57772  20.847   7.525   6.465
 4454POPC   C3A57773  20.960   7.189   6.754
 4454POPC   C4A57774  20.911   7.188   7.231
 4454POPC   C1B57775  20.342   7.051   6.095
 4454POPC   C2B57776  20.464   7.180   6.505
 4454POPC   C3B57777  20.509   7.365   6.900
 4454POPC   C4B57778  20.411   7.188   7.311
 4455POPC   NC357779  36.171  34.259   5.494
 4455POPC   PO457780  36.114  34.904   5.304
 4455POPC   GL157781  36.118  34.821   5.768
 4455POPC   GL257782  36.336  34.568   5.895
 4455POPC   C1A57783  35.992  34.815   6.218
 4455POPC   D2A57784  35.912  34.514   6.570
 4455POPC   C3A57785  36.215  34.584   6.901
 4455POPC   C4A57786  36.088  34.766   7.269
 4455POPC   C1B57787  36.408  34.507   6.344
 4455POPC   C2B57788  36.303  34.145   6.612
 4455POPC   C3B57789  36.012  34.106   6.930
 4455POPC   C4B57790  35.944  34.289   7.323
 4456POPC   NC357791  39.891  24.259   5.585
 4456POPC   PO457792  40.337  24.732   5.313
 4456POPC   GL157793  40.255  24.613   5.779
 4456POPC   GL257794  40.343  24.270   5.884
 4456POPC   C1A57795  39.936  24.554   6.151
 4456POPC   D2A57796  39.690  24.664   6.490
 4456POPC   C3A57797  39.891  24.716   6.899
 4456POPC   C4A57798  39.927  24.402   7.191
 4456POPC   C1B57799  40.347  24.321   6.343
 4456POPC   C2B57800  40.340  24.505   6.750
 4456POPC   C3B57801  40.398  24.627   7.181
 4456POPC   C4B57802  40.410  24.380   7.572
 4457POPC   NC357803  35.087  38.962   5.545
 4457POPC   PO457804  35.562  39.267   5.321
 4457POPC   GL157805  35.458  39.341   5.785
 4457POPC   GL257806  35.101  39.270   5.950
 4457POPC   C1A57807  35.452  39.561   6.202
 4457POPC   D2A57808  35.118  39.390   6.464
 4457POPC   C3A57809  35.117  39.219   6.892
 4457POPC   C4A57810  35.416  39.312   7.200
 4457POPC   C1B57811  35.421  39.043   6.209
 4457POPC   C2B57812  35.559  39.092   6.641
 4457POPC   C3B57813  35.694  38.914   7.034
 4457POPC   C4B57814  35.503  38.754   7.352
 4458POPC   NC357815  22.199  15.613   5.430
 4458POPC   PO457816  22.303  14.951   5.495
 4458POPC   GL157817  22.330  15.009   5.899
 4458POPC   GL257818  22.127  15.288   5.837
 4458POPC   C1A57819  22.138  15.063   6.315
 4458POPC   D2A57820  22.103  15.219   6.729
 4458POPC   C3A57821  22.050  14.963   7.097
 4458POPC   C4A57822  22.372  14.740   7.284
 4458POPC   C1B57823  22.376  15.500   6.117
 4458POPC   C2B57824  22.503  15.500   6.523
 4458POPC   C3B57825  22.384  15.601   6.914
 4458POPC   C4B57826  22.046  15.459   7.185
 4459POPC   NC357827  44.380  15.409   5.475
 4459POPC   PO457828  44.822  15.025   5.316
 4459POPC   GL157829  44.944  15.191   5.751
 4459POPC   GL257830  44.635  15.311   5.905
 4459POPC   C1A57831  45.000  15.156   6.231
 4459POPC   D2A57832  44.704  15.251   6.591
 4459POPC   C3A57833  44.821  15.142   7.025
 4459POPC   C4A57834  44.823  14.817   7.323
 4459POPC   C1B57835  44.324  15.469   6.213
 4459POPC   C2B57836  44.260  15.525   6.662
 4459POPC   C3B57837  44.335  15.254   7.000
 4459POPC   C4B57838  44.459  15.225   7.454
 4460POPC   NC357839  14.711  34.527   5.534
 4460POPC   PO457840  14.043  34.449   5.542
 4460POPC   GL157841  14.243  34.687   5.864
 4460POPC   GL257842  14.591  34.787   5.971
 4460POPC   C1A57843  14.094  34.668   6.277
 4460POPC   D2A57844  14.044  34.474   6.669
 4460POPC   C3A57845  14.196  34.803   6.941
 4460POPC   C4A57846  14.558  34.878   7.206
 4460POPC   C1B57847  14.533  34.396   6.173
 4460POPC   C2B57848  14.686  34.242   6.518
 4460POPC   C3B57849  14.635  34.525   6.822
 4460POPC   C4B57850  14.441  34.394   7.161
 4461POPC   NC357851   7.138  13.696   5.327
 4461POPC   PO457852   7.744  13.393   5.368
 4461POPC   GL157853   7.437  13.445   5.705
 4461POPC   GL257854   7.456  13.777   5.726
 4461POPC   C1A57855   7.352  13.545   6.164
 4461POPC   D2A57856   7.333  13.752   6.576
 4461POPC   C3A57857   7.190  13.454   6.893
 4461POPC   C4A57858   7.073  13.181   7.237
 4461POPC   C1B57859   7.818  13.678   5.979
 4461POPC   C2B57860   7.819  13.655   6.435
 4461POPC   C3B57861   7.709  13.496   6.859
 4461POPC   C4B57862   7.494  13.601   7.275
 4462POPC   NC357863  38.703  35.530   5.400
 4462POPC   PO457864  38.231  35.022   5.313
 4462POPC   GL157865  38.515  35.131   5.685
 4462POPC   GL257866  38.388  35.450   5.790
 4462POPC   C1A57867  38.478  35.075   6.167
 4462POPC   D2A57868  38.290  35.185   6.582
 4462POPC   C3A57869  38.507  35.242   6.972
 4462POPC   C4A57870  38.779  35.000   7.248
 4462POPC   C1B57871  38.604  35.591   6.141
 4462POPC   C2B57872  38.665  35.808   6.525
 4462POPC   C3B57873  38.829  35.741   6.917
 4462POPC   C4B57874  38.809  35.523   7.285
 4463POPC   NC357875   0.002  44.503   5.455
 4463POPC   PO457876  44.332  44.829   5.477
 4463POPC   GL157877  44.523  44.543   5.729
 4463POPC   GL257878  44.244  44.531   5.922
 4463POPC   C1A57879  44.728  44.411   6.127
 4463POPC   D2A57880  44.809  44.237   6.567
 4463POPC   C3A57881  44.980  44.575   6.841
 4463POPC   C4A57882  44.905  44.723   7.277
 4463POPC   C1B57883  44.407  44.895   6.143
 4463POPC   C2B57884  44.614  44.885   6.534
 4463POPC   C3B57885  44.523  44.806   6.940
 4463POPC   C4B57886  44.474   0.041   7.276
 4464POPC   NC357887  17.919   5.716   5.532
 4464POPC   PO457888  18.414   6.127   5.425
 4464POPC   GL157889  18.241   6.040   5.804
 4464POPC   GL257890  18.388   5.717   5.775
 4464POPC   C1A57891  18.141   5.852   6.212
 4464POPC   D2A57892  18.396   5.839   6.576
 4464POPC   C3A57893  18.230   5.713   6.980
 4464POPC   C4A57894  17.864   5.891   7.152
 4464POPC   C1B57895  18.672   5.905   6.110
 4464POPC   C2B57896  18.794   6.193   6.455
 4464POPC   C3B57897  18.677   6.134   6.877
 4464POPC   C4B57898  18.534   6.006   7.280
 4465POPC   NC357899   5.433  33.233   5.464
 4465POPC   PO457900   4.902  32.848   5.259
 4465POPC   GL157901   4.902  33.006   5.749
 4465POPC   GL257902   5.041  33.342   5.783
 4465POPC   C1A57903   4.958  33.016   6.253
 4465POPC   D2A57904   4.839  33.081   6.721
 4465POPC   C3A57905   5.006  33.021   7.139
 4465POPC   C4A57906   5.430  32.878   7.194
 4465POPC   C1B57907   5.241  33.438   6.181
 4465POPC   C2B57908   4.902  33.526   6.467
 4465POPC   C3B57909   4.939  33.575   6.897
 4465POPC   C4B57910   5.085  33.589   7.284
 4466POPC   NC357911  10.953   8.945   5.520
 4466POPC   PO457912  11.562   9.226   5.508
 4466POPC   GL157913  11.424   8.971   5.826
 4466POPC   GL257914  11.200   9.214   5.912
 4466POPC   C1A57915  11.448   8.798   6.214
 4466POPC   D2A57916  11.526   9.079   6.532
 4466POPC   C3A57917  11.513   8.929   6.925
 4466POPC   C4A57918  11.434   9.047   7.333
 4466POPC   C1B57919  10.958   8.942   6.175
 4466POPC   C2B57920  10.976   8.992   6.595
 4466POPC   C3B57921  11.054   9.191   6.966
 4466POPC   C4B57922  10.992   8.852   7.239
 4467POPC   NC357923  11.683  12.084   5.464
 4467POPC   PO457924  11.082  11.657   5.552
 4467POPC   GL157925  11.207  11.803   5.916
 4467POPC   GL257926  11.369  12.100   5.862
 4467POPC   C1A57927  11.105  11.973   6.295
 4467POPC   D2A57928  11.351  11.951   6.628
 4467POPC   C3A57929  11.082  12.027   6.972
 4467POPC   C4A57930  11.261  12.044   7.351
 4467POPC   C1B57931  11.433  12.353   6.232
 4467POPC   C2B57932  11.591  12.413   6.596
 4467POPC   C3B57933  11.481  12.340   6.968
 4467POPC   C4B57934  11.530  12.470   7.328
 4468POPC   NC357935   9.411   5.346   5.412
 4468POPC   PO457936   9.926   4.876   5.320
 4468POPC   GL157937   9.777   5.063   5.687
 4468POPC   GL257938  10.116   5.030   5.801
 4468POPC   C1A57939   9.684   5.093   6.160
 4468POPC   D2A57940   9.573   4.887   6.576
 4468POPC   C3A57941   9.623   5.107   6.979
 4468POPC   C4A57942   9.266   5.095   7.262
 4468POPC   C1B57943  10.182   5.067   6.216
 4468POPC   C2B57944  10.034   5.092   6.607
 4468POPC   C3B57945  10.111   5.381   6.930
 4468POPC   C4B57946  10.066   5.157   7.285
 4469POPC   NC357947   6.792  31.079   5.311
 4469POPC   PO457948   6.916  30.386   5.448
 4469POPC   GL157949   6.757  30.739   5.714
 4469POPC   GL257950   6.474  30.675   5.916
 4469POPC   C1A57951   6.806  30.986   6.121
 4469POPC   D2A57952   6.900  30.839   6.547
 4469POPC   C3A57953   6.555  30.752   6.814
 4469POPC   C4A57954   6.527  30.913   7.238
 4469POPC   C1B57955   6.601  30.472   6.311
 4469POPC   C2B57956   6.848  30.330   6.678
 4469POPC   C3B57957   6.690  30.318   7.104
 4469POPC   C4B57958   6.352  30.442   7.354
 4470POPC   NC357959   7.108  17.641   5.510
 4470POPC   PO457960   6.537  17.653   5.250
 4470POPC   GL157961   6.509  17.409   5.663
 4470POPC   GL257962   6.787  17.538   5.883
 4470POPC   C1A57963   6.483  17.187   6.083
 4470POPC   D2A57964   6.589  17.362   6.449
 4470POPC   C3A57965   6.535  17.220   6.865
 4470POPC   C4A57966   6.767  17.354   7.246
 4470POPC   C1B57967   6.470  17.755   6.117
 4470POPC   C2B57968   6.377  17.798   6.560
 4470POPC   C3B57969   6.594  17.727   6.934
 4470POPC   C4B57970   6.679  17.881   7.344
 4471POPC   NC357971  41.384  22.352   5.300
 4471POPC   PO457972  41.779  21.864   5.408
 4471POPC   GL157973  41.435  21.965   5.731
 4471POPC   GL257974  41.349  22.333   5.800
 4471POPC   C1A57975  41.424  21.872   6.170
 4471POPC   D2A57976  41.728  22.013   6.477
 4471POPC   C3A57977  41.522  22.047   6.876
 4471POPC   C4A57978  41.638  22.054   7.308
 4471POPC   C1B57979  41.626  22.407   6.155
 4471POPC   C2B57980  41.714  22.507   6.616
 4471POPC   C3B57981  41.620  22.506   7.075
 4471POPC   C4B57982  41.303  22.480   7.450
 4472POPC   NC357983   2.098  20.890   5.372
 4472POPC   PO457984   1.775  21.397   5.206
 4472POPC   GL157985   1.891  21.269   5.656
 4472POPC   GL257986   2.087  21.499   5.858
 4472POPC   C1A57987   1.950  21.051   6.086
 4472POPC   D2A57988   2.143  21.022   6.499
 4472POPC   C3A57989   2.054  21.313   6.833
 4472POPC   C4A57990   2.031  21.054   7.190
 4472POPC   C1B57991   2.037  21.687   6.276
 4472POPC   C2B57992   2.280  21.824   6.645
 4472POPC   C3B57993   2.246  21.780   7.067
 4472POPC   C4B57994   1.957  21.820   7.345
 4473POPC   NC357995  13.973  13.394   4.882
 4473POPC   PO457996  13.443  13.523   5.389
 4473POPC   GL157997  13.609  13.564   5.775
 4473POPC   GL257998  13.774  13.262   5.758
 4473POPC   C1A57999  13.438  13.690   6.199
 4473POPC   D2A58000  13.507  13.943   6.588
 4473POPC   C3A58001  13.516  13.702   6.985
 4473POPC   C4A58002  13.620  13.497   7.387
 4473POPC   C1B58003  13.854  13.368   6.181
 4473POPC   C2B58004  13.710  13.196   6.558
 4473POPC   C3B58005  13.679  13.184   6.989
 4473POPC   C4B58006  13.411  13.036   7.312
 4474POPC   NC358007  27.939  11.923   5.471
 4474POPC   PO458008  27.349  12.188   5.329
 4474POPC   GL158009  27.542  12.127   5.737
 4474POPC   GL258010  27.663  12.396   5.979
 4474POPC   C1A58011  27.611  11.891   6.108
 4474POPC   D2A58012  27.574  12.098   6.520
 4474POPC   C3A58013  27.536  11.885   6.919
 4474POPC   C4A58014  27.521  12.145   7.278
 4474POPC   C1B58015  28.001  12.184   6.258
 4474POPC   C2B58016  28.041  11.995   6.674
 4474POPC   C3B58017  28.024  12.072   7.120
 4474POPC   C4B58018  27.985  11.929   7.528
 4475POPC   NC358019   3.043   1.364   5.469
 4475POPC   PO458020   2.649   0.836   5.449
 4475POPC   GL158021   2.688   1.205   5.789
 4475POPC   GL258022   2.977   1.081   5.888
 4475POPC   C1A58023   2.831   1.318   6.288
 4475POPC   D2A58024   2.757   1.386   6.693
 4475POPC   C3A58025   2.363   1.375   6.909
 4475POPC   C4A58026   2.563   1.397   7.318
 4475POPC   C1B58027   2.566   0.923   6.161
 4475POPC   C2B58028   2.480   0.889   6.609
 4475POPC   C3B58029   2.687   0.992   7.003
 4475POPC   C4B58030   2.852   0.980   7.399
 4476POPC   NC358031   4.661  41.139   5.485
 4476POPC   PO458032   5.341  41.087   5.384
 4476POPC   GL158033   5.275  40.845   5.751
 4476POPC   GL258034   4.994  41.024   5.848
 4476POPC   C1A58035   5.161  40.617   6.149
 4476POPC   D2A58036   5.399  40.368   6.435
 4476POPC   C3A58037   5.236  40.443   6.822
 4476POPC   C4A58038   5.418  40.664   7.128
 4476POPC   C1B58039   4.872  41.029   6.262
 4476POPC   C2B58040   5.051  40.949   6.626
 4476POPC   C3B58041   4.961  40.919   7.043
 4476POPC   C4B58042   4.887  41.214   7.367
 4477POPC   NC358043  39.057   8.071   5.565
 4477POPC   PO458044  39.330   7.470   5.378
 4477POPC   GL158045  39.296   7.559   5.821
 4477POPC   GL258046  39.622   7.480   5.945
 4477POPC   C1A58047  39.058   7.673   6.220
 4477POPC   D2A58048  38.809   7.481   6.573
 4477POPC   C3A58049  38.962   7.538   6.988
 4477POPC   C4A58050  39.210   7.187   7.174
 4477POPC   C1B58051  39.537   7.322   6.356
 4477POPC   C2B58052  39.369   7.559   6.679
 4477POPC   C3B58053  39.479   7.613   7.089
 4477POPC   C4B58054  39.891   7.570   7.286
 4478POPC   NC358055  29.055  31.938   5.408
 4478POPC   PO458056  28.938  32.596   5.393
 4478POPC   GL158057  29.256  32.451   5.742
 4478POPC   GL258058  29.249  32.085   5.882
 4478POPC   C1A58059  29.390  32.478   6.203
 4478POPC   D2A58060  29.165  32.378   6.583
 4478POPC   C3A58061  29.231  32.347   7.027
 4478POPC   C4A58062  28.824  32.441   7.234
 4478POPC   C1B58063  29.388  31.978   6.314
 4478POPC   C2B58064  29.296  31.906   6.745
 4478POPC   C3B58065  28.930  31.933   7.006
 4478POPC   C4B58066  29.043  32.027   7.423
 4479POPC   NC358067  32.572  30.908   5.432
 4479POPC   PO458068  31.925  30.595   5.288
 4479POPC   GL158069  32.069  30.839   5.640
 4479POPC   GL258070  32.328  30.607   5.782
 4479POPC   C1A58071  32.101  30.965   6.087
 4479POPC   D2A58072  32.342  30.822   6.474
 4479POPC   C3A58073  32.195  30.961   6.893
 4479POPC   C4A58074  32.048  30.724   7.269
 4479POPC   C1B58075  32.518  30.399   6.166
 4479POPC   C2B58076  32.589  30.216   6.602
 4479POPC   C3B58077  32.395  30.464   6.921
 4479POPC   C4B58078  32.531  30.478   7.326
 4480POPC   NC358079  43.480   7.482   5.111
 4480POPC   PO458080  43.972   7.147   5.387
 4480POPC   GL158081  43.989   7.307   5.810
 4480POPC   GL258082  43.667   7.275   5.846
 4480POPC   C1A58083  44.055   7.421   6.241
 4480POPC   D2A58084  43.898   7.586   6.607
 4480POPC   C3A58085  44.117   7.398   6.941
 4480POPC   C4A58086  44.073   7.619   7.312
 4480POPC   C1B58087  43.586   7.049   6.199
 4480POPC   C2B58088  43.733   7.117   6.609
 4480POPC   C3B58089  43.602   6.990   6.999
 4480POPC   C4B58090  43.717   6.848   7.391
 4481POPC   NC358091  39.568  39.200   5.493
 4481POPC   PO458092  38.922  38.972   5.472
 4481POPC   GL158093  39.223  38.996   5.824
 4481POPC   GL258094  39.500  38.774   5.882
 4481POPC   C1A58095  39.399  39.272   6.158
 4481POPC   D2A58096  39.177  39.477   6.508
 4481POPC   C3A58097  39.369  39.411   6.919
 4481POPC   C4A58098  39.224  39.622   7.257
 4481POPC   C1B58099  39.229  38.781   6.294
 4481POPC   C2B58100  39.102  38.999   6.694
 4481POPC   C3B58101  39.162  38.840   7.132
 4481POPC   C4B58102  39.426  38.999   7.465
 4482POPC   NC358103  13.807  35.820   4.991
 4482POPC   PO458104  13.671  36.318   5.439
 4482POPC   GL158105  13.593  36.442   5.825
 4482POPC   GL258106  13.284  36.302   5.843
 4482POPC   C1A58107  13.688  36.187   6.190
 4482POPC   D2A58108  13.812  35.838   6.461
 4482POPC   C3A58109  13.793  35.984   6.867
 4482POPC   C4A58110  13.717  35.937   7.245
 4482POPC   C1B58111  13.213  35.985   6.169
 4482POPC   C2B58112  13.355  36.061   6.601
 4482POPC   C3B58113  13.340  36.209   7.033
 4482POPC   C4B58114  13.204  35.912   7.341
 4483POPC   NC358115  42.732  12.662   5.511
 4483POPC   PO458116  43.244  13.206   5.618
 4483POPC   GL158117  43.216  12.762   5.806
 4483POPC   GL258118  42.889  12.690   5.978
 4483POPC   C1A58119  43.291  12.545   6.224
 4483POPC   D2A58120  43.183  12.591   6.676
 4483POPC   C3A58121  43.176  12.944   6.979
 4483POPC   C4A58122  43.301  12.918   7.437
 4483POPC   C1B58123  42.747  13.038   6.189
 4483POPC   C2B58124  42.752  13.042   6.626
 4483POPC   C3B58125  42.586  13.099   7.010
 4483POPC   C4B58126  42.806  12.943   7.343
 4484POPC   NC358127   4.017   7.539   5.399
 4484POPC   PO458128   4.732   7.444   5.544
 4484POPC   GL158129   4.364   7.314   5.811
 4484POPC   GL258130   4.194   7.636   5.857
 4484POPC   C1A58131   4.220   7.312   6.279
 4484POPC   D2A58132   4.154   7.179   6.744
 4484POPC   C3A58133   4.474   7.367   7.065
 4484POPC   C4A58134   4.452   7.293   7.524
 4484POPC   C1B58135   3.893   7.712   6.167
 4484POPC   C2B58136   3.878   7.598   6.579
 4484POPC   C3B58137   4.075   7.659   6.945
 4484POPC   C4B58138   4.256   7.774   7.339
 4485POPC   NC358139  30.580  26.514   5.635
 4485POPC   PO458140  30.289  27.120   5.485
 4485POPC   GL158141  30.554  26.983   5.854
 4485POPC   GL258142  30.950  27.029   5.834
 4485POPC   C1A58143  30.447  26.706   6.213
 4485POPC   D2A58144  30.582  26.578   6.574
 4485POPC   C3A58145  30.657  26.903   6.817
 4485POPC   C4A58146  30.708  26.923   7.229
 4485POPC   C1B58147  30.917  26.886   6.238
 4485POPC   C2B58148  31.090  26.558   6.487
 4485POPC   C3B58149  30.978  26.524   6.903
 4485POPC   C4B58150  31.103  26.604   7.290
 4486POPC   NC358151  10.407  16.901   5.349
 4486POPC   PO458152  10.255  16.318   5.465
 4486POPC   GL158153  10.408  16.371   5.851
 4486POPC   GL258154  10.680  16.590   5.771
 4486POPC   C1A58155  10.530  16.447   6.265
 4486POPC   D2A58156  10.865  16.647   6.468
 4486POPC   C3A58157  10.779  16.669   6.908
 4486POPC   C4A58158  10.544  16.538   7.257
 4486POPC   C1B58159  10.505  16.911   6.073
 4486POPC   C2B58160  10.391  16.932   6.529
 4486POPC   C3B58161  10.351  17.020   6.986
 4486POPC   C4B58162  10.684  17.042   7.291
 4487POPC   NC358163  17.802  31.634   5.359
 4487POPC   PO458164  17.175  31.410   5.383
 4487POPC   GL158165  17.471  31.503   5.739
 4487POPC   GL258166  17.754  31.236   5.697
 4487POPC   C1A58167  17.565  31.796   6.111
 4487POPC   D2A58168  17.685  32.025   6.513
 4487POPC   C3A58169  17.681  31.798   6.917
 4487POPC   C4A58170  17.546  31.563   7.299
 4487POPC   C1B58171  17.647  31.182   6.131
 4487POPC   C2B58172  17.451  31.177   6.539
 4487POPC   C3B58173  17.676  31.273   6.917
 4487POPC   C4B58174  17.828  31.168   7.367
 4488POPC   NC358175  12.913  41.878   5.508
 4488POPC   PO458176  12.887  42.565   5.342
 4488POPC   GL158177  12.961  42.581   5.792
 4488POPC   GL258178  13.116  42.252   5.833
 4488POPC   C1A58179  12.912  42.736   6.228
 4488POPC   D2A58180  13.071  42.768   6.660
 4488POPC   C3A58181  12.761  42.740   7.010
 4488POPC   C4A58182  12.756  42.646   7.461
 4488POPC   C1B58183  13.094  42.250   6.291
 4488POPC   C2B58184  12.787  42.318   6.634
 4488POPC   C3B58185  12.760  42.234   7.079
 4488POPC   C4B58186  13.073  42.250   7.359
 4489POPC   NC358187  34.864   5.627   5.491
 4489POPC   PO458188  34.458   6.150   5.337
 4489POPC   GL158189  34.462   5.879   5.728
 4489POPC   GL258190  34.783   5.966   5.858
 4489POPC   C1A58191  34.466   5.716   6.202
 4489POPC   D2A58192  34.465   5.530   6.655
 4489POPC   C3A58193  34.385   5.810   7.042
 4489POPC   C4A58194  34.033   5.795   7.337
 4489POPC   C1B58195  34.822   6.071   6.249
 4489POPC   C2B58196  34.622   6.020   6.633
 4489POPC   C3B58197  34.824   6.132   7.024
 4489POPC   C4B58198  34.761   5.956   7.440
 4490POPC   NC358199  25.628  32.298   5.231
 4490POPC   PO458200  26.229  32.589   5.299
 4490POPC   GL158201  25.980  32.286   5.600
 4490POPC   GL258202  26.107  31.965   5.736
 4490POPC   C1A58203  25.697  32.171   5.980
 4490POPC   D2A58204  25.743  32.269   6.442
 4490POPC   C3A58205  25.716  32.033   6.853
 4490POPC   C4A58206  25.731  32.262   7.232
 4490POPC   C1B58207  26.170  32.084   6.209
 4490POPC   C2B58208  26.193  32.120   6.696
 4490POPC   C3B58209  26.201  32.049   7.180
 4490POPC   C4B58210  26.444  31.958   7.637
 4491POPC   NC358211  37.706  20.752   5.365
 4491POPC   PO458212  37.926  20.154   5.583
 4491POPC   GL158213  37.659  20.431   5.810
 4491POPC   GL258214  37.874  20.735   5.835
 4491POPC   C1A58215  37.659  20.514   6.269
 4491POPC   D2A58216  37.450  20.719   6.625
 4491POPC   C3A58217  37.567  20.456   7.004
 4491POPC   C4A58218  37.923  20.535   7.248
 4491POPC   C1B58219  37.913  20.959   6.198
 4491POPC   C2B58220  38.033  20.893   6.628
 4491POPC   C3B58221  37.759  20.936   6.967
 4491POPC   C4B58222  37.766  21.139   7.332
 4492POPC   NC358223   4.118  37.435   5.523
 4492POPC   PO458224   4.345  38.080   5.396
 4492POPC   GL158225   4.415  37.785   5.749
 4492POPC   GL258226   4.071  37.691   5.941
 4492POPC   C1A58227   4.505  37.789   6.184
 4492POPC   D2A58228   4.294  37.761   6.547
 4492POPC   C3A58229   4.546  37.638   6.856
 4492POPC   C4A58230   4.719  37.937   7.098
 4492POPC   C1B58231   4.217  37.341   6.211
 4492POPC   C2B58232   4.224  37.260   6.641
 4492POPC   C3B58233   4.046  37.535   6.957
 4492POPC   C4B58234   4.322  37.635   7.315
 4493POPC   NC358235   9.122  36.553   5.384
 4493POPC   PO458236   8.859  35.980   5.404
 4493POPC   GL158237   8.731  36.138   5.773
 4493POPC   GL258238   8.659  35.832   5.890
 4493POPC   C1A58239   8.799  36.319   6.186
 4493POPC   D2A58240   9.087  36.273   6.540
 4493POPC   C3A58241   8.871  36.279   6.934
 4493POPC   C4A58242   9.066  36.370   7.332
 4493POPC   C1B58243   9.042  35.854   6.141
 4493POPC   C2B58244   9.079  35.757   6.577
 4493POPC   C3B58245   9.199  35.865   6.975
 4493POPC   C4B58246   8.881  35.881   7.273
 4494POPC   NC358247  29.936  10.069   5.314
 4494POPC   PO458248  30.256  10.556   5.486
 4494POPC   GL158249  29.949  10.339   5.769
 4494POPC   GL258250  30.194  10.360   5.978
 4494POPC   C1A58251  29.664  10.284   6.161
 4494POPC   D2A58252  29.753  10.407   6.612
 4494POPC   C3A58253  29.561  10.617   6.988
 4494POPC   C4A58254  29.599  10.477   7.435
 4494POPC   C1B58255  29.962  10.677   6.213
 4494POPC   C2B58256  29.976  10.874   6.593
 4494POPC   C3B58257  30.050  10.706   6.969
 4494POPC   C4B58258  29.904  10.866   7.333
 4495POPC   NC358259   8.821   7.702   5.465
 4495POPC   PO458260   9.257   7.179   5.403
 4495POPC   GL158261   9.227   7.503   5.710
 4495POPC   GL258262   8.903   7.301   5.800
 4495POPC   C1A58263   9.228   7.680   6.147
 4495POPC   D2A58264   8.958   7.551   6.500
 4495POPC   C3A58265   9.029   7.626   6.944
 4495POPC   C4A58266   8.782   7.694   7.314
 4495POPC   C1B58267   8.708   7.191   6.204
 4495POPC   C2B58268   8.901   7.053   6.616
 4495POPC   C3B58269   8.970   7.124   7.039
 4495POPC   C4B58270   8.985   7.260   7.425
 4496POPC   NC358271  10.757  13.804   5.543
 4496POPC   PO458272  10.185  13.467   5.544
 4496POPC   GL158273  10.404  13.780   5.915
 4496POPC   GL258274  10.789  13.744   6.044
 4496POPC   C1A58275  10.418  13.863   6.395
 4496POPC   D2A58276  10.411  13.459   6.664
 4496POPC   C3A58277  10.384  13.456   7.115
 4496POPC   C4A58278  10.353  13.692   7.490
 4496POPC   C1B58279  10.921  14.018   6.400
 4496POPC   C2B58280  10.821  13.756   6.702
 4496POPC   C3B58281  10.860  13.689   7.079
 4496POPC   C4B58282  10.809  14.054   7.283
 4497POPC   NC358283  44.157  31.635   5.478
 4497POPC   PO458284  43.610  31.292   5.426
 4497POPC   GL158285  43.905  31.324   5.826
 4497POPC   GL258286  44.288  31.240   5.842
 4497POPC   C1A58287  43.808  31.464   6.278
 4497POPC   D2A58288  43.771  31.764   6.659
 4497POPC   C3A58289  43.700  31.567   7.060
 4497POPC   C4A58290  43.624  31.597   7.508
 4497POPC   C1B58291  44.165  31.100   6.282
 4497POPC   C2B58292  43.951  31.143   6.720
 4497POPC   C3B58293  44.017  31.196   7.202
 4497POPC   C4B58294  44.195  31.175   7.675
 4498POPC   NC358295   8.850  13.883   5.283
 4498POPC   PO458296   9.352  13.430   5.256
 4498POPC   GL158297   9.083  13.484   5.688
 4498POPC   GL258298   8.750  13.696   5.760
 4498POPC   C1A58299   9.031  13.589   6.168
 4498POPC   D2A58300   8.807  13.671   6.559
 4498POPC   C3A58301   9.035  13.668   6.933
 4498POPC   C4A58302   9.178  13.480   7.311
 4498POPC   C1B58303   8.633  13.954   6.156
 4498POPC   C2B58304   8.582  14.124   6.579
 4498POPC   C3B58305   8.574  13.917   6.998
 4498POPC   C4B58306   8.640  13.494   7.207
 4499POPC   NC358307  12.200  16.976   5.474
 4499POPC   PO458308  11.648  16.617   5.467
 4499POPC   GL158309  11.891  16.781   5.826
 4499POPC   GL258310  12.195  16.554   5.790
 4499POPC   C1A58311  12.116  16.808   6.248
 4499POPC   D2A58312  11.989  16.884   6.704
 4499POPC   C3A58313  12.161  16.788   7.154
 4499POPC   C4A58314  12.490  16.923   7.505
 4499POPC   C1B58315  11.911  16.350   6.098
 4499POPC   C2B58316  12.010  16.387   6.527
 4499POPC   C3B58317  11.811  16.460   6.934
 4499POPC   C4B58318  11.735  16.523   7.383
 4500POPC   NC358319  24.360   1.425   5.482
 4500POPC   PO458320  24.978   1.346   5.518
 4500POPC   GL158321  24.695   1.431   5.898
 4500POPC   GL258322  24.346   1.580   5.959
 4500POPC   C1A58323  24.616   1.304   6.347
 4500POPC   D2A58324  24.347   1.339   6.708
 4500POPC   C3A58325  24.488   1.310   7.125
 4500POPC   C4A58326  24.490   1.339   7.577
 4500POPC   C1B58327  24.159   1.184   6.154
 4500POPC   C2B58328  24.285   0.883   6.484
 4500POPC   C3B58329  24.290   0.866   6.945
 4500POPC   C4B58330  24.526   0.842   7.360
 4501POPC   NC358331  10.702  10.625   5.361
 4501POPC   PO458332  10.282  10.195   5.405
 4501POPC   GL158333  10.414  10.488   5.795
 4501POPC   GL258334  10.746  10.727   5.852
 4501POPC   C1A58335  10.377  10.723   6.209
 4501POPC   D2A58336  10.582  10.745   6.603
 4501POPC   C3A58337  10.610  10.367   6.869
 4501POPC   C4A58338  10.477  10.148   7.261
 4501POPC   C1B58339  10.828  10.502   6.191
 4501POPC   C2B58340  11.065  10.567   6.534
 4501POPC   C3B58341  10.978  10.727   6.931
 4501POPC   C4B58342  10.782  10.587   7.324
 4502POPC   NC358343  39.761  29.480   5.557
 4502POPC   PO458344  39.946  30.162   5.780
 4502POPC   GL158345  39.948  29.777   5.933
 4502POPC   GL258346  40.228  29.695   5.698
 4502POPC   C1A58347  39.853  29.550   6.325
 4502POPC   D2A58348  39.947  29.495   6.764
 4502POPC   C3A58349  39.967  29.842   7.078
 4502POPC   C4A58350  39.749  29.875   7.467
 4502POPC   C1B58351  40.408  29.675   6.096
 4502POPC   C2B58352  40.270  29.838   6.464
 4502POPC   C3B58353  40.423  29.766   6.857
 4502POPC   C4B58354  40.515  29.812   7.253
 4503POPC   NC358355  35.664  42.930   5.457
 4503POPC   PO458356  35.223  43.327   5.541
 4503POPC   GL158357  35.466  43.147   5.876
 4503POPC   GL258358  35.550  42.760   5.917
 4503POPC   C1A58359  35.322  43.250   6.284
 4503POPC   D2A58360  35.287  43.560   6.600
 4503POPC   C3A58361  35.259  43.369   7.008
 4503POPC   C4A58362  35.447  43.033   7.232
 4503POPC   C1B58363  35.143  42.767   6.105
 4503POPC   C2B58364  35.015  42.888   6.516
 4503POPC   C3B58365  35.135  42.731   6.931
 4503POPC   C4B58366  35.023  42.738   7.368
 4504POPC   NC358367   0.969  40.006   5.422
 4504POPC   PO458368   1.570  39.797   5.743
 4504POPC   GL158369   1.178  39.919   5.891
 4504POPC   GL258370   1.096  40.282   5.892
 4504POPC   C1A58371   1.173  39.895   6.322
 4504POPC   D2A58372   1.009  40.135   6.643
 4504POPC   C3A58373   1.174  39.968   6.998
 4504POPC   C4A58374   1.039  39.744   7.306
 4504POPC   C1B58375   1.470  40.299   6.189
 4504POPC   C2B58376   1.543  40.198   6.633
 4504POPC   C3B58377   1.545  40.317   7.067
 4504POPC   C4B58378   1.373  40.530   7.430
 4505POPC   NC358379  36.935  39.485   5.692
 4505POPC   PO458380  37.113  38.946   5.195
 4505POPC   GL158381  36.993  38.921   5.683
 4505POPC   GL258382  36.746  39.105   5.972
 4505POPC   C1A58383  37.215  39.034   6.054
 4505POPC   D2A58384  37.266  39.092   6.504
 4505POPC   C3A58385  36.949  39.044   6.793
 4505POPC   C4A58386  37.128  39.009   7.172
 4505POPC   C1B58387  36.947  39.431   6.301
 4505POPC   C2B58388  37.115  39.546   6.688
 4505POPC   C3B58389  36.976  39.498   7.084
 4505POPC   C4B58390  36.725  39.601   7.385
 4506POPC   NC358391   2.236   1.949   5.525
 4506POPC   PO458392   1.688   1.762   5.123
 4506POPC   GL158393   1.760   2.101   5.606
 4506POPC   GL258394   1.950   1.985   5.950
 4506POPC   C1A58395   1.649   2.371   5.990
 4506POPC   D2A58396   1.608   2.225   6.433
 4506POPC   C3A58397   1.851   2.281   6.807
 4506POPC   C4A58398   1.798   2.133   7.235
 4506POPC   C1B58399   1.969   1.777   6.359
 4506POPC   C2B58400   1.956   1.779   6.832
 4506POPC   C3B58401   2.189   1.756   7.238
 4506POPC   C4B58402   2.275   1.592   7.684
 4507POPC   NC358403  19.746  10.389   5.244
 4507POPC   PO458404  20.262  10.780   5.462
 4507POPC   GL158405  20.042  10.540   5.852
 4507POPC   GL258406  19.676  10.441   5.794
 4507POPC   C1A58407  19.904  10.279   6.230
 4507POPC   D2A58408  19.848  10.190   6.688
 4507POPC   C3A58409  20.107  10.453   6.969
 4507POPC   C4A58410  20.147  10.897   7.119
 4507POPC   C1B58411  19.340  10.523   6.133
 4507POPC   C2B58412  19.178  10.660   6.548
 4507POPC   C3B58413  19.375  10.356   6.807
 4507POPC   C4B58414  19.647  10.362   7.169
 4508POPC   NC358415  28.759   8.035   5.204
 4508POPC   PO458416  28.474   8.338   5.793
 4508POPC   GL158417  28.376   8.039   6.020
 4508POPC   GL258418  28.267   7.819   5.743
 4508POPC   C1A58419  28.494   8.214   6.428
 4508POPC   D2A58420  28.271   8.303   6.767
 4508POPC   C3A58421  28.504   8.077   7.030
 4508POPC   C4A58422  28.714   8.193   7.382
 4508POPC   C1B58423  27.958   7.733   6.035
 4508POPC   C2B58424  28.121   7.841   6.433
 4508POPC   C3B58425  27.981   7.787   6.834
 4508POPC   C4B58426  28.092   7.897   7.243
 4509POPC   NC358427  26.477  14.722   5.411
 4509POPC   PO458428  26.024  14.131   5.340
 4509POPC   GL158429  26.074  14.341   5.720
 4509POPC   GL258430  26.407  14.327   5.719
 4509POPC   C1A58431  26.097  14.543   6.115
 4509POPC   D2A58432  25.994  14.795   6.492
 4509POPC   C3A58433  26.105  14.554   6.817
 4509POPC   C4A58434  26.046  14.616   7.225
 4509POPC   C1B58435  26.405  14.103   6.084
 4509POPC   C2B58436  26.444  14.121   6.524
 4509POPC   C3B58437  26.566  14.044   6.925
 4509POPC   C4B58438  26.308  14.170   7.199
 4510POPC   NC358439  10.457  25.496   5.551
 4510POPC   PO458440   9.986  24.965   5.481
 4510POPC   GL158441  10.275  25.098   5.811
 4510POPC   GL258442  10.152  25.434   5.952
 4510POPC   C1A58443  10.533  25.043   6.201
 4510POPC   D2A58444  10.489  25.240   6.626
 4510POPC   C3A58445  10.549  25.081   7.056
 4510POPC   C4A58446  10.194  25.038   7.364
 4510POPC   C1B58447  10.518  25.558   6.193
 4510POPC   C2B58448  10.665  25.719   6.571
 4510POPC   C3B58449  10.522  25.645   6.959
 4510POPC   C4B58450  10.740  25.506   7.263
 4511POPC   NC358451   3.567  36.041   5.355
 4511POPC   PO458452   4.010  35.765   5.686
 4511POPC   GL158453   3.667  36.099   5.868
 4511POPC   GL258454   3.301  36.168   5.806
 4511POPC   C1A58455   3.510  36.405   6.226
 4511POPC   D2A58456   3.419  36.304   6.688
 4511POPC   C3A58457   3.728  36.114   6.977
 4511POPC   C4A58458   3.656  36.046   7.474
 4511POPC   C1B58459   3.358  35.923   6.234
 4511POPC   C2B58460   3.405  35.776   6.667
 4511POPC   C3B58461   3.299  35.875   7.104
 4511POPC   C4B58462   3.306  36.318   7.209
 4512POPC   NC358463  43.351  19.759   5.508
 4512POPC   PO458464  42.695  19.954   5.619
 4512POPC   GL158465  43.028  19.913   5.866
 4512POPC   GL258466  43.013  19.580   5.875
 4512POPC   C1A58467  43.140  19.950   6.287
 4512POPC   D2A58468  42.871  19.889   6.642
 4512POPC   C3A58469  43.075  19.889   7.024
 4512POPC   C4A58470  43.299  20.246   7.155
 4512POPC   C1B58471  42.956  19.479   6.297
 4512POPC   C2B58472  43.227  19.552   6.625
 4512POPC   C3B58473  43.303  19.409   7.010
 4512POPC   C4B58474  43.231  19.551   7.431
 4513POPC   NC358475  43.675  26.274   5.411
 4513POPC   PO458476  43.589  25.603   5.448
 4513POPC   GL158477  43.739  25.905   5.762
 4513POPC   GL258478  43.468  26.031   5.814
 4513POPC   C1A58479  43.861  26.226   6.106
 4513POPC   D2A58480  44.151  26.135   6.452
 4513POPC   C3A58481  44.047  25.999   6.870
 4513POPC   C4A58482  44.150  26.164   7.256
 4513POPC   C1B58483  43.513  25.876   6.229
 4513POPC   C2B58484  43.578  26.018   6.656
 4513POPC   C3B58485  43.510  26.087   7.093
 4513POPC   C4B58486  43.474  25.805   7.404
 4514POPC   NC358487  31.305   1.950   5.397
 4514POPC   PO458488  30.637   1.787   5.531
 4514POPC   GL158489  30.879   1.896   5.819
 4514POPC   GL258490  30.946   2.232   5.681
 4514POPC   C1A58491  30.737   1.873   6.238
 4514POPC   D2A58492  30.608   1.964   6.644
 4514POPC   C3A58493  30.622   1.654   6.981
 4514POPC   C4A58494  30.696   1.962   7.220
 4514POPC   C1B58495  31.092   2.253   6.106
 4514POPC   C2B58496  31.198   1.971   6.443
 4514POPC   C3B58497  31.071   1.881   6.844
 4514POPC   C4B58498  31.183   1.949   7.253
 4515POPC   NC358499  30.297  23.525   5.529
 4515POPC   PO458500  29.675  23.821   5.505
 4515POPC   GL158501  29.754  23.853   5.944
 4515POPC   GL258502  30.105  23.701   5.977
 4515POPC   C1A58503  29.968  24.059   6.304
 4515POPC   D2A58504  29.976  23.671   6.515
 4515POPC   C3A58505  29.801  23.606   6.892
 4515POPC   C4A58506  29.968  23.820   7.262
 4515POPC   C1B58507  30.168  23.314   6.214
 4515POPC   C2B58508  30.338  23.320   6.645
 4515POPC   C3B58509  30.209  23.397   7.091
 4515POPC   C4B58510  30.067  23.332   7.551
 4516POPC   NC358511   8.392  22.019   5.337
 4516POPC   PO458512   8.015  22.538   5.490
 4516POPC   GL158513   8.196  22.215   5.804
 4516POPC   GL258514   8.565  22.099   5.803
 4516POPC   C1A58515   8.094  22.122   6.265
 4516POPC   D2A58516   8.169  21.962   6.710
 4516POPC   C3A58517   8.350  22.231   7.090
 4516POPC   C4A58518   8.414  22.363   7.555
 4516POPC   C1B58519   8.523  21.880   6.177
 4516POPC   C2B58520   8.651  21.796   6.588
 4516POPC   C3B58521   8.519  21.756   7.021
 4516POPC   C4B58522   8.607  21.896   7.413
 4517POPC   NC358523  36.702  13.417   5.318
 4517POPC   PO458524  37.291  13.862   5.435
 4517POPC   GL158525  37.051  13.758   5.803
 4517POPC   GL258526  36.709  13.585   5.801
 4517POPC   C1A58527  37.184  13.714   6.231
 4517POPC   D2A58528  37.230  13.402   6.524
 4517POPC   C3A58529  36.915  13.483   6.834
 4517POPC   C4A58530  36.900  13.330   7.244
 4517POPC   C1B58531  36.648  13.933   6.089
 4517POPC   C2B58532  36.866  14.052   6.455
 4517POPC   C3B58533  36.753  14.090   6.850
 4517POPC   C4B58534  36.738  13.836   7.199
 4518POPC   NC358535   9.812  42.882   5.516
 4518POPC   PO458536   9.380  43.462   5.352
 4518POPC   GL158537   9.632  43.337   5.695
 4518POPC   GL258538   9.412  43.049   5.815
 4518POPC   C1A58539   9.788  43.231   6.119
 4518POPC   D2A58540   9.588  43.192   6.529
 4518POPC   C3A58541   9.872  43.334   6.868
 4518POPC   C4A58542   9.972  43.095   7.253
 4518POPC   C1B58543   9.455  42.738   6.153
 4518POPC   C2B58544   9.582  42.662   6.594
 4518POPC   C3B58545   9.560  42.884   6.961
 4518POPC   C4B58546   9.304  42.867   7.335
 4519POPC   NC358547  15.140  12.366   5.124
 4519POPC   PO458548  15.074  12.972   5.589
 4519POPC   GL158549  15.253  12.766   5.895
 4519POPC   GL258550  15.457  12.544   5.701
 4519POPC   C1A58551  15.362  12.951   6.287
 4519POPC   D2A58552  15.204  13.206   6.592
 4519POPC   C3A58553  15.084  12.897   6.880
 4519POPC   C4A58554  15.260  12.832   7.273
 4519POPC   C1B58555  15.515  12.407   6.149
 4519POPC   C2B58556  15.299  12.502   6.536
 4519POPC   C3B58557  15.281  12.415   6.962
 4519POPC   C4B58558  15.571  12.427   7.271
 4520POPC   NC358559   2.907  31.825   5.478
 4520POPC   PO458560   2.479  32.326   5.468
 4520POPC   GL158561   2.665  32.137   5.825
 4520POPC   GL258562   3.047  32.183   5.820
 4520POPC   C1A58563   2.736  32.205   6.266
 4520POPC   D2A58564   2.952  32.204   6.677
 4520POPC   C3A58565   2.684  32.290   7.048
 4520POPC   C4A58566   2.515  32.009   7.346
 4520POPC   C1B58567   3.237  32.067   6.212
 4520POPC   C2B58568   3.199  31.752   6.564
 4520POPC   C3B58569   3.279  31.906   6.977
 4520POPC   C4B58570   3.188  32.327   7.136
 4521POPC   NC358571  41.322  11.368   5.576
 4521POPC   PO458572  41.773  10.963   5.350
 4521POPC   GL158573  41.809  11.145   5.795
 4521POPC   GL258574  41.691  11.500   5.894
 4521POPC   C1A58575  41.582  11.119   6.213
 4521POPC   D2A58576  41.574  11.362   6.619
 4521POPC   C3A58577  41.502  11.117   6.977
 4521POPC   C4A58578  41.581  10.946   7.373
 4521POPC   C1B58579  41.302  11.532   6.192
 4521POPC   C2B58580  41.165  11.667   6.609
 4521POPC   C3B58581  41.331  11.612   7.057
 4521POPC   C4B58582  41.292  11.737   7.536
 4522POPC   NC358583  38.007  16.736   5.330
 4522POPC   PO458584  38.710  16.817   5.376
 4522POPC   GL158585  38.539  16.819   5.813
 4522POPC   GL258586  38.840  16.828   5.941
 4522POPC   C1A58587  38.493  16.852   6.309
 4522POPC   D2A58588  38.557  16.776   6.755
 4522POPC   C3A58589  38.303  17.055   7.022
 4522POPC   C4A58590  38.074  16.922   7.397
 4522POPC   C1B58591  38.778  16.441   6.187
 4522POPC   C2B58592  38.784  16.320   6.620
 4522POPC   C3B58593  38.717  16.376   7.050
 4522POPC   C4B58594  38.658  16.745   7.281
 4523POPC   NC358595  12.550  23.081   5.279
 4523POPC   PO458596  13.206  23.057   5.448
 4523POPC   GL158597  12.919  23.030   5.771
 4523POPC   GL258598  12.745  22.731   5.679
 4523POPC   C1A58599  12.937  23.021   6.221
 4523POPC   D2A58600  12.828  23.102   6.681
 4523POPC   C3A58601  12.991  22.810   7.017
 4523POPC   C4A58602  13.040  22.705   7.475
 4523POPC   C1B58603  12.535  22.710   6.090
 4523POPC   C2B58604  12.650  22.673   6.495
 4523POPC   C3B58605  12.496  22.676   6.888
 4523POPC   C4B58606  12.615  22.544   7.293
 4524POPC   NC358607  12.631   1.305   5.549
 4524POPC   PO458608  13.101   0.944   5.552
 4524POPC   GL158609  12.943   1.083   5.916
 4524POPC   GL258610  13.034   1.437   5.879
 4524POPC   C1A58611  12.872   1.013   6.341
 4524POPC   D2A58612  12.932   1.259   6.667
 4524POPC   C3A58613  13.010   1.104   7.074
 4524POPC   C4A58614  12.793   1.167   7.471
 4524POPC   C1B58615  12.790   1.561   6.231
 4524POPC   C2B58616  12.708   1.704   6.643
 4524POPC   C3B58617  13.030   1.627   7.007
 4524POPC   C4B58618  13.331   1.441   7.288
 4525POPC   NC358619   7.553  29.276   5.217
 4525POPC   PO458620   6.995  29.458   5.599
 4525POPC   GL158621   7.396  29.312   5.746
 4525POPC   GL258622   7.710  29.529   5.781
 4525POPC   C1A58623   7.310  29.242   6.181
 4525POPC   D2A58624   7.161  29.333   6.582
 4525POPC   C3A58625   7.390  29.165   6.921
 4525POPC   C4A58626   7.461  28.769   7.118
 4525POPC   C1B58627   7.799  29.267   6.136
 4525POPC   C2B58628   7.682  29.026   6.505
 4525POPC   C3B58629   7.882  28.948   6.907
 4525POPC   C4B58630   7.791  29.159   7.269
 4526POPC   NC358631   1.626  11.395   5.454
 4526POPC   PO458632   2.171  11.087   5.120
 4526POPC   GL158633   1.988  10.975   5.609
 4526POPC   GL258634   2.224  10.820   5.827
 4526POPC   C1A58635   1.876  10.996   6.131
 4526POPC   D2A58636   2.108  11.156   6.546
 4526POPC   C3A58637   1.899  11.234   6.996
 4526POPC   C4A58638   1.645  11.564   7.229
 4526POPC   C1B58639   2.348  10.679   6.232
 4526POPC   C2B58640   2.505  10.815   6.611
 4526POPC   C3B58641   2.342  10.986   7.008
 4526POPC   C4B58642   2.200  10.919   7.430
 4527POPC   NC358643   8.389  44.301   5.666
 4527POPC   PO458644   7.894  44.684   5.337
 4527POPC   GL158645   7.972  44.613   5.751
 4527POPC   GL258646   8.280  44.793   5.804
 4527POPC   C1A58647   7.986  44.656   6.205
 4527POPC   D2A58648   8.049  44.896   6.572
 4527POPC   C3A58649   8.103  44.608   6.914
 4527POPC   C4A58650   7.953  44.766   7.288
 4527POPC   C1B58651   8.546  44.666   6.155
 4527POPC   C2B58652   8.516  44.686   6.579
 4527POPC   C3B58653   8.627  44.670   6.994
 4527POPC   C4B58654   8.437  44.720   7.426
 4528POPC   NC358655  38.539   1.688   5.444
 4528POPC   PO458656  38.315   2.426   5.399
 4528POPC   GL158657  38.424   2.118   5.743
 4528POPC   GL258658  38.210   1.841   5.807
 4528POPC   C1A58659  38.595   1.972   6.156
 4528POPC   D2A58660  38.443   1.876   6.595
 4528POPC   C3A58661  38.718   1.930   7.004
 4528POPC   C4A58662  38.868   2.295   7.249
 4528POPC   C1B58663  38.051   1.891   6.213
 4528POPC   C2B58664  37.891   1.858   6.615
 4528POPC   C3B58665  38.107   1.785   6.962
 4528POPC   C4B58666  38.274   2.145   7.140
 4529POPC   NC358667  19.269  30.998   5.320
 4529POPC   PO458668  19.270  30.318   5.236
 4529POPC   GL158669  19.203  30.581   5.642
 4529POPC   GL258670  19.457  30.813   5.800
 4529POPC   C1A58671  19.052  30.571   6.087
 4529POPC   D2A58672  19.110  30.778   6.491
 4529POPC   C3A58673  18.883  30.663   6.847
 4529POPC   C4A58674  18.858  30.926   7.181
 4529POPC   C1B58675  19.587  30.489   6.097
 4529POPC   C2B58676  19.737  30.417   6.530
 4529POPC   C3B58677  19.459  30.545   6.858
 4529POPC   C4B58678  19.253  30.573   7.205
 4530POPC   NC358679  36.959  10.585   5.242
 4530POPC   PO458680  37.430  10.824   5.707
 4530POPC   GL158681  37.119  10.481   5.828
 4530POPC   GL258682  36.796  10.315   5.750
 4530POPC   C1A58683  37.087  10.231   6.216
 4530POPC   D2A58684  37.293  10.336   6.618
 4530POPC   C3A58685  37.170  10.487   7.019
 4530POPC   C4A58686  37.370  10.276   7.341
 4530POPC   C1B58687  36.662  10.507   6.175
 4530POPC   C2B58688  36.778  10.527   6.631
 4530POPC   C3B58689  36.646  10.440   7.057
 4530POPC   C4B58690  36.689  10.534   7.529
 4531POPC   NC358691  43.456   3.735   5.567
 4531POPC   PO458692  43.986   3.407   5.318
 4531POPC   GL158693  44.119   3.552   5.729
 4531POPC   GL258694  44.302   3.299   5.820
 4531POPC   C1A58695  43.933   3.659   6.130
 4531POPC   D2A58696  43.713   3.424   6.480
 4531POPC   C3A58697  43.682   3.687   6.821
 4531POPC   C4A58698  43.765   3.686   7.225
 4531POPC   C1B58699  44.425   3.472   6.207
 4531POPC   C2B58700  44.217   3.556   6.560
 4531POPC   C3B58701  44.195   3.624   6.959
 4531POPC   C4B58702  44.144   3.384   7.326
 4532POPC   NC358703  33.460  33.165   5.375
 4532POPC   PO458704  32.845  32.869   5.422
 4532POPC   GL158705  32.756  32.947   5.833
 4532POPC   GL258706  32.969  33.242   5.825
 4532POPC   C1A58707  32.991  32.910   6.238
 4532POPC   D2A58708  33.373  32.789   6.445
 4532POPC   C3A58709  33.332  32.703   6.858
 4532POPC   C4A58710  33.092  32.892   7.166
 4532POPC   C1B58711  33.080  33.435   6.211
 4532POPC   C2B58712  33.100  33.284   6.643
 4532POPC   C3B58713  32.830  33.279   6.994
 4532POPC   C4B58714  32.810  33.377   7.455
 4533POPC   NC358715   5.735  28.945   5.267
 4533POPC   PO458716   6.296  28.816   5.621
 4533POPC   GL158717   5.915  28.970   5.779
 4533POPC   GL258718   5.739  29.290   5.672
 4533POPC   C1A58719   5.940  29.198   6.158
 4533POPC   D2A58720   6.191  29.219   6.528
 4533POPC   C3A58721   5.974  29.200   6.904
 4533POPC   C4A58722   6.044  28.895   7.226
 4533POPC   C1B58723   5.462  29.387   6.034
 4533POPC   C2B58724   5.439  29.232   6.463
 4533POPC   C3B58725   5.470  29.414   6.863
 4533POPC   C4B58726   5.580  29.287   7.253
 4534POPC   NC358727   1.594  26.109   5.462
 4534POPC   PO458728   0.987  25.759   5.290
 4534POPC   GL158729   1.143  25.941   5.670
 4534POPC   GL258730   1.155  26.313   5.674
 4534POPC   C1A58731   1.017  25.851   6.115
 4534POPC   D2A58732   1.353  25.830   6.415
 4534POPC   C3A58733   1.439  26.095   6.783
 4534POPC   C4A58734   1.455  25.930   7.205
 4534POPC   C1B58735   1.305  26.256   6.123
 4534POPC   C2B58736   1.070  26.319   6.534
 4534POPC   C3B58737   0.988  26.210   6.987
 4534POPC   C4B58738   1.120  26.280   7.425
 4535POPC   NC358739  20.573   4.399   5.256
 4535POPC   PO458740  21.127   4.104   5.500
 4535POPC   GL158741  20.797   4.448   5.725
 4535POPC   GL258742  20.410   4.385   5.797
 4535POPC   C1A58743  20.681   4.592   6.169
 4535POPC   D2A58744  20.778   4.366   6.519
 4535POPC   C3A58745  20.545   4.429   6.859
 4535POPC   C4A58746  20.732   4.185   7.163
 4535POPC   C1B58747  20.344   4.177   6.265
 4535POPC   C2B58748  20.254   4.008   6.713
 4535POPC   C3B58749  20.195   4.168   7.163
 4535POPC   C4B58750  20.407   4.134   7.569
 4536POPC   NC358751  21.652  23.107   5.508
 4536POPC   PO458752  21.086  22.967   5.408
 4536POPC   GL158753  21.328  22.816   5.811
 4536POPC   GL258754  21.679  22.704   5.916
 4536POPC   C1A58755  21.335  22.766   6.285
 4536POPC   D2A58756  21.538  22.835   6.698
 4536POPC   C3A58757  21.271  22.949   7.021
 4536POPC   C4A58758  20.987  22.682   7.215
 4536POPC   C1B58759  21.797  23.003   6.290
 4536POPC   C2B58760  21.867  23.308   6.645
 4536POPC   C3B58761  21.758  23.151   7.071
 4536POPC   C4B58762  21.493  23.246   7.458
 4537POPC   NC358763  33.637  44.374   5.344
 4537POPC   PO458764  34.112  44.834   5.181
 4537POPC   GL158765  34.102  44.720   5.665
 4537POPC   GL258766  33.734  44.684   5.752
 4537POPC   C1A58767  34.035  44.756   6.142
 4537POPC   D2A58768  33.705  44.635   6.452
 4537POPC   C3A58769  33.867  44.607   6.880
 4537POPC   C4A58770  33.900  44.917   7.202
 4537POPC   C1B58771  33.458  44.387   6.037
 4537POPC   C2B58772  33.285  44.341   6.493
 4537POPC   C3B58773  33.459  44.300   6.939
 4537POPC   C4B58774  33.654  44.485   7.355
 4538POPC   NC358775   2.899  36.413   5.436
 4538POPC   PO458776   3.060  35.828   5.271
 4538POPC   GL158777   2.860  35.932   5.688
 4538POPC   GL258778   2.569  36.137   5.764
 4538POPC   C1A58779   2.891  36.080   6.133
 4538POPC   D2A58780   2.921  35.895   6.522
 4538POPC   C3A58781   2.907  36.124   6.909
 4538POPC   C4A58782   2.812  35.868   7.259
 4538POPC   C1B58783   2.453  36.329   6.168
 4538POPC   C2B58784   2.498  36.182   6.568
 4538POPC   C3B58785   2.445  35.914   6.901
 4538POPC   C4B58786   2.458  36.228   7.233
 4539POPC   NC358787  38.772  25.845   5.452
 4539POPC   PO458788  38.124  26.025   5.494
 4539POPC   GL158789  38.474  26.136   5.774
 4539POPC   GL258790  38.854  26.255   5.732
 4539POPC   C1A58791  38.351  26.015   6.188
 4539POPC   D2A58792  38.145  25.922   6.554
 4539POPC   C3A58793  38.310  26.132   6.905
 4539POPC   C4A58794  38.090  26.199   7.282
 4539POPC   C1B58795  38.851  26.089   6.152
 4539POPC   C2B58796  38.704  26.018   6.573
 4539POPC   C3B58797  38.844  26.152   6.974
 4539POPC   C4B58798  38.619  26.050   7.324
 4540POPC   NC358799   7.912  18.948   5.680
 4540POPC   PO458800   7.286  19.190   5.400
 4540POPC   GL158801   7.425  19.062   5.798
 4540POPC   GL258802   7.346  18.714   5.814
 4540POPC   C1A58803   7.603  19.235   6.191
 4540POPC   D2A58804   7.796  19.369   6.588
 4540POPC   C3A58805   7.518  19.304   6.922
 4540POPC   C4A58806   7.532  19.397   7.366
 4540POPC   C1B58807   7.273  18.804   6.243
 4540POPC   C2B58808   7.576  18.884   6.599
 4540POPC   C3B58809   7.672  18.791   7.040
 4540POPC   C4B58810   7.407  18.638   7.362
 4541POPC   NC358811  16.156  21.104   5.461
 4541POPC   PO458812  15.514  21.307   5.391
 4541POPC   GL158813  15.776  21.312   5.764
 4541POPC   GL258814  16.020  21.559   5.863
 4541POPC   C1A58815  15.695  21.243   6.221
 4541POPC   D2A58816  15.563  21.109   6.664
 4541POPC   C3A58817  15.709  21.330   7.047
 4541POPC   C4A58818  15.907  21.263   7.438
 4541POPC   C1B58819  16.101  21.545   6.311
 4541POPC   C2B58820  16.058  21.539   6.753
 4541POPC   C3B58821  16.207  21.585   7.156
 4541POPC   C4B58822  16.338  21.586   7.562
 4542POPC   NC358823   5.633  34.685   5.353
 4542POPC   PO458824   6.094  34.172   5.400
 4542POPC   GL158825   5.784  34.298   5.740
 4542POPC   GL258826   5.754  34.670   5.859
 4542POPC   C1A58827   5.835  34.273   6.196
 4542POPC   D2A58828   5.865  34.505   6.598
 4542POPC   C3A58829   6.140  34.327   6.908
 4542POPC   C4A58830   5.835  34.151   7.194
 4542POPC   C1B58831   5.872  34.907   6.273
 4542POPC   C2B58832   5.965  35.010   6.728
 4542POPC   C3B58833   6.179  34.820   7.092
 4542POPC   C4B58834   6.240  34.945   7.545
 4543POPC   NC358835   7.255   0.574   5.067
 4543POPC   PO458836   7.650   0.259   5.554
 4543POPC   GL158837   7.359   0.278   5.849
 4543POPC   GL258838   7.273   0.597   5.695
 4543POPC   C1A58839   7.455   0.256   6.287
 4543POPC   D2A58840   7.580   0.111   6.666
 4543POPC   C3A58841   7.422   0.375   6.945
 4543POPC   C4A58842   7.411   0.509   7.334
 4543POPC   C1B58843   7.555   0.704   6.073
 4543POPC   C2B58844   7.672   0.667   6.548
 4543POPC   C3B58845   7.640   0.828   6.979
 4543POPC   C4B58846   7.586   0.979   7.407
 4544POPC   NC358847  29.068  22.544   5.282
 4544POPC   PO458848  29.161  21.909   5.375
 4544POPC   GL158849  29.179  22.204   5.736
 4544POPC   GL258850  28.859  22.369   5.703
 4544POPC   C1A58851  29.320  22.164   6.199
 4544POPC   D2A58852  29.305  22.324   6.661
 4544POPC   C3A58853  29.263  22.045   7.078
 4544POPC   C4A58854  29.443  21.969   7.519
 4544POPC   C1B58855  28.885  22.427   6.132
 4544POPC   C2B58856  28.773  22.368   6.546
 4544POPC   C3B58857  28.880  22.383   6.976
 4544POPC   C4B58858  28.657  22.410   7.358
 4545POPC   NC358859   4.406  24.237   5.035
 4545POPC   PO458860   4.063  23.747   5.193
 4545POPC   GL158861   4.010  23.617   5.682
 4545POPC   GL258862   3.780  23.891   5.813
 4545POPC   C1A58863   4.278  23.672   6.122
 4545POPC   D2A58864   4.547  23.606   6.552
 4545POPC   C3A58865   4.418  23.623   7.043
 4545POPC   C4A58866   4.154  23.915   7.340
 4545POPC   C1B58867   3.780  23.648   6.197
 4545POPC   C2B58868   4.033  23.582   6.585
 4545POPC   C3B58869   3.904  23.622   7.001
 4545POPC   C4B58870   3.587  23.834   7.214
 4546POPC   NC358871   1.877   8.344   5.317
 4546POPC   PO458872   1.771   7.777   5.678
 4546POPC   GL158873   2.072   8.104   5.829
 4546POPC   GL258874   2.053   8.495   5.780
 4546POPC   C1A58875   2.094   8.031   6.260
 4546POPC   D2A58876   1.963   7.744   6.550
 4546POPC   C3A58877   2.187   7.832   6.894
 4546POPC   C4A58878   2.122   8.143   7.201
 4546POPC   C1B58879   1.852   8.472   6.195
 4546POPC   C2B58880   1.968   8.349   6.646
 4546POPC   C3B58881   1.741   8.438   7.022
 4546POPC   C4B58882   1.954   8.607   7.401
 4547POPC   NC358883  24.890  29.982   5.268
 4547POPC   PO458884  25.564  29.712   5.253
 4547POPC   GL158885  25.265  29.740   5.586
 4547POPC   GL258886  25.420  30.006   5.755
 4547POPC   C1A58887  25.030  29.752   5.998
 4547POPC   D2A58888  24.923  29.861   6.448
 4547POPC   C3A58889  25.178  29.778   6.858
 4547POPC   C4A58890  25.116  29.751   7.323
 4547POPC   C1B58891  25.364  30.102   6.193
 4547POPC   C2B58892  25.287  30.235   6.625
 4547POPC   C3B58893  25.435  30.356   7.042
 4547POPC   C4B58894  25.524  30.066   7.377
 4548POPC   NC358895  24.209  19.179   5.439
 4548POPC   PO458896  23.641  18.768   5.468
 4548POPC   GL158897  23.559  19.078   5.825
 4548POPC   GL258898  23.314  19.375   5.779
 4548POPC   C1A58899  23.671  19.019   6.254
 4548POPC   D2A58900  23.864  18.814   6.590
 4548POPC   C3A58901  23.685  18.897   6.984
 4548POPC   C4A58902  23.926  19.212   7.224
 4548POPC   C1B58903  23.418  19.454   6.232
 4548POPC   C2B58904  23.540  19.285   6.692
 4548POPC   C3B58905  23.440  19.330   7.168
 4548POPC   C4B58906  23.343  19.190   7.636
 4549POPC   NC358907  13.032  13.763   5.411
 4549POPC   PO458908  12.521  13.337   5.436
 4549POPC   GL158909  12.760  13.530   5.783
 4549POPC   GL258910  13.107  13.413   5.791
 4549POPC   C1A58911  12.935  13.815   6.082
 4549POPC   D2A58912  13.013  13.887   6.493
 4549POPC   C3A58913  12.763  13.703   6.805
 4549POPC   C4A58914  12.672  13.743   7.253
 4549POPC   C1B58915  13.108  13.256   6.206
 4549POPC   C2B58916  13.221  13.420   6.628
 4549POPC   C3B58917  13.107  13.405   7.070
 4549POPC   C4B58918  13.108  13.536   7.511
 4550POPC   NC358919  10.566   3.626   5.229
 4550POPC   PO458920  10.207   3.079   5.457
 4550POPC   GL158921  10.277   3.501   5.687
 4550POPC   GL258922  10.595   3.754   5.710
 4550POPC   C1A58923  10.357   3.593   6.116
 4550POPC   D2A58924  10.589   3.663   6.459
 4550POPC   C3A58925  10.423   3.483   6.821
 4550POPC   C4A58926  10.705   3.427   7.129
 4550POPC   C1B58927  10.734   3.989   6.075
 4550POPC   C2B58928  10.699   4.176   6.504
 4550POPC   C3B58929  10.667   3.943   6.881
 4550POPC   C4B58930  10.366   3.835   7.178
 4551POPC   NC358931  35.658  16.388   5.493
 4551POPC   PO458932  35.723  16.912   5.042
 4551POPC   GL158933  35.283  16.686   5.562
 4551POPC   GL258934  35.187  16.964   5.788
 4551POPC   C1A58935  35.256  16.542   6.069
 4551POPC   D2A58936  35.265  16.348   6.505
 4551POPC   C3A58937  35.430  16.531   6.891
 4551POPC   C4A58938  35.242  16.480   7.261
 4551POPC   C1B58939  35.356  17.020   6.218
 4551POPC   C2B58940  35.206  16.906   6.627
 4551POPC   C3B58941  35.397  17.023   7.030
 4551POPC   C4B58942  35.241  17.147   7.401
 4552POPC   NC358943  24.663   5.575   5.352
 4552POPC   PO458944  24.377   4.960   5.512
 4552POPC   GL158945  24.597   5.190   5.807
 4552POPC   GL258946  24.300   5.276   5.981
 4552POPC   C1A58947  24.814   5.090   6.210
 4552POPC   D2A58948  24.785   4.738   6.501
 4552POPC   C3A58949  24.791   4.912   6.926
 4552POPC   C4A58950  24.373   4.886   7.101
 4552POPC   C1B58951  24.188   5.005   6.299
 4552POPC   C2B58952  24.431   5.081   6.609
 4552POPC   C3B58953  24.562   5.382   6.874
 4552POPC   C4B58954  24.432   5.365   7.264
 4553POPC   NC358955  24.739  21.490   4.962
 4553POPC   PO458956  24.249  21.357   5.347
 4553POPC   GL158957  24.544  21.488   5.675
 4553POPC   GL258958  24.347  21.218   5.822
 4553POPC   C1A58959  24.792  21.365   6.085
 4553POPC   D2A58960  24.689  21.617   6.476
 4553POPC   C3A58961  24.729  21.542   6.919
 4553POPC   C4A58962  24.854  21.339   7.312
 4553POPC   C1B58963  24.312  21.484   6.153
 4553POPC   C2B58964  24.180  21.447   6.527
 4553POPC   C3B58965  24.183  21.555   6.893
 4553POPC   C4B58966  24.358  21.308   7.184
 4554POPC   NC358967  40.753   6.175   5.323
 4554POPC   PO458968  41.239   5.761   5.430
 4554POPC   GL158969  40.972   5.572   5.747
 4554POPC   GL258970  40.631   5.725   5.753
 4554POPC   C1A58971  40.974   5.721   6.185
 4554POPC   D2A58972  40.958   6.024   6.521
 4554POPC   C3A58973  41.012   5.854   6.918
 4554POPC   C4A58974  40.905   5.976   7.316
 4554POPC   C1B58975  40.465   5.652   6.193
 4554POPC   C2B58976  40.627   5.634   6.634
 4554POPC   C3B58977  40.514   5.752   7.065
 4554POPC   C4B58978  40.435   5.945   7.486
 4555POPC   NC358979   7.279   9.927   5.328
 4555POPC   PO458980   7.886   9.945   5.417
 4555POPC   GL158981   7.591   9.846   5.747
 4555POPC   GL258982   7.435   9.521   5.683
 4555POPC   C1A58983   7.486   9.805   6.198
 4555POPC   D2A58984   7.689   9.554   6.535
 4555POPC   C3A58985   7.684   9.661   6.973
 4555POPC   C4A58986   7.729  10.078   7.183
 4555POPC   C1B58987   7.281   9.358   6.091
 4555POPC   C2B58988   7.177   9.540   6.519
 4555POPC   C3B58989   7.262   9.867   6.770
 4555POPC   C4B58990   7.261   9.827   7.213
 4556POPC   NC358991  24.857  23.091   5.577
 4556POPC   PO458992  24.226  22.840   5.463
 4556POPC   GL158993  24.461  22.874   5.816
 4556POPC   GL258994  24.432  23.252   5.860
 4556POPC   C1A58995  24.669  22.983   6.201
 4556POPC   D2A58996  24.557  23.226   6.522
 4556POPC   C3A58997  24.615  23.044   6.904
 4556POPC   C4A58998  24.387  22.892   7.239
 4556POPC   C1B58999  24.131  23.333   6.237
 4556POPC   C2B59000  23.914  23.293   6.654
 4556POPC   C3B59001  23.948  23.134   7.105
 4556POPC   C4B59002  24.058  23.127   7.565
 4557POPC   NC359003  41.964  32.871   5.388
 4557POPC   PO459004  42.483  33.274   5.429
 4557POPC   GL159005  42.266  33.074   5.772
 4557POPC   GL259006  41.947  33.242   5.728
 4557POPC   C1A59007  42.301  32.891   6.207
 4557POPC   D2A59008  42.126  32.722   6.615
 4557POPC   C3A59009  42.333  32.918   6.940
 4557POPC   C4A59010  42.474  32.936   7.338
 4557POPC   C1B59011  41.995  33.338   6.169
 4557POPC   C2B59012  42.187  33.259   6.568
 4557POPC   C3B59013  42.270  33.420   6.971
 4557POPC   C4B59014  42.087  33.271   7.349
 4558POPC   NC359015  19.747  13.390   5.234
 4558POPC   PO459016  20.233  13.848   5.355
 4558POPC   GL159017  19.832  13.735   5.636
 4558POPC   GL259018  19.715  13.384   5.735
 4558POPC   C1A59019  19.664  13.774   6.087
 4558POPC   D2A59020  19.946  13.673   6.427
 4558POPC   C3A59021  19.923  13.629   6.882
 4558POPC   C4A59022  20.166  13.853   7.218
 4558POPC   C1B59023  19.798  13.275   6.159
 4558POPC   C2B59024  19.695  13.221   6.584
 4558POPC   C3B59025  19.627  13.235   7.005
 4558POPC   C4B59026  19.526  13.312   7.419
 4559POPC   NC359027  24.622   3.086   5.216
 4559POPC   PO459028  24.218   2.626   5.513
 4559POPC   GL159029  24.328   2.920   5.806
 4559POPC   GL259030  24.701   2.985   5.770
 4559POPC   C1A59031  24.194   2.976   6.257
 4559POPC   D2A59032  24.437   3.009   6.672
 4559POPC   C3A59033  24.216   2.978   7.092
 4559POPC   C4A59034  23.998   2.621   7.309
 4559POPC   C1B59035  24.647   2.777   6.181
 4559POPC   C2B59036  24.337   2.549   6.485
 4559POPC   C3B59037  24.381   2.540   6.929
 4559POPC   C4B59038  24.527   2.619   7.391
 4560POPC   NC359039  17.064  43.069   5.496
 4560POPC   PO459040  16.544  43.510   5.386
 4560POPC   GL159041  16.624  43.203   5.762
 4560POPC   GL259042  16.541  42.861   5.641
 4560POPC   C1A59043  16.867  43.072   6.180
 4560POPC   D2A59044  17.083  43.212   6.599
 4560POPC   C3A59045  16.915  43.184   7.044
 4560POPC   C4A59046  16.708  43.146   7.471
 4560POPC   C1B59047  16.404  42.832   6.077
 4560POPC   C2B59048  16.475  42.979   6.519
 4560POPC   C3B59049  16.553  42.817   6.942
 4560POPC   C4B59050  16.594  42.653   7.369
 4561POPC   NC359051  24.595  37.085   5.347
 4561POPC   PO459052  24.145  36.595   5.198
 4561POPC   GL159053  24.250  36.798   5.620
 4561POPC   GL259054  24.571  36.671   5.764
 4561POPC   C1A59055  24.262  36.943   6.073
 4561POPC   D2A59056  24.515  36.962   6.490
 4561POPC   C3A59057  24.335  36.973   6.904
 4561POPC   C4A59058  24.333  36.788   7.327
 4561POPC   C1B59059  24.856  36.874   6.072
 4561POPC   C2B59060  25.060  37.038   6.451
 4561POPC   C3B59061  24.906  37.006   6.871
 4561POPC   C4B59062  24.718  37.126   7.247
 4562POPC   NC359063  19.882  36.837   5.339
 4562POPC   PO459064  19.313  36.510   5.390
 4562POPC   GL159065  19.712  36.518   5.743
 4562POPC   GL259066  20.073  36.673   5.805
 4562POPC   C1A59067  19.742  36.661   6.224
 4562POPC   D2A59068  19.610  36.910   6.634
 4562POPC   C3A59069  19.730  36.974   7.102
 4562POPC   C4A59070  20.026  37.170   7.408
 4562POPC   C1B59071  20.240  36.579   6.249
 4562POPC   C2B59072  20.110  36.684   6.716
 4562POPC   C3B59073  20.112  36.655   7.194
 4562POPC   C4B59074  20.054  36.629   7.654
 4563POPC   NC359075  40.398  17.900   5.434
 4563POPC   PO459076  40.101  17.329   5.653
 4563POPC   GL159077  40.115  17.544   5.950
 4563POPC   GL259078  39.815  17.711   5.912
 4563POPC   C1A59079  40.126  17.379   6.342
 4563POPC   D2A59080  39.878  17.291   6.674
 4563POPC   C3A59081  40.110  17.165   7.015
 4563POPC   C4A59082  39.875  17.161   7.377
 4563POPC   C1B59083  39.833  17.816   6.349
 4563POPC   C2B59084  39.566  17.701   6.720
 4563POPC   C3B59085  39.797  17.649   7.104
 4563POPC   C4B59086  40.133  17.979   7.170
 4564POPC   NC359087  11.624  12.765   5.168
 4564POPC   PO459088  11.987  13.133   5.593
 4564POPC   GL159089  11.936  12.779   5.812
 4564POPC   GL259090  12.288  12.787   5.943
 4564POPC   C1A59091  11.925  12.587   6.229
 4564POPC   D2A59092  11.903  12.793   6.630
 4564POPC   C3A59093  11.951  12.558   6.999
 4564POPC   C4A59094  12.250  12.646   7.301
 4564POPC   C1B59095  12.071  13.082   6.244
 4564POPC   C2B59096  12.173  13.212   6.664
 4564POPC   C3B59097  12.096  13.077   7.097
 4564POPC   C4B59098  12.260  13.097   7.556
 4565POPC   NC359099  39.685  33.678   5.468
 4565POPC   PO459100  39.028  33.461   5.473
 4565POPC   GL159101  39.262  33.571   5.799
 4565POPC   GL259102  39.276  33.918   5.746
 4565POPC   C1A59103  39.367  33.522   6.220
 4565POPC   D2A59104  39.304  33.746   6.605
 4565POPC   C3A59105  39.268  33.488   6.952
 4565POPC   C4A59106  39.207  33.663   7.332
 4565POPC   C1B59107  39.325  34.053   6.187
 4565POPC   C2B59108  39.160  34.267   6.558
 4565POPC   C3B59109  39.084  34.116   6.997
 4565POPC   C4B59110  39.135  34.148   7.492
 4566POPC   NC359111  41.217  18.474   5.441
 4566POPC   PO459112  41.853  18.671   5.397
 4566POPC   GL159113  41.660  18.294   5.647
 4566POPC   GL259114  41.363  18.366   5.903
 4566POPC   C1A59115  41.738  18.066   6.046
 4566POPC   D2A59116  41.401  18.072   6.373
 4566POPC   C3A59117  41.509  18.214   6.785
 4566POPC   C4A59118  41.569  18.248   7.228
 4566POPC   C1B59119  41.151  18.507   6.272
 4566POPC   C2B59120  41.282  18.689   6.644
 4566POPC   C3B59121  41.382  18.674   7.054
 4566POPC   C4B59122  41.305  18.587   7.519
 4567POPC   NC359123  40.855  25.119   5.166
 4567POPC   PO459124  40.821  25.483   5.763
 4567POPC   GL159125  40.682  25.179   6.013
 4567POPC   GL259126  41.015  24.989   5.971
 4567POPC   C1A59127  40.452  25.210   6.382
 4567POPC   D2A59128  40.226  25.519   6.637
 4567POPC   C3A59129  40.394  25.534   7.040
 4567POPC   C4A59130  40.701  25.714   7.239
 4567POPC   C1B59131  40.989  25.171   6.408
 4567POPC   C2B59132  40.765  25.344   6.770
 4567POPC   C3B59133  40.722  25.146   7.182
 4567POPC   C4B59134  40.965  25.115   7.571
 4568POPC   NC359135   3.728  21.773   5.225
 4568POPC   PO459136   3.392  22.335   5.482
 4568POPC   GL159137   3.425  22.181   5.868
 4568POPC   GL259138   3.725  22.333   5.981
 4568POPC   C1A59139   3.288  21.960   6.260
 4568POPC   D2A59140   3.425  21.820   6.681
 4568POPC   C3A59141   3.712  22.097   6.919
 4568POPC   C4A59142   3.665  22.377   7.293
 4568POPC   C1B59143   3.753  22.113   6.354
 4568POPC   C2B59144   3.892  21.711   6.456
 4568POPC   C3B59145   4.019  21.676   6.860
 4568POPC   C4B59146   3.765  21.645   7.185
 4569POPC   NC359147  33.798  32.016   5.343
 4569POPC   PO459148  33.603  32.679   5.370
 4569POPC   GL159149  33.610  32.393   5.698
 4569POPC   GL259150  33.951  32.296   5.750
 4569POPC   C1A59151  33.706  32.536   6.129
 4569POPC   D2A59152  33.646  32.360   6.534
 4569POPC   C3A59153  33.822  32.539   6.883
 4569POPC   C4A59154  33.583  32.360   7.199
 4569POPC   C1B59155  33.813  32.033   6.114
 4569POPC   C2B59156  33.973  31.949   6.524
 4569POPC   C3B59157  33.937  32.023   6.969
 4569POPC   C4B59158  34.197  31.839   7.276
 4570POPC   NC359159  33.372  23.468   5.421
 4570POPC   PO459160  32.874  23.953   5.449
 4570POPC   GL159161  33.077  23.719   5.750
 4570POPC   GL259162  33.356  23.922   5.683
 4570POPC   C1A59163  32.923  23.544   6.150
 4570POPC   D2A59164  32.620  23.734   6.438
 4570POPC   C3A59165  32.765  23.741   6.859
 4570POPC   C4A59166  32.820  23.400   7.151
 4570POPC   C1B59167  33.422  23.693   6.121
 4570POPC   C2B59168  33.197  23.751   6.554
 4570POPC   C3B59169  33.241  23.674   7.015
 4570POPC   C4B59170  33.435  23.875   7.359
 4571POPC   NC359171   2.264  31.061   5.522
 4571POPC   PO459172   1.812  31.591   5.349
 4571POPC   GL159173   1.910  31.493   5.780
 4571POPC   GL259174   2.247  31.443   5.880
 4571POPC   C1A59175   1.889  31.637   6.225
 4571POPC   D2A59176   2.151  31.557   6.525
 4571POPC   C3A59177   2.025  31.396   6.899
 4571POPC   C4A59178   1.954  31.352   7.356
 4571POPC   C1B59179   2.396  31.799   6.113
 4571POPC   C2B59180   2.252  32.052   6.455
 4571POPC   C3B59181   2.298  31.896   6.886
 4571POPC   C4B59182   2.385  31.567   7.180
 4572POPC   NC359183  36.438  30.090   5.401
 4572POPC   PO459184  35.712  29.800   5.469
 4572POPC   GL159185  36.052  29.976   5.705
 4572POPC   GL259186  35.841  30.010   5.911
 4572POPC   C1A59187  36.292  29.813   6.098
 4572POPC   D2A59188  36.212  29.717   6.564
 4572POPC   C3A59189  36.346  29.874   6.987
 4572POPC   C4A59190  36.306  30.131   7.374
 4572POPC   C1B59191  35.788  29.787   6.248
 4572POPC   C2B59192  35.777  30.014   6.613
 4572POPC   C3B59193  35.856  30.009   7.042
 4572POPC   C4B59194  35.694  30.001   7.454
 4573POPC   NC359195  39.142  24.766   5.357
 4573POPC   PO459196  39.501  24.187   5.371
 4573POPC   GL159197  39.301  24.396   5.694
 4573POPC   GL259198  38.975  24.315   5.752
 4573POPC   C1A59199  39.340  24.520   6.124
 4573POPC   D2A59200  39.426  24.216   6.450
 4573POPC   C3A59201  39.475  24.409   6.869
 4573POPC   C4A59202  39.420  24.426   7.286
 4573POPC   C1B59203  38.918  24.235   6.232
 4573POPC   C2B59204  38.997  24.353   6.677
 4573POPC   C3B59205  38.964  24.530   7.081
 4573POPC   C4B59206  38.972  24.408   7.513
 4574POPC   NC359207  19.201   3.190   5.553
 4574POPC   PO459208  18.949   3.790   5.319
 4574POPC   GL159209  19.068   3.648   5.747
 4574POPC   GL259210  19.390   3.811   5.809
 4574POPC   C1A59211  18.978   3.422   6.152
 4574POPC   D2A59212  18.777   3.437   6.560
 4574POPC   C3A59213  18.976   3.406   6.918
 4574POPC   C4A59214  18.728   3.660   7.168
 4574POPC   C1B59215  19.463   3.568   6.168
 4574POPC   C2B59216  19.250   3.641   6.550
 4574POPC   C3B59217  19.216   3.865   6.941
 4574POPC   C4B59218  19.436   3.749   7.310
 4575POPC   NC359219  30.743   8.391   5.405
 4575POPC   PO459220  30.805   7.649   5.452
 4575POPC   GL159221  30.645   7.995   5.731
 4575POPC   GL259222  30.904   8.267   5.876
 4575POPC   C1A59223  30.638   8.002   6.192
 4575POPC   D2A59224  30.859   8.119   6.516
 4575POPC   C3A59225  30.697   7.967   6.889
 4575POPC   C4A59226  31.019   8.147   7.099
 4575POPC   C1B59227  30.615   8.520   6.145
 4575POPC   C2B59228  30.500   8.468   6.596
 4575POPC   C3B59229  30.689   8.508   6.981
 4575POPC   C4B59230  30.497   8.459   7.382
 4576POPC   NC359231  31.315  43.060   5.443
 4576POPC   PO459232  31.837  43.482   5.302
 4576POPC   GL159233  31.742  43.092   5.688
 4576POPC   GL259234  31.928  42.803   5.750
 4576POPC   C1A59235  31.403  42.996   6.080
 4576POPC   D2A59236  31.295  43.312   6.435
 4576POPC   C3A59237  31.431  43.271   6.862
 4576POPC   C4A59238  31.224  43.089   7.203
 4576POPC   C1B59239  31.898  42.980   6.183
 4576POPC   C2B59240  31.647  42.913   6.560
 4576POPC   C3B59241  31.760  42.904   7.003
 4576POPC   C4B59242  31.667  42.979   7.425
 4577POPC   NC359243  18.762   4.173   5.152
 4577POPC   PO459244  19.331   4.529   5.335
 4577POPC   GL159245  19.213   4.635   5.767
 4577POPC   GL259246  18.838   4.531   5.735
 4577POPC   C1A59247  19.155   4.514   6.231
 4577POPC   D2A59248  19.355   4.303   6.607
 4577POPC   C3A59249  19.204   4.395   7.035
 4577POPC   C4A59250  19.156   4.175   7.443
 4577POPC   C1B59251  18.745   4.224   6.113
 4577POPC   C2B59252  18.889   4.018   6.535
 4577POPC   C3B59253  18.765   4.136   6.987
 4577POPC   C4B59254  18.761   4.484   7.309
 4578POPC   NC359255  27.081  17.815   5.324
 4578POPC   PO459256  26.435  17.705   5.473
 4578POPC   GL159257  26.686  17.487   5.766
 4578POPC   GL259258  27.042  17.507   5.756
 4578POPC   C1A59259  26.667  17.290   6.153
 4578POPC   D2A59260  26.681  17.493   6.550
 4578POPC   C3A59261  26.528  17.561   6.922
 4578POPC   C4A59262  26.526  17.312   7.274
 4578POPC   C1B59263  26.988  17.693   6.190
 4578POPC   C2B59264  27.110  17.748   6.682
 4578POPC   C3B59265  26.978  17.692   7.151
 4578POPC   C4B59266  27.129  17.782   7.606
 4579POPC   NC359267  28.989  14.056   5.292
 4579POPC   PO459268  29.430  13.562   5.121
 4579POPC   GL159269  29.336  13.535   5.612
 4579POPC   GL259270  29.450  13.257   5.804
 4579POPC   C1A59271  29.172  13.617   6.077
 4579POPC   D2A59272  28.995  13.423   6.473
 4579POPC   C3A59273  29.092  13.553   6.927
 4579POPC   C4A59274  28.943  13.692   7.338
 4579POPC   C1B59275  29.407  13.189   6.263
 4579POPC   C2B59276  29.571  13.410   6.639
 4579POPC   C3B59277  29.614  13.291   7.061
 4579POPC   C4B59278  29.433  13.482   7.408
 4580POPC   NC359279  41.161  39.796   5.565
 4580POPC   PO459280  40.530  39.885   5.356
 4580POPC   GL159281  40.746  40.092   5.744
 4580POPC   GL259282  40.919  40.403   5.632
 4580POPC   C1A59283  40.546  40.153   6.201
 4580POPC   D2A59284  40.402  40.064   6.647
 4580POPC   C3A59285  40.673  39.901   7.016
 4580POPC   C4A59286  40.826  39.575   7.364
 4580POPC   C1B59287  40.918  40.485   6.082
 4580POPC   C2B59288  41.051  40.236   6.434
 4580POPC   C3B59289  41.156  40.309   6.855
 4580POPC   C4B59290  40.916  40.404   7.177
 4581POPC   NC359291  26.593  21.207   5.461
 4581POPC   PO459292  27.140  20.859   5.667
 4581POPC   GL159293  26.868  21.126   5.884
 4581POPC   GL259294  26.866  21.476   5.831
 4581POPC   C1A59295  26.831  21.272   6.313
 4581POPC   D2A59296  26.472  21.194   6.535
 4581POPC   C3A59297  26.493  21.377   6.924
 4581POPC   C4A59298  26.822  21.344   7.188
 4581POPC   C1B59299  26.499  21.579   6.090
 4581POPC   C2B59300  26.528  21.697   6.509
 4581POPC   C3B59301  26.771  21.813   6.888
 4581POPC   C4B59302  26.570  21.791   7.281
 4582POPC   NC359303  44.289  30.202   5.458
 4582POPC   PO459304  44.884  30.431   5.605
 4582POPC   GL159305  44.861  30.669   5.900
 4582POPC   GL259306  44.496  30.734   5.851
 4582POPC   C1A59307  44.832  30.605   6.316
 4582POPC   D2A59308  44.822  30.723   6.713
 4582POPC   C3A59309  44.601  30.472   6.978
 4582POPC   C4A59310  44.684  30.460   7.411
 4582POPC   C1B59311  44.229  30.573   6.157
 4582POPC   C2B59312  44.334  30.695   6.561
 4582POPC   C3B59313  44.374  30.933   6.936
 4582POPC   C4B59314  44.332  30.818   7.324
 4583POPC   NC359315  18.750  32.796   5.679
 4583POPC   PO459316  19.090  33.335   5.354
 4583POPC   GL159317  19.298  33.073   5.634
 4583POPC   GL259318  19.036  33.171   5.883
 4583POPC   C1A59319  19.420  32.884   6.039
 4583POPC   D2A59320  19.207  33.083   6.385
 4583POPC   C3A59321  19.278  33.070   6.814
 4583POPC   C4A59322  19.325  32.792   7.148
 4583POPC   C1B59323  18.791  33.347   6.230
 4583POPC   C2B59324  18.845  33.515   6.583
 4583POPC   C3B59325  18.940  33.430   6.965
 4583POPC   C4B59326  18.894  33.103   7.183
 4584POPC   NC359327   2.289   1.149   5.479
 4584POPC   PO459328   1.917   1.625   5.606
 4584POPC   GL159329   2.173   1.441   5.898
 4584POPC   GL259330   1.961   1.167   5.896
 4584POPC   C1A59331   2.207   1.308   6.345
 4584POPC   D2A59332   1.854   1.312   6.646
 4584POPC   C3A59333   1.960   1.060   7.008
 4584POPC   C4A59334   2.092   1.244   7.356
 4584POPC   C1B59335   1.687   0.907   6.186
 4584POPC   C2B59336   1.653   0.850   6.613
 4584POPC   C3B59337   1.460   1.015   6.970
 4584POPC   C4B59338   1.548   1.099   7.395
 4585POPC   NC359339  29.235  14.863   5.406
 4585POPC   PO459340  28.736  14.416   5.435
 4585POPC   GL159341  29.062  14.419   5.832
 4585POPC   GL259342  29.302  14.734   5.888
 4585POPC   C1A59343  29.309  14.130   6.173
 4585POPC   D2A59344  29.297  13.859   6.576
 4585POPC   C3A59345  29.131  14.084   6.996
 4585POPC   C4A59346  29.143  14.518   7.157
 4585POPC   C1B59347  29.554  14.580   6.227
 4585POPC   C2B59348  29.444  14.435   6.650
 4585POPC   C3B59349  29.602  14.721   6.976
 4585POPC   C4B59350  29.589  14.821   7.433
 4586POPC   NC359351  13.049  34.090   5.346
 4586POPC   PO459352  12.550  33.692   5.205
 4586POPC   GL159353  12.667  33.873   5.661
 4586POPC   GL259354  13.024  33.908   5.817
 4586POPC   C1A59355  12.638  33.785   6.108
 4586POPC   D2A59356  12.911  33.561   6.395
 4586POPC   C3A59357  12.764  33.522   6.783
 4586POPC   C4A59358  13.025  33.482   7.138
 4586POPC   C1B59359  13.085  34.017   6.250
 4586POPC   C2B59360  12.856  34.009   6.635
 4586POPC   C3B59361  12.860  33.986   7.084
 4586POPC   C4B59362  12.559  34.285   7.249
 4587POPC   NC359363  24.107  19.802   5.005
 4587POPC   PO459364  23.588  19.740   5.251
 4587POPC   GL159365  23.681  19.740   5.704
 4587POPC   GL259366  23.445  19.976   5.769
 4587POPC   C1A59367  23.861  19.693   6.145
 4587POPC   D2A59368  23.666  19.757   6.565
 4587POPC   C3A59369  23.819  19.664   6.970
 4587POPC   C4A59370  23.771  19.961   7.304
 4587POPC   C1B59371  23.495  20.052   6.188
 4587POPC   C2B59372  23.316  20.156   6.597
 4587POPC   C3B59373  23.380  19.953   6.981
 4587POPC   C4B59374  23.284  20.171   7.362
 4588POPC   NC359375  42.314  42.040   5.530
 4588POPC   PO459376  42.508  41.347   5.400
 4588POPC   GL159377  42.437  41.612   5.791
 4588POPC   GL259378  42.070  41.649   5.863
 4588POPC   C1A59379  42.415  41.718   6.259
 4588POPC   D2A59380  42.413  41.900   6.663
 4588POPC   C3A59381  42.338  41.641   6.994
 4588POPC   C4A59382  42.502  41.612   7.381
 4588POPC   C1B59383  42.056  41.352   6.238
 4588POPC   C2B59384  42.008  41.442   6.655
 4588POPC   C3B59385  42.088  41.214   7.028
 4588POPC   C4B59386  42.190  41.250   7.484
 4589POPC   NC359387  11.917   9.424   5.282
 4589POPC   PO459388  12.066  10.075   5.344
 4589POPC   GL159389  12.049   9.746   5.675
 4589POPC   GL259390  11.758   9.614   5.750
 4589POPC   C1A59391  12.111   9.690   6.116
 4589POPC   D2A59392  12.231   9.872   6.499
 4589POPC   C3A59393  12.084  10.118   6.805
 4589POPC   C4A59394  12.039  10.016   7.234
 4589POPC   C1B59395  11.653   9.430   6.159
 4589POPC   C2B59396  11.970   9.375   6.513
 4589POPC   C3B59397  12.001   9.572   6.912
 4589POPC   C4B59398  11.848   9.300   7.214
 4590POPC   NC359399  25.534  16.983   5.468
 4590POPC   PO459400  25.500  16.288   5.362
 4590POPC   GL159401  25.482  16.370   5.839
 4590POPC   GL259402  25.355  16.737   5.889
 4590POPC   C1A59403  25.448  16.319   6.314
 4590POPC   D2A59404  25.602  16.589   6.665
 4590POPC   C3A59405  25.365  16.610   7.032
 4590POPC   C4A59406  25.117  16.333   7.258
 4590POPC   C1B59407  25.210  17.008   6.233
 4590POPC   C2B59408  25.201  16.931   6.660
 4590POPC   C3B59409  25.047  17.064   7.049
 4590POPC   C4B59410  24.867  17.155   7.430
 4591POPC   NC359411   5.462  38.131   5.392
 4591POPC   PO459412   5.771  38.844   5.288
 4591POPC   GL159413   5.924  38.726   5.710
 4591POPC   GL259414   5.734  38.409   5.784
 4591POPC   C1A59415   5.897  38.710   6.176
 4591POPC   D2A59416   6.097  38.473   6.500
 4591POPC   C3A59417   6.049  38.675   6.894
 4591POPC   C4A59418   5.773  38.659   7.225
 4591POPC   C1B59419   5.737  38.204   6.213
 4591POPC   C2B59420   5.652  38.302   6.678
 4591POPC   C3B59421   5.858  38.191   7.078
 4591POPC   C4B59422   5.759  38.252   7.530
 4592POPC   NC359423  41.978  41.334   5.380
 4592POPC   PO459424  42.157  40.681   5.501
 4592POPC   GL159425  42.162  40.851   5.912
 4592POPC   GL259426  42.225  41.154   5.811
 4592POPC   C1A59427  42.298  40.872   6.358
 4592POPC   D2A59428  42.386  40.823   6.806
 4592POPC   C3A59429  42.049  40.734   7.102
 4592POPC   C4A59430  41.938  40.428   7.337
 4592POPC   C1B59431  42.550  41.243   6.140
 4592POPC   C2B59432  42.535  41.307   6.628
 4592POPC   C3B59433  42.586  41.183   7.098
 4592POPC   C4B59434  42.483  40.813   7.372
 4593POPC   NC359435  31.796  15.175   5.516
 4593POPC   PO459436  31.171  14.987   5.443
 4593POPC   GL159437  31.395  15.076   5.825
 4593POPC   GL259438  31.688  14.848   5.893
 4593POPC   C1A59439  31.273  15.342   6.173
 4593POPC   D2A59440  31.426  15.316   6.593
 4593POPC   C3A59441  31.272  15.020   6.884
 4593POPC   C4A59442  31.208  15.272   7.227
 4593POPC   C1B59443  31.751  15.192   6.215
 4593POPC   C2B59444  31.924  15.299   6.650
 4593POPC   C3B59445  31.703  15.250   7.053
 4593POPC   C4B59446  31.551  14.856   7.291
 4594POPC   NC359447   5.301   8.665   5.224
 4594POPC   PO459448   5.054   8.057   5.340
 4594POPC   GL159449   5.104   8.135   5.794
 4594POPC   GL259450   4.784   7.929   5.866
 4594POPC   C1A59451   5.307   8.266   6.210
 4594POPC   D2A59452   5.199   8.448   6.631
 4594POPC   C3A59453   5.320   8.200   7.026
 4594POPC   C4A59454   5.320   7.905   7.373
 4594POPC   C1B59455   4.813   8.199   6.220
 4594POPC   C2B59456   4.639   8.259   6.598
 4594POPC   C3B59457   4.840   8.335   6.989
 4594POPC   C4B59458   4.887   8.163   7.430
 4595POPC   NC359459  43.727  14.090   5.196
 4595POPC   PO459460  43.882  13.391   5.362
 4595POPC   GL159461  43.991  13.448   5.816
 4595POPC   GL259462  43.869  13.732   6.038
 4595POPC   C1A59463  44.040  13.254   6.236
 4595POPC   D2A59464  43.871  13.222   6.656
 4595POPC   C3A59465  44.002  13.505   6.972
 4595POPC   C4A59466  43.962  13.412   7.367
 4595POPC   C1B59467  43.671  14.107   6.260
 4595POPC   C2B59468  43.568  14.325   6.632
 4595POPC   C3B59469  43.346  14.091   6.931
 4595POPC   C4B59470  43.704  13.989   7.137
 4596POPC   NC359471  17.097  34.882   5.182
 4596POPC   PO459472  16.517  34.486   5.237
 4596POPC   GL159473  16.575  34.522   5.736
 4596POPC   GL259474  16.513  34.873   5.849
 4596POPC   C1A59475  16.778  34.452   6.182
 4596POPC   D2A59476  16.899  34.238   6.596
 4596POPC   C3A59477  16.801  34.376   7.008
 4596POPC   C4A59478  17.011  34.585   7.370
 4596POPC   C1B59479  16.752  34.953   6.247
 4596POPC   C2B59480  16.867  34.750   6.643
 4596POPC   C3B59481  16.628  34.849   7.047
 4596POPC   C4B59482  16.686  34.976   7.484
 4597POPC   NC359483  21.515  16.931   5.249
 4597POPC   PO459484  21.440  16.350   5.320
 4597POPC   GL159485  21.663  16.618   5.678
 4597POPC   GL259486  21.525  16.987   5.772
 4597POPC   C1A59487  21.750  16.725   6.154
 4597POPC   D2A59488  21.458  16.757   6.532
 4597POPC   C3A59489  21.418  16.531   6.928
 4597POPC   C4A59490  21.220  16.535   7.330
 4597POPC   C1B59491  21.229  17.062   6.156
 4597POPC   C2B59492  21.164  17.184   6.608
 4597POPC   C3B59493  21.267  17.018   7.025
 4597POPC   C4B59494  21.230  17.019   7.506
 4598POPC   NC359495  35.301  19.531   5.390
 4598POPC   PO459496  35.132  20.198   5.576
 4598POPC   GL159497  35.426  19.990   5.865
 4598POPC   GL259498  35.508  19.649   5.839
 4598POPC   C1A59499  35.427  19.859   6.298
 4598POPC   D2A59500  35.142  19.964   6.601
 4598POPC   C3A59501  35.275  19.893   6.989
 4598POPC   C4A59502  35.567  20.126   7.197
 4598POPC   C1B59503  35.740  19.427   6.177
 4598POPC   C2B59504  35.644  19.329   6.653
 4598POPC   C3B59505  35.566  19.483   7.071
 4598POPC   C4B59506  35.829  19.709   7.370
 4599POPC   NC359507  43.269   6.362   5.038
 4599POPC   PO459508  42.985   5.811   5.318
 4599POPC   GL159509  42.996   5.812   5.757
 4599POPC   GL259510  42.897   6.142   5.845
 4599POPC   C1A59511  43.160   5.701   6.180
 4599POPC   D2A59512  43.021   5.871   6.582
 4599POPC   C3A59513  43.073   5.644   6.965
 4599POPC   C4A59514  43.357   5.665   7.261
 4599POPC   C1B59515  42.815   6.260   6.261
 4599POPC   C2B59516  43.026   6.375   6.625
 4599POPC   C3B59517  43.168   6.172   7.001
 4599POPC   C4B59518  42.881   6.015   7.298
 4600POPC   NC359519  15.255   0.775   5.511
 4600POPC   PO459520  15.538   0.198   5.194
 4600POPC   GL159521  15.420   0.314   5.680
 4600POPC   GL259522  15.021   0.390   5.744
 4600POPC   C1A59523  15.353   0.444   6.140
 4600POPC   D2A59524  15.432   0.345   6.595
 4600POPC   C3A59525  15.211   0.507   6.971
 4600POPC   C4A59526  15.044   0.502   7.402
 4600POPC   C1B59527  14.839   0.433   6.179
 4600POPC   C2B59528  14.902   0.242   6.621
 4600POPC   C3B59529  14.953   0.104   7.089
 4600POPC   C4B59530  14.865   0.033   7.583
 4601POPC   NC359531  32.708   3.006   5.398
 4601POPC   PO459532  33.092   2.508   5.631
 4601POPC   GL159533  33.054   2.741   5.997
 4601POPC   GL259534  32.761   2.860   5.885
 4601POPC   C1A59535  32.814   2.792   6.400
 4601POPC   D2A59536  32.846   3.111   6.705
 4601POPC   C3A59537  33.064   2.885   7.036
 4601POPC   C4A59538  33.408   2.549   7.112
 4601POPC   C1B59539  32.527   2.495   6.080
 4601POPC   C2B59540  32.549   2.291   6.498
 4601POPC   C3B59541  32.777   2.306   6.885
 4601POPC   C4B59542  32.948   2.430   7.279
 4602POPC   NC359543  16.226  42.542   5.352
 4602POPC   PO459544  16.947  42.596   5.435
 4602POPC   GL159545  16.742  42.428   5.838
 4602POPC   GL259546  16.381  42.368   5.812
 4602POPC   C1A59547  16.673  42.480   6.315
 4602POPC   D2A59548  16.948  42.711   6.610
 4602POPC   C3A59549  16.959  42.505   7.015
 4602POPC   C4A59550  16.858  42.040   7.111
 4602POPC   C1B59551  16.161  42.368   6.204
 4602POPC   C2B59552  16.232  42.519   6.599
 4602POPC   C3B59553  16.434  42.322   6.964
 4602POPC   C4B59554  16.446  42.144   7.376
 4603POPC   NC359555  41.336   0.551   5.425
 4603POPC   PO459556  42.009   0.532   5.440
 4603POPC   GL159557  41.738   0.353   5.769
 4603POPC   GL259558  41.456   0.090   5.728
 4603POPC   C1A59559  41.827   0.325   6.217
 4603POPC   D2A59560  41.904   0.051   6.560
 4603POPC   C3A59561  41.746   0.165   6.943
 4603POPC   C4A59562  41.680   0.630   7.037
 4603POPC   C1B59563  41.368   0.083   6.183
 4603POPC   C2B59564  41.419   0.305   6.577
 4603POPC   C3B59565  41.267   0.306   7.009
 4603POPC   C4B59566  41.291   0.621   7.365
 4604POPC   NC359567   4.405  20.208   5.483
 4604POPC   PO459568   3.819  19.814   5.443
 4604POPC   GL159569   4.037  19.582   5.809
 4604POPC   GL259570   4.418  19.599   5.875
 4604POPC   C1A59571   4.064  19.755   6.232
 4604POPC   D2A59572   4.230  20.076   6.554
 4604POPC   C3A59573   4.161  19.984   7.002
 4604POPC   C4A59574   4.005  20.219   7.362
 4604POPC   C1B59575   4.578  19.898   6.213
 4604POPC   C2B59576   4.750  20.119   6.577
 4604POPC   C3B59577   4.670  19.869   6.938
 4604POPC   C4B59578   4.499  19.717   7.335
 4605POPC   NC359579   7.008  32.802   5.470
 4605POPC   PO459580   7.584  33.248   5.364
 4605POPC   GL159581   7.542  33.137   5.785
 4605POPC   GL259582   7.191  33.160   5.777
 4605POPC   C1A59583   7.623  32.913   6.181
 4605POPC   D2A59584   7.815  32.691   6.565
 4605POPC   C3A59585   7.737  32.964   6.925
 4605POPC   C4A59586   7.326  33.049   7.034
 4605POPC   C1B59587   7.219  33.401   6.151
 4605POPC   C2B59588   7.161  33.277   6.568
 4605POPC   C3B59589   7.030  33.479   6.937
 4605POPC   C4B59590   7.170  33.409   7.347
 4606POPC   NC359591  25.900  27.024   5.589
 4606POPC   PO459592  26.276  26.452   5.403
 4606POPC   GL159593  26.320  26.734   5.796
 4606POPC   GL259594  26.245  27.064   5.962
 4606POPC   C1A59595  26.047  26.672   6.197
 4606POPC   D2A59596  25.799  26.590   6.578
 4606POPC   C3A59597  25.993  26.610   7.015
 4606POPC   C4A59598  26.230  26.911   7.254
 4606POPC   C1B59599  26.072  27.159   6.332
 4606POPC   C2B59600  26.057  27.009   6.692
 4606POPC   C3B59601  25.720  27.063   6.889
 4606POPC   C4B59602  25.654  26.912   7.258
 4607POPC   NC359603  21.586  41.403   5.261
 4607POPC   PO459604  21.048  41.723   5.424
 4607POPC   GL159605  21.310  41.927   5.739
 4607POPC   GL259606  21.648  41.836   5.677
 4607POPC   C1A59607  21.354  41.897   6.211
 4607POPC   D2A59608  21.196  41.583   6.495
 4607POPC   C3A59609  21.268  41.651   6.920
 4607POPC   C4A59610  21.200  41.400   7.265
 4607POPC   C1B59611  21.589  41.488   5.989
 4607POPC   C2B59612  21.700  41.442   6.442
 4607POPC   C3B59613  21.708  41.378   6.902
 4607POPC   C4B59614  21.753  41.814   7.044
 4608POPC   NC359615  15.789  21.743   5.404
 4608POPC   PO459616  16.251  22.296   5.343
 4608POPC   GL159617  16.056  22.060   5.694
 4608POPC   GL259618  15.712  22.159   5.692
 4608POPC   C1A59619  16.035  22.033   6.162
 4608POPC   D2A59620  16.199  21.998   6.623
 4608POPC   C3A59621  16.055  22.079   7.058
 4608POPC   C4A59622  15.820  21.818   7.375
 4608POPC   C1B59623  15.607  22.276   6.128
 4608POPC   C2B59624  15.705  22.132   6.567
 4608POPC   C3B59625  15.547  22.082   7.006
 4608POPC   C4B59626  15.686  22.330   7.389
 4609POPC   NC359627  18.989  21.010   5.440
 4609POPC   PO459628  19.042  20.441   5.353
 4609POPC   GL159629  19.262  20.553   5.777
 4609POPC   GL259630  19.206  20.903   5.882
 4609POPC   C1A59631  19.243  20.612   6.275
 4609POPC   D2A59632  18.966  20.771   6.613
 4609POPC   C3A59633  18.925  20.575   7.009
 4609POPC   C4A59634  19.155  20.445   7.360
 4609POPC   C1B59635  18.795  20.935   6.144
 4609POPC   C2B59636  18.508  20.982   6.530
 4609POPC   C3B59637  18.648  21.007   6.977
 4609POPC   C4B59638  18.718  20.848   7.424
 4610POPC   NC359639   5.900  44.181   5.391
 4610POPC   PO459640   5.549  43.561   5.421
 4610POPC   GL159641   5.662  43.869   5.769
 4610POPC   GL259642   6.001  43.998   5.858
 4610POPC   C1A59643   5.603  43.927   6.231
 4610POPC   D2A59644   5.424  43.928   6.656
 4610POPC   C3A59645   5.750  43.804   6.952
 4610POPC   C4A59646   5.676  43.987   7.350
 4610POPC   C1B59647   6.152  43.940   6.284
 4610POPC   C2B59648   6.225  44.125   6.707
 4610POPC   C3B59649   6.142  44.098   7.161
 4610POPC   C4B59650   6.082  44.167   7.619
 4611POPC   NC359651  34.893  10.829   4.999
 4611POPC   PO459652  34.421  10.650   5.436
 4611POPC   GL159653  34.550  10.720   5.879
 4611POPC   GL259654  34.560  10.402   6.030
 4611POPC   C1A59655  34.859  10.765   6.228
 4611POPC   D2A59656  34.802  10.473   6.554
 4611POPC   C3A59657  34.810  10.717   6.913
 4611POPC   C4A59658  34.490  10.855   7.152
 4611POPC   C1B59659  34.347  10.729   6.335
 4611POPC   C2B59660  34.254  10.634   6.760
 4611POPC   C3B59661  34.408  10.337   7.062
 4611POPC   C4B59662  34.460  10.063   7.444
 4612POPC   NC359663  37.988  23.710   5.522
 4612POPC   PO459664  37.395  23.553   5.487
 4612POPC   GL159665  37.610  23.550   5.855
 4612POPC   GL259666  37.595  23.896   5.820
 4612POPC   C1A59667  37.623  23.493   6.303
 4612POPC   D2A59668  37.264  23.569   6.577
 4612POPC   C3A59669  37.440  23.557   6.978
 4612POPC   C4A59670  37.884  23.524   7.125
 4612POPC   C1B59671  37.856  23.972   6.149
 4612POPC   C2B59672  37.625  23.964   6.500
 4612POPC   C3B59673  37.711  23.981   6.893
 4612POPC   C4B59674  37.560  24.283   7.174
 4613POPC   NC359675  43.726  18.276   5.352
 4613POPC   PO459676  44.439  18.107   5.514
 4613POPC   GL159677  44.217  18.412   5.842
 4613POPC   GL259678  43.901  18.255   5.823
 4613POPC   C1A59679  43.967  18.581   6.198
 4613POPC   D2A59680  43.741  18.286   6.499
 4613POPC   C3A59681  43.963  18.242   6.877
 4613POPC   C4A59682  43.686  18.437   7.140
 4613POPC   C1B59683  44.049  18.062   6.183
 4613POPC   C2B59684  44.297  18.000   6.506
 4613POPC   C3B59685  44.215  17.761   6.838
 4613POPC   C4B59686  43.954  17.820   7.190
 4614POPC   NC359687  43.980   8.317   5.353
 4614POPC   PO459688  43.484   7.929   5.213
 4614POPC   GL159689  43.668   7.994   5.686
 4614POPC   GL259690  43.815   8.321   5.853
 4614POPC   C1A59691  43.825   7.892   6.138
 4614POPC   D2A59692  43.920   8.090   6.547
 4614POPC   C3A59693  43.768   7.985   6.984
 4614POPC   C4A59694  43.885   8.108   7.424
 4614POPC   C1B59695  43.941   8.539   6.268
 4614POPC   C2B59696  44.116   8.534   6.699
 4614POPC   C3B59697  44.012   8.506   7.133
 4614POPC   C4B59698  44.003   8.566   7.607
 4615POPC   NC359699  33.934   0.157   5.462
 4615POPC   PO459700  33.557   0.726   5.707
 4615POPC   GL159701  33.740   0.356   5.880
 4615POPC   GL259702  34.061   0.254   5.983
 4615POPC   C1A59703  33.654   0.125   6.252
 4615POPC   D2A59704  33.854   0.086   6.650
 4615POPC   C3A59705  33.600   0.272   6.943
 4615POPC   C4A59706  33.585   0.294   7.377
 4615POPC   C1B59707  33.980   0.638   6.244
 4615POPC   C2B59708  33.833   0.780   6.656
 4615POPC   C3B59709  33.878   0.668   7.099
 4615POPC   C4B59710  33.934   0.935   7.418
 4616POPC   NC359711  26.558   7.771   5.343
 4616POPC   PO459712  26.749   7.183   5.235
 4616POPC   GL159713  26.853   7.203   5.663
 4616POPC   GL259714  26.552   7.243   5.842
 4616POPC   C1A59715  27.108   7.385   6.006
 4616POPC   D2A59716  27.037   7.523   6.422
 4616POPC   C3A59717  27.147   7.315   6.818
 4616POPC   C4A59718  26.963   7.360   7.241
 4616POPC   C1B59719  26.608   7.620   6.092
 4616POPC   C2B59720  26.578   7.786   6.507
 4616POPC   C3B59721  26.446   7.634   6.879
 4616POPC   C4B59722  26.615   7.726   7.265
 4617POPC   NC359723   2.954  37.065   5.535
 4617POPC   PO459724   2.442  36.520   5.449
 4617POPC   GL159725   2.542  36.713   5.815
 4617POPC   GL259726   2.509  37.075   5.799
 4617POPC   C1A59727   2.804  36.720   6.186
 4617POPC   D2A59728   2.962  36.448   6.499
 4617POPC   C3A59729   2.969  36.635   6.903
 4617POPC   C4A59730   2.628  36.713   7.183
 4617POPC   C1B59731   2.745  37.235   6.175
 4617POPC   C2B59732   2.933  37.100   6.557
 4617POPC   C3B59733   2.807  37.141   6.965
 4617POPC   C4B59734   2.746  37.325   7.344
 4618POPC   NC359735  35.406   2.986   5.310
 4618POPC   PO459736  35.803   2.356   5.313
 4618POPC   GL159737  35.458   2.417   5.647
 4618POPC   GL259738  35.407   2.731   5.747
 4618POPC   C1A59739  35.517   2.418   6.121
 4618POPC   D2A59740  35.461   2.665   6.509
 4618POPC   C3A59741  35.439   2.527   6.931
 4618POPC   C4A59742  35.436   2.846   7.278
 4618POPC   C1B59743  35.175   2.840   6.118
 4618POPC   C2B59744  34.947   2.701   6.519
 4618POPC   C3B59745  35.014   2.854   6.961
 4618POPC   C4B59746  34.944   2.679   7.374
 4619POPC   NC359747   9.055  10.674   5.352
 4619POPC   PO459748   8.533  10.270   5.257
 4619POPC   GL159749   8.735  10.229   5.729
 4619POPC   GL259750   9.077  10.265   5.794
 4619POPC   C1A59751   8.719  10.404   6.175
 4619POPC   D2A59752   8.881  10.376   6.582
 4619POPC   C3A59753   8.637  10.571   6.893
 4619POPC   C4A59754   8.722  10.431   7.314
 4619POPC   C1B59755   9.228  10.505   6.171
 4619POPC   C2B59756   9.307  10.639   6.617
 4619POPC   C3B59757   9.181  10.541   7.083
 4619POPC   C4B59758   9.171  10.726   7.552
 4620POPC   NC359759   4.933  19.415   5.496
 4620POPC   PO459760   4.945  18.721   5.428
 4620POPC   GL159761   4.990  18.957   5.822
 4620POPC   GL259762   4.730  19.179   5.899
 4620POPC   C1A59763   5.095  19.005   6.276
 4620POPC   D2A59764   5.079  18.835   6.695
 4620POPC   C3A59765   5.140  19.096   7.051
 4620POPC   C4A59766   5.287  19.250   7.430
 4620POPC   C1B59767   4.733  19.401   6.271
 4620POPC   C2B59768   4.885  19.462   6.675
 4620POPC   C3B59769   4.684  19.345   7.025
 4620POPC   C4B59770   4.656  18.963   7.211
 4621POPC   NC359771   5.215  44.041   5.269
 4621POPC   PO459772   4.620  43.908   5.552
 4621POPC   GL159773   5.012  43.875   5.787
 4621POPC   GL259774   5.238  44.152   5.777
 4621POPC   C1A59775   5.098  43.795   6.223
 4621POPC   D2A59776   4.902  43.952   6.569
 4621POPC   C3A59777   4.925  43.806   6.945
 4621POPC   C4A59778   5.297  43.682   7.149
 4621POPC   C1B59779   5.005  44.303   6.133
 4621POPC   C2B59780   5.097  44.418   6.522
 4621POPC   C3B59781   4.938  44.352   6.912
 4621POPC   C4B59782   5.269  44.214   7.168
 4622POPC   NC359783  19.053  23.471   5.177
 4622POPC   PO459784  18.927  24.008   5.618
 4622POPC   GL159785  19.223  23.757   5.799
 4622POPC   GL259786  19.178  23.460   5.667
 4622POPC   C1A59787  19.348  23.799   6.224
 4622POPC   D2A59788  19.202  24.011   6.597
 4622POPC   C3A59789  19.269  23.808   6.987
 4622POPC   C4A59790  18.986  23.565   7.214
 4622POPC   C1B59791  19.063  23.369   6.107
 4622POPC   C2B59792  19.144  23.465   6.564
 4622POPC   C3B59793  19.316  23.275   6.955
 4622POPC   C4B59794  19.424  23.293   7.409
 4623POPC   NC359795  41.141  12.463   5.477
 4623POPC   PO459796  41.431  11.795   5.407
 4623POPC   GL159797  41.302  11.963   5.803
 4623POPC   GL259798  41.459  12.308   5.845
 4623POPC   C1A59799  41.416  12.021   6.240
 4623POPC   D2A59800  41.491  12.300   6.514
 4623POPC   C3A59801  41.449  12.051   6.827
 4623POPC   C4A59802  41.536  12.060   7.229
 4623POPC   C1B59803  41.819  12.370   6.128
 4623POPC   C2B59804  42.027  12.380   6.534
 4623POPC   C3B59805  41.834  12.366   6.960
 4623POPC   C4B59806  41.879  12.430   7.431
 4624POPC   NC359807  29.633  34.763   5.386
 4624POPC   PO459808  30.222  34.493   5.355
 4624POPC   GL159809  29.949  34.517   5.751
 4624POPC   GL259810  29.673  34.255   5.820
 4624POPC   C1A59811  29.833  34.596   6.181
 4624POPC   D2A59812  29.688  34.434   6.568
 4624POPC   C3A59813  29.837  34.715   6.870
 4624POPC   C4A59814  30.034  34.847   7.225
 4624POPC   C1B59815  29.995  34.113   6.166
 4624POPC   C2B59816  30.189  34.201   6.578
 4624POPC   C3B59817  29.974  34.230   6.981
 4624POPC   C4B59818  29.545  34.231   7.125
 4625POPC   NC359819  15.631   4.635   5.341
 4625POPC   PO459820  15.885   4.152   5.361
 4625POPC   GL159821  15.943   4.091   5.792
 4625POPC   GL259822  15.731   3.791   5.745
 4625POPC   C1A59823  15.917   4.305   6.236
 4625POPC   D2A59824  16.068   4.375   6.691
 4625POPC   C3A59825  16.032   4.302   7.167
 4625POPC   C4A59826  15.856   4.503   7.558
 4625POPC   C1B59827  15.753   3.813   6.184
 4625POPC   C2B59828  15.687   4.000   6.594
 4625POPC   C3B59829  15.763   3.909   7.016
 4625POPC   C4B59830  15.611   4.064   7.395
 4626POPC   NC359831  16.488   2.324   5.485
 4626POPC   PO459832  16.848   2.915   5.424
 4626POPC   GL159833  16.763   2.679   5.774
 4626POPC   GL259834  16.420   2.715   5.797
 4626POPC   C1A59835  16.762   2.629   6.230
 4626POPC   D2A59836  16.944   2.720   6.650
 4626POPC   C3A59837  16.673   2.739   7.006
 4626POPC   C4A59838  16.885   2.622   7.384
 4626POPC   C1B59839  16.394   3.011   6.130
 4626POPC   C2B59840  16.545   3.010   6.532
 4626POPC   C3B59841  16.377   3.149   6.943
 4626POPC   C4B59842  16.257   2.904   7.298
 4627POPC   NC359843  31.994  13.399   5.115
 4627POPC   PO459844  32.492  13.823   5.305
 4627POPC   GL159845  32.280  13.642   5.710
 4627POPC   GL259846  31.992  13.379   5.738
 4627POPC   C1A59847  32.184  13.733   6.178
 4627POPC   D2A59848  32.244  13.963   6.594
 4627POPC   C3A59849  32.305  13.813   7.007
 4627POPC   C4A59850  31.959  13.844   7.255
 4627POPC   C1B59851  32.256  13.230   6.112
 4627POPC   C2B59852  32.303  13.401   6.561
 4627POPC   C3B59853  32.018  13.391   6.926
 4627POPC   C4B59854  32.136  13.368   7.336
 4628POPC   NC359855  25.032  38.633   5.468
 4628POPC   PO459856  25.589  38.220   5.445
 4628POPC   GL159857  25.532  38.473   5.816
 4628POPC   GL259858  25.385  38.822   5.783
 4628POPC   C1A59859  25.247  38.430   6.162
 4628POPC   D2A59860  25.123  38.171   6.505
 4628POPC   C3A59861  25.306  38.325   6.889
 4628POPC   C4A59862  25.094  38.387   7.313
 4628POPC   C1B59863  25.533  38.839   6.221
 4628POPC   C2B59864  25.350  38.774   6.626
 4628POPC   C3B59865  25.242  38.807   7.063
 4628POPC   C4B59866  25.386  38.735   7.503
 4629POPC   NC359867  31.570  10.108   5.464
 4629POPC   PO459868  31.052   9.615   5.369
 4629POPC   GL159869  31.191   9.509   5.771
 4629POPC   GL259870  31.554   9.516   5.684
 4629POPC   C1A59871  31.134   9.605   6.191
 4629POPC   D2A59872  30.990   9.713   6.591
 4629POPC   C3A59873  31.267   9.903   6.879
 4629POPC   C4A59874  31.232   9.769   7.273
 4629POPC   C1B59875  31.624   9.469   6.148
 4629POPC   C2B59876  31.507   9.507   6.585
 4629POPC   C3B59877  31.684   9.544   6.995
 4629POPC   C4B59878  31.695   9.607   7.426
 4630POPC   NC359879  12.446  39.755   5.492
 4630POPC   PO459880  12.067  40.266   5.416
 4630POPC   GL159881  11.972  40.136   5.831
 4630POPC   GL259882  12.020  39.774   5.839
 4630POPC   C1A59883  11.893  40.302   6.240
 4630POPC   D2A59884  11.968  40.300   6.675
 4630POPC   C3A59885  12.397  40.238   6.821
 4630POPC   C4A59886  12.579  40.147   7.226
 4630POPC   C1B59887  11.811  39.800   6.235
 4630POPC   C2B59888  11.871  39.757   6.678
 4630POPC   C3B59889  12.001  39.964   7.046
 4630POPC   C4B59890  11.900  40.372   7.224
 4631POPC   NC359891  24.817  14.607   5.507
 4631POPC   PO459892  24.270  14.388   5.667
 4631POPC   GL159893  24.535  14.584   5.936
 4631POPC   GL259894  24.771  14.332   5.943
 4631POPC   C1A59895  24.582  14.577   6.371
 4631POPC   D2A59896  24.351  14.565   6.743
 4631POPC   C3A59897  24.538  14.484   7.146
 4631POPC   C4A59898  24.574  14.373   7.570
 4631POPC   C1B59899  24.825  14.111   6.329
 4631POPC   C2B59900  24.659  14.138   6.739
 4631POPC   C3B59901  24.808  14.010   7.136
 4631POPC   C4B59902  24.632  13.839   7.511
 4632POPC   NC359903  22.796  26.343   5.484
 4632POPC   PO459904  23.445  26.523   5.515
 4632POPC   GL159905  23.148  26.540   5.859
 4632POPC   GL259906  22.869  26.784   5.802
 4632POPC   C1A59907  23.248  26.633   6.304
 4632POPC   D2A59908  23.062  26.991   6.548
 4632POPC   C3A59909  22.876  27.012   6.956
 4632POPC   C4A59910  23.036  26.641   7.088
 4632POPC   C1B59911  22.749  26.676   6.232
 4632POPC   C2B59912  22.665  26.607   6.692
 4632POPC   C3B59913  22.526  26.667   7.123
 4632POPC   C4B59914  22.617  27.007   7.426
 4633POPC   NC359915  21.750  43.663   5.429
 4633POPC   PO459916  22.308  44.092   5.275
 4633POPC   GL159917  22.081  44.007   5.684
 4633POPC   GL259918  22.351  44.194   5.798
 4633POPC   C1A59919  22.107  43.893   6.145
 4633POPC   D2A59920  22.161  43.689   6.571
 4633POPC   C3A59921  22.042  43.929   6.923
 4633POPC   C4A59922  22.041  43.947   7.345
 4633POPC   C1B59923  22.412  44.350   6.191
 4633POPC   C2B59924  22.344  44.185   6.580
 4633POPC   C3B59925  22.406  44.319   6.985
 4633POPC   C4B59926  22.532  44.219   7.370
 4634POPC   NC359927   8.566  30.806   5.251
 4634POPC   PO459928   7.898  30.575   5.465
 4634POPC   GL159929   8.071  30.764   5.817
 4634POPC   GL259930   8.121  30.440   5.946
 4634POPC   C1A59931   8.190  30.835   6.269
 4634POPC   D2A59932   7.985  30.875   6.613
 4634POPC   C3A59933   8.170  30.649   6.864
 4634POPC   C4A59934   8.149  30.729   7.230
 4634POPC   C1B59935   8.318  30.299   6.346
 4634POPC   C2B59936   8.598  30.423   6.709
 4634POPC   C3B59937   8.524  30.390   7.162
 4634POPC   C4B59938   8.312  30.243   7.545
 4635POPC   NC359939  30.354   0.551   5.368
 4635POPC   PO459940  31.039   0.827   5.415
 4635POPC   GL159941  30.763   0.650   5.764
 4635POPC   GL259942  30.740   0.285   5.810
 4635POPC   C1A59943  30.638   0.565   6.228
 4635POPC   D2A59944  30.932   0.461   6.600
 4635POPC   C3A59945  30.850   0.617   7.057
 4635POPC   C4A59946  30.522   0.795   7.327
 4635POPC   C1B59947  30.830   0.078   6.225
 4635POPC   C2B59948  30.597   0.070   6.601
 4635POPC   C3B59949  30.436   0.290   6.987
 4635POPC   C4B59950  30.501   0.039   7.362
 4636POPC   NC359951  29.416   0.780   5.591
 4636POPC   PO459952  29.793   0.331   5.181
 4636POPC   GL159953  29.913   0.440   5.633
 4636POPC   GL259954  29.876   0.166   5.897
 4636POPC   C1A59955  30.060   0.641   6.024
 4636POPC   D2A59956  30.169   0.857   6.409
 4636POPC   C3A59957  30.103   0.793   6.865
 4636POPC   C4A59958  29.868   0.498   7.120
 4636POPC   C1B59959  29.841   0.290   6.339
 4636POPC   C2B59960  29.651   0.257   6.736
 4636POPC   C3B59961  29.537   0.074   7.100
 4636POPC   C4B59962  29.684   0.146   7.473
 4637POPC   NC359963  43.852  41.840   5.294
 4637POPC   PO459964  44.070  41.212   5.353
 4637POPC   GL159965  43.838  41.460   5.654
 4637POPC   GL259966  44.159  41.576   5.713
 4637POPC   C1A59967  43.852  41.668   6.084
 4637POPC   D2A59968  44.067  41.550   6.468
 4637POPC   C3A59969  43.856  41.391   6.817
 4637POPC   C4A59970  43.676  41.521   7.202
 4637POPC   C1B59971  44.286  41.303   6.036
 4637POPC   C2B59972  44.466  41.219   6.432
 4637POPC   C3B59973  44.365  41.306   6.868
 4637POPC   C4B59974  44.182  41.480   7.265
 4638POPC   NC359975  15.392  13.279   5.447
 4638POPC   PO459976  15.064  13.911   5.455
 4638POPC   GL159977  15.111  13.664   5.832
 4638POPC   GL259978  15.269  13.323   5.942
 4638POPC   C1A59979  15.170  13.744   6.256
 4638POPC   D2A59980  15.367  13.699   6.622
 4638POPC   C3A59981  15.120  13.784   6.950
 4638POPC   C4A59982  15.292  13.716   7.351
 4638POPC   C1B59983  14.853  13.346   6.169
 4638POPC   C2B59984  14.771  13.523   6.582
 4638POPC   C3B59985  14.883  13.346   6.999
 4638POPC   C4B59986  14.991  13.319   7.425
 4639POPC   NC359987  15.725  30.607   5.400
 4639POPC   PO459988  16.398  30.539   5.695
 4639POPC   GL159989  16.027  30.713   5.866
 4639POPC   GL259990  15.740  30.507   5.913
 4639POPC   C1A59991  15.986  30.850   6.313
 4639POPC   D2A59992  15.998  30.625   6.719
 4639POPC   C3A59993  16.049  30.917   7.052
 4639POPC   C4A59994  15.959  31.168   7.439
 4639POPC   C1B59995  16.042  30.352   6.241
 4639POPC   C2B59996  16.136  30.116   6.618
 4639POPC   C3B59997  16.123  30.228   7.047
 4639POPC   C4B59998  16.337  30.486   7.333
 4640POPC   NC359999  36.928  12.730   5.303
 4640POPC   PO460000  37.135  13.324   5.401
 4640POPC   GL160001  36.901  13.096   5.725
 4640POPC   GL260002  37.087  13.263   6.003
 4640POPC   C1A60003  36.805  12.863   6.132
 4640POPC   D2A60004  36.993  12.934   6.552
 4640POPC   C3A60005  36.826  12.744   6.918
 4640POPC   C4A60006  36.919  12.821   7.311
 4640POPC   C1B60007  36.736  13.349   6.331
 4640POPC   C2B60008  36.525  13.122   6.708
 4640POPC   C3B60009  36.495  13.060   7.174
 4640POPC   C4B60010  36.631  13.090   7.652
 4641POPC   NC360011   7.654  35.930   5.429
 4641POPC   PO460012   7.152  36.371   5.505
 4641POPC   GL160013   7.399  36.188   5.836
 4641POPC   GL260014   7.255  35.884   5.804
 4641POPC   C1A60015   7.385  36.143   6.306
 4641POPC   D2A60016   7.497  36.337   6.727
 4641POPC   C3A60017   7.421  36.244   7.159
 4641POPC   C4A60018   7.655  36.412   7.527
 4641POPC   C1B60019   7.106  35.701   6.166
 4641POPC   C2B60020   7.209  35.753   6.596
 4641POPC   C3B60021   7.019  36.004   6.917
 4641POPC   C4B60022   7.054  35.940   7.336
 4642POPC   NC360023   6.693  29.103   5.508
 4642POPC   PO460024   6.076  29.243   5.248
 4642POPC   GL160025   6.250  29.383   5.732
 4642POPC   GL260026   6.478  29.154   5.975
 4642POPC   C1A60027   6.340  29.572   6.194
 4642POPC   D2A60028   6.666  29.425   6.482
 4642POPC   C3A60029   6.766  29.355   6.922
 4642POPC   C4A60030   6.428  29.231   7.169
 4642POPC   C1B60031   6.860  29.002   6.280
 4642POPC   C2B60032   7.028  28.853   6.711
 4642POPC   C3B60033   6.968  28.953   7.168
 4642POPC   C4B60034   6.866  28.863   7.651
 4643POPC   NC360035  44.723  30.836   5.415
 4643POPC   PO460036  44.598  31.529   5.462
 4643POPC   GL160037  44.754  31.481   5.852
 4643POPC   GL260038  44.879  31.164   5.787
 4643POPC   C1A60039  44.503  31.564   6.235
 4643POPC   D2A60040  44.231  31.545   6.581
 4643POPC   C3A60041  44.392  31.548   6.982
 4643POPC   C4A60042  44.521  31.292   7.319
 4643POPC   C1B60043  44.675  31.078   6.170
 4643POPC   C2B60044  44.589  31.177   6.560
 4643POPC   C3B60045  44.806  31.209   6.906
 4643POPC   C4B60046  44.840  30.897   7.198
 4644POPC   NC360047   9.655   7.437   5.337
 4644POPC   PO460048  10.173   7.407   5.752
 4644POPC   GL160049   9.779   7.545   5.853
 4644POPC   GL260050   9.662   7.244   5.801
 4644POPC   C1A60051   9.709   7.517   6.278
 4644POPC   D2A60052  10.007   7.432   6.620
 4644POPC   C3A60053   9.825   7.523   7.015
 4644POPC   C4A60054   9.430   7.455   7.202
 4644POPC   C1B60055   9.343   7.185   6.098
 4644POPC   C2B60056   9.370   7.234   6.531
 4644POPC   C3B60057   9.652   7.079   6.809
 4644POPC   C4B60058   9.554   6.970   7.199
 4645POPC   NC360059  19.314   4.989   5.321
 4645POPC   PO460060  18.721   5.321   5.360
 4645POPC   GL160061  18.936   5.049   5.653
 4645POPC   GL260062  19.241   5.202   5.778
 4645POPC   C1A60063  18.817   4.909   6.080
 4645POPC   D2A60064  18.677   5.063   6.486
 4645POPC   C3A60065  18.964   5.175   6.815
 4645POPC   C4A60066  18.910   5.009   7.208
 4645POPC   C1B60067  19.315   5.004   6.171
 4645POPC   C2B60068  19.437   4.828   6.574
 4645POPC   C3B60069  19.356   4.902   7.009
 4645POPC   C4B60070  19.362   5.194   7.372
 4646POPC   NC360071  14.113  21.268   5.422
 4646POPC   PO460072  14.620  21.745   5.387
 4646POPC   GL160073  14.706  21.487   5.774
 4646POPC   GL260074  14.889  21.773   5.848
 4646POPC   C1A60075  14.681  21.255   6.216
 4646POPC   D2A60076  14.616  20.941   6.591
 4646POPC   C3A60077  14.428  20.981   6.992
 4646POPC   C4A60078  14.063  21.204   7.056
 4646POPC   C1B60079  14.646  21.770   6.216
 4646POPC   C2B60080  14.562  21.600   6.606
 4646POPC   C3B60081  14.404  21.642   7.007
 4646POPC   C4B60082  14.472  21.388   7.351
 4647POPC   NC360083  21.570  31.076   5.654
 4647POPC   PO460084  21.201  30.586   5.335
 4647POPC   GL160085  21.268  30.456   5.782
 4647POPC   GL260086  21.195  30.799   5.870
 4647POPC   C1A60087  21.461  30.540   6.233
 4647POPC   D2A60088  21.714  30.565   6.647
 4647POPC   C3A60089  21.454  30.533   7.047
 4647POPC   C4A60090  21.182  30.805   7.250
 4647POPC   C1B60091  21.334  31.029   6.257
 4647POPC   C2B60092  21.350  30.942   6.694
 4647POPC   C3B60093  21.676  30.999   6.988
 4647POPC   C4B60094  21.648  31.058   7.426
 4648POPC   NC360095  14.677  13.638   5.537
 4648POPC   PO460096  14.083  13.301   5.343
 4648POPC   GL160097  14.204  13.551   5.750
 4648POPC   GL260098  14.034  13.867   5.837
 4648POPC   C1A60099  14.403  13.695   6.178
 4648POPC   D2A60100  14.379  13.930   6.578
 4648POPC   C3A60101  14.520  13.744   6.969
 4648POPC   C4A60102  14.528  13.505   7.336
 4648POPC   C1B60103  13.926  13.876   6.278
 4648POPC   C2B60104  13.934  13.658   6.675
 4648POPC   C3B60105  14.046  13.551   7.102
 4648POPC   C4B60106  14.098  13.460   7.594
 4649POPC   NC360107  28.107  31.694   5.615
 4649POPC   PO460108  28.377  31.119   5.741
 4649POPC   GL160109  28.361  31.441   5.978
 4649POPC   GL260110  28.302  31.308   6.296
 4649POPC   C1A60111  28.624  31.716   6.203
 4649POPC   D2A60112  28.567  31.847   6.633
 4649POPC   C3A60113  28.567  31.519   6.921
 4649POPC   C4A60114  28.315  31.140   6.963
 4649POPC   C1B60115  28.113  31.756   6.274
 4649POPC   C2B60116  28.081  32.028   6.574
 4649POPC   C3B60117  28.024  31.883   6.956
 4649POPC   C4B60118  28.242  31.672   7.270
 4650POPC   NC360119  32.378  14.272   5.414
 4650POPC   PO460120  31.768  14.365   5.664
 4650POPC   GL160121  32.169  14.494   5.832
 4650POPC   GL260122  32.290  14.139   5.897
 4650POPC   C1A60123  32.289  14.507   6.254
 4650POPC   D2A60124  31.980  14.407   6.563
 4650POPC   C3A60125  32.113  14.335   6.981
 4650POPC   C4A60126  31.970  14.523   7.380
 4650POPC   C1B60127  32.584  14.107   6.256
 4650POPC   C2B60128  32.602  14.333   6.688
 4650POPC   C3B60129  32.676  14.183   7.113
 4650POPC   C4B60130  32.349  14.187   7.415
 4651POPC   NC360131  29.898  36.330   5.341
 4651POPC   PO460132  29.500  35.802   5.650
 4651POPC   GL160133  29.936  35.719   5.743
 4651POPC   GL260134  29.946  36.052   5.764
 4651POPC   C1A60135  30.153  35.718   6.159
 4651POPC   D2A60136  30.282  35.968   6.533
 4651POPC   C3A60137  30.050  35.876   6.926
 4651POPC   C4A60138  29.908  35.779   7.324
 4651POPC   C1B60139  29.876  36.165   6.178
 4651POPC   C2B60140  29.824  36.229   6.597
 4651POPC   C3B60141  29.880  36.376   6.999
 4651POPC   C4B60142  29.683  36.253   7.367
 4652POPC   NC360143   9.208  28.670   5.441
 4652POPC   PO460144   8.754  28.175   5.441
 4652POPC   GL160145   8.813  28.507   5.775
 4652POPC   GL260146   9.109  28.359   5.866
 4652POPC   C1A60147   8.913  28.754   6.171
 4652POPC   D2A60148   8.939  28.926   6.601
 4652POPC   C3A60149   8.746  28.684   6.938
 4652POPC   C4A60150   8.971  28.749   7.316
 4652POPC   C1B60151   8.847  28.273   6.241
 4652POPC   C2B60152   9.072  28.437   6.603
 4652POPC   C3B60153   9.161  28.387   7.030
 4652POPC   C4B60154   8.897  28.211   7.320
 4653POPC   NC360155  35.242  18.861   4.751
 4653POPC   PO460156  35.470  19.083   5.391
 4653POPC   GL160157  35.515  18.889   5.807
 4653POPC   GL260158  35.361  19.168   5.917
 4653POPC   C1A60159  35.378  18.794   6.269
 4653POPC   D2A60160  35.142  18.820   6.699
 4653POPC   C3A60161  35.289  19.027   7.095
 4653POPC   C4A60162  35.209  18.943   7.565
 4653POPC   C1B60163  35.260  19.293   6.315
 4653POPC   C2B60164  35.141  19.419   6.714
 4653POPC   C3B60165  34.898  19.499   7.063
 4653POPC   C4B60166  35.102  19.420   7.391
 4654POPC   NC360167  39.776  10.399   5.181
 4654POPC   PO460168  40.196  10.754   5.536
 4654POPC   GL160169  40.070  10.693   5.943
 4654POPC   GL260170  40.068  10.331   5.893
 4654POPC   C1A60171  39.822  10.554   6.340
 4654POPC   D2A60172  39.674  10.350   6.762
 4654POPC   C3A60173  39.908  10.462   7.151
 4654POPC   C4A60174  39.866  10.611   7.563
 4654POPC   C1B60175  40.328  10.411   6.277
 4654POPC   C2B60176  40.241  10.469   6.731
 4654POPC   C3B60177  40.319  10.166   7.065
 4654POPC   C4B60178  40.249  10.250   7.519
 4655POPC   NC360179  12.226  34.970   5.448
 4655POPC   PO460180  11.881  34.362   5.402
 4655POPC   GL160181  12.081  34.437   5.820
 4655POPC   GL260182  12.413  34.588   5.791
 4655POPC   C1A60183  12.135  34.561   6.274
 4655POPC   D2A60184  11.935  34.294   6.628
 4655POPC   C3A60185  12.069  34.350   7.052
 4655POPC   C4A60186  11.985  34.715   7.274
 4655POPC   C1B60187  12.561  34.288   6.098
 4655POPC   C2B60188  12.457  34.289   6.542
 4655POPC   C3B60189  12.339  34.663   6.759
 4655POPC   C4B60190  12.475  34.822   7.143
 4656POPC   NC360191  38.768  40.171   5.043
 4656POPC   PO460192  39.282  40.490   5.375
 4656POPC   GL160193  39.271  40.303   5.827
 4656POPC   GL260194  39.577  40.092   5.886
 4656POPC   C1A60195  39.069  40.188   6.269
 4656POPC   D2A60196  38.886  39.943   6.656
 4656POPC   C3A60197  39.094  40.093   7.050
 4656POPC   C4A60198  39.312  40.358   7.342
 4656POPC   C1B60199  39.464  39.835   6.247
 4656POPC   C2B60200  39.410  39.901   6.688
 4656POPC   C3B60201  39.602  39.895   7.079
 4656POPC   C4B60202  39.528  39.939   7.539
 4657POPC   NC360203   6.331  41.698   5.376
 4657POPC   PO460204   6.980  41.432   5.281
 4657POPC   GL160205   6.913  41.367   5.766
 4657POPC   GL260206   6.658  41.591   5.931
 4657POPC   C1A60207   6.914  41.135   6.204
 4657POPC   D2A60208   6.656  41.097   6.594
 4657POPC   C3A60209   6.740  41.281   7.013
 4657POPC   C4A60210   6.650  41.252   7.463
 4657POPC   C1B60211   6.771  41.583   6.399
 4657POPC   C2B60212   6.878  41.723   6.797
 4657POPC   C3B60213   6.556  41.787   7.121
 4657POPC   C4B60214   6.518  41.719   7.553
 4658POPC   NC360215  35.870  10.671   5.595
 4658POPC   PO460216  36.518  10.586   5.403
 4658POPC   GL160217  36.309  10.547   5.813
 4658POPC   GL260218  36.287  10.852   5.966
 4658POPC   C1A60219  36.168  10.328   6.182
 4658POPC   D2A60220  36.260  10.519   6.573
 4658POPC   C3A60221  36.128  10.361   6.961
 4658POPC   C4A60222  36.270  10.334   7.387
 4658POPC   C1B60223  35.928  10.797   6.240
 4658POPC   C2B60224  35.815  10.766   6.647
 4658POPC   C3B60225  36.003  10.862   7.037
 4658POPC   C4B60226  35.841  10.580   7.326
 4659POPC   NC360227  29.589  21.694   5.353
 4659POPC   PO460228  29.885  21.059   5.485
 4659POPC   GL160229  30.169  21.251   5.782
 4659POPC   GL260230  30.077  21.628   5.781
 4659POPC   C1A60231  30.058  21.226   6.216
 4659POPC   D2A60232  29.791  21.379   6.514
 4659POPC   C3A60233  29.909  21.322   6.914
 4659POPC   C4A60234  30.142  21.546   7.234
 4659POPC   C1B60235  29.748  21.738   6.090
 4659POPC   C2B60236  29.397  21.681   6.403
 4659POPC   C3B60237  29.464  21.610   6.854
 4659POPC   C4B60238  29.639  21.591   7.258
 4660POPC   NC360239  37.059  31.800   5.283
 4660POPC   PO460240  36.571  31.317   5.465
 4660POPC   GL160241  36.790  31.587   5.773
 4660POPC   GL260242  37.099  31.550   5.729
 4660POPC   C1A60243  36.743  31.689   6.197
 4660POPC   D2A60244  36.601  31.553   6.603
 4660POPC   C3A60245  36.804  31.663   6.990
 4660POPC   C4A60246  36.792  31.289   7.232
 4660POPC   C1B60247  37.235  31.511   6.128
 4660POPC   C2B60248  37.142  31.574   6.550
 4660POPC   C3B60249  37.155  31.275   6.866
 4660POPC   C4B60250  37.276  31.418   7.266
 4661POPC   NC360251  33.246  37.959   5.131
 4661POPC   PO460252  33.224  37.427   5.558
 4661POPC   GL160253  32.947  37.526   5.871
 4661POPC   GL260254  32.627  37.632   5.749
 4661POPC   C1A60255  32.892  37.689   6.273
 4661POPC   D2A60256  33.168  37.607   6.609
 4661POPC   C3A60257  33.339  37.924   6.865
 4661POPC   C4A60258  33.201  37.828   7.280
 4661POPC   C1B60259  32.527  37.342   6.131
 4661POPC   C2B60260  32.456  37.515   6.550
 4661POPC   C3B60261  32.726  37.722   6.838
 4661POPC   C4B60262  32.708  37.749   7.249
 4662POPC   NC360263  22.649   1.759   5.481
 4662POPC   PO460264  22.669   2.340   5.161
 4662POPC   GL160265  22.912   2.253   5.631
 4662POPC   GL260266  22.755   2.410   5.893
 4662POPC   C1A60267  23.110   1.957   5.943
 4662POPC   D2A60268  23.074   1.751   6.368
 4662POPC   C3A60269  22.990   1.789   6.827
 4662POPC   C4A60270  23.120   1.927   7.220
 4662POPC   C1B60271  22.865   2.251   6.275
 4662POPC   C2B60272  22.655   2.173   6.649
 4662POPC   C3B60273  22.767   2.286   7.055
 4662POPC   C4B60274  22.656   2.147   7.446
 4663POPC   NC360275   2.985   6.267   5.501
 4663POPC   PO460276   2.724   5.653   5.298
 4663POPC   GL160277   2.636   5.888   5.693
 4663POPC   GL260278   2.440   5.636   5.775
 4663POPC   C1A60279   2.770   5.979   6.172
 4663POPC   D2A60280   2.684   6.097   6.640
 4663POPC   C3A60281   2.762   5.835   6.989
 4663POPC   C4A60282   2.846   5.974   7.380
 4663POPC   C1B60283   2.625   5.462   6.137
 4663POPC   C2B60284   2.805   5.561   6.551
 4663POPC   C3B60285   3.038   5.421   6.912
 4663POPC   C4B60286   2.928   5.440   7.341
 4664POPC   NC360287  20.757  20.218   5.662
 4664POPC   PO460288  21.045  20.584   5.160
 4664POPC   GL160289  20.985  20.785   5.635
 4664POPC   GL260290  20.979  20.593   5.926
 4664POPC   C1A60291  20.724  21.034   6.003
 4664POPC   D2A60292  20.716  21.011   6.471
 4664POPC   C3A60293  20.439  20.891   6.832
 4664POPC   C4A60294  20.561  20.705   7.251
 4664POPC   C1B60295  20.751  20.520   6.335
 4664POPC   C2B60296  20.767  20.474   6.805
 4664POPC   C3B60297  20.592  20.214   7.160
 4664POPC   C4B60298  20.712  20.223   7.622
 4665POPC   NC360299  18.834  11.908   5.099
 4665POPC   PO460300  19.203  12.397   5.408
 4665POPC   GL160301  19.047  12.108   5.725
 4665POPC   GL260302  18.853  11.821   5.615
 4665POPC   C1A60303  19.112  12.133   6.161
 4665POPC   D2A60304  19.248  11.830   6.456
 4665POPC   C3A60305  19.072  11.859   6.859
 4665POPC   C4A60306  19.315  11.948   7.228
 4665POPC   C1B60307  18.843  11.692   6.075
 4665POPC   C2B60308  18.699  11.923   6.412
 4665POPC   C3B60309  18.555  11.937   6.816
 4665POPC   C4B60310  18.727  11.895   7.243
 4666POPC   NC360311   1.420   4.477   5.471
 4666POPC   PO460312   1.211   3.915   5.393
 4666POPC   GL160313   1.076   4.093   5.791
 4666POPC   GL260314   1.093   4.470   5.893
 4666POPC   C1A60315   1.151   4.085   6.230
 4666POPC   D2A60316   1.146   4.436   6.494
 4666POPC   C3A60317   1.265   4.282   6.871
 4666POPC   C4A60318   1.104   4.417   7.232
 4666POPC   C1B60319   1.529   4.441   6.158
 4666POPC   C2B60320   1.666   4.570   6.632
 4666POPC   C3B60321   1.673   4.497   7.108
 4666POPC   C4B60322   1.489   4.622   7.511
 4667POPC   NC360323   0.884  42.476   5.464
 4667POPC   PO460324   1.292  41.983   5.421
 4667POPC   GL160325   1.185  42.190   5.797
 4667POPC   GL260326   1.264  42.555   5.809
 4667POPC   C1A60327   0.930  42.345   6.130
 4667POPC   D2A60328   0.862  42.349   6.539
 4667POPC   C3A60329   1.071  42.055   6.822
 4667POPC   C4A60330   1.089  42.082   7.263
 4667POPC   C1B60331   1.272  42.711   6.254
 4667POPC   C2B60332   1.099  42.802   6.661
 4667POPC   C3B60333   0.989  42.537   6.989
 4667POPC   C4B60334   1.322  42.529   7.224
 4668POPC   NC360335   3.205  28.865   5.554
 4668POPC   PO460336   3.775  29.284   5.391
 4668POPC   GL160337   3.542  29.173   5.803
 4668POPC   GL260338   3.242  29.387   5.932
 4668POPC   C1A60339   3.467  28.936   6.210
 4668POPC   D2A60340   3.403  29.089   6.655
 4668POPC   C3A60341   3.532  28.852   7.036
 4668POPC   C4A60342   3.484  28.894   7.533
 4668POPC   C1B60343   3.569  29.435   6.277
 4668POPC   C2B60344   3.816  29.455   6.653
 4668POPC   C3B60345   3.648  29.341   7.060
 4668POPC   C4B60346   3.741  29.340   7.499
 4669POPC   NC360347  21.678  27.987   5.370
 4669POPC   PO460348  22.223  27.590   5.366
 4669POPC   GL160349  22.319  27.583   5.814
 4669POPC   GL260350  21.976  27.666   5.870
 4669POPC   C1A60351  22.496  27.488   6.272
 4669POPC   D2A60352  22.415  27.637   6.731
 4669POPC   C3A60353  22.597  27.433   7.114
 4669POPC   C4A60354  22.529  27.485   7.577
 4669POPC   C1B60355  22.032  27.711   6.333
 4669POPC   C2B60356  21.937  27.510   6.745
 4669POPC   C3B60357  22.095  27.544   7.164
 4669POPC   C4B60358  21.818  27.610   7.496
 4670POPC   NC360359  11.102  20.062   5.346
 4670POPC   PO460360  11.711  19.702   5.460
 4670POPC   GL160361  11.460  19.875   5.811
 4670POPC   GL260362  11.098  19.831   5.810
 4670POPC   C1A60363  11.356  19.758   6.269
 4670POPC   D2A60364  11.304  19.671   6.718
 4670POPC   C3A60365  11.202  19.980   7.065
 4670POPC   C4A60366  11.381  19.837   7.453
 4670POPC   C1B60367  10.960  20.050   6.191
 4670POPC   C2B60368  10.830  19.913   6.641
 4670POPC   C3B60369  10.843  19.624   7.001
 4670POPC   C4B60370  10.894  19.690   7.442
 4671POPC   NC360371  23.947   6.049   5.484
 4671POPC   PO460372  23.529   5.485   5.566
 4671POPC   GL160373  23.714   5.777   5.900
 4671POPC   GL260374  23.424   5.681   6.117
 4671POPC   C1A60375  23.807   5.900   6.374
 4671POPC   D2A60376  23.483   5.785   6.678
 4671POPC   C3A60377  23.562   5.734   7.122
 4671POPC   C4A60378  23.819   6.125   7.138
 4671POPC   C1B60379  23.390   6.144   6.243
 4671POPC   C2B60380  23.213   6.267   6.626
 4671POPC   C3B60381  23.325   6.158   7.018
 4671POPC   C4B60382  23.462   6.189   7.481
 4672POPC   NC360383  11.152   9.352   5.301
 4672POPC   PO460384  11.566   9.883   5.211
 4672POPC   GL160385  11.305   9.754   5.586
 4672POPC   GL260386  11.445  10.025   5.745
 4672POPC   C1A60387  11.200   9.706   6.066
 4672POPC   D2A60388  11.197   9.462   6.466
 4672POPC   C3A60389  11.460   9.477   6.854
 4672POPC   C4A60390  11.207   9.689   7.160
 4672POPC   C1B60391  11.657   9.939   6.118
 4672POPC   C2B60392  11.712   9.811   6.531
 4672POPC   C3B60393  11.620   9.948   6.945
 4672POPC   C4B60394  11.658   9.741   7.326
 4673POPC   NC360395  32.443   5.435   5.170
 4673POPC   PO460396  32.133   6.058   5.132
 4673POPC   GL160397  32.204   6.094   5.633
 4673POPC   GL260398  32.564   6.025   5.738
 4673POPC   C1A60399  32.161   6.006   6.123
 4673POPC   D2A60400  31.872   5.975   6.488
 4673POPC   C3A60401  32.006   5.928   6.929
 4673POPC   C4A60402  31.748   5.637   7.165
 4673POPC   C1B60403  32.624   5.799   6.129
 4673POPC   C2B60404  32.400   5.721   6.520
 4673POPC   C3B60405  32.579   5.817   6.896
 4673POPC   C4B60406  32.607   5.995   7.263
 4674POPC   NC360407  27.798   6.548   5.178
 4674POPC   PO460408  27.179   6.742   5.439
 4674POPC   GL160409  27.571   6.703   5.690
 4674POPC   GL260410  27.748   6.362   5.749
 4674POPC   C1A60411  27.561   6.826   6.137
 4674POPC   D2A60412  27.424   6.714   6.554
 4674POPC   C3A60413  27.651   6.788   6.946
 4674POPC   C4A60414  27.493   7.073   7.272
 4674POPC   C1B60415  27.600   6.313   6.204
 4674POPC   C2B60416  27.430   6.212   6.639
 4674POPC   C3B60417  27.590   6.281   7.095
 4674POPC   C4B60418  27.547   6.221   7.566
 4675POPC   NC360419  40.099   8.472   5.229
 4675POPC   PO460420  39.948   9.111   5.421
 4675POPC   GL160421  40.030   8.773   5.732
 4675POPC   GL260422  40.363   8.667   5.679
 4675POPC   C1A60423  39.968   8.800   6.201
 4675POPC   D2A60424  39.751   8.991   6.575
 4675POPC   C3A60425  39.898   8.962   7.020
 4675POPC   C4A60426  40.002   8.869   7.522
 4675POPC   C1B60427  40.360   9.066   5.980
 4675POPC   C2B60428  40.239   9.183   6.416
 4675POPC   C3B60429  40.397   9.151   6.822
 4675POPC   C4B60430  40.304   9.153   7.219
 4676POPC   NC360431  42.403  42.539   5.109
 4676POPC   PO460432  42.762  42.237   5.533
 4676POPC   GL160433  42.543  42.542   5.784
 4676POPC   GL260434  42.195  42.503   5.911
 4676POPC   C1A60435  42.570  42.698   6.213
 4676POPC   D2A60436  42.411  42.388   6.495
 4676POPC   C3A60437  42.493  42.388   6.917
 4676POPC   C4A60438  42.609  42.040   7.155
 4676POPC   C1B60439  42.104  42.118   6.170
 4676POPC   C2B60440  41.892  41.972   6.570
 4676POPC   C3B60441  42.037  42.050   6.992
 4676POPC   C4B60442  42.199  42.281   7.336
 4677POPC   NC360443  26.320  18.168   5.381
 4677POPC   PO460444  25.786  17.831   5.282
 4677POPC   GL160445  25.953  18.001   5.714
 4677POPC   GL260446  25.839  18.340   5.754
 4677POPC   C1A60447  26.100  18.158   6.161
 4677POPC   D2A60448  26.229  18.399   6.545
 4677POPC   C3A60449  25.994  18.410   6.949
 4677POPC   C4A60450  26.039  18.239   7.354
 4677POPC   C1B60451  25.593  18.213   6.150
 4677POPC   C2B60452  25.785  18.138   6.571
 4677POPC   C3B60453  25.808  17.944   6.995
 4677POPC   C4B60454  25.607  17.995   7.395
 4678POPC   NC360455  44.369  40.409   5.588
 4678POPC   PO460456  44.646  39.779   5.348
 4678POPC   GL160457  44.783  40.060   5.700
 4678POPC   GL260458   0.124  40.206   5.785
 4678POPC   C1A60459  44.805  39.926   6.127
 4678POPC   D2A60460  44.948  39.933   6.562
 4678POPC   C3A60461  44.703  39.998   6.929
 4678POPC   C4A60462  44.425  39.968   7.283
 4678POPC   C1B60463   0.098  40.328   6.255
 4678POPC   C2B60464  44.887  40.428   6.672
 4678POPC   C3B60465  44.959  40.460   7.117
 4678POPC   C4B60466  44.937  40.119   7.384
 4679POPC   NC360467  31.797  41.381   5.452
 4679POPC   PO460468  31.124  41.643   5.324
 4679POPC   GL160469  31.399  41.611   5.711
 4679POPC   GL260470  31.529  41.271   5.861
 4679POPC   C1A60471  31.430  41.644   6.182
 4679POPC   D2A60472  31.298  41.331   6.498
 4679POPC   C3A60473  31.305  41.520   6.897
 4679POPC   C4A60474  31.350  41.401   7.302
 4679POPC   C1B60475  31.831  41.346   6.205
 4679POPC   C2B60476  31.779  41.528   6.628
 4679POPC   C3B60477  31.794  41.377   7.076
 4679POPC   C4B60478  31.839  41.324   7.536
 4680POPC   NC360479   9.437  37.126   5.359
 4680POPC   PO460480   8.772  36.890   5.387
 4680POPC   GL160481   8.931  37.077   5.790
 4680POPC   GL260482   9.231  37.328   5.811
 4680POPC   C1A60483   9.064  36.816   6.158
 4680POPC   D2A60484   9.341  36.781   6.541
 4680POPC   C3A60485   9.185  36.746   6.979
 4680POPC   C4A60486   8.773  36.743   7.186
 4680POPC   C1B60487   9.203  37.297   6.275
 4680POPC   C2B60488   8.902  37.150   6.519
 4680POPC   C3B60489   8.871  37.155   6.911
 4680POPC   C4B60490   9.031  37.258   7.259
 4681POPC   NC360491  25.410  17.778   5.039
 4681POPC   PO460492  25.381  18.302   5.517
 4681POPC   GL160493  25.072  18.316   5.839
 4681POPC   GL260494  24.999  18.680   5.903
 4681POPC   C1A60495  25.007  18.065   6.223
 4681POPC   D2A60496  25.323  17.940   6.545
 4681POPC   C3A60497  25.372  18.174   6.898
 4681POPC   C4A60498  25.142  18.144   7.247
 4681POPC   C1B60499  25.183  18.549   6.280
 4681POPC   C2B60500  25.013  18.514   6.690
 4681POPC   C3B60501  25.230  18.636   7.065
 4681POPC   C4B60502  25.555  18.485   7.295
 4682POPC   NC360503   2.226  21.543   5.365
 4682POPC   PO460504   1.615  21.782   5.560
 4682POPC   GL160505   1.866  22.010   5.827
 4682POPC   GL260506   2.201  21.975   5.718
 4682POPC   C1A60507   1.772  22.273   6.174
 4682POPC   D2A60508   1.963  22.233   6.581
 4682POPC   C3A60509   1.791  21.982   6.870
 4682POPC   C4A60510   1.648  22.201   7.210
 4682POPC   C1B60511   2.285  22.123   6.161
 4682POPC   C2B60512   2.471  22.283   6.549
 4682POPC   C3B60513   2.394  22.264   6.955
 4682POPC   C4B60514   2.125  22.434   7.236
 4683POPC   NC360515  10.717  44.353   5.554
 4683POPC   PO460516  10.596  44.984   5.447
 4683POPC   GL160517  10.436  44.964   5.831
 4683POPC   GL260518  10.535  44.672   5.946
 4683POPC   C1A60519  10.570   0.121   6.238
 4683POPC   D2A60520  10.405   0.283   6.615
 4683POPC   C3A60521  10.487  44.932   6.859
 4683POPC   C4A60522  10.456  44.799   7.263
 4683POPC   C1B60523  10.503  44.516   6.353
 4683POPC   C2B60524  10.519  44.263   6.726
 4683POPC   C3B60525  10.509  44.307   7.181
 4683POPC   C4B60526  10.471  44.273   7.638
 4684POPC   NC360527  40.519  18.652   5.344
 4684POPC   PO460528  40.961  18.092   5.537
 4684POPC   GL160529  40.854  18.465   5.804
 4684POPC   GL260530  40.537  18.387   5.795
 4684POPC   C1A60531  40.674  18.652   6.222
 4684POPC   D2A60532  40.731  18.615   6.695
 4684POPC   C3A60533  41.019  18.325   6.899
 4684POPC   C4A60534  41.056  18.119   7.308
 4684POPC   C1B60535  40.756  18.156   6.189
 4684POPC   C2B60536  40.573  18.152   6.597
 4684POPC   C3B60537  40.607  18.055   7.000
 4684POPC   C4B60538  40.580  18.317   7.364
 4685POPC   NC360539  16.070   0.948   5.668
 4685POPC   PO460540  16.252   0.393   5.192
 4685POPC   GL160541  16.225   0.333   5.730
 4685POPC   GL260542  15.906   0.450   5.804
 4685POPC   C1A60543  16.325   0.458   6.165
 4685POPC   D2A60544  16.530   0.372   6.577
 4685POPC   C3A60545  16.338   0.387   6.977
 4685POPC   C4A60546  16.028   0.315   7.277
 4685POPC   C1B60547  15.843   0.318   6.236
 4685POPC   C2B60548  15.946   0.458   6.652
 4685POPC   C3B60549  15.709   0.615   7.003
 4685POPC   C4B60550  15.549   0.501   7.408
 4686POPC   NC360551  12.479  20.046   5.479
 4686POPC   PO460552  13.045  20.343   5.328
 4686POPC   GL160553  12.965  19.931   5.649
 4686POPC   GL260554  13.268  19.694   5.756
 4686POPC   C1A60555  12.857  19.724   6.079
 4686POPC   D2A60556  12.767  19.920   6.492
 4686POPC   C3A60557  12.740  19.831   6.926
 4686POPC   C4A60558  12.895  19.811   7.352
 4686POPC   C1B60559  13.374  19.680   6.192
 4686POPC   C2B60560  13.259  19.745   6.620
 4686POPC   C3B60561  13.168  19.521   7.020
 4686POPC   C4B60562  13.228  19.440   7.478
 4687POPC   NC360563   0.036   5.307   5.426
 4687POPC   PO460564  44.413   4.983   5.435
 4687POPC   GL160565  44.768   4.944   5.721
 4687POPC   GL260566  44.922   4.639   5.823
 4687POPC   C1A60567  44.887   5.115   6.125
 4687POPC   D2A60568  44.702   5.377   6.441
 4687POPC   C3A60569  44.829   5.233   6.848
 4687POPC   C4A60570  44.632   5.225   7.258
 4687POPC   C1B60571  44.606   4.667   6.149
 4687POPC   C2B60572  44.557   4.886   6.505
 4687POPC   C3B60573  44.531   4.819   6.923
 4687POPC   C4B60574  44.643   4.725   7.325
 4688POPC   NC360575  20.933   1.672   5.348
 4688POPC   PO460576  21.492   1.972   5.352
 4688POPC   GL160577  21.542   1.938   5.798
 4688POPC   GL260578  21.205   1.799   5.790
 4688POPC   C1A60579  21.503   1.744   6.225
 4688POPC   D2A60580  21.680   1.778   6.651
 4688POPC   C3A60581  21.394   1.677   6.937
 4688POPC   C4A60582  21.398   1.799   7.348
 4688POPC   C1B60583  21.141   2.090   6.139
 4688POPC   C2B60584  21.215   2.030   6.573
 4688POPC   C3B60585  20.956   1.942   6.916
 4688POPC   C4B60586  21.040   2.148   7.308
 4689POPC   NC360587  30.503  38.538   5.566
 4689POPC   PO460588  30.976  37.995   5.455
 4689POPC   GL160589  30.830  38.211   5.783
 4689POPC   GL260590  31.017  38.521   5.690
 4689POPC   C1A60591  30.621  38.237   6.183
 4689POPC   D2A60592  30.790  38.401   6.568
 4689POPC   C3A60593  30.552  38.586   6.854
 4689POPC   C4A60594  30.447  38.511   7.240
 4689POPC   C1B60595  30.954  38.625   6.124
 4689POPC   C2B60596  31.067  38.891   6.477
 4689POPC   C3B60597  31.140  38.693   6.852
 4689POPC   C4B60598  30.942  38.636   7.235
 4690POPC   NC360599  38.670  42.667   5.683
 4690POPC   PO460600  38.507  42.202   5.283
 4690POPC   GL160601  38.348  42.276   5.741
 4690POPC   GL260602  38.089  42.505   5.821
 4690POPC   C1A60603  38.441  42.366   6.199
 4690POPC   D2A60604  38.717  42.369   6.537
 4690POPC   C3A60605  38.622  42.452   6.949
 4690POPC   C4A60606  38.783  42.174   7.280
 4690POPC   C1B60607  38.021  42.103   6.125
 4690POPC   C2B60608  38.127  42.123   6.553
 4690POPC   C3B60609  38.124  42.369   6.913
 4690POPC   C4B60610  38.300  42.338   7.328
 4691POPC   NC360611  39.931  28.760   5.241
 4691POPC   PO460612  40.225  29.244   5.500
 4691POPC   GL160613  39.956  29.001   5.752
 4691POPC   GL260614  40.007  29.262   5.954
 4691POPC   C1A60615  39.659  28.959   6.146
 4691POPC   D2A60616  39.719  28.721   6.561
 4691POPC   C3A60617  39.814  28.946   6.966
 4691POPC   C4A60618  39.688  28.896   7.419
 4691POPC   C1B60619  40.304  29.190   6.220
 4691POPC   C2B60620  40.399  29.350   6.568
 4691POPC   C3B60621  40.307  29.203   6.959
 4691POPC   C4B60622  40.012  29.359   7.256
 4692POPC   NC360623   8.161  35.022   5.146
 4692POPC   PO460624   7.963  35.580   5.419
 4692POPC   GL160625   8.092  35.304   5.796
 4692POPC   GL260626   7.834  35.027   5.885
 4692POPC   C1A60627   8.330  35.175   6.205
 4692POPC   D2A60628   8.302  35.393   6.592
 4692POPC   C3A60629   8.435  35.174   6.940
 4692POPC   C4A60630   8.361  35.336   7.326
 4692POPC   C1B60631   7.842  35.129   6.297
 4692POPC   C2B60632   8.047  34.945   6.638
 4692POPC   C3B60633   7.935  35.111   7.031
 4692POPC   C4B60634   7.985  35.567   7.060
 4693POPC   NC360635  42.163  18.304   5.391
 4693POPC   PO460636  42.752  18.333   5.673
 4693POPC   GL160637  42.397  18.202   5.901
 4693POPC   GL260638  42.093  18.394   5.891
 4693POPC   C1A60639  42.398  17.966   6.296
 4693POPC   D2A60640  42.311  18.059   6.742
 4693POPC   C3A60641  42.646  18.179   7.001
 4693POPC   C4A60642  42.933  17.974   7.285
 4693POPC   C1B60643  42.128  18.385   6.340
 4693POPC   C2B60644  41.948  18.464   6.745
 4693POPC   C3B60645  42.079  18.314   7.139
 4693POPC   C4B60646  42.387  18.491   7.392
 4694POPC   NC360647  26.502  34.534   5.409
 4694POPC   PO460648  26.822  35.119   5.347
 4694POPC   GL160649  26.700  34.873   5.757
 4694POPC   GL260650  26.918  34.602   5.851
 4694POPC   C1A60651  26.636  34.762   6.247
 4694POPC   D2A60652  26.896  34.550   6.583
 4694POPC   C3A60653  26.738  34.511   6.978
 4694POPC   C4A60654  26.780  34.789   7.340
 4694POPC   C1B60655  27.119  34.881   6.149
 4694POPC   C2B60656  27.264  34.893   6.581
 4694POPC   C3B60657  27.202  34.756   7.048
 4694POPC   C4B60658  27.252  34.734   7.533
 4695POPC   NC360659  23.977  34.726   5.325
 4695POPC   PO460660  23.516  34.229   5.494
 4695POPC   GL160661  23.804  34.284   5.823
 4695POPC   GL260662  24.115  34.482   5.785
 4695POPC   C1A60663  23.857  34.468   6.230
 4695POPC   D2A60664  23.930  34.401   6.640
 4695POPC   C3A60665  23.729  34.637   6.940
 4695POPC   C4A60666  23.741  34.904   7.268
 4695POPC   C1B60667  24.172  34.849   6.113
 4695POPC   C2B60668  24.037  34.923   6.575
 4695POPC   C3B60669  24.187  35.069   7.016
 4695POPC   C4B60670  24.184  34.997   7.469
 4696POPC   NC360671   1.154  26.947   5.140
 4696POPC   PO460672   1.421  27.277   5.737
 4696POPC   GL160673   1.318  26.993   6.105
 4696POPC   GL260674   1.082  26.675   6.039
 4696POPC   C1A60675   1.337  26.742   6.456
 4696POPC   D2A60676   1.375  26.648   6.837
 4696POPC   C3A60677   1.388  27.045   7.069
 4696POPC   C4A60678   1.397  27.074   7.528
 4696POPC   C1B60679   0.828  26.779   6.356
 4696POPC   C2B60680   0.873  26.757   6.792
 4696POPC   C3B60681   1.007  26.709   7.193
 4696POPC   C4B60682   1.006  26.754   7.611
 4697POPC   NC360683  35.648  28.634   5.427
 4697POPC   PO460684  35.039  28.335   5.401
 4697POPC   GL160685  35.353  28.373   5.757
 4697POPC   GL260686  35.247  28.727   5.767
 4697POPC   C1A60687  35.560  28.352   6.210
 4697POPC   D2A60688  35.628  28.249   6.697
 4697POPC   C3A60689  35.569  28.557   7.068
 4697POPC   C4A60690  35.510  28.714   7.524
 4697POPC   C1B60691  35.065  28.503   6.144
 4697POPC   C2B60692  35.139  28.397   6.558
 4697POPC   C3B60693  35.009  28.568   6.939
 4697POPC   C4B60694  35.125  28.460   7.350
 4698POPC   NC360695  18.558  31.117   5.296
 4698POPC   PO460696  18.959  31.687   5.300
 4698POPC   GL160697  19.111  31.604   5.769
 4698POPC   GL260698  19.398  31.343   5.746
 4698POPC   C1A60699  19.032  31.626   6.249
 4698POPC   D2A60700  18.761  31.436   6.599
 4698POPC   C3A60701  18.938  31.393   7.008
 4698POPC   C4A60702  18.929  31.372   7.477
 4698POPC   C1B60703  19.264  31.161   6.160
 4698POPC   C2B60704  19.279  31.281   6.615
 4698POPC   C3B60705  19.320  31.037   7.002
 4698POPC   C4B60706  19.255  30.994   7.489
 4699POPC   NC360707   7.809  21.302   5.356
 4699POPC   PO460708   7.396  21.767   5.637
 4699POPC   GL160709   7.408  21.357   5.784
 4699POPC   GL260710   7.040  21.222   5.763
 4699POPC   C1A60711   7.580  21.397   6.218
 4699POPC   D2A60712   7.384  21.590   6.622
 4699POPC   C3A60713   7.325  21.581   7.107
 4699POPC   C4A60714   7.191  21.576   7.570
 4699POPC   C1B60715   7.229  21.029   6.124
 4699POPC   C2B60716   7.407  21.039   6.521
 4699POPC   C3B60717   7.236  21.148   6.866
 4699POPC   C4B60718   7.246  20.963   7.231
 4700POPC   NC360719  29.796  22.662   5.495
 4700POPC   PO460720  29.985  22.056   5.337
 4700POPC   GL160721  29.933  22.139   5.793
 4700POPC   GL260722  30.051  22.459   5.911
 4700POPC   C1A60723  30.153  22.026   6.203
 4700POPC   D2A60724  29.901  21.872   6.561
 4700POPC   C3A60725  29.749  22.104   6.888
 4700POPC   C4A60726  29.915  22.030   7.276
 4700POPC   C1B60727  29.787  22.370   6.311
 4700POPC   C2B60728  29.729  22.639   6.695
 4700POPC   C3B60729  29.850  22.566   7.126
 4700POPC   C4B60730  30.256  22.407   7.275
 4701POPC   NC360731   3.146  43.109   5.399
 4701POPC   PO460732   2.704  42.609   5.476
 4701POPC   GL160733   2.542  42.961   5.814
 4701POPC   GL260734   2.843  43.164   5.852
 4701POPC   C1A60735   2.509  43.337   6.178
 4701POPC   D2A60736   2.648  43.313   6.619
 4701POPC   C3A60737   2.463  43.188   7.028
 4701POPC   C4A60738   2.407  43.299   7.527
 4701POPC   C1B60739   2.805  42.911   6.259
 4701POPC   C2B60740   2.882  42.836   6.709
 4701POPC   C3B60741   2.921  42.980   7.112
 4701POPC   C4B60742   3.208  43.204   7.374
 4702POPC   NC360743  21.339   8.448   5.275
 4702POPC   PO460744  21.567   7.850   5.342
 4702POPC   GL160745  21.235   8.081   5.663
 4702POPC   GL260746  21.199   8.434   5.792
 4702POPC   C1A60747  20.979   7.972   6.050
 4702POPC   D2A60748  21.144   7.937   6.478
 4702POPC   C3A60749  21.070   8.244   6.790
 4702POPC   C4A60750  21.217   8.054   7.134
 4702POPC   C1B60751  21.448   8.186   6.118
 4702POPC   C2B60752  21.649   7.856   6.371
 4702POPC   C3B60753  21.678   7.849   6.839
 4702POPC   C4B60754  21.681   8.239   7.066
 4703POPC   NC360755  32.294  37.939   5.436
 4703POPC   PO460756  32.356  37.254   5.478
 4703POPC   GL160757  32.142  37.458   5.806
 4703POPC   GL260758  32.067  37.829   5.865
 4703POPC   C1A60759  32.040  37.491   6.236
 4703POPC   D2A60760  31.957  37.774   6.563
 4703POPC   C3A60761  32.018  37.555   6.942
 4703POPC   C4A60762  32.170  37.548   7.352
 4703POPC   C1B60763  32.392  37.865   6.185
 4703POPC   C2B60764  32.391  38.048   6.595
 4703POPC   C3B60765  32.304  37.963   7.025
 4703POPC   C4B60766  32.492  38.239   7.304
 4704POPC   NC360767  44.394  23.747   5.509
 4704POPC   PO460768  43.714  23.885   5.359
 4704POPC   GL160769  43.933  23.733   5.716
 4704POPC   GL260770  43.855  23.377   5.715
 4704POPC   C1A60771  43.998  23.938   6.139
 4704POPC   D2A60772  43.764  23.868   6.545
 4704POPC   C3A60773  43.935  23.790   6.946
 4704POPC   C4A60774  43.771  23.655   7.318
 4704POPC   C1B60775  44.103  23.430   6.104
 4704POPC   C2B60776  44.060  23.372   6.570
 4704POPC   C3B60777  44.177  23.323   7.034
 4704POPC   C4B60778  44.177  23.432   7.492
 4705POPC   NC360779   4.276  27.978   5.415
 4705POPC   PO460780   4.487  27.266   5.395
 4705POPC   GL160781   4.301  27.543   5.710
 4705POPC   GL260782   4.578  27.766   5.792
 4705POPC   C1A60783   4.177  27.757   6.139
 4705POPC   D2A60784   4.017  27.728   6.591
 4705POPC   C3A60785   4.153  27.377   6.878
 4705POPC   C4A60786   4.136  27.364   7.317
 4705POPC   C1B60787   4.571  27.437   6.131
 4705POPC   C2B60788   4.528  27.565   6.569
 4705POPC   C3B60789   4.419  27.790   6.951
 4705POPC   C4B60790   4.282  27.868   7.361
 4706POPC   NC360791  27.398  34.094   5.467
 4706POPC   PO460792  27.944  33.686   5.490
 4706POPC   GL160793  27.826  33.793   5.856
 4706POPC   GL260794  27.786  34.145   5.865
 4706POPC   C1A60795  27.735  33.614   6.245
 4706POPC   D2A60796  27.421  33.696   6.551
 4706POPC   C3A60797  27.613  33.854   6.923
 4706POPC   C4A60798  27.618  33.580   7.270
 4706POPC   C1B60799  27.414  34.001   6.108
 4706POPC   C2B60800  27.181  34.141   6.466
 4706POPC   C3B60801  27.159  34.112   6.906
 4706POPC   C4B60802  27.229  33.884   7.287
 4707POPC   NC360803  43.962  16.469   5.415
 4707POPC   PO460804  44.097  15.768   5.376
 4707POPC   GL160805  43.916  15.895   5.815
 4707POPC   GL260806  43.989  16.239   5.858
 4707POPC   C1A60807  43.706  16.041   6.229
 4707POPC   D2A60808  43.756  16.255   6.645
 4707POPC   C3A60809  43.633  16.054   7.048
 4707POPC   C4A60810  43.653  15.740   7.435
 4707POPC   C1B60811  44.169  16.317   6.228
 4707POPC   C2B60812  44.179  16.000   6.522
 4707POPC   C3B60813  44.176  16.062   6.972
 4707POPC   C4B60814  43.994  16.111   7.412
 4708POPC   NC360815  15.534  42.396   5.418
 4708POPC   PO460816  16.073  42.118   5.427
 4708POPC   GL160817  15.851  42.256   5.804
 4708POPC   GL260818  15.926  42.630   5.835
 4708POPC   C1A60819  15.595  42.048   6.147
 4708POPC   D2A60820  15.569  41.973   6.585
 4708POPC   C3A60821  15.940  42.103   6.786
 4708POPC   C4A60822  15.975  42.164   7.206
 4708POPC   C1B60823  15.911  42.889   6.240
 4708POPC   C2B60824  15.846  42.893   6.711
 4708POPC   C3B60825  16.034  42.638   7.042
 4708POPC   C4B60826  16.109  42.575   7.486
 4709POPC   NC360827  10.181  37.120   5.485
 4709POPC   PO460828   9.588  36.682   5.351
 4709POPC   GL160829   9.753  36.926   5.706
 4709POPC   GL260830   9.768  37.311   5.713
 4709POPC   C1A60831   9.587  36.967   6.109
 4709POPC   D2A60832   9.851  36.759   6.436
 4709POPC   C3A60833   9.780  36.832   6.874
 4709POPC   C4A60834   9.988  36.927   7.261
 4709POPC   C1B60835   9.990  37.282   6.131
 4709POPC   C2B60836   9.728  37.254   6.512
 4709POPC   C3B60837   9.405  37.205   6.817
 4709POPC   C4B60838   9.496  37.091   7.237
 4710POPC   NC360839  43.861   0.388   5.411
 4710POPC   PO460840  44.325   0.864   5.605
 4710POPC   GL160841  44.171   0.479   5.839
 4710POPC   GL260842  43.995   0.106   5.842
 4710POPC   C1A60843  43.903   0.458   6.195
 4710POPC   D2A60844  43.710   0.345   6.584
 4710POPC   C3A60845  43.949   0.421   6.919
 4710POPC   C4A60846  43.705   0.699   7.119
 4710POPC   C1B60847  43.619   0.028   6.188
 4710POPC   C2B60848  43.566  44.871   6.690
 4710POPC   C3B60849  43.579   0.127   7.129
 4710POPC   C4B60850  43.575  44.997   7.605
 4711POPC   NC360851  33.276  28.931   5.454
 4711POPC   PO460852  32.995  29.509   5.410
 4711POPC   GL160853  32.962  29.231   5.771
 4711POPC   GL260854  32.895  28.879   5.818
 4711POPC   C1A60855  33.322  29.243   6.034
 4711POPC   D2A60856  33.428  29.430   6.407
 4711POPC   C3A60857  33.126  29.286   6.720
 4711POPC   C4A60858  33.148  29.031   7.088
 4711POPC   C1B60859  32.961  29.004   6.277
 4711POPC   C2B60860  32.928  28.781   6.646
 4711POPC   C3B60861  32.706  28.762   7.016
 4711POPC   C4B60862  32.658  29.175   7.247
 4712POPC   NC360863   9.293  34.880   5.605
 4712POPC   PO460864   9.758  34.808   5.067
 4712POPC   GL160865   9.799  34.749   5.582
 4712POPC   GL260866  10.048  34.491   5.653
 4712POPC   C1A60867   9.613  34.649   6.109
 4712POPC   D2A60868   9.435  34.500   6.565
 4712POPC   C3A60869   9.477  34.518   7.024
 4712POPC   C4A60870   9.477  34.723   7.403
 4712POPC   C1B60871  10.110  34.560   6.091
 4712POPC   C2B60872   9.938  34.523   6.510
 4712POPC   C3B60873  10.014  34.564   6.954
 4712POPC   C4B60874   9.887  34.374   7.330
 4713POPC   NC360875  17.025  41.120   5.323
 4713POPC   PO460876  16.747  41.617   5.478
 4713POPC   GL160877  16.806  41.205   5.813
 4713POPC   GL260878  16.621  40.866   5.798
 4713POPC   C1A60879  16.867  40.919   6.251
 4713POPC   D2A60880  16.777  40.541   6.564
 4713POPC   C3A60881  16.725  40.664   7.009
 4713POPC   C4A60882  16.785  41.058   7.246
 4713POPC   C1B60883  16.413  40.675   6.200
 4713POPC   C2B60884  16.345  40.814   6.654
 4713POPC   C3B60885  16.298  40.935   7.112
 4713POPC   C4B60886  16.461  40.712   7.484
 4714POPC   NC360887  22.850  35.726   5.673
 4714POPC   PO460888  22.702  36.305   5.513
 4714POPC   GL160889  22.937  36.256   5.862
 4714POPC   GL260890  23.266  36.075   5.751
 4714POPC   C1A60891  22.819  36.133   6.295
 4714POPC   D2A60892  23.042  36.048   6.681
 4714POPC   C3A60893  22.773  36.055   7.041
 4714POPC   C4A60894  22.636  36.353   7.343
 4714POPC   C1B60895  23.314  36.196   6.203
 4714POPC   C2B60896  23.275  36.520   6.525
 4714POPC   C3B60897  23.223  36.536   6.972
 4714POPC   C4B60898  23.263  36.108   7.148
 4715POPC   NC360899  21.200  31.914   5.560
 4715POPC   PO460900  21.694  32.312   5.402
 4715POPC   GL160901  21.452  32.305   5.799
 4715POPC   GL260902  21.172  32.560   5.793
 4715POPC   C1A60903  21.464  32.310   6.257
 4715POPC   D2A60904  21.629  32.469   6.650
 4715POPC   C3A60905  21.409  32.381   7.031
 4715POPC   C4A60906  21.449  31.998   7.318
 4715POPC   C1B60907  20.997  32.501   6.216
 4715POPC   C2B60908  20.893  32.320   6.600
 4715POPC   C3B60909  20.868  32.472   7.015
 4715POPC   C4B60910  21.079  32.405   7.404
 4716POPC   NC360911  13.102  16.383   5.491
 4716POPC   PO460912  12.910  15.736   5.433
 4716POPC   GL160913  12.704  15.801   5.818
 4716POPC   GL260914  12.772  16.111   5.804
 4716POPC   C1A60915  12.748  15.737   6.249
 4716POPC   D2A60916  12.967  15.861   6.633
 4716POPC   C3A60917  12.829  15.702   7.016
 4716POPC   C4A60918  12.547  15.940   7.209
 4716POPC   C1B60919  12.985  16.231   6.135
 4716POPC   C2B60920  13.069  16.358   6.514
 4716POPC   C3B60921  12.896  16.323   6.907
 4716POPC   C4B60922  13.027  16.112   7.242
 4717POPC   NC360923  36.876  27.748   5.345
 4717POPC   PO460924  36.984  28.394   5.357
 4717POPC   GL160925  36.890  28.439   5.820
 4717POPC   GL260926  36.544  28.332   5.928
 4717POPC   C1A60927  36.900  28.400   6.287
 4717POPC   D2A60928  36.632  28.459   6.657
 4717POPC   C3A60929  36.855  28.519   7.053
 4717POPC   C4A60930  37.116  28.417   7.407
 4717POPC   C1B60931  36.534  28.036   6.228
 4717POPC   C2B60932  36.734  27.966   6.583
 4717POPC   C3B60933  36.616  28.053   6.966
 4717POPC   C4B60934  36.754  28.075   7.369
 4718POPC   NC360935  28.740  18.408   5.306
 4718POPC   PO460936  28.085  18.293   5.542
 4718POPC   GL160937  28.384  18.448   5.822
 4718POPC   GL260938  28.527  18.128   5.773
 4718POPC   C1A60939  28.306  18.445   6.274
 4718POPC   D2A60940  28.477  18.346   6.668
 4718POPC   C3A60941  28.224  18.423   7.017
 4718POPC   C4A60942  28.021  18.711   7.290
 4718POPC   C1B60943  28.477  17.968   6.173
 4718POPC   C2B60944  28.671  17.863   6.551
 4718POPC   C3B60945  28.656  17.971   6.975
 4718POPC   C4B60946  28.316  17.995   7.289
 4719POPC   NC360947  20.307  12.602   5.395
 4719POPC   PO460948  20.859  13.129   5.456
 4719POPC   GL160949  20.755  13.062   5.853
 4719POPC   GL260950  20.442  12.914   5.769
 4719POPC   C1A60951  20.750  12.998   6.297
 4719POPC   D2A60952  20.687  13.117   6.740
 4719POPC   C3A60953  20.839  12.811   7.034
 4719POPC   C4A60954  20.760  12.793   7.506
 4719POPC   C1B60955  20.313  13.209   6.093
 4719POPC   C2B60956  20.217  13.262   6.529
 4719POPC   C3B60957  20.115  13.081   6.902
 4719POPC   C4B60958  20.421  13.028   7.190
 4720POPC   NC360959  34.447  34.280   5.520
 4720POPC   PO460960  34.805  33.706   5.488
 4720POPC   GL160961  34.606  33.861   5.846
 4720POPC   GL260962  34.431  33.573   5.913
 4720POPC   C1A60963  34.702  33.720   6.298
 4720POPC   D2A60964  34.834  33.822   6.689
 4720POPC   C3A60965  34.563  33.721   7.003
 4720POPC   C4A60966  34.542  34.131   7.098
 4720POPC   C1B60967  34.226  33.905   6.192
 4720POPC   C2B60968  34.260  33.947   6.651
 4720POPC   C3B60969  34.075  33.893   7.071
 4720POPC   C4B60970  34.205  33.616   7.394
 4721POPC   NC360971   0.873  41.774   5.414
 4721POPC   PO460972   1.343  41.338   5.386
 4721POPC   GL160973   1.247  41.592   5.742
 4721POPC   GL260974   0.887  41.530   5.863
 4721POPC   C1A60975   1.211  41.806   6.140
 4721POPC   D2A60976   1.056  41.636   6.524
 4721POPC   C3A60977   1.420  41.669   6.793
 4721POPC   C4A60978   1.383  41.667   7.231
 4721POPC   C1B60979   1.178  41.285   6.143
 4721POPC   C2B60980   1.343  41.193   6.561
 4721POPC   C3B60981   1.096  41.298   6.927
 4721POPC   C4B60982   1.101  41.268   7.343
 4722POPC   NC360983  14.837  16.014   5.399
 4722POPC   PO460984  15.309  16.395   5.568
 4722POPC   GL160985  15.170  16.027   5.865
 4722POPC   GL260986  14.919  15.756   5.842
 4722POPC   C1A60987  15.198  15.878   6.317
 4722POPC   D2A60988  15.377  15.937   6.755
 4722POPC   C3A60989  15.132  15.961   7.163
 4722POPC   C4A60990  15.018  15.915   7.616
 4722POPC   C1B60991  14.730  15.669   6.253
 4722POPC   C2B60992  14.874  15.758   6.712
 4722POPC   C3B60993  14.704  15.686   7.138
 4722POPC   C4B60994  14.531  15.994   7.461
 4723POPC   NC360995  10.336   1.919   5.412
 4723POPC   PO460996  10.972   2.074   5.560
 4723POPC   GL160997  10.645   2.051   5.899
 4723POPC   GL260998  10.257   2.107   5.870
 4723POPC   C1A60999  10.506   2.123   6.324
 4723POPC   D2A61000  10.683   1.871   6.648
 4723POPC   C3A61001  10.614   2.090   7.011
 4723POPC   C4A61002  10.726   1.777   7.288
 4723POPC   C1B61003  10.127   1.808   6.192
 4723POPC   C2B61004  10.178   1.868   6.644
 4723POPC   C3B61005  10.226   1.770   7.093
 4723POPC   C4B61006  10.339   2.069   7.468
 4724POPC   NC361007  18.816  44.390   5.470
 4724POPC   PO461008  19.333  44.798   5.195
 4724POPC   GL161009  19.322  44.719   5.666
 4724POPC   GL261010  19.422   0.006   5.867
 4724POPC   C1A61011  19.021  44.630   6.041
 4724POPC   D2A61012  18.849  44.659   6.469
 4724POPC   C3A61013  19.069  44.483   6.830
 4724POPC   C4A61014  19.001  44.583   7.262
 4724POPC   C1B61015  19.430  44.810   6.274
 4724POPC   C2B61016  19.264  44.929   6.662
 4724POPC   C3B61017  19.357  44.915   7.107
 4724POPC   C4B61018  19.214  44.916   7.568
 4725POPC   NC361019  18.151  44.419   5.238
 4725POPC   PO461020  18.654  44.861   5.340
 4725POPC   GL161021  18.507  44.722   5.752
 4725POPC   GL261022  18.331  44.394   5.722
 4725POPC   C1A61023  18.523  44.910   6.161
 4725POPC   D2A61024  18.296  44.971   6.552
 4725POPC   C3A61025  18.331  44.648   6.859
 4725POPC   C4A61026  18.511  44.685   7.286
 4725POPC   C1B61027  18.157  44.188   6.076
 4725POPC   C2B61028  18.139  44.262   6.501
 4725POPC   C3B61029  17.938  44.294   6.879
 4725POPC   C4B61030  18.195  44.276   7.240
 4726POPC   NC361031  21.774  23.963   5.565
 4726POPC   PO461032  21.084  23.872   5.459
 4726POPC   GL161033  21.372  23.673   5.765
 4726POPC   GL261034  21.212  23.351   5.710
 4726POPC   C1A61035  21.556  23.713   6.209
 4726POPC   D2A61036  21.344  23.838   6.619
 4726POPC   C3A61037  21.463  23.975   7.019
 4726POPC   C4A61038  21.248  23.946   7.405
 4726POPC   C1B61039  21.351  23.249   6.106
 4726POPC   C2B61040  21.391  23.319   6.530
 4726POPC   C3B61041  21.375  23.459   6.964
 4726POPC   C4B61042  21.028  23.373   7.226
 4727POPC   NC361043  31.675  26.405   5.641
 4727POPC   PO461044  31.287  26.082   5.218
 4727POPC   GL161045  31.337  26.034   5.741
 4727POPC   GL261046  31.222  25.739   5.844
 4727POPC   C1A61047  31.582  25.837   6.221
 4727POPC   D2A61048  31.801  25.859   6.685
 4727POPC   C3A61049  31.720  26.252   6.982
 4727POPC   C4A61050  31.577  26.275   7.450
 4727POPC   C1B61051  31.141  26.056   6.203
 4727POPC   C2B61052  31.346  26.107   6.640
 4727POPC   C3B61053  31.233  26.133   7.078
 4727POPC   C4B61054  30.948  25.914   7.288
 4728POPC   NC361055  41.191  33.505   5.367
 4728POPC   PO461056  41.800  33.745   5.599
 4728POPC   GL161057  41.649  33.623   5.912
 4728POPC   GL261058  41.314  33.669   5.832
 4728POPC   C1A61059  41.569  33.755   6.309
 4728POPC   D2A61060  41.549  33.879   6.737
 4728POPC   C3A61061  41.787  33.616   7.016
 4728POPC   C4A61062  41.824  33.708   7.451
 4728POPC   C1B61063  41.078  33.547   6.168
 4728POPC   C2B61064  41.061  33.737   6.555
 4728POPC   C3B61065  41.064  33.885   6.947
 4728POPC   C4B61066  41.330  33.729   7.219
 4729POPC   NC361067  24.102   4.601   5.398
 4729POPC   PO461068  23.724   4.058   5.377
 4729POPC   GL161069  23.671   4.166   5.810
 4729POPC   GL261070  23.771   4.494   5.791
 4729POPC   C1A61071  23.715   4.017   6.247
 4729POPC   D2A61072  23.424   3.963   6.605
 4729POPC   C3A61073  23.627   4.117   6.971
 4729POPC   C4A61074  23.751   4.226   7.402
 4729POPC   C1B61075  23.826   4.530   6.228
 4729POPC   C2B61076  23.617   4.497   6.619
 4729POPC   C3B61077  23.707   4.680   7.016
 4729POPC   C4B61078  23.584   4.734   7.421
 4730POPC   NC361079   6.195  11.701   5.443
 4730POPC   PO461080   5.615  11.188   5.449
 4730POPC   GL161081   5.850  11.269   5.816
 4730POPC   GL261082   6.156  11.407   5.988
 4730POPC   C1A61083   5.707  11.253   6.221
 4730POPC   D2A61084   5.921  11.356   6.564
 4730POPC   C3A61085   5.702  11.339   6.905
 4730POPC   C4A61086   5.835  11.492   7.290
 4730POPC   C1B61087   6.129  10.986   6.215
 4730POPC   C2B61088   5.917  10.864   6.635
 4730POPC   C3B61089   6.016  11.002   7.084
 4730POPC   C4B61090   6.003  11.017   7.552
 4731POPC   NC361091  20.165  16.091   5.397
 4731POPC   PO461092  20.763  16.108   5.635
 4731POPC   GL161093  20.704  15.785   5.881
 4731POPC   GL261094  20.343  15.912   5.884
 4731POPC   C1A61095  20.887  15.768   6.315
 4731POPC   D2A61096  21.081  15.972   6.685
 4731POPC   C3A61097  20.841  16.134   7.045
 4731POPC   C4A61098  20.618  16.214   7.415
 4731POPC   C1B61099  20.389  15.641   6.284
 4731POPC   C2B61100  20.592  15.654   6.721
 4731POPC   C3B61101  20.464  15.763   7.155
 4731POPC   C4B61102  20.370  15.784   7.619
 4732POPC   NC361103  20.597  13.557   5.455
 4732POPC   PO461104  20.551  14.191   5.711
 4732POPC   GL161105  20.595  13.838   5.885
 4732POPC   GL261106  20.939  13.810   5.771
 4732POPC   C1A61107  20.428  13.688   6.272
 4732POPC   D2A61108  20.364  13.807   6.697
 4732POPC   C3A61109  20.454  13.504   6.990
 4732POPC   C4A61110  20.633  13.692   7.356
 4732POPC   C1B61111  20.875  13.497   6.119
 4732POPC   C2B61112  20.848  13.571   6.562
 4732POPC   C3B61113  20.977  13.544   6.984
 4732POPC   C4B61114  20.999  13.208   7.274
 4733POPC   NC361115  40.845   2.285   5.466
 4733POPC   PO461116  40.720   1.592   5.354
 4733POPC   GL161117  40.915   1.815   5.664
 4733POPC   GL261118  40.610   1.930   5.750
 4733POPC   C1A61119  41.163   1.987   6.003
 4733POPC   D2A61120  41.119   1.870   6.444
 4733POPC   C3A61121  41.071   2.138   6.805
 4733POPC   C4A61122  40.883   1.980   7.197
 4733POPC   C1B61123  40.691   1.880   6.151
 4733POPC   C2B61124  40.690   2.189   6.453
 4733POPC   C3B61125  40.554   2.207   6.862
 4733POPC   C4B61126  40.604   2.407   7.244
 4734POPC   NC361127   1.604  40.944   5.374
 4734POPC   PO461128   1.164  40.434   5.390
 4734POPC   GL161129   1.210  40.770   5.730
 4734POPC   GL261130   0.953  41.036   5.704
 4734POPC   C1A61131   1.375  40.805   6.190
 4734POPC   D2A61132   1.223  40.633   6.614
 4734POPC   C3A61133   1.336  40.846   7.008
 4734POPC   C4A61134   1.595  41.213   7.035
 4734POPC   C1B61135   0.859  40.895   6.145
 4734POPC   C2B61136   0.852  41.037   6.565
 4734POPC   C3B61137   0.830  40.854   6.973
 4734POPC   C4B61138   0.999  40.454   7.063
 4735POPC   NC361139  15.428  34.126   5.791
 4735POPC   PO461140  15.861  33.754   5.422
 4735POPC   GL161141  16.010  33.800   5.858
 4735POPC   GL261142  16.255  34.093   5.788
 4735POPC   C1A61143  16.115  33.729   6.319
 4735POPC   D2A61144  15.941  33.402   6.572
 4735POPC   C3A61145  15.836  33.526   6.966
 4735POPC   C4A61146  16.080  33.717   7.288
 4735POPC   C1B61147  16.015  34.197   6.147
 4735POPC   C2B61148  15.989  34.225   6.559
 4735POPC   C3B61149  15.977  34.067   6.950
 4735POPC   C4B61150  15.971  34.216   7.387
 4736POPC   NC361151  18.319  11.234   5.298
 4736POPC   PO461152  17.698  11.124   5.144
 4736POPC   GL161153  17.939  11.059   5.593
 4736POPC   GL261154  18.129  11.361   5.754
 4736POPC   C1A61155  17.986  10.967   6.069
 4736POPC   D2A61156  18.143  11.147   6.482
 4736POPC   C3A61157  18.318  11.129   6.922
 4736POPC   C4A61158  18.143  11.202   7.359
 4736POPC   C1B61159  18.439  11.311   6.093
 4736POPC   C2B61160  18.576  11.432   6.522
 4736POPC   C3B61161  18.766  11.432   6.931
 4736POPC   C4B61162  18.614  11.384   7.329
 4737POPC   NC361163  12.462   9.817   5.394
 4737POPC   PO461164  13.079   9.441   5.249
 4737POPC   GL161165  12.950   9.708   5.649
 4737POPC   GL261166  12.615   9.702   5.873
 4737POPC   C1A61167  13.081   9.818   6.071
 4737POPC   D2A61168  13.251   9.703   6.467
 4737POPC   C3A61169  12.983   9.723   6.813
 4737POPC   C4A61170  12.908   9.967   7.175
 4737POPC   C1B61171  12.643  10.038   6.241
 4737POPC   C2B61172  12.646  10.107   6.707
 4737POPC   C3B61173  12.471   9.789   6.972
 4737POPC   C4B61174  12.360   9.596   7.336
 4738POPC   NC361175  33.907  43.129   5.210
 4738POPC   PO461176  34.232  43.357   5.713
 4738POPC   GL161177  33.815  43.303   5.906
 4738POPC   GL261178  33.811  42.991   5.851
 4738POPC   C1A61179  33.612  43.263   6.315
 4738POPC   D2A61180  33.758  43.079   6.702
 4738POPC   C3A61181  33.683  43.349   7.077
 4738POPC   C4A61182  33.390  43.520   7.393
 4738POPC   C1B61183  33.710  42.761   6.232
 4738POPC   C2B61184  33.554  42.495   6.552
 4738POPC   C3B61185  33.513  42.661   6.942
 4738POPC   C4B61186  33.804  42.851   7.159
 4739POPC   NC361187  11.755  28.576   5.123
 4739POPC   PO461188  11.259  28.971   5.439
 4739POPC   GL161189  11.201  29.158   5.861
 4739POPC   GL261190  10.948  29.410   5.924
 4739POPC   C1A61191  11.353  29.115   6.271
 4739POPC   D2A61192  11.508  28.813   6.591
 4739POPC   C3A61193  11.325  28.936   6.982
 4739POPC   C4A61194  11.410  29.302   7.206
 4739POPC   C1B61195  10.925  29.419   6.397
 4739POPC   C2B61196  11.041  29.375   6.854
 4739POPC   C3B61197  10.918  29.431   7.302
 4739POPC   C4B61198  10.889  29.271   7.759
 4740POPC   NC361199  32.680   8.071   5.343
 4740POPC   PO461200  32.127   8.435   5.231
 4740POPC   GL161201  32.143   8.229   5.676
 4740POPC   GL261202  32.486   8.195   5.818
 4740POPC   C1A61203  32.141   8.191   6.170
 4740POPC   D2A61204  32.386   8.042   6.520
 4740POPC   C3A61205  32.252   8.177   6.905
 4740POPC   C4A61206  31.974   8.444   7.105
 4740POPC   C1B61207  32.629   8.406   6.209
 4740POPC   C2B61208  32.761   8.602   6.578
 4740POPC   C3B61209  32.602   8.563   6.970
 4740POPC   C4B61210  32.664   8.203   7.188
 4741POPC   NC361211  26.732  16.436   5.406
 4741POPC   PO461212  27.011  16.939   5.189
 4741POPC   GL161213  26.956  16.870   5.657
 4741POPC   GL261214  26.595  16.916   5.752
 4741POPC   C1A61215  27.053  16.684   6.075
 4741POPC   D2A61216  27.246  16.774   6.493
 4741POPC   C3A61217  27.059  16.482   6.805
 4741POPC   C4A61218  26.874  16.462   7.190
 4741POPC   C1B61219  26.571  16.801   6.203
 4741POPC   C2B61220  26.758  16.967   6.558
 4741POPC   C3B61221  26.794  16.972   6.975
 4741POPC   C4B61222  26.479  16.793   7.179
 4742POPC   NC361223  37.471  29.380   5.438
 4742POPC   PO461224  37.884  28.840   5.403
 4742POPC   GL161225  37.893  28.940   5.823
 4742POPC   GL261226  37.867  29.296   5.813
 4742POPC   C1A61227  37.739  28.980   6.252
 4742POPC   D2A61228  37.949  29.062   6.627
 4742POPC   C3A61229  37.845  29.298   6.997
 4742POPC   C4A61230  37.670  29.032   7.289
 4742POPC   C1B61231  37.560  29.455   6.121
 4742POPC   C2B61232  37.525  29.379   6.549
 4742POPC   C3B61233  37.438  29.075   6.826
 4742POPC   C4B61234  37.289  29.373   7.139
 4743POPC   NC361235  36.537  38.441   5.649
 4743POPC   PO461236  36.154  38.806   5.272
 4743POPC   GL161237  35.998  38.755   5.729
 4743POPC   GL261238  36.073  38.436   5.882
 4743POPC   C1A61239  35.891  38.778   6.195
 4743POPC   D2A61240  35.873  38.647   6.624
 4743POPC   C3A61241  36.158  38.716   6.986
 4743POPC   C4A61242  36.011  38.640   7.414
 4743POPC   C1B61243  36.264  38.293   6.264
 4743POPC   C2B61244  36.163  38.200   6.703
 4743POPC   C3B61245  36.403  38.261   7.083
 4743POPC   C4B61246  36.485  38.060   7.471
 4744POPC   NC361247  12.270  11.830   5.199
 4744POPC   PO461248  12.001  12.492   5.313
 4744POPC   GL161249  12.043  12.281   5.752
 4744POPC   GL261250  12.136  11.922   5.710
 4744POPC   C1A61251  11.849  12.096   6.136
 4744POPC   D2A61252  12.029  12.163   6.528
 4744POPC   C3A61253  11.886  12.011   6.904
 4744POPC   C4A61254  12.201  12.145   7.202
 4744POPC   C1B61255  12.228  11.771   6.142
 4744POPC   C2B61256  11.998  11.636   6.486
 4744POPC   C3B61257  12.235  11.585   6.830
 4744POPC   C4B61258  12.263  11.645   7.233
 4745POPC   NC361259  10.401   0.410   5.475
 4745POPC   PO461260  10.761   0.970   5.449
 4745POPC   GL161261  10.652   0.721   5.818
 4745POPC   GL261262  10.769   0.356   5.824
 4745POPC   C1A61263  10.584   0.650   6.254
 4745POPC   D2A61264  10.779   0.744   6.630
 4745POPC   C3A61265  10.469   0.697   6.923
 4745POPC   C4A61266  10.345   0.342   7.160
 4745POPC   C1B61267  11.017   0.409   6.205
 4745POPC   C2B61268  10.938   0.240   6.612
 4745POPC   C3B61269  10.841   0.308   7.052
 4745POPC   C4B61270  10.721   0.656   7.350
 4746POPC   NC361271   1.113  26.959   5.653
 4746POPC   PO461272   1.067  27.518   5.260
 4746POPC   GL161273   1.167  27.729   5.726
 4746POPC   GL261274   0.959  27.475   5.893
 4746POPC   C1A61275   1.309  27.705   6.225
 4746POPC   D2A61276   1.342  27.417   6.641
 4746POPC   C3A61277   1.554  27.580   7.042
 4746POPC   C4A61278   1.633  28.034   7.136
 4746POPC   C1B61279   0.820  27.617   6.314
 4746POPC   C2B61280   1.015  27.852   6.667
 4746POPC   C3B61281   1.043  27.589   7.038
 4746POPC   C4B61282   0.927  27.213   7.288
 4747POPC   NC361283   8.622  32.419   5.393
 4747POPC   PO461284   9.148  32.712   5.327
 4747POPC   GL161285   9.073  32.367   5.691
 4747POPC   GL261286   8.781  32.090   5.740
 4747POPC   C1A61287   8.952  32.372   6.167
 4747POPC   D2A61288   9.173  32.285   6.576
 4747POPC   C3A61289   9.062  32.480   6.964
 4747POPC   C4A61290   9.087  32.238   7.329
 4747POPC   C1B61291   8.498  31.981   6.103
 4747POPC   C2B61292   8.710  32.026   6.510
 4747POPC   C3B61293   8.912  31.983   6.903
 4747POPC   C4B61294   8.633  32.018   7.239
 4748POPC   NC361295  40.949   9.779   5.029
 4748POPC   PO461296  40.860   9.888   5.613
 4748POPC   GL161297  40.721   9.785   5.917
 4748POPC   GL261298  40.568   9.490   5.801
 4748POPC   C1A61299  40.812   9.950   6.304
 4748POPC   D2A61300  40.601  10.133   6.610
 4748POPC   C3A61301  40.837   9.979   6.899
 4748POPC   C4A61302  40.941   9.816   7.247
 4748POPC   C1B61303  40.626   9.464   6.274
 4748POPC   C2B61304  40.460   9.639   6.647
 4748POPC   C3B61305  40.478   9.652   7.078
 4748POPC   C4B61306  40.652   9.436   7.411
 4749POPC   NC361307   0.828   3.672   5.436
 4749POPC   PO461308   1.452   3.340   5.538
 4749POPC   GL161309   1.280   3.489   5.885
 4749POPC   GL261310   0.937   3.599   5.936
 4749POPC   C1A61311   1.351   3.509   6.309
 4749POPC   D2A61312   1.281   3.767   6.666
 4749POPC   C3A61313   1.207   3.645   7.071
 4749POPC   C4A61314   1.201   3.219   7.252
 4749POPC   C1B61315   0.854   3.698   6.375
 4749POPC   C2B61316   0.852   4.036   6.703
 4749POPC   C3B61317   0.803   3.952   7.156
 4749POPC   C4B61318   1.021   3.750   7.532
 4750POPC   NC361319  40.065  42.786   5.425
 4750POPC   PO461320  40.168  42.166   5.368
 4750POPC   GL161321  39.971  42.308   5.750
 4750POPC   GL261322  40.298  42.398   5.837
 4750POPC   C1A61323  39.937  42.560   6.165
 4750POPC   D2A61324  40.029  42.460   6.614
 4750POPC   C3A61325  39.669  42.480   6.909
 4750POPC   C4A61326  39.759  42.367   7.337
 4750POPC   C1B61327  40.256  42.155   6.242
 4750POPC   C2B61328  40.416  42.060   6.672
 4750POPC   C3B61329  40.416  41.908   7.123
 4750POPC   C4B61330  40.118  41.967   7.515
 4751POPC   NC361331  29.585   6.024   5.093
 4751POPC   PO461332  29.007   5.759   5.285
 4751POPC   GL161333  28.899   5.920   5.731
 4751POPC   GL261334  29.175   5.760   5.821
 4751POPC   C1A61335  28.997   5.986   6.231
 4751POPC   D2A61336  29.208   5.657   6.512
 4751POPC   C3A61337  29.024   5.615   6.920
 4751POPC   C4A61338  28.950   6.001   7.143
 4751POPC   C1B61339  29.451   6.053   5.999
 4751POPC   C2B61340  29.572   6.065   6.428
 4751POPC   C3B61341  29.381   6.020   6.848
 4751POPC   C4B61342  29.500   6.062   7.287
 4752POPC   NC361343  20.947  33.361   5.480
 4752POPC   PO461344  20.346  33.045   5.495
 4752POPC   GL161345  20.493  32.960   5.890
 4752POPC   GL261346  20.876  32.999   5.887
 4752POPC   C1A61347  20.305  33.040   6.289
 4752POPC   D2A61348  20.454  33.261   6.642
 4752POPC   C3A61349  20.826  33.124   6.836
 4752POPC   C4A61350  20.794  33.290   7.226
 4752POPC   C1B61351  20.822  32.962   6.335
 4752POPC   C2B61352  20.567  32.728   6.632
 4752POPC   C3B61353  20.466  32.843   7.058
 4752POPC   C4B61354  20.752  32.806   7.417
 4753POPC   NC361355  21.421  15.043   5.349
 4753POPC   PO461356  20.990  15.470   5.469
 4753POPC   GL161357  21.273  15.346   5.792
 4753POPC   GL261358  21.634  15.422   5.682
 4753POPC   C1A61359  21.211  15.076   6.178
 4753POPC   D2A61360  21.279  14.865   6.578
 4753POPC   C3A61361  21.141  14.933   6.973
 4753POPC   C4A61362  21.181  15.244   7.286
 4753POPC   C1B61363  21.694  15.201   6.069
 4753POPC   C2B61364  21.648  15.205   6.508
 4753POPC   C3B61365  21.606  15.206   6.948
 4753POPC   C4B61366  21.543  15.599   7.129
 4754POPC   NC361367   8.708  16.997   5.694
 4754POPC   PO461368   8.130  16.803   5.414
 4754POPC   GL161369   8.002  16.613   5.794
 4754POPC   GL261370   8.311  16.434   5.788
 4754POPC   C1A61371   8.126  16.755   6.192
 4754POPC   D2A61372   8.440  16.725   6.521
 4754POPC   C3A61373   8.253  16.800   6.911
 4754POPC   C4A61374   7.894  16.762   7.182
 4754POPC   C1B61375   8.376  16.298   6.185
 4754POPC   C2B61376   8.284  16.227   6.609
 4754POPC   C3B61377   8.538  16.306   6.972
 4754POPC   C4B61378   8.438  16.559   7.308
 4755POPC   NC361379  22.365  19.465   5.552
 4755POPC   PO461380  22.023  18.936   5.228
 4755POPC   GL161381  21.995  19.045   5.702
 4755POPC   GL261382  22.300  19.059   5.865
 4755POPC   C1A61383  21.905  19.116   6.199
 4755POPC   D2A61384  21.769  18.958   6.652
 4755POPC   C3A61385  21.941  19.123   7.087
 4755POPC   C4A61386  21.713  19.149   7.510
 4755POPC   C1B61387  22.369  19.319   6.222
 4755POPC   C2B61388  22.194  19.279   6.646
 4755POPC   C3B61389  22.266  19.501   7.018
 4755POPC   C4B61390  22.617  19.627   7.250
 4756POPC   NC361391  36.347  10.150   5.521
 4756POPC   PO461392  36.908   9.798   5.422
 4756POPC   GL161393  36.873   9.613   5.834
 4756POPC   GL261394  36.520   9.631   5.807
 4756POPC   C1A61395  37.034   9.467   6.260
 4756POPC   D2A61396  36.970   9.382   6.720
 4756POPC   C3A61397  37.248   9.591   7.032
 4756POPC   C4A61398  37.178   9.820   7.438
 4756POPC   C1B61399  36.614   9.965   6.146
 4756POPC   C2B61400  36.805  10.008   6.580
 4756POPC   C3B61401  36.964  10.023   6.998
 4756POPC   C4B61402  36.725  10.049   7.391
 4757POPC   NC361403  32.673  33.377   5.435
 4757POPC   PO461404  32.022  32.988   5.472
 4757POPC   GL161405  32.234  33.062   5.852
 4757POPC   GL261406  32.417  33.361   5.862
 4757POPC   C1A61407  32.120  32.917   6.250
 4757POPC   D2A61408  31.908  33.051   6.645
 4757POPC   C3A61409  32.033  32.807   7.033
 4757POPC   C4A61410  32.031  32.961   7.447
 4757POPC   C1B61411  32.589  33.225   6.229
 4757POPC   C2B61412  32.462  33.051   6.602
 4757POPC   C3B61413  32.322  33.210   6.958
 4757POPC   C4B61414  32.502  32.995   7.259
 4758POPC   NC361415  13.358  28.633   5.380
 4758POPC   PO461416  14.021  28.295   5.372
 4758POPC   GL161417  13.728  28.405   5.766
 4758POPC   GL261418  13.376  28.511   5.878
 4758POPC   C1A61419  13.756  28.547   6.222
 4758POPC   D2A61420  13.715  28.281   6.586
 4758POPC   C3A61421  13.508  28.427   6.940
 4758POPC   C4A61422  13.788  28.416   7.217
 4758POPC   C1B61423  13.475  28.117   6.144
 4758POPC   C2B61424  13.290  27.983   6.555
 4758POPC   C3B61425  13.107  28.098   6.941
 4758POPC   C4B61426  13.319  28.074   7.337
 4759POPC   NC361427   1.403  21.331   5.488
 4759POPC   PO461428   0.713  21.364   5.445
 4759POPC   GL161429   0.909  21.355   5.849
 4759POPC   GL261430   1.003  21.009   5.947
 4759POPC   C1A61431   0.951  21.378   6.314
 4759POPC   D2A61432   1.124  21.221   6.724
 4759POPC   C3A61433   1.114  21.545   7.065
 4759POPC   C4A61434   0.753  21.765   7.194
 4759POPC   C1B61435   1.396  21.081   6.201
 4759POPC   C2B61436   1.625  21.091   6.614
 4759POPC   C3B61437   1.523  21.177   7.073
 4759POPC   C4B61438   1.726  21.391   7.428
 4760POPC   NC361439  12.752  20.705   5.323
 4760POPC   PO461440  13.337  21.024   5.500
 4760POPC   GL161441  13.156  20.662   5.763
 4760POPC   GL261442  12.836  20.425   5.813
 4760POPC   C1A61443  13.026  20.729   6.216
 4760POPC   D2A61444  13.010  21.072   6.555
 4760POPC   C3A61445  12.897  20.875   6.975
 4760POPC   C4A61446  13.066  20.517   7.192
 4760POPC   C1B61447  12.642  20.367   6.273
 4760POPC   C2B61448  12.656  20.343   6.785
 4760POPC   C3B61449  12.589  20.287   7.269
 4760POPC   C4B61450  12.574  20.474   7.734
 4761POPC   NC361451   0.772  40.686   5.335
 4761POPC   PO461452   0.296  40.956   5.120
 4761POPC   GL161453   0.336  40.784   5.607
 4761POPC   GL261454   0.624  40.612   5.793
 4761POPC   C1A61455   0.239  40.781   6.069
 4761POPC   D2A61456   0.371  40.899   6.456
 4761POPC   C3A61457   0.086  40.882   6.781
 4761POPC   C4A61458   0.143  40.948   7.207
 4761POPC   C1B61459   0.612  40.455   6.185
 4761POPC   C2B61460   0.704  40.536   6.586
 4761POPC   C3B61461   0.434  40.532   6.917
 4761POPC   C4B61462   0.544  40.549   7.325
 4762POPC   NC361463  20.733  22.673   5.404
 4762POPC   PO461464  20.356  23.234   5.408
 4762POPC   GL161465  20.701  23.177   5.760
 4762POPC   GL261466  20.820  22.841   5.865
 4762POPC   C1A61467  20.843  23.211   6.195
 4762POPC   D2A61468  20.979  23.027   6.555
 4762POPC   C3A61469  20.770  23.079   6.919
 4762POPC   C4A61470  20.634  23.025   7.327
 4762POPC   C1B61471  20.458  22.846   6.157
 4762POPC   C2B61472  20.471  22.807   6.611
 4762POPC   C3B61473  20.529  22.641   7.021
 4762POPC   C4B61474  20.311  22.599   7.433
 4763POPC   NC361475  26.220  36.998   5.417
 4763POPC   PO461476  25.663  37.411   5.431
 4763POPC   GL161477  25.854  37.149   5.773
 4763POPC   GL261478  25.853  36.781   5.780
 4763POPC   C1A61479  26.229  37.121   6.072
 4763POPC   D2A61480  26.391  36.958   6.482
 4763POPC   C3A61481  26.072  37.046   6.777
 4763POPC   C4A61482  25.932  37.135   7.175
 4763POPC   C1B61483  26.015  36.660   6.194
 4763POPC   C2B61484  26.063  36.561   6.611
 4763POPC   C3B61485  25.865  36.617   7.015
 4763POPC   C4B61486  25.718  36.708   7.438
 4764POPC   NC361487  32.153  24.992   5.318
 4764POPC   PO461488  32.151  25.589   5.119
 4764POPC   GL161489  32.113  25.446   5.617
 4764POPC   GL261490  31.792  25.480   5.825
 4764POPC   C1A61491  32.222  25.300   6.096
 4764POPC   D2A61492  32.126  25.325   6.597
 4764POPC   C3A61493  32.356  25.195   6.993
 4764POPC   C4A61494  32.767  25.221   7.171
 4764POPC   C1B61495  31.722  25.327   6.270
 4764POPC   C2B61496  31.637  25.357   6.739
 4764POPC   C3B61497  31.866  25.375   7.129
 4764POPC   C4B61498  32.110  25.515   7.483
 4765POPC   NC361499   2.931  26.460   5.069
 4765POPC   PO461500   2.932  25.909   5.466
 4765POPC   GL161501   2.796  26.251   5.726
 4765POPC   GL261502   2.648  25.980   5.894
 4765POPC   C1A61503   2.607  26.429   6.132
 4765POPC   D2A61504   2.694  26.201   6.534
 4765POPC   C3A61505   2.775  26.387   6.942
 4765POPC   C4A61506   2.834  26.242   7.363
 4765POPC   C1B61507   2.819  25.746   6.248
 4765POPC   C2B61508   2.692  25.659   6.677
 4765POPC   C3B61509   2.900  25.873   7.004
 4765POPC   C4B61510   3.196  25.882   7.344
 4766POPC   NC361511  33.216   8.667   5.558
 4766POPC   PO461512  33.247   8.055   5.274
 4766POPC   GL161513  33.259   8.182   5.720
 4766POPC   GL261514  32.974   8.031   5.787
 4766POPC   C1A61515  33.165   8.312   6.192
 4766POPC   D2A61516  33.068   8.160   6.646
 4766POPC   C3A61517  33.098   8.409   7.065
 4766POPC   C4A61518  33.133   8.296   7.544
 4766POPC   C1B61519  32.790   7.914   6.184
 4766POPC   C2B61520  32.772   7.724   6.591
 4766POPC   C3B61521  32.748   7.738   7.013
 4766POPC   C4B61522  33.099   7.891   7.242
 4767POPC   NC361523  20.159  17.039   5.336
 4767POPC   PO461524  20.548  17.643   5.316
 4767POPC   GL161525  20.744  17.511   5.694
 4767POPC   GL261526  20.878  17.813   5.839
 4767POPC   C1A61527  20.783  17.387   6.137
 4767POPC   D2A61528  20.634  17.497   6.549
 4767POPC   C3A61529  20.748  17.311   6.931
 4767POPC   C4A61530  20.690  17.401   7.382
 4767POPC   C1B61531  20.829  17.907   6.280
 4767POPC   C2B61532  20.682  17.990   6.706
 4767POPC   C3B61533  20.763  17.816   7.093
 4767POPC   C4B61534  21.025  17.963   7.408
 4768POPC   NC361535  15.512  32.359   5.412
 4768POPC   PO461536  15.149  31.852   5.185
 4768POPC   GL161537  15.140  31.943   5.689
 4768POPC   GL261538  15.450  32.067   5.826
 4768POPC   C1A61539  15.023  32.114   6.153
 4768POPC   D2A61540  14.859  32.140   6.623
 4768POPC   C3A61541  15.187  32.203   6.969
 4768POPC   C4A61542  15.147  32.221   7.441
 4768POPC   C1B61543  15.501  32.362   6.169
 4768POPC   C2B61544  15.349  32.493   6.561
 4768POPC   C3B61545  15.531  32.628   6.933
 4768POPC   C4B61546  15.543  32.507   7.307
 4769POPC   NC361547  12.414  30.777   5.455
 4769POPC   PO461548  11.836  31.141   5.412
 4769POPC   GL161549  12.087  31.018   5.773
 4769POPC   GL261550  11.983  30.659   5.767
 4769POPC   C1A61551  12.233  30.830   6.183
 4769POPC   D2A61552  11.999  30.750   6.572
 4769POPC   C3A61553  12.215  30.836   6.978
 4769POPC   C4A61554  12.247  31.069   7.361
 4769POPC   C1B61555  12.006  30.377   6.134
 4769POPC   C2B61556  12.134  30.207   6.504
 4769POPC   C3B61557  12.011  30.332   6.891
 4769POPC   C4B61558  12.199  30.412   7.265
 4770POPC   NC361559  28.958  38.661   5.509
 4770POPC   PO461560  29.476  38.310   5.508
 4770POPC   GL161561  29.351  38.516   5.861
 4770POPC   GL261562  29.488  38.838   6.009
 4770POPC   C1A61563  29.268  38.285   6.225
 4770POPC   D2A61564  29.299  38.484   6.615
 4770POPC   C3A61565  29.037  38.383   6.952
 4770POPC   C4A61566  29.300  38.381   7.282
 4770POPC   C1B61567  29.070  38.749   6.225
 4770POPC   C2B61568  28.840  38.723   6.614
 4770POPC   C3B61569  28.861  38.855   7.062
 4770POPC   C4B61570  28.934  38.665   7.501
 4771POPC   NC361571  13.743  26.897   5.131
 4771POPC   PO461572  13.202  26.549   5.312
 4771POPC   GL161573  13.492  26.722   5.656
 4771POPC   GL261574  13.394  26.997   5.851
 4771POPC   C1A61575  13.642  26.597   6.120
 4771POPC   D2A61576  13.736  26.356   6.547
 4771POPC   C3A61577  13.869  26.507   6.974
 4771POPC   C4A61578  13.842  26.725   7.384
 4771POPC   C1B61579  13.575  27.089   6.246
 4771POPC   C2B61580  13.590  26.852   6.631
 4771POPC   C3B61581  13.473  26.868   7.065
 4771POPC   C4B61582  13.486  27.135   7.451
 4772POPC   NC361583   3.743  32.026   5.343
 4772POPC   PO461584   3.308  32.528   5.521
 4772POPC   GL161585   3.609  32.314   5.794
 4772POPC   GL261586   3.589  31.950   5.840
 4772POPC   C1A61587   3.739  32.278   6.234
 4772POPC   D2A61588   3.537  32.175   6.620
 4772POPC   C3A61589   3.685  32.399   6.946
 4772POPC   C4A61590   3.600  32.512   7.345
 4772POPC   C1B61591   3.643  31.760   6.275
 4772POPC   C2B61592   3.669  31.685   6.719
 4772POPC   C3B61593   3.784  31.919   7.041
 4772POPC   C4B61594   3.575  32.000   7.397
 4773POPC   NC361595  26.755  27.498   5.587
 4773POPC   PO461596  26.434  28.133   5.398
 4773POPC   GL161597  26.698  27.976   5.773
 4773POPC   GL261598  27.055  27.858   5.860
 4773POPC   C1A61599  26.592  27.796   6.178
 4773POPC   D2A61600  26.756  27.760   6.574
 4773POPC   C3A61601  26.594  27.564   6.935
 4773POPC   C4A61602  26.708  27.586   7.340
 4773POPC   C1B61603  27.053  27.536   6.218
 4773POPC   C2B61604  27.023  27.352   6.645
 4773POPC   C3B61605  27.107  27.339   7.070
 4773POPC   C4B61606  27.081  27.284   7.507
 4774POPC   NC361607  18.866  12.611   5.651
 4774POPC   PO461608  18.961  13.011   5.125
 4774POPC   GL161609  18.911  13.132   5.576
 4774POPC   GL261610  19.243  12.987   5.721
 4774POPC   C1A61611  18.881  13.153   6.058
 4774POPC   D2A61612  18.839  12.936   6.471
 4774POPC   C3A61613  19.228  13.005   6.742
 4774POPC   C4A61614  19.283  12.904   7.195
 4774POPC   C1B61615  19.250  12.829   6.185
 4774POPC   C2B61616  19.386  12.543   6.556
 4774POPC   C3B61617  19.285  12.416   7.004
 4774POPC   C4B61618  19.324  12.471   7.470
 4775POPC   NC361619  31.480  43.840   5.358
 4775POPC   PO461620  31.741  43.553   5.865
 4775POPC   GL161621  31.541  43.959   5.924
 4775POPC   GL261622  31.831  44.162   5.872
 4775POPC   C1A61623  31.340  44.055   6.340
 4775POPC   D2A61624  31.096  43.834   6.676
 4775POPC   C3A61625  31.272  43.697   7.067
 4775POPC   C4A61626  31.062  43.529   7.420
 4775POPC   C1B61627  31.885  43.994   6.299
 4775POPC   C2B61628  31.676  43.696   6.567
 4775POPC   C3B61629  31.802  43.634   6.967
 4775POPC   C4B61630  31.740  43.952   7.245
 4776POPC   NC361631  21.988  38.098   5.460
 4776POPC   PO461632  22.379  38.750   5.427
 4776POPC   GL161633  22.132  38.526   5.720
 4776POPC   GL261634  22.110  38.782   5.902
 4776POPC   C1A61635  22.115  38.312   6.131
 4776POPC   D2A61636  22.162  38.115   6.540
 4776POPC   C3A61637  21.924  38.303   6.892
 4776POPC   C4A61638  21.964  38.442   7.308
 4776POPC   C1B61639  22.193  38.821   6.299
 4776POPC   C2B61640  22.027  38.778   6.653
 4776POPC   C3B61641  22.224  38.759   6.999
 4776POPC   C4B61642  22.134  38.913   7.340
 4777POPC   NC361643  13.142  10.538   5.532
 4777POPC   PO461644  12.580  10.294   5.371
 4777POPC   GL161645  12.806  10.280   5.826
 4777POPC   GL261646  13.175  10.294   5.976
 4777POPC   C1A61647  12.823  10.576   6.223
 4777POPC   D2A61648  12.959  10.745   6.645
 4777POPC   C3A61649  12.774  10.540   6.979
 4777POPC   C4A61650  12.536  10.697   7.395
 4777POPC   C1B61651  13.112  10.197   6.448
 4777POPC   C2B61652  13.217  10.284   6.899
 4777POPC   C3B61653  13.082  10.399   7.353
 4777POPC   C4B61654  12.739  10.311   7.644
 4778POPC   NC361655  26.225  17.297   5.361
 4778POPC   PO461656  25.490  17.416   5.324
 4778POPC   GL161657  25.847  17.502   5.670
 4778POPC   GL261658  26.172  17.497   5.838
 4778POPC   C1A61659  25.832  17.711   6.127
 4778POPC   D2A61660  25.758  17.624   6.563
 4778POPC   C3A61661  26.003  17.500   6.917
 4778POPC   C4A61662  25.813  17.534   7.342
 4778POPC   C1B61663  26.375  17.714   6.181
 4778POPC   C2B61664  26.226  17.853   6.576
 4778POPC   C3B61665  26.344  18.038   6.956
 4778POPC   C4B61666  26.270  17.780   7.316
 4779POPC   NC361667  43.613  34.044   5.279
 4779POPC   PO461668  43.168  33.627   5.462
 4779POPC   GL161669  43.082  33.657   5.901
 4779POPC   GL261670  43.286  33.974   5.865
 4779POPC   C1A61671  43.030  33.532   6.361
 4779POPC   D2A61672  43.363  33.483   6.705
 4779POPC   C3A61673  43.190  33.554   7.129
 4779POPC   C4A61674  43.107  33.841   7.483
 4779POPC   C1B61675  43.112  34.031   6.288
 4779POPC   C2B61676  43.093  33.912   6.726
 4779POPC   C3B61677  43.111  34.137   7.090
 4779POPC   C4B61678  42.767  34.221   7.393
 4780POPC   NC361679  30.132   1.470   5.476
 4780POPC   PO461680  29.489   1.242   5.529
 4780POPC   GL161681  29.606   1.134   5.914
 4780POPC   GL261682  29.933   1.091   5.818
 4780POPC   C1A61683  29.695   1.057   6.337
 4780POPC   D2A61684  29.923   1.273   6.634
 4780POPC   C3A61685  29.647   1.324   6.980
 4780POPC   C4A61686  29.570   1.017   7.274
 4780POPC   C1B61687  30.135   1.291   6.142
 4780POPC   C2B61688  30.361   1.554   6.399
 4780POPC   C3B61689  30.174   1.705   6.755
 4780POPC   C4B61690  30.171   1.347   7.084
 4781POPC   NC361691  20.177  14.307   5.464
 4781POPC   PO461692  19.621  14.576   5.571
 4781POPC   GL161693  19.888  14.487   5.881
 4781POPC   GL261694  19.899  14.841   5.956
 4781POPC   C1A61695  19.970  14.194   6.230
 4781POPC   D2A61696  19.804  14.100   6.631
 4781POPC   C3A61697  19.758  14.090   7.055
 4781POPC   C4A61698  19.833  14.291   7.462
 4781POPC   C1B61699  19.686  14.638   6.322
 4781POPC   C2B61700  19.878  14.587   6.728
 4781POPC   C3B61701  19.866  14.721   7.136
 4781POPC   C4B61702  19.595  15.038   7.242
 4782POPC   NC361703   9.959  35.246   5.042
 4782POPC   PO461704   9.550  35.282   5.589
 4782POPC   GL161705   9.703  35.368   5.975
 4782POPC   GL261706   9.853  35.062   5.981
 4782POPC   C1A61707  10.001  35.451   6.296
 4782POPC   D2A61708   9.827  35.577   6.666
 4782POPC   C3A61709  10.111  35.803   6.886
 4782POPC   C4A61710  10.102  35.458   7.177
 4782POPC   C1B61711   9.671  35.066   6.396
 4782POPC   C2B61712   9.637  34.924   6.781
 4782POPC   C3B61713   9.788  35.025   7.138
 4782POPC   C4B61714   9.695  35.169   7.512
 4783POPC   NC361715  26.198   6.200   5.410
 4783POPC   PO461716  25.821   5.639   5.425
 4783POPC   GL161717  26.081   5.818   5.751
 4783POPC   GL261718  26.283   5.592   5.939
 4783POPC   C1A61719  26.081   6.083   6.106
 4783POPC   D2A61720  25.780   6.154   6.457
 4783POPC   C3A61721  25.820   5.919   6.841
 4783POPC   C4A61722  25.990   5.840   7.250
 4783POPC   C1B61723  26.251   5.665   6.390
 4783POPC   C2B61724  26.236   5.635   6.832
 4783POPC   C3B61725  25.956   5.369   7.077
 4783POPC   C4B61726  25.773   5.398   7.451
 4784POPC   NC361727   7.327  41.715   5.456
 4784POPC   PO461728   7.340  41.096   5.674
 4784POPC   GL161729   7.422  41.432   5.903
 4784POPC   GL261730   7.698  41.624   5.839
 4784POPC   C1A61731   7.275  41.500   6.303
 4784POPC   D2A61732   7.145  41.274   6.655
 4784POPC   C3A61733   7.239  41.455   7.045
 4784POPC   C4A61734   6.986  41.625   7.337
 4784POPC   C1B61735   7.760  41.651   6.262
 4784POPC   C2B61736   7.516  41.802   6.647
 4784POPC   C3B61737   7.672  41.691   7.030
 4784POPC   C4B61738   7.586  41.825   7.463
 4785POPC   NC361739  15.808  12.194   5.538
 4785POPC   PO461740  16.186  11.614   5.479
 4785POPC   GL161741  16.151  11.922   5.823
 4785POPC   GL261742  16.163  12.286   5.861
 4785POPC   C1A61743  15.878  12.026   6.210
 4785POPC   D2A61744  15.779  12.289   6.596
 4785POPC   C3A61745  15.887  12.103   6.988
 4785POPC   C4A61746  15.819  12.014   7.412
 4785POPC   C1B61747  16.089  12.493   6.215
 4785POPC   C2B61748  16.237  12.584   6.597
 4785POPC   C3B61749  16.057  12.619   6.950
 4785POPC   C4B61750  16.073  12.451   7.329
 4786POPC   NC361751   6.420  32.007   5.314
 4786POPC   PO461752   6.524  32.669   5.423
 4786POPC   GL161753   6.507  32.533   5.820
 4786POPC   GL261754   6.257  32.261   5.798
 4786POPC   C1A61755   6.716  32.449   6.206
 4786POPC   D2A61756   6.749  32.200   6.589
 4786POPC   C3A61757   6.877  32.491   6.905
 4786POPC   C4A61758   7.057  32.385   7.266
 4786POPC   C1B61759   6.198  32.491   6.220
 4786POPC   C2B61760   6.365  32.529   6.669
 4786POPC   C3B61761   6.452  32.275   7.056
 4786POPC   C4B61762   6.572  32.521   7.416
 4787POPC   NC361763  18.018  33.246   5.429
 4787POPC   PO461764  17.325  32.942   5.338
 4787POPC   GL161765  17.669  32.955   5.674
 4787POPC   GL261766  17.698  33.288   5.855
 4787POPC   C1A61767  17.781  32.858   6.115
 4787POPC   D2A61768  17.639  33.100   6.491
 4787POPC   C3A61769  17.557  32.844   6.881
 4787POPC   C4A61770  17.465  32.734   7.312
 4787POPC   C1B61771  17.788  33.627   6.142
 4787POPC   C2B61772  17.764  33.620   6.580
 4787POPC   C3B61773  17.780  33.331   6.928
 4787POPC   C4B61774  17.898  33.022   7.251
 4788POPC   NC361775  36.120  44.686   5.418
 4788POPC   PO461776  35.746  44.104   5.464
 4788POPC   GL161777  35.992  44.325   5.781
 4788POPC   GL261778  35.959  44.694   5.897
 4788POPC   C1A61779  35.955  44.282   6.215
 4788POPC   D2A61780  35.920  44.572   6.529
 4788POPC   C3A61781  35.928  44.431   6.924
 4788POPC   C4A61782  35.899  44.679   7.299
 4788POPC   C1B61783  36.324  44.639   6.151
 4788POPC   C2B61784  36.425  44.552   6.591
 4788POPC   C3B61785  36.340  44.730   7.007
 4788POPC   C4B61786  36.425  44.555   7.420
 4789POPC   NC361787   8.497  12.291   5.477
 4789POPC   PO461788   7.944  11.912   5.151
 4789POPC   GL161789   8.013  11.931   5.607
 4789POPC   GL261790   8.341  11.905   5.788
 4789POPC   C1A61791   7.860  11.954   6.039
 4789POPC   D2A61792   8.043  12.160   6.420
 4789POPC   C3A61793   7.966  12.058   6.852
 4789POPC   C4A61794   8.128  12.298   7.217
 4789POPC   C1B61795   8.280  11.753   6.229
 4789POPC   C2B61796   8.436  11.887   6.649
 4789POPC   C3B61797   8.425  11.884   7.103
 4789POPC   C4B61798   8.493  12.083   7.507
 4790POPC   NC361799   7.719  11.555   5.357
 4790POPC   PO461800   7.199  11.100   5.444
 4790POPC   GL161801   7.398  11.374   5.721
 4790POPC   GL261802   7.648  11.183   5.732
 4790POPC   C1A61803   7.534  11.554   6.103
 4790POPC   D2A61804   7.427  11.440   6.545
 4790POPC   C3A61805   7.610  11.574   6.946
 4790POPC   C4A61806   7.415  11.636   7.360
 4790POPC   C1B61807   7.399  11.020   6.087
 4790POPC   C2B61808   7.331  10.932   6.503
 4790POPC   C3B61809   7.577  11.050   6.845
 4790POPC   C4B61810   7.542  11.153   7.245
 4791POPC   NC361811  29.903  27.840   5.509
 4791POPC   PO461812  29.604  27.344   5.155
 4791POPC   GL161813  29.760  27.265   5.692
 4791POPC   GL261814  30.026  27.481   5.852
 4791POPC   C1A61815  29.664  27.358   6.191
 4791POPC   D2A61816  29.662  27.605   6.619
 4791POPC   C3A61817  30.048  27.572   6.901
 4791POPC   C4A61818  30.043  27.372   7.314
 4791POPC   C1B61819  29.993  27.787   6.222
 4791POPC   C2B61820  29.966  28.030   6.641
 4791POPC   C3B61821  30.039  28.068   7.087
 4791POPC   C4B61822  29.932  27.851   7.441
 4792POPC   NC361823  22.889  24.637   5.414
 4792POPC   PO461824  23.110  24.051   5.250
 4792POPC   GL161825  23.001  24.231   5.705
 4792POPC   GL261826  22.648  24.369   5.802
 4792POPC   C1A61827  22.986  24.239   6.175
 4792POPC   D2A61828  22.749  24.360   6.555
 4792POPC   C3A61829  22.990  24.395   6.932
 4792POPC   C4A61830  23.018  24.527   7.362
 4792POPC   C1B61831  22.751  24.718   6.115
 4792POPC   C2B61832  22.790  24.861   6.562
 4792POPC   C3B61833  22.781  24.863   7.040
 4792POPC   C4B61834  22.761  25.109   7.445
 4793POPC   NC361835  15.809  28.952   5.443
 4793POPC   PO461836  16.301  29.386   5.414
 4793POPC   GL161837  16.115  29.150   5.795
 4793POPC   GL261838  15.772  29.214   5.895
 4793POPC   C1A61839  16.090  28.988   6.244
 4793POPC   D2A61840  16.115  29.208   6.623
 4793POPC   C3A61841  16.051  28.984   7.005
 4793POPC   C4A61842  15.976  29.316   7.310
 4793POPC   C1B61843  15.588  28.952   6.203
 4793POPC   C2B61844  15.652  28.924   6.602
 4793POPC   C3B61845  15.601  29.219   6.904
 4793POPC   C4B61846  15.600  28.985   7.279
 4794POPC   NC361847  23.105  22.969   5.272
 4794POPC   PO461848  22.879  22.395   5.334
 4794POPC   GL161849  22.792  22.801   5.644
 4794POPC   GL261850  23.061  23.098   5.747
 4794POPC   C1A61851  22.740  22.905   6.091
 4794POPC   D2A61852  22.686  22.992   6.528
 4794POPC   C3A61853  22.859  22.758   6.867
 4794POPC   C4A61854  22.777  22.855   7.276
 4794POPC   C1B61855  23.171  23.205   6.158
 4794POPC   C2B61856  23.207  23.007   6.556
 4794POPC   C3B61857  23.086  23.187   6.946
 4794POPC   C4B61858  23.190  23.192   7.351
 4795POPC   NC361859  11.665  44.084   5.508
 4795POPC   PO461860  12.227  43.811   5.203
 4795POPC   GL161861  12.223  43.869   5.694
 4795POPC   GL261862  12.115  44.189   5.831
 4795POPC   C1A61863  12.105  43.743   6.135
 4795POPC   D2A61864  11.913  43.736   6.565
 4795POPC   C3A61865  12.212  43.807   6.896
 4795POPC   C4A61866  12.343  44.152   7.183
 4795POPC   C1B61867  11.775  44.148   6.166
 4795POPC   C2B61868  11.619  44.193   6.599
 4795POPC   C3B61869  11.791  44.107   7.020
 4795POPC   C4B61870  11.706  44.226   7.445
 4796POPC   NC361871  21.152  25.190   5.345
 4796POPC   PO461872  21.723  25.382   5.390
 4796POPC   GL161873  21.543  25.135   5.754
 4796POPC   GL261874  21.685  24.827   5.889
 4796POPC   C1A61875  21.486  25.228   6.205
 4796POPC   D2A61876  21.237  25.210   6.592
 4796POPC   C3A61877  21.418  25.326   7.000
 4796POPC   C4A61878  21.310  25.284   7.466
 4796POPC   C1B61879  21.482  24.722   6.258
 4796POPC   C2B61880  21.194  24.702   6.583
 4796POPC   C3B61881  21.171  24.842   6.985
 4796POPC   C4B61882  21.513  24.888   7.221
 4797POPC   NC361883  42.531   6.280   5.511
 4797POPC   PO461884  42.136   6.789   5.643
 4797POPC   GL161885  42.197   6.522   5.894
 4797POPC   GL261886  42.528   6.527   5.935
 4797POPC   C1A61887  42.202   6.592   6.332
 4797POPC   D2A61888  42.519   6.493   6.628
 4797POPC   C3A61889  42.369   6.490   7.043
 4797POPC   C4A61890  41.996   6.714   7.139
 4797POPC   C1B61891  42.663   6.844   6.167
 4797POPC   C2B61892  42.879   6.870   6.539
 4797POPC   C3B61893  42.695   6.895   6.929
 4797POPC   C4B61894  42.434   6.945   7.268
 4798POPC   NC361895  10.995  24.674   5.650
 4798POPC   PO461896  11.663  24.714   5.433
 4798POPC   GL161897  11.500  24.822   5.803
 4798POPC   GL261898  11.457  24.461   5.836
 4798POPC   C1A61899  11.485  24.773   6.257
 4798POPC   D2A61900  11.217  24.617   6.567
 4798POPC   C3A61901  11.120  24.824   6.909
 4798POPC   C4A61902  11.190  24.592   7.265
 4798POPC   C1B61903  11.321  24.266   6.197
 4798POPC   C2B61904  11.485  24.184   6.597
 4798POPC   C3B61905  11.606  24.440   6.952
 4798POPC   C4B61906  11.705  24.295   7.373
 4799POPC   NC361907  36.015  39.289   5.353
 4799POPC   PO461908  36.684  39.221   5.418
 4799POPC   GL161909  36.332  39.152   5.703
 4799POPC   GL261910  36.334  39.499   5.745
 4799POPC   C1A61911  35.982  39.262   6.040
 4799POPC   D2A61912  36.046  39.193   6.509
 4799POPC   C3A61913  35.939  39.348   6.944
 4799POPC   C4A61914  36.105  39.131   7.342
 4799POPC   C1B61915  36.424  39.495   6.193
 4799POPC   C2B61916  36.553  39.315   6.589
 4799POPC   C3B61917  36.469  39.349   7.003
 4799POPC   C4B61918  36.247  39.607   7.275
 4800POPC   NC361919  36.154  37.535   5.472
 4800POPC   PO461920  36.189  38.204   5.464
 4800POPC   GL161921  36.315  37.901   5.813
 4800POPC   GL261922  36.024  37.881   5.893
 4800POPC   C1A61923  36.307  37.460   6.116
 4800POPC   D2A61924  36.294  37.217   6.535
 4800POPC   C3A61925  36.094  37.304   6.941
 4800POPC   C4A61926  35.840  37.474   7.283
 4800POPC   C1B61927  36.051  37.827   6.319
 4800POPC   C2B61928  35.867  37.536   6.538
 4800POPC   C3B61929  35.867  37.770   6.876
 4800POPC   C4B61930  36.016  37.978   7.243
 4801POPC   NC361931  11.473  35.506   5.500
 4801POPC   PO461932  11.128  35.002   5.251
 4801POPC   GL161933  11.042  35.173   5.711
 4801POPC   GL261934  11.029  35.537   5.767
 4801POPC   C1A61935  11.209  35.232   6.178
 4801POPC   D2A61936  11.197  35.031   6.615
 4801POPC   C3A61937  11.467  35.072   6.985
 4801POPC   C4A61938  11.607  35.431   7.216
 4801POPC   C1B61939  10.991  35.724   6.187
 4801POPC   C2B61940  10.932  35.499   6.584
 4801POPC   C3B61941  11.101  35.427   6.976
 4801POPC   C4B61942  11.013  35.581   7.361
 4802POPC   NC361943  12.746  36.438   5.447
 4802POPC   PO461944  13.178  35.964   5.468
 4802POPC   GL161945  12.789  35.912   5.720
 4802POPC   GL261946  12.782  36.203   5.912
 4802POPC   C1A61947  12.685  35.763   6.146
 4802POPC   D2A61948  12.816  35.985   6.505
 4802POPC   C3A61949  12.960  35.864   6.891
 4802POPC   C4A61950  12.740  35.724   7.257
 4802POPC   C1B61951  12.943  36.424   6.270
 4802POPC   C2B61952  13.004  36.416   6.693
 4802POPC   C3B61953  12.848  36.341   7.075
 4802POPC   C4B61954  12.930  36.697   7.240
 4803POPC   NC361955  30.490  37.782   5.559
 4803POPC   PO461956  30.840  37.176   5.453
 4803POPC   GL161957  30.858  37.495   5.771
 4803POPC   GL261958  30.545  37.385   5.926
 4803POPC   C1A61959  30.830  37.746   6.177
 4803POPC   D2A61960  30.544  37.864   6.531
 4803POPC   C3A61961  30.765  37.891   6.897
 4803POPC   C4A61962  31.116  37.662   7.044
 4803POPC   C1B61963  30.320  37.447   6.313
 4803POPC   C2B61964  30.385  37.407   6.775
 4803POPC   C3B61965  30.637  37.433   7.151
 4803POPC   C4B61966  30.480  37.454   7.641
 4804POPC   NC361967  25.800  13.727   5.348
 4804POPC   PO461968  25.982  13.151   5.532
 4804POPC   GL161969  26.164  13.492   5.815
 4804POPC   GL261970  26.157  13.825   5.716
 4804POPC   C1A61971  26.187  13.676   6.259
 4804POPC   D2A61972  25.959  13.663   6.654
 4804POPC   C3A61973  26.192  13.667   7.042
 4804POPC   C4A61974  26.493  13.717   7.338
 4804POPC   C1B61975  25.873  14.007   6.041
 4804POPC   C2B61976  25.927  14.156   6.460
 4804POPC   C3B61977  25.900  14.103   6.904
 4804POPC   C4B61978  25.836  14.144   7.346
 4805POPC   NC361979  11.155   2.027   5.143
 4805POPC   PO461980  11.530   1.584   5.627
 4805POPC   GL161981  11.342   1.886   5.907
 4805POPC   GL261982  11.051   1.707   6.037
 4805POPC   C1A61983  11.469   1.847   6.335
 4805POPC   D2A61984  11.277   1.749   6.713
 4805POPC   C3A61985  11.542   1.887   7.027
 4805POPC   C4A61986  11.592   2.181   7.354
 4805POPC   C1B61987  11.017   2.075   6.312
 4805POPC   C2B61988  11.069   2.207   6.747
 4805POPC   C3B61989  11.098   2.120   7.178
 4805POPC   C4B61990  10.872   2.245   7.555
 4806POPC   NC361991  31.917  28.613   5.409
 4806POPC   PO461992  32.650  28.744   5.367
 4806POPC   GL161993  32.519  28.467   5.735
 4806POPC   GL261994  32.297  28.148   5.709
 4806POPC   C1A61995  32.374  28.364   6.164
 4806POPC   D2A61996  32.346  28.555   6.568
 4806POPC   C3A61997  32.395  28.322   6.929
 4806POPC   C4A61998  32.688  28.265   7.249
 4806POPC   C1B61999  32.060  27.960   6.099
 4806POPC   C2B62000  31.949  28.182   6.488
 4806POPC   C3B62001  31.936  28.041   6.907
 4806POPC   C4B62002  32.156  28.038   7.295
 4807POPC   NC362003   0.330  30.449   5.523
 4807POPC   PO462004   1.001  30.456   5.645
 4807POPC   GL162005   0.633  30.460   5.951
 4807POPC   GL262006   0.392  30.752   5.913
 4807POPC   C1A62007   0.547  30.614   6.386
 4807POPC   D2A62008   0.809  30.885   6.651
 4807POPC   C3A62009   0.778  30.775   7.064
 4807POPC   C4A62010   0.644  30.371   7.159
 4807POPC   C1B62011   0.186  30.997   6.209
 4807POPC   C2B62012   0.251  30.990   6.636
 4807POPC   C3B62013   0.308  30.639   6.874
 4807POPC   C4B62014   0.193  30.548   7.286
 4808POPC   NC362015  19.053  20.002   5.278
 4808POPC   PO462016  19.631  19.992   5.450
 4808POPC   GL162017  19.255  20.012   5.765
 4808POPC   GL262018  19.054  19.696   5.727
 4808POPC   C1A62019  19.091  20.108   6.224
 4808POPC   D2A62020  19.208  20.267   6.664
 4808POPC   C3A62021  19.005  20.074   7.029
 4808POPC   C4A62022  18.674  20.013   7.347
 4808POPC   C1B62023  19.149  19.584   6.190
 4808POPC   C2B62024  19.032  19.707   6.655
 4808POPC   C3B62025  18.918  19.585   7.128
 4808POPC   C4B62026  18.778  19.546   7.591
 4809POPC   NC362027  38.217  22.158   5.191
 4809POPC   PO462028  38.826  22.107   5.156
 4809POPC   GL162029  38.573  22.264   5.590
 4809POPC   GL262030  38.326  22.550   5.695
 4809POPC   C1A62031  38.532  22.119   6.043
 4809POPC   D2A62032  38.641  21.868   6.422
 4809POPC   C3A62033  38.790  22.040   6.805
 4809POPC   C4A62034  38.748  21.996   7.260
 4809POPC   C1B62035  38.324  22.572   6.174
 4809POPC   C2B62036  38.298  22.276   6.527
 4809POPC   C3B62037  38.398  22.327   6.956
 4809POPC   C4B62038  38.316  22.254   7.394
 4810POPC   NC362039  29.148   1.482   5.336
 4810POPC   PO462040  29.115   0.873   5.234
 4810POPC   GL162041  29.042   1.091   5.723
 4810POPC   GL262042  29.151   1.444   5.846
 4810POPC   C1A62043  29.176   1.102   6.200
 4810POPC   D2A62044  29.203   1.233   6.679
 4810POPC   C3A62045  29.105   0.970   7.097
 4810POPC   C4A62046  29.208   0.874   7.592
 4810POPC   C1B62047  28.878   1.528   6.217
 4810POPC   C2B62048  28.860   1.667   6.665
 4810POPC   C3B62049  28.852   1.415   7.056
 4810POPC   C4B62050  28.818   1.212   7.476
 4811POPC   NC362051  40.377  28.346   5.479
 4811POPC   PO462052  39.710  28.362   5.441
 4811POPC   GL162053  39.915  28.140   5.801
 4811POPC   GL262054  40.195  28.352   5.951
 4811POPC   C1A62055  39.841  28.168   6.264
 4811POPC   D2A62056  40.126  28.343   6.581
 4811POPC   C3A62057  40.170  28.169   7.014
 4811POPC   C4A62058  40.116  28.350   7.435
 4811POPC   C1B62059  40.119  28.708   6.187
 4811POPC   C2B62060  40.237  28.846   6.601
 4811POPC   C3B62061  40.262  28.677   7.020
 4811POPC   C4B62062  40.459  28.744   7.412
 4812POPC   NC362063  28.376  22.468   5.484
 4812POPC   PO462064  28.189  21.959   5.607
 4812POPC   GL162065  28.535  21.986   5.853
 4812POPC   GL262066  28.430  22.293   5.966
 4812POPC   C1A62067  28.661  21.934   6.289
 4812POPC   D2A62068  28.447  22.014   6.713
 4812POPC   C3A62069  28.692  21.919   7.074
 4812POPC   C4A62070  28.442  21.955   7.433
 4812POPC   C1B62071  28.196  22.160   6.282
 4812POPC   C2B62072  28.131  22.413   6.625
 4812POPC   C3B62073  28.332  22.497   6.980
 4812POPC   C4B62074  28.131  22.363   7.359
 4813POPC   NC362075  13.087  21.421   5.594
 4813POPC   PO462076  13.691  21.400   5.250
 4813POPC   GL162077  13.606  21.415   5.705
 4813POPC   GL262078  13.450  21.698   5.797
 4813POPC   C1A62079  13.440  21.353   6.162
 4813POPC   D2A62080  13.648  21.425   6.549
 4813POPC   C3A62081  13.444  21.418   6.947
 4813POPC   C4A62082  13.646  21.323   7.316
 4813POPC   C1B62083  13.834  21.767   6.087
 4813POPC   C2B62084  14.037  21.773   6.532
 4813POPC   C3B62085  13.891  21.671   6.971
 4813POPC   C4B62086  13.851  21.869   7.368
 4814POPC   NC362087  41.087  17.616   5.496
 4814POPC   PO462088  40.453  17.467   5.255
 4814POPC   GL162089  40.597  17.447   5.729
 4814POPC   GL262090  40.642  17.781   5.876
 4814POPC   C1A62091  40.636  17.376   6.222
 4814POPC   D2A62092  40.725  17.673   6.616
 4814POPC   C3A62093  40.927  17.622   7.032
 4814POPC   C4A62094  40.807  17.272   7.279
 4814POPC   C1B62095  40.371  17.821   6.267
 4814POPC   C2B62096  40.214  17.742   6.701
 4814POPC   C3B62097  40.415  17.562   7.053
 4814POPC   C4B62098  40.583  17.763   7.405
 4815POPC   NC362099  21.720  20.230   5.569
 4815POPC   PO462100  22.200  20.577   5.415
 4815POPC   GL162101  22.188  20.386   5.781
 4815POPC   GL262102  21.988  20.641   5.914
 4815POPC   C1A62103  22.434  20.345   6.156
 4815POPC   D2A62104  22.401  20.648   6.498
 4815POPC   C3A62105  22.509  20.506   6.907
 4815POPC   C4A62106  22.458  20.579   7.313
 4815POPC   C1B62107  21.931  20.411   6.299
 4815POPC   C2B62108  22.052  20.315   6.726
 4815POPC   C3B62109  21.988  20.549   7.103
 4815POPC   C4B62110  21.755  20.948   7.153
 4816POPC   NC362111   9.712  23.343   5.417
 4816POPC   PO462112   9.711  22.667   5.560
 4816POPC   GL162113   9.952  22.708   5.916
 4816POPC   GL262114  10.221  22.936   5.734
 4816POPC   C1A62115   9.757  22.579   6.307
 4816POPC   D2A62116   9.749  22.795   6.713
 4816POPC   C3A62117   9.663  22.778   7.171
 4816POPC   C4A62118   9.691  22.952   7.604
 4816POPC   C1B62119  10.013  23.195   6.048
 4816POPC   C2B62120   9.961  23.305   6.492
 4816POPC   C3B62121   9.830  23.278   6.901
 4816POPC   C4B62122  10.001  23.153   7.256
 4817POPC   NC362123   0.491  31.472   5.325
 4817POPC   PO462124   0.219  30.884   5.426
 4817POPC   GL162125   0.386  31.244   5.760
 4817POPC   GL262126   0.637  31.575   5.777
 4817POPC   C1A62127   0.269  31.493   6.119
 4817POPC   D2A62128   0.013  31.440   6.484
 4817POPC   C3A62129   0.251  31.434   6.890
 4817POPC   C4A62130   0.372  31.053   7.165
 4817POPC   C1B62131   0.764  31.305   6.103
 4817POPC   C2B62132   0.604  31.342   6.507
 4817POPC   C3B62133   0.741  31.317   6.928
 4817POPC   C4B62134   0.604  31.616   7.244
 4818POPC   NC362135  43.349  29.864   5.502
 4818POPC   PO462136  42.721  30.071   5.341
 4818POPC   GL162137  42.897  29.993   5.757
 4818POPC   GL262138  42.981  29.651   5.808
 4818POPC   C1A62139  43.177  29.999   6.131
 4818POPC   D2A62140  43.283  30.152   6.503
 4818POPC   C3A62141  43.229  29.882   6.817
 4818POPC   C4A62142  43.311  29.970   7.219
 4818POPC   C1B62143  42.756  29.698   6.202
 4818POPC   C2B62144  42.789  29.937   6.565
 4818POPC   C3B62145  42.756  29.776   6.973
 4818POPC   C4B62146  42.846  29.895   7.387
 4819POPC   NC362147  29.419  29.048   5.558
 4819POPC   PO462148  28.826  29.310   5.695
 4819POPC   GL162149  29.128  29.233   5.970
 4819POPC   GL262150  28.997  29.555   6.114
 4819POPC   C1A62151  29.294  28.974   6.307
 4819POPC   D2A62152  29.499  28.925   6.713
 4819POPC   C3A62153  29.274  28.972   7.120
 4819POPC   C4A62154  29.359  29.269   7.436
 4819POPC   C1B62155  28.841  29.230   6.367
 4819POPC   C2B62156  28.968  29.042   6.704
 4819POPC   C3B62157  28.830  29.207   7.024
 4819POPC   C4B62158  28.948  29.542   7.233
 4820POPC   NC362159  11.789  11.315   5.427
 4820POPC   PO462160  12.453  11.541   5.513
 4820POPC   GL162161  12.130  11.402   5.822
 4820POPC   GL262162  11.950  11.093   5.851
 4820POPC   C1A62163  12.249  11.253   6.243
 4820POPC   D2A62164  12.516  11.016   6.525
 4820POPC   C3A62165  12.421  11.101   6.959
 4820POPC   C4A62166  12.314  11.164   7.383
 4820POPC   C1B62167  11.770  11.131   6.259
 4820POPC   C2B62168  11.987  11.083   6.660
 4820POPC   C3B62169  11.911  11.229   7.074
 4820POPC   C4B62170  11.511  11.237   7.264
 4821POPC   NC362171  31.034  32.049   5.250
 4821POPC   PO462172  30.422  32.204   5.497
 4821POPC   GL162173  30.826  32.250   5.738
 4821POPC   GL262174  30.940  32.608   5.804
 4821POPC   C1A62175  30.780  32.162   6.179
 4821POPC   D2A62176  30.527  32.303   6.518
 4821POPC   C3A62177  30.725  32.118   6.869
 4821POPC   C4A62178  30.818  32.128   7.291
 4821POPC   C1B62179  30.787  32.689   6.233
 4821POPC   C2B62180  30.939  32.571   6.655
 4821POPC   C3B62181  30.789  32.591   7.071
 4821POPC   C4B62182  30.749  32.626   7.513
 4822POPC   NC362183  19.406  41.955   5.551
 4822POPC   PO462184  19.754  41.358   5.294
 4822POPC   GL162185  19.825  41.499   5.714
 4822POPC   GL262186  19.476  41.532   5.837
 4822POPC   C1A62187  19.948  41.367   6.166
 4822POPC   D2A62188  20.015  41.584   6.512
 4822POPC   C3A62189  19.964  41.473   6.922
 4822POPC   C4A62190  19.843  41.649   7.278
 4822POPC   C1B62191  19.534  41.627   6.277
 4822POPC   C2B62192  19.533  41.398   6.644
 4822POPC   C3B62193  19.463  41.386   7.084
 4822POPC   C4B62194  19.388  41.658   7.483
 4823POPC   NC362195  20.161  41.017   5.372
 4823POPC   PO462196  19.936  40.402   5.527
 4823POPC   GL162197  20.116  40.706   5.818
 4823POPC   GL262198  19.889  41.005   5.820
 4823POPC   C1A62199  20.017  40.811   6.270
 4823POPC   D2A62200  19.910  41.036   6.640
 4823POPC   C3A62201  20.116  40.815   6.962
 4823POPC   C4A62202  19.997  40.580   7.303
 4823POPC   C1B62203  19.562  41.050   6.194
 4823POPC   C2B62204  19.455  40.830   6.601
 4823POPC   C3B62205  19.601  40.849   7.052
 4823POPC   C4B62206  19.870  41.101   7.310
 4824POPC   NC362207  11.419  13.056   5.593
 4824POPC   PO462208  11.338  12.412   5.404
 4824POPC   GL162209  11.418  12.616   5.817
 4824POPC   GL262210  11.095  12.820   5.912
 4824POPC   C1A62211  11.505  12.868   6.226
 4824POPC   D2A62212  11.308  12.866   6.628
 4824POPC   C3A62213  11.557  12.898   6.988
 4824POPC   C4A62214  11.312  12.940   7.316
 4824POPC   C1B62215  10.957  12.520   6.213
 4824POPC   C2B62216  11.085  12.403   6.626
 4824POPC   C3B62217  11.022  12.574   7.061
 4824POPC   C4B62218  11.026  12.452   7.518
 4825POPC   NC362219  44.539  41.182   5.392
 4825POPC   PO462220  44.842  41.768   5.267
 4825POPC   GL162221  44.678  41.652   5.673
 4825POPC   GL262222  44.488  41.975   5.731
 4825POPC   C1A62223  44.763  41.497   6.115
 4825POPC   D2A62224   0.016  41.289   6.456
 4825POPC   C3A62225  44.915  41.350   6.915
 4825POPC   C4A62226  44.653  41.296   7.290
 4825POPC   C1B62227  44.352  41.806   6.130
 4825POPC   C2B62228  44.552  41.705   6.544
 4825POPC   C3B62229  44.617  41.768   6.980
 4825POPC   C4B62230  44.411  41.918   7.352
 4826POPC   NC362231  41.042  42.991   5.417
 4826POPC   PO462232  40.364  43.144   5.436
 4826POPC   GL162233  40.674  43.145   5.783
 4826POPC   GL262234  41.033  43.285   5.848
 4826POPC   C1A62235  40.674  42.966   6.193
 4826POPC   D2A62236  40.694  43.097   6.596
 4826POPC   C3A62237  40.840  42.880   6.960
 4826POPC   C4A62238  40.836  43.065   7.358
 4826POPC   C1B62239  41.175  43.326   6.299
 4826POPC   C2B62240  41.188  43.200   6.733
 4826POPC   C3B62241  41.233  43.350   7.146
 4826POPC   C4B62242  40.977  43.522   7.512
 4827POPC   NC362243  12.720  30.152   5.334
 4827POPC   PO462244  12.578  29.468   5.370
 4827POPC   GL162245  12.808  29.733   5.672
 4827POPC   GL262246  12.534  29.891   5.766
 4827POPC   C1A62247  12.978  29.843   6.116
 4827POPC   D2A62248  13.169  29.947   6.521
 4827POPC   C3A62249  12.999  29.826   6.922
 4827POPC   C4A62250  12.778  29.872   7.335
 4827POPC   C1B62251  12.508  30.074   6.152
 4827POPC   C2B62252  12.655  30.057   6.571
 4827POPC   C3B62253  12.502  30.111   6.968
 4827POPC   C4B62254  12.262  29.900   7.281
 4828POPC   NC362255   8.003  20.291   5.058
 4828POPC   PO462256   8.023  20.883   5.393
 4828POPC   GL162257   8.163  20.772   5.794
 4828POPC   GL262258   8.514  20.701   5.858
 4828POPC   C1A62259   8.086  20.715   6.234
 4828POPC   D2A62260   8.091  20.410   6.572
 4828POPC   C3A62261   8.119  20.592   6.998
 4828POPC   C4A62262   8.167  20.579   7.444
 4828POPC   C1B62263   8.557  20.496   6.287
 4828POPC   C2B62264   8.562  20.473   6.742
 4828POPC   C3B62265   8.592  20.458   7.194
 4828POPC   C4B62266   8.655  20.638   7.653
 4829POPC   NC362267  31.925   7.310   5.274
 4829POPC   PO462268  32.563   7.542   5.342
 4829POPC   GL162269  32.323   7.729   5.675
 4829POPC   GL262270  32.001   7.566   5.728
 4829POPC   C1A62271  32.310   7.701   6.128
 4829POPC   D2A62272  32.081   7.595   6.500
 4829POPC   C3A62273  32.209   7.664   6.914
 4829POPC   C4A62274  32.041   7.481   7.279
 4829POPC   C1B62275  31.951   7.289   6.111
 4829POPC   C2B62276  31.995   7.089   6.519
 4829POPC   C3B62277  32.083   7.103   6.931
 4829POPC   C4B62278  31.873   7.014   7.334
 4830POPC   NC362279  36.080  13.171   5.515
 4830POPC   PO462280  36.399  13.786   5.393
 4830POPC   GL162281  36.209  13.807   5.799
 4830POPC   GL262282  35.882  14.026   5.877
 4830POPC   C1A62283  36.040  13.516   6.086
 4830POPC   D2A62284  36.188  13.462   6.505
 4830POPC   C3A62285  35.899  13.648   6.802
 4830POPC   C4A62286  35.862  13.601   7.257
 4830POPC   C1B62287  36.095  13.969   6.270
 4830POPC   C2B62288  36.369  13.942   6.564
 4830POPC   C3B62289  36.283  13.940   6.980
 4830POPC   C4B62290  36.378  13.525   7.015
 4831POPC   NC362291  28.453  15.500   5.417
 4831POPC   PO462292  28.114  14.926   5.373
 4831POPC   GL162293  28.210  15.162   5.731
 4831POPC   GL262294  28.139  14.876   5.926
 4831POPC   C1A62295  28.300  15.287   6.182
 4831POPC   D2A62296  28.435  15.157   6.619
 4831POPC   C3A62297  28.389  15.382   7.034
 4831POPC   C4A62298  28.590  15.294   7.451
 4831POPC   C1B62299  27.920  14.900   6.322
 4831POPC   C2B62300  27.934  14.887   6.764
 4831POPC   C3B62301  28.219  14.866   7.110
 4831POPC   C4B62302  28.184  14.588   7.447
 4832POPC   NC362303  42.678   3.358   5.403
 4832POPC   PO462304  42.190   3.737   5.177
 4832POPC   GL162305  42.247   3.586   5.587
 4832POPC   GL262306  42.472   3.813   5.613
 4832POPC   C1A62307  42.152   3.415   6.021
 4832POPC   D2A62308  42.357   3.415   6.434
 4832POPC   C3A62309  42.218   3.400   6.856
 4832POPC   C4A62310  42.342   3.385   7.283
 4832POPC   C1B62311  42.418   3.854   6.045
 4832POPC   C2B62312  42.472   3.928   6.485
 4832POPC   C3B62313  42.566   3.788   6.906
 4832POPC   C4B62314  42.440   3.895   7.323
 4833POPC   NC362315   0.244  14.908   5.420
 4833POPC   PO462316   0.679  15.395   5.443
 4833POPC   GL162317   0.449  15.300   5.843
 4833POPC   GL262318   0.388  14.936   5.946
 4833POPC   C1A62319   0.329  15.557   6.200
 4833POPC   D2A62320   0.136  15.553   6.617
 4833POPC   C3A62321   0.268  15.150   6.788
 4833POPC   C4A62322   0.291  15.019   7.213
 4833POPC   C1B62323   0.746  14.850   6.288
 4833POPC   C2B62324   0.868  14.916   6.758
 4833POPC   C3B62325   0.805  15.083   7.206
 4833POPC   C4B62326   0.661  14.929   7.618
 4834POPC   NC362327  39.766  32.168   5.415
 4834POPC   PO462328  40.381  32.540   5.385
 4834POPC   GL162329  40.139  32.386   5.751
 4834POPC   GL262330  40.059  32.025   5.836
 4834POPC   C1A62331  40.105  32.486   6.204
 4834POPC   D2A62332  40.014  32.414   6.656
 4834POPC   C3A62333  40.298  32.449   7.010
 4834POPC   C4A62334  40.191  32.380   7.445
 4834POPC   C1B62335  39.791  31.942   6.218
 4834POPC   C2B62336  39.859  31.878   6.675
 4834POPC   C3B62337  39.957  32.053   7.089
 4834POPC   C4B62338  39.821  31.974   7.519
 4835POPC   NC362339  19.533  22.355   5.446
 4835POPC   PO462340  18.882  22.123   5.350
 4835POPC   GL162341  19.135  22.129   5.705
 4835POPC   GL262342  19.091  22.455   5.710
 4835POPC   C1A62343  19.285  22.179   6.123
 4835POPC   D2A62344  19.407  22.056   6.552
 4835POPC   C3A62345  19.395  22.286   6.968
 4835POPC   C4A62346  19.099  22.036   7.273
 4835POPC   C1B62347  18.932  22.573   6.097
 4835POPC   C2B62348  19.073  22.453   6.503
 4835POPC   C3B62349  18.907  22.332   6.893
 4835POPC   C4B62350  18.933  22.531   7.293
 4836POPC   NC362351  18.560  24.084   5.355
 4836POPC   PO462352  18.162  24.546   5.264
 4836POPC   GL162353  18.003  24.322   5.664
 4836POPC   GL262354  18.259  24.096   5.818
 4836POPC   C1A62355  17.967  24.415   6.137
 4836POPC   D2A62356  18.071  24.694   6.526
 4836POPC   C3A62357  18.201  24.579   6.965
 4836POPC   C4A62358  18.222  24.204   7.191
 4836POPC   C1B62359  18.419  24.147   6.273
 4836POPC   C2B62360  18.497  24.197   6.743
 4836POPC   C3B62361  18.681  24.398   7.162
 4836POPC   C4B62362  18.454  24.562   7.532
 4837POPC   NC362363   1.537  37.761   5.244
 4837POPC   PO462364   0.973  37.688   5.480
 4837POPC   GL162365   1.378  37.712   5.734
 4837POPC   GL262366   1.416  38.058   5.870
 4837POPC   C1A62367   1.520  37.629   6.161
 4837POPC   D2A62368   1.457  37.870   6.568
 4837POPC   C3A62369   1.389  37.623   6.944
 4837POPC   C4A62370   1.614  37.366   7.238
 4837POPC   C1B62371   1.175  38.207   6.236
 4837POPC   C2B62372   1.110  38.280   6.697
 4837POPC   C3B62373   1.033  38.067   7.114
 4837POPC   C4B62374   0.954  38.070   7.561
 4838POPC   NC362375  30.111  34.085   5.528
 4838POPC   PO462376  29.618  33.658   5.415
 4838POPC   GL162377  29.613  33.729   5.825
 4838POPC   GL262378  29.960  33.646   5.874
 4838POPC   C1A62379  29.609  33.775   6.251
 4838POPC   D2A62380  29.925  33.745   6.540
 4838POPC   C3A62381  29.729  33.771   6.935
 4838POPC   C4A62382  29.678  33.485   7.237
 4838POPC   C1B62383  30.313  33.635   6.170
 4838POPC   C2B62384  30.467  33.749   6.566
 4838POPC   C3B62385  30.266  33.800   6.919
 4838POPC   C4B62386  30.183  33.505   7.160
 4839POPC   NC362387   3.883  39.118   5.447
 4839POPC   PO462388   3.729  39.738   5.572
 4839POPC   GL162389   3.831  39.411   5.886
 4839POPC   GL262390   3.518  39.203   5.863
 4839POPC   C1A62391   3.756  39.299   6.335
 4839POPC   D2A62392   3.438  39.257   6.664
 4839POPC   C3A62393   3.513  39.290   7.112
 4839POPC   C4A62394   3.529  39.586   7.419
 4839POPC   C1B62395   3.260  39.011   6.205
 4839POPC   C2B62396   3.131  38.766   6.576
 4839POPC   C3B62397   3.215  38.893   6.996
 4839POPC   C4B62398   3.327  38.933   7.457
 4840POPC   NC362399  21.447   0.183   5.256
 4840POPC   PO462400  20.941   0.440   5.492
 4840POPC   GL162401  21.220   0.515   5.887
 4840POPC   GL262402  21.604   0.532   5.864
 4840POPC   C1A62403  21.372   0.450   6.335
 4840POPC   D2A62404  21.376   0.184   6.727
 4840POPC   C3A62405  21.272   0.452   7.101
 4840POPC   C4A62406  21.325   0.448   7.578
 4840POPC   C1B62407  21.880   0.507   6.261
 4840POPC   C2B62408  21.768   0.538   6.728
 4840POPC   C3B62409  21.716   0.683   7.160
 4840POPC   C4B62410  21.568   0.884   7.541
 4841POPC   NC362411  31.115   0.357   5.471
 4841POPC   PO462412  31.730   0.545   5.583
 4841POPC   GL162413  31.567   0.319   5.931
 4841POPC   GL262414  31.233   0.214   5.937
 4841POPC   C1A62415  31.434   0.506   6.327
 4841POPC   D2A62416  31.763   0.545   6.634
 4841POPC   C3A62417  31.683   0.256   6.907
 4841POPC   C4A62418  31.320   0.354   7.144
 4841POPC   C1B62419  31.354  44.962   6.294
 4841POPC   C2B62420  31.227   0.050   6.713
 4841POPC   C3B62421  30.907   0.091   7.021
 4841POPC   C4B62422  31.008  44.980   7.433
 4842POPC   NC362423   2.557  29.969   4.954
 4842POPC   PO462424   3.008  29.955   5.419
 4842POPC   GL162425   2.955  29.849   5.835
 4842POPC   GL262426   2.969  30.217   5.884
 4842POPC   C1A62427   2.801  29.672   6.239
 4842POPC   D2A62428   2.597  29.906   6.611
 4842POPC   C3A62429   2.734  29.698   6.998
 4842POPC   C4A62430   2.902  29.754   7.391
 4842POPC   C1B62431   2.951  30.145   6.310
 4842POPC   C2B62432   3.091  29.873   6.639
 4842POPC   C3B62433   3.104  30.064   7.029
 4842POPC   C4B62434   3.206  30.122   7.530
 4843POPC   NC362435  17.789  34.908   5.452
 4843POPC   PO462436  17.356  34.502   5.152
 4843POPC   GL162437  17.356  34.683   5.641
 4843POPC   GL262438  17.654  34.698   5.907
 4843POPC   C1A62439  17.211  34.764   6.114
 4843POPC   D2A62440  17.416  34.539   6.466
 4843POPC   C3A62441  17.308  34.573   6.912
 4843POPC   C4A62442  17.265  34.191   7.142
 4843POPC   C1B62443  17.933  34.599   6.265
 4843POPC   C2B62444  17.856  34.690   6.715
 4843POPC   C3B62445  17.831  34.633   7.172
 4843POPC   C4B62446  17.958  34.518   7.657
 4844POPC   NC362447   5.582  35.587   5.529
 4844POPC   PO462448   4.896  35.656   5.460
 4844POPC   GL162449   4.881  35.329   5.789
 4844POPC   GL262450   5.218  35.276   5.753
 4844POPC   C1A62451   5.032  35.110   6.196
 4844POPC   D2A62452   4.961  35.336   6.594
 4844POPC   C3A62453   5.122  35.183   6.996
 4844POPC   C4A62454   4.912  35.055   7.375
 4844POPC   C1B62455   5.143  35.635   6.085
 4844POPC   C2B62456   5.185  35.866   6.483
 4844POPC   C3B62457   5.243  35.683   6.859
 4844POPC   C4B62458   5.261  35.714   7.278
 4845POPC   NC362459  37.843   1.366   5.149
 4845POPC   PO462460  37.592   0.769   5.357
 4845POPC   GL162461  37.560   0.964   5.750
 4845POPC   GL262462  37.852   1.162   5.732
 4845POPC   C1A62463  37.525   1.136   6.185
 4845POPC   D2A62464  37.338   1.042   6.580
 4845POPC   C3A62465  37.527   1.192   6.963
 4845POPC   C4A62466  37.709   0.954   7.256
 4845POPC   C1B62467  37.995   1.354   6.129
 4845POPC   C2B62468  37.871   1.352   6.560
 4845POPC   C3B62469  38.032   1.236   6.954
 4845POPC   C4B62470  37.961   1.428   7.293
 4846POPC   NC362471  34.772  16.337   5.438
 4846POPC   PO462472  34.449  15.836   5.189
 4846POPC   GL162473  34.536  15.925   5.661
 4846POPC   GL262474  34.895  15.859   5.761
 4846POPC   C1A62475  34.613  16.209   6.067
 4846POPC   D2A62476  34.752  16.337   6.502
 4846POPC   C3A62477  34.598  16.118   6.879
 4846POPC   C4A62478  34.271  16.200   7.183
 4846POPC   C1B62479  34.978  15.900   6.232
 4846POPC   C2B62480  35.032  15.883   6.695
 4846POPC   C3B62481  34.964  15.790   7.150
 4846POPC   C4B62482  34.790  15.749   7.627
 4847POPC   NC362483  32.299  10.486   5.341
 4847POPC   PO462484  31.613  10.481   5.204
 4847POPC   GL162485  31.891  10.521   5.666
 4847POPC   GL262486  32.161  10.800   5.744
 4847POPC   C1A62487  32.107  10.420   6.074
 4847POPC   D2A62488  32.119  10.481   6.518
 4847POPC   C3A62489  32.352  10.225   6.814
 4847POPC   C4A62490  32.227  10.395   7.208
 4847POPC   C1B62491  32.523  10.805   6.055
 4847POPC   C2B62492  32.705  10.745   6.482
 4847POPC   C3B62493  32.481  10.720   6.858
 4847POPC   C4B62494  32.618  10.721   7.265
 4848POPC   NC362495  38.828  14.825   5.415
 4848POPC   PO462496  39.369  14.428   5.544
 4848POPC   GL162497  39.179  14.386   5.911
 4848POPC   GL262498  39.202  14.023   5.986
 4848POPC   C1A62499  39.244  14.497   6.327
 4848POPC   D2A62500  39.563  14.321   6.595
 4848POPC   C3A62501  39.411  14.372   7.010
 4848POPC   C4A62502  39.184  14.436   7.399
 4848POPC   C1B62503  38.897  14.132   6.263
 4848POPC   C2B62504  38.987  14.244   6.707
 4848POPC   C3B62505  38.858  14.150   7.131
 4848POPC   C4B62506  38.781  14.201   7.623
 4849POPC   NC362507  14.635  37.387   5.497
 4849POPC   PO462508  14.321  36.847   5.411
 4849POPC   GL162509  14.206  36.837   5.854
 4849POPC   GL262510  14.120  36.486   5.859
 4849POPC   C1A62511  14.214  37.072   6.289
 4849POPC   D2A62512  14.491  37.010   6.703
 4849POPC   C3A62513  14.368  37.245   7.091
 4849POPC   C4A62514  14.043  37.161   7.397
 4849POPC   C1B62515  14.310  36.584   6.291
 4849POPC   C2B62516  14.058  36.753   6.683
 4849POPC   C3B62517  14.205  36.763   7.118
 4849POPC   C4B62518  14.653  36.847   7.256
 4850POPC   NC362519  32.478  16.635   5.436
 4850POPC   PO462520  33.115  16.556   5.192
 4850POPC   GL162521  33.142  16.836   5.587
 4850POPC   GL262522  32.822  16.742   5.787
 4850POPC   C1A62523  33.191  16.922   6.064
 4850POPC   D2A62524  32.919  16.691   6.354
 4850POPC   C3A62525  33.007  16.689   6.783
 4850POPC   C4A62526  32.924  16.672   7.196
 4850POPC   C1B62527  33.107  16.424   5.946
 4850POPC   C2B62528  33.370  16.389   6.344
 4850POPC   C3B62529  33.356  16.336   6.823
 4850POPC   C4B62530  33.425  16.577   7.218
 4851POPC   NC362531   7.907  13.898   5.352
 4851POPC   PO462532   8.512  13.478   5.311
 4851POPC   GL162533   8.240  13.627   5.677
 4851POPC   GL262534   8.274  13.960   5.793
 4851POPC   C1A62535   8.278  13.553   6.154
 4851POPC   D2A62536   8.126  13.238   6.492
 4851POPC   C3A62537   8.215  13.359   6.931
 4851POPC   C4A62538   7.955  13.391   7.297
 4851POPC   C1B62539   8.100  14.053   6.233
 4851POPC   C2B62540   8.091  13.995   6.706
 4851POPC   C3B62541   8.048  13.849   7.114
 4851POPC   C4B62542   7.876  13.860   7.556
 4852POPC   NC362543  24.474  31.580   5.368
 4852POPC   PO462544  25.002  31.255   5.433
 4852POPC   GL162545  24.646  31.263   5.763
 4852POPC   GL262546  24.286  31.417   5.816
 4852POPC   C1A62547  24.503  31.115   6.182
 4852POPC   D2A62548  24.545  31.266   6.610
 4852POPC   C3A62549  24.600  31.638   6.818
 4852POPC   C4A62550  24.679  31.627   7.273
 4852POPC   C1B62551  24.238  31.572   6.251
 4852POPC   C2B62552  24.064  31.512   6.664
 4852POPC   C3B62553  24.173  31.583   7.092
 4852POPC   C4B62554  24.158  31.670   7.531
 4853POPC   NC362555  40.957  13.516   5.188
 4853POPC   PO462556  41.605  13.547   5.445
 4853POPC   GL162557  41.472  13.773   5.823
 4853POPC   GL262558  41.767  13.950   5.855
 4853POPC   C1A62559  41.475  13.689   6.295
 4853POPC   D2A62560  41.632  13.909   6.663
 4853POPC   C3A62561  41.440  13.776   7.040
 4853POPC   C4A62562  41.230  13.447   7.249
 4853POPC   C1B62563  41.920  13.559   6.082
 4853POPC   C2B62564  41.774  13.261   6.432
 4853POPC   C3B62565  41.699  13.383   6.867
 4853POPC   C4B62566  41.946  13.707   7.066
 4854POPC   NC362567  29.267  30.434   5.610
 4854POPC   PO462568  29.051  31.059   5.464
 4854POPC   GL162569  29.155  30.934   5.847
 4854POPC   GL262570  29.469  30.879   5.840
 4854POPC   C1A62571  29.102  30.685   6.232
 4854POPC   D2A62572  28.816  30.638   6.574
 4854POPC   C3A62573  28.963  30.494   6.973
 4854POPC   C4A62574  29.106  30.696   7.355
 4854POPC   C1B62575  29.374  31.128   6.245
 4854POPC   C2B62576  29.215  31.000   6.643
 4854POPC   C3B62577  29.427  30.693   6.894
 4854POPC   C4B62578  29.604  30.746   7.282
 4855POPC   NC362579  37.417   1.481   5.620
 4855POPC   PO462580  36.832   1.069   5.476
 4855POPC   GL162581  37.031   1.190   5.830
 4855POPC   GL262582  36.898   1.526   5.724
 4855POPC   C1A62583  36.919   1.039   6.257
 4855POPC   D2A62584  36.703   1.059   6.672
 4855POPC   C3A62585  37.025   1.114   6.984
 4855POPC   C4A62586  37.209   1.018   7.396
 4855POPC   C1B62587  36.830   1.567   6.164
 4855POPC   C2B62588  36.912   1.518   6.599
 4855POPC   C3B62589  36.720   1.522   7.011
 4855POPC   C4B62590  36.704   1.228   7.359
 4856POPC   NC362591   0.605  24.670   5.500
 4856POPC   PO462592  44.932  24.732   5.499
 4856POPC   GL162593   0.143  24.634   5.889
 4856POPC   GL262594   0.141  24.303   5.967
 4856POPC   C1A62595   0.302  24.630   6.342
 4856POPC   D2A62596   0.731  24.514   6.513
 4856POPC   C3A62597   0.708  24.579   6.950
 4856POPC   C4A62598   0.313  24.684   7.038
 4856POPC   C1B62599   0.388  24.131   6.254
 4856POPC   C2B62600   0.402  23.910   6.621
 4856POPC   C3B62601   0.365  24.139   6.976
 4856POPC   C4B62602   0.127  24.310   7.323
 4857POPC   NC362603  27.492  30.144   5.258
 4857POPC   PO462604  28.054  30.023   5.300
 4857POPC   GL162605  27.705  29.992   5.698
 4857POPC   GL262606  27.334  30.031   5.750
 4857POPC   C1A62607  27.631  29.908   6.139
 4857POPC   D2A62608  27.685  30.076   6.541
 4857POPC   C3A62609  27.716  29.858   6.926
 4857POPC   C4A62610  27.614  29.636   7.314
 4857POPC   C1B62611  27.129  29.871   6.162
 4857POPC   C2B62612  27.214  29.906   6.639
 4857POPC   C3B62613  27.240  29.932   7.105
 4857POPC   C4B62614  27.157  30.207   7.466
 4858POPC   NC362615  32.211  15.631   5.484
 4858POPC   PO462616  32.150  16.319   5.432
 4858POPC   GL162617  32.222  16.113   5.793
 4858POPC   GL262618  31.969  15.911   5.879
 4858POPC   C1A62619  32.159  16.180   6.245
 4858POPC   D2A62620  32.288  16.306   6.643
 4858POPC   C3A62621  32.028  16.251   6.989
 4858POPC   C4A62622  32.216  16.107   7.367
 4858POPC   C1B62623  31.893  15.716   6.267
 4858POPC   C2B62624  32.072  15.799   6.655
 4858POPC   C3B62625  32.023  15.740   7.062
 4858POPC   C4B62626  31.991  15.625   7.460
 4859POPC   NC362627   0.097  12.565   5.533
 4859POPC   PO462628   0.467  12.998   5.172
 4859POPC   GL162629   0.451  12.925   5.649
 4859POPC   GL262630   0.409  13.207   5.873
 4859POPC   C1A62631   0.397  12.735   6.092
 4859POPC   D2A62632   0.441  12.690   6.532
 4859POPC   C3A62633   0.258  12.890   6.840
 4859POPC   C4A62634   0.042  12.745   7.185
 4859POPC   C1B62635   0.516  13.211   6.339
 4859POPC   C2B62636   0.820  13.311   6.689
 4859POPC   C3B62637   0.855  13.077   7.067
 4859POPC   C4B62638   0.532  12.850   7.274
 4860POPC   NC362639   8.378  18.850   5.116
 4860POPC   PO462640   8.089  19.343   5.526
 4860POPC   GL162641   8.319  19.221   5.871
 4860POPC   GL262642   8.100  19.425   6.077
 4860POPC   C1A62643   8.575  18.998   6.180
 4860POPC   D2A62644   8.551  18.719   6.542
 4860POPC   C3A62645   8.539  18.938   6.930
 4860POPC   C4A62646   8.473  19.199   7.286
 4860POPC   C1B62647   8.082  19.033   6.327
 4860POPC   C2B62648   8.070  18.984   6.765
 4860POPC   C3B62649   7.976  19.224   7.122
 4860POPC   C4B62650   8.021  19.410   7.515
 4861POPC   NC362651  17.813  24.288   5.157
 4861POPC   PO462652  17.228  24.290   5.512
 4861POPC   GL162653  17.487  24.378   5.853
 4861POPC   GL262654  17.629  24.681   5.771
 4861POPC   C1A62655  17.491  24.296   6.286
 4861POPC   D2A62656  17.177  24.369   6.592
 4861POPC   C3A62657  17.381  24.342   6.960
 4861POPC   C4A62658  17.727  24.231   7.180
 4861POPC   C1B62659  17.414  24.788   6.183
 4861POPC   C2B62660  17.548  24.715   6.616
 4861POPC   C3B62661  17.691  24.742   7.048
 4861POPC   C4B62662  17.575  24.996   7.411
 4862POPC   NC362663  29.635  35.459   5.394
 4862POPC   PO462664  30.044  34.973   5.518
 4862POPC   GL162665  29.949  35.019   5.925
 4862POPC   GL262666  29.724  35.253   5.851
 4862POPC   C1A62667  30.174  35.196   6.278
 4862POPC   D2A62668  30.235  35.472   6.632
 4862POPC   C3A62669  29.978  35.316   7.014
 4862POPC   C4A62670  30.078  35.306   7.467
 4862POPC   C1B62671  29.711  35.477   6.221
 4862POPC   C2B62672  29.738  35.572   6.635
 4862POPC   C3B62673  29.502  35.493   6.995
 4862POPC   C4B62674  29.571  35.423   7.425
 4863POPC   NC362675  13.096  18.666   5.474
 4863POPC   PO462676  12.677  18.079   5.444
 4863POPC   GL162677  12.748  18.272   5.821
 4863POPC   GL262678  13.096  18.258   5.768
 4863POPC   C1A62679  12.768  18.609   6.151
 4863POPC   D2A62680  13.047  18.688   6.534
 4863POPC   C3A62681  12.810  18.586   6.936
 4863POPC   C4A62682  12.473  18.265   7.008
 4863POPC   C1B62683  13.145  18.275   6.202
 4863POPC   C2B62684  12.918  18.200   6.585
 4863POPC   C3B62685  12.949  18.083   6.990
 4863POPC   C4B62686  12.889  18.311   7.371
 4864POPC   NC362687  29.322  28.059   5.449
 4864POPC   PO462688  28.849  28.552   5.485
 4864POPC   GL162689  29.091  28.343   5.806
 4864POPC   GL262690  28.880  28.100   5.903
 4864POPC   C1A62691  29.285  28.448   6.194
 4864POPC   D2A62692  29.120  28.562   6.599
 4864POPC   C3A62693  29.288  28.486   6.972
 4864POPC   C4A62694  29.259  28.434   7.395
 4864POPC   C1B62695  28.836  28.230   6.316
 4864POPC   C2B62696  28.755  28.185   6.748
 4864POPC   C3B62697  28.899  28.135   7.176
 4864POPC   C4B62698  28.581  28.037   7.485
 4865POPC   NC362699  25.538  34.757   5.262
 4865POPC   PO462700  25.048  35.058   5.590
 4865POPC   GL162701  25.284  34.710   5.769
 4865POPC   GL262702  25.082  34.410   5.851
 4865POPC   C1A62703  25.440  34.573   6.163
 4865POPC   D2A62704  25.293  34.812   6.503
 4865POPC   C3A62705  25.447  34.721   6.889
 4865POPC   C4A62706  25.239  34.667   7.258
 4865POPC   C1B62707  24.985  34.408   6.308
 4865POPC   C2B62708  25.229  34.308   6.685
 4865POPC   C3B62709  25.052  34.239   7.098
 4865POPC   C4B62710  24.637  34.272   7.208
 4866POPC   NC362711  12.551  38.224   5.029
 4866POPC   PO462712  12.841  38.417   5.591
 4866POPC   GL162713  12.788  38.222   5.958
 4866POPC   GL262714  12.509  38.398   6.048
 4866POPC   C1A62715  12.884  38.240   6.402
 4866POPC   D2A62716  12.863  38.589   6.663
 4866POPC   C3A62717  12.893  38.460   7.080
 4866POPC   C4A62718  12.924  38.374   7.553
 4866POPC   C1B62719  12.418  38.066   6.371
 4866POPC   C2B62720  12.547  38.192   6.806
 4866POPC   C3B62721  12.619  38.073   7.232
 4866POPC   C4B62722  12.660  37.977   7.706
 4867POPC   NC362723  43.836  40.826   5.350
 4867POPC   PO462724  44.566  40.709   5.304
 4867POPC   GL162725  44.306  40.882   5.715
 4867POPC   GL262726  43.963  40.974   5.817
 4867POPC   C1A62727  44.297  40.797   6.165
 4867POPC   D2A62728  43.968  40.717   6.450
 4867POPC   C3A62729  43.985  40.661   6.885
 4867POPC   C4A62730  43.667  40.597   7.236
 4867POPC   C1B62731  43.797  41.166   6.208
 4867POPC   C2B62732  43.482  41.112   6.547
 4867POPC   C3B62733  43.518  41.047   6.988
 4867POPC   C4B62734  43.917  41.054   7.206
 4868POPC   NC362735  43.844  20.228   5.374
 4868POPC   PO462736  43.755  19.597   5.348
 4868POPC   GL162737  43.860  19.840   5.744
 4868POPC   GL262738  43.561  19.888   5.952
 4868POPC   C1A62739  44.072  19.777   6.174
 4868POPC   D2A62740  44.091  19.547   6.567
 4868POPC   C3A62741  44.024  19.747   6.980
 4868POPC   C4A62742  44.017  19.721   7.422
 4868POPC   C1B62743  43.620  19.778   6.384
 4868POPC   C2B62744  43.532  19.942   6.777
 4868POPC   C3B62745  43.576  19.832   7.203
 4868POPC   C4B62746  43.679  20.089   7.566
 4869POPC   NC362747  33.804   9.465   5.649
 4869POPC   PO462748  33.344   9.789   5.223
 4869POPC   GL162749  33.385   9.882   5.683
 4869POPC   GL262750  33.306   9.563   5.750
 4869POPC   C1A62751  33.116   9.943   6.098
 4869POPC   D2A62752  32.819   9.912   6.506
 4869POPC   C3A62753  33.024   9.927   6.936
 4869POPC   C4A62754  32.871   9.739   7.351
 4869POPC   C1B62755  33.229   9.442   6.175
 4869POPC   C2B62756  32.959   9.403   6.511
 4869POPC   C3B62757  32.933   9.442   6.932
 4869POPC   C4B62758  33.211   9.369   7.280
 4870POPC   NC362759  16.199  35.817   5.335
 4870POPC   PO462760  15.743  36.224   5.422
 4870POPC   GL162761  15.878  35.941   5.783
 4870POPC   GL262762  16.205  35.803   5.846
 4870POPC   C1A62763  15.955  36.053   6.248
 4870POPC   D2A62764  15.861  36.228   6.658
 4870POPC   C3A62765  15.999  36.129   7.092
 4870POPC   C4A62766  15.953  36.394   7.459
 4870POPC   C1B62767  16.355  35.744   6.272
 4870POPC   C2B62768  16.287  35.892   6.700
 4870POPC   C3B62769  16.334  35.733   7.123
 4870POPC   C4B62770  16.135  35.813   7.511
 4871POPC   NC362771  31.184  36.654   5.514
 4871POPC   PO462772  31.540  37.173   5.379
 4871POPC   GL162773  31.543  36.966   5.742
 4871POPC   GL262774  31.236  37.142   5.809
 4871POPC   C1A62775  31.421  36.786   6.137
 4871POPC   D2A62776  31.316  36.999   6.529
 4871POPC   C3A62777  31.526  36.854   6.875
 4871POPC   C4A62778  31.779  36.757   7.227
 4871POPC   C1B62779  30.998  37.233   6.195
 4871POPC   C2B62780  30.884  37.298   6.643
 4871POPC   C3B62781  31.080  37.139   7.018
 4871POPC   C4B62782  31.320  36.943   7.338
 4872POPC   NC362783  31.314  22.476   5.350
 4872POPC   PO462784  31.670  21.993   5.535
 4872POPC   GL162785  31.507  22.276   5.843
 4872POPC   GL262786  31.120  22.394   5.809
 4872POPC   C1A62787  31.649  22.211   6.289
 4872POPC   D2A62788  31.779  22.118   6.710
 4872POPC   C3A62789  31.469  22.086   7.023
 4872POPC   C4A62790  31.610  22.038   7.430
 4872POPC   C1B62791  30.992  22.463   6.220
 4872POPC   C2B62792  31.224  22.358   6.595
 4872POPC   C3B62793  31.166  22.498   7.002
 4872POPC   C4B62794  31.273  22.404   7.444
 4873POPC   NC362795  32.807  41.264   5.462
 4873POPC   PO462796  33.185  40.700   5.381
 4873POPC   GL162797  33.179  40.786   5.840
 4873POPC   GL262798  32.881  40.963   5.872
 4873POPC   C1A62799  33.093  40.608   6.295
 4873POPC   D2A62800  33.151  40.416   6.740
 4873POPC   C3A62801  33.089  40.681   7.122
 4873POPC   C4A62802  32.800  40.638   7.476
 4873POPC   C1B62803  32.927  41.096   6.306
 4873POPC   C2B62804  32.828  40.861   6.699
 4873POPC   C3B62805  32.648  40.976   7.117
 4873POPC   C4B62806  32.656  41.157   7.545
 4874POPC   NC362807  42.157   9.194   5.517
 4874POPC   PO462808  42.022   8.551   5.554
 4874POPC   GL162809  42.188   8.795   5.900
 4874POPC   GL262810  41.931   9.033   5.934
 4874POPC   C1A62811  42.480   8.777   6.289
 4874POPC   D2A62812  42.682   8.655   6.714
 4874POPC   C3A62813  42.487   8.754   7.099
 4874POPC   C4A62814  42.654   8.553   7.459
 4874POPC   C1B62815  42.281   9.235   6.163
 4874POPC   C2B62816  42.169   9.230   6.574
 4874POPC   C3B62817  42.354   9.266   6.971
 4874POPC   C4B62818  42.119   9.136   7.291
 4875POPC   NC362819   6.031  19.547   5.591
 4875POPC   PO462820   5.363  19.579   5.604
 4875POPC   GL162821   5.647  19.335   5.924
 4875POPC   GL262822   6.034  19.338   6.068
 4875POPC   C1A62823   5.671  19.062   6.298
 4875POPC   D2A62824   5.941  19.099   6.661
 4875POPC   C3A62825   5.712  19.135   7.042
 4875POPC   C4A62826   5.771  19.357   7.422
 4875POPC   C1B62827   6.202  18.901   6.262
 4875POPC   C2B62828   6.203  18.647   6.688
 4875POPC   C3B62829   6.188  18.881   7.090
 4875POPC   C4B62830   5.948  18.853   7.449
 4876POPC   NC362831  10.561   2.785   5.412
 4876POPC   PO462832  10.020   2.341   5.410
 4876POPC   GL162833  10.228   2.616   5.769
 4876POPC   GL262834  10.594   2.552   5.868
 4876POPC   C1A62835  10.265   2.720   6.237
 4876POPC   D2A62836  10.291   3.048   6.572
 4876POPC   C3A62837  10.443   2.970   7.007
 4876POPC   C4A62838  10.579   3.041   7.448
 4876POPC   C1B62839  10.774   2.556   6.299
 4876POPC   C2B62840  10.669   2.546   6.749
 4876POPC   C3B62841  10.738   2.579   7.205
 4876POPC   C4B62842  10.469   2.557   7.613
 4877POPC   NC362843  22.268  36.464   5.494
 4877POPC   PO462844  22.389  35.762   5.644
 4877POPC   GL162845  22.422  36.108   5.905
 4877POPC   GL262846  22.120  36.276   5.930
 4877POPC   C1A62847  22.308  36.026   6.330
 4877POPC   D2A62848  22.355  36.210   6.733
 4877POPC   C3A62849  22.279  35.972   7.110
 4877POPC   C4A62850  22.031  35.871   7.440
 4877POPC   C1B62851  22.135  36.504   6.297
 4877POPC   C2B62852  22.052  36.657   6.695
 4877POPC   C3B62853  22.088  36.469   7.090
 4877POPC   C4B62854  22.161  36.362   7.500
 4878POPC   NC362855  19.219  11.056   5.452
 4878POPC   PO462856  18.722  11.470   5.241
 4878POPC   GL162857  18.783  11.310   5.688
 4878POPC   GL262858  19.135  11.433   5.769
 4878POPC   C1A62859  18.932  11.146   6.134
 4878POPC   D2A62860  19.081  11.351   6.516
 4878POPC   C3A62861  19.256  11.143   6.882
 4878POPC   C4A62862  19.040  11.117   7.304
 4878POPC   C1B62863  19.415  11.488   6.101
 4878POPC   C2B62864  19.586  11.380   6.485
 4878POPC   C3B62865  19.517  11.619   6.857
 4878POPC   C4B62866  19.467  11.435   7.256
 4879POPC   NC362867   3.942  27.273   5.288
 4879POPC   PO462868   3.321  26.795   5.276
 4879POPC   GL162869   3.356  26.799   5.771
 4879POPC   GL262870   3.557  27.054   5.935
 4879POPC   C1A62871   3.464  26.614   6.173
 4879POPC   D2A62872   3.562  26.822   6.545
 4879POPC   C3A62873   3.452  26.704   6.940
 4879POPC   C4A62874   3.741  26.521   7.203
 4879POPC   C1B62875   3.314  27.174   6.232
 4879POPC   C2B62876   3.157  27.101   6.589
 4879POPC   C3B62877   3.322  27.188   6.965
 4879POPC   C4B62878   3.658  27.065   7.242
 4880POPC   NC362879  32.424  35.474   5.173
 4880POPC   PO462880  31.873  35.154   5.160
 4880POPC   GL162881  31.956  35.337   5.628
 4880POPC   GL262882  32.328  35.452   5.668
 4880POPC   C1A62883  32.081  35.316   6.092
 4880POPC   D2A62884  32.182  35.516   6.493
 4880POPC   C3A62885  32.071  35.320   6.865
 4880POPC   C4A62886  32.113  35.391   7.307
 4880POPC   C1B62887  32.471  35.687   6.041
 4880POPC   C2B62888  32.678  35.626   6.430
 4880POPC   C3B62889  32.580  35.487   6.829
 4880POPC   C4B62890  32.527  35.663   7.196
 4881POPC   NC362891  32.846  44.013   5.351
 4881POPC   PO462892  33.508  43.926   5.458
 4881POPC   GL162893  33.177  44.050   5.776
 4881POPC   GL262894  32.928  43.798   5.821
 4881POPC   C1A62895  33.177  43.889   6.240
 4881POPC   D2A62896  33.211  43.547   6.573
 4881POPC   C3A62897  33.231  43.786   6.967
 4881POPC   C4A62898  32.961  44.163   6.959
 4881POPC   C1B62899  32.760  43.529   6.145
 4881POPC   C2B62900  32.693  43.396   6.552
 4881POPC   C3B62901  32.761  43.567   6.947
 4881POPC   C4B62902  32.762  43.827   7.299
 4882POPC   NC362903  38.948   4.757   5.528
 4882POPC   PO462904  38.410   5.128   5.444
 4882POPC   GL162905  38.292   5.031   5.828
 4882POPC   GL262906  38.657   5.048   5.914
 4882POPC   C1A62907  38.256   5.047   6.259
 4882POPC   D2A62908  38.520   5.028   6.581
 4882POPC   C3A62909  38.331   5.122   6.972
 4882POPC   C4A62910  38.517   5.374   7.303
 4882POPC   C1B62911  38.606   4.667   6.143
 4882POPC   C2B62912  38.493   4.504   6.538
 4882POPC   C3B62913  38.576   4.661   6.941
 4882POPC   C4B62914  38.423   4.661   7.349
 4883POPC   NC362915  24.200  39.057   5.488
 4883POPC   PO462916  24.634  38.475   5.296
 4883POPC   GL162917  24.593  38.368   5.718
 4883POPC   GL262918  24.633  38.712   5.823
 4883POPC   C1A62919  24.737  38.310   6.154
 4883POPC   D2A62920  24.864  38.620   6.474
 4883POPC   C3A62921  24.797  38.557   6.921
 4883POPC   C4A62922  24.749  38.813   7.306
 4883POPC   C1B62923  24.348  38.669   6.178
 4883POPC   C2B62924  24.352  38.564   6.632
 4883POPC   C3B62925  24.280  38.424   7.059
 4883POPC   C4B62926  24.316  38.490   7.483
 4884POPC   NC362927  32.316  12.392   5.366
 4884POPC   PO462928  32.102  13.024   5.358
 4884POPC   GL162929  32.200  12.806   5.762
 4884POPC   GL262930  32.407  12.500   5.866
 4884POPC   C1A62931  31.919  12.818   6.116
 4884POPC   D2A62932  31.948  13.045   6.512
 4884POPC   C3A62933  32.169  12.901   6.866
 4884POPC   C4A62934  32.141  12.864   7.308
 4884POPC   C1B62935  32.333  12.593   6.299
 4884POPC   C2B62936  32.557  12.626   6.687
 4884POPC   C3B62937  32.456  12.504   7.106
 4884POPC   C4B62938  32.558  12.602   7.566
 4885POPC   NC362939  25.561   3.420   5.283
 4885POPC   PO462940  25.921   2.790   5.363
 4885POPC   GL162941  25.895   2.936   5.811
 4885POPC   GL262942  26.153   3.172   5.920
 4885POPC   C1A62943  26.033   2.792   6.235
 4885POPC   D2A62944  26.246   2.697   6.661
 4885POPC   C3A62945  26.039   2.583   7.065
 4885POPC   C4A62946  25.955   2.750   7.475
 4885POPC   C1B62947  25.910   3.304   6.210
 4885POPC   C2B62948  25.821   3.287   6.623
 4885POPC   C3B62949  26.002   3.079   6.961
 4885POPC   C4B62950  26.199   3.194   7.344
 4886POPC   NC362951  38.631  43.443   5.241
 4886POPC   PO462952  38.312  42.962   5.511
 4886POPC   GL162953  38.249  43.099   5.908
 4886POPC   GL262954  38.610  43.178   5.904
 4886POPC   C1A62955  37.945  42.974   6.249
 4886POPC   D2A62956  37.888  42.764   6.661
 4886POPC   C3A62957  38.202  42.918   6.956
 4886POPC   C4A62958  38.466  42.832   7.296
 4886POPC   C1B62959  38.742  43.288   6.343
 4886POPC   C2B62960  38.779  43.016   6.708
 4886POPC   C3B62961  38.854  43.121   7.116
 4886POPC   C4B62962  38.937  43.484   7.290
 4887POPC   NC362963  28.350  26.596   5.626
 4887POPC   PO462964  28.591  27.239   5.611
 4887POPC   GL162965  28.600  26.963   5.951
 4887POPC   GL262966  28.527  27.205   6.195
 4887POPC   C1A62967  28.525  26.690   6.317
 4887POPC   D2A62968  28.314  26.529   6.691
 4887POPC   C3A62969  28.415  26.590   7.131
 4887POPC   C4A62970  28.484  26.953   7.366
 4887POPC   C1B62971  28.096  26.955   6.225
 4887POPC   C2B62972  27.875  26.776   6.618
 4887POPC   C3B62973  28.029  26.905   7.034
 4887POPC   C4B62974  27.995  26.853   7.486
 4888POPC   NC362975  11.500  36.319   5.593
 4888POPC   PO462976  12.189  36.239   5.278
 4888POPC   GL162977  12.000  36.220   5.680
 4888POPC   GL262978  12.288  36.299   5.844
 4888POPC   C1A62979  11.856  36.251   6.146
 4888POPC   D2A62980  11.985  36.120   6.569
 4888POPC   C3A62981  11.802  36.209   6.984
 4888POPC   C4A62982  12.010  36.134   7.335
 4888POPC   C1B62983  12.417  36.254   6.271
 4888POPC   C2B62984  12.473  36.324   6.694
 4888POPC   C3B62985  12.425  36.065   7.042
 4888POPC   C4B62986  12.519  36.119   7.501
 4889POPC   NC362987  44.587  19.569   5.406
 4889POPC   PO462988  44.281  20.157   5.531
 4889POPC   GL162989  44.399  19.808   5.800
 4889POPC   GL262990  44.219  19.457   5.799
 4889POPC   C1A62991  44.688  19.841   6.118
 4889POPC   D2A62992  44.510  20.057   6.448
 4889POPC   C3A62993  44.491  19.885   6.832
 4889POPC   C4A62994  44.665  20.010   7.231
 4889POPC   C1B62995  44.447  19.400   6.218
 4889POPC   C2B62996  44.804  19.511   6.520
 4889POPC   C3B62997  44.855  19.552   6.964
 4889POPC   C4B62998  44.444  19.557   7.231
 4890POPC   NC362999  23.036   7.282   5.357
 4890POPC   PO463000  22.478   6.893   5.597
 4890POPC   GL163001  22.715   7.254   5.789
 4890POPC   GL263002  23.091   7.274   5.902
 4890POPC   C1A63003  22.663   7.338   6.217
 4890POPC   D2A63004  22.609   7.097   6.606
 4890POPC   C3A63005  22.649   7.291   7.024
 4890POPC   C4A63006  22.942   7.428   7.319
 4890POPC   C1B63007  23.136   7.323   6.377
 4890POPC   C2B63008  23.052   7.528   6.788
 4890POPC   C3B63009  23.223   7.808   7.134
 4890POPC   C4B63010  23.244   7.717   7.609
 4891POPC   NC363011  42.094  14.307   5.658
 4891POPC   PO463012  42.618  14.677   5.404
 4891POPC   GL163013  42.582  14.535   5.877
 4891POPC   GL263014  42.378  14.240   6.042
 4891POPC   C1A63015  42.600  14.536   6.350
 4891POPC   D2A63016  42.224  14.452   6.558
 4891POPC   C3A63017  42.381  14.531   6.916
 4891POPC   C4A63018  42.645  14.392   7.201
 4891POPC   C1B63019  42.037  14.047   6.274
 4891POPC   C2B63020  42.148  13.929   6.666
 4891POPC   C3B63021  41.947  14.207   6.963
 4891POPC   C4B63022  42.101  14.416   7.316
 4892POPC   NC363023  20.348  35.953   5.386
 4892POPC   PO463024  20.908  36.426   5.387
 4892POPC   GL163025  20.663  36.209   5.732
 4892POPC   GL263026  20.661  35.816   5.774
 4892POPC   C1A63027  20.542  36.143   6.176
 4892POPC   D2A63028  20.727  36.047   6.579
 4892POPC   C3A63029  20.512  36.085   7.002
 4892POPC   C4A63030  20.443  35.890   7.402
 4892POPC   C1B63031  20.957  35.808   6.137
 4892POPC   C2B63032  21.060  35.663   6.578
 4892POPC   C3B63033  20.937  35.795   6.978
 4892POPC   C4B63034  20.902  35.663   7.399
 4893POPC   NC363035   0.038  19.054   5.368
 4893POPC   PO463036   0.674  18.881   5.304
 4893POPC   GL163037   0.582  19.010   5.716
 4893POPC   GL263038   0.261  19.131   5.814
 4893POPC   C1A63039   0.642  19.354   6.046
 4893POPC   D2A63040   0.320  19.421   6.374
 4893POPC   C3A63041   0.450  19.390   6.802
 4893POPC   C4A63042   0.680  19.284   7.199
 4893POPC   C1B63043   0.365  18.888   6.178
 4893POPC   C2B63044   0.474  18.714   6.561
 4893POPC   C3B63045   0.442  18.904   6.961
 4893POPC   C4B63046   0.165  19.188   7.184
 4894POPC   NC363047   5.137  28.433   5.191
 4894POPC   PO463048   5.005  27.912   5.543
 4894POPC   GL163049   5.049  28.172   5.915
 4894POPC   GL263050   5.016  28.556   5.836
 4894POPC   C1A63051   5.060  28.302   6.363
 4894POPC   D2A63052   4.945  28.513   6.762
 4894POPC   C3A63053   5.197  28.370   7.127
 4894POPC   C4A63054   5.387  27.952   7.198
 4894POPC   C1B63055   4.736  28.667   6.200
 4894POPC   C2B63056   4.494  28.754   6.599
 4894POPC   C3B63057   4.584  28.757   7.049
 4894POPC   C4B63058   4.815  28.578   7.394
 4895POPC   NC363059  42.176  22.821   5.379
 4895POPC   PO463060  42.716  23.057   5.530
 4895POPC   GL163061  42.400  23.038   5.811
 4895POPC   GL263062  42.514  22.696   5.834
 4895POPC   C1A63063  42.209  23.238   6.193
 4895POPC   D2A63064  42.443  23.224   6.576
 4895POPC   C3A63065  42.269  23.161   6.985
 4895POPC   C4A63066  42.433  23.009   7.386
 4895POPC   C1B63067  42.332  22.740   6.244
 4895POPC   C2B63068  42.272  22.534   6.624
 4895POPC   C3B63069  42.381  22.644   7.014
 4895POPC   C4B63070  42.061  22.712   7.234
 4896POPC   NC363071  31.736  24.515   5.179
 4896POPC   PO463072  32.330  24.579   5.192
 4896POPC   GL163073  32.295  24.583   5.630
 4896POPC   GL263074  31.942  24.589   5.709
 4896POPC   C1A63075  32.347  24.444   6.061
 4896POPC   D2A63076  32.116  24.445   6.455
 4896POPC   C3A63077  32.269  24.586   6.841
 4896POPC   C4A63078  32.121  24.454   7.241
 4896POPC   C1B63079  31.985  24.830   6.119
 4896POPC   C2B63080  31.847  24.871   6.577
 4896POPC   C3B63081  31.926  24.888   7.049
 4896POPC   C4B63082  32.033  24.974   7.498
 4897POPC   NC363083  11.412  37.116   5.261
 4897POPC   PO463084  11.220  36.485   5.250
 4897POPC   GL163085  11.243  36.772   5.669
 4897POPC   GL263086  11.119  37.161   5.696
 4897POPC   C1A63087  11.365  36.642   6.132
 4897POPC   D2A63088  11.181  36.633   6.554
 4897POPC   C3A63089  11.544  36.715   6.860
 4897POPC   C4A63090  11.399  36.824   7.288
 4897POPC   C1B63091  11.060  37.034   6.134
 4897POPC   C2B63092  11.395  37.071   6.466
 4897POPC   C3B63093  11.312  37.157   6.901
 4897POPC   C4B63094  11.364  37.336   7.296
 4898POPC   NC363095  36.802  19.542   5.454
 4898POPC   PO463096  36.640  20.089   5.225
 4898POPC   GL163097  36.869  20.006   5.667
 4898POPC   GL263098  36.792  19.695   5.930
 4898POPC   C1A63099  37.012  20.091   6.100
 4898POPC   D2A63100  36.851  19.879   6.469
 4898POPC   C3A63101  36.894  20.044   6.891
 4898POPC   C4A63102  37.235  20.064   7.153
 4898POPC   C1B63103  36.865  19.387   6.298
 4898POPC   C2B63104  37.053  19.269   6.663
 4898POPC   C3B63105  36.856  19.547   6.897
 4898POPC   C4B63106  36.847  19.705   7.302
 4899POPC   NC363107  39.770  14.667   5.564
 4899POPC   PO463108  40.161  14.113   5.433
 4899POPC   GL163109  40.015  14.290   5.831
 4899POPC   GL263110  39.671  14.288   5.955
 4899POPC   C1A63111  40.046  14.356   6.287
 4899POPC   D2A63112  40.167  14.129   6.636
 4899POPC   C3A63113  39.958  14.381   6.953
 4899POPC   C4A63114  40.152  14.708   7.208
 4899POPC   C1B63115  39.684  14.714   6.204
 4899POPC   C2B63116  39.823  14.796   6.624
 4899POPC   C3B63117  39.683  14.830   7.055
 4899POPC   C4B63118  39.698  14.564   7.416
 4900POPC   NC363119  34.352  10.223   5.584
 4900POPC   PO463120  33.681  10.498   5.358
 4900POPC   GL163121  33.751  10.422   5.776
 4900POPC   GL263122  34.065  10.563   5.855
 4900POPC   C1A63123  33.628  10.530   6.198
 4900POPC   D2A63124  33.811  10.761   6.516
 4900POPC   C3A63125  33.755  10.595   6.940
 4900POPC   C4A63126  33.624  10.842   7.260
 4900POPC   C1B63127  34.080  10.312   6.245
 4900POPC   C2B63128  33.850  10.194   6.612
 4900POPC   C3B63129  33.939  10.131   7.076
 4900POPC   C4B63130  33.968  10.061   7.514
 4901POPC   NC363131   5.349  43.125   5.447
 4901POPC   PO463132   4.658  43.111   5.367
 4901POPC   GL163133   4.935  43.141   5.751
 4901POPC   GL263134   5.050  42.798   5.769
 4901POPC   C1A63135   5.102  43.278   6.184
 4901POPC   D2A63136   5.181  43.451   6.635
 4901POPC   C3A63137   4.971  43.289   7.027
 4901POPC   C4A63138   5.024  43.416   7.491
 4901POPC   C1B63139   4.818  42.842   6.168
 4901POPC   C2B63140   4.995  42.949   6.574
 4901POPC   C3B63141   5.342  42.965   6.885
 4901POPC   C4B63142   5.218  42.961   7.347
 4902POPC   NC363143  10.290   9.714   5.374
 4902POPC   PO463144  10.808   9.371   5.615
 4902POPC   GL163145  10.642   9.644   5.928
 4902POPC   GL263146  10.320   9.819   5.871
 4902POPC   C1A63147  10.761   9.983   6.216
 4902POPC   D2A63148  11.020  10.012   6.594
 4902POPC   C3A63149  10.833   9.681   6.833
 4902POPC   C4A63150  10.548   9.659   7.187
 4902POPC   C1B63151  10.286   9.715   6.313
 4902POPC   C2B63152  10.044   9.888   6.651
 4902POPC   C3B63153  10.032   9.822   7.105
 4902POPC   C4B63154  10.130   9.582   7.472
 4903POPC   NC363155   5.641  39.854   5.038
 4903POPC   PO463156   5.832  40.460   5.153
 4903POPC   GL163157   5.885  40.286   5.611
 4903POPC   GL263158   5.767  39.946   5.714
 4903POPC   C1A63159   5.848  40.231   6.096
 4903POPC   D2A63160   5.822  40.021   6.493
 4903POPC   C3A63161   5.706  40.213   6.878
 4903POPC   C4A63162   5.963  40.083   7.226
 4903POPC   C1B63163   5.877  39.677   6.094
 4903POPC   C2B63164   5.666  39.531   6.489
 4903POPC   C3B63165   5.754  39.679   6.911
 4903POPC   C4B63166   5.792  39.635   7.348
 4904POPC   NC363167  39.030  34.589   5.488
 4904POPC   PO463168  39.643  34.249   5.479
 4904POPC   GL163169  39.364  34.428   5.841
 4904POPC   GL263170  39.009  34.339   5.925
 4904POPC   C1A63171  39.332  34.836   6.083
 4904POPC   D2A63172  39.316  34.989   6.527
 4904POPC   C3A63173  39.463  34.629   6.790
 4904POPC   C4A63174  39.426  34.443   7.195
 4904POPC   C1B63175  38.841  34.681   6.193
 4904POPC   C2B63176  38.808  34.857   6.599
 4904POPC   C3B63177  38.972  34.640   6.937
 4904POPC   C4B63178  38.807  34.468   7.287
 4905POPC   NC363179  20.505  24.427   5.033
 4905POPC   PO463180  20.865  24.842   5.353
 4905POPC   GL163181  20.703  24.752   5.798
 4905POPC   GL263182  20.589  24.406   5.865
 4905POPC   C1A63183  20.592  24.728   6.265
 4905POPC   D2A63184  20.566  24.406   6.602
 4905POPC   C3A63185  20.523  24.551   7.042
 4905POPC   C4A63186  20.770  24.808   7.304
 4905POPC   C1B63187  20.684  24.079   6.181
 4905POPC   C2B63188  20.628  23.891   6.586
 4905POPC   C3B63189  20.496  24.045   6.984
 4905POPC   C4B63190  20.386  24.179   7.414
 4906POPC   NC363191   5.437  32.233   5.462
 4906POPC   PO463192   6.023  31.870   5.487
 4906POPC   GL163193   5.786  31.983   5.828
 4906POPC   GL263194   5.751  32.351   5.850
 4906POPC   C1A63195   5.998  32.013   6.208
 4906POPC   D2A63196   6.001  32.200   6.597
 4906POPC   C3A63197   6.101  31.924   6.918
 4906POPC   C4A63198   5.873  32.004   7.229
 4906POPC   C1B63199   5.552  32.221   6.251
 4906POPC   C2B63200   5.555  32.470   6.626
 4906POPC   C3B63201   5.574  32.391   7.050
 4906POPC   C4B63202   5.359  32.067   7.204
 4907POPC   NC363203  20.068  31.349   5.410
 4907POPC   PO463204  19.767  31.959   5.394
 4907POPC   GL163205  19.841  31.629   5.772
 4907POPC   GL263206  20.145  31.419   5.900
 4907POPC   C1A63207  19.729  31.373   6.168
 4907POPC   D2A63208  19.946  31.265   6.556
 4907POPC   C3A63209  19.720  31.350   6.943
 4907POPC   C4A63210  19.374  31.518   7.220
 4907POPC   C1B63211  20.102  31.743   6.223
 4907POPC   C2B63212  20.008  31.874   6.640
 4907POPC   C3B63213  20.070  31.922   7.066
 4907POPC   C4B63214  19.850  31.672   7.310
 4908POPC   NC363215  21.172   1.136   5.136
 4908POPC   PO463216  21.665   1.128   5.440
 4908POPC   GL163217  21.352   1.008   5.732
 4908POPC   GL263218  21.097   1.281   5.676
 4908POPC   C1A63219  21.425   0.976   6.184
 4908POPC   D2A63220  21.544   1.308   6.483
 4908POPC   C3A63221  21.617   1.197   6.894
 4908POPC   C4A63222  21.424   1.289   7.284
 4908POPC   C1B63223  21.009   1.443   6.102
 4908POPC   C2B63224  21.069   1.534   6.538
 4908POPC   C3B63225  21.013   1.325   6.928
 4908POPC   C4B63226  20.956   1.562   7.289
 4909POPC   NC363227  29.202  15.628   5.458
 4909POPC   PO463228  28.770  15.124   5.462
 4909POPC   GL163229  29.086  15.212   5.759
 4909POPC   GL263230  28.922  15.491   5.844
 4909POPC   C1A63231  29.294  15.206   6.164
 4909POPC   D2A63232  29.351  14.931   6.541
 4909POPC   C3A63233  29.163  14.990   6.943
 4909POPC   C4A63234  29.342  15.226   7.260
 4909POPC   C1B63235  28.788  15.409   6.235
 4909POPC   C2B63236  28.998  15.328   6.602
 4909POPC   C3B63237  29.270  15.572   6.869
 4909POPC   C4B63238  29.253  15.725   7.280
 4910POPC   NC363239  21.135  37.888   5.449
 4910POPC   PO463240  21.723  37.512   5.573
 4910POPC   GL163241  21.370  37.609   5.826
 4910POPC   GL263242  21.434  37.954   5.864
 4910POPC   C1A63243  21.251  37.493   6.243
 4910POPC   D2A63244  21.448  37.544   6.649
 4910POPC   C3A63245  21.151  37.414   6.953
 4910POPC   C4A63246  21.016  37.526   7.365
 4910POPC   C1B63247  21.621  38.175   6.208
 4910POPC   C2B63248  21.537  38.074   6.627
 4910POPC   C3B63249  21.457  37.886   7.022
 4910POPC   C4B63250  21.700  38.027   7.339
 4911POPC   NC363251   3.783  21.846   5.763
 4911POPC   PO463252   3.454  21.379   5.295
 4911POPC   GL163253   3.519  21.410   5.726
 4911POPC   GL263254   3.743  21.169   5.801
 4911POPC   C1A63255   3.381  21.449   6.172
 4911POPC   D2A63256   3.359  21.201   6.566
 4911POPC   C3A63257   3.364  21.412   6.988
 4911POPC   C4A63258   3.323  21.698   7.411
 4911POPC   C1B63259   3.813  21.188   6.229
 4911POPC   C2B63260   4.033  21.224   6.608
 4911POPC   C3B63261   3.949  21.193   7.032
 4911POPC   C4B63262   3.630  21.131   7.312
 4912POPC   NC363263  19.898  30.372   5.273
 4912POPC   PO463264  19.716  31.044   5.419
 4912POPC   GL163265  19.977  30.937   5.743
 4912POPC   GL263266  20.054  30.580   5.715
 4912POPC   C1A63267  19.889  30.894   6.163
 4912POPC   D2A63268  19.607  30.902   6.499
 4912POPC   C3A63269  19.849  30.859   6.887
 4912POPC   C4A63270  19.732  30.955   7.298
 4912POPC   C1B63271  20.258  30.537   6.119
 4912POPC   C2B63272  20.210  30.730   6.536
 4912POPC   C3B63273  20.255  30.513   6.927
 4912POPC   C4B63274  19.923  30.482   7.263
 4913POPC   NC363275  33.188  14.436   5.605
 4913POPC   PO463276  33.896  14.418   5.509
 4913POPC   GL163277  33.984  14.529   5.882
 4913POPC   GL263278  34.148  14.824   5.812
 4913POPC   C1A63279  33.707  14.514   6.237
 4913POPC   D2A63280  33.564  14.307   6.625
 4913POPC   C3A63281  33.807  14.319   7.034
 4913POPC   C4A63282  33.651  14.367   7.464
 4913POPC   C1B63283  34.087  14.878   6.244
 4913POPC   C2B63284  34.024  14.637   6.623
 4913POPC   C3B63285  34.016  14.777   7.035
 4913POPC   C4B63286  34.109  14.559   7.411
 4914POPC   NC363287  15.076  21.538   5.415
 4914POPC   PO463288  14.947  20.898   5.627
 4914POPC   GL163289  15.212  21.274   5.832
 4914POPC   GL263290  15.396  21.647   5.793
 4914POPC   C1A63291  15.135  21.502   6.218
 4914POPC   D2A63292  15.113  21.368   6.634
 4914POPC   C3A63293  14.834  21.324   6.961
 4914POPC   C4A63294  14.980  21.288   7.371
 4914POPC   C1B63295  15.609  21.744   6.194
 4914POPC   C2B63296  15.537  21.658   6.656
 4914POPC   C3B63297  15.297  21.624   7.073
 4914POPC   C4B63298  15.454  21.477   7.493
 4915POPC   NC363299  28.212  36.703   5.438
 4915POPC   PO463300  28.373  37.347   5.430
 4915POPC   GL163301  28.579  37.099   5.771
 4915POPC   GL263302  28.624  36.720   5.779
 4915POPC   C1A63303  28.624  36.944   6.217
 4915POPC   D2A63304  28.472  36.752   6.602
 4915POPC   C3A63305  28.416  37.039   6.945
 4915POPC   C4A63306  28.020  37.029   7.123
 4915POPC   C1B63307  28.659  36.441   6.185
 4915POPC   C2B63308  28.363  36.208   6.496
 4915POPC   C3B63309  28.152  36.410   6.852
 4915POPC   C4B63310  28.361  36.612   7.194
 4916POPC   NC363311  13.902  13.732   5.362
 4916POPC   PO463312  13.692  14.476   5.321
 4916POPC   GL163313  13.594  14.286   5.735
 4916POPC   GL263314  13.337  14.007   5.782
 4916POPC   C1A63315  13.778  14.363   6.155
 4916POPC   D2A63316  13.973  14.332   6.570
 4916POPC   C3A63317  13.634  14.357   6.869
 4916POPC   C4A63318  13.650  14.138   7.226
 4916POPC   C1B63319  13.281  14.228   6.192
 4916POPC   C2B63320  13.159  14.366   6.632
 4916POPC   C3B63321  13.111  14.049   6.975
 4916POPC   C4B63322  13.193  14.015   7.407
 4917POPC   NC363323  27.570  33.401   5.537
 4917POPC   PO463324  27.181  32.805   5.516
 4917POPC   GL163325  27.421  33.000   5.797
 4917POPC   GL263326  27.731  32.920   5.706
 4917POPC   C1A63327  27.364  33.251   6.163
 4917POPC   D2A63328  27.229  33.193   6.564
 4917POPC   C3A63329  27.523  33.240   6.869
 4917POPC   C4A63330  27.447  33.084   7.258
 4917POPC   C1B63331  27.779  32.898   6.152
 4917POPC   C2B63332  27.983  32.920   6.553
 4917POPC   C3B63333  27.874  32.860   6.998
 4917POPC   C4B63334  27.934  33.194   7.307
 4918POPC   NC363335  31.120   7.503   5.140
 4918POPC   PO463336  30.629   7.095   5.310
 4918POPC   GL163337  30.679   7.178   5.777
 4918POPC   GL263338  30.751   7.537   5.943
 4918POPC   C1A63339  30.487   7.211   6.206
 4918POPC   D2A63340  30.622   7.500   6.511
 4918POPC   C3A63341  30.748   7.380   6.925
 4918POPC   C4A63342  30.636   7.493   7.320
 4918POPC   C1B63343  31.044   7.682   6.286
 4918POPC   C2B63344  31.076   7.677   6.689
 4918POPC   C3B63345  31.291   7.712   7.023
 4918POPC   C4B63346  31.090   7.718   7.359
 4919POPC   NC363347  42.664  15.731   5.469
 4919POPC   PO463348  42.700  16.407   5.594
 4919POPC   GL163349  42.859  16.019   5.853
 4919POPC   GL263350  43.189  15.903   5.755
 4919POPC   C1A63351  42.942  15.964   6.306
 4919POPC   D2A63352  43.287  15.979   6.610
 4919POPC   C3A63353  43.120  16.030   7.037
 4919POPC   C4A63354  43.310  16.119   7.451
 4919POPC   C1B63355  43.338  15.681   6.119
 4919POPC   C2B63356  43.314  15.457   6.513
 4919POPC   C3B63357  43.391  15.581   6.945
 4919POPC   C4B63358  43.191  15.600   7.334
 4920POPC   NC363359   2.097  32.664   5.575
 4920POPC   PO463360   1.775  33.260   5.379
 4920POPC   GL163361   1.799  33.061   5.792
 4920POPC   GL263362   1.557  32.775   5.782
 4920POPC   C1A63363   1.950  33.047   6.233
 4920POPC   D2A63364   2.313  32.979   6.524
 4920POPC   C3A63365   2.132  32.896   6.923
 4920POPC   C4A63366   1.765  33.082   7.092
 4920POPC   C1B63367   1.598  32.643   6.224
 4920POPC   C2B63368   1.693  32.689   6.670
 4920POPC   C3B63369   1.472  32.672   7.057
 4920POPC   C4B63370   1.697  32.688   7.468
 4921POPC   NC363371  37.228  15.196   5.494
 4921POPC   PO463372  36.588  15.297   5.268
 4921POPC   GL163373  36.683  15.150   5.734
 4921POPC   GL263374  36.906  14.841   5.771
 4921POPC   C1A63375  36.883  15.242   6.192
 4921POPC   D2A63376  36.956  15.218   6.666
 4921POPC   C3A63377  36.890  15.402   7.088
 4921POPC   C4A63378  37.161  15.204   7.350
 4921POPC   C1B63379  36.587  14.813   6.122
 4921POPC   C2B63380  36.546  14.922   6.578
 4921POPC   C3B63381  36.668  14.949   7.015
 4921POPC   C4B63382  36.662  14.803   7.421
 4922POPC   NC363383  39.691  40.297   5.407
 4922POPC   PO463384  39.748  39.625   5.527
 4922POPC   GL163385  40.025  39.985   5.650
 4922POPC   GL263386  40.293  39.889   5.837
 4922POPC   C1A63387  40.072  40.329   5.976
 4922POPC   D2A63388  40.137  40.459   6.407
 4922POPC   C3A63389  39.939  40.338   6.797
 4922POPC   C4A63390  39.821  40.299   7.264
 4922POPC   C1B63391  39.974  39.860   6.176
 4922POPC   C2B63392  39.924  39.842   6.644
 4922POPC   C3B63393  40.135  39.955   7.072
 4922POPC   C4B63394  40.334  39.695   7.367
 4923POPC   NC363395   5.892  42.296   5.315
 4923POPC   PO463396   5.896  41.610   5.248
 4923POPC   GL163397   5.851  41.610   5.676
 4923POPC   GL263398   6.151  41.443   5.818
 4923POPC   C1A63399   5.720  41.632   6.102
 4923POPC   D2A63400   5.680  41.430   6.494
 4923POPC   C3A63401   5.562  41.663   6.858
 4923POPC   C4A63402   5.700  41.513   7.245
 4923POPC   C1B63403   6.350  41.341   6.255
 4923POPC   C2B63404   6.339  41.481   6.725
 4923POPC   C3B63405   6.247  41.406   7.187
 4923POPC   C4B63406   6.153  41.353   7.620
 4924POPC   NC363407  36.760   9.325   5.390
 4924POPC   PO463408  37.179   8.837   5.368
 4924POPC   GL163409  37.001   8.971   5.788
 4924POPC   GL263410  36.691   9.125   5.838
 4924POPC   C1A63411  36.902   8.953   6.262
 4924POPC   D2A63412  36.998   8.839   6.680
 4924POPC   C3A63413  36.781   8.978   7.041
 4924POPC   C4A63414  36.662   8.657   7.363
 4924POPC   C1B63415  36.522   9.307   6.195
 4924POPC   C2B63416  36.505   9.147   6.602
 4924POPC   C3B63417  36.457   9.406   6.944
 4924POPC   C4B63418  36.756   9.581   7.183
 4925POPC   NC363419  13.080  25.393   5.408
 4925POPC   PO463420  12.556  25.080   5.436
 4925POPC   GL163421  12.737  25.070   5.874
 4925POPC   GL263422  13.091  25.018   5.849
 4925POPC   C1A63423  12.882  25.332   6.260
 4925POPC   D2A63424  12.712  25.478   6.692
 4925POPC   C3A63425  12.919  25.330   7.068
 4925POPC   C4A63426  12.754  25.139   7.463
 4925POPC   C1B63427  13.258  24.999   6.237
 4925POPC   C2B63428  13.079  25.050   6.661
 4925POPC   C3B63429  13.327  24.998   7.039
 4925POPC   C4B63430  13.220  24.970   7.470
 4926POPC   NC363431  31.611  23.424   5.462
 4926POPC   PO463432  31.736  22.736   5.385
 4926POPC   GL163433  31.439  22.812   5.745
 4926POPC   GL263434  31.323  23.167   5.798
 4926POPC   C1A63435  31.459  22.665   6.168
 4926POPC   D2A63436  31.716  22.708   6.548
 4926POPC   C3A63437  31.589  22.792   6.999
 4926POPC   C4A63438  31.758  22.535   7.335
 4926POPC   C1B63439  31.561  23.154   6.210
 4926POPC   C2B63440  31.562  23.219   6.648
 4926POPC   C3B63441  31.394  23.428   7.002
 4926POPC   C4B63442  31.470  23.270   7.403
 4927POPC   NC363443  28.036  23.072   5.449
 4927POPC   PO463444  28.708  22.798   5.443
 4927POPC   GL163445  28.545  22.779   5.866
 4927POPC   GL263446  28.175  22.778   5.868
 4927POPC   C1A63447  28.430  22.702   6.309
 4927POPC   D2A63448  28.462  23.084   6.568
 4927POPC   C3A63449  28.341  23.024   6.984
 4927POPC   C4A63450  28.492  23.197   7.355
 4927POPC   C1B63451  28.062  23.081   6.220
 4927POPC   C2B63452  28.008  23.304   6.649
 4927POPC   C3B63453  27.855  23.128   7.063
 4927POPC   C4B63454  28.012  23.219   7.527
 4928POPC   NC363455  26.254   5.407   5.462
 4928POPC   PO463456  25.819   4.859   5.403
 4928POPC   GL163457  25.898   5.150   5.753
 4928POPC   GL263458  26.238   5.025   5.801
 4928POPC   C1A63459  25.796   5.115   6.216
 4928POPC   D2A63460  25.771   4.788   6.568
 4928POPC   C3A63461  25.960   4.866   6.995
 4928POPC   C4A63462  25.872   4.899   7.457
 4928POPC   C1B63463  26.312   5.162   6.213
 4928POPC   C2B63464  26.160   5.188   6.618
 4928POPC   C3B63465  26.402   5.158   6.999
 4928POPC   C4B63466  26.420   5.521   7.300
 4929POPC   NC363467   5.829  36.542   5.559
 4929POPC   PO463468   6.139  37.052   5.274
 4929POPC   GL163469   5.943  37.016   5.733
 4929POPC   GL263470   5.640  36.829   5.927
 4929POPC   C1A63471   5.978  37.087   6.181
 4929POPC   D2A63472   6.117  36.941   6.564
 4929POPC   C3A63473   5.818  37.162   6.834
 4929POPC   C4A63474   5.759  37.275   7.228
 4929POPC   C1B63475   5.622  36.659   6.333
 4929POPC   C2B63476   5.715  36.674   6.738
 4929POPC   C3B63477   5.835  36.765   7.175
 4929POPC   C4B63478   5.702  36.613   7.593
 4930POPC   NC363479  39.594  27.854   5.484
 4930POPC   PO463480  39.312  27.204   5.369
 4930POPC   GL163481  39.177  27.275   5.817
 4930POPC   GL263482  39.102  27.641   5.877
 4930POPC   C1A63483  39.295  27.388   6.270
 4930POPC   D2A63484  39.111  27.589   6.656
 4930POPC   C3A63485  39.141  27.476   7.127
 4930POPC   C4A63486  39.150  27.441   7.617
 4930POPC   C1B63487  38.853  27.878   6.179
 4930POPC   C2B63488  38.905  28.076   6.586
 4930POPC   C3B63489  38.988  27.957   7.015
 4930POPC   C4B63490  39.372  27.901   7.278
 4931POPC   NC363491  18.769   2.497   5.293
 4931POPC   PO463492  18.906   1.821   5.392
 4931POPC   GL163493  19.158   2.074   5.706
 4931POPC   GL263494  19.454   2.300   5.621
 4931POPC   C1A63495  19.182   1.934   6.129
 4931POPC   D2A63496  18.901   1.883   6.477
 4931POPC   C3A63497  18.993   1.916   6.904
 4931POPC   C4A63498  18.947   1.610   7.234
 4931POPC   C1B63499  19.454   2.372   6.097
 4931POPC   C2B63500  19.226   2.294   6.496
 4931POPC   C3B63501  19.391   2.234   6.898
 4931POPC   C4B63502  19.300   2.095   7.315
 4932POPC   NC363503  32.265  30.290   5.143
 4932POPC   PO463504  32.354  29.699   5.400
 4932POPC   GL163505  32.014  29.883   5.675
 4932POPC   GL263506  31.855  29.645   5.887
 4932POPC   C1A63507  31.987  30.117   6.087
 4932POPC   D2A63508  32.094  30.302   6.503
 4932POPC   C3A63509  32.154  30.016   6.879
 4932POPC   C4A63510  32.121  30.195   7.289
 4932POPC   C1B63511  32.175  29.642   6.208
 4932POPC   C2B63512  32.210  29.504   6.663
 4932POPC   C3B63513  32.487  29.621   6.999
 4932POPC   C4B63514  32.366  29.777   7.414
 4933POPC   NC363515   9.115  21.732   5.282
 4933POPC   PO463516   9.003  21.081   5.418
 4933POPC   GL163517   8.819  21.194   5.781
 4933POPC   GL263518   9.144  21.209   5.918
 4933POPC   C1A63519   8.778  21.419   6.182
 4933POPC   D2A63520   9.001  21.409   6.507
 4933POPC   C3A63521   8.732  21.351   6.820
 4933POPC   C4A63522   8.767  21.379   7.278
 4933POPC   C1B63523   9.361  21.090   6.287
 4933POPC   C2B63524   9.462  21.273   6.674
 4933POPC   C3B63525   9.196  21.237   7.005
 4933POPC   C4B63526   9.265  21.127   7.415
 4934POPC   NC363527  29.715  19.851   5.561
 4934POPC   PO463528  30.218  19.910   5.069
 4934POPC   GL163529  30.132  20.131   5.573
 4934POPC   GL263530  30.299  19.951   5.850
 4934POPC   C1A63531  29.905  20.150   6.077
 4934POPC   D2A63532  29.697  19.823   6.383
 4934POPC   C3A63533  29.882  19.687   6.804
 4934POPC   C4A63534  30.007  20.007   7.134
 4934POPC   C1B63535  30.219  19.773   6.307
 4934POPC   C2B63536  30.351  19.881   6.759
 4934POPC   C3B63537  30.400  19.690   7.204
 4934POPC   C4B63538  30.449  19.809   7.668
 4935POPC   NC363539  27.615  41.326   5.334
 4935POPC   PO463540  27.671  41.893   5.472
 4935POPC   GL163541  27.772  41.565   5.779
 4935POPC   GL263542  27.500  41.352   5.840
 4935POPC   C1A63543  27.773  41.585   6.233
 4935POPC   D2A63544  27.835  41.516   6.674
 4935POPC   C3A63545  27.773  41.695   7.109
 4935POPC   C4A63546  27.429  41.835   7.393
 4935POPC   C1B63547  27.406  41.210   6.268
 4935POPC   C2B63548  27.247  41.249   6.686
 4935POPC   C3B63549  27.330  41.440   7.049
 4935POPC   C4B63550  27.439  41.315   7.430
 4936POPC   NC363551  27.230  11.731   5.379
 4936POPC   PO463552  27.793  11.462   5.497
 4936POPC   GL163553  27.678  11.381   5.917
 4936POPC   GL263554  27.750  11.022   5.952
 4936POPC   C1A63555  27.700  11.460   6.383
 4936POPC   D2A63556  27.811  11.204   6.721
 4936POPC   C3A63557  27.613  11.349   7.084
 4936POPC   C4A63558  27.578  11.645   7.401
 4936POPC   C1B63559  27.491  11.002   6.353
 4936POPC   C2B63560  27.274  11.112   6.767
 4936POPC   C3B63561  27.261  11.002   7.221
 4936POPC   C4B63562  27.556  11.143   7.554
 4937POPC   NC363563  14.518  24.688   5.294
 4937POPC   PO463564  14.026  24.240   5.467
 4937POPC   GL163565  14.089  24.596   5.686
 4937POPC   GL263566  14.464  24.607   5.785
 4937POPC   C1A63567  14.099  24.694   6.110
 4937POPC   D2A63568  14.179  24.468   6.479
 4937POPC   C3A63569  14.207  24.647   6.899
 4937POPC   C4A63570  14.388  24.353   7.202
 4937POPC   C1B63571  14.606  24.824   6.160
 4937POPC   C2B63572  14.859  24.736   6.514
 4937POPC   C3B63573  14.880  24.912   6.929
 4937POPC   C4B63574  14.537  24.865   7.245
 4938POPC   NC363575  26.193  25.393   5.614
 4938POPC   PO463576  25.802  24.870   5.371
 4938POPC   GL163577  25.834  25.069   5.819
 4938POPC   GL263578  26.154  25.125   6.032
 4938POPC   C1A63579  25.737  25.278   6.241
 4938POPC   D2A63580  25.900  25.411   6.661
 4938POPC   C3A63581  25.724  25.301   7.059
 4938POPC   C4A63582  25.853  25.073   7.443
 4938POPC   C1B63583  26.150  25.578   6.242
 4938POPC   C2B63584  26.376  25.653   6.616
 4938POPC   C3B63585  26.257  25.519   7.022
 4938POPC   C4B63586  26.509  25.735   7.303
 4939POPC   NC363587   2.214  31.862   5.424
 4939POPC   PO463588   1.717  32.284   5.589
 4939POPC   GL163589   2.108  32.248   5.845
 4939POPC   GL263590   2.003  31.971   5.879
 4939POPC   C1A63591   2.299  32.498   6.193
 4939POPC   D2A63592   2.481  32.494   6.614
 4939POPC   C3A63593   2.181  32.386   6.904
 4939POPC   C4A63594   1.813  32.311   7.144
 4939POPC   C1B63595   1.758  32.143   6.228
 4939POPC   C2B63596   1.793  32.167   6.651
 4939POPC   C3B63597   1.777  31.838   6.935
 4939POPC   C4B63598   1.997  31.865   7.307
 4940POPC   NC363599   5.428  20.863   5.426
 4940POPC   PO463600   4.875  20.383   5.416
 4940POPC   GL163601   4.958  20.650   5.740
 4940POPC   GL263602   5.275  20.515   5.800
 4940POPC   C1A63603   4.916  20.495   6.165
 4940POPC   D2A63604   5.167  20.437   6.513
 4940POPC   C3A63605   4.997  20.559   6.843
 4940POPC   C4A63606   4.999  20.582   7.261
 4940POPC   C1B63607   5.330  20.805   6.155
 4940POPC   C2B63608   5.510  20.802   6.585
 4940POPC   C3B63609   5.362  20.873   6.986
 4940POPC   C4B63610   5.363  20.931   7.422
 4941POPC   NC363611   3.524   6.995   5.491
 4941POPC   PO463612   3.537   7.607   5.265
 4941POPC   GL163613   3.379   7.476   5.662
 4941POPC   GL263614   3.716   7.374   5.802
 4941POPC   C1A63615   3.232   7.397   6.095
 4941POPC   D2A63616   3.388   7.683   6.420
 4941POPC   C3A63617   3.193   7.646   6.814
 4941POPC   C4A63618   3.251   7.742   7.227
 4941POPC   C1B63619   3.688   7.255   6.235
 4941POPC   C2B63620   3.520   7.223   6.655
 4941POPC   C3B63621   3.612   7.394   7.047
 4941POPC   C4B63622   3.983   7.311   7.295
 4942POPC   NC363623  24.469  24.173   5.422
 4942POPC   PO463624  24.810  23.548   5.495
 4942POPC   GL163625  24.529  23.765   5.781
 4942POPC   GL263626  24.155  23.681   5.795
 4942POPC   C1A63627  24.511  23.676   6.219
 4942POPC   D2A63628  24.293  23.663   6.601
 4942POPC   C3A63629  24.532  23.557   6.923
 4942POPC   C4A63630  24.414  23.395   7.272
 4942POPC   C1B63631  24.134  24.016   6.130
 4942POPC   C2B63632  24.157  24.152   6.594
 4942POPC   C3B63633  24.249  23.993   7.027
 4942POPC   C4B63634  24.075  24.065   7.446
 4943POPC   NC363635  13.297  30.950   5.158
 4943POPC   PO463636  12.734  30.591   5.175
 4943POPC   GL163637  12.836  30.551   5.646
 4943POPC   GL263638  12.969  30.237   5.780
 4943POPC   C1A63639  12.749  30.781   6.048
 4943POPC   D2A63640  12.894  30.964   6.435
 4943POPC   C3A63641  12.791  30.868   6.883
 4943POPC   C4A63642  12.853  31.099   7.254
 4943POPC   C1B63643  12.945  30.349   6.244
 4943POPC   C2B63644  13.012  30.417   6.701
 4943POPC   C3B63645  12.959  30.304   7.141
 4943POPC   C4B63646  12.938  30.265   7.597
 4944POPC   NC363647  20.501   0.467   5.423
 4944POPC   PO463648  20.930  44.884   5.311
 4944POPC   GL163649  20.687   0.062   5.719
 4944POPC   GL263650  20.306   0.154   5.759
 4944POPC   C1A63651  20.730   0.270   6.149
 4944POPC   D2A63652  20.588   0.575   6.519
 4944POPC   C3A63653  20.772   0.574   6.972
 4944POPC   C4A63654  20.863   0.388   7.397
 4944POPC   C1B63655  20.233   0.403   6.148
 4944POPC   C2B63656  20.062   0.465   6.564
 4944POPC   C3B63657  20.248   0.504   6.940
 4944POPC   C4B63658  20.433   0.167   7.158
 4945POPC   NC363659  28.619  12.146   5.465
 4945POPC   PO463660  27.972  12.387   5.573
 4945POPC   GL163661  28.240  12.108   5.827
 4945POPC   GL263662  28.448  12.327   5.927
 4945POPC   C1A63663  28.554  11.882   6.129
 4945POPC   D2A63664  28.707  11.740   6.538
 4945POPC   C3A63665  28.483  11.871   6.873
 4945POPC   C4A63666  28.422  11.775   7.287
 4945POPC   C1B63667  28.661  12.513   6.272
 4945POPC   C2B63668  28.513  12.677   6.635
 4945POPC   C3B63669  28.368  12.416   6.933
 4945POPC   C4B63670  28.649  12.228   7.177
 4946POPC   NC363671  28.422   1.962   5.236
 4946POPC   PO463672  27.923   1.941   5.613
 4946POPC   GL163673  28.423   1.954   5.745
 4946POPC   GL263674  28.577   2.273   5.618
 4946POPC   C1A63675  28.631   1.982   6.174
 4946POPC   D2A63676  28.378   1.822   6.531
 4946POPC   C3A63677  28.429   1.721   6.972
 4946POPC   C4A63678  28.451   1.590   7.409
 4946POPC   C1B63679  28.333   2.382   6.005
 4946POPC   C2B63680  28.393   2.339   6.476
 4946POPC   C3B63681  28.626   2.192   6.839
 4946POPC   C4B63682  28.414   2.161   7.232
 4947POPC   NC363683  34.953   1.626   5.330
 4947POPC   PO463684  34.415   1.181   5.430
 4947POPC   GL163685  34.609   1.317   5.790
 4947POPC   GL263686  34.974   1.252   5.705
 4947POPC   C1A63687  34.610   1.458   6.232
 4947POPC   D2A63688  34.492   1.343   6.651
 4947POPC   C3A63689  34.543   1.445   7.091
 4947POPC   C4A63690  34.452   1.269   7.527
 4947POPC   C1B63691  34.924   1.077   6.112
 4947POPC   C2B63692  34.814   0.961   6.508
 4947POPC   C3B63693  34.898   1.104   6.883
 4947POPC   C4B63694  34.763   0.993   7.235
 4948POPC   NC363695  12.375  42.590   5.373
 4948POPC   PO463696  12.227  41.902   5.390
 4948POPC   GL163697  12.304  42.008   5.802
 4948POPC   GL263698  12.591  42.230   5.698
 4948POPC   C1A63699  12.009  42.068   6.167
 4948POPC   D2A63700  11.765  42.278   6.521
 4948POPC   C3A63701  11.831  42.194   6.972
 4948POPC   C4A63702  11.952  42.508   7.268
 4948POPC   C1B63703  12.590  42.310   6.135
 4948POPC   C2B63704  12.303  42.410   6.466
 4948POPC   C3B63705  12.307  42.391   6.898
 4948POPC   C4B63706  12.288  42.037   7.184
 4949POPC   NC363707  44.405   4.540   5.542
 4949POPC   PO463708  44.785   4.051   5.403
 4949POPC   GL163709  44.969   4.113   5.809
 4949POPC   GL263710  44.616   4.220   5.889
 4949POPC   C1A63711   0.005   4.314   6.226
 4949POPC   D2A63712  44.766   4.440   6.602
 4949POPC   C3A63713  44.933   4.429   7.018
 4949POPC   C4A63714  44.801   4.270   7.442
 4949POPC   C1B63715  44.357   4.023   6.195
 4949POPC   C2B63716  44.473   3.992   6.626
 4949POPC   C3B63717  44.495   4.166   7.027
 4949POPC   C4B63718  44.254   3.981   7.313
 4950POPC   NC363719  38.231   4.687   5.413
 4950POPC   PO463720  38.035   4.048   5.421
 4950POPC   GL163721  38.353   4.073   5.830
 4950POPC   GL263722  38.725   3.972   5.835
 4950POPC   C1A63723  38.253   4.091   6.278
 4950POPC   D2A63724  37.999   4.264   6.590
 4950POPC   C3A63725  38.179   4.323   6.976
 4950POPC   C4A63726  38.389   4.132   7.296
 4950POPC   C1B63727  38.772   4.173   6.220
 4950POPC   C2B63728  38.658   4.024   6.610
 4950POPC   C3B63729  38.781   3.951   7.016
 4950POPC   C4B63730  38.833   4.342   7.246
 4951POPC   NC363731  18.070  23.250   5.103
 4951POPC   PO463732  17.970  23.894   5.349
 4951POPC   GL163733  18.241  23.604   5.676
 4951POPC   GL263734  18.646  23.605   5.786
 4951POPC   C1A63735  18.297  23.519   6.141
 4951POPC   D2A63736  18.288  23.712   6.554
 4951POPC   C3A63737  18.365  23.470   6.925
 4951POPC   C4A63738  18.318  23.547   7.360
 4951POPC   C1B63739  18.768  23.757   6.256
 4951POPC   C2B63740  18.770  23.755   6.740
 4951POPC   C3B63741  18.614  23.891   7.150
 4951POPC   C4B63742  18.610  23.853   7.628
 4952POPC   NC363743  20.799   5.371   5.317
 4952POPC   PO463744  21.194   5.864   5.200
 4952POPC   GL163745  20.784   5.803   5.580
 4952POPC   GL263746  20.578   6.139   5.701
 4952POPC   C1A63747  20.561   5.758   6.025
 4952POPC   D2A63748  20.505   6.004   6.415
 4952POPC   C3A63749  20.602   5.876   6.841
 4952POPC   C4A63750  20.494   5.586   7.163
 4952POPC   C1B63751  20.285   6.322   6.049
 4952POPC   C2B63752  20.107   6.371   6.491
 4952POPC   C3B63753  20.288   6.362   6.915
 4952POPC   C4B63754  20.474   6.165   7.282
 4953POPC   NC363755  27.203  13.335   5.270
 4953POPC   PO463756  26.551  13.577   5.411
 4953POPC   GL163757  26.635  13.703   5.832
 4953POPC   GL263758  26.954  13.760   5.890
 4953POPC   C1A63759  26.644  13.471   6.223
 4953POPC   D2A63760  26.582  13.587   6.681
 4953POPC   C3A63761  26.627  13.305   7.071
 4953POPC   C4A63762  26.838  13.330   7.501
 4953POPC   C1B63763  26.859  13.934   6.291
 4953POPC   C2B63764  27.004  13.898   6.705
 4953POPC   C3B63765  26.962  13.700   7.111
 4953POPC   C4B63766  27.132  13.741   7.542
 4954POPC   NC363767  17.364  12.283   5.339
 4954POPC   PO463768  17.768  11.743   5.424
 4954POPC   GL163769  17.380  11.840   5.662
 4954POPC   GL263770  17.423  12.155   5.827
 4954POPC   C1A63771  17.381  11.743   6.130
 4954POPC   D2A63772  17.727  11.873   6.431
 4954POPC   C3A63773  17.667  11.897   6.870
 4954POPC   C4A63774  17.306  11.764   7.113
 4954POPC   C1B63775  17.437  12.256   6.246
 4954POPC   C2B63776  17.200  12.383   6.607
 4954POPC   C3B63777  17.376  12.304   7.005
 4954POPC   C4B63778  17.603  12.440   7.340
 4955POPC   NC363779  34.265  41.597   5.335
 4955POPC   PO463780  34.752  41.177   5.316
 4955POPC   GL163781  34.702  41.382   5.793
 4955POPC   GL263782  34.347  41.500   5.831
 4955POPC   C1A63783  34.836  41.720   6.126
 4955POPC   D2A63784  34.866  41.892   6.562
 4955POPC   C3A63785  34.875  41.712   6.980
 4955POPC   C4A63786  34.544  41.600   7.241
 4955POPC   C1B63787  34.424  41.478   6.282
 4955POPC   C2B63788  34.778  41.384   6.543
 4955POPC   C3B63789  34.882  41.185   6.931
 4955POPC   C4B63790  34.945  41.311   7.336
 4956POPC   NC363791  13.285  42.324   5.291
 4956POPC   PO463792  13.882  42.489   5.405
 4956POPC   GL163793  13.595  42.416   5.707
 4956POPC   GL263794  13.422  42.697   5.615
 4956POPC   C1A63795  13.581  42.187   6.104
 4956POPC   D2A63796  13.751  41.945   6.453
 4956POPC   C3A63797  13.606  42.122   6.823
 4956POPC   C4A63798  13.570  42.293   7.213
 4956POPC   C1B63799  13.405  42.702   6.084
 4956POPC   C2B63800  13.523  42.529   6.500
 4956POPC   C3B63801  13.537  42.706   6.916
 4956POPC   C4B63802  13.250  42.714   7.243
 4957POPC   NC363803   2.262  41.161   5.420
 4957POPC   PO463804   1.934  40.536   5.470
 4957POPC   GL163805   2.094  40.594   5.869
 4957POPC   GL263806   1.901  40.905   5.855
 4957POPC   C1A63807   1.914  40.651   6.306
 4957POPC   D2A63808   1.724  40.842   6.680
 4957POPC   C3A63809   1.831  40.735   7.133
 4957POPC   C4A63810   2.250  40.707   7.304
 4957POPC   C1B63811   2.280  40.994   6.130
 4957POPC   C2B63812   2.328  41.018   6.586
 4957POPC   C3B63813   2.115  41.114   6.956
 4957POPC   C4B63814   2.072  41.157   7.391
 4958POPC   NC363815  26.338  19.954   5.450
 4958POPC   PO463816  26.065  19.367   5.407
 4958POPC   GL163817  26.277  19.562   5.773
 4958POPC   GL263818  26.012  19.801   5.840
 4958POPC   C1A63819  26.382  19.706   6.220
 4958POPC   D2A63820  26.173  19.775   6.640
 4958POPC   C3A63821  26.396  19.943   7.035
 4958POPC   C4A63822  26.311  20.141   7.500
 4958POPC   C1B63823  25.801  19.811   6.246
 4958POPC   C2B63824  25.596  19.829   6.638
 4958POPC   C3B63825  25.765  19.637   7.008
 4958POPC   C4B63826  26.070  19.708   7.333
 4959POPC   NC363827  19.622   0.123   5.387
 4959POPC   PO463828  20.086   0.671   5.369
 4959POPC   GL163829  19.996   0.672   5.795
 4959POPC   GL263830  19.814   0.362   5.807
 4959POPC   C1A63831  19.771   0.699   6.215
 4959POPC   D2A63832  19.531   0.483   6.574
 4959POPC   C3A63833  19.540   0.688   6.988
 4959POPC   C4A63834  19.914   0.758   7.260
 4959POPC   C1B63835  19.777   0.174   6.220
 4959POPC   C2B63836  19.790   0.023   6.670
 4959POPC   C3B63837  19.801   0.264   7.081
 4959POPC   C4B63838  19.646   0.192   7.523
 4960POPC   NC363839  25.607  21.370   5.442
 4960POPC   PO463840  24.979  21.436   5.340
 4960POPC   GL163841  25.200  21.349   5.760
 4960POPC   GL263842  25.446  21.609   5.886
 4960POPC   C1A63843  25.296  21.231   6.209
 4960POPC   D2A63844  25.084  21.307   6.611
 4960POPC   C3A63845  25.205  21.121   7.013
 4960POPC   C4A63846  25.358  21.139   7.391
 4960POPC   C1B63847  25.142  21.740   6.210
 4960POPC   C2B63848  25.135  21.828   6.664
 4960POPC   C3B63849  25.209  21.638   7.058
 4960POPC   C4B63850  24.941  21.836   7.313
 4961POPC   NC363851  38.133   8.412   5.394
 4961POPC   PO463852  38.656   7.920   5.381
 4961POPC   GL163853  38.562   8.084   5.790
 4961POPC   GL263854  38.208   7.993   5.859
 4961POPC   C1A63855  38.817   8.195   6.163
 4961POPC   D2A63856  38.827   8.477   6.509
 4961POPC   C3A63857  38.769   8.290   6.897
 4961POPC   C4A63858  38.516   8.335   7.225
 4961POPC   C1B63859  38.299   8.242   6.245
 4961POPC   C2B63860  38.290   8.326   6.698
 4961POPC   C3B63861  38.046   8.469   7.047
 4961POPC   C4B63862  37.766   8.366   7.359
 4962POPC   NC363863  19.623  44.401   5.226
 4962POPC   PO463864  20.048  44.950   5.365
 4962POPC   GL163865  19.885  44.828   5.757
 4962POPC   GL263866  19.847  44.476   5.694
 4962POPC   C1A63867  19.942  44.686   6.191
 4962POPC   D2A63868  19.993  44.332   6.465
 4962POPC   C3A63869  19.882  44.452   6.879
 4962POPC   C4A63870  19.854  44.780   7.175
 4962POPC   C1B63871  19.577  44.340   6.057
 4962POPC   C2B63872  19.465  44.341   6.504
 4962POPC   C3B63873  19.461  44.152   6.898
 4962POPC   C4B63874  19.486  44.426   7.214
 4963POPC   NC363875  22.456   4.970   5.338
 4963POPC   PO463876  21.921   5.451   5.361
 4963POPC   GL163877  22.023   5.345   5.776
 4963POPC   GL263878  22.136   4.997   5.778
 4963POPC   C1A63879  22.000   5.279   6.224
 4963POPC   D2A63880  22.222   5.215   6.616
 4963POPC   C3A63881  22.010   5.269   7.065
 4963POPC   C4A63882  22.147   5.335   7.526
 4963POPC   C1B63883  22.456   4.954   6.126
 4963POPC   C2B63884  22.500   4.735   6.536
 4963POPC   C3B63885  22.374   4.880   6.972
 4963POPC   C4B63886  22.226   4.825   7.411
 4964POPC   NC363887  23.843  31.149   5.477
 4964POPC   PO463888  24.062  31.814   5.501
 4964POPC   GL163889  23.772  31.567   5.833
 4964POPC   GL263890  23.618  31.199   5.912
 4964POPC   C1A63891  23.672  31.516   6.291
 4964POPC   D2A63892  23.656  31.171   6.566
 4964POPC   C3A63893  23.687  31.293   6.987
 4964POPC   C4A63894  23.652  31.680   7.174
 4964POPC   C1B63895  23.993  31.137   6.145
 4964POPC   C2B63896  24.135  30.984   6.556
 4964POPC   C3B63897  24.182  31.081   6.993
 4964POPC   C4B63898  23.988  31.200   7.391
 4965POPC   NC363899  22.039  31.581   5.379
 4965POPC   PO463900  22.616  31.210   5.378
 4965POPC   GL163901  22.399  31.460   5.751
 4965POPC   GL263902  22.031  31.374   5.860
 4965POPC   C1A63903  22.295  31.729   6.144
 4965POPC   D2A63904  22.400  31.850   6.588
 4965POPC   C3A63905  22.132  31.682   6.924
 4965POPC   C4A63906  21.921  31.732   7.342
 4965POPC   C1B63907  22.256  31.226   6.260
 4965POPC   C2B63908  22.261  31.224   6.740
 4965POPC   C3B63909  22.119  31.216   7.187
 4965POPC   C4B63910  22.154  30.938   7.550
 4966POPC   NC363911  30.145  12.556   5.514
 4966POPC   PO463912  29.724  13.004   5.405
 4966POPC   GL163913  29.820  12.877   5.808
 4966POPC   GL263914  30.153  12.934   5.927
 4966POPC   C1A63915  29.784  12.702   6.206
 4966POPC   D2A63916  29.626  12.839   6.578
 4966POPC   C3A63917  29.892  12.724   6.871
 4966POPC   C4A63918  29.870  12.892   7.260
 4966POPC   C1B63919  30.221  12.859   6.396
 4966POPC   C2B63920  30.441  12.815   6.763
 4966POPC   C3B63921  30.355  12.808   7.177
 4966POPC   C4B63922  30.274  13.007   7.603
 4967POPC   NC363923  38.901  23.123   5.176
 4967POPC   PO463924  38.386  23.460   5.580
 4967POPC   GL163925  38.652  23.659   5.866
 4967POPC   GL263926  38.610  23.999   5.902
 4967POPC   C1A63927  38.618  23.609   6.285
 4967POPC   D2A63928  38.225  23.694   6.571
 4967POPC   C3A63929  38.345  23.690   7.005
 4967POPC   C4A63930  38.513  23.790   7.422
 4967POPC   C1B63931  38.414  24.076   6.261
 4967POPC   C2B63932  38.652  23.976   6.632
 4967POPC   C3B63933  38.755  24.037   7.042
 4967POPC   C4B63934  38.520  24.279   7.319
 4968POPC   NC363935  26.254  20.703   5.351
 4968POPC   PO463936  25.866  20.139   5.466
 4968POPC   GL163937  26.015  20.495   5.751
 4968POPC   GL263938  25.692  20.677   5.854
 4968POPC   C1A63939  26.101  20.680   6.197
 4968POPC   D2A63940  26.103  20.857   6.634
 4968POPC   C3A63941  25.996  20.594   6.964
 4968POPC   C4A63942  25.907  20.669   7.422
 4968POPC   C1B63943  25.769  20.300   6.133
 4968POPC   C2B63944  25.983  20.244   6.517
 4968POPC   C3B63945  25.909  20.108   6.930
 4968POPC   C4B63946  25.840  20.163   7.332
 4969POPC   NC363947  28.975  25.531   5.338
 4969POPC   PO463948  29.187  24.893   5.302
 4969POPC   GL163949  29.052  25.122   5.671
 4969POPC   GL263950  28.731  25.052   5.848
 4969POPC   C1A63951  29.175  25.067   6.107
 4969POPC   D2A63952  29.106  25.048   6.551
 4969POPC   C3A63953  29.343  25.332   6.816
 4969POPC   C4A63954  29.361  25.178   7.201
 4969POPC   C1B63955  28.803  25.428   6.098
 4969POPC   C2B63956  28.951  25.544   6.536
 4969POPC   C3B63957  28.849  25.342   6.934
 4969POPC   C4B63958  28.900  24.955   7.158
 4970POPC   NC363959   5.428   6.882   5.402
 4970POPC   PO463960   4.913   6.548   5.488
 4970POPC   GL163961   5.161   6.686   5.874
 4970POPC   GL263962   5.507   6.875   5.906
 4970POPC   C1A63963   5.232   6.652   6.329
 4970POPC   D2A63964   5.184   6.435   6.725
 4970POPC   C3A63965   5.152   6.737   7.039
 4970POPC   C4A63966   5.259   6.803   7.465
 4970POPC   C1B63967   5.718   6.837   6.315
 4970POPC   C2B63968   5.556   6.887   6.725
 4970POPC   C3B63969   5.639   6.655   7.103
 4970POPC   C4B63970   5.773   6.723   7.537
 4971POPC   NC363971   7.994  16.243   5.417
 4971POPC   PO463972   8.536  15.893   5.346
 4971POPC   GL163973   8.222  15.921   5.742
 4971POPC   GL263974   7.976  15.664   5.781
 4971POPC   C1A63975   8.176  15.833   6.218
 4971POPC   D2A63976   8.333  15.606   6.611
 4971POPC   C3A63977   8.247  15.875   6.982
 4971POPC   C4A63978   8.060  16.288   7.107
 4971POPC   C1B63979   7.749  15.581   6.174
 4971POPC   C2B63980   7.822  15.703   6.595
 4971POPC   C3B63981   7.731  15.987   6.898
 4971POPC   C4B63982   7.712  16.014   7.382
 4972POPC   NC363983  29.154  33.890   5.317
 4972POPC   PO463984  29.135  33.239   5.177
 4972POPC   GL163985  29.167  33.474   5.651
 4972POPC   GL263986  29.110  33.866   5.797
 4972POPC   C1A63987  29.081  33.514   6.132
 4972POPC   D2A63988  29.099  33.365   6.540
 4972POPC   C3A63989  29.153  33.662   6.881
 4972POPC   C4A63990  29.240  33.835   7.252
 4972POPC   C1B63991  29.232  34.120   6.154
 4972POPC   C2B63992  29.335  34.056   6.596
 4972POPC   C3B63993  29.058  34.171   6.902
 4972POPC   C4B63994  29.043  34.367   7.237
 4973POPC   NC363995   4.715   6.987   5.423
 4973POPC   PO463996   3.997   7.039   5.490
 4973POPC   GL163997   4.242   6.780   5.768
 4973POPC   GL263998   4.423   6.507   5.646
 4973POPC   C1A63999   4.186   6.472   6.109
 4973POPC   D2A64000   4.208   6.445   6.564
 4973POPC   C3A64001   4.153   6.554   6.980
 4973POPC   C4A64002   4.295   6.904   7.219
 4973POPC   C1B64003   4.647   6.667   6.072
 4973POPC   C2B64004   4.721   6.570   6.530
 4973POPC   C3B64005   4.665   6.579   7.007
 4973POPC   C4B64006   4.843   6.522   7.423
 4974POPC   NC364007  41.816  43.624   5.395
 4974POPC   PO464008  41.465  44.223   5.408
 4974POPC   GL164009  41.738  44.025   5.724
 4974POPC   GL264010  41.503  43.761   5.806
 4974POPC   C1A64011  41.794  44.135   6.160
 4974POPC   D2A64012  41.541  44.271   6.540
 4974POPC   C3A64013  41.585  44.077   6.954
 4974POPC   C4A64014  41.824  44.112   7.356
 4974POPC   C1B64015  41.549  43.684   6.261
 4974POPC   C2B64016  41.631  43.460   6.669
 4974POPC   C3B64017  41.716  43.591   7.119
 4974POPC   C4B64018  41.403  43.780   7.386
 4975POPC   NC364019  37.340  16.674   5.429
 4975POPC   PO464020  37.977  16.290   5.448
 4975POPC   GL164021  37.755  16.500   5.808
 4975POPC   GL264022  37.670  16.870   5.781
 4975POPC   C1A64023  37.846  16.516   6.268
 4975POPC   D2A64024  38.040  16.783   6.609
 4975POPC   C3A64025  38.126  16.568   6.997
 4975POPC   C4A64026  37.825  16.470   7.327
 4975POPC   C1B64027  37.419  16.774   6.156
 4975POPC   C2B64028  37.362  16.668   6.606
 4975POPC   C3B64029  37.603  16.798   6.974
 4975POPC   C4B64030  37.557  16.868   7.418
 4976POPC   NC364031  36.428   5.308   5.425
 4976POPC   PO464032  36.008   4.810   5.246
 4976POPC   GL164033  35.993   4.905   5.750
 4976POPC   GL264034  36.119   5.245   5.797
 4976POPC   C1A64035  36.242   4.978   6.197
 4976POPC   D2A64036  36.428   4.807   6.604
 4976POPC   C3A64037  36.321   5.045   6.950
 4976POPC   C4A64038  36.424   5.373   7.149
 4976POPC   C1B64039  36.229   5.528   6.125
 4976POPC   C2B64040  36.040   5.426   6.506
 4976POPC   C3B64041  35.874   5.273   6.862
 4976POPC   C4B64042  35.911   5.220   7.272
 4977POPC   NC364043  33.368  21.175   5.419
 4977POPC   PO464044  33.045  21.733   5.211
 4977POPC   GL164045  33.099  21.562   5.676
 4977POPC   GL264046  33.154  21.784   5.945
 4977POPC   C1A64047  33.098  21.310   6.119
 4977POPC   D2A64048  33.350  21.033   6.386
 4977POPC   C3A64049  33.261  21.083   6.854
 4977POPC   C4A64050  33.017  21.110   7.253
 4977POPC   C1B64051  32.771  21.687   6.181
 4977POPC   C2B64052  32.872  21.588   6.612
 4977POPC   C3B64053  32.740  21.711   7.021
 4977POPC   C4B64054  32.971  21.636   7.407
 4978POPC   NC364055  41.817  13.050   5.399
 4978POPC   PO464056  42.480  13.068   5.509
 4978POPC   GL164057  42.151  12.907   5.797
 4978POPC   GL264058  42.137  12.546   5.768
 4978POPC   C1A64059  42.016  12.834   6.228
 4978POPC   D2A64060  42.261  12.848   6.604
 4978POPC   C3A64061  42.273  12.607   6.963
 4978POPC   C4A64062  42.276  12.800   7.346
 4978POPC   C1B64063  42.421  12.530   6.145
 4978POPC   C2B64064  42.648  12.509   6.550
 4978POPC   C3B64065  42.770  12.617   6.958
 4978POPC   C4B64066  42.658  12.470   7.349
 4979POPC   NC364067   7.812  27.745   5.438
 4979POPC   PO464068   8.379  27.425   5.258
 4979POPC   GL164069   8.307  27.744   5.610
 4979POPC   GL264070   8.143  27.543   5.854
 4979POPC   C1A64071   8.516  27.878   6.029
 4979POPC   D2A64072   8.610  27.757   6.473
 4979POPC   C3A64073   8.292  27.771   6.803
 4979POPC   C4A64074   8.145  27.667   7.214
 4979POPC   C1B64075   8.435  27.361   6.198
 4979POPC   C2B64076   8.502  27.290   6.656
 4979POPC   C3B64077   8.381  27.226   7.085
 4979POPC   C4B64078   8.065  27.223   7.451
 4980POPC   NC364079  22.773  31.653   5.418
 4980POPC   PO464080  23.400  31.395   5.485
 4980POPC   GL164081  23.016  31.371   5.770
 4980POPC   GL264082  23.140  31.199   6.058
 4980POPC   C1A64083  22.745  31.490   6.145
 4980POPC   D2A64084  22.892  31.642   6.571
 4980POPC   C3A64085  22.657  31.493   6.935
 4980POPC   C4A64086  22.446  31.593   7.314
 4980POPC   C1B64087  23.221  31.697   6.101
 4980POPC   C2B64088  23.377  31.955   6.453
 4980POPC   C3B64089  23.262  31.862   6.894
 4980POPC   C4B64090  23.160  31.467   7.138
 4981POPC   NC364091   3.907  22.603   5.592
 4981POPC   PO464092   3.671  23.207   5.353
 4981POPC   GL164093   3.675  23.025   5.789
 4981POPC   GL264094   3.455  22.733   5.804
 4981POPC   C1A64095   3.705  22.837   6.218
 4981POPC   D2A64096   3.462  22.831   6.573
 4981POPC   C3A64097   3.699  22.893   6.956
 4981POPC   C4A64098   3.578  22.893   7.377
 4981POPC   C1B64099   3.288  22.511   6.202
 4981POPC   C2B64100   3.365  22.341   6.622
 4981POPC   C3B64101   3.297  22.596   6.999
 4981POPC   C4B64102   3.191  22.584   7.425
 4982POPC   NC364103  17.383  44.542   5.616
 4982POPC   PO464104  17.204   0.162   5.395
 4982POPC   GL164105  17.406   0.030   5.808
 4982POPC   GL264106  17.748  44.909   5.750
 4982POPC   C1A64107  17.430  44.750   6.214
 4982POPC   D2A64108  17.404  44.496   6.601
 4982POPC   C3A64109  17.280  44.739   6.936
 4982POPC   C4A64110  17.486  44.767   7.313
 4982POPC   C1B64111  17.994  44.719   6.077
 4982POPC   C2B64112  17.864  44.707   6.502
 4982POPC   C3B64113  17.831  44.822   6.906
 4982POPC   C4B64114  18.001  44.726   7.276
 4983POPC   NC364115   0.350   6.121   5.262
 4983POPC   PO464116   0.819   5.690   5.372
 4983POPC   GL164117   0.549   5.944   5.751
 4983POPC   GL264118   0.159   6.014   5.764
 4983POPC   C1A64119   0.392   6.007   6.227
 4983POPC   D2A64120   0.431   5.787   6.646
 4983POPC   C3A64121   0.446   5.967   7.068
 4983POPC   C4A64122   0.581   5.619   7.309
 4983POPC   C1B64123   0.006   5.695   6.109
 4983POPC   C2B64124  44.933   5.808   6.568
 4983POPC   C3B64125   0.011   5.691   7.000
 4983POPC   C4B64126  44.934   5.579   7.436
 4984POPC   NC364127   6.961  35.216   5.331
 4984POPC   PO464128   6.508  35.638   5.322
 4984POPC   GL164129   6.763  35.519   5.722
 4984POPC   GL264130   6.437  35.538   5.890
 4984POPC   C1A64131   6.797  35.260   6.154
 4984POPC   D2A64132   6.513  35.176   6.591
 4984POPC   C3A64133   6.543  35.200   7.103
 4984POPC   C4A64134   6.677  35.206   7.567
 4984POPC   C1B64135   6.589  35.703   6.276
 4984POPC   C2B64136   6.715  35.638   6.680
 4984POPC   C3B64137   6.584  35.707   7.058
 4984POPC   C4B64138   6.633  35.704   7.471
 4985POPC   NC364139  34.759  40.741   5.486
 4985POPC   PO464140  34.026  40.735   5.401
 4985POPC   GL164141  34.194  40.722   5.814
 4985POPC   GL264142  34.388  40.992   5.722
 4985POPC   C1A64143  34.302  40.592   6.268
 4985POPC   D2A64144  34.558  40.492   6.676
 4985POPC   C3A64145  34.510  40.620   7.148
 4985POPC   C4A64146  34.607  40.675   7.627
 4985POPC   C1B64147  34.593  41.007   6.137
 4985POPC   C2B64148  34.469  40.990   6.573
 4985POPC   C3B64149  34.371  41.215   6.943
 4985POPC   C4B64150  34.431  41.108   7.387
 4986POPC   NC364151  37.854  32.499   5.087
 4986POPC   PO464152  37.320  32.177   5.404
 4986POPC   GL164153  37.442  32.409   5.745
 4986POPC   GL264154  37.826  32.454   5.803
 4986POPC   C1A64155  37.464  32.404   6.183
 4986POPC   D2A64156  37.755  32.319   6.506
 4986POPC   C3A64157  37.695  32.006   6.822
 4986POPC   C4A64158  37.821  32.210   7.191
 4986POPC   C1B64159  37.957  32.703   6.201
 4986POPC   C2B64160  38.061  32.709   6.685
 4986POPC   C3B64161  37.881  32.725   7.142
 4986POPC   C4B64162  37.705  32.563   7.560
 4987POPC   NC364163  21.955  44.379   5.354
 4987POPC   PO464164  22.544  44.574   5.501
 4987POPC   GL164165  22.238  44.701   5.805
 4987POPC   GL264166  21.924  44.524   5.834
 4987POPC   C1A64167  22.137  44.791   6.231
 4987POPC   D2A64168  22.325  44.710   6.628
 4987POPC   C3A64169  22.127  44.749   7.046
 4987POPC   C4A64170  22.090  44.456   7.408
 4987POPC   C1B64171  21.890  44.340   6.234
 4987POPC   C2B64172  21.867  44.518   6.623
 4987POPC   C3B64173  21.774  44.378   7.012
 4987POPC   C4B64174  21.645  44.679   7.310
 4988POPC   NC364175  24.291  29.813   5.146
 4988POPC   PO464176  24.677  30.313   5.523
 4988POPC   GL164177  24.496  30.043   5.791
 4988POPC   GL264178  24.645  29.739   5.641
 4988POPC   C1A64179  24.391  30.056   6.245
 4988POPC   D2A64180  24.497  30.021   6.689
 4988POPC   C3A64181  24.307  30.079   7.088
 4988POPC   C4A64182  24.631  30.368   7.132
 4988POPC   C1B64183  24.551  29.580   6.035
 4988POPC   C2B64184  24.426  29.557   6.447
 4988POPC   C3B64185  24.293  29.587   6.868
 4988POPC   C4B64186  24.676  29.702   7.073
 4989POPC   NC364187   7.718  16.972   5.556
 4989POPC   PO464188   7.551  16.344   5.492
 4989POPC   GL164189   7.440  16.553   5.846
 4989POPC   GL264190   7.066  16.537   5.836
 4989POPC   C1A64191   7.578  16.776   6.221
 4989POPC   D2A64192   7.443  17.130   6.484
 4989POPC   C3A64193   7.522  16.982   6.888
 4989POPC   C4A64194   7.382  16.854   7.271
 4989POPC   C1B64195   7.146  16.429   6.256
 4989POPC   C2B64196   7.262  16.627   6.635
 4989POPC   C3B64197   7.072  16.502   7.021
 4989POPC   C4B64198   7.031  16.385   7.437
 4990POPC   NC364199  17.666   0.273   5.379
 4990POPC   PO464200  17.486   0.886   5.377
 4990POPC   GL164201  17.460   0.562   5.743
 4990POPC   GL264202  17.769   0.490   5.880
 4990POPC   C1A64203  17.331   0.539   6.176
 4990POPC   D2A64204  17.517   0.597   6.594
 4990POPC   C3A64205  17.315   0.659   6.979
 4990POPC   C4A64206  17.041   0.329   7.128
 4990POPC   C1B64207  17.695   0.176   6.216
 4990POPC   C2B64208  17.476   0.081   6.605
 4990POPC   C3B64209  17.524   0.200   7.046
 4990POPC   C4B64210  17.834   0.188   7.371
 4991POPC   NC364211  34.827   6.457   5.404
 4991POPC   PO464212  34.619   7.085   5.140
 4991POPC   GL164213  34.570   6.841   5.620
 4991POPC   GL264214  34.394   6.505   5.685
 4991POPC   C1A64215  34.709   6.640   6.072
 4991POPC   D2A64216  34.827   6.902   6.461
 4991POPC   C3A64217  34.600   6.980   6.847
 4991POPC   C4A64218  34.631   6.785   7.234
 4991POPC   C1B64219  34.365   6.248   6.061
 4991POPC   C2B64220  34.262   6.365   6.475
 4991POPC   C3B64221  34.469   6.476   6.844
 4991POPC   C4B64222  34.425   6.322   7.245
 4992POPC   NC364223  25.469  29.262   5.312
 4992POPC   PO464224  25.099  28.853   5.468
 4992POPC   GL164225  25.413  28.928   5.750
 4992POPC   GL264226  25.345  29.282   5.816
 4992POPC   C1A64227  25.346  28.925   6.184
 4992POPC   D2A64228  25.410  29.200   6.513
 4992POPC   C3A64229  25.387  28.992   6.914
 4992POPC   C4A64230  25.354  28.825   7.333
 4992POPC   C1B64231  25.517  29.609   6.077
 4992POPC   C2B64232  25.707  29.629   6.466
 4992POPC   C3B64233  25.614  29.475   6.897
 4992POPC   C4B64234  25.587  29.529   7.322
 4993POPC   NC364235  29.568   6.762   5.474
 4993POPC   PO464236  28.909   6.812   5.511
 4993POPC   GL164237  29.192   6.701   5.815
 4993POPC   GL264238  29.257   7.054   5.876
 4993POPC   C1A64239  29.234   6.475   6.214
 4993POPC   D2A64240  29.409   6.503   6.622
 4993POPC   C3A64241  29.159   6.485   6.996
 4993POPC   C4A64242  29.543   6.558   7.224
 4993POPC   C1B64243  28.925   6.891   6.191
 4993POPC   C2B64244  29.079   6.894   6.590
 4993POPC   C3B64245  29.355   6.952   6.906
 4993POPC   C4B64246  29.222   6.939   7.329
 4994POPC   NC364247  42.175  27.238   5.001
 4994POPC   PO464248  42.016  26.764   5.504
 4994POPC   GL164249  42.208  26.706   5.854
 4994POPC   GL264250  42.400  27.012   5.819
 4994POPC   C1A64251  42.128  26.830   6.282
 4994POPC   D2A64252  42.249  26.953   6.704
 4994POPC   C3A64253  41.994  26.871   7.022
 4994POPC   C4A64254  42.053  26.465   7.153
 4994POPC   C1B64255  42.704  26.751   6.031
 4994POPC   C2B64256  42.801  26.565   6.436
 4994POPC   C3B64257  42.751  26.727   6.835
 4994POPC   C4B64258  42.477  26.779   7.163
 4995POPC   NC364259   9.578  13.031   5.109
 4995POPC   PO464260   9.890  12.647   5.568
 4995POPC   GL164261   9.705  12.836   5.893
 4995POPC   GL264262   9.392  13.032   5.824
 4995POPC   C1A64263   9.763  12.858   6.288
 4995POPC   D2A64264   9.406  12.865   6.507
 4995POPC   C3A64265   9.524  12.798   6.896
 4995POPC   C4A64266   9.751  12.587   7.216
 4995POPC   C1B64267   9.447  13.285   6.188
 4995POPC   C2B64268   9.686  13.297   6.565
 4995POPC   C3B64269   9.517  13.312   6.955
 4995POPC   C4B64270   9.607  13.143   7.339
 4996POPC   NC364271  25.399  17.823   5.562
 4996POPC   PO464272  25.108  17.166   5.596
 4996POPC   GL164273  25.101  17.483   5.856
 4996POPC   GL264274  25.433  17.409   5.914
 4996POPC   C1A64275  25.176  17.529   6.314
 4996POPC   D2A64276  25.330  17.412   6.729
 4996POPC   C3A64277  25.332  17.670   7.098
 4996POPC   C4A64278  25.040  17.698   7.479
 4996POPC   C1B64279  25.687  17.221   6.243
 4996POPC   C2B64280  25.770  17.090   6.675
 4996POPC   C3B64281  25.577  17.118   7.083
 4996POPC   C4B64282  25.350  17.282   7.435
 4997POPC   NC364283  10.768  36.352   5.227
 4997POPC   PO464284  10.277  36.679   5.523
 4997POPC   GL164285  10.606  36.660   5.817
 4997POPC   GL264286  10.624  37.026   5.820
 4997POPC   C1A64287  10.631  36.676   6.284
 4997POPC   D2A64288  10.339  36.864   6.613
 4997POPC   C3A64289  10.407  36.716   7.043
 4997POPC   C4A64290  10.512  36.815   7.500
 4997POPC   C1B64291  10.588  37.200   6.260
 4997POPC   C2B64292  10.849  37.040   6.617
 4997POPC   C3B64293  10.935  36.821   7.010
 4997POPC   C4B64294  10.921  37.095   7.370
 4998POPC   NC364295  23.540  31.898   5.459
 4998POPC   PO464296  23.810  32.600   5.452
 4998POPC   GL164297  23.562  32.437   5.826
 4998POPC   GL264298  23.575  32.055   5.936
 4998POPC   C1A64299  23.656  32.409   6.278
 4998POPC   D2A64300  24.015  32.486   6.522
 4998POPC   C3A64301  23.820  32.520   6.933
 4998POPC   C4A64302  23.526  32.230   7.147
 4998POPC   C1B64303  23.882  31.967   6.282
 4998POPC   C2B64304  23.827  31.997   6.761
 4998POPC   C3B64305  23.985  32.037   7.202
 4998POPC   C4B64306  23.751  31.955   7.618
 4999POPC   NC364307  39.271  20.571   5.298
 4999POPC   PO464308  38.868  20.382   5.831
 4999POPC   GL164309  39.159  20.544   6.018
 4999POPC   GL264310  39.244  20.784   5.804
 4999POPC   C1A64311  39.075  20.583   6.419
 4999POPC   D2A64312  39.249  20.346   6.674
 4999POPC   C3A64313  39.200  20.548   7.033
 4999POPC   C4A64314  38.970  20.504   7.428
 4999POPC   C1B64315  39.235  21.029   6.191
 4999POPC   C2B64316  39.449  20.886   6.570
 4999POPC   C3B64317  39.548  20.960   6.985
 4999POPC   C4B64318  39.357  20.836   7.398
 5000POPC   NC364319  27.129  29.281   5.392
 5000POPC   PO464320  26.520  28.856   5.341
 5000POPC   GL164321  26.725  28.983   5.715
 5000POPC   GL264322  26.674  29.321   5.665
 5000POPC   C1A64323  26.859  28.830   6.165
 5000POPC   D2A64324  26.868  29.006   6.628
 5000POPC   C3A64325  26.880  28.935   7.088
 5000POPC   C4A64326  26.609  28.889   7.408
 5000POPC   C1B64327  26.998  29.329   6.036
 5000POPC   C2B64328  27.094  29.431   6.480
 5000POPC   C3B64329  26.969  29.519   6.919
 5000POPC   C4B64330  26.783  29.388   7.350
 5001POPC   NC364331  12.521  16.034   5.377
 5001POPC   PO464332  12.001  15.702   5.452
 5001POPC   GL164333  11.865  15.892   5.810
 5001POPC   GL264334  12.209  16.035   5.796
 5001POPC   C1A64335  12.005  15.862   6.247
 5001POPC   D2A64336  12.040  15.904   6.672
 5001POPC   C3A64337  12.327  15.636   6.853
 5001POPC   C4A64338  12.082  15.696   7.197
 5001POPC   C1B64339  12.414  16.175   6.140
 5001POPC   C2B64340  12.519  16.105   6.546
 5001POPC   C3B64341  12.375  16.314   6.881
 5001POPC   C4B64342  12.118  16.201   7.211
 5002POPC   NC364343  40.750  32.645   5.110
 5002POPC   PO464344  40.772  33.235   5.404
 5002POPC   GL164345  40.820  32.968   5.803
 5002POPC   GL264346  40.527  32.731   5.905
 5002POPC   C1A64347  40.973  33.019   6.261
 5002POPC   D2A64348  40.771  33.121   6.687
 5002POPC   C3A64349  40.972  33.387   7.005
 5002POPC   C4A64350  41.064  33.359   7.449
 5002POPC   C1B64351  40.598  32.661   6.371
 5002POPC   C2B64352  40.988  32.646   6.654
 5002POPC   C3B64353  40.878  32.793   7.087
 5002POPC   C4B64354  40.473  32.844   7.305
 5003POPC   NC364355  39.161   6.196   5.530
 5003POPC   PO464356  39.387   5.478   5.445
 5003POPC   GL164357  39.224   5.745   5.799
 5003POPC   GL264358  39.451   6.036   5.939
 5003POPC   C1A64359  39.017   5.937   6.175
 5003POPC   D2A64360  39.245   6.086   6.556
 5003POPC   C3A64361  39.026   6.192   6.934
 5003POPC   C4A64362  39.179   5.944   7.200
 5003POPC   C1B64363  39.475   5.699   6.281
 5003POPC   C2B64364  39.580   5.540   6.707
 5003POPC   C3B64365  39.544   5.572   7.169
 5003POPC   C4B64366  39.536   5.524   7.654
 5004POPC   NC364367  35.495   8.148   5.353
 5004POPC   PO464368  35.118   8.600   5.613
 5004POPC   GL164369  35.446   8.396   5.790
 5004POPC   GL264370  35.352   8.005   5.843
 5004POPC   C1A64371  35.493   8.329   6.200
 5004POPC   D2A64372  35.583   8.074   6.501
 5004POPC   C3A64373  35.415   8.193   6.866
 5004POPC   C4A64374  35.537   8.466   7.170
 5004POPC   C1B64375  35.121   7.935   6.255
 5004POPC   C2B64376  34.971   7.967   6.707
 5004POPC   C3B64377  34.963   7.747   7.120
 5004POPC   C4B64378  35.039   7.723   7.612
 5005POPC   NC364379  44.970  43.813   5.364
 5005POPC   PO464380   0.484  44.280   5.347
 5005POPC   GL164381   0.467  43.999   5.716
 5005POPC   GL264382   0.122  44.122   5.796
 5005POPC   C1A64383   0.689  43.785   6.116
 5005POPC   D2A64384   0.818  43.959   6.530
 5005POPC   C3A64385   0.871  43.826   6.968
 5005POPC   C4A64386   0.511  43.797   7.251
 5005POPC   C1B64387   0.144  43.832   6.151
 5005POPC   C2B64388  44.953  43.726   6.552
 5005POPC   C3B64389   0.121  43.891   6.932
 5005POPC   C4B64390   0.141  44.265   7.209
 5006POPC   NC364391  17.060  13.378   5.525
 5006POPC   PO464392  16.522  13.367   5.169
 5006POPC   GL164393  16.607  13.549   5.722
 5006POPC   GL264394  16.933  13.673   5.903
 5006POPC   C1A64395  16.653  13.324   6.183
 5006POPC   D2A64396  16.930  13.365   6.526
 5006POPC   C3A64397  16.731  13.314   6.920
 5006POPC   C4A64398  16.868  13.541   7.298
 5006POPC   C1B64399  16.659  13.811   6.189
 5006POPC   C2B64400  16.516  13.671   6.579
 5006POPC   C3B64401  16.650  13.840   6.958
 5006POPC   C4B64402  16.992  14.074   7.161
 5007POPC   NC364403  44.412  16.097   5.292
 5007POPC   PO464404  44.792  15.626   5.484
 5007POPC   GL164405  44.798  15.802   5.847
 5007POPC   GL264406  44.442  15.904   5.866
 5007POPC   C1A64407  44.807  15.655   6.247
 5007POPC   D2A64408  44.664  15.815   6.613
 5007POPC   C3A64409  44.703  15.633   6.980
 5007POPC   C4A64410  44.372  15.692   7.266
 5007POPC   C1B64411  44.649  16.156   6.222
 5007POPC   C2B64412  44.528  16.329   6.650
 5007POPC   C3B64413  44.672  16.140   7.076
 5007POPC   C4B64414  44.920  16.270   7.464
 5008POPC   NC364415  36.313  21.570   5.395
 5008POPC   PO464416  35.697  21.231   5.576
 5008POPC   GL164417  36.058  21.374   5.779
 5008POPC   GL264418  36.062  21.737   5.804
 5008POPC   C1A64419  36.286  21.383   6.144
 5008POPC   D2A64420  36.132  21.221   6.526
 5008POPC   C3A64421  36.152  21.482   6.860
 5008POPC   C4A64422  36.092  21.340   7.287
 5008POPC   C1B64423  36.407  21.894   6.056
 5008POPC   C2B64424  36.501  21.849   6.483
 5008POPC   C3B64425  36.348  21.974   6.858
 5008POPC   C4B64426  36.278  21.791   7.245
 5009POPC   NC364427  35.581   0.984   5.324
 5009POPC   PO464428  35.411   1.663   5.191
 5009POPC   GL164429  35.450   1.475   5.652
 5009POPC   GL264430  35.627   1.151   5.789
 5009POPC   C1A64431  35.325   1.418   6.113
 5009POPC   D2A64432  35.044   1.424   6.499
 5009POPC   C3A64433  35.228   1.495   6.921
 5009POPC   C4A64434  35.397   1.372   7.302
 5009POPC   C1B64435  35.798   1.086   6.201
 5009POPC   C2B64436  35.566   1.242   6.550
 5009POPC   C3B64437  35.577   1.055   6.952
 5009POPC   C4B64438  35.813   1.040   7.337
 5010POPC   NC364439  34.758  18.580   5.345
 5010POPC   PO464440  34.388  18.071   5.256
 5010POPC   GL164441  34.641  18.153   5.609
 5010POPC   GL264442  34.374  18.325   5.740
 5010POPC   C1A64443  34.783  18.273   6.032
 5010POPC   D2A64444  34.662  18.148   6.456
 5010POPC   C3A64445  34.724  18.388   6.815
 5010POPC   C4A64446  34.647  18.274   7.255
 5010POPC   C1B64447  34.265  18.251   6.147
 5010POPC   C2B64448  34.221  18.352   6.575
 5010POPC   C3B64449  34.298  18.074   6.903
 5010POPC   C4B64450  34.146  18.260   7.258
 5011POPC   NC364451  29.364   8.962   5.215
 5011POPC   PO464452  28.899   8.470   5.274
 5011POPC   GL164453  29.062   8.735   5.687
 5011POPC   GL264454  29.078   9.092   5.723
 5011POPC   C1A64455  29.306   8.800   6.133
 5011POPC   D2A64456  29.455   8.556   6.504
 5011POPC   C3A64457  29.315   8.675   6.916
 5011POPC   C4A64458  29.001   8.769   7.215
 5011POPC   C1B64459  28.991   9.187   6.144
 5011POPC   C2B64460  29.113   9.041   6.577
 5011POPC   C3B64461  29.100   9.235   7.006
 5011POPC   C4B64462  28.806   9.485   7.288
 5012POPC   NC364463  39.883  21.906   5.457
 5012POPC   PO464464  40.160  22.443   5.203
 5012POPC   GL164465  40.121  22.284   5.702
 5012POPC   GL264466  39.779  22.221   5.837
 5012POPC   C1A64467  40.118  22.308   6.195
 5012POPC   D2A64468  40.234  22.168   6.628
 5012POPC   C3A64469  40.043  22.218   7.057
 5012POPC   C4A64470  40.107  21.803   7.262
 5012POPC   C1B64471  39.682  21.986   6.234
 5012POPC   C2B64472  39.721  22.087   6.667
 5012POPC   C3B64473  39.612  21.950   7.089
 5012POPC   C4B64474  39.637  22.168   7.483
 5013POPC   NC364475  40.753   0.880   5.687
 5013POPC   PO464476  40.946   0.256   5.417
 5013POPC   GL164477  40.957   0.386   5.848
 5013POPC   GL264478  40.593   0.407   5.878
 5013POPC   C1A64479  40.856   0.478   6.319
 5013POPC   D2A64480  40.633   0.293   6.697
 5013POPC   C3A64481  40.775   0.404   7.102
 5013POPC   C4A64482  40.837   0.828   7.191
 5013POPC   C1B64483  40.379   0.201   6.247
 5013POPC   C2B64484  40.175   0.081   6.676
 5013POPC   C3B64485  40.288   0.196   7.127
 5013POPC   C4B64486  40.571   0.143   7.492
 5014POPC   NC364487  23.081   5.690   5.467
 5014POPC   PO464488  23.463   6.217   5.523
 5014POPC   GL164489  23.117   6.000   5.865
 5014POPC   GL264490  22.894   5.638   5.909
 5014POPC   C1A64491  22.974   5.873   6.318
 5014POPC   D2A64492  23.038   5.578   6.595
 5014POPC   C3A64493  22.932   5.771   6.950
 5014POPC   C4A64494  23.075   5.892   7.349
 5014POPC   C1B64495  22.567   5.496   6.169
 5014POPC   C2B64496  22.532   5.639   6.574
 5014POPC   C3B64497  22.458   5.492   6.975
 5014POPC   C4B64498  22.595   5.682   7.328
 5015POPC   NC364499  22.065  25.666   5.404
 5015POPC   PO464500  22.359  24.977   5.534
 5015POPC   GL164501  22.087  25.136   5.829
 5015POPC   GL264502  22.265  25.421   5.887
 5015POPC   C1A64503  21.944  24.995   6.279
 5015POPC   D2A64504  21.694  24.943   6.692
 5015POPC   C3A64505  21.925  25.131   7.054
 5015POPC   C4A64506  21.848  25.142   7.507
 5015POPC   C1B64507  22.440  25.163   6.255
 5015POPC   C2B64508  22.634  25.326   6.638
 5015POPC   C3B64509  22.473  25.286   7.053
 5015POPC   C4B64510  22.311  25.396   7.483
 5016POPC   NC364511  27.739  23.906   5.365
 5016POPC   PO464512  27.307  23.376   5.396
 5016POPC   GL164513  27.422  23.685   5.714
 5016POPC   GL264514  27.805  23.615   5.778
 5016POPC   C1A64515  27.506  23.738   6.153
 5016POPC   D2A64516  27.541  23.433   6.490
 5016POPC   C3A64517  27.638  23.587   6.909
 5016POPC   C4A64518  27.588  23.449   7.330
 5016POPC   C1B64519  28.027  23.872   6.090
 5016POPC   C2B64520  27.884  23.898   6.509
 5016POPC   C3B64521  28.031  23.959   6.887
 5016POPC   C4B64522  27.796  23.976   7.226
 5017POPC   NC364523   0.647  32.365   5.149
 5017POPC   PO464524   0.254  31.877   5.323
 5017POPC   GL164525   0.542  32.099   5.641
 5017POPC   GL264526   0.371  32.001   5.966
 5017POPC   C1A64527   0.740  32.330   6.018
 5017POPC   D2A64528   0.577  32.287   6.450
 5017POPC   C3A64529   0.491  32.395   6.871
 5017POPC   C4A64530   0.461  32.148   7.263
 5017POPC   C1B64531   0.112  32.316   6.235
 5017POPC   C2B64532  44.980  32.318   6.681
 5017POPC   C3B64533   0.036  32.409   7.104
 5017POPC   C4B64534  44.940  32.179   7.464
 5018POPC   NC364535  10.616  30.933   5.464
 5018POPC   PO464536  10.375  30.320   5.467
 5018POPC   GL164537  10.569  30.533   5.848
 5018POPC   GL264538  10.390  30.882   5.920
 5018POPC   C1A64539  10.542  30.586   6.327
 5018POPC   D2A64540  10.377  30.970   6.529
 5018POPC   C3A64541  10.352  30.934   6.973
 5018POPC   C4A64542  10.615  30.615   7.164
 5018POPC   C1B64543  10.790  30.966   6.118
 5018POPC   C2B64544  10.931  30.879   6.532
 5018POPC   C3B64545  11.094  31.125   6.838
 5018POPC   C4B64546  10.829  31.094   7.197
 5019POPC   NC364547  27.402   4.694   5.553
 5019POPC   PO464548  27.588   5.398   5.551
 5019POPC   GL164549  27.581   5.076   5.878
 5019POPC   GL264550  27.786   4.785   5.918
 5019POPC   C1A64551  27.464   4.950   6.279
 5019POPC   D2A64552  27.237   5.138   6.606
 5019POPC   C3A64553  27.455   5.091   6.967
 5019POPC   C4A64554  27.444   5.384   7.248
 5019POPC   C1B64555  27.974   5.038   6.246
 5019POPC   C2B64556  27.742   5.312   6.556
 5019POPC   C3B64557  27.899   5.374   6.967
 5019POPC   C4B64558  28.073   4.998   7.161
 5020POPC   NC364559  23.874  22.591   5.647
 5020POPC   PO464560  23.524  23.155   5.410
 5020POPC   GL164561  23.604  23.029   5.836
 5020POPC   GL264562  23.958  23.039   5.878
 5020POPC   C1A64563  23.668  22.965   6.294
 5020POPC   D2A64564  23.678  22.733   6.651
 5020POPC   C3A64565  23.496  22.885   6.982
 5020POPC   C4A64566  23.563  22.822   7.374
 5020POPC   C1B64567  24.168  22.804   6.239
 5020POPC   C2B64568  24.169  22.857   6.692
 5020POPC   C3B64569  23.976  22.634   7.072
 5020POPC   C4B64570  24.034  22.625   7.495
 5021POPC   NC364571  33.699  37.229   5.483
 5021POPC   PO464572  33.469  36.618   5.539
 5021POPC   GL164573  33.710  36.837   5.856
 5021POPC   GL264574  33.910  36.564   5.964
 5021POPC   C1A64575  33.864  37.146   6.176
 5021POPC   D2A64576  34.009  37.323   6.581
 5021POPC   C3A64577  33.880  37.182   7.018
 5021POPC   C4A64578  33.780  36.981   7.423
 5021POPC   C1B64579  34.097  36.700   6.306
 5021POPC   C2B64580  33.895  36.831   6.648
 5021POPC   C3B64581  33.878  36.663   7.038
 5021POPC   C4B64582  33.586  36.473   7.331
 5022POPC   NC364583  17.188  35.568   5.341
 5022POPC   PO464584  17.793  35.397   5.410
 5022POPC   GL164585  17.609  35.212   5.825
 5022POPC   GL264586  17.394  35.489   5.843
 5022POPC   C1A64587  17.630  35.027   6.284
 5022POPC   D2A64588  17.321  35.028   6.638
 5022POPC   C3A64589  17.566  35.060   6.997
 5022POPC   C4A64590  17.921  35.152   7.181
 5022POPC   C1B64591  17.229  35.314   6.217
 5022POPC   C2B64592  17.209  35.560   6.593
 5022POPC   C3B64593  17.200  35.456   7.008
 5022POPC   C4B64594  17.094  35.037   7.155
 5023POPC   NC364595  11.466  31.426   5.462
 5023POPC   PO464596  10.838  31.345   5.457
 5023POPC   GL164597  11.090  31.255   5.829
 5023POPC   GL264598  11.281  31.539   5.926
 5023POPC   C1A64599  11.212  31.228   6.302
 5023POPC   D2A64600  11.183  31.609   6.616
 5023POPC   C3A64601  11.024  31.583   7.043
 5023POPC   C4A64602  11.170  31.445   7.437
 5023POPC   C1B64603  11.577  31.589   6.284
 5023POPC   C2B64604  11.591  31.307   6.638
 5023POPC   C3B64605  11.498  31.409   7.035
 5023POPC   C4B64606  11.582  31.726   7.342
 5024POPC   NC364607  32.918  13.856   5.149
 5024POPC   PO464608  32.761  14.530   5.429
 5024POPC   GL164609  32.710  14.440   5.852
 5024POPC   GL264610  32.788  14.104   5.754
 5024POPC   C1A64611  32.824  14.576   6.290
 5024POPC   D2A64612  33.105  14.591   6.673
 5024POPC   C3A64613  32.920  14.636   7.090
 5024POPC   C4A64614  32.466  14.683   7.202
 5024POPC   C1B64615  33.071  14.113   6.149
 5024POPC   C2B64616  33.044  14.088   6.603
 5024POPC   C3B64617  33.243  14.203   6.998
 5024POPC   C4B64618  33.164  14.219   7.403
 5025POPC   NC364619  16.188  31.465   4.997
 5025POPC   PO464620  15.721  31.122   5.331
 5025POPC   GL164621  15.926  31.451   5.625
 5025POPC   GL264622  15.912  31.200   5.892
 5025POPC   C1A64623  16.168  31.588   6.022
 5025POPC   D2A64624  16.336  31.232   6.278
 5025POPC   C3A64625  16.379  31.196   6.729
 5025POPC   C4A64626  16.221  31.417   7.084
 5025POPC   C1B64627  15.745  31.333   6.301
 5025POPC   C2B64628  15.745  31.257   6.768
 5025POPC   C3B64629  15.737  31.576   7.098
 5025POPC   C4B64630  15.416  31.827   7.242
 5026POPC   NC364631  19.757   5.757   5.395
 5026POPC   PO464632  20.394   5.844   5.236
 5026POPC   GL164633  20.131   5.877   5.734
 5026POPC   GL264634  19.733   5.825   5.880
 5026POPC   C1A64635  20.055   5.883   6.238
 5026POPC   D2A64636  20.104   5.894   6.701
 5026POPC   C3A64637  19.837   5.877   7.036
 5026POPC   C4A64638  20.078   5.829   7.386
 5026POPC   C1B64639  19.529   5.487   6.129
 5026POPC   C2B64640  19.356   5.412   6.547
 5026POPC   C3B64641  19.482   5.497   6.983
 5026POPC   C4B64642  19.470   5.705   7.409
 5027POPC   NC364643  34.783  43.402   5.417
 5027POPC   PO464644  34.994  42.729   5.324
 5027POPC   GL164645  34.802  42.900   5.717
 5027POPC   GL264646  34.433  42.875   5.771
 5027POPC   C1A64647  34.770  43.153   6.120
 5027POPC   D2A64648  34.819  43.380   6.524
 5027POPC   C3A64649  34.773  43.131   6.906
 5027POPC   C4A64650  34.611  43.031   7.307
 5027POPC   C1B64651  34.236  42.977   6.206
 5027POPC   C2B64652  34.327  43.203   6.570
 5027POPC   C3B64653  34.239  43.050   6.965
 5027POPC   C4B64654  34.110  43.183   7.370
 5028POPC   NC364655  33.188  35.521   5.435
 5028POPC   PO464656  32.738  35.142   5.205
 5028POPC   GL164657  32.786  35.219   5.665
 5028POPC   GL264658  33.053  35.347   5.885
 5028POPC   C1A64659  32.629  35.173   6.101
 5028POPC   D2A64660  32.735  35.073   6.535
 5028POPC   C3A64661  33.052  35.280   6.804
 5028POPC   C4A64662  32.871  35.286   7.216
 5028POPC   C1B64663  33.152  35.502   6.302
 5028POPC   C2B64664  33.118  35.795   6.667
 5028POPC   C3B64665  33.039  35.741   7.105
 5028POPC   C4B64666  33.187  35.555   7.513
 5029POPC   NC364667  29.038  27.387   5.710
 5029POPC   PO464668  29.331  26.867   5.342
 5029POPC   GL164669  29.240  26.811   5.768
 5029POPC   GL264670  28.958  26.600   5.865
 5029POPC   C1A64671  29.228  26.890   6.198
 5029POPC   D2A64672  28.975  26.901   6.575
 5029POPC   C3A64673  29.207  27.102   6.908
 5029POPC   C4A64674  29.397  26.905   7.239
 5029POPC   C1B64675  28.945  26.425   6.295
 5029POPC   C2B64676  28.846  26.421   6.741
 5029POPC   C3B64677  28.924  26.683   7.117
 5029POPC   C4B64678  28.800  26.517   7.496
 5030POPC   NC364679   3.928  25.467   5.469
 5030POPC   PO464680   3.338  25.091   5.358
 5030POPC   GL164681   3.410  25.162   5.766
 5030POPC   GL264682   3.369  25.519   5.710
 5030POPC   C1A64683   3.498  25.164   6.223
 5030POPC   D2A64684   3.670  25.348   6.631
 5030POPC   C3A64685   3.756  25.178   7.066
 5030POPC   C4A64686   3.947  25.233   7.515
 5030POPC   C1B64687   3.306  25.638   6.140
 5030POPC   C2B64688   3.182  25.490   6.558
 5030POPC   C3B64689   3.380  25.606   6.960
 5030POPC   C4B64690   3.585  25.560   7.369
 5031POPC   NC364691  20.489  44.901   5.258
 5031POPC   PO464692  20.768  44.258   5.414
 5031POPC   GL164693  20.707  44.551   5.708
 5031POPC   GL264694  20.355  44.626   5.664
 5031POPC   C1A64695  20.889  44.587   6.131
 5031POPC   D2A64696  20.919  44.358   6.530
 5031POPC   C3A64697  20.768  44.562   6.912
 5031POPC   C4A64698  20.829  44.701   7.343
 5031POPC   C1B64699  20.430  44.795   6.076
 5031POPC   C2B64700  20.456  44.640   6.472
 5031POPC   C3B64701  20.270  44.798   6.828
 5031POPC   C4B64702  20.339  44.620   7.211
 5032POPC   NC364703  37.375  40.229   5.512
 5032POPC   PO464704  38.008  39.834   5.559
 5032POPC   GL164705  37.853  40.064   5.904
 5032POPC   GL264706  37.482  39.973   5.927
 5032POPC   C1A64707  37.746  40.099   6.347
 5032POPC   D2A64708  37.511  40.275   6.705
 5032POPC   C3A64709  37.634  40.186   7.096
 5032POPC   C4A64710  37.972  39.972   7.246
 5032POPC   C1B64711  37.428  39.676   6.282
 5032POPC   C2B64712  37.610  39.726   6.693
 5032POPC   C3B64713  37.454  39.696   7.114
 5032POPC   C4B64714  37.254  39.635   7.515
 5033POPC   NC364715  28.066  21.546   5.717
 5033POPC   PO464716  28.478  21.190   5.397
 5033POPC   GL164717  28.414  21.201   5.820
 5033POPC   GL264718  28.084  21.022   5.803
 5033POPC   C1A64719  28.453  21.437   6.228
 5033POPC   D2A64720  28.587  21.540   6.627
 5033POPC   C3A64721  28.353  21.535   7.035
 5033POPC   C4A64722  28.654  21.476   7.372
 5033POPC   C1B64723  28.167  21.022   6.241
 5033POPC   C2B64724  28.178  21.209   6.635
 5033POPC   C3B64725  28.109  21.028   7.013
 5033POPC   C4B64726  28.086  21.087   7.456
 5034POPC   NC364727  29.599   8.079   5.621
 5034POPC   PO464728  30.189   8.063   5.379
 5034POPC   GL164729  30.097   8.149   5.819
 5034POPC   GL264730  29.853   8.425   5.895
 5034POPC   C1A64731  30.177   8.280   6.251
 5034POPC   D2A64732  29.959   8.436   6.637
 5034POPC   C3A64733  30.161   8.299   7.031
 5034POPC   C4A64734  30.371   7.949   7.301
 5034POPC   C1B64735  29.681   8.174   6.250
 5034POPC   C2B64736  29.569   7.840   6.519
 5034POPC   C3B64737  29.445   7.868   6.944
 5034POPC   C4B64738  29.716   8.017   7.254
 5035POPC   NC364739  32.636  23.568   5.538
 5035POPC   PO464740  32.027  23.455   5.258
 5035POPC   GL164741  32.026  23.700   5.656
 5035POPC   GL264742  32.066  24.074   5.639
 5035POPC   C1A64743  32.206  23.594   6.079
 5035POPC   D2A64744  32.166  23.374   6.474
 5035POPC   C3A64745  32.312  23.543   6.846
 5035POPC   C4A64746  32.403  23.751   7.241
 5035POPC   C1B64747  31.991  24.050   6.104
 5035POPC   C2B64748  32.164  23.941   6.546
 5035POPC   C3B64749  32.031  24.003   7.017
 5035POPC   C4B64750  32.051  24.007   7.516
 5036POPC   NC364751  15.566  25.311   5.664
 5036POPC   PO464752  15.072  25.207   5.173
 5036POPC   GL164753  15.126  24.987   5.614
 5036POPC   GL264754  15.074  25.299   5.784
 5036POPC   C1A64755  15.151  24.946   6.126
 5036POPC   D2A64756  15.126  25.196   6.538
 5036POPC   C3A64757  15.365  25.151   6.928
 5036POPC   C4A64758  15.096  25.212   7.288
 5036POPC   C1B64759  15.251  25.531   6.180
 5036POPC   C2B64760  15.393  25.711   6.590
 5036POPC   C3B64761  15.539  25.629   7.044
 5036POPC   C4B64762  15.426  25.530   7.499
 5037POPC   NC364763  18.538  34.658   5.447
 5037POPC   PO464764  17.848  34.428   5.550
 5037POPC   GL164765  18.203  34.455   5.796
 5037POPC   GL264766  18.162  34.784   5.803
 5037POPC   C1A64767  18.443  34.394   6.184
 5037POPC   D2A64768  18.260  34.340   6.594
 5037POPC   C3A64769  18.461  34.281   6.981
 5037POPC   C4A64770  18.304  34.491   7.298
 5037POPC   C1B64771  18.400  34.916   6.140
 5037POPC   C2B64772  18.500  34.781   6.557
 5037POPC   C3B64773  18.284  34.886   6.941
 5037POPC   C4B64774  18.362  34.999   7.376
 5038POPC   NC364775  29.800  10.763   5.536
 5038POPC   PO464776  29.727  11.405   5.475
 5038POPC   GL164777  29.926  11.340   5.847
 5038POPC   GL264778  30.207  11.533   5.864
 5038POPC   C1A64779  29.810  11.267   6.268
 5038POPC   D2A64780  29.692  11.519   6.623
 5038POPC   C3A64781  29.661  11.264   7.015
 5038POPC   C4A64782  29.789  11.352   7.452
 5038POPC   C1B64783  30.297  11.451   6.267
 5038POPC   C2B64784  30.169  11.340   6.653
 5038POPC   C3B64785  30.177  11.210   7.047
 5038POPC   C4B64786  30.369  11.515   7.246
 5039POPC   NC364787  21.731   5.010   5.373
 5039POPC   PO464788  21.150   5.371   5.647
 5039POPC   GL164789  21.520   5.222   5.841
 5039POPC   GL264790  21.639   4.878   5.850
 5039POPC   C1A64791  21.502   5.120   6.292
 5039POPC   D2A64792  21.261   5.167   6.679
 5039POPC   C3A64793  21.425   5.193   7.076
 5039POPC   C4A64794  21.153   5.481   7.259
 5039POPC   C1B64795  21.569   4.625   6.215
 5039POPC   C2B64796  21.684   4.605   6.653
 5039POPC   C3B64797  21.578   4.642   7.104
 5039POPC   C4B64798  21.395   4.647   7.545
 5040POPC   NC364799  12.091  23.309   5.491
 5040POPC   PO464800  12.371  22.653   5.304
 5040POPC   GL164801  12.199  22.803   5.690
 5040POPC   GL264802  12.403  23.092   5.809
 5040POPC   C1A64803  12.032  22.642   6.099
 5040POPC   D2A64804  12.168  22.837   6.490
 5040POPC   C3A64805  11.987  22.931   6.891
 5040POPC   C4A64806  11.797  22.774   7.250
 5040POPC   C1B64807  12.457  23.212   6.244
 5040POPC   C2B64808  12.274  23.326   6.629
 5040POPC   C3B64809  12.453  23.240   7.012
 5040POPC   C4B64810  12.305  22.931   7.279
 5041POPC   NC364811   5.072  10.180   5.340
 5041POPC   PO464812   5.372   9.580   5.500
 5041POPC   GL164813   5.129   9.884   5.771
 5041POPC   GL264814   4.742   9.926   5.693
 5041POPC   C1A64815   5.237   9.821   6.206
 5041POPC   D2A64816   5.441   9.566   6.553
 5041POPC   C3A64817   5.424   9.722   6.992
 5041POPC   C4A64818   5.241   9.549   7.402
 5041POPC   C1B64819   4.719   9.654   6.086
 5041POPC   C2B64820   4.878   9.634   6.516
 5041POPC   C3B64821   4.923   9.664   6.951
 5041POPC   C4B64822   5.026   9.990   7.259
 5042POPC   NC364823  10.315   1.134   5.465
 5042POPC   PO464824  10.717   1.637   5.274
 5042POPC   GL164825  10.595   1.579   5.715
 5042POPC   GL264826  10.642   1.265   5.842
 5042POPC   C1A64827  10.585   1.612   6.191
 5042POPC   D2A64828  10.320   1.411   6.497
 5042POPC   C3A64829  10.541   1.187   6.774
 5042POPC   C4A64830  10.484   1.270   7.179
 5042POPC   C1B64831  10.335   1.076   6.117
 5042POPC   C2B64832  10.197   0.891   6.505
 5042POPC   C3B64833  10.063   1.039   6.906
 5042POPC   C4B64834  10.145   0.879   7.283
 5043POPC   NC364835  35.445  17.073   5.371
 5043POPC   PO464836  35.202  17.713   5.335
 5043POPC   GL164837  35.346  17.711   5.722
 5043POPC   GL264838  35.075  17.928   5.779
 5043POPC   C1A64839  35.350  17.588   6.170
 5043POPC   D2A64840  35.373  17.398   6.591
 5043POPC   C3A64841  35.332  17.672   6.942
 5043POPC   C4A64842  35.469  17.620   7.331
 5043POPC   C1B64843  34.863  17.775   6.136
 5043POPC   C2B64844  35.016  17.798   6.552
 5043POPC   C3B64845  34.834  17.886   6.955
 5043POPC   C4B64846  35.099  18.009   7.334
 5044POPC   NC364847  38.688  44.312   5.424
 5044POPC   PO464848  38.269  43.749   5.262
 5044POPC   GL164849  38.467  43.901   5.649
 5044POPC   GL264850  38.728  43.663   5.717
 5044POPC   C1A64851  38.488  44.119   6.088
 5044POPC   D2A64852  38.221  44.133   6.490
 5044POPC   C3A64853  38.393  44.046   6.935
 5044POPC   C4A64854  38.751  43.945   7.197
 5044POPC   C1B64855  38.437  43.618   6.080
 5044POPC   C2B64856  38.489  43.696   6.529
 5044POPC   C3B64857  38.479  43.433   6.884
 5044POPC   C4B64858  38.373  43.603   7.247
 5045POPC   NC364859  12.860  24.727   5.486
 5045POPC   PO464860  12.936  24.020   5.474
 5045POPC   GL164861  13.074  24.318   5.776
 5045POPC   GL264862  12.745  24.368   5.893
 5045POPC   C1A64863  13.103  24.519   6.200
 5045POPC   D2A64864  12.898  24.566   6.582
 5045POPC   C3A64865  13.113  24.529   6.973
 5045POPC   C4A64866  12.960  24.507   7.392
 5045POPC   C1B64867  12.431  24.307   6.245
 5045POPC   C2B64868  12.385  24.503   6.642
 5045POPC   C3B64869  12.579  24.529   7.008
 5045POPC   C4B64870  12.523  24.207   7.307
 5046POPC   NC364871  36.489   6.737   4.996
 5046POPC   PO464872  35.976   6.437   5.437
 5046POPC   GL164873  36.136   6.490   5.786
 5046POPC   GL264874  36.422   6.658   5.628
 5046POPC   C1A64875  36.004   6.714   6.147
 5046POPC   D2A64876  35.834   6.772   6.556
 5046POPC   C3A64877  36.085   6.955   6.879
 5046POPC   C4A64878  35.901   6.761   7.215
 5046POPC   C1B64879  36.512   6.659   6.079
 5046POPC   C2B64880  36.357   6.760   6.506
 5046POPC   C3B64881  36.219   6.486   6.842
 5046POPC   C4B64882  36.229   6.333   7.249
 5047POPC   NC364883  35.939   3.634   5.212
 5047POPC   PO464884  35.311   3.460   5.464
 5047POPC   GL164885  35.414   3.234   5.787
 5047POPC   GL264886  35.179   3.414   5.975
 5047POPC   C1A64887  35.562   3.180   6.212
 5047POPC   D2A64888  35.383   3.447   6.537
 5047POPC   C3A64889  35.451   3.280   6.935
 5047POPC   C4A64890  35.229   3.348   7.297
 5047POPC   C1B64891  35.413   3.790   6.153
 5047POPC   C2B64892  35.785   3.787   6.433
 5047POPC   C3B64893  35.646   3.805   6.854
 5047POPC   C4B64894  35.663   3.642   7.254
 5048POPC   NC364895  28.874   5.386   5.529
 5048POPC   PO464896  29.397   4.923   5.384
 5048POPC   GL164897  29.187   5.020   5.731
 5048POPC   GL264898  29.345   5.313   5.697
 5048POPC   C1A64899  28.918   5.038   6.123
 5048POPC   D2A64900  28.814   5.179   6.550
 5048POPC   C3A64901  28.899   4.838   6.801
 5048POPC   C4A64902  29.004   4.718   7.219
 5048POPC   C1B64903  29.326   5.351   6.122
 5048POPC   C2B64904  29.330   5.121   6.502
 5048POPC   C3B64905  29.312   5.133   6.950
 5048POPC   C4B64906  29.300   5.151   7.408
 5049POPC   NC364907  11.891   0.702   5.396
 5049POPC   PO464908  12.432   0.249   5.289
 5049POPC   GL164909  12.327   0.443   5.717
 5049POPC   GL264910  12.557   0.745   5.813
 5049POPC   C1A64911  12.106   0.248   6.105
 5049POPC   D2A64912  11.906   0.069   6.492
 5049POPC   C3A64913  11.858   0.315   6.873
 5049POPC   C4A64914  11.715   0.741   6.987
 5049POPC   C1B64915  12.253   0.740   6.155
 5049POPC   C2B64916  12.230   0.533   6.556
 5049POPC   C3B64917  12.283   0.569   7.005
 5049POPC   C4B64918  12.400   0.356   7.428
 5050POPC   NC364919  36.877   3.974   5.138
 5050POPC   PO464920  37.147   3.454   5.479
 5050POPC   GL164921  37.050   3.418   5.923
 5050POPC   GL264922  36.692   3.410   5.956
 5050POPC   C1A64923  36.948   3.333   6.371
 5050POPC   D2A64924  36.597   3.352   6.651
 5050POPC   C3A64925  36.838   3.435   7.015
 5050POPC   C4A64926  36.980   3.416   7.432
 5050POPC   C1B64927  36.708   3.782   6.257
 5050POPC   C2B64928  36.894   3.823   6.648
 5050POPC   C3B64929  36.895   3.944   7.059
 5050POPC   C4B64930  36.495   3.836   7.248
 5051POPC   NC364931  37.770  32.035   5.442
 5051POPC   PO464932  37.356  31.412   5.319
 5051POPC   GL164933  37.614  31.557   5.687
 5051POPC   GL264934  37.484  31.880   5.841
 5051POPC   C1A64935  37.732  31.432   6.113
 5051POPC   D2A64936  37.566  31.269   6.490
 5051POPC   C3A64937  37.632  31.453   6.872
 5051POPC   C4A64938  37.717  31.197   7.275
 5051POPC   C1B64939  37.617  31.885   6.285
 5051POPC   C2B64940  38.034  31.838   6.473
 5051POPC   C3B64941  38.126  31.725   6.923
 5051POPC   C4B64942  37.817  31.709   7.257
 5052POPC   NC364943  23.945  14.469   5.355
 5052POPC   PO464944  23.579  13.937   5.450
 5052POPC   GL164945  23.571  14.370   5.740
 5052POPC   GL264946  23.832  14.676   5.813
 5052POPC   C1A64947  23.473  14.590   6.179
 5052POPC   D2A64948  23.569  14.729   6.634
 5052POPC   C3A64949  23.480  14.468   7.023
 5052POPC   C4A64950  23.381  14.021   7.153
 5052POPC   C1B64951  24.102  14.787   6.185
 5052POPC   C2B64952  24.037  14.944   6.605
 5052POPC   C3B64953  23.941  14.734   7.013
 5052POPC   C4B64954  23.684  14.742   7.407
 5053POPC   NC364955  32.189   4.915   5.463
 5053POPC   PO464956  32.320   5.580   5.589
 5053POPC   GL164957  32.184   5.242   5.881
 5053POPC   GL264958  32.407   4.962   5.909
 5053POPC   C1A64959  32.086   5.183   6.331
 5053POPC   D2A64960  31.943   5.466   6.670
 5053POPC   C3A64961  32.214   5.444   7.002
 5053POPC   C4A64962  32.327   5.073   7.184
 5053POPC   C1B64963  32.426   4.780   6.296
 5053POPC   C2B64964  32.445   4.805   6.742
 5053POPC   C3B64965  32.766   4.851   7.036
 5053POPC   C4B64966  32.728   4.914   7.487
 5054POPC   NC364967   4.123  23.303   5.256
 5054POPC   PO464968   4.302  22.740   5.389
 5054POPC   GL164969   4.183  23.045   5.720
 5054POPC   GL264970   4.222  22.771   5.955
 5054POPC   C1A64971   4.054  23.208   6.158
 5054POPC   D2A64972   4.041  22.997   6.580
 5054POPC   C3A64973   4.139  23.164   7.007
 5054POPC   C4A64974   4.482  23.038   7.287
 5054POPC   C1B64975   4.101  22.510   6.278
 5054POPC   C2B64976   3.860  22.514   6.629
 5054POPC   C3B64977   4.049  22.488   6.980
 5054POPC   C4B64978   4.055  22.731   7.307
 5055POPC   NC364979  29.716  37.922   5.603
 5055POPC   PO464980  30.184  37.391   5.545
 5055POPC   GL164981  29.902  37.470   5.863
 5055POPC   GL264982  30.127  37.756   5.940
 5055POPC   C1A64983  29.774  37.613   6.286
 5055POPC   D2A64984  30.030  37.773   6.623
 5055POPC   C3A64985  29.891  37.609   6.982
 5055POPC   C4A64986  30.147  37.450   7.253
 5055POPC   C1B64987  29.959  38.075   6.210
 5055POPC   C2B64988  29.663  38.112   6.525
 5055POPC   C3B64989  29.636  38.251   6.922
 5055POPC   C4B64990  29.721  38.016   7.276
 5056POPC   NC364991  39.857   2.331   5.436
 5056POPC   PO464992  39.797   1.632   5.411
 5056POPC   GL164993  39.804   1.930   5.747
 5056POPC   GL264994  40.125   2.049   5.747
 5056POPC   C1A64995  39.725   2.202   6.133
 5056POPC   D2A64996  39.736   2.080   6.596
 5056POPC   C3A64997  39.678   2.313   7.024
 5056POPC   C4A64998  39.640   2.317   7.565
 5056POPC   C1B64999  40.238   2.114   6.148
 5056POPC   C2B65000  40.253   1.905   6.522
 5056POPC   C3B65001  40.123   1.938   6.922
 5056POPC   C4B65002  40.308   2.007   7.316
 5057POPC   NC365003  22.349  23.201   5.506
 5057POPC   PO465004  21.943  22.716   5.479
 5057POPC   GL165005  22.205  22.799   5.824
 5057POPC   GL265006  22.026  23.102   5.874
 5057POPC   C1A65007  22.301  22.717   6.264
 5057POPC   D2A65008  22.191  22.927   6.627
 5057POPC   C3A65009  22.350  22.792   6.985
 5057POPC   C4A65010  22.287  22.614   7.352
 5057POPC   C1B65011  22.300  23.220   6.199
 5057POPC   C2B65012  22.381  23.412   6.596
 5057POPC   C3B65013  22.247  23.287   6.994
 5057POPC   C4B65014  22.372  23.140   7.379
 5058POPC   NC365015  34.138  30.442   5.102
 5058POPC   PO465016  34.552  30.927   5.225
 5058POPC   GL165017  34.520  30.908   5.766
 5058POPC   GL265018  34.433  30.577   5.973
 5058POPC   C1A65019  34.725  30.898   6.200
 5058POPC   D2A65020  34.583  30.546   6.496
 5058POPC   C3A65021  34.620  30.648   6.934
 5058POPC   C4A65022  34.737  31.050   7.109
 5058POPC   C1B65023  34.179  30.345   6.260
 5058POPC   C2B65024  34.183  30.299   6.714
 5058POPC   C3B65025  34.236  30.391   7.169
 5058POPC   C4B65026  34.480  30.632   7.467
 5059POPC   NC365027   5.105  35.962   5.184
 5059POPC   PO465028   4.739  36.478   5.315
 5059POPC   GL165029   5.002  36.255   5.656
 5059POPC   GL265030   5.291  36.474   5.762
 5059POPC   C1A65031   4.859  36.072   6.074
 5059POPC   D2A65032   4.695  35.755   6.361
 5059POPC   C3A65033   4.747  35.832   6.800
 5059POPC   C4A65034   5.032  36.119   7.020
 5059POPC   C1B65035   5.323  36.281   6.181
 5059POPC   C2B65036   5.266  36.402   6.638
 5059POPC   C3B65037   5.465  36.389   7.077
 5059POPC   C4B65038   5.261  36.372   7.478
 5060POPC   NC365039  33.604  40.881   5.299
 5060POPC   PO465040  33.243  41.407   5.372
 5060POPC   GL165041  33.538  41.161   5.701
 5060POPC   GL265042  33.913  41.200   5.642
 5060POPC   C1A65043  33.678  40.814   6.013
 5060POPC   D2A65044  33.612  40.538   6.408
 5060POPC   C3A65045  33.557  40.742   6.827
 5060POPC   C4A65046  33.628  40.533   7.220
 5060POPC   C1B65047  34.065  41.155   6.087
 5060POPC   C2B65048  33.962  40.924   6.465
 5060POPC   C3B65049  34.087  40.744   6.860
 5060POPC   C4B65050  33.919  41.054   7.110
 5061POPC   NC365051  23.218  21.130   5.383
 5061POPC   PO465052  22.628  21.248   5.251
 5061POPC   GL165053  22.666  21.284   5.725
 5061POPC   GL265054  23.011  21.283   5.847
 5061POPC   C1A65055  22.643  21.472   6.171
 5061POPC   D2A65056  22.925  21.504   6.549
 5061POPC   C3A65057  22.770  21.468   6.976
 5061POPC   C4A65058  22.494  21.706   7.209
 5061POPC   C1B65059  22.953  21.070   6.269
 5061POPC   C2B65060  22.804  20.936   6.691
 5061POPC   C3B65061  22.724  20.972   7.125
 5061POPC   C4B65062  23.043  21.035   7.393
 5062POPC   NC365063  26.595  32.295   5.305
 5062POPC   PO465064  27.215  32.315   5.183
 5062POPC   GL165065  27.015  32.315   5.654
 5062POPC   GL265066  26.775  32.585   5.757
 5062POPC   C1A65067  27.054  32.225   6.145
 5062POPC   D2A65068  27.170  32.303   6.634
 5062POPC   C3A65069  27.101  32.076   7.071
 5062POPC   C4A65070  26.947  32.031   7.571
 5062POPC   C1B65071  26.453  32.554   6.107
 5062POPC   C2B65072  26.509  32.528   6.566
 5062POPC   C3B65073  26.368  32.523   6.998
 5062POPC   C4B65074  26.596  32.316   7.326
 5063POPC   NC365075  11.141   8.136   5.268
 5063POPC   PO465076  11.349   8.753   5.379
 5063POPC   GL165077  11.207   8.463   5.757
 5063POPC   GL265078  11.124   8.070   5.761
 5063POPC   C1A65079  11.203   8.332   6.229
 5063POPC   D2A65080  11.372   8.248   6.681
 5063POPC   C3A65081  11.305   7.997   7.088
 5063POPC   C4A65082  11.437   8.240   7.421
 5063POPC   C1B65083  10.873   7.971   6.088
 5063POPC   C2B65084  11.024   7.898   6.488
 5063POPC   C3B65085  10.889   8.091   6.828
 5063POPC   C4B65086  10.739   7.891   7.154
 5064POPC   NC365087  11.059   4.776   5.475
 5064POPC   PO465088  11.314   5.350   5.395
 5064POPC   GL165089  11.123   5.176   5.839
 5064POPC   GL265090  11.105   4.818   5.973
 5064POPC   C1A65091  11.020   5.333   6.310
 5064POPC   D2A65092  11.246   5.239   6.720
 5064POPC   C3A65093  11.148   4.864   6.965
 5064POPC   C4A65094  10.840   5.111   7.165
 5064POPC   C1B65095  11.469   4.678   6.218
 5064POPC   C2B65096  11.566   4.819   6.611
 5064POPC   C3B65097  11.646   4.889   7.045
 5064POPC   C4B65098  11.438   4.715   7.403
 5065POPC   NC365099  36.122  14.168   5.441
 5065POPC   PO465100  35.473  14.322   5.407
 5065POPC   GL165101  35.709  14.520   5.786
 5065POPC   GL265102  36.069  14.607   5.759
 5065POPC   C1A65103  35.864  14.419   6.236
 5065POPC   D2A65104  35.996  14.264   6.669
 5065POPC   C3A65105  35.907  14.503   7.034
 5065POPC   C4A65106  36.062  14.688   7.388
 5065POPC   C1B65107  36.340  14.366   6.066
 5065POPC   C2B65108  36.507  14.425   6.474
 5065POPC   C3B65109  36.413  14.506   6.896
 5065POPC   C4B65110  36.570  14.332   7.251
 5066POPC   NC365111  29.421  39.423   5.656
 5066POPC   PO465112  30.007  39.081   5.407
 5066POPC   GL165113  29.869  39.257   5.827
 5066POPC   GL265114  30.169  39.365   5.999
 5066POPC   C1A65115  29.743  39.389   6.273
 5066POPC   D2A65116  29.834  39.186   6.692
 5066POPC   C3A65117  29.791  39.329   7.107
 5066POPC   C4A65118  29.604  39.128   7.453
 5066POPC   C1B65119  30.244  39.313   6.404
 5066POPC   C2B65120  30.321  39.013   6.702
 5066POPC   C3B65121  30.148  38.901   7.097
 5066POPC   C4B65122  30.099  39.106   7.482
 5067POPC   NC365123  29.269  16.929   5.555
 5067POPC   PO465124  28.738  16.620   5.349
 5067POPC   GL165125  28.909  16.504   5.766
 5067POPC   GL265126  29.256  16.508   5.853
 5067POPC   C1A65127  28.825  16.673   6.191
 5067POPC   D2A65128  29.053  16.697   6.573
 5067POPC   C3A65129  28.871  16.631   6.955
 5067POPC   C4A65130  28.881  16.781   7.375
 5067POPC   C1B65131  29.459  16.565   6.296
 5067POPC   C2B65132  29.520  16.629   6.766
 5067POPC   C3B65133  29.358  16.612   7.195
 5067POPC   C4B65134  29.548  16.517   7.601
 5068POPC   NC365135  10.807  43.586   5.639
 5068POPC   PO465136  10.642  44.001   5.272
 5068POPC   GL165137  10.403  43.861   5.704
 5068POPC   GL265138  10.082  43.660   5.750
 5068POPC   C1A65139  10.540  43.954   6.167
 5068POPC   D2A65140  10.825  43.824   6.536
 5068POPC   C3A65141  10.647  43.672   6.951
 5068POPC   C4A65142  10.535  43.850   7.378
 5068POPC   C1B65143  10.054  43.751   6.185
 5068POPC   C2B65144  10.283  43.785   6.582
 5068POPC   C3B65145  10.190  43.924   6.992
 5068POPC   C4B65146  10.154  43.567   7.252
 5069POPC   NC365147  11.139  22.590   5.622
 5069POPC   PO465148  11.762  22.974   5.445
 5069POPC   GL165149  11.620  22.795   5.810
 5069POPC   GL265150  11.339  23.001   5.854
 5069POPC   C1A65151  11.543  22.716   6.256
 5069POPC   D2A65152  11.597  22.618   6.688
 5069POPC   C3A65153  11.443  22.952   6.950
 5069POPC   C4A65154  11.549  23.215   7.291
 5069POPC   C1B65155  11.060  22.894   6.212
 5069POPC   C2B65156  11.085  22.778   6.613
 5069POPC   C3B65157  10.945  22.861   7.007
 5069POPC   C4B65158  11.086  23.010   7.414
 5070POPC   NC365159  31.780   6.347   5.048
 5070POPC   PO465160  31.476   6.847   5.356
 5070POPC   GL165161  31.430   6.877   5.790
 5070POPC   GL265162  31.297   6.538   5.781
 5070POPC   C1A65163  31.552   6.929   6.219
 5070POPC   D2A65164  31.681   6.687   6.551
 5070POPC   C3A65165  31.593   6.854   6.931
 5070POPC   C4A65166  31.693   6.543   7.225
 5070POPC   C1B65167  31.113   6.671   6.140
 5070POPC   C2B65168  31.176   6.690   6.546
 5070POPC   C3B65169  31.212   6.502   6.910
 5070POPC   C4B65170  31.181   6.680   7.264
 5071POPC   NC365171   5.275   0.779   5.407
 5071POPC   PO465172   5.244   0.109   5.145
 5071POPC   GL165173   5.154   0.202   5.693
 5071POPC   GL265174   4.880   0.420   5.675
 5071POPC   C1A65175   5.259   0.249   6.141
 5071POPC   D2A65176   5.432   0.409   6.539
 5071POPC   C3A65177   5.406   0.191   6.934
 5071POPC   C4A65178   5.226   0.232   7.337
 5071POPC   C1B65179   4.756   0.383   6.117
 5071POPC   C2B65180   4.885   0.309   6.561
 5071POPC   C3B65181   4.867   0.389   7.028
 5071POPC   C4B65182   4.775   0.325   7.511
 5072POPC   NC365183  10.681  21.648   5.422
 5072POPC   PO465184  10.627  20.966   5.380
 5072POPC   GL165185  10.479  21.249   5.686
 5072POPC   GL265186  10.799  21.338   5.858
 5072POPC   C1A65187  10.381  21.302   6.127
 5072POPC   D2A65188  10.587  21.260   6.541
 5072POPC   C3A65189  10.434  21.540   6.837
 5072POPC   C4A65190  10.301  21.585   7.258
 5072POPC   C1B65191  10.886  21.579   6.274
 5072POPC   C2B65192  10.941  21.711   6.727
 5072POPC   C3B65193  10.816  21.570   7.162
 5072POPC   C4B65194  10.801  21.715   7.610
 5073POPC   NC365195  11.617  26.017   5.571
 5073POPC   PO465196  12.253  26.235   5.314
 5073POPC   GL165197  12.070  26.188   5.748
 5073POPC   GL265198  12.063  25.795   5.810
 5073POPC   C1A65199  11.890  26.085   6.181
 5073POPC   D2A65200  12.099  26.040   6.555
 5073POPC   C3A65201  11.949  25.973   6.968
 5073POPC   C4A65202  11.828  26.247   7.273
 5073POPC   C1B65203  12.009  25.586   6.244
 5073POPC   C2B65204  12.197  25.559   6.677
 5073POPC   C3B65205  12.457  25.907   6.902
 5073POPC   C4B65206  12.342  25.976   7.341
 5074POPC   NC365207  19.165  14.704   5.496
 5074POPC   PO465208  18.776  14.093   5.342
 5074POPC   GL165209  18.932  14.258   5.758
 5074POPC   GL265210  19.272  14.408   5.905
 5074POPC   C1A65211  18.893  14.269   6.205
 5074POPC   D2A65212  18.774  14.235   6.621
 5074POPC   C3A65213  18.915  14.316   7.035
 5074POPC   C4A65214  18.661  14.644   7.150
 5074POPC   C1B65215  19.394  14.181   6.302
 5074POPC   C2B65216  19.315  14.175   6.748
 5074POPC   C3B65217  19.442  14.471   7.057
 5074POPC   C4B65218  19.392  14.567   7.498
 5075POPC   NC365219  29.855   4.904   5.502
 5075POPC   PO465220  30.083   5.510   5.511
 5075POPC   GL165221  29.989   5.233   5.908
 5075POPC   GL265222  29.677   5.025   5.945
 5075POPC   C1A65223  29.912   5.120   6.367
 5075POPC   D2A65224  29.753   4.935   6.723
 5075POPC   C3A65225  29.859   5.161   7.081
 5075POPC   C4A65226  30.082   4.886   7.349
 5075POPC   C1B65227  29.372   4.749   6.112
 5075POPC   C2B65228  29.220   4.598   6.488
 5075POPC   C3B65229  29.377   4.625   6.874
 5075POPC   C4B65230  29.584   4.773   7.234
 5076POPC   NC365231   1.789   9.388   5.378
 5076POPC   PO465232   1.657   8.734   5.411
 5076POPC   GL165233   1.902   9.005   5.750
 5076POPC   GL265234   2.267   9.163   5.767
 5076POPC   C1A65235   2.083   8.927   6.180
 5076POPC   D2A65236   1.900   9.085   6.558
 5076POPC   C3A65237   1.935   8.898   6.958
 5076POPC   C4A65238   1.720   9.114   7.306
 5076POPC   C1B65239   2.252   9.403   6.204
 5076POPC   C2B65240   2.110   9.542   6.623
 5076POPC   C3B65241   2.124   9.354   7.001
 5076POPC   C4B65242   2.250   9.175   7.380
 5077POPC   NC365243  30.851  25.976   5.272
 5077POPC   PO465244  30.283  26.214   5.473
 5077POPC   GL165245  30.463  26.036   5.833
 5077POPC   GL265246  30.809  26.026   5.774
 5077POPC   C1A65247  30.652  26.199   6.227
 5077POPC   D2A65248  30.849  26.111   6.608
 5077POPC   C3A65249  30.641  26.123   6.938
 5077POPC   C4A65250  30.641  26.331   7.320
 5077POPC   C1B65251  30.767  25.701   6.124
 5077POPC   C2B65252  30.564  25.708   6.526
 5077POPC   C3B65253  30.327  25.700   6.887
 5077POPC   C4B65254  30.381  25.869   7.283
 5078POPC   NC365255  44.278   7.532   5.455
 5078POPC   PO465256  44.938   7.269   5.459
 5078POPC   GL165257  44.574   7.156   5.744
 5078POPC   GL265258  44.470   7.487   5.922
 5078POPC   C1A65259  44.542   7.076   6.193
 5078POPC   D2A65260  44.555   7.425   6.482
 5078POPC   C3A65261  44.673   7.406   6.928
 5078POPC   C4A65262  44.602   7.042   7.202
 5078POPC   C1B65263  44.806   7.723   6.110
 5078POPC   C2B65264  44.850   7.865   6.529
 5078POPC   C3B65265  44.769   7.951   6.947
 5078POPC   C4B65266  44.571   7.769   7.311
 5079POPC   NC365267  29.451  20.812   5.499
 5079POPC   PO465268  28.863  20.509   5.329
 5079POPC   GL165269  29.035  20.572   5.757
 5079POPC   GL265270  28.969  20.946   5.706
 5079POPC   C1A65271  29.308  20.439   6.168
 5079POPC   D2A65272  29.629  20.439   6.508
 5079POPC   C3A65273  29.432  20.542   6.901
 5079POPC   C4A65274  29.323  20.657   7.298
 5079POPC   C1B65275  29.155  20.920   6.121
 5079POPC   C2B65276  29.102  20.726   6.544
 5079POPC   C3B65277  28.978  20.798   6.956
 5079POPC   C4B65278  29.021  21.098   7.311
 5080POPC   NC365279  34.547  44.087   5.235
 5080POPC   PO465280  34.298  43.426   5.152
 5080POPC   GL165281  34.374  43.796   5.574
 5080POPC   GL265282  34.664  43.779   5.730
 5080POPC   C1A65283  34.332  43.940   6.065
 5080POPC   D2A65284  34.466  43.771   6.514
 5080POPC   C3A65285  34.470  44.008   6.929
 5080POPC   C4A65286  34.414  43.847   7.356
 5080POPC   C1B65287  34.878  43.774   6.153
 5080POPC   C2B65288  35.008  43.986   6.545
 5080POPC   C3B65289  34.918  43.745   6.918
 5080POPC   C4B65290  34.824  43.506   7.268
 5081POPC   NC365291  27.824   5.827   5.608
 5081POPC   PO465292  27.239   5.852   5.250
 5081POPC   GL165293  27.286   5.977   5.726
 5081POPC   GL265294  27.433   5.689   5.947
 5081POPC   C1A65295  27.163   6.030   6.192
 5081POPC   D2A65296  27.203   5.697   6.551
 5081POPC   C3A65297  27.369   5.814   6.967
 5081POPC   C4A65298  27.733   5.802   7.262
 5081POPC   C1B65299  27.673   5.817   6.354
 5081POPC   C2B65300  27.900   6.012   6.726
 5081POPC   C3B65301  28.118   6.077   7.116
 5081POPC   C4B65302  28.205   5.829   7.499
 5082POPC   NC365303  23.815  28.700   5.470
 5082POPC   PO465304  23.838  28.046   5.513
 5082POPC   GL165305  23.675  28.280   5.834
 5082POPC   GL265306  23.441  28.548   5.785
 5082POPC   C1A65307  23.825  28.356   6.233
 5082POPC   D2A65308  23.705  28.195   6.625
 5082POPC   C3A65309  24.002  28.098   6.933
 5082POPC   C4A65310  23.903  28.295   7.303
 5082POPC   C1B65311  23.478  28.755   6.177
 5082POPC   C2B65312  23.316  28.794   6.587
 5082POPC   C3B65313  23.484  28.731   6.998
 5082POPC   C4B65314  23.384  28.374   7.250
 5083POPC   NC365315  30.463   3.442   5.412
 5083POPC   PO465316  29.767   3.490   5.468
 5083POPC   GL165317  29.886   3.474   5.853
 5083POPC   GL265318  30.161   3.270   5.776
 5083POPC   C1A65319  29.952   3.475   6.287
 5083POPC   D2A65320  30.096   3.577   6.675
 5083POPC   C3A65321  29.914   3.449   7.053
 5083POPC   C4A65322  30.059   3.537   7.435
 5083POPC   C1B65323  30.205   3.068   6.119
 5083POPC   C2B65324  30.169   3.061   6.572
 5083POPC   C3B65325  30.200   2.998   7.027
 5083POPC   C4B65326  30.056   3.037   7.446
 5084POPC   NC365327  29.290  17.621   5.286
 5084POPC   PO465328  29.233  18.026   5.769
 5084POPC   GL165329  29.184  17.612   5.980
 5084POPC   GL265330  29.353  17.315   5.882
 5084POPC   C1A65331  29.194  17.525   6.404
 5084POPC   D2A65332  28.912  17.436   6.733
 5084POPC   C3A65333  29.077  17.642   7.065
 5084POPC   C4A65334  29.357  17.684   7.388
 5084POPC   C1B65335  29.266  17.045   6.243
 5084POPC   C2B65336  29.381  17.118   6.676
 5084POPC   C3B65337  29.145  17.080   7.045
 5084POPC   C4B65338  29.014  17.288   7.432
 5085POPC   NC365339   8.549  19.333   5.379
 5085POPC   PO465340   8.188  19.910   5.230
 5085POPC   GL165341   8.217  19.808   5.687
 5085POPC   GL265342   8.546  19.670   5.764
 5085POPC   C1A65343   8.192  19.939   6.128
 5085POPC   D2A65344   8.088  19.787   6.540
 5085POPC   C3A65345   8.150  20.028   6.921
 5085POPC   C4A65346   7.915  19.814   7.238
 5085POPC   C1B65347   8.588  19.542   6.187
 5085POPC   C2B65348   8.441  19.341   6.561
 5085POPC   C3B65349   8.330  19.540   6.934
 5085POPC   C4B65350   8.461  19.759   7.300
 5086POPC   NC365351   3.614  23.707   5.338
 5086POPC   PO465352   3.373  24.275   5.639
 5086POPC   GL165353   3.266  23.851   5.738
 5086POPC   GL265354   3.437  23.501   5.780
 5086POPC   C1A65355   3.200  23.787   6.152
 5086POPC   D2A65356   3.383  23.712   6.516
 5086POPC   C3A65357   3.188  23.809   6.872
 5086POPC   C4A65358   3.106  23.669   7.283
 5086POPC   C1B65359   3.431  23.283   6.193
 5086POPC   C2B65360   3.622  23.293   6.613
 5086POPC   C3B65361   3.459  23.349   7.032
 5086POPC   C4B65362   3.699  23.370   7.411
 5087POPC   NC365363  42.263   0.918   5.357
 5087POPC   PO465364  42.556   1.520   5.533
 5087POPC   GL165365  42.538   1.134   5.729
 5087POPC   GL265366  42.329   1.327   5.973
 5087POPC   C1A65367  42.548   0.904   6.144
 5087POPC   D2A65368  42.500   1.177   6.491
 5087POPC   C3A65369  42.329   1.037   6.886
 5087POPC   C4A65370  42.471   0.931   7.284
 5087POPC   C1B65371  42.094   1.589   6.276
 5087POPC   C2B65372  41.750   1.545   6.575
 5087POPC   C3B65373  41.774   1.662   6.993
 5087POPC   C4B65374  41.949   1.359   7.257
 5088POPC   NC365375  39.759  18.948   5.285
 5088POPC   PO465376  40.390  19.169   5.397
 5088POPC   GL165377  40.084  19.111   5.692
 5088POPC   GL265378  40.014  18.734   5.696
 5088POPC   C1A65379  39.944  19.241   6.113
 5088POPC   D2A65380  39.904  18.978   6.508
 5088POPC   C3A65381  39.926  18.853   6.921
 5088POPC   C4A65382  39.974  19.251   7.069
 5088POPC   C1B65383  40.180  18.799   6.113
 5088POPC   C2B65384  40.412  19.016   6.456
 5088POPC   C3B65385  40.405  18.971   6.879
 5088POPC   C4B65386  40.420  18.812   7.275
 5089POPC   NC365387  35.387  42.504   5.277
 5089POPC   PO465388  35.343  41.900   5.424
 5089POPC   GL165389  35.301  42.234   5.751
 5089POPC   GL265390  35.035  42.429   5.735
 5089POPC   C1A65391  35.463  42.294   6.183
 5089POPC   D2A65392  35.361  42.044   6.560
 5089POPC   C3A65393  35.503  42.211   6.946
 5089POPC   C4A65394  35.666  42.582   7.089
 5089POPC   C1B65395  34.950  42.240   6.146
 5089POPC   C2B65396  34.902  42.391   6.568
 5089POPC   C3B65397  34.995  42.222   6.954
 5089POPC   C4B65398  34.950  42.226   7.374
 5090POPC   NC365399  10.544   7.012   5.162
 5090POPC   PO465400  10.048   6.573   5.328
 5090POPC   GL165401  10.380   6.506   5.712
 5090POPC   GL265402  10.720   6.618   5.778
 5090POPC   C1A65403  10.407   6.531   6.206
 5090POPC   D2A65404  10.307   6.381   6.629
 5090POPC   C3A65405  10.412   6.558   7.026
 5090POPC   C4A65406  10.511   6.360   7.420
 5090POPC   C1B65407  10.891   6.666   6.220
 5090POPC   C2B65408  10.771   6.595   6.635
 5090POPC   C3B65409  10.920   6.599   7.051
 5090POPC   C4B65410  10.690   6.875   7.336
 5091POPC   NC365411   2.942  25.313   5.458
 5091POPC   PO465412   2.376  25.362   5.340
 5091POPC   GL165413   2.595  25.412   5.830
 5091POPC   GL265414   2.942  25.268   5.955
 5091POPC   C1A65415   2.594  25.259   6.308
 5091POPC   D2A65416   2.831  25.155   6.720
 5091POPC   C3A65417   2.570  25.186   7.084
 5091POPC   C4A65418   2.509  25.607   7.242
 5091POPC   C1B65419   3.027  24.958   6.278
 5091POPC   C2B65420   3.290  24.935   6.642
 5091POPC   C3B65421   3.252  25.119   7.008
 5091POPC   C4B65422   2.996  25.421   7.220
 5092POPC   NC365423   8.602  20.049   5.408
 5092POPC   PO465424   9.060  19.575   5.465
 5092POPC   GL165425   9.011  19.907   5.737
 5092POPC   GL265426   9.045  19.690   5.964
 5092POPC   C1A65427   8.713  20.055   6.085
 5092POPC   D2A65428   8.550  19.971   6.522
 5092POPC   C3A65429   8.812  19.872   6.886
 5092POPC   C4A65430   8.926  20.063   7.286
 5092POPC   C1B65431   9.022  19.773   6.374
 5092POPC   C2B65432   9.199  19.563   6.639
 5092POPC   C3B65433   9.471  19.576   6.913
 5092POPC   C4B65434   9.408  19.556   7.289
 5093POPC   NC365435  15.466  22.596   5.143
 5093POPC   PO465436  15.311  21.954   5.370
 5093POPC   GL165437  15.213  22.151   5.771
 5093POPC   GL265438  15.286  22.487   5.698
 5093POPC   C1A65439  15.174  22.018   6.205
 5093POPC   D2A65440  15.021  21.876   6.590
 5093POPC   C3A65441  15.015  22.060   6.997
 5093POPC   C4A65442  14.830  21.772   7.282
 5093POPC   C1B65443  15.172  22.534   6.138
 5093POPC   C2B65444  15.265  22.375   6.575
 5093POPC   C3B65445  15.431  22.573   6.979
 5093POPC   C4B65446  15.192  22.440   7.369
 5094POPC   NC365447  39.788  25.395   5.580
 5094POPC   PO465448  40.470  25.328   5.308
 5094POPC   GL165449  40.256  25.208   5.692
 5094POPC   GL265450  40.218  25.497   5.912
 5094POPC   C1A65451  40.084  25.029   6.074
 5094POPC   D2A65452  39.979  25.068   6.523
 5094POPC   C3A65453  40.287  25.048   6.859
 5094POPC   C4A65454  40.211  25.123   7.290
 5094POPC   C1B65455  39.893  25.487   6.230
 5094POPC   C2B65456  39.642  25.444   6.598
 5094POPC   C3B65457  39.854  25.338   6.972
 5094POPC   C4B65458  39.969  25.625   7.269
 5095POPC   NC365459  20.752  23.528   5.394
 5095POPC   PO465460  20.554  24.183   5.401
 5095POPC   GL165461  20.565  23.853   5.748
 5095POPC   GL265462  20.861  23.692   5.869
 5095POPC   C1A65463  20.478  23.594   6.171
 5095POPC   D2A65464  20.492  23.325   6.557
 5095POPC   C3A65465  20.504  23.524   6.976
 5095POPC   C4A65466  20.193  23.738   7.249
 5095POPC   C1B65467  21.026  23.672   6.265
 5095POPC   C2B65468  20.951  23.522   6.682
 5095POPC   C3B65469  20.955  23.817   7.000
 5095POPC   C4B65470  20.720  23.764   7.385
 5096POPC   NC365471   1.055  30.939   5.567
 5096POPC   PO465472   1.703  30.737   5.403
 5096POPC   GL165473   1.485  30.575   5.831
 5096POPC   GL265474   1.375  30.855   5.942
 5096POPC   C1A65475   1.182  30.526   6.273
 5096POPC   D2A65476   0.942  30.367   6.670
 5096POPC   C3A65477   1.160  30.448   7.069
 5096POPC   C4A65478   1.045  30.577   7.510
 5096POPC   C1B65479   1.603  30.826   6.337
 5096POPC   C2B65480   1.369  30.879   6.733
 5096POPC   C3B65481   1.272  30.942   7.160
 5096POPC   C4B65482   1.523  30.761   7.459
 5097POPC   NC365483  32.885  38.732   5.411
 5097POPC   PO465484  32.823  38.005   5.411
 5097POPC   GL165485  32.981  38.337   5.787
 5097POPC   GL265486  33.185  38.672   5.804
 5097POPC   C1A65487  33.135  38.283   6.219
 5097POPC   D2A65488  32.905  38.113   6.580
 5097POPC   C3A65489  32.941  38.202   7.030
 5097POPC   C4A65490  33.365  38.317   7.248
 5097POPC   C1B65491  32.999  38.781   6.189
 5097POPC   C2B65492  33.232  38.839   6.561
 5097POPC   C3B65493  33.087  38.692   6.965
 5097POPC   C4B65494  32.979  38.952   7.266
 5098POPC   NC365495  14.645  44.518   5.513
 5098POPC   PO465496  14.052  44.756   5.383
 5098POPC   GL165497  14.252  44.667   5.814
 5098POPC   GL265498  14.227  44.314   5.784
 5098POPC   C1A65499  14.388  44.800   6.258
 5098POPC   D2A65500  14.261  44.936   6.662
 5098POPC   C3A65501  14.285  44.687   7.039
 5098POPC   C4A65502  14.192  44.266   7.060
 5098POPC   C1B65503  14.563  44.350   6.128
 5098POPC   C2B65504  14.551  44.434   6.571
 5098POPC   C3B65505  14.736  44.743   6.790
 5098POPC   C4B65506  14.770  44.658   7.227
 5099POPC   NC365507  32.116  34.895   5.441
 5099POPC   PO465508  32.668  34.585   5.502
 5099POPC   GL165509  32.594  34.628   5.896
 5099POPC   GL265510  32.382  34.294   5.879
 5099POPC   C1A65511  32.286  34.751   6.187
 5099POPC   D2A65512  32.039  34.439   6.388
 5099POPC   C3A65513  32.130  34.427   6.809
 5099POPC   C4A65514  32.123  34.518   7.229
 5099POPC   C1B65515  32.535  34.289   6.274
 5099POPC   C2B65516  32.596  34.565   6.606
 5099POPC   C3B65517  32.619  34.427   7.022
 5099POPC   C4B65518  32.587  34.545   7.461
 5100POPC   NC365519  43.833   9.416   5.201
 5100POPC   PO465520  43.948   8.795   5.400
 5100POPC   GL165521  43.780   8.833   5.818
 5100POPC   GL265522  44.112   8.863   5.908
 5100POPC   C1A65523  43.704   9.013   6.237
 5100POPC   D2A65524  43.489   9.157   6.607
 5100POPC   C3A65525  43.748   9.270   6.977
 5100POPC   C4A65526  43.935   8.985   7.271
 5100POPC   C1B65527  44.175   9.186   6.210
 5100POPC   C2B65528  44.080   9.050   6.624
 5100POPC   C3B65529  44.349   8.904   6.964
 5100POPC   C4B65530  44.397   8.765   7.379
 5101POPC   NC365531  33.244  17.903   5.311
 5101POPC   PO465532  33.010  18.497   5.199
 5101POPC   GL165533  33.096  18.446   5.658
 5101POPC   GL265534  33.089  18.083   5.764
 5101POPC   C1A65535  32.978  18.435   6.127
 5101POPC   D2A65536  32.814  18.294   6.548
 5101POPC   C3A65537  32.717  18.562   6.930
 5101POPC   C4A65538  32.643  18.409   7.365
 5101POPC   C1B65539  33.304  17.990   6.166
 5101POPC   C2B65540  33.331  18.131   6.590
 5101POPC   C3B65541  33.080  18.127   6.966
 5101POPC   C4B65542  33.284  18.238   7.338
 5102POPC   NC365543  14.232  32.470   5.504
 5102POPC   PO465544  14.942  32.508   5.567
 5102POPC   GL165545  14.621  32.409   5.857
 5102POPC   GL265546  14.542  32.078   5.773
 5102POPC   C1A65547  14.297  32.477   6.166
 5102POPC   D2A65548  14.385  32.395   6.574
 5102POPC   C3A65549  14.157  32.542   6.908
 5102POPC   C4A65550  14.257  32.523   7.292
 5102POPC   C1B65551  14.523  32.020   6.217
 5102POPC   C2B65552  14.326  31.892   6.594
 5102POPC   C3B65553  14.364  32.084   6.981
 5102POPC   C4B65554  14.699  32.294   7.164
 5103POPC   NC365555  16.587  21.776   5.139
 5103POPC   PO465556  16.764  21.132   5.238
 5103POPC   GL165557  16.599  21.322   5.667
 5103POPC   GL265558  16.886  21.183   5.863
 5103POPC   C1A65559  16.574  21.470   6.122
 5103POPC   D2A65560  16.505  21.283   6.525
 5103POPC   C3A65561  16.613  21.434   6.907
 5103POPC   C4A65562  16.859  21.722   7.122
 5103POPC   C1B65563  17.060  21.271   6.270
 5103POPC   C2B65564  17.072  21.428   6.671
 5103POPC   C3B65565  17.088  21.252   7.059
 5103POPC   C4B65566  17.164  20.955   7.343
 5104POPC   NC365567  11.386   3.075   5.383
 5104POPC   PO465568  11.015   3.642   5.280
 5104POPC   GL165569  11.060   3.467   5.693
 5104POPC   GL265570  11.400   3.429   5.800
 5104POPC   C1A65571  11.025   3.567   6.148
 5104POPC   D2A65572  11.098   3.865   6.495
 5104POPC   C3A65573  11.118   3.693   6.930
 5104POPC   C4A65574  11.389   3.377   7.131
 5104POPC   C1B65575  11.558   3.630   6.191
 5104POPC   C2B65576  11.588   3.703   6.658
 5104POPC   C3B65577  11.558   3.916   7.054
 5104POPC   C4B65578  11.347   3.838   7.438
 5105POPC   NC365579  41.806  21.037   5.426
 5105POPC   PO465580  41.431  20.357   5.413
 5105POPC   GL165581  41.604  20.577   5.811
 5105POPC   GL265582  41.490  20.917   5.834
 5105POPC   C1A65583  41.623  20.667   6.308
 5105POPC   D2A65584  41.642  20.743   6.773
 5105POPC   C3A65585  41.602  20.443   7.085
 5105POPC   C4A65586  41.499  20.406   7.527
 5105POPC   C1B65587  41.176  20.760   6.108
 5105POPC   C2B65588  41.098  20.695   6.526
 5105POPC   C3B65589  41.029  20.917   6.872
 5105POPC   C4B65590  41.283  20.799   7.215
 5106POPC   NC365591  36.481   1.414   5.403
 5106POPC   PO465592  36.028   0.889   5.333
 5106POPC   GL165593  36.137   1.166   5.690
 5106POPC   GL265594  35.982   1.498   5.605
 5106POPC   C1A65595  36.373   0.972   6.031
 5106POPC   D2A65596  36.260   0.875   6.446
 5106POPC   C3A65597  36.047   1.167   6.715
 5106POPC   C4A65598  36.257   1.236   7.090
 5106POPC   C1B65599  35.848   1.571   6.033
 5106POPC   C2B65600  35.919   1.667   6.472
 5106POPC   C3B65601  35.753   1.590   6.881
 5106POPC   C4B65602  35.884   1.535   7.251
 5107POPC   NC365603  30.361   6.703   5.311
 5107POPC   PO465604  29.789   6.387   5.301
 5107POPC   GL165605  29.962   6.471   5.693
 5107POPC   GL265606  30.033   6.841   5.695
 5107POPC   C1A65607  29.753   6.489   6.113
 5107POPC   D2A65608  29.943   6.459   6.519
 5107POPC   C3A65609  29.834   6.738   6.867
 5107POPC   C4A65610  30.017   6.721   7.313
 5107POPC   C1B65611  30.091   6.877   6.151
 5107POPC   C2B65612  30.232   6.920   6.581
 5107POPC   C3B65613  30.164   7.116   6.985
 5107POPC   C4B65614  30.278   7.132   7.411
 5108POPC   NC365615  29.312  13.141   5.250
 5108POPC   PO465616  28.836  12.654   5.145
 5108POPC   GL165617  28.947  12.968   5.534
 5108POPC   GL265618  29.279  12.803   5.668
 5108POPC   C1A65619  28.973  13.100   6.001
 5108POPC   D2A65620  28.964  12.905   6.448
 5108POPC   C3A65621  29.213  13.076   6.779
 5108POPC   C4A65622  29.115  13.125   7.226
 5108POPC   C1B65623  29.290  12.671   6.124
 5108POPC   C2B65624  29.255  12.460   6.530
 5108POPC   C3B65625  29.059  12.612   6.902
 5108POPC   C4B65626  29.416  12.736   7.105
 5109POPC   NC365627  22.363  42.815   5.476
 5109POPC   PO465628  21.901  43.220   5.421
 5109POPC   GL165629  22.105  43.127   5.787
 5109POPC   GL265630  22.159  43.492   5.818
 5109POPC   C1A65631  22.264  42.991   6.185
 5109POPC   D2A65632  22.388  43.172   6.584
 5109POPC   C3A65633  22.230  42.959   6.944
 5109POPC   C4A65634  22.390  42.839   7.352
 5109POPC   C1B65635  21.954  43.400   6.198
 5109POPC   C2B65636  21.867  43.264   6.585
 5109POPC   C3B65637  21.827  43.280   7.004
 5109POPC   C4B65638  22.143  43.462   7.237
 5110POPC   NC365639  27.610   3.902   5.376
 5110POPC   PO465640  27.862   4.615   5.461
 5110POPC   GL165641  27.631   4.297   5.758
 5110POPC   GL265642  27.781   3.981   5.835
 5110POPC   C1A65643  27.486   4.405   6.170
 5110POPC   D2A65644  27.420   4.167   6.538
 5110POPC   C3A65645  27.493   4.285   6.932
 5110POPC   C4A65646  27.608   4.630   7.140
 5110POPC   C1B65647  27.848   4.034   6.261
 5110POPC   C2B65648  28.032   4.107   6.655
 5110POPC   C3B65649  27.930   4.065   7.114
 5110POPC   C4B65650  27.857   4.043   7.573
 5111POPC   NC365651  39.325   9.754   5.384
 5111POPC   PO465652  38.797   9.991   5.707
 5111POPC   GL165653  39.093   9.632   5.849
 5111POPC   GL265654  39.486   9.588   5.833
 5111POPC   C1A65655  39.230   9.492   6.269
 5111POPC   D2A65656  38.996   9.636   6.626
 5111POPC   C3A65657  39.122   9.838   7.001
 5111POPC   C4A65658  39.029   9.645   7.393
 5111POPC   C1B65659  39.636   9.837   6.192
 5111POPC   C2B65660  39.499   9.843   6.631
 5111POPC   C3B65661  39.511   9.532   6.983
 5111POPC   C4B65662  39.532   9.721   7.395
 5112POPC   NC365663  23.390  33.700   5.429
 5112POPC   PO465664  24.046  33.484   5.300
 5112POPC   GL165665  23.908  33.610   5.773
 5112POPC   GL265666  23.616  33.797   5.860
 5112POPC   C1A65667  24.082  33.598   6.225
 5112POPC   D2A65668  23.933  33.699   6.633
 5112POPC   C3A65669  24.172  33.625   6.989
 5112POPC   C4A65670  23.861  33.640   7.259
 5112POPC   C1B65671  23.713  33.964   6.241
 5112POPC   C2B65672  23.535  34.022   6.615
 5112POPC   C3B65673  23.735  34.070   6.986
 5112POPC   C4B65674  23.466  34.083   7.283
 5113POPC   NC365675  13.345  13.079   5.485
 5113POPC   PO465676  13.869  12.945   4.992
 5113POPC   GL165677  13.814  12.819   5.518
 5113POPC   GL265678  13.542  12.722   5.762
 5113POPC   C1A65679  13.925  12.840   6.044
 5113POPC   D2A65680  13.769  12.681   6.464
 5113POPC   C3A65681  13.977  12.789   6.838
 5113POPC   C4A65682  13.837  12.720   7.228
 5113POPC   C1B65683  13.354  12.754   6.158
 5113POPC   C2B65684  13.255  12.893   6.567
 5113POPC   C3B65685  13.447  12.706   6.902
 5113POPC   C4B65686  13.336  12.533   7.292
 5114POPC   NC365687  38.932   5.423   5.409
 5114POPC   PO465688  39.314   4.841   5.269
 5114POPC   GL165689  39.460   5.047   5.701
 5114POPC   GL265690  39.153   5.160   5.790
 5114POPC   C1A65691  39.449   5.172   6.197
 5114POPC   D2A65692  39.480   4.931   6.622
 5114POPC   C3A65693  39.318   5.140   6.979
 5114POPC   C4A65694  38.848   5.126   7.000
 5114POPC   C1B65695  38.989   5.411   6.111
 5114POPC   C2B65696  38.943   5.370   6.538
 5114POPC   C3B65697  39.098   5.571   6.886
 5114POPC   C4B65698  39.056   5.453   7.342
 5115POPC   NC365699   6.985  20.026   5.526
 5115POPC   PO465700   6.300  19.891   5.400
 5115POPC   GL165701   6.545  19.799   5.734
 5115POPC   GL265702   6.727  19.467   5.699
 5115POPC   C1A65703   6.607  19.983   6.126
 5115POPC   D2A65704   6.658  19.961   6.565
 5115POPC   C3A65705   6.395  20.016   6.897
 5115POPC   C4A65706   6.533  20.184   7.270
 5115POPC   C1B65707   6.565  19.454   6.124
 5115POPC   C2B65708   6.746  19.480   6.512
 5115POPC   C3B65709   6.730  19.599   6.958
 5115POPC   C4B65710   7.062  19.533   7.222
 5116POPC   NC365711  36.089  27.135   5.274
 5116POPC   PO465712  36.186  26.487   5.541
 5116POPC   GL165713  36.075  26.871   5.732
 5116POPC   GL265714  36.370  27.021   5.739
 5116POPC   C1A65715  35.950  27.003   6.167
 5116POPC   D2A65716  36.045  26.853   6.603
 5116POPC   C3A65717  35.798  26.837   6.988
 5116POPC   C4A65718  35.836  26.871   7.450
 5116POPC   C1B65719  36.447  27.108   6.252
 5116POPC   C2B65720  36.503  27.000   6.745
 5116POPC   C3B65721  36.290  27.001   7.187
 5116POPC   C4B65722  36.229  27.112   7.661
 5117POPC   NC365723  36.021   7.346   5.394
 5117POPC   PO465724  36.535   7.653   5.614
 5117POPC   GL165725  36.281   7.425   5.867
 5117POPC   GL265726  36.156   7.069   5.814
 5117POPC   C1A65727  36.204   7.608   6.248
 5117POPC   D2A65728  35.971   7.767   6.563
 5117POPC   C3A65729  36.126   7.639   6.925
 5117POPC   C4A65730  36.283   7.322   7.211
 5117POPC   C1B65731  35.874   7.211   6.170
 5117POPC   C2B65732  35.769   7.295   6.623
 5117POPC   C3B65733  35.798   7.282   7.090
 5117POPC   C4B65734  35.898   7.141   7.564
 5118POPC   NC365735  22.315  40.080   5.374
 5118POPC   PO465736  21.695  40.249   5.467
 5118POPC   GL165737  22.036  40.266   5.782
 5118POPC   GL265738  22.015  39.909   5.833
 5118POPC   C1A65739  22.374  40.156   6.124
 5118POPC   D2A65740  22.364  39.884   6.517
 5118POPC   C3A65741  22.346  40.054   6.940
 5118POPC   C4A65742  21.943  40.166   7.137
 5118POPC   C1B65743  21.940  39.732   6.250
 5118POPC   C2B65744  21.869  39.691   6.732
 5118POPC   C3B65745  22.092  39.649   7.161
 5118POPC   C4B65746  21.949  39.649   7.610
 5119POPC   NC365747  38.336  28.885   5.517
 5119POPC   PO465748  38.581  29.552   5.309
 5119POPC   GL165749  38.451  29.360   5.730
 5119POPC   GL265750  38.737  29.142   5.796
 5119POPC   C1A65751  38.259  29.196   6.148
 5119POPC   D2A65752  38.442  28.962   6.521
 5119POPC   C3A65753  38.336  29.115   6.951
 5119POPC   C4A65754  38.171  29.094   7.347
 5119POPC   C1B65755  38.739  29.373   6.196
 5119POPC   C2B65756  38.587  29.449   6.629
 5119POPC   C3B65757  38.828  29.184   6.952
 5119POPC   C4B65758  38.758  29.045   7.377
 5120POPC   NC365759  42.884   1.722   5.281
 5120POPC   PO465760  43.318   2.195   5.522
 5120POPC   GL165761  43.168   1.844   5.744
 5120POPC   GL265762  42.833   1.941   5.768
 5120POPC   C1A65763  43.111   1.729   6.187
 5120POPC   D2A65764  43.092   1.963   6.565
 5120POPC   C3A65765  43.027   1.817   6.958
 5120POPC   C4A65766  43.307   1.972   7.308
 5120POPC   C1B65767  42.974   2.235   6.139
 5120POPC   C2B65768  42.904   2.424   6.592
 5120POPC   C3B65769  43.012   2.336   7.030
 5120POPC   C4B65770  42.948   2.305   7.491
 5121POPC   NC365771  16.284  25.413   5.435
 5121POPC   PO465772  15.777  24.939   5.478
 5121POPC   GL165773  16.027  25.137   5.784
 5121POPC   GL265774  16.244  24.894   5.777
 5121POPC   C1A65775  15.955  25.419   6.171
 5121POPC   D2A65776  15.711  25.309   6.550
 5121POPC   C3A65777  15.925  25.310   6.939
 5121POPC   C4A65778  15.780  25.212   7.333
 5121POPC   C1B65779  16.353  25.021   6.174
 5121POPC   C2B65780  16.237  25.190   6.533
 5121POPC   C3B65781  16.301  24.972   6.902
 5121POPC   C4B65782  16.209  24.917   7.307
 5122POPC   NC365783   9.147  30.244   5.517
 5122POPC   PO465784   8.750  29.719   5.415
 5122POPC   GL165785   8.884  29.882   5.819
 5122POPC   GL265786   9.194  29.835   5.861
 5122POPC   C1A65787   8.900  30.173   6.224
 5122POPC   D2A65788   9.102  30.329   6.641
 5122POPC   C3A65789   8.929  30.142   7.029
 5122POPC   C4A65790   8.782  30.012   7.452
 5122POPC   C1B65791   9.038  29.671   6.256
 5122POPC   C2B65792   9.114  29.798   6.680
 5122POPC   C3B65793   9.301  29.824   7.091
 5122POPC   C4B65794   9.065  29.566   7.370
 5123POPC   NC365795   9.802  26.109   5.108
 5123POPC   PO465796   9.736  26.590   5.559
 5123POPC   GL165797   9.828  26.150   5.816
 5123POPC   GL265798  10.167  26.063   5.920
 5123POPC   C1A65799   9.853  25.901   6.280
 5123POPC   D2A65800  10.009  25.789   6.754
 5123POPC   C3A65801   9.755  25.883   7.147
 5123POPC   C4A65802   9.853  25.748   7.599
 5123POPC   C1B65803   9.990  26.398   6.227
 5123POPC   C2B65804   9.927  26.299   6.672
 5123POPC   C3B65805  10.010  26.381   7.107
 5123POPC   C4B65806   9.905  26.260   7.525
 5124POPC   NC365807  32.567  29.268   5.398
 5124POPC   PO465808  31.888  29.058   5.542
 5124POPC   GL165809  32.153  29.221   5.830
 5124POPC   GL265810  32.379  28.963   5.757
 5124POPC   C1A65811  32.062  29.151   6.287
 5124POPC   D2A65812  31.781  29.007   6.628
 5124POPC   C3A65813  31.817  29.276   6.978
 5124POPC   C4A65814  32.167  29.319   7.240
 5124POPC   C1B65815  32.490  28.874   6.173
 5124POPC   C2B65816  32.491  29.055   6.604
 5124POPC   C3B65817  32.216  28.911   6.934
 5124POPC   C4B65818  31.970  28.797   7.282
 5125POPC   NC365819  31.256   9.159   5.401
 5125POPC   PO465820  31.896   9.108   5.566
 5125POPC   GL165821  31.496   9.041   5.871
 5125POPC   GL265822  31.315   8.726   5.787
 5125POPC   C1A65823  31.462   8.965   6.348
 5125POPC   D2A65824  31.661   8.714   6.724
 5125POPC   C3A65825  31.670   8.994   7.082
 5125POPC   C4A65826  31.292   9.275   7.153
 5125POPC   C1B65827  31.117   8.615   6.179
 5125POPC   C2B65828  31.133   8.557   6.630
 5125POPC   C3B65829  31.191   8.711   7.043
 5125POPC   C4B65830  30.988   8.554   7.417
 5126POPC   NC365831   9.932  41.963   5.139
 5126POPC   PO465832   9.952  41.258   5.370
 5126POPC   GL165833   9.769  41.518   5.712
 5126POPC   GL265834  10.113  41.632   5.709
 5126POPC   C1A65835   9.514  41.414   6.125
 5126POPC   D2A65836   9.455  41.176   6.550
 5126POPC   C3A65837   9.520  41.299   6.996
 5126POPC   C4A65838   9.601  41.326   7.468
 5126POPC   C1B65839  10.076  41.328   6.088
 5126POPC   C2B65840   9.971  41.339   6.562
 5126POPC   C3B65841  10.020  41.364   7.029
 5126POPC   C4B65842  10.070  41.580   7.438
 5127POPC   NC365843   8.562  30.907   5.768
 5127POPC   PO465844   9.080  30.705   5.354
 5127POPC   GL165845   9.093  30.817   5.791
 5127POPC   GL265846   9.294  31.128   5.853
 5127POPC   C1A65847   9.129  30.696   6.250
 5127POPC   D2A65848   9.107  30.894   6.689
 5127POPC   C3A65849   9.036  30.653   7.085
 5127POPC   C4A65850   9.108  30.394   7.455
 5127POPC   C1B65851   9.050  31.200   6.231
 5127POPC   C2B65852   8.659  31.127   6.525
 5127POPC   C3B65853   8.604  30.913   6.936
 5127POPC   C4B65854   8.631  30.812   7.380
 5128POPC   NC365855   5.944  29.668   5.379
 5128POPC   PO465856   5.957  30.363   5.419
 5128POPC   GL165857   6.009  30.040   5.714
 5128POPC   GL265858   5.653  29.979   5.690
 5128POPC   C1A65859   5.871  29.729   6.071
 5128POPC   D2A65860   5.839  29.572   6.508
 5128POPC   C3A65861   5.858  29.807   6.882
 5128POPC   C4A65862   6.211  30.087   7.029
 5128POPC   C1B65863   5.761  30.232   6.098
 5128POPC   C2B65864   5.677  30.158   6.507
 5128POPC   C3B65865   5.700  30.294   6.918
 5128POPC   C4B65866   5.792  30.130   7.299
 5129POPC   NC365867  37.861  18.665   5.603
 5129POPC   PO465868  37.860  18.009   5.359
 5129POPC   GL165869  37.675  18.022   5.754
 5129POPC   GL265870  37.522  18.324   5.847
 5129POPC   C1A65871  37.802  18.042   6.168
 5129POPC   D2A65872  37.711  18.318   6.517
 5129POPC   C3A65873  37.587  18.133   6.901
 5129POPC   C4A65874  37.882  18.074   7.241
 5129POPC   C1B65875  37.299  18.423   6.227
 5129POPC   C2B65876  37.277  18.560   6.672
 5129POPC   C3B65877  37.436  18.582   7.111
 5129POPC   C4B65878  37.341  18.714   7.540
 5130POPC   NC365879  20.900  42.161   5.410
 5130POPC   PO465880  20.229  42.272   5.255
 5130POPC   GL165881  20.338  42.211   5.729
 5130POPC   GL265882  20.385  42.556   5.879
 5130POPC   C1A65883  20.650  42.116   6.111
 5130POPC   D2A65884  20.805  41.924   6.550
 5130POPC   C3A65885  20.632  42.155   6.934
 5130POPC   C4A65886  20.820  42.523   7.116
 5130POPC   C1B65887  20.212  42.428   6.269
 5130POPC   C2B65888  20.220  42.471   6.730
 5130POPC   C3B65889  20.299  42.505   7.167
 5130POPC   C4B65890  20.435  42.156   7.455
 5131POPC   NC365891  39.361   4.183   5.438
 5131POPC   PO465892  38.675   4.387   5.515
 5131POPC   GL165893  39.061   4.343   5.815
 5131POPC   GL265894  39.370   4.556   5.797
 5131POPC   C1A65895  39.299   4.224   6.191
 5131POPC   D2A65896  39.337   4.427   6.594
 5131POPC   C3A65897  39.270   4.186   6.966
 5131POPC   C4A65898  39.582   3.906   7.152
 5131POPC   C1B65899  39.139   4.741   6.168
 5131POPC   C2B65900  38.965   4.791   6.588
 5131POPC   C3B65901  39.114   4.682   6.999
 5131POPC   C4B65902  39.531   4.726   7.167
 5132POPC   NC365903  33.431  41.733   5.089
 5132POPC   PO465904  32.851  41.762   5.423
 5132POPC   GL165905  32.872  41.643   5.873
 5132POPC   GL265906  33.136  41.395   5.904
 5132POPC   C1A65907  32.760  41.822   6.304
 5132POPC   D2A65908  32.869  42.045   6.726
 5132POPC   C3A65909  32.975  41.805   7.082
 5132POPC   C4A65910  32.690  41.491   7.066
 5132POPC   C1B65911  33.222  41.617   6.283
 5132POPC   C2B65912  33.006  41.505   6.645
 5132POPC   C3B65913  33.101  41.211   6.956
 5132POPC   C4B65914  33.084  41.368   7.355
 5133POPC   NC365915  12.972  37.384   5.482
 5133POPC   PO465916  12.666  37.762   5.037
 5133POPC   GL165917  12.743  37.835   5.525
 5133POPC   GL265918  13.078  37.899   5.657
 5133POPC   C1A65919  12.637  37.734   5.989
 5133POPC   D2A65920  12.833  37.711   6.402
 5133POPC   C3A65921  12.612  37.698   6.769
 5133POPC   C4A65922  12.656  37.581   7.192
 5133POPC   C1B65923  13.178  37.927   6.098
 5133POPC   C2B65924  13.284  37.918   6.561
 5133POPC   C3B65925  13.051  37.874   6.948
 5133POPC   C4B65926  13.077  37.901   7.386
 5134POPC   NC365927  34.750   8.342   5.508
 5134POPC   PO465928  34.584   9.058   5.377
 5134POPC   GL165929  34.637   8.825   5.745
 5134POPC   GL265930  34.328   8.632   5.765
 5134POPC   C1A65931  34.807   8.917   6.172
 5134POPC   D2A65932  34.610   8.998   6.582
 5134POPC   C3A65933  34.806   8.848   6.948
 5134POPC   C4A65934  35.008   8.440   7.037
 5134POPC   C1B65935  34.373   8.601   6.230
 5134POPC   C2B65936  34.193   8.695   6.647
 5134POPC   C3B65937  34.357   8.655   7.094
 5134POPC   C4B65938  34.282   8.764   7.551
 5135POPC   NC365939   2.504  39.498   5.220
 5135POPC   PO465940   2.956  39.125   5.466
 5135POPC   GL165941   2.840  39.284   5.854
 5135POPC   GL265942   2.539  39.468   5.719
 5135POPC   C1A65943   2.769  39.134   6.272
 5135POPC   D2A65944   2.937  39.230   6.653
 5135POPC   C3A65945   2.744  39.112   7.005
 5135POPC   C4A65946   2.944  39.214   7.332
 5135POPC   C1B65947   2.459  39.509   6.125
 5135POPC   C2B65948   2.699  39.629   6.452
 5135POPC   C3B65949   2.687  39.626   6.882
 5135POPC   C4B65950   2.525  39.497   7.265
 5136POPC   NC365951  41.005   7.894   5.312
 5136POPC   PO465952  40.556   8.383   5.181
 5136POPC   GL165953  40.654   8.187   5.635
 5136POPC   GL265954  41.010   8.177   5.723
 5136POPC   C1A65955  40.732   8.107   6.128
 5136POPC   D2A65956  40.733   8.319   6.524
 5136POPC   C3A65957  40.823   8.206   6.938
 5136POPC   C4A65958  40.661   8.030   7.306
 5136POPC   C1B65959  41.158   8.414   6.051
 5136POPC   C2B65960  41.061   8.707   6.370
 5136POPC   C3B65961  40.967   8.699   6.798
 5136POPC   C4B65962  41.274   8.511   7.067
 5137POPC   NC365963  44.779  27.403   5.485
 5137POPC   PO465964  44.593  28.079   5.402
 5137POPC   GL165965  44.671  27.824   5.802
 5137POPC   GL265966  44.520  27.499   5.903
 5137POPC   C1A65967  44.945  27.802   6.182
 5137POPC   D2A65968   0.025  27.817   6.641
 5137POPC   C3A65969  44.714  27.786   6.957
 5137POPC   C4A65970  44.523  27.693   7.345
 5137POPC   C1B65971  44.756  27.329   6.268
 5137POPC   C2B65972  44.675  27.332   6.716
 5137POPC   C3B65973  44.788  27.287   7.145
 5137POPC   C4B65974  44.572  27.172   7.519
 5138POPC   NC365975  24.834  36.272   5.534
 5138POPC   PO465976  25.478  35.931   5.429
 5138POPC   GL165977  25.361  36.141   5.803
 5138POPC   GL265978  25.038  36.056   5.933
 5138POPC   C1A65979  25.522  36.149   6.220
 5138POPC   D2A65980  25.607  36.335   6.600
 5138POPC   C3A65981  25.406  36.144   6.936
 5138POPC   C4A65982  25.622  36.227   7.291
 5138POPC   C1B65983  24.899  36.256   6.298
 5138POPC   C2B65984  24.882  36.161   6.739
 5138POPC   C3B65985  24.968  36.301   7.172
 5138POPC   C4B65986  25.010  36.006   7.516
 5139POPC   NC365987  37.770   2.326   5.421
 5139POPC   PO465988  37.841   1.633   5.516
 5139POPC   GL165989  37.688   1.815   5.874
 5139POPC   GL265990  37.611   2.128   5.875
 5139POPC   C1A65991  37.578   1.666   6.258
 5139POPC   D2A65992  37.407   1.586   6.654
 5139POPC   C3A65993  37.601   1.706   7.043
 5139POPC   C4A65994  37.828   1.955   7.350
 5139POPC   C1B65995  37.639   2.234   6.328
 5139POPC   C2B65996  37.511   2.167   6.776
 5139POPC   C3B65997  37.617   2.403   7.170
 5139POPC   C4B65998  37.528   2.327   7.627
 5140POPC   NC365999  35.736  26.453   5.355
 5140POPC   PO466000  35.164  26.723   5.603
 5140POPC   GL166001  35.357  26.817   5.950
 5140POPC   GL266002  35.656  26.650   5.916
 5140POPC   C1A66003  35.182  26.846   6.339
 5140POPC   D2A66004  35.302  26.794   6.757
 5140POPC   C3A66005  35.161  27.105   7.036
 5140POPC   C4A66006  35.438  27.192   7.384
 5140POPC   C1B66007  35.642  26.643   6.377
 5140POPC   C2B66008  35.816  26.393   6.699
 5140POPC   C3B66009  35.518  26.387   7.011
 5140POPC   C4B66010  35.375  26.690   7.275
 5141POPC   NC366011  10.836  26.953   5.414
 5141POPC   PO466012  10.423  26.580   5.201
 5141POPC   GL166013  10.542  26.703   5.705
 5141POPC   GL266014  10.432  26.494   5.963
 5141POPC   C1A66015  10.615  26.952   6.089
 5141POPC   D2A66016  10.700  26.932   6.533
 5141POPC   C3A66017  10.468  27.094   6.877
 5141POPC   C4A66018  10.754  27.107   7.209
 5141POPC   C1B66019  10.465  26.511   6.360
 5141POPC   C2B66020  10.323  26.623   6.727
 5141POPC   C3B66021  10.476  26.645   7.126
 5141POPC   C4B66022  10.417  26.393   7.463
 5142POPC   NC366023  15.465  10.767   5.366
 5142POPC   PO466024  14.816  10.682   5.691
 5142POPC   GL166025  15.231  10.657   5.836
 5142POPC   GL266026  15.446  10.391   5.724
 5142POPC   C1A66027  15.238  10.785   6.253
 5142POPC   D2A66028  14.929  10.701   6.595
 5142POPC   C3A66029  15.035  10.825   7.019
 5142POPC   C4A66030  14.958  10.696   7.452
 5142POPC   C1B66031  15.409  10.279   6.163
 5142POPC   C2B66032  15.477  10.461   6.549
 5142POPC   C3B66033  15.382  10.450   6.953
 5142POPC   C4B66034  15.631  10.670   7.220
 5143POPC   NC366035  35.075  23.821   5.405
 5143POPC   PO466036  34.420  23.725   5.348
 5143POPC   GL166037  34.569  23.635   5.732
 5143POPC   GL266038  34.889  23.441   5.681
 5143POPC   C1A66039  34.447  23.798   6.163
 5143POPC   D2A66040  34.562  24.157   6.465
 5143POPC   C3A66041  34.775  24.070   6.877
 5143POPC   C4A66042  34.669  23.947   7.301
 5143POPC   C1B66043  34.846  23.455   6.119
 5143POPC   C2B66044  34.954  23.464   6.562
 5143POPC   C3B66045  34.729  23.533   6.952
 5143POPC   C4B66046  34.547  23.332   7.304
 5144POPC   NC366047  25.943  35.957   5.445
 5144POPC   PO466048  26.262  36.545   5.518
 5144POPC   GL166049  26.017  36.251   5.881
 5144POPC   GL266050  25.831  35.893   5.918
 5144POPC   C1A66051  26.051  36.109   6.347
 5144POPC   D2A66052  26.378  36.143   6.693
 5144POPC   C3A66053  26.357  36.450   7.007
 5144POPC   C4A66054  26.121  36.352   7.383
 5144POPC   C1B66055  25.745  35.660   6.288
 5144POPC   C2B66056  25.683  35.819   6.680
 5144POPC   C3B66057  25.971  35.976   7.036
 5144POPC   C4B66058  25.990  35.879   7.521
 5145POPC   NC366059  10.868  18.561   5.541
 5145POPC   PO466060  10.427  18.148   5.217
 5145POPC   GL166061  10.439  18.206   5.676
 5145POPC   GL266062  10.126  18.330   5.816
 5145POPC   C1A66063  10.584  18.339   6.116
 5145POPC   D2A66064  10.473  18.300   6.549
 5145POPC   C3A66065  10.388  18.584   6.899
 5145POPC   C4A66066  10.291  18.484   7.351
 5145POPC   C1B66067  10.011  18.086   6.196
 5145POPC   C2B66068  10.125  17.929   6.596
 5145POPC   C3B66069  10.214  18.127   6.999
 5145POPC   C4B66070  10.008  18.060   7.447
 5146POPC   NC366071  31.704  16.205   5.552
 5146POPC   PO466072  31.718  15.622   5.569
 5146POPC   GL166073  31.441  15.867   5.858
 5146POPC   GL266074  31.493  16.238   6.000
 5146POPC   C1A66075  31.402  15.821   6.285
 5146POPC   D2A66076  31.597  15.989   6.642
 5146POPC   C3A66077  31.527  15.711   6.970
 5146POPC   C4A66078  31.422  15.716   7.429
 5146POPC   C1B66079  31.178  16.268   6.328
 5146POPC   C2B66080  31.151  16.190   6.774
 5146POPC   C3B66081  31.389  16.169   7.168
 5146POPC   C4B66082  31.211  16.215   7.612
 5147POPC   NC366083  24.881   3.680   5.425
 5147POPC   PO466084  25.454   3.888   5.160
 5147POPC   GL166085  25.312   3.600   5.673
 5147POPC   GL266086  24.968   3.463   5.871
 5147POPC   C1A66087  25.399   3.456   6.130
 5147POPC   D2A66088  25.354   3.564   6.600
 5147POPC   C3A66089  25.599   3.566   6.995
 5147POPC   C4A66090  25.447   3.674   7.424
 5147POPC   C1B66091  24.849   3.691   6.263
 5147POPC   C2B66092  24.884   3.757   6.709
 5147POPC   C3B66093  25.093   3.627   7.069
 5147POPC   C4B66094  24.983   3.415   7.454
 5148POPC   NC366095  26.979   5.588   5.533
 5148POPC   PO466096  26.644   5.079   5.469
 5148POPC   GL166097  26.709   5.288   5.862
 5148POPC   GL266098  27.066   5.169   5.874
 5148POPC   C1A66099  26.810   5.221   6.316
 5148POPC   D2A66100  26.767   4.941   6.673
 5148POPC   C3A66101  26.923   5.136   7.050
 5148POPC   C4A66102  26.697   5.102   7.411
 5148POPC   C1B66103  27.008   4.770   6.147
 5148POPC   C2B66104  27.191   4.625   6.567
 5148POPC   C3B66105  27.140   4.691   6.981
 5148POPC   C4B66106  27.185   4.867   7.413
 5149POPC   NC366107  20.205   1.278   5.349
 5149POPC   PO466108  20.781   1.330   5.064
 5149POPC   GL166109  20.665   1.046   5.508
 5149POPC   GL266110  20.351   1.084   5.785
 5149POPC   C1A66111  20.798   0.961   5.982
 5149POPC   D2A66112  20.802   1.092   6.449
 5149POPC   C3A66113  20.531   1.014   6.812
 5149POPC   C4A66114  20.628   1.121   7.225
 5149POPC   C1B66115  20.467   1.356   6.155
 5149POPC   C2B66116  20.402   1.460   6.579
 5149POPC   C3B66117  20.535   1.571   6.981
 5149POPC   C4B66118  20.400   1.526   7.433
 5150POPC   NC366119  35.048  20.488   5.234
 5150POPC   PO466120  34.346  20.630   5.377
 5150POPC   GL166121  34.442  20.714   5.839
 5150POPC   GL266122  34.819  20.701   5.776
 5150POPC   C1A66123  34.299  20.663   6.314
 5150POPC   D2A66124  34.468  20.378   6.646
 5150POPC   C3A66125  34.396  20.325   7.094
 5150POPC   C4A66126  34.772  20.440   7.302
 5150POPC   C1B66127  34.781  20.877   6.216
 5150POPC   C2B66128  34.589  20.972   6.621
 5150POPC   C3B66129  34.549  20.867   7.066
 5150POPC   C4B66130  34.797  21.139   7.336
 5151POPC   NC366131  33.249   1.426   5.432
 5151POPC   PO466132  32.793   0.843   5.254
 5151POPC   GL166133  32.800   0.994   5.700
 5151POPC   GL266134  33.159   1.106   5.828
 5151POPC   C1A66135  32.792   1.070   6.164
 5151POPC   D2A66136  32.984   1.298   6.497
 5151POPC   C3A66137  33.061   1.065   6.860
 5151POPC   C4A66138  32.936   1.190   7.237
 5151POPC   C1B66139  33.339   1.460   6.132
 5151POPC   C2B66140  33.337   1.676   6.568
 5151POPC   C3B66141  33.234   1.542   6.998
 5151POPC   C4B66142  33.175   1.605   7.461
 5152POPC   NC366143  42.558  40.900   5.518
 5152POPC   PO466144  43.045  40.898   5.054
 5152POPC   GL166145  43.165  40.927   5.519
 5152POPC   GL266146  42.963  40.688   5.729
 5152POPC   C1A66147  43.228  41.004   6.012
 5152POPC   D2A66148  43.002  41.212   6.389
 5152POPC   C3A66149  43.028  41.119   6.850
 5152POPC   C4A66150  42.982  40.892   7.285
 5152POPC   C1B66151  42.781  40.782   6.157
 5152POPC   C2B66152  42.886  40.707   6.601
 5152POPC   C3B66153  43.220  40.614   6.933
 5152POPC   C4B66154  43.192  40.430   7.364
 5153POPC   NC366155  30.900  31.085   5.480
 5153POPC   PO466156  31.556  31.394   5.204
 5153POPC   GL166157  31.673  31.300   5.681
 5153POPC   GL266158  31.330  31.236   5.744
 5153POPC   C1A66159  31.562  31.449   6.145
 5153POPC   D2A66160  31.373  31.589   6.549
 5153POPC   C3A66161  31.510  31.408   6.948
 5153POPC   C4A66162  31.411  31.577   7.357
 5153POPC   C1B66163  31.101  31.214   6.149
 5153POPC   C2B66164  31.040  31.191   6.582
 5153POPC   C3B66165  31.184  31.020   6.950
 5153POPC   C4B66166  31.125  31.157   7.339
 5154POPC   NC366167   2.086  26.807   5.474
 5154POPC   PO466168   1.415  26.593   5.304
 5154POPC   GL166169   1.553  26.667   5.745
 5154POPC   GL266170   1.799  26.954   5.869
 5154POPC   C1A66171   1.714  26.558   6.166
 5154POPC   D2A66172   1.835  26.861   6.484
 5154POPC   C3A66173   1.885  26.705   6.892
 5154POPC   C4A66174   1.806  26.874   7.301
 5154POPC   C1B66175   2.183  26.771   6.120
 5154POPC   C2B66176   2.264  26.543   6.524
 5154POPC   C3B66177   2.384  26.701   6.927
 5154POPC   C4B66178   2.485  26.620   7.336
 5155POPC   NC366179   6.339  17.029   5.337
 5155POPC   PO466180   6.723  16.501   5.433
 5155POPC   GL166181   6.645  16.825   5.732
 5155POPC   GL266182   6.926  17.073   5.691
 5155POPC   C1A66183   6.693  16.719   6.172
 5155POPC   D2A66184   6.473  16.811   6.549
 5155POPC   C3A66185   6.560  16.718   6.966
 5155POPC   C4A66186   6.399  17.009   7.331
 5155POPC   C1B66187   7.113  16.980   6.093
 5155POPC   C2B66188   6.947  17.000   6.510
 5155POPC   C3B66189   6.998  16.992   6.930
 5155POPC   C4B66190   6.888  16.858   7.324
 5156POPC   NC366191  18.496  21.857   5.442
 5156POPC   PO466192  17.901  22.233   5.435
 5156POPC   GL166193  18.220  22.222   5.760
 5156POPC   GL266194  18.584  22.290   5.715
 5156POPC   C1A66195  18.260  22.045   6.162
 5156POPC   D2A66196  18.201  21.842   6.560
 5156POPC   C3A66197  18.208  21.902   7.001
 5156POPC   C4A66198  18.041  22.248   7.241
 5156POPC   C1B66199  18.753  22.097   6.060
 5156POPC   C2B66200  18.639  22.166   6.481
 5156POPC   C3B66201  18.412  22.322   6.847
 5156POPC   C4B66202  18.573  22.147   7.264
 5157POPC   NC366203  34.527  20.042   5.601
 5157POPC   PO466204  34.779  19.331   5.490
 5157POPC   GL166205  34.625  19.582   5.823
 5157POPC   GL266206  34.951  19.762   5.795
 5157POPC   C1A66207  34.389  19.723   6.212
 5157POPC   D2A66208  34.262  19.903   6.632
 5157POPC   C3A66209  34.389  19.653   7.005
 5157POPC   C4A66210  34.427  19.871   7.392
 5157POPC   C1B66211  34.930  19.662   6.226
 5157POPC   C2B66212  34.719  19.678   6.611
 5157POPC   C3B66213  34.758  19.996   6.945
 5157POPC   C4B66214  34.926  19.958   7.356
 5158POPC   NC366215  13.167  44.503   5.514
 5158POPC   PO466216  12.689   0.055   5.802
 5158POPC   GL166217  12.954  44.771   5.891
 5158POPC   GL266218  13.255  44.952   5.715
 5158POPC   C1A66219  12.990  44.462   6.242
 5158POPC   D2A66220  13.009  44.227   6.651
 5158POPC   C3A66221  12.751  44.431   6.999
 5158POPC   C4A66222  12.671  44.488   7.458
 5158POPC   C1B66223  13.403  44.767   6.111
 5158POPC   C2B66224  13.438  44.671   6.526
 5158POPC   C3B66225  13.276  44.590   6.915
 5158POPC   C4B66226  13.039  44.800   7.221
 5159POPC   NC366227   4.584  43.361   4.987
 5159POPC   PO466228   4.016  43.186   5.328
 5159POPC   GL166229   4.148  43.146   5.770
 5159POPC   GL266230   4.457  42.966   5.799
 5159POPC   C1A66231   4.171  43.021   6.204
 5159POPC   D2A66232   4.453  42.918   6.517
 5159POPC   C3A66233   4.238  42.943   6.874
 5159POPC   C4A66234   4.237  43.114   7.266
 5159POPC   C1B66235   4.588  43.302   6.104
 5159POPC   C2B66236   4.682  43.408   6.511
 5159POPC   C3B66237   4.473  43.401   6.894
 5159POPC   C4B66238   4.601  43.563   7.257
 5160POPC   NC366239   6.839  19.081   5.328
 5160POPC   PO466240   6.259  19.135   5.630
 5160POPC   GL166241   6.588  18.973   5.900
 5160POPC   GL266242   6.909  18.973   5.813
 5160POPC   C1A66243   6.734  18.991   6.320
 5160POPC   D2A66244   6.514  19.042   6.672
 5160POPC   C3A66245   6.683  18.813   6.986
 5160POPC   C4A66246   6.636  19.164   7.249
 5160POPC   C1B66247   7.066  19.292   6.084
 5160POPC   C2B66248   7.187  19.232   6.491
 5160POPC   C3B66249   7.007  19.176   6.844
 5160POPC   C4B66250   7.180  19.044   7.193
 5161POPC   NC366251  28.093  41.936   5.614
 5161POPC   PO466252  28.401  41.350   5.433
 5161POPC   GL166253  28.275  41.336   5.851
 5161POPC   GL266254  28.603  41.162   5.886
 5161POPC   C1A66255  28.135  41.214   6.281
 5161POPC   D2A66256  28.267  41.204   6.710
 5161POPC   C3A66257  28.270  41.600   6.967
 5161POPC   C4A66258  28.219  41.866   7.366
 5161POPC   C1B66259  28.629  41.396   6.258
 5161POPC   C2B66260  28.713  41.475   6.677
 5161POPC   C3B66261  28.648  41.262   7.061
 5161POPC   C4B66262  28.695  41.199   7.537
 5162POPC   NC366263  25.954  33.593   5.464
 5162POPC   PO466264  26.258  34.149   5.535
 5162POPC   GL166265  26.075  33.917   5.851
 5162POPC   GL266266  26.303  33.677   5.859
 5162POPC   C1A66267  25.858  33.855   6.254
 5162POPC   D2A66268  25.879  33.637   6.651
 5162POPC   C3A66269  25.990  33.847   7.046
 5162POPC   C4A66270  25.883  34.007   7.483
 5162POPC   C1B66271  26.420  33.759   6.252
 5162POPC   C2B66272  26.364  33.519   6.607
 5162POPC   C3B66273  26.450  33.648   6.974
 5162POPC   C4B66274  26.365  33.769   7.411
 5163POPC   NC366275   0.757  44.723   5.365
 5163POPC   PO466276   0.152  44.953   5.513
 5163POPC   GL166277   0.478  44.831   5.838
 5163POPC   GL266278   0.608  44.501   5.794
 5163POPC   C1A66279   0.469  44.751   6.316
 5163POPC   D2A66280   0.496  44.704   6.794
 5163POPC   C3A66281   0.355  44.992   7.116
 5163POPC   C4A66282   0.269   0.121   7.554
 5163POPC   C1B66283   0.529  44.264   6.152
 5163POPC   C2B66284   0.335  44.202   6.536
 5163POPC   C3B66285   0.542  44.203   6.903
 5163POPC   C4B66286   0.673  44.323   7.286
 5164POPC   NC366287  11.866  15.276   5.544
 5164POPC   PO466288  12.472  14.941   5.678
 5164POPC   GL166289  12.149  15.139   5.950
 5164POPC   GL266290  12.218  15.511   5.908
 5164POPC   C1A66291  11.882  15.100   6.339
 5164POPC   D2A66292  11.889  15.396   6.703
 5164POPC   C3A66293  11.921  15.222   7.121
 5164POPC   C4A66294  11.875  15.403   7.546
 5164POPC   C1B66295  12.299  15.422   6.366
 5164POPC   C2B66296  12.285  15.071   6.710
 5164POPC   C3B66297  12.280  14.849   7.153
 5164POPC   C4B66298  12.319  14.932   7.633
 5165POPC   NC366299  35.695   6.810   5.526
 5165POPC   PO466300  35.059   6.933   5.500
 5165POPC   GL166301  35.188   6.581   5.778
 5165POPC   GL266302  35.510   6.395   5.775
 5165POPC   C1A66303  35.171   6.435   6.216
 5165POPC   D2A66304  34.924   6.427   6.602
 5165POPC   C3A66305  35.047   6.622   6.973
 5165POPC   C4A66306  35.470   6.554   7.051
 5165POPC   C1B66307  35.670   6.341   6.173
 5165POPC   C2B66308  35.539   6.300   6.594
 5165POPC   C3B66309  35.812   6.174   6.918
 5165POPC   C4B66310  35.756   6.157   7.343
 5166POPC   NC366311  30.947  16.828   5.505
 5166POPC   PO466312  30.366  16.865   5.721
 5166POPC   GL166313  30.653  16.491   5.812
 5166POPC   GL266314  31.047  16.507   5.887
 5166POPC   C1A66315  30.670  16.310   6.209
 5166POPC   D2A66316  30.809  16.519   6.583
 5166POPC   C3A66317  30.584  16.509   6.937
 5166POPC   C4A66318  30.358  16.825   7.159
 5166POPC   C1B66319  30.907  16.845   6.171
 5166POPC   C2B66320  30.994  17.079   6.553
 5166POPC   C3B66321  30.927  16.911   6.942
 5166POPC   C4B66322  31.131  16.598   7.118
 5167POPC   NC366323   0.802  26.193   5.308
 5167POPC   PO466324   0.159  26.024   5.455
 5167POPC   GL166325   0.334  25.974   5.848
 5167POPC   GL266326   0.670  26.071   5.795
 5167POPC   C1A66327   0.505  25.852   6.259
 5167POPC   D2A66328   0.771  25.909   6.609
 5167POPC   C3A66329   0.496  25.954   6.963
 5167POPC   C4A66330   0.250  26.039   7.325
 5167POPC   C1B66331   0.718  26.312   6.168
 5167POPC   C2B66332   0.556  26.378   6.616
 5167POPC   C3B66333   0.553  26.464   7.087
 5167POPC   C4B66334   0.635  26.421   7.543
 5168POPC   NC366335  25.683  40.394   5.321
 5168POPC   PO466336  26.084  40.979   5.476
 5168POPC   GL166337  26.117  40.821   5.929
 5168POPC   GL266338  26.273  40.465   5.946
 5168POPC   C1A66339  25.975  40.957   6.354
 5168POPC   D2A66340  26.016  40.713   6.744
 5168POPC   C3A66341  25.976  40.995   7.096
 5168POPC   C4A66342  25.965  41.263   7.474
 5168POPC   C1B66343  26.077  40.298   6.272
 5168POPC   C2B66344  25.875  40.195   6.643
 5168POPC   C3B66345  25.967  40.294   7.060
 5168POPC   C4B66346  26.000  40.583   7.392
 5169POPC   NC366347   7.573  43.464   5.615
 5169POPC   PO466348   7.072  42.877   5.455
 5169POPC   GL166349   7.210  43.128   5.747
 5169POPC   GL266350   7.539  43.008   5.827
 5169POPC   C1A66351   7.209  43.294   6.162
 5169POPC   D2A66352   7.425  43.300   6.573
 5169POPC   C3A66353   7.219  43.212   6.965
 5169POPC   C4A66354   7.450  43.178   7.343
 5169POPC   C1B66355   7.457  42.832   6.197
 5169POPC   C2B66356   7.388  42.785   6.599
 5169POPC   C3B66357   7.631  42.913   6.936
 5169POPC   C4B66358   7.843  42.670   7.212
 5170POPC   NC366359   7.785  41.163   5.570
 5170POPC   PO466360   7.540  40.604   5.328
 5170POPC   GL166361   7.359  40.618   5.780
 5170POPC   GL266362   7.682  40.757   5.886
 5170POPC   C1A66363   7.381  40.574   6.242
 5170POPC   D2A66364   7.701  40.607   6.574
 5170POPC   C3A66365   7.534  40.646   6.988
 5170POPC   C4A66366   7.245  40.955   7.041
 5170POPC   C1B66367   7.660  41.078   6.251
 5170POPC   C2B66368   7.675  41.306   6.644
 5170POPC   C3B66369   7.719  41.154   7.045
 5170POPC   C4B66370   7.667  40.940   7.439
 5171POPC   NC366371   2.318  35.038   5.523
 5171POPC   PO466372   2.050  35.602   5.390
 5171POPC   GL166373   2.001  35.351   5.780
 5171POPC   GL266374   1.671  35.246   5.926
 5171POPC   C1A66375   2.072  35.402   6.207
 5171POPC   D2A66376   1.716  35.479   6.483
 5171POPC   C3A66377   1.857  35.620   6.877
 5171POPC   C4A66378   1.828  35.586   7.305
 5171POPC   C1B66379   1.767  34.995   6.275
 5171POPC   C2B66380   2.024  35.116   6.641
 5171POPC   C3B66381   1.793  35.106   6.978
 5171POPC   C4B66382   1.730  34.707   7.183
 5172POPC   NC366383  29.112  35.799   5.413
 5172POPC   PO466384  29.301  35.117   5.344
 5172POPC   GL166385  29.230  35.356   5.738
 5172POPC   GL266386  28.918  35.474   5.922
 5172POPC   C1A66387  29.291  35.176   6.151
 5172POPC   D2A66388  29.441  35.010   6.556
 5172POPC   C3A66389  29.126  35.148   6.862
 5172POPC   C4A66390  29.094  35.355   7.277
 5172POPC   C1B66391  29.031  35.599   6.381
 5172POPC   C2B66392  29.035  35.686   6.858
 5172POPC   C3B66393  28.759  35.729   7.215
 5172POPC   C4B66394  28.731  35.472   7.607
 5173POPC   NC366395   4.520  38.569   5.365
 5173POPC   PO466396   3.838  38.655   5.485
 5173POPC   GL166397   4.140  38.583   5.854
 5173POPC   GL266398   4.377  38.283   5.875
 5173POPC   C1A66399   4.302  38.553   6.307
 5173POPC   D2A66400   4.448  38.244   6.636
 5173POPC   C3A66401   4.473  38.440   7.046
 5173POPC   C4A66402   4.396  38.870   7.182
 5173POPC   C1B66403   4.050  38.128   6.185
 5173POPC   C2B66404   3.934  38.144   6.623
 5173POPC   C3B66405   4.158  38.031   7.025
 5173POPC   C4B66406   4.401  38.111   7.441
 5174POPC   NC366407  11.568  42.394   5.396
 5174POPC   PO466408  11.031  42.797   5.377
 5174POPC   GL166409  11.174  42.462   5.727
 5174POPC   GL266410  11.010  42.154   5.914
 5174POPC   C1A66411  11.389  42.397   6.142
 5174POPC   D2A66412  11.255  42.162   6.505
 5174POPC   C3A66413  11.331  42.323   6.910
 5174POPC   C4A66414  11.070  42.572   7.196
 5174POPC   C1B66415  10.799  42.030   6.320
 5174POPC   C2B66416  10.828  41.956   6.786
 5174POPC   C3B66417  11.018  42.044   7.212
 5174POPC   C4B66418  11.258  41.966   7.622
 5175POPC   NC366419   2.471  16.346   5.536
 5175POPC   PO466420   1.955  16.786   5.347
 5175POPC   GL166421   2.045  16.638   5.734
 5175POPC   GL266422   2.319  16.763   5.867
 5175POPC   C1A66423   1.944  16.556   6.167
 5175POPC   D2A66424   1.991  16.848   6.506
 5175POPC   C3A66425   2.015  16.628   6.888
 5175POPC   C4A66426   1.969  16.667   7.325
 5175POPC   C1B66427   2.353  17.140   6.111
 5175POPC   C2B66428   2.344  17.262   6.540
 5175POPC   C3B66429   2.215  17.107   6.945
 5175POPC   C4B66430   2.270  17.090   7.405
 5176POPC   NC366431  10.056  22.352   5.568
 5176POPC   PO466432   9.522  21.935   5.396
 5176POPC   GL166433   9.640  21.977   5.838
 5176POPC   GL266434   9.519  22.308   5.869
 5176POPC   C1A66435   9.929  22.074   6.227
 5176POPC   D2A66436  10.142  22.367   6.566
 5176POPC   C3A66437  10.019  22.446   7.004
 5176POPC   C4A66438  10.043  22.184   7.396
 5176POPC   C1B66439   9.428  22.171   6.282
 5176POPC   C2B66440   9.623  22.229   6.689
 5176POPC   C3B66441   9.537  22.270   7.131
 5176POPC   C4B66442   9.330  22.503   7.481
 5177POPC   NC366443  36.743  41.592   5.051
 5177POPC   PO466444  37.231  41.655   5.526
 5177POPC   GL166445  36.782  41.613   5.718
 5177POPC   GL266446  36.711  41.272   5.839
 5177POPC   C1A66447  36.592  41.635   6.168
 5177POPC   D2A66448  36.728  41.524   6.599
 5177POPC   C3A66449  36.912  41.761   6.935
 5177POPC   C4A66450  36.645  41.658   7.270
 5177POPC   C1B66451  37.051  41.416   6.134
 5177POPC   C2B66452  37.242  41.459   6.563
 5177POPC   C3B66453  37.274  41.146   6.876
 5177POPC   C4B66454  37.035  41.302   7.214
 5178POPC   NC366455  16.104  34.370   5.096
 5178POPC   PO466456  15.539  34.629   5.387
 5178POPC   GL166457  15.677  34.652   5.817
 5178POPC   GL266458  16.052  34.577   5.822
 5178POPC   C1A66459  15.733  34.589   6.261
 5178POPC   D2A66460  15.915  34.740   6.648
 5178POPC   C3A66461  15.674  34.467   6.903
 5178POPC   C4A66462  15.440  34.377   7.243
 5178POPC   C1B66463  16.271  34.649   6.243
 5178POPC   C2B66464  16.406  34.517   6.661
 5178POPC   C3B66465  16.194  34.559   7.066
 5178POPC   C4B66466  16.185  34.842   7.437
 5179POPC   NC366467  14.088  30.871   5.260
 5179POPC   PO466468  14.556  30.499   5.547
 5179POPC   GL166469  14.427  30.809   5.848
 5179POPC   GL266470  14.173  31.073   5.744
 5179POPC   C1A66471  14.537  30.682   6.268
 5179POPC   D2A66472  14.666  30.380   6.582
 5179POPC   C3A66473  14.627  30.627   6.945
 5179POPC   C4A66474  14.263  30.560   7.184
 5179POPC   C1B66475  14.190  31.062   6.217
 5179POPC   C2B66476  14.231  30.860   6.644
 5179POPC   C3B66477  14.098  31.030   7.024
 5179POPC   C4B66478  14.294  31.260   7.370
 5180POPC   NC366479  14.682  19.536   5.448
 5180POPC   PO466480  14.278  18.890   5.474
 5180POPC   GL166481  14.383  19.074   5.860
 5180POPC   GL266482  14.677  19.228   5.866
 5180POPC   C1A66483  14.436  19.163   6.341
 5180POPC   D2A66484  14.327  19.499   6.674
 5180POPC   C3A66485  14.450  19.333   7.077
 5180POPC   C4A66486  14.505  18.951   7.301
 5180POPC   C1B66487  14.714  18.805   6.122
 5180POPC   C2B66488  14.639  18.731   6.561
 5180POPC   C3B66489  14.797  18.680   6.982
 5180POPC   C4B66490  15.039  18.692   7.361
 5181POPC   NC366491  12.148  43.430   5.439
 5181POPC   PO466492  11.904  42.747   5.389
 5181POPC   GL166493  11.929  43.032   5.711
 5181POPC   GL266494  12.300  43.037   5.759
 5181POPC   C1A66495  11.951  43.262   6.082
 5181POPC   D2A66496  12.207  43.312   6.468
 5181POPC   C3A66497  12.024  43.320   6.892
 5181POPC   C4A66498  11.780  43.597   7.156
 5181POPC   C1B66499  12.215  42.835   6.179
 5181POPC   C2B66500  12.050  42.842   6.622
 5181POPC   C3B66501  12.241  42.881   7.043
 5181POPC   C4B66502  12.273  42.831   7.498
 5182POPC   NC366503  13.730  41.303   5.468
 5182POPC   PO466504  13.393  41.943   5.510
 5182POPC   GL166505  13.615  41.718   5.800
 5182POPC   GL266506  13.389  41.464   5.804
 5182POPC   C1A66507  13.742  41.486   6.169
 5182POPC   D2A66508  13.586  41.344   6.554
 5182POPC   C3A66509  13.682  41.599   6.905
 5182POPC   C4A66510  13.629  41.488   7.349
 5182POPC   C1B66511  13.269  41.753   6.175
 5182POPC   C2B66512  13.268  41.764   6.641
 5182POPC   C3B66513  13.293  41.849   7.120
 5182POPC   C4B66514  13.420  41.939   7.555
 5183POPC   NC366515  14.981  32.961   5.541
 5183POPC   PO466516  15.458  33.341   5.370
 5183POPC   GL166517  15.426  33.114   5.804
 5183POPC   GL266518  15.342  32.743   5.854
 5183POPC   C1A66519  15.338  33.065   6.259
 5183POPC   D2A66520  15.215  32.972   6.694
 5183POPC   C3A66521  15.433  33.111   7.085
 5183POPC   C4A66522  15.255  33.248   7.498
 5183POPC   C1B66523  14.995  32.680   6.207
 5183POPC   C2B66524  14.820  32.664   6.648
 5183POPC   C3B66525  15.026  32.668   7.061
 5183POPC   C4B66526  15.118  32.734   7.480
 5184POPC   NC366527  28.602  39.932   5.634
 5184POPC   PO466528  29.202  40.057   5.266
 5184POPC   GL166529  29.093  40.142   5.700
 5184POPC   GL266530  29.203  39.827   5.864
 5184POPC   C1A66531  29.048  40.184   6.172
 5184POPC   D2A66532  29.235  40.014   6.547
 5184POPC   C3A66533  29.333  40.184   6.934
 5184POPC   C4A66534  29.187  40.067   7.335
 5184POPC   C1B66535  28.915  39.671   6.225
 5184POPC   C2B66536  28.847  39.726   6.683
 5184POPC   C3B66537  29.191  39.684   6.991
 5184POPC   C4B66538  29.345  39.580   7.422
 5185POPC   NC366539  21.713   6.712   5.400
 5185POPC   PO466540  21.076   6.611   5.140
 5185POPC   GL166541  21.278   6.753   5.647
 5185POPC   GL266542  21.515   6.573   5.854
 5185POPC   C1A66543  21.265   6.833   6.174
 5185POPC   D2A66544  21.109   6.648   6.584
 5185POPC   C3A66545  21.117   6.772   7.009
 5185POPC   C4A66546  21.408   7.026   7.198
 5185POPC   C1B66547  21.337   6.317   6.214
 5185POPC   C2B66548  21.440   6.136   6.624
 5185POPC   C3B66549  21.394   6.349   7.029
 5185POPC   C4B66550  21.451   6.459   7.492
 5186POPC   NC366551   2.436  10.814   5.370
 5186POPC   PO466552   2.306  10.179   5.517
 5186POPC   GL166553   2.108  10.320   5.904
 5186POPC   GL266554   1.795  10.501   5.837
 5186POPC   C1A66555   1.956  10.395   6.323
 5186POPC   D2A66556   1.975  10.684   6.649
 5186POPC   C3A66557   2.232  10.503   6.966
 5186POPC   C4A66558   2.242  10.270   7.319
 5186POPC   C1B66559   1.524  10.227   6.126
 5186POPC   C2B66560   1.510  10.376   6.574
 5186POPC   C3B66561   1.738  10.336   6.937
 5186POPC   C4B66562   1.762  10.115   7.280
 5187POPC   NC366563  39.958  34.407   5.163
 5187POPC   PO466564  40.387  34.740   5.567
 5187POPC   GL166565  40.118  34.729   5.914
 5187POPC   GL266566  39.794  34.682   5.787
 5187POPC   C1A66567  39.863  34.996   6.195
 5187POPC   D2A66568  39.818  34.947   6.639
 5187POPC   C3A66569  40.148  34.819   6.887
 5187POPC   C4A66570  40.099  34.705   7.283
 5187POPC   C1B66571  39.701  34.500   6.227
 5187POPC   C2B66572  39.963  34.443   6.571
 5187POPC   C3B66573  40.099  34.298   6.982
 5187POPC   C4B66574  39.876  34.245   7.362
 5188POPC   NC366575   6.552  42.760   5.473
 5188POPC   PO466576   6.338  42.158   5.413
 5188POPC   GL166577   6.599  42.105   5.779
 5188POPC   GL266578   6.733  42.441   5.829
 5188POPC   C1A66579   6.664  42.050   6.229
 5188POPC   D2A66580   6.487  42.020   6.655
 5188POPC   C3A66581   6.811  42.190   6.990
 5188POPC   C4A66582   6.842  42.096   7.441
 5188POPC   C1B66583   6.549  42.537   6.216
 5188POPC   C2B66584   6.626  42.509   6.642
 5188POPC   C3B66585   6.394  42.452   7.054
 5188POPC   C4B66586   6.506  42.681   7.478
 5189POPC   NC366587  34.659  29.908   5.243
 5189POPC   PO466588  34.405  30.475   5.489
 5189POPC   GL166589  34.723  30.223   5.736
 5189POPC   GL266590  34.844  29.880   5.740
 5189POPC   C1A66591  34.603  30.026   6.165
 5189POPC   D2A66592  34.420  29.847   6.564
 5189POPC   C3A66593  34.583  30.059   6.942
 5189POPC   C4A66594  34.722  30.220   7.334
 5189POPC   C1B66595  34.831  29.555   6.084
 5189POPC   C2B66596  34.885  29.590   6.512
 5189POPC   C3B66597  34.721  29.547   6.901
 5189POPC   C4B66598  34.491  29.664   7.261
 5190POPC   NC366599  26.852   3.917   5.385
 5190POPC   PO466600  26.765   3.272   5.600
 5190POPC   GL166601  26.579   3.457   5.911
 5190POPC   GL266602  26.551   3.819   5.795
 5190POPC   C1A66603  26.797   3.404   6.312
 5190POPC   D2A66604  27.046   3.343   6.659
 5190POPC   C3A66605  26.775   3.533   6.948
 5190POPC   C4A66606  26.692   3.308   7.313
 5190POPC   C1B66607  26.877   3.832   6.069
 5190POPC   C2B66608  27.027   3.823   6.492
 5190POPC   C3B66609  27.138   3.902   6.899
 5190POPC   C4B66610  26.928   3.903   7.291
 5191POPC   NC366611  22.216  37.253   5.637
 5191POPC   PO466612  22.427  37.879   5.415
 5191POPC   GL166613  22.267  37.791   5.828
 5191POPC   GL266614  21.934  37.860   5.904
 5191POPC   C1A66615  22.272  37.624   6.270
 5191POPC   D2A66616  22.463  37.421   6.639
 5191POPC   C3A66617  22.325  37.500   7.048
 5191POPC   C4A66618  22.167  37.902   7.178
 5191POPC   C1B66619  21.757  37.670   6.257
 5191POPC   C2B66620  21.938  37.687   6.675
 5191POPC   C3B66621  21.822  37.534   7.034
 5191POPC   C4B66622  21.524  37.433   7.282
 5192POPC   NC366623  40.073   3.714   5.524
 5192POPC   PO466624  39.679   3.152   5.448
 5192POPC   GL166625  40.057   3.249   5.731
 5192POPC   GL266626  39.963   3.493   5.975
 5192POPC   C1A66627  40.298   3.126   6.098
 5192POPC   D2A66628  40.083   3.292   6.461
 5192POPC   C3A66629  40.197   3.219   6.887
 5192POPC   C4A66630  40.015   3.145   7.285
 5192POPC   C1B66631  40.053   3.828   6.246
 5192POPC   C2B66632  40.165   3.761   6.649
 5192POPC   C3B66633  40.027   3.677   7.031
 5192POPC   C4B66634  40.263   3.571   7.405
 5193POPC   NC366635  40.831   3.063   5.540
 5193POPC   PO466636  40.320   2.483   5.470
 5193POPC   GL166637  40.627   2.646   5.783
 5193POPC   GL266638  40.780   2.372   5.974
 5193POPC   C1A66639  40.819   2.843   6.181
 5193POPC   D2A66640  40.842   2.678   6.612
 5193POPC   C3A66641  40.670   2.975   6.882
 5193POPC   C4A66642  40.420   2.869   7.214
 5193POPC   C1B66643  41.151   2.440   6.255
 5193POPC   C2B66644  41.361   2.627   6.624
 5193POPC   C3B66645  41.230   2.576   7.036
 5193POPC   C4B66646  40.942   2.786   7.272
 5194POPC   NC366647   0.027   3.640   5.461
 5194POPC   PO466648   0.529   3.184   5.361
 5194POPC   GL166649   0.465   3.411   5.778
 5194POPC   GL266650   0.209   3.666   5.927
 5194POPC   C1A66651   0.472   3.383   6.241
 5194POPC   D2A66652   0.515   3.221   6.639
 5194POPC   C3A66653   0.779   3.484   6.862
 5194POPC   C4A66654   0.743   3.417   7.270
 5194POPC   C1B66655   0.343   3.905   6.261
 5194POPC   C2B66656   0.433   3.783   6.660
 5194POPC   C3B66657   0.347   3.657   7.072
 5194POPC   C4B66658   0.031   3.353   7.194
 5195POPC   NC366659  26.608  38.668   5.416
 5195POPC   PO466660  27.223  38.400   5.320
 5195POPC   GL166661  26.940  38.435   5.716
 5195POPC   GL266662  26.617  38.232   5.688
 5195POPC   C1A66663  26.829  38.661   6.118
 5195POPC   D2A66664  26.787  38.472   6.541
 5195POPC   C3A66665  26.846  38.692   6.934
 5195POPC   C4A66666  26.642  38.534   7.317
 5195POPC   C1B66667  26.435  38.333   6.078
 5195POPC   C2B66668  26.284  38.373   6.487
 5195POPC   C3B66669  26.447  38.222   6.888
 5195POPC   C4B66670  26.217  38.189   7.269
 5196POPC   NC366671  10.183  28.209   5.366
 5196POPC   PO466672  10.415  28.815   5.380
 5196POPC   GL166673  10.422  28.523   5.743
 5196POPC   GL266674  10.750  28.410   5.878
 5196POPC   C1A66675  10.396  28.570   6.204
 5196POPC   D2A66676  10.394  28.722   6.617
 5196POPC   C3A66677  10.433  28.433   6.927
 5196POPC   C4A66678  10.381  28.642   7.285
 5196POPC   C1B66679  10.661  28.119   6.205
 5196POPC   C2B66680  10.497  27.986   6.602
 5196POPC   C3B66681  10.647  27.953   7.025
 5196POPC   C4B66682  10.378  28.120   7.338
 5197POPC   NC366683  39.153  14.027   5.491
 5197POPC   PO466684  39.451  13.476   5.271
 5197POPC   GL166685  39.370  13.572   5.710
 5197POPC   GL266686  39.056  13.576   5.674
 5197POPC   C1A66687  39.491  13.627   6.161
 5197POPC   D2A66688  39.248  13.841   6.520
 5197POPC   C3A66689  39.392  13.835   6.968
 5197POPC   C4A66690  39.467  13.529   7.320
 5197POPC   C1B66691  38.990  13.574   6.137
 5197POPC   C2B66692  38.948  13.395   6.546
 5197POPC   C3B66693  38.966  13.520   6.976
 5197POPC   C4B66694  38.954  13.310   7.346
 5198POPC   NC366695  30.809  27.821   5.169
 5198POPC   PO466696  30.851  28.468   5.323
 5198POPC   GL166697  30.810  28.493   5.784
 5198POPC   GL266698  30.654  28.179   5.828
 5198POPC   C1A66699  30.784  28.474   6.230
 5198POPC   D2A66700  30.710  28.232   6.581
 5198POPC   C3A66701  30.896  28.493   6.886
 5198POPC   C4A66702  30.691  28.684   7.231
 5198POPC   C1B66703  30.514  27.937   6.182
 5198POPC   C2B66704  30.406  27.734   6.547
 5198POPC   C3B66705  30.469  27.910   6.904
 5198POPC   C4B66706  30.685  28.149   7.182
 5199POPC   NC366707  33.028  40.278   5.429
 5199POPC   PO466708  33.004  39.616   5.301
 5199POPC   GL166709  32.810  39.699   5.708
 5199POPC   GL266710  32.720  40.055   5.803
 5199POPC   C1A66711  32.836  39.714   6.177
 5199POPC   D2A66712  33.112  39.933   6.484
 5199POPC   C3A66713  33.099  39.834   6.931
 5199POPC   C4A66714  33.315  39.651   7.287
 5199POPC   C1B66715  32.673  40.209   6.256
 5199POPC   C2B66716  32.708  40.139   6.718
 5199POPC   C3B66717  32.807  40.240   7.134
 5199POPC   C4B66718  33.207  40.194   7.262
 5200POPC   NC366719  26.777  28.456   5.301
 5200POPC   PO466720  27.382  28.355   5.411
 5200POPC   GL166721  27.064  28.521   5.731
 5200POPC   GL266722  26.659  28.486   5.786
 5200POPC   C1A66723  27.031  28.327   6.110
 5200POPC   D2A66724  26.886  28.246   6.490
 5200POPC   C3A66725  26.980  28.515   6.806
 5200POPC   C4A66726  27.182  28.330   7.149
 5200POPC   C1B66727  26.491  28.291   6.154
 5200POPC   C2B66728  26.400  28.122   6.563
 5200POPC   C3B66729  26.686  28.089   6.951
 5200POPC   C4B66730  26.625  28.432   7.174
 5201POPC   NC366731  37.946  36.082   5.516
 5201POPC   PO466732  37.350  35.955   5.217
 5201POPC   GL166733  37.477  36.226   5.685
 5201POPC   GL266734  37.288  36.032   5.921
 5201POPC   C1A66735  37.682  36.212   6.158
 5201POPC   D2A66736  37.619  36.011   6.589
 5201POPC   C3A66737  37.622  36.298   6.985
 5201POPC   C4A66738  37.673  36.400   7.480
 5201POPC   C1B66739  37.247  35.716   6.262
 5201POPC   C2B66740  37.188  35.654   6.705
 5201POPC   C3B66741  37.444  35.826   7.044
 5201POPC   C4B66742  37.859  35.889   7.183
 5202POPC   NC366743  15.542  35.082   5.519
 5202POPC   PO466744  16.154  35.389   5.467
 5202POPC   GL166745  15.894  35.394   5.780
 5202POPC   GL266746  15.993  35.075   5.847
 5202POPC   C1A66747  15.875  35.563   6.176
 5202POPC   D2A66748  16.030  35.457   6.577
 5202POPC   C3A66749  15.861  35.664   6.911
 5202POPC   C4A66750  15.846  35.471   7.278
 5202POPC   C1B66751  15.821  35.077   6.239
 5202POPC   C2B66752  15.541  35.298   6.493
 5202POPC   C3B66753  15.679  35.172   6.873
 5202POPC   C4B66754  15.758  34.884   7.168
 5203POPC   NC366755  44.176   6.738   5.265
 5203POPC   PO466756  43.575   6.562   5.321
 5203POPC   GL166757  43.751   6.648   5.749
 5203POPC   GL266758  44.079   6.814   5.771
 5203POPC   C1A66759  43.723   6.517   6.176
 5203POPC   D2A66760  43.858   6.628   6.579
 5203POPC   C3A66761  43.638   6.464   6.909
 5203POPC   C4A66762  43.789   6.308   7.274
 5203POPC   C1B66763  44.066   6.910   6.195
 5203POPC   C2B66764  44.247   6.971   6.609
 5203POPC   C3B66765  44.101   6.846   7.012
 5203POPC   C4B66766  44.156   7.081   7.378
 5204POPC   NC366767  27.440  16.990   5.340
 5204POPC   PO466768  28.065  16.633   5.372
 5204POPC   GL166769  27.861  16.708   5.759
 5204POPC   GL266770  27.490  16.797   5.806
 5204POPC   C1A66771  27.830  16.791   6.185
 5204POPC   D2A66772  27.855  16.596   6.568
 5204POPC   C3A66773  27.557  16.582   6.858
 5204POPC   C4A66774  27.688  16.612   7.235
 5204POPC   C1B66775  27.290  17.140   6.049
 5204POPC   C2B66776  27.147  17.287   6.460
 5204POPC   C3B66777  27.216  17.268   6.913
 5204POPC   C4B66778  27.261  16.884   7.169
 5205POPC   NC366779  17.977  42.540   5.056
 5205POPC   PO466780  18.461  42.350   5.333
 5205POPC   GL166781  18.528  42.443   5.788
 5205POPC   GL266782  18.411  42.783   5.856
 5205POPC   C1A66783  18.352  42.410   6.226
 5205POPC   D2A66784  18.237  42.120   6.567
 5205POPC   C3A66785  18.141  42.207   6.983
 5205POPC   C4A66786  18.298  42.105   7.385
 5205POPC   C1B66787  18.082  42.867   6.189
 5205POPC   C2B66788  18.035  42.734   6.617
 5205POPC   C3B66789  18.295  42.704   6.987
 5205POPC   C4B66790  18.467  42.582   7.402
 5206POPC   NC366791  31.574  32.751   5.444
 5206POPC   PO466792  31.316  33.381   5.393
 5206POPC   GL166793  31.501  33.172   5.738
 5206POPC   GL266794  31.176  33.121   5.916
 5206POPC   C1A66795  31.644  33.152   6.169
 5206POPC   D2A66796  31.608  33.474   6.476
 5206POPC   C3A66797  31.381  33.365   6.818
 5206POPC   C4A66798  31.310  33.492   7.227
 5206POPC   C1B66799  31.163  33.019   6.372
 5206POPC   C2B66800  31.433  32.735   6.603
 5206POPC   C3B66801  31.541  32.659   7.014
 5206POPC   C4B66802  31.434  33.009   7.221
 5207POPC   NC366803   9.805   3.743   5.585
 5207POPC   PO466804   9.492   3.194   5.406
 5207POPC   GL166805   9.782   3.233   5.754
 5207POPC   GL266806   9.651   3.463   6.037
 5207POPC   C1A66807  10.047   3.189   6.138
 5207POPC   D2A66808  10.022   3.514   6.499
 5207POPC   C3A66809   9.922   3.627   6.958
 5207POPC   C4A66810   9.915   3.893   7.381
 5207POPC   C1B66811   9.481   3.475   6.485
 5207POPC   C2B66812   9.422   3.515   6.940
 5207POPC   C3B66813   9.440   3.896   7.192
 5207POPC   C4B66814   9.170   4.197   7.398
 5208POPC   NC366815  13.874  11.937   5.513
 5208POPC   PO466816  14.457  12.384   5.480
 5208POPC   GL166817  14.486  12.204   5.876
 5208POPC   GL266818  14.286  11.893   5.825
 5208POPC   C1A66819  14.584  12.309   6.296
 5208POPC   D2A66820  14.705  12.097   6.631
 5208POPC   C3A66821  14.801  12.256   7.035
 5208POPC   C4A66822  14.579  12.230   7.398
 5208POPC   C1B66823  14.260  11.883   6.259
 5208POPC   C2B66824  14.353  11.732   6.651
 5208POPC   C3B66825  14.419  11.887   7.027
 5208POPC   C4B66826  14.161  11.860   7.355
 5209POPC   NC366827  12.694  15.345   5.597
 5209POPC   PO466828  13.274  15.009   5.478
 5209POPC   GL166829  13.052  15.086   5.846
 5209POPC   GL266830  13.128  15.435   5.885
 5209POPC   C1A66831  12.809  15.196   6.234
 5209POPC   D2A66832  12.736  15.367   6.643
 5209POPC   C3A66833  12.712  15.067   6.985
 5209POPC   C4A66834  12.754  14.811   7.385
 5209POPC   C1B66835  13.384  15.194   6.217
 5209POPC   C2B66836  13.509  15.174   6.660
 5209POPC   C3B66837  13.187  15.358   6.911
 5209POPC   C4B66838  13.027  15.276   7.306
 5210POPC   NC366839  36.352  42.427   5.315
 5210POPC   PO466840  35.730  42.413   5.572
 5210POPC   GL166841  36.097  42.294   5.783
 5210POPC   GL266842  36.355  42.527   5.817
 5210POPC   C1A66843  36.061  42.304   6.221
 5210POPC   D2A66844  35.830  42.379   6.579
 5210POPC   C3A66845  36.035  42.237   6.934
 5210POPC   C4A66846  36.162  42.462   7.280
 5210POPC   C1B66847  36.502  42.637   6.202
 5210POPC   C2B66848  36.376  42.501   6.602
 5210POPC   C3B66849  36.552  42.618   6.978
 5210POPC   C4B66850  36.623  42.615   7.403
 5211POPC   NC366851  35.834  38.472   5.332
 5211POPC   PO466852  35.236  38.515   5.554
 5211POPC   GL166853  35.519  38.523   5.888
 5211POPC   GL266854  35.638  38.193   5.768
 5211POPC   C1A66855  35.449  38.559   6.361
 5211POPC   D2A66856  35.325  38.639   6.794
 5211POPC   C3A66857  35.251  38.343   7.142
 5211POPC   C4A66858  35.139  38.491   7.579
 5211POPC   C1B66859  35.761  38.214   6.211
 5211POPC   C2B66860  35.635  38.170   6.646
 5211POPC   C3B66861  35.750  38.364   7.038
 5211POPC   C4B66862  35.643  38.295   7.468
 5212POPC   NC366863  25.852  34.351   5.653
 5212POPC   PO466864  26.119  34.849   5.321
 5212POPC   GL166865  26.157  34.734   5.780
 5212POPC   GL266866  26.364  34.503   5.905
 5212POPC   C1A66867  25.942  34.658   6.210
 5212POPC   D2A66868  25.761  34.336   6.500
 5212POPC   C3A66869  25.900  34.469   6.891
 5212POPC   C4A66870  25.703  34.480   7.271
 5212POPC   C1B66871  26.208  34.230   6.220
 5212POPC   C2B66872  26.196  34.042   6.608
 5212POPC   C3B66873  26.335  34.197   6.953
 5212POPC   C4B66874  26.197  34.352   7.293
 5213POPC   NC366875   5.119   7.673   5.586
 5213POPC   PO466876   5.124   7.157   5.201
 5213POPC   GL166877   5.124   7.167   5.705
 5213POPC   GL266878   5.299   7.379   5.970
 5213POPC   C1A66879   4.872   7.152   6.124
 5213POPC   D2A66880   4.823   7.428   6.522
 5213POPC   C3A66881   4.965   7.212   6.904
 5213POPC   C4A66882   4.804   7.016   7.273
 5213POPC   C1B66883   5.127   7.759   6.226
 5213POPC   C2B66884   5.052   7.945   6.633
 5213POPC   C3B66885   5.007   7.729   7.023
 5213POPC   C4B66886   5.174   7.415   7.329
 5214POPC   NC366887  37.100  43.717   5.332
 5214POPC   PO466888  36.479  43.608   5.674
 5214POPC   GL166889  36.766  43.806   5.908
 5214POPC   GL266890  37.095  43.873   5.818
 5214POPC   C1A66891  36.924  43.749   6.305
 5214POPC   D2A66892  37.148  43.816   6.641
 5214POPC   C3A66893  36.840  43.740   6.939
 5214POPC   C4A66894  36.794  43.960   7.269
 5214POPC   C1B66895  37.047  44.204   6.141
 5214POPC   C2B66896  37.153  44.382   6.548
 5214POPC   C3B66897  37.157  44.228   6.950
 5214POPC   C4B66898  37.423  44.252   7.312
 5215POPC   NC366899  21.551   4.206   5.342
 5215POPC   PO466900  21.313   4.833   5.418
 5215POPC   GL166901  21.317   4.501   5.746
 5215POPC   GL266902  21.572   4.272   5.861
 5215POPC   C1A66903  21.131   4.331   6.125
 5215POPC   D2A66904  21.321   4.251   6.498
 5215POPC   C3A66905  21.175   4.079   6.854
 5215POPC   C4A66906  21.241   4.275   7.224
 5215POPC   C1B66907  21.780   4.159   6.289
 5215POPC   C2B66908  21.737   4.107   6.770
 5215POPC   C3B66909  21.747   4.126   7.225
 5215POPC   C4B66910  21.856   4.480   7.522
 5216POPC   NC366911  35.729   1.967   5.042
 5216POPC   PO466912  35.190   1.943   5.574
 5216POPC   GL166913  35.210   2.071   5.930
 5216POPC   GL266914  35.012   2.373   6.036
 5216POPC   C1A66915  35.494   1.910   6.192
 5216POPC   D2A66916  35.422   1.756   6.538
 5216POPC   C3A66917  35.397   1.995   6.913
 5216POPC   C4A66918  35.519   1.874   7.279
 5216POPC   C1B66919  35.157   2.215   6.428
 5216POPC   C2B66920  34.964   1.943   6.683
 5216POPC   C3B66921  34.991   2.302   6.996
 5216POPC   C4B66922  35.186   2.231   7.378
 5217POPC   NC366923  11.469  16.191   5.476
 5217POPC   PO466924  11.002  15.703   5.505
 5217POPC   GL166925  11.300  15.865   5.805
 5217POPC   GL266926  11.066  16.098   5.874
 5217POPC   C1A66927  11.502  16.005   6.184
 5217POPC   D2A66928  11.557  16.170   6.591
 5217POPC   C3A66929  11.462  16.011   7.010
 5217POPC   C4A66930  11.415  15.697   7.342
 5217POPC   C1B66931  11.004  16.156   6.299
 5217POPC   C2B66932  11.070  16.258   6.736
 5217POPC   C3B66933  10.928  16.199   7.166
 5217POPC   C4B66934  10.876  16.329   7.617
 5218POPC   NC366935  30.156  18.011   4.971
 5218POPC   PO466936  30.094  18.449   5.486
 5218POPC   GL166937  30.076  18.204   5.860
 5218POPC   GL266938  29.772  18.015   5.843
 5218POPC   C1A66939  30.185  18.300   6.275
 5218POPC   D2A66940  30.284  18.191   6.688
 5218POPC   C3A66941  30.157  18.449   6.999
 5218POPC   C4A66942  30.063  18.345   7.431
 5218POPC   C1B66943  29.712  18.124   6.282
 5218POPC   C2B66944  29.816  18.443   6.615
 5218POPC   C3B66945  29.646  18.478   7.021
 5218POPC   C4B66946  29.674  18.067   7.221
 5219POPC   NC366947  42.558  30.601   5.682
 5219POPC   PO466948  43.103  30.892   5.336
 5219POPC   GL166949  43.028  30.806   5.741
 5219POPC   GL266950  42.872  31.133   5.772
 5219POPC   C1A66951  43.166  30.576   6.145
 5219POPC   D2A66952  42.877  30.447   6.487
 5219POPC   C3A66953  43.021  30.337   6.930
 5219POPC   C4A66954  43.283  30.467   7.286
 5219POPC   C1B66955  43.276  31.118   6.040
 5219POPC   C2B66956  43.372  30.972   6.447
 5219POPC   C3B66957  43.369  30.760   6.853
 5219POPC   C4B66958  43.376  30.957   7.260
 5220POPC   NC366959  20.510  38.664   5.359
 5220POPC   PO466960  20.677  38.022   5.366
 5220POPC   GL166961  20.757  38.342   5.681
 5220POPC   GL266962  20.976  38.181   5.895
 5220POPC   C1A66963  20.723  38.614   6.071
 5220POPC   D2A66964  20.670  38.519   6.535
 5220POPC   C3A66965  20.714  38.664   6.965
 5220POPC   C4A66966  20.431  38.853   7.257
 5220POPC   C1B66967  21.138  38.005   6.276
 5220POPC   C2B66968  21.059  37.848   6.659
 5220POPC   C3B66969  20.955  37.923   7.054
 5220POPC   C4B66970  20.928  38.273   7.236
 5221POPC   NC366971  43.947  24.270   5.399
 5221POPC   PO466972  43.492  24.623   5.620
 5221POPC   GL166973  43.769  24.392   5.866
 5221POPC   GL266974  43.596  24.078   5.827
 5221POPC   C1A66975  44.070  24.550   6.184
 5221POPC   D2A66976  44.043  24.833   6.566
 5221POPC   C3A66977  43.969  24.630   6.971
 5221POPC   C4A66978  43.635  24.689   7.245
 5221POPC   C1B66979  43.504  24.170   6.230
 5221POPC   C2B66980  43.720  24.387   6.547
 5221POPC   C3B66981  43.581  24.264   6.940
 5221POPC   C4B66982  43.763  24.175   7.306
 5222POPC   NC366983   0.276   7.597   5.448
 5222POPC   PO466984   0.909   7.495   5.539
 5222POPC   GL166985   0.590   7.388   5.843
 5222POPC   GL266986   0.293   7.198   5.800
 5222POPC   C1A66987   0.457   7.516   6.239
 5222POPC   D2A66988   0.663   7.545   6.632
 5222POPC   C3A66989   0.508   7.242   6.900
 5222POPC   C4A66990   0.434   7.427   7.319
 5222POPC   C1B66991   0.026   7.239   6.177
 5222POPC   C2B66992   0.086   7.387   6.601
 5222POPC   C3B66993   0.191   7.668   6.936
 5222POPC   C4B66994   0.074   7.808   7.366
 5223POPC   NC366995  39.843  41.815   5.340
 5223POPC   PO466996  40.499  41.451   5.295
 5223POPC   GL166997  40.251  41.523   5.678
 5223POPC   GL266998  40.267  41.862   5.785
 5223POPC   C1A66999  40.008  41.371   6.050
 5223POPC   D2A67000  39.743  41.443   6.444
 5223POPC   C3A67001  39.746  41.594   6.877
 5223POPC   C4A67002  39.983  41.515   7.253
 5223POPC   C1B67003  39.880  41.856   6.069
 5223POPC   C2B67004  39.857  41.967   6.522
 5223POPC   C3B67005  39.950  42.044   6.970
 5223POPC   C4B67006  39.668  41.879   7.304
 5224POPC   NC367007  30.181  30.460   5.783
 5224POPC   PO467008  30.458  31.032   5.609
 5224POPC   GL167009  30.572  30.743   5.916
 5224POPC   GL267010  30.722  30.385   5.838
 5224POPC   C1A67011  30.715  30.861   6.296
 5224POPC   D2A67012  30.830  30.724   6.687
 5224POPC   C3A67013  30.668  30.978   6.957
 5224POPC   C4A67014  30.587  30.991   7.369
 5224POPC   C1B67015  30.629  30.332   6.309
 5224POPC   C2B67016  30.848  30.222   6.708
 5224POPC   C3B67017  30.766  30.213   7.163
 5224POPC   C4B67018  30.745  30.160   7.616
 5225POPC   NC367019  16.532  35.132   5.385
 5225POPC   PO467020  17.163  35.157   5.545
 5225POPC   GL167021  16.858  35.331   5.871
 5225POPC   GL267022  16.503  35.389   5.844
 5225POPC   C1A67023  16.758  35.453   6.336
 5225POPC   D2A67024  16.817  35.236   6.724
 5225POPC   C3A67025  16.697  35.366   7.141
 5225POPC   C4A67026  16.965  35.414   7.503
 5225POPC   C1B67027  16.313  35.218   6.209
 5225POPC   C2B67028  16.347  35.037   6.622
 5225POPC   C3B67029  16.203  35.176   7.034
 5225POPC   C4B67030  16.301  35.327   7.468
 5226POPC   NC367031  38.935   2.483   5.637
 5226POPC   PO467032  38.939   2.918   5.103
 5226POPC   GL167033  39.240   2.874   5.621
 5226POPC   GL267034  39.269   3.211   5.799
 5226POPC   C1A67035  39.306   2.792   6.108
 5226POPC   D2A67036  39.478   2.535   6.467
 5226POPC   C3A67037  39.236   2.541   6.853
 5226POPC   C4A67038  39.295   2.578   7.278
 5226POPC   C1B67039  39.380   3.300   6.216
 5226POPC   C2B67040  39.200   3.281   6.614
 5226POPC   C3B67041  39.196   3.050   6.984
 5226POPC   C4B67042  39.326   3.107   7.378
 5227POPC   NC367043  13.108   3.577   5.330
 5227POPC   PO467044  12.527   3.351   5.440
 5227POPC   GL167045  12.681   3.227   5.824
 5227POPC   GL267046  13.022   3.323   5.811
 5227POPC   C1A67047  12.547   3.096   6.219
 5227POPC   D2A67048  12.739   3.174   6.624
 5227POPC   C3A67049  12.668   3.521   6.888
 5227POPC   C4A67050  12.725   3.402   7.324
 5227POPC   C1B67051  12.922   3.478   6.230
 5227POPC   C2B67052  13.150   3.492   6.620
 5227POPC   C3B67053  13.156   3.647   7.036
 5227POPC   C4B67054  13.411   3.919   7.284
 5228POPC   NC367055  31.977  19.091   5.071
 5228POPC   PO467056  31.703  18.742   5.611
 5228POPC   GL167057  31.481  19.042   5.860
 5228POPC   GL267058  31.191  19.225   5.745
 5228POPC   C1A67059  31.650  19.202   6.241
 5228POPC   D2A67060  31.542  19.052   6.633
 5228POPC   C3A67061  31.671  19.236   6.986
 5228POPC   C4A67062  31.843  18.984   7.318
 5228POPC   C1B67063  31.131  19.177   6.207
 5228POPC   C2B67064  31.122  19.333   6.624
 5228POPC   C3B67065  31.171  19.210   7.075
 5228POPC   C4B67066  31.420  19.371   7.428
 5229POPC   NC367067  44.723   0.941   5.343
 5229POPC   PO467068  44.964   1.566   5.373
 5229POPC   GL167069  44.708   1.360   5.706
 5229POPC   GL267070  44.830   1.028   5.827
 5229POPC   C1A67071  44.598   1.418   6.151
 5229POPC   D2A67072  44.382   1.256   6.538
 5229POPC   C3A67073  44.664   1.228   6.874
 5229POPC   C4A67074  44.766   1.435   7.236
 5229POPC   C1B67075  44.609   0.910   6.203
 5229POPC   C2B67076  44.661   0.772   6.593
 5229POPC   C3B67077  44.778   0.726   6.994
 5229POPC   C4B67078  44.590   0.964   7.321
 5230POPC   NC367079  34.848  22.006   5.559
 5230POPC   PO467080  34.470  22.557   5.404
 5230POPC   GL167081  34.473  22.297   5.814
 5230POPC   GL267082  34.467  21.916   5.897
 5230POPC   C1A67083  34.612  22.280   6.265
 5230POPC   D2A67084  34.615  21.893   6.497
 5230POPC   C3A67085  34.441  21.881   6.893
 5230POPC   C4A67086  34.600  22.158   7.179
 5230POPC   C1B67087  34.175  22.031   6.236
 5230POPC   C2B67088  34.236  22.278   6.623
 5230POPC   C3B67089  34.152  22.357   7.052
 5230POPC   C4B67090  34.172  21.995   7.353
 5231POPC   NC367091   3.607  37.171   5.107
 5231POPC   PO467092   3.243  36.712   5.405
 5231POPC   GL167093   3.453  36.954   5.749
 5231POPC   GL267094   3.833  37.034   5.699
 5231POPC   C1A67095   3.294  36.997   6.181
 5231POPC   D2A67096   3.350  36.798   6.561
 5231POPC   C3A67097   3.340  37.005   6.936
 5231POPC   C4A67098   3.563  36.750   7.236
 5231POPC   C1B67099   3.714  37.283   6.079
 5231POPC   C2B67100   3.748  37.126   6.483
 5231POPC   C3B67101   3.856  37.000   6.884
 5231POPC   C4B67102   3.728  37.230   7.229
 5232POPC   NC367103  28.851  17.762   5.641
 5232POPC   PO467104  28.202  17.455   5.469
 5232POPC   GL167105  28.308  17.576   5.876
 5232POPC   GL267106  28.628  17.445   5.940
 5232POPC   C1A67107  28.331  17.493   6.334
 5232POPC   D2A67108  28.033  17.506   6.613
 5232POPC   C3A67109  28.256  17.622   6.916
 5232POPC   C4A67110  28.146  17.404   7.217
 5232POPC   C1B67111  28.791  17.208   6.273
 5232POPC   C2B67112  28.641  16.999   6.643
 5232POPC   C3B67113  28.631  17.159   7.062
 5232POPC   C4B67114  28.622  17.558   7.270
 5233POPC   NC367115  44.935  30.090   5.300
 5233POPC   PO467116  44.349  29.658   5.315
 5233POPC   GL167117  44.583  29.816   5.677
 5233POPC   GL267118  44.798  29.530   5.788
 5233POPC   C1A67119  44.628  29.942   6.129
 5233POPC   D2A67120  44.545  30.207   6.502
 5233POPC   C3A67121  44.556  29.956   6.874
 5233POPC   C4A67122  44.587  29.965   7.277
 5233POPC   C1B67123   0.036  29.612   6.186
 5233POPC   C2B67124  44.944  29.789   6.599
 5233POPC   C3B67125   0.033  29.692   7.055
 5233POPC   C4B67126  44.874  29.610   7.518
 5234POPC   NC367127  40.630  42.001   5.358
 5234POPC   PO467128  41.152  42.536   5.341
 5234POPC   GL167129  41.000  42.522   5.752
 5234POPC   GL267130  40.793  42.219   5.798
 5234POPC   C1A67131  41.158  42.352   6.146
 5234POPC   D2A67132  40.954  42.181   6.509
 5234POPC   C3A67133  41.012  42.366   6.918
 5234POPC   C4A67134  40.907  42.096   7.264
 5234POPC   C1B67135  40.667  42.453   6.179
 5234POPC   C2B67136  40.589  42.575   6.603
 5234POPC   C3B67137  40.506  42.449   7.026
 5234POPC   C4B67138  40.470  42.310   7.444
 5235POPC   NC367139  17.204   2.588   5.429
 5235POPC   PO467140  17.917   2.445   5.540
 5235POPC   GL167141  17.713   2.644   5.935
 5235POPC   GL267142  17.412   2.886   5.837
 5235POPC   C1A67143  17.656   2.465   6.391
 5235POPC   D2A67144  17.302   2.318   6.683
 5235POPC   C3A67145  17.326   2.421   7.139
 5235POPC   C4A67146  17.418   2.637   7.563
 5235POPC   C1B67147  17.309   2.816   6.282
 5235POPC   C2B67148  17.429   2.837   6.737
 5235POPC   C3B67149  17.237   2.917   7.169
 5235POPC   C4B67150  17.123   3.039   7.637
 5236POPC   NC367151   2.739  27.172   5.418
 5236POPC   PO467152   2.597  26.574   5.370
 5236POPC   GL167153   2.845  26.780   5.750
 5236POPC   GL267154   2.984  27.148   5.849
 5236POPC   C1A67155   2.985  26.772   6.192
 5236POPC   D2A67156   2.737  26.764   6.552
 5236POPC   C3A67157   2.888  26.887   6.953
 5236POPC   C4A67158   2.985  26.742   7.355
 5236POPC   C1B67159   2.581  27.102   6.127
 5236POPC   C2B67160   2.315  27.075   6.539
 5236POPC   C3B67161   2.466  27.204   6.963
 5236POPC   C4B67162   2.700  27.164   7.338
 5237POPC   NC367163  23.856  16.531   5.513
 5237POPC   PO467164  23.579  17.172   5.565
 5237POPC   GL167165  23.693  16.873   5.883
 5237POPC   GL267166  23.434  16.587   5.890
 5237POPC   C1A67167  24.035  16.839   6.213
 5237POPC   D2A67168  24.042  16.668   6.647
 5237POPC   C3A67169  23.973  16.948   7.019
 5237POPC   C4A67170  23.885  16.820   7.461
 5237POPC   C1B67171  23.563  16.661   6.333
 5237POPC   C2B67172  23.532  16.695   6.763
 5237POPC   C3B67173  23.698  16.504   7.109
 5237POPC   C4B67174  23.454  16.539   7.485
 5238POPC   NC367175   4.548  31.798   5.502
 5238POPC   PO467176   3.962  31.683   5.133
 5238POPC   GL167177   4.048  31.675   5.587
 5238POPC   GL267178   4.105  31.319   5.695
 5238POPC   C1A67179   4.093  31.697   6.046
 5238POPC   D2A67180   4.044  31.469   6.452
 5238POPC   C3A67181   4.156  31.591   6.885
 5238POPC   C4A67182   4.475  31.764   7.125
 5238POPC   C1B67183   4.258  31.133   6.105
 5238POPC   C2B67184   4.460  31.181   6.529
 5238POPC   C3B67185   4.324  31.078   6.952
 5238POPC   C4B67186   4.673  30.950   7.174
 5239POPC   NC367187  33.902  35.584   5.439
 5239POPC   PO467188  33.438  35.079   5.480
 5239POPC   GL167189  33.567  35.335   5.837
 5239POPC   GL267190  33.925  35.291   5.874
 5239POPC   C1A67191  33.647  35.264   6.304
 5239POPC   D2A67192  33.917  35.360   6.688
 5239POPC   C3A67193  33.745  35.127   7.059
 5239POPC   C4A67194  33.343  35.126   7.287
 5239POPC   C1B67195  34.065  35.600   6.198
 5239POPC   C2B67196  34.211  35.838   6.564
 5239POPC   C3B67197  34.146  35.758   6.984
 5239POPC   C4B67198  34.025  35.495   7.287
 5240POPC   NC367199  16.276  32.367   5.423
 5240POPC   PO467200  15.766  31.956   5.434
 5240POPC   GL167201  15.973  32.030   5.787
 5240POPC   GL267202  15.892  32.366   5.820
 5240POPC   C1A67203  15.845  31.967   6.211
 5240POPC   D2A67204  15.801  31.776   6.611
 5240POPC   C3A67205  15.704  32.097   6.916
 5240POPC   C4A67206  15.831  32.105   7.344
 5240POPC   C1B67207  16.045  32.470   6.218
 5240POPC   C2B67208  15.929  32.488   6.646
 5240POPC   C3B67209  16.042  32.476   7.081
 5240POPC   C4B67210  15.974  32.540   7.585
 5241POPC   NC367211  28.232  38.188   5.394
 5241POPC   PO467212  28.544  38.758   5.332
 5241POPC   GL167213  28.468  38.520   5.708
 5241POPC   GL267214  28.139  38.437   5.834
 5241POPC   C1A67215  28.642  38.361   6.081
 5241POPC   D2A67216  28.754  38.221   6.480
 5241POPC   C3A67217  28.470  38.384   6.784
 5241POPC   C4A67218  28.548  38.479   7.194
 5241POPC   C1B67219  28.094  38.173   6.217
 5241POPC   C2B67220  28.104  37.990   6.650
 5241POPC   C3B67221  28.003  38.262   7.002
 5241POPC   C4B67222  28.068  38.668   7.175
 5242POPC   NC367223   1.385  29.443   5.308
 5242POPC   PO467224   0.987  28.859   5.249
 5242POPC   GL167225   1.153  28.761   5.641
 5242POPC   GL267226   1.379  29.053   5.672
 5242POPC   C1A67227   1.160  28.736   6.094
 5242POPC   D2A67228   1.066  29.022   6.428
 5242POPC   C3A67229   1.101  28.880   6.852
 5242POPC   C4A67230   0.908  29.035   7.210
 5242POPC   C1B67231   1.402  29.217   6.086
 5242POPC   C2B67232   1.532  29.200   6.516
 5242POPC   C3B67233   1.483  29.202   6.943
 5242POPC   C4B67234   1.496  29.506   7.239
 5243POPC   NC367235  17.134  42.170   5.545
 5243POPC   PO467236  17.570  42.609   5.253
 5243POPC   GL167237  17.444  42.590   5.696
 5243POPC   GL267238  17.165  42.740   5.879
 5243POPC   C1A67239  17.641  42.581   6.126
 5243POPC   D2A67240  17.482  42.551   6.563
 5243POPC   C3A67241  17.712  42.507   6.952
 5243POPC   C4A67242  17.955  42.543   7.318
 5243POPC   C1B67243  17.156  42.408   6.199
 5243POPC   C2B67244  17.120  42.202   6.642
 5243POPC   C3B67245  17.349  42.155   7.075
 5243POPC   C4B67246  17.282  41.969   7.510
 5244POPC   NC367247  10.786  26.286   5.086
 5244POPC   PO467248  10.265  25.945   5.428
 5244POPC   GL167249  10.629  25.969   5.698
 5244POPC   GL267250  10.782  26.271   5.685
 5244POPC   C1A67251  10.636  26.045   6.140
 5244POPC   D2A67252  10.315  26.047   6.440
 5244POPC   C3A67253  10.408  26.137   6.877
 5244POPC   C4A67254  10.235  25.946   7.264
 5244POPC   C1B67255  10.927  26.451   6.171
 5244POPC   C2B67256  10.832  26.424   6.688
 5244POPC   C3B67257  10.829  26.271   7.161
 5244POPC   C4B67258  10.685  25.965   7.472
 5245POPC   NC367259  12.259  25.763   5.252
 5245POPC   PO467260  12.938  25.898   5.236
 5245POPC   GL167261  12.900  26.074   5.697
 5245POPC   GL267262  12.582  26.344   5.750
 5245POPC   C1A67263  13.031  25.838   6.116
 5245POPC   D2A67264  13.159  25.654   6.551
 5245POPC   C3A67265  13.153  25.861   6.934
 5245POPC   C4A67266  12.837  25.822   7.241
 5245POPC   C1B67267  12.809  26.326   6.155
 5245POPC   C2B67268  12.862  26.102   6.539
 5245POPC   C3B67269  12.855  26.270   6.915
 5245POPC   C4B67270  12.678  26.330   7.240
 5246POPC   NC367271  30.370  42.084   5.513
 5246POPC   PO467272  30.986  42.380   5.407
 5246POPC   GL167273  30.734  42.343   5.766
 5246POPC   GL267274  30.857  42.023   5.780
 5246POPC   C1A67275  30.474  42.440   6.146
 5246POPC   D2A67276  30.351  42.391   6.599
 5246POPC   C3A67277  30.484  42.140   6.986
 5246POPC   C4A67278  30.544  42.347   7.410
 5246POPC   C1B67279  30.689  41.989   6.198
 5246POPC   C2B67280  30.827  42.231   6.543
 5246POPC   C3B67281  30.909  42.409   6.934
 5246POPC   C4B67282  31.036  42.293   7.322
 5247POPC   NC367283   0.462  22.678   5.230
 5247POPC   PO467284   0.841  23.256   5.403
 5247POPC   GL167285   0.671  23.106   5.787
 5247POPC   GL267286   0.571  22.742   5.785
 5247POPC   C1A67287   0.583  23.139   6.225
 5247POPC   D2A67288   0.487  22.881   6.592
 5247POPC   C3A67289   0.289  22.979   6.952
 5247POPC   C4A67290   0.264  22.623   7.170
 5247POPC   C1B67291   0.698  22.602   6.214
 5247POPC   C2B67292   0.909  22.553   6.622
 5247POPC   C3B67293   0.750  22.707   7.023
 5247POPC   C4B67294   0.645  22.713   7.520
 5248POPC   NC367295  16.971  31.827   5.355
 5248POPC   PO467296  16.542  31.338   5.308
 5248POPC   GL167297  16.630  31.441   5.766
 5248POPC   GL267298  16.951  31.596   5.803
 5248POPC   C1A67299  16.659  31.622   6.198
 5248POPC   D2A67300  16.824  31.463   6.562
 5248POPC   C3A67301  16.653  31.604   6.917
 5248POPC   C4A67302  16.559  31.756   7.318
 5248POPC   C1B67303  17.186  31.454   6.165
 5248POPC   C2B67304  17.302  31.673   6.540
 5248POPC   C3B67305  17.204  31.527   6.917
 5248POPC   C4B67306  17.025  31.552   7.306
 5249POPC   NC367307  10.284  20.854   5.084
 5249POPC   PO467308  10.466  20.360   5.520
 5249POPC   GL167309  10.526  20.477   5.923
 5249POPC   GL267310  10.734  20.803   5.847
 5249POPC   C1A67311  10.141  20.506   6.215
 5249POPC   D2A67312   9.981  20.415   6.632
 5249POPC   C3A67313  10.203  20.700   6.950
 5249POPC   C4A67314  10.546  20.577   7.217
 5249POPC   C1B67315  10.548  20.842   6.245
 5249POPC   C2B67316  10.634  20.709   6.617
 5249POPC   C3B67317  10.735  20.945   6.940
 5249POPC   C4B67318  10.468  21.104   7.240
 5250POPC   NC367319  32.518  18.558   5.258
 5250POPC   PO467320  32.152  17.998   5.324
 5250POPC   GL167321  32.231  18.249   5.696
 5250POPC   GL267322  32.593  18.289   5.708
 5250POPC   C1A67323  32.076  18.357   6.131
 5250POPC   D2A67324  32.327  18.481   6.521
 5250POPC   C3A67325  32.138  18.353   6.885
 5250POPC   C4A67326  32.178  18.225   7.294
 5250POPC   C1B67327  32.524  18.094   6.130
 5250POPC   C2B67328  32.419  17.958   6.557
 5250POPC   C3B67329  32.555  18.073   6.982
 5250POPC   C4B67330  32.494  17.813   7.362
 5251POPC   NC367331  28.708  29.768   5.719
 5251POPC   PO467332  29.182  30.085   5.316
 5251POPC   GL167333  29.225  29.938   5.777
 5251POPC   GL267334  29.363  29.612   5.732
 5251POPC   C1A67335  29.143  30.017   6.250
 5251POPC   D2A67336  29.274  30.182   6.672
 5251POPC   C3A67337  29.060  29.995   7.033
 5251POPC   C4A67338  29.004  30.211   7.441
 5251POPC   C1B67339  29.488  29.550   6.186
 5251POPC   C2B67340  29.273  29.451   6.596
 5251POPC   C3B67341  29.435  29.580   7.030
 5251POPC   C4B67342  29.331  29.794   7.444
 5252POPC   NC367343  25.380   6.863   5.342
 5252POPC   PO467344  25.070   6.280   5.582
 5252POPC   GL167345  25.205   6.711   5.794
 5252POPC   GL267346  25.599   6.804   5.815
 5252POPC   C1A67347  25.271   6.877   6.221
 5252POPC   D2A67348  25.009   6.920   6.600
 5252POPC   C3A67349  25.083   6.604   6.885
 5252POPC   C4A67350  25.375   6.611   7.209
 5252POPC   C1B67351  25.521   6.422   6.075
 5252POPC   C2B67352  25.285   6.325   6.449
 5252POPC   C3B67353  25.443   6.247   6.869
 5252POPC   C4B67354  25.758   6.285   7.215
 5253POPC   NC367355   4.579  18.597   5.138
 5253POPC   PO467356   4.082  18.218   5.477
 5253POPC   GL167357   4.264  18.174   5.859
 5253POPC   GL267358   4.003  18.054   6.039
 5253POPC   C1A67359   4.360  18.362   6.246
 5253POPC   D2A67360   4.455  18.197   6.622
 5253POPC   C3A67361   4.146  18.269   6.920
 5253POPC   C4A67362   4.287  18.279   7.309
 5253POPC   C1B67363   3.954  18.089   6.459
 5253POPC   C2B67364   4.107  17.789   6.752
 5253POPC   C3B67365   4.350  17.822   7.136
 5253POPC   C4B67366   4.198  17.883   7.619
 5254POPC   NC367367   8.646   9.047   5.436
 5254POPC   PO467368   9.248   8.739   5.361
 5254POPC   GL167369   9.209   9.020   5.733
 5254POPC   GL267370   9.287   8.714   5.891
 5254POPC   C1A67371   9.066   9.052   6.204
 5254POPC   D2A67372   9.085   8.983   6.672
 5254POPC   C3A67373   8.709   9.002   6.960
 5254POPC   C4A67374   8.649   8.879   7.369
 5254POPC   C1B67375   9.550   8.530   6.222
 5254POPC   C2B67376   9.410   8.433   6.638
 5254POPC   C3B67377   9.372   8.703   6.986
 5254POPC   C4B67378   9.139   8.990   7.233
 5255POPC   NC367379  33.655   8.025   5.061
 5255POPC   PO467380  34.195   8.371   5.303
 5255POPC   GL167381  33.895   8.364   5.637
 5255POPC   GL267382  33.742   8.051   5.594
 5255POPC   C1A67383  33.640   8.447   6.011
 5255POPC   D2A67384  33.718   8.399   6.465
 5255POPC   C3A67385  33.547   8.250   6.875
 5255POPC   C4A67386  33.548   8.427   7.305
 5255POPC   C1B67387  33.605   7.940   6.038
 5255POPC   C2B67388  33.547   7.869   6.502
 5255POPC   C3B67389  33.492   7.698   6.934
 5255POPC   C4B67390  33.623   7.912   7.303
 5256POPC   NC367391  10.991  15.245   5.397
 5256POPC   PO467392  11.579  14.890   5.535
 5256POPC   GL167393  11.496  15.198   5.865
 5256POPC   GL267394  11.205  15.373   5.858
 5256POPC   C1A67395  11.636  15.508   6.144
 5256POPC   D2A67396  11.432  15.363   6.499
 5256POPC   C3A67397  11.434  15.367   6.963
 5256POPC   C4A67398  11.453  15.157   7.398
 5256POPC   C1B67399  11.125  15.652   6.215
 5256POPC   C2B67400  11.154  15.768   6.644
 5256POPC   C3B67401  10.981  15.683   7.049
 5256POPC   C4B67402  11.000  15.377   7.387
 5257POPC   NC367403  42.971  22.673   5.518
 5257POPC   PO467404  43.238  23.196   5.147
 5257POPC   GL167405  43.239  23.109   5.662
 5257POPC   GL267406  42.969  22.954   5.939
 5257POPC   C1A67407  43.376  23.162   6.115
 5257POPC   D2A67408  43.100  23.109   6.503
 5257POPC   C3A67409  43.222  22.824   6.829
 5257POPC   C4A67410  43.330  22.925   7.227
 5257POPC   C1B67411  42.859  22.594   6.208
 5257POPC   C2B67412  42.730  22.740   6.605
 5257POPC   C3B67413  42.760  23.016   6.935
 5257POPC   C4B67414  42.870  22.692   7.191
 5258POPC   NC367415   5.740   0.085   4.996
 5258POPC   PO467416   5.564   0.425   5.535
 5258POPC   GL167417   5.789   0.287   5.872
 5258POPC   GL267418   6.168   0.372   5.846
 5258POPC   C1A67419   5.902   0.322   6.305
 5258POPC   D2A67420   6.169   0.180   6.633
 5258POPC   C3A67421   5.944   0.333   6.990
 5258POPC   C4A67422   5.716   0.205   7.355
 5258POPC   C1B67423   6.136   0.737   6.175
 5258POPC   C2B67424   6.129   0.729   6.660
 5258POPC   C3B67425   6.037   0.819   7.130
 5258POPC   C4B67426   6.063   0.884   7.621
 5259POPC   NC367427  11.329  38.638   5.480
 5259POPC   PO467428  10.813  38.276   5.224
 5259POPC   GL167429  11.111  38.225   5.675
 5259POPC   GL267430  11.505  38.221   5.689
 5259POPC   C1A67431  11.142  38.470   6.133
 5259POPC   D2A67432  11.232  38.741   6.533
 5259POPC   C3A67433  11.154  38.538   6.942
 5259POPC   C4A67434  11.039  38.245   7.259
 5259POPC   C1B67435  11.633  38.451   6.069
 5259POPC   C2B67436  11.604  38.386   6.506
 5259POPC   C3B67437  11.653  38.457   6.953
 5259POPC   C4B67438  11.479  38.497   7.373
 5260POPC   NC367439  33.060  20.184   5.004
 5260POPC   PO467440  33.166  19.642   5.446
 5260POPC   GL167441  33.037  19.796   5.837
 5260POPC   GL267442  33.142  20.112   5.838
 5260POPC   C1A67443  33.000  19.680   6.265
 5260POPC   D2A67444  33.294  19.638   6.596
 5260POPC   C3A67445  33.020  19.747   6.910
 5260POPC   C4A67446  33.055  19.473   7.235
 5260POPC   C1B67447  32.766  20.160   6.108
 5260POPC   C2B67448  32.609  20.060   6.521
 5260POPC   C3B67449  32.726  20.186   6.933
 5260POPC   C4B67450  32.696  20.006   7.352
 5261POPC   NC367451  34.016  22.558   5.514
 5261POPC   PO467452  33.716  23.184   5.578
 5261POPC   GL167453  33.978  23.084   5.905
 5261POPC   GL267454  33.801  22.803   5.936
 5261POPC   C1A67455  34.042  22.937   6.344
 5261POPC   D2A67456  33.855  23.095   6.692
 5261POPC   C3A67457  33.832  22.785   6.999
 5261POPC   C4A67458  33.980  22.800   7.396
 5261POPC   C1B67459  33.571  23.162   6.214
 5261POPC   C2B67460  33.300  23.227   6.575
 5261POPC   C3B67461  33.454  23.217   6.986
 5261POPC   C4B67462  33.504  22.993   7.331
 5262POPC   NC367463  37.855  12.521   5.489
 5262POPC   PO467464  37.682  11.899   5.199
 5262POPC   GL167465  37.551  11.964   5.626
 5262POPC   GL267466  37.884  12.073   5.786
 5262POPC   C1A67467  37.450  11.837   6.068
 5262POPC   D2A67468  37.662  11.824   6.486
 5262POPC   C3A67469  37.505  11.930   6.913
 5262POPC   C4A67470  37.881  11.980   7.150
 5262POPC   C1B67471  37.814  12.348   6.169
 5262POPC   C2B67472  38.060  12.469   6.540
 5262POPC   C3B67473  37.948  12.477   6.944
 5262POPC   C4B67474  37.647  12.420   7.232
 5263POPC   NC367475   8.781   6.951   5.359
 5263POPC   PO467476   9.082   6.357   5.471
 5263POPC   GL167477   8.960   6.699   5.758
 5263POPC   GL267478   8.641   6.838   5.821
 5263POPC   C1A67479   9.022   6.808   6.189
 5263POPC   D2A67480   9.096   6.544   6.557
 5263POPC   C3A67481   9.126   6.644   6.980
 5263POPC   C4A67482   9.074   6.325   7.305
 5263POPC   C1B67483   8.643   6.494   6.089
 5263POPC   C2B67484   8.611   6.652   6.490
 5263POPC   C3B67485   8.594   6.772   6.913
 5263POPC   C4B67486   8.740   6.725   7.308
 5264POPC   NC367487  35.184  24.703   5.508
 5264POPC   PO467488  35.632  25.166   5.333
 5264POPC   GL167489  35.369  25.178   5.765
 5264POPC   GL267490  35.017  25.304   5.822
 5264POPC   C1A67491  35.383  25.366   6.197
 5264POPC   D2A67492  35.530  25.234   6.615
 5264POPC   C3A67493  35.582  25.428   7.012
 5264POPC   C4A67494  35.432  25.262   7.395
 5264POPC   C1B67495  35.064  24.969   6.139
 5264POPC   C2B67496  35.131  24.901   6.569
 5264POPC   C3B67497  35.157  25.050   6.983
 5264POPC   C4B67498  35.013  24.904   7.366
 5265POPC   NC367499  12.209  26.695   5.409
 5265POPC   PO467500  11.580  26.582   5.494
 5265POPC   GL167501  11.878  26.889   5.755
 5265POPC   GL267502  12.193  26.719   5.911
 5265POPC   C1A67503  11.915  27.064   6.178
 5265POPC   D2A67504  12.172  26.860   6.490
 5265POPC   C3A67505  12.033  27.006   6.873
 5265POPC   C4A67506  12.068  26.818   7.237
 5265POPC   C1B67507  12.293  26.406   6.213
 5265POPC   C2B67508  12.430  26.408   6.637
 5265POPC   C3B67509  12.239  26.391   7.037
 5265POPC   C4B67510  12.296  26.465   7.539
 5266POPC   NC367511  28.828  10.576   5.522
 5266POPC   PO467512  29.543  10.336   5.445
 5266POPC   GL167513  29.276  10.279   5.803
 5266POPC   GL267514  28.925  10.172   5.838
 5266POPC   C1A67515  29.212  10.558   6.168
 5266POPC   D2A67516  29.429  10.798   6.498
 5266POPC   C3A67517  29.124  10.824   6.831
 5266POPC   C4A67518  29.082  10.578   7.216
 5266POPC   C1B67519  28.720  10.360   6.195
 5266POPC   C2B67520  28.712  10.559   6.603
 5266POPC   C3B67521  28.623  10.401   7.014
 5266POPC   C4B67522  28.685  10.344   7.462
 5267POPC   NC367523  44.879  42.958   5.526
 5267POPC   PO467524  44.304  43.235   5.492
 5267POPC   GL167525  44.429  42.978   5.824
 5267POPC   GL267526  44.678  43.237   5.905
 5267POPC   C1A67527  44.499  42.916   6.271
 5267POPC   D2A67528  44.661  43.260   6.538
 5267POPC   C3A67529  44.527  43.251   6.969
 5267POPC   C4A67530  44.559  43.458   7.363
 5267POPC   C1B67531  44.995  43.064   6.171
 5267POPC   C2B67532   0.163  43.162   6.554
 5267POPC   C3B67533   0.046  43.356   6.918
 5267POPC   C4B67534  44.931  43.074   7.225
 5268POPC   NC367535   7.438  18.747   5.305
 5268POPC   PO467536   7.244  18.032   5.310
 5268POPC   GL167537   7.376  18.217   5.704
 5268POPC   GL267538   7.724  18.365   5.727
 5268POPC   C1A67539   7.284  18.289   6.166
 5268POPC   D2A67540   7.123  18.413   6.599
 5268POPC   C3A67541   7.428  18.312   6.963
 5268POPC   C4A67542   7.475  18.143   7.420
 5268POPC   C1B67543   7.792  18.160   6.168
 5268POPC   C2B67544   7.800  18.074   6.655
 5268POPC   C3B67545   7.900  18.185   7.113
 5268POPC   C4B67546   7.993  17.998   7.533
 5269POPC   NC367547   9.951  28.954   5.544
 5269POPC   PO467548   9.287  29.126   5.434
 5269POPC   GL167549   9.498  28.960   5.790
 5269POPC   GL267550   9.526  28.653   5.855
 5269POPC   C1A67551   9.734  29.022   6.207
 5269POPC   D2A67552   9.733  29.184   6.652
 5269POPC   C3A67553   9.767  29.073   7.104
 5269POPC   C4A67554  10.009  28.937   7.465
 5269POPC   C1B67555   9.389  28.654   6.234
 5269POPC   C2B67556   9.561  28.657   6.597
 5269POPC   C3B67557   9.372  28.818   6.918
 5269POPC   C4B67558   9.501  28.677   7.343
 5270POPC   NC367559  11.408   6.461   5.438
 5270POPC   PO467560  10.953   6.901   5.384
 5270POPC   GL167561  11.175   6.861   5.787
 5270POPC   GL267562  11.220   6.498   5.894
 5270POPC   C1A67563  11.249   7.040   6.197
 5270POPC   D2A67564  11.177   6.894   6.657
 5270POPC   C3A67565  11.127   7.071   7.092
 5270POPC   C4A67566  11.191   6.771   7.457
 5270POPC   C1B67567  11.398   6.580   6.304
 5270POPC   C2B67568  11.581   6.593   6.733
 5270POPC   C3B67569  11.576   6.508   7.186
 5270POPC   C4B67570  11.504   6.359   7.629
 5271POPC   NC367571  13.737  29.530   5.606
 5271POPC   PO467572  13.201  29.869   5.357
 5271POPC   GL167573  13.364  29.904   5.735
 5271POPC   GL267574  13.284  29.590   5.818
 5271POPC   C1A67575  13.406  30.174   6.108
 5271POPC   D2A67576  13.629  30.164   6.515
 5271POPC   C3A67577  13.442  30.211   6.927
 5271POPC   C4A67578  13.769  30.134   7.209
 5271POPC   C1B67579  13.533  29.679   6.217
 5271POPC   C2B67580  13.770  29.623   6.610
 5271POPC   C3B67581  13.650  29.645   7.048
 5271POPC   C4B67582  13.530  29.403   7.439
 5272POPC   NC367583  43.065   5.227   5.285
 5272POPC   PO467584  43.243   4.712   5.765
 5272POPC   GL167585  43.031   5.084   5.774
 5272POPC   GL267586  43.261   5.356   5.774
 5272POPC   C1A67587  42.820   5.270   6.110
 5272POPC   D2A67588  42.794   5.017   6.508
 5272POPC   C3A67589  42.841   5.152   6.950
 5272POPC   C4A67590  42.773   4.881   7.313
 5272POPC   C1B67591  43.310   5.198   6.213
 5272POPC   C2B67592  43.215   5.300   6.622
 5272POPC   C3B67593  43.410   5.186   7.017
 5272POPC   C4B67594  43.615   5.278   7.424
 5273POPC   NC367595  35.245  29.667   5.481
 5273POPC   PO467596  35.401  29.043   5.381
 5273POPC   GL167597  35.478  29.215   5.771
 5273POPC   GL267598  35.739  28.974   5.794
 5273POPC   C1A67599  35.321  29.387   6.154
 5273POPC   D2A67600  35.190  29.164   6.575
 5273POPC   C3A67601  35.217  29.423   6.927
 5273POPC   C4A67602  35.458  29.615   7.240
 5273POPC   C1B67603  35.501  28.878   6.176
 5273POPC   C2B67604  35.567  28.784   6.590
 5273POPC   C3B67605  35.582  29.047   6.952
 5273POPC   C4B67606  35.213  28.987   7.202
 5274POPC   NC367607  32.114  11.469   5.321
 5274POPC   PO467608  31.793  10.996   5.446
 5274POPC   GL167609  32.000  11.305   5.788
 5274POPC   GL267610  32.286  11.600   5.799
 5274POPC   C1A67611  32.190  11.278   6.183
 5274POPC   D2A67612  32.251  10.992   6.470
 5274POPC   C3A67613  32.262  11.175   6.849
 5274POPC   C4A67614  32.141  10.920   7.190
 5274POPC   C1B67615  32.584  11.616   6.195
 5274POPC   C2B67616  32.442  11.703   6.627
 5274POPC   C3B67617  32.495  11.590   7.050
 5274POPC   C4B67618  32.561  11.230   7.278
 5275POPC   NC367619  39.534  44.551   5.507
 5275POPC   PO467620  38.963  44.817   5.269
 5275POPC   GL167621  38.930  44.824   5.734
 5275POPC   GL267622  38.954   0.145   5.880
 5275POPC   C1A67623  39.188  44.685   6.115
 5275POPC   D2A67624  39.232  44.299   6.378
 5275POPC   C3A67625  39.309  44.331   6.829
 5275POPC   C4A67626  39.117  44.320   7.246
 5275POPC   C1B67627  38.789  44.990   6.249
 5275POPC   C2B67628  38.968  44.752   6.580
 5275POPC   C3B67629  39.066  44.764   7.008
 5275POPC   C4B67630  39.299  44.765   7.423
 5276POPC   NC367631   0.481  20.954   5.405
 5276POPC   PO467632   0.738  20.366   5.503
 5276POPC   GL167633   0.368  20.517   5.691
 5276POPC   GL267634   0.579  20.720   5.895
 5276POPC   C1A67635   0.133  20.552   6.083
 5276POPC   D2A67636   0.294  20.583   6.498
 5276POPC   C3A67637   0.127  20.585   6.893
 5276POPC   C4A67638   0.293  20.532   7.303
 5276POPC   C1B67639   0.597  20.349   6.162
 5276POPC   C2B67640   0.618  20.200   6.605
 5276POPC   C3B67641   0.698  20.359   7.027
 5276POPC   C4B67642   0.766  20.632   7.407
 5277POPC   NC367643  39.404  35.552   5.399
 5277POPC   PO467644  38.966  35.044   5.368
 5277POPC   GL167645  39.069  35.209   5.762
 5277POPC   GL267646  39.027  35.557   5.805
 5277POPC   C1A67647  38.972  35.203   6.194
 5277POPC   D2A67648  38.813  35.346   6.561
 5277POPC   C3A67649  39.059  35.264   6.909
 5277POPC   C4A67650  39.314  34.982   7.148
 5277POPC   C1B67651  39.101  35.720   6.210
 5277POPC   C2B67652  39.234  35.650   6.590
 5277POPC   C3B67653  39.325  35.861   6.962
 5277POPC   C4B67654  39.306  35.592   7.271
 5278POPC   NC367655   9.550  30.767   5.428
 5278POPC   PO467656   9.491  30.251   5.825
 5278POPC   GL167657   9.565  30.680   5.939
 5278POPC   GL267658   9.886  30.803   5.841
 5278POPC   C1A67659   9.631  30.991   6.249
 5278POPC   D2A67660   9.834  30.938   6.658
 5278POPC   C3A67661   9.600  30.651   6.935
 5278POPC   C4A67662   9.494  30.709   7.361
 5278POPC   C1B67663  10.023  30.584   6.260
 5278POPC   C2B67664  10.149  30.528   6.729
 5278POPC   C3B67665  10.043  30.547   7.199
 5278POPC   C4B67666  10.051  30.316   7.608
 5279POPC   NC367667   9.901  21.687   5.469
 5279POPC   PO467668  10.002  21.061   5.379
 5279POPC   GL167669   9.766  21.280   5.746
 5279POPC   GL267670   9.457  21.499   5.660
 5279POPC   C1A67671   9.911  21.503   6.126
 5279POPC   D2A67672  10.055  21.373   6.538
 5279POPC   C3A67673   9.890  21.380   6.976
 5279POPC   C4A67674   9.972  21.197   7.398
 5279POPC   C1B67675   9.419  21.587   6.120
 5279POPC   C2B67676   9.639  21.729   6.501
 5279POPC   C3B67677   9.548  21.776   6.938
 5279POPC   C4B67678   9.490  21.547   7.298
 5280POPC   NC367679  23.971   3.763   5.642
 5280POPC   PO467680  24.491   3.533   5.194
 5280POPC   GL167681  24.482   3.434   5.654
 5280POPC   GL267682  24.521   3.740   5.810
 5280POPC   C1A67683  24.499   3.353   6.135
 5280POPC   D2A67684  24.431   3.515   6.599
 5280POPC   C3A67685  24.684   3.327   6.984
 5280POPC   C4A67686  24.577   3.137   7.404
 5280POPC   C1B67687  24.384   3.895   6.199
 5280POPC   C2B67688  24.171   4.089   6.527
 5280POPC   C3B67689  24.399   3.944   6.877
 5280POPC   C4B67690  24.632   3.812   7.205
 5281POPC   NC367691  15.947   0.117   5.390
 5281POPC   PO467692  16.323  44.745   5.619
 5281POPC   GL167693  16.009  44.603   5.885
 5281POPC   GL267694  15.835  44.928   5.861
 5281POPC   C1A67695  15.958  44.367   6.297
 5281POPC   D2A67696  16.055  44.392   6.751
 5281POPC   C3A67697  16.124  44.736   7.058
 5281POPC   C4A67698  16.063  44.539   7.451
 5281POPC   C1B67699  15.702  44.834   6.285
 5281POPC   C2B67700  15.746  44.949   6.704
 5281POPC   C3B67701  15.528   0.093   7.045
 5281POPC   C4B67702  15.728  44.923   7.370
 5282POPC   NC367703  24.122   3.832   5.154
 5282POPC   PO467704  23.633   3.436   5.540
 5282POPC   GL167705  23.699   3.418   5.921
 5282POPC   GL267706  24.036   3.325   5.907
 5282POPC   C1A67707  23.483   3.552   6.286
 5282POPC   D2A67708  23.476   3.370   6.668
 5282POPC   C3A67709  23.446   3.620   7.000
 5282POPC   C4A67710  23.615   3.708   7.423
 5282POPC   C1B67711  24.013   3.546   6.298
 5282POPC   C2B67712  23.858   3.714   6.673
 5282POPC   C3B67713  23.975   3.769   7.069
 5282POPC   C4B67714  24.260   3.486   7.202
 5283POPC   NC367715  28.520  14.768   5.615
 5283POPC   PO467716  28.377  14.070   5.322
 5283POPC   GL167717  28.238  14.374   5.692
 5283POPC   GL267718  28.528  14.298   5.879
 5283POPC   C1A67719  28.172  14.450   6.197
 5283POPC   D2A67720  28.376  14.231   6.559
 5283POPC   C3A67721  28.245  14.339   6.984
 5283POPC   C4A67722  28.082  14.065   7.313
 5283POPC   C1B67723  28.790  14.035   6.145
 5283POPC   C2B67724  28.921  14.193   6.538
 5283POPC   C3B67725  28.745  14.432   6.858
 5283POPC   C4B67726  28.644  14.550   7.261
 5284POPC   NC367727  23.519  27.034   5.500
 5284POPC   PO467728  24.034  26.649   5.465
 5284POPC   GL167729  23.949  26.915   5.833
 5284POPC   GL267730  23.599  26.792   5.933
 5284POPC   C1A67731  23.895  26.928   6.298
 5284POPC   D2A67732  23.611  26.840   6.623
 5284POPC   C3A67733  23.869  26.952   6.983
 5284POPC   C4A67734  24.086  26.793   7.328
 5284POPC   C1B67735  23.433  27.134   6.209
 5284POPC   C2B67736  23.448  27.318   6.659
 5284POPC   C3B67737  23.379  27.047   7.042
 5284POPC   C4B67738  23.539  26.585   7.083
 5285POPC   NC367739  30.708  21.109   5.543
 5285POPC   PO467740  30.759  21.680   5.297
 5285POPC   GL167741  30.594  21.598   5.726
 5285POPC   GL267742  30.867  21.449   5.916
 5285POPC   C1A67743  30.423  21.577   6.165
 5285POPC   D2A67744  30.287  21.518   6.610
 5285POPC   C3A67745  30.579  21.530   6.978
 5285POPC   C4A67746  30.547  21.283   7.393
 5285POPC   C1B67747  30.835  21.325   6.366
 5285POPC   C2B67748  31.025  21.520   6.708
 5285POPC   C3B67749  31.251  21.445   7.061
 5285POPC   C4B67750  31.036  21.428   7.469
 5286POPC   NC367751   6.869   8.165   5.442
 5286POPC   PO467752   7.514   8.111   5.475
 5286POPC   GL167753   7.276   8.161   5.839
 5286POPC   GL267754   7.068   7.848   5.830
 5286POPC   C1A67755   7.383   8.380   6.252
 5286POPC   D2A67756   7.235   8.623   6.627
 5286POPC   C3A67757   7.393   8.418   6.980
 5286POPC   C4A67758   7.484   8.411   7.399
 5286POPC   C1B67759   7.277   7.874   6.258
 5286POPC   C2B67760   7.209   8.077   6.636
 5286POPC   C3B67761   7.139   7.958   7.049
 5286POPC   C4B67762   7.325   7.921   7.445
 5287POPC   NC367763  25.060  40.195   5.348
 5287POPC   PO467764  25.641  39.912   5.216
 5287POPC   GL167765  25.529  40.039   5.666
 5287POPC   GL267766  25.528  39.784   5.845
 5287POPC   C1A67767  25.438  40.156   6.161
 5287POPC   D2A67768  25.357  40.305   6.617
 5287POPC   C3A67769  25.486  40.102   6.999
 5287POPC   C4A67770  25.594  40.282   7.417
 5287POPC   C1B67771  25.210  39.703   6.184
 5287POPC   C2B67772  25.071  39.880   6.582
 5287POPC   C3B67773  25.116  39.717   6.981
 5287POPC   C4B67774  24.909  39.597   7.380
 5288POPC   NC367775  16.513  30.971   5.595
 5288POPC   PO467776  17.061  30.535   5.428
 5288POPC   GL167777  16.926  30.717   5.803
 5288POPC   GL267778  17.019  31.079   5.777
 5288POPC   C1A67779  16.822  30.597   6.251
 5288POPC   D2A67780  16.513  30.702   6.589
 5288POPC   C3A67781  16.730  30.622   6.993
 5288POPC   C4A67782  17.128  30.549   7.222
 5288POPC   C1B67783  16.826  31.100   6.185
 5288POPC   C2B67784  16.964  30.982   6.612
 5288POPC   C3B67785  16.833  31.134   7.006
 5288POPC   C4B67786  16.503  30.999   7.247
 5289POPC   NC367787  24.067  40.109   5.267
 5289POPC   PO467788  24.646  39.994   5.166
 5289POPC   GL167789  24.464  40.030   5.595
 5289POPC   GL267790  24.768  40.095   5.753
 5289POPC   C1A67791  24.392  39.960   6.064
 5289POPC   D2A67792  24.560  39.940   6.488
 5289POPC   C3A67793  24.337  40.111   6.831
 5289POPC   C4A67794  24.159  39.779   7.102
 5289POPC   C1B67795  24.909  40.154   6.162
 5289POPC   C2B67796  24.827  40.353   6.551
 5289POPC   C3B67797  24.946  40.277   6.973
 5289POPC   C4B67798  24.691  39.956   7.131
 5290POPC   NC367799  12.678   9.146   5.215
 5290POPC   PO467800  12.800   8.481   5.270
 5290POPC   GL167801  12.763   8.829   5.627
 5290POPC   GL267802  12.789   9.212   5.728
 5290POPC   C1A67803  12.769   8.855   6.101
 5290POPC   D2A67804  12.673   8.997   6.534
 5290POPC   C3A67805  12.841   8.954   6.972
 5290POPC   C4A67806  12.674   8.792   7.386
 5290POPC   C1B67807  12.951   9.333   6.166
 5290POPC   C2B67808  13.152   9.210   6.563
 5290POPC   C3B67809  13.228   9.296   6.992
 5290POPC   C4B67810  12.859   9.427   7.222
 5291POPC   NC367811  32.020  17.626   5.115
 5291POPC   PO467812  32.295  17.006   5.136
 5291POPC   GL167813  32.305  17.475   5.507
 5291POPC   GL267814  32.058  17.727   5.715
 5291POPC   C1A67815  32.392  17.543   6.031
 5291POPC   D2A67816  32.256  17.227   6.368
 5291POPC   C3A67817  32.336  17.271   6.816
 5291POPC   C4A67818  32.263  17.381   7.234
 5291POPC   C1B67819  31.983  17.846   6.149
 5291POPC   C2B67820  31.972  17.654   6.566
 5291POPC   C3B67821  32.117  17.792   6.965
 5291POPC   C4B67822  31.961  17.772   7.378
 5292POPC   NC367823  33.457  39.533   5.179
 5292POPC   PO467824  33.052  39.145   5.578
 5292POPC   GL167825  33.003  39.255   5.966
 5292POPC   GL267826  33.336  39.135   6.042
 5292POPC   C1A67827  32.751  39.228   6.341
 5292POPC   D2A67828  32.820  39.098   6.774
 5292POPC   C3A67829  32.868  39.408   7.126
 5292POPC   C4A67830  32.802  39.377   7.568
 5292POPC   C1B67831  33.229  39.405   6.404
 5292POPC   C2B67832  33.301  39.360   6.831
 5292POPC   C3B67833  33.467  39.156   7.196
 5292POPC   C4B67834  33.285  39.217   7.584
 5293POPC   NC367835  36.567  23.387   5.479
 5293POPC   PO467836  36.969  22.747   5.394
 5293POPC   GL167837  36.757  22.858   5.772
 5293POPC   GL267838  36.902  23.177   5.781
 5293POPC   C1A67839  36.919  22.794   6.224
 5293POPC   D2A67840  36.936  22.714   6.683
 5293POPC   C3A67841  37.155  22.973   6.996
 5293POPC   C4A67842  37.046  22.855   7.425
 5293POPC   C1B67843  36.678  23.242   6.171
 5293POPC   C2B67844  36.831  23.232   6.607
 5293POPC   C3B67845  36.718  23.234   7.058
 5293POPC   C4B67846  36.794  23.313   7.500
 5294POPC   NC367847  23.414  27.809   5.504
 5294POPC   PO467848  23.937  27.346   5.491
 5294POPC   GL167849  23.693  27.393   5.848
 5294POPC   GL267850  23.746  27.736   5.898
 5294POPC   C1A67851  23.846  27.428   6.282
 5294POPC   D2A67852  23.814  27.694   6.616
 5294POPC   C3A67853  23.877  27.510   6.995
 5294POPC   C4A67854  23.999  27.764   7.335
 5294POPC   C1B67855  23.464  27.802   6.227
 5294POPC   C2B67856  23.307  27.808   6.638
 5294POPC   C3B67857  23.517  27.893   7.031
 5294POPC   C4B67858  23.557  27.957   7.478
 5295POPC   NC367859  39.067  16.517   5.298
 5295POPC   PO467860  39.231  17.179   5.335
 5295POPC   GL167861  39.273  16.799   5.661
 5295POPC   GL267862  39.517  16.486   5.704
 5295POPC   C1A67863  39.273  16.717   6.134
 5295POPC   D2A67864  39.028  16.818   6.515
 5295POPC   C3A67865  39.206  16.732   6.932
 5295POPC   C4A67866  39.134  16.525   7.321
 5295POPC   C1B67867  39.690  16.452   6.158
 5295POPC   C2B67868  39.531  16.344   6.554
 5295POPC   C3B67869  39.676  16.361   6.974
 5295POPC   C4B67870  39.531  16.217   7.366
 5296POPC   NC367871  36.298  15.561   5.530
 5296POPC   PO467872  35.816  15.959   5.381
 5296POPC   GL167873  36.032  15.922   5.809
 5296POPC   GL267874  36.413  16.012   5.880
 5296POPC   C1A67875  36.036  15.966   6.266
 5296POPC   D2A67876  35.931  15.686   6.597
 5296POPC   C3A67877  35.976  15.825   7.043
 5296POPC   C4A67878  36.086  15.739   7.486
 5296POPC   C1B67879  36.511  15.780   6.283
 5296POPC   C2B67880  36.383  15.892   6.707
 5296POPC   C3B67881  36.494  15.842   7.136
 5296POPC   C4B67882  36.751  15.727   7.476
 5297POPC   NC367883  44.886   8.323   5.390
 5297POPC   PO467884  44.315   8.006   5.457
 5297POPC   GL167885  44.582   8.194   5.786
 5297POPC   GL267886  44.316   8.339   5.963
 5297POPC   C1A67887  44.785   8.300   6.192
 5297POPC   D2A67888  44.551   8.298   6.589
 5297POPC   C3A67889  44.626   8.472   6.998
 5297POPC   C4A67890  44.871   8.282   7.307
 5297POPC   C1B67891  44.349   7.948   6.243
 5297POPC   C2B67892  44.340   7.832   6.695
 5297POPC   C3B67893  44.271   8.082   7.053
 5297POPC   C4B67894  44.395   8.268   7.461
 5298POPC   NC367895   1.401  18.650   5.335
 5298POPC   PO467896   0.933  18.198   5.366
 5298POPC   GL167897   1.103  18.276   5.751
 5298POPC   GL267898   0.908  18.546   5.767
 5298POPC   C1A67899   1.165  18.140   6.191
 5298POPC   D2A67900   1.390  18.243   6.583
 5298POPC   C3A67901   1.200  17.970   6.864
 5298POPC   C4A67902   1.075  18.002   7.276
 5298POPC   C1B67903   1.284  18.623   6.087
 5298POPC   C2B67904   1.399  18.768   6.545
 5298POPC   C3B67905   1.313  18.632   7.003
 5298POPC   C4B67906   1.543  18.626   7.436
 5299POPC   NC367907  44.719  39.324   5.452
 5299POPC   PO467908   0.335  39.375   5.463
 5299POPC   GL167909   0.467  39.272   5.892
 5299POPC   GL267910   0.539  38.915   5.923
 5299POPC   C1A67911   0.454  39.232   6.346
 5299POPC   D2A67912   0.639  39.142   6.749
 5299POPC   C3A67913   0.386  39.136   7.132
 5299POPC   C4A67914   0.435  38.949   7.547
 5299POPC   C1B67915   0.745  38.815   6.323
 5299POPC   C2B67916   0.567  38.612   6.712
 5299POPC   C3B67917   0.581  38.630   7.154
 5299POPC   C4B67918   0.857  38.931   7.175
 5300POPC   NC367919  43.684  23.279   4.984
 5300POPC   PO467920  44.190  23.006   5.388
 5300POPC   GL167921  44.036  22.889   5.772
 5300POPC   GL267922  44.297  22.835   5.932
 5300POPC   C1A67923  43.872  22.990   6.186
 5300POPC   D2A67924  43.609  22.882   6.506
 5300POPC   C3A67925  43.783  23.026   6.869
 5300POPC   C4A67926  43.781  23.154   7.287
 5300POPC   C1B67927  44.194  22.596   6.293
 5300POPC   C2B67928  43.985  22.563   6.685
 5300POPC   C3B67929  43.645  22.549   6.965
 5300POPC   C4B67930  43.738  22.652   7.364
 5301POPC   NC367931  40.928  34.438   5.394
 5301POPC   PO467932  40.268  34.096   5.338
 5301POPC   GL167933  40.542  34.213   5.743
 5301POPC   GL267934  40.759  34.493   5.860
 5301POPC   C1A67935  40.440  34.310   6.212
 5301POPC   D2A67936  40.452  34.554   6.575
 5301POPC   C3A67937  40.598  34.514   6.991
 5301POPC   C4A67938  40.579  34.909   7.194
 5301POPC   C1B67939  40.938  34.508   6.269
 5301POPC   C2B67940  40.940  34.702   6.670
 5301POPC   C3B67941  41.080  34.736   7.098
 5301POPC   C4B67942  41.137  35.025   7.479
 5302POPC   NC367943  11.336  41.239   5.320
 5302POPC   PO467944  11.383  41.979   5.513
 5302POPC   GL167945  11.192  41.688   5.807
 5302POPC   GL267946  11.353  41.373   5.881
 5302POPC   C1A67947  10.932  41.546   6.162
 5302POPC   D2A67948  10.939  41.267   6.537
 5302POPC   C3A67949  11.117  41.499   6.920
 5302POPC   C4A67950  10.945  41.548   7.346
 5302POPC   C1B67951  11.406  41.675   6.289
 5302POPC   C2B67952  11.554  41.809   6.732
 5302POPC   C3B67953  11.485  41.851   7.177
 5302POPC   C4B67954  11.423  41.516   7.519
 5303POPC   NC367955  35.897  35.219   5.547
 5303POPC   PO467956  35.277  35.416   5.497
 5303POPC   GL167957  35.587  35.491   5.830
 5303POPC   GL267958  35.638  35.155   5.993
 5303POPC   C1A67959  35.598  35.607   6.243
 5303POPC   D2A67960  35.604  35.368   6.616
 5303POPC   C3A67961  35.681  35.612   6.963
 5303POPC   C4A67962  35.685  35.485   7.359
 5303POPC   C1B67963  35.240  35.210   6.264
 5303POPC   C2B67964  35.080  35.361   6.692
 5303POPC   C3B67965  35.254  35.271   7.121
 5303POPC   C4B67966  35.101  35.170   7.551
 5304POPC   NC367967  24.261  15.417   5.321
 5304POPC   PO467968  24.748  14.961   5.227
 5304POPC   GL167969  24.553  15.043   5.660
 5304POPC   GL267970  24.593  15.380   5.757
 5304POPC   C1A67971  24.546  15.051   6.149
 5304POPC   D2A67972  24.712  15.032   6.593
 5304POPC   C3A67973  24.505  14.982   6.997
 5304POPC   C4A67974  24.659  14.930   7.425
 5304POPC   C1B67975  24.721  15.543   6.165
 5304POPC   C2B67976  24.767  15.705   6.611
 5304POPC   C3B67977  24.780  15.428   6.979
 5304POPC   C4B67978  24.435  15.401   7.301
 5305POPC   NC367979  10.428  41.216   5.379
 5305POPC   PO467980  11.009  41.573   5.339
 5305POPC   GL167981  10.848  41.320   5.673
 5305POPC   GL267982  10.646  41.630   5.732
 5305POPC   C1A67983  10.602  41.185   6.062
 5305POPC   D2A67984  10.460  41.451   6.413
 5305POPC   C3A67985  10.588  41.481   6.833
 5305POPC   C4A67986  10.487  41.318   7.206
 5305POPC   C1B67987  10.402  41.806   6.076
 5305POPC   C2B67988  10.311  41.922   6.511
 5305POPC   C3B67989  10.213  41.820   6.934
 5305POPC   C4B67990  10.528  41.834   7.224
 5306POPC   NC367991  40.238  43.542   5.640
 5306POPC   PO467992  39.836  43.121   5.211
 5306POPC   GL167993  39.866  43.203   5.677
 5306POPC   GL267994  39.738  43.568   5.719
 5306POPC   C1A67995  40.117  43.088   6.095
 5306POPC   D2A67996  40.196  42.943   6.517
 5306POPC   C3A67997  40.283  43.137   6.925
 5306POPC   C4A67998  40.351  42.869   7.306
 5306POPC   C1B67999  39.853  43.525   6.172
 5306POPC   C2B68000  39.815  43.332   6.576
 5306POPC   C3B68001  39.864  43.502   6.997
 5306POPC   C4B68002  39.933  43.340   7.394
 5307POPC   NC368003  13.292  21.649   5.176
 5307POPC   PO468004  12.704  21.291   5.365
 5307POPC   GL168005  12.606  21.517   5.799
 5307POPC   GL268006  12.732  21.237   6.006
 5307POPC   C1A68007  12.439  21.599   6.242
 5307POPC   D2A68008  12.511  21.264   6.507
 5307POPC   C3A68009  12.704  21.345   6.890
 5307POPC   C4A68010  12.660  21.403   7.332
 5307POPC   C1B68011  12.953  21.554   6.254
 5307POPC   C2B68012  13.087  21.652   6.667
 5307POPC   C3B68013  13.027  21.662   7.119
 5307POPC   C4B68014  13.152  21.369   7.468
 5308POPC   NC368015  11.655  10.325   5.390
 5308POPC   PO468016  11.134  10.764   5.399
 5308POPC   GL168017  11.217  10.521   5.788
 5308POPC   GL268018  11.552  10.510   5.851
 5308POPC   C1A68019  11.249  10.236   6.168
 5308POPC   D2A68020  11.487  10.258   6.548
 5308POPC   C3A68021  11.286  10.334   6.932
 5308POPC   C4A68022  11.002  10.143   7.229
 5308POPC   C1B68023  11.541  10.666   6.239
 5308POPC   C2B68024  11.435  10.919   6.570
 5308POPC   C3B68025  11.495  10.845   6.960
 5308POPC   C4B68026  11.301  10.701   7.332
 5309POPC   NC368027   9.541   6.329   5.544
 5309POPC   PO468028   9.828   5.693   5.433
 5309POPC   GL168029   9.936   5.829   5.882
 5309POPC   GL268030   9.915   5.494   5.945
 5309POPC   C1A68031   9.743   6.000   6.315
 5309POPC   D2A68032   9.902   6.121   6.729
 5309POPC   C3A68033   9.811   6.022   7.145
 5309POPC   C4A68034   9.468   5.977   7.412
 5309POPC   C1B68035   9.951   5.543   6.394
 5309POPC   C2B68036   9.712   5.635   6.787
 5309POPC   C3B68037   9.710   5.539   7.260
 5309POPC   C4B68038  10.006   5.521   7.645
 5310POPC   NC368039  14.706  33.809   5.453
 5310POPC   PO468040  14.074  33.672   5.137
 5310POPC   GL168041  14.196  33.809   5.590
 5310POPC   GL268042  14.388  33.578   5.836
 5310POPC   C1A68043  14.230  34.020   6.018
 5310POPC   D2A68044  14.308  33.833   6.438
 5310POPC   C3A68045  14.276  34.036   6.831
 5310POPC   C4A68046  14.369  33.911   7.246
 5310POPC   C1B68047  14.727  33.658   6.180
 5310POPC   C2B68048  14.970  33.825   6.581
 5310POPC   C3B68049  14.767  33.797   6.980
 5310POPC   C4B68050  14.512  33.423   7.172
 5311POPC   NC368051  37.948   5.244   5.439
 5311POPC   PO468052  37.465   4.833   5.664
 5311POPC   GL168053  37.769   5.024   5.877
 5311POPC   GL268054  37.634   5.343   5.831
 5311POPC   C1A68055  37.746   4.977   6.301
 5311POPC   D2A68056  37.433   5.090   6.602
 5311POPC   C3A68057  37.404   4.882   7.007
 5311POPC   C4A68058  37.590   5.023   7.372
 5311POPC   C1B68059  37.952   5.439   6.134
 5311POPC   C2B68060  37.936   5.361   6.567
 5311POPC   C3B68061  37.799   5.243   6.952
 5311POPC   C4B68062  38.014   5.315   7.332
 5312POPC   NC368063  12.386  44.843   5.527
 5312POPC   PO468064  11.718  44.587   5.546
 5312POPC   GL168065  12.011  44.687   5.939
 5312POPC   GL268066  12.405  44.622   5.997
 5312POPC   C1A68067  12.016  44.566   6.394
 5312POPC   D2A68068  12.268  44.552   6.804
 5312POPC   C3A68069  12.010  44.585   7.192
 5312POPC   C4A68070  11.615  44.805   7.259
 5312POPC   C1B68071  12.416  44.922   6.387
 5312POPC   C2B68072  12.334   0.085   6.807
 5312POPC   C3B68073  12.452  44.879   7.182
 5312POPC   C4B68074  12.291  44.818   7.591
 5313POPC   NC368075  35.090  24.639   4.988
 5313POPC   PO468076  35.630  24.400   5.387
 5313POPC   GL168077  35.586  24.432   5.818
 5313POPC   GL268078  35.613  24.748   5.809
 5313POPC   C1A68079  35.321  24.516   6.207
 5313POPC   D2A68080  35.082  24.387   6.572
 5313POPC   C3A68081  35.279  24.535   6.930
 5313POPC   C4A68082  35.211  24.364   7.303
 5313POPC   C1B68083  35.647  24.907   6.221
 5313POPC   C2B68084  35.670  24.745   6.654
 5313POPC   C3B68085  35.614  24.890   7.081
 5313POPC   C4B68086  35.478  24.746   7.484
 5314POPC   NC368087  37.874   7.608   5.639
 5314POPC   PO468088  37.343   7.189   5.456
 5314POPC   GL168089  37.524   7.287   5.850
 5314POPC   GL268090  37.377   7.592   5.887
 5314POPC   C1A68091  37.744   7.301   6.287
 5314POPC   D2A68092  37.818   6.996   6.650
 5314POPC   C3A68093  37.923   7.255   6.996
 5314POPC   C4A68094  37.952   7.718   6.960
 5314POPC   C1B68095  37.255   7.466   6.303
 5314POPC   C2B68096  37.402   7.310   6.714
 5314POPC   C3B68097  37.481   7.501   7.120
 5314POPC   C4B68098  37.240   7.518   7.517
 5315POPC   NC368099  41.846  34.185   5.463
 5315POPC   PO468100  41.359  34.613   5.372
 5315POPC   GL168101  41.328  34.418   5.820
 5315POPC   GL268102  41.547  34.125   5.886
 5315POPC   C1A68103  41.510  34.476   6.283
 5315POPC   D2A68104  41.448  34.715   6.699
 5315POPC   C3A68105  41.629  34.768   7.123
 5315POPC   C4A68106  41.666  34.968   7.545
 5315POPC   C1B68107  41.200  34.077   6.192
 5315POPC   C2B68108  41.210  34.257   6.633
 5315POPC   C3B68109  41.412  34.296   7.031
 5315POPC   C4B68110  41.814  34.121   7.130
 5316POPC   NC368111   8.585  41.390   5.517
 5316POPC   PO468112   7.960  41.574   5.413
 5316POPC   GL168113   8.163  41.422   5.791
 5316POPC   GL268114   8.242  41.726   5.927
 5316POPC   C1A68115   8.158  41.302   6.219
 5316POPC   D2A68116   8.208  41.606   6.547
 5316POPC   C3A68117   8.138  41.477   6.963
 5316POPC   C4A68118   7.958  41.450   7.383
 5316POPC   C1B68119   8.474  41.961   6.236
 5316POPC   C2B68120   8.675  41.855   6.603
 5316POPC   C3B68121   8.570  41.818   7.033
 5316POPC   C4B68122   8.430  41.663   7.424
 5317POPC   NC368123   0.198  26.891   5.524
 5317POPC   PO468124   0.853  26.663   5.397
 5317POPC   GL168125   0.630  26.751   5.801
 5317POPC   GL268126   0.384  26.496   5.801
 5317POPC   C1A68127   0.347  26.868   6.176
 5317POPC   D2A68128   0.402  26.897   6.626
 5317POPC   C3A68129   0.240  26.880   7.052
 5317POPC   C4A68130   0.536  26.894   7.406
 5317POPC   C1B68131   0.196  26.358   6.189
 5317POPC   C2B68132   0.067  26.516   6.582
 5317POPC   C3B68133   0.058  26.400   6.996
 5317POPC   C4B68134   0.142  26.526   7.437
 5318POPC   NC368135  37.322  38.602   5.431
 5318POPC   PO468136  37.829  38.226   5.387
 5318POPC   GL168137  37.762  38.439   5.790
 5318POPC   GL268138  37.622  38.781   5.840
 5318POPC   C1A68139  37.730  38.286   6.206
 5318POPC   D2A68140  37.546  38.244   6.603
 5318POPC   C3A68141  37.857  38.352   6.919
 5318POPC   C4A68142  37.803  38.305   7.339
 5318POPC   C1B68143  37.459  38.676   6.283
 5318POPC   C2B68144  37.579  38.743   6.704
 5318POPC   C3B68145  37.450  38.621   7.120
 5318POPC   C4B68146  37.531  38.659   7.566
 5319POPC   NC368147  37.786  31.223   5.295
 5319POPC   PO468148  37.469  30.610   5.367
 5319POPC   GL168149  37.622  30.866   5.665
 5319POPC   GL268150  37.704  30.593   5.844
 5319POPC   C1A68151  37.447  30.965   6.093
 5319POPC   D2A68152  37.270  30.836   6.526
 5319POPC   C3A68153  37.548  30.904   6.879
 5319POPC   C4A68154  37.638  30.676   7.246
 5319POPC   C1B68155  37.943  30.785   6.126
 5319POPC   C2B68156  37.925  30.879   6.543
 5319POPC   C3B68157  38.055  30.710   6.950
 5319POPC   C4B68158  38.095  30.845   7.379
 5320POPC   NC368159  26.373  35.304   5.318
 5320POPC   PO468160  25.845  35.514   5.526
 5320POPC   GL168161  26.194  35.533   5.782
 5320POPC   GL268162  26.313  35.211   5.796
 5320POPC   C1A68163  26.266  35.577   6.226
 5320POPC   D2A68164  26.174  35.677   6.659
 5320POPC   C3A68165  25.893  35.467   6.980
 5320POPC   C4A68166  26.258  35.553   7.213
 5320POPC   C1B68167  26.219  35.074   6.170
 5320POPC   C2B68168  26.006  35.214   6.522
 5320POPC   C3B68169  26.293  35.184   6.855
 5320POPC   C4B68170  26.347  34.824   7.097
 5321POPC   NC368171  22.541  30.128   5.171
 5321POPC   PO468172  23.140  29.900   5.364
 5321POPC   GL168173  22.970  30.110   5.708
 5321POPC   GL268174  22.606  30.229   5.684
 5321POPC   C1A68175  23.049  29.966   6.116
 5321POPC   D2A68176  22.982  30.159   6.494
 5321POPC   C3A68177  23.074  29.976   6.891
 5321POPC   C4A68178  23.188  29.592   7.139
 5321POPC   C1B68179  22.564  30.092   6.135
 5321POPC   C2B68180  22.552  29.909   6.552
 5321POPC   C3B68181  22.569  29.882   6.980
 5321POPC   C4B68182  22.751  30.149   7.257
 5322POPC   NC368183  11.865  38.937   5.273
 5322POPC   PO468184  12.364  39.312   5.456
 5322POPC   GL168185  12.245  39.303   5.846
 5322POPC   GL268186  12.547  39.177   5.972
 5322POPC   C1A68187  12.167  39.417   6.258
 5322POPC   D2A68188  12.090  39.227   6.619
 5322POPC   C3A68189  12.349  39.225   6.942
 5322POPC   C4A68190  12.184  39.178   7.312
 5322POPC   C1B68191  12.359  38.903   6.326
 5322POPC   C2B68192  12.373  38.716   6.757
 5322POPC   C3B68193  12.447  38.760   7.229
 5322POPC   C4B68194  12.398  38.896   7.708
 5323POPC   NC368195  27.277  22.854   5.378
 5323POPC   PO468196  27.933  22.597   5.410
 5323POPC   GL168197  27.654  22.775   5.767
 5323POPC   GL268198  27.592  23.139   5.753
 5323POPC   C1A68199  27.569  22.929   6.230
 5323POPC   D2A68200  27.796  22.829   6.629
 5323POPC   C3A68201  27.584  22.692   7.019
 5323POPC   C4A68202  27.779  22.775   7.434
 5323POPC   C1B68203  27.243  23.270   6.053
 5323POPC   C2B68204  27.092  23.145   6.479
 5323POPC   C3B68205  27.285  23.187   6.906
 5323POPC   C4B68206  27.305  23.003   7.318
 5324POPC   NC368207   6.862  20.988   5.293
 5324POPC   PO468208   6.672  20.364   5.467
 5324POPC   GL168209   6.628  20.504   5.882
 5324POPC   GL268210   6.677  20.831   5.757
 5324POPC   C1A68211   6.638  20.454   6.345
 5324POPC   D2A68212   6.752  20.416   6.778
 5324POPC   C3A68213   6.422  20.579   6.989
 5324POPC   C4A68214   6.315  20.705   7.397
 5324POPC   C1B68215   6.728  20.936   6.170
 5324POPC   C2B68216   6.937  20.837   6.546
 5324POPC   C3B68217   6.820  20.888   6.970
 5324POPC   C4B68218   6.825  20.687   7.339
 5325POPC   NC368219  38.808  41.649   5.702
 5325POPC   PO468220  39.375  41.708   5.332
 5325POPC   GL168221  39.393  41.623   5.787
 5325POPC   GL268222  39.197  41.320   5.885
 5325POPC   C1A68223  39.324  41.692   6.238
 5325POPC   D2A68224  39.273  41.567   6.687
 5325POPC   C3A68225  39.054  41.744   7.083
 5325POPC   C4A68226  39.241  41.737   7.513
 5325POPC   C1B68227  39.099  41.204   6.350
 5325POPC   C2B68228  39.002  41.165   6.852
 5325POPC   C3B68229  38.957  41.303   7.319
 5325POPC   C4B68230  38.916  41.177   7.778
 5326POPC   NC368231  21.789  19.337   5.127
 5326POPC   PO468232  21.296  19.021   5.493
 5326POPC   GL168233  21.503  19.142   5.860
 5326POPC   GL268234  21.606  18.802   5.926
 5326POPC   C1A68235  21.441  19.284   6.304
 5326POPC   D2A68236  21.237  19.197   6.673
 5326POPC   C3A68237  21.426  19.236   7.073
 5326POPC   C4A68238  21.213  19.320   7.441
 5326POPC   C1B68239  21.606  18.582   6.302
 5326POPC   C2B68240  21.251  18.685   6.530
 5326POPC   C3B68241  21.221  18.761   6.957
 5326POPC   C4B68242  21.624  18.743   7.122
 5327POPC   NC368243  39.690  17.262   5.472
 5327POPC   PO468244  39.965  16.607   5.406
 5327POPC   GL168245  40.023  16.821   5.773
 5327POPC   GL268246  39.718  16.953   5.862
 5327POPC   C1A68247  40.321  16.903   6.118
 5327POPC   D2A68248  40.288  16.938   6.560
 5327POPC   C3A68249  40.125  16.615   6.807
 5327POPC   C4A68250  40.133  16.678   7.238
 5327POPC   C1B68251  39.842  16.954   6.251
 5327POPC   C2B68252  39.666  16.822   6.585
 5327POPC   C3B68253  39.702  16.877   6.972
 5327POPC   C4B68254  39.597  16.742   7.337
 5328POPC   NC368255  44.317   9.083   5.486
 5328POPC   PO468256  44.948   8.779   5.403
 5328POPC   GL168257  44.624   8.739   5.782
 5328POPC   GL268258  44.580   9.093   5.925
 5328POPC   C1A68259  44.465   8.722   6.256
 5328POPC   D2A68260  44.606   9.041   6.525
 5328POPC   C3A68261  44.872   8.965   6.876
 5328POPC   C4A68262  44.810   9.030   7.292
 5328POPC   C1B68263  44.879   9.355   6.160
 5328POPC   C2B68264  44.966   9.437   6.589
 5328POPC   C3B68265  44.971   9.463   7.031
 5328POPC   C4B68266   0.265   9.278   7.322
 5329POPC   NC368267  44.037   5.283   5.378
 5329POPC   PO468268  43.434   4.921   5.242
 5329POPC   GL168269  43.666   5.030   5.676
 5329POPC   GL268270  44.035   4.947   5.786
 5329POPC   C1A68271  43.780   5.329   6.057
 5329POPC   D2A68272  43.718   5.260   6.539
 5329POPC   C3A68273  43.870   5.435   6.949
 5329POPC   C4A68274  44.121   5.202   7.262
 5329POPC   C1B68275  44.287   5.161   6.144
 5329POPC   C2B68276  44.226   5.245   6.610
 5329POPC   C3B68277  44.020   4.908   6.838
 5329POPC   C4B68278  44.139   4.564   7.148
 5330POPC   NC368279   3.160   2.021   5.281
 5330POPC   PO468280   2.630   1.627   5.452
 5330POPC   GL168281   2.870   1.880   5.738
 5330POPC   GL268282   2.966   1.622   5.922
 5330POPC   C1A68283   2.881   2.075   6.194
 5330POPC   D2A68284   2.713   2.216   6.610
 5330POPC   C3A68285   2.947   2.220   6.997
 5330POPC   C4A68286   2.725   2.221   7.360
 5330POPC   C1B68287   2.534   1.700   6.142
 5330POPC   C2B68288   2.433   1.779   6.596
 5330POPC   C3B68289   2.675   1.792   7.013
 5330POPC   C4B68290   3.046   1.539   7.208
 5331POPC   NC368291   9.907  17.163   5.524
 5331POPC   PO468292   9.544  17.700   5.350
 5331POPC   GL168293   9.587  17.505   5.748
 5331POPC   GL268294   9.377  17.184   5.659
 5331POPC   C1A68295   9.685  17.587   6.193
 5331POPC   D2A68296   9.748  17.577   6.648
 5331POPC   C3A68297   9.797  17.304   7.015
 5331POPC   C4A68298   9.843  17.531   7.430
 5331POPC   C1B68299   9.565  17.044   6.055
 5331POPC   C2B68300   9.598  17.110   6.484
 5331POPC   C3B68301   9.342  17.297   6.788
 5331POPC   C4B68302   9.229  17.108   7.158
 5332POPC   NC368303   1.277  36.373   5.392
 5332POPC   PO468304   0.855  35.932   5.484
 5332POPC   GL168305   1.044  35.997   5.862
 5332POPC   GL268306   1.325  36.245   5.878
 5332POPC   C1A68307   1.092  36.002   6.306
 5332POPC   D2A68308   1.222  36.324   6.599
 5332POPC   C3A68309   1.034  36.228   6.986
 5332POPC   C4A68310   1.073  35.937   7.307
 5332POPC   C1B68311   1.581  36.006   6.157
 5332POPC   C2B68312   1.576  35.959   6.587
 5332POPC   C3B68313   1.508  35.985   7.043
 5332POPC   C4B68314   1.529  36.022   7.517
 5333POPC   NC368315  34.269   7.860   5.386
 5333POPC   PO468316  35.012   7.931   5.453
 5333POPC   GL168317  34.760   7.965   5.870
 5333POPC   GL268318  34.407   8.114   5.806
 5333POPC   C1A68319  34.594   8.103   6.296
 5333POPC   D2A68320  34.585   8.365   6.693
 5333POPC   C3A68321  34.546   8.159   7.099
 5333POPC   C4A68322  34.847   8.133   7.418
 5333POPC   C1B68323  34.086   8.180   6.108
 5333POPC   C2B68324  34.141   8.139   6.550
 5333POPC   C3B68325  34.051   8.284   6.929
 5333POPC   C4B68326  34.035   8.337   7.366
 5334POPC   NC368327  19.694  32.429   5.318
 5334POPC   PO468328  20.126  32.213   5.730
 5334POPC   GL168329  19.704  32.340   5.823
 5334POPC   GL268330  19.573  32.039   5.895
 5334POPC   C1A68331  19.514  32.412   6.231
 5334POPC   D2A68332  19.602  32.234   6.628
 5334POPC   C3A68333  19.887  32.367   6.922
 5334POPC   C4A68334  19.717  32.481   7.313
 5334POPC   C1B68335  19.557  31.832   6.293
 5334POPC   C2B68336  19.479  31.754   6.739
 5334POPC   C3B68337  19.517  32.014   7.114
 5334POPC   C4B68338  19.597  32.028   7.572
 5335POPC   NC368339   8.905   1.357   5.478
 5335POPC   PO468340   9.301   0.868   5.488
 5335POPC   GL168341   9.030   0.982   5.822
 5335POPC   GL268342   9.240   1.235   5.865
 5335POPC   C1A68343   8.987   0.856   6.278
 5335POPC   D2A68344   9.248   0.853   6.667
 5335POPC   C3A68345   9.095   0.973   7.056
 5335POPC   C4A68346   9.236   1.319   7.292
 5335POPC   C1B68347   8.970   1.347   6.217
 5335POPC   C2B68348   8.814   1.206   6.623
 5335POPC   C3B68349   8.821   1.390   7.007
 5335POPC   C4B68350   8.761   1.496   7.411
 5336POPC   NC368351  21.316   2.453   5.396
 5336POPC   PO468352  21.169   3.167   5.529
 5336POPC   GL168353  21.316   2.957   5.867
 5336POPC   GL268354  21.614   2.767   5.864
 5336POPC   C1A68355  21.338   2.854   6.290
 5336POPC   D2A68356  21.204   2.545   6.528
 5336POPC   C3A68357  21.318   2.655   6.922
 5336POPC   C4A68358  21.095   2.777   7.267
 5336POPC   C1B68359  21.565   2.403   6.166
 5336POPC   C2B68360  21.669   2.311   6.619
 5336POPC   C3B68361  21.490   2.191   7.029
 5336POPC   C4B68362  21.462   2.467   7.423
 5337POPC   NC368363  34.985   7.454   5.663
 5337POPC   PO468364  35.559   7.343   5.361
 5337POPC   GL168365  35.505   7.422   5.798
 5337POPC   GL268366  35.372   7.114   5.853
 5337POPC   C1A68367  35.556   7.625   6.212
 5337POPC   D2A68368  35.370   7.635   6.617
 5337POPC   C3A68369  35.607   7.734   6.957
 5337POPC   C4A68370  35.387   7.512   7.266
 5337POPC   C1B68371  35.479   6.843   6.167
 5337POPC   C2B68372  35.322   6.797   6.568
 5337POPC   C3B68373  35.369   7.064   6.900
 5337POPC   C4B68374  35.460   7.012   7.317
 5338POPC   NC368375  40.592   4.845   4.996
 5338POPC   PO468376  40.813   4.273   5.386
 5338POPC   GL168377  40.912   4.464   5.756
 5338POPC   GL268378  41.029   4.183   5.921
 5338POPC   C1A68379  40.935   4.677   6.154
 5338POPC   D2A68380  40.655   4.635   6.506
 5338POPC   C3A68381  40.713   4.332   6.846
 5338POPC   C4A68382  40.554   4.383   7.276
 5338POPC   C1B68383  40.990   4.232   6.398
 5338POPC   C2B68384  41.189   4.496   6.725
 5338POPC   C3B68385  41.092   4.442   7.184
 5338POPC   C4B68386  40.924   4.023   7.284
 5339POPC   NC368387  32.167   0.576   5.442
 5339POPC   PO468388  32.674   0.258   5.746
 5339POPC   GL168389  32.441   0.585   5.948
 5339POPC   GL268390  32.092   0.460   5.942
 5339POPC   C1A68391  32.333   0.578   6.403
 5339POPC   D2A68392  32.191   0.255   6.717
 5339POPC   C3A68393  32.244   0.262   7.183
 5339POPC   C4A68394  32.241   0.146   7.655
 5339POPC   C1B68395  31.913   0.782   6.189
 5339POPC   C2B68396  32.055   0.971   6.627
 5339POPC   C3B68397  32.012   0.869   7.102
 5339POPC   C4B68398  32.162   0.633   7.515
 5340POPC   NC368399  12.656  33.374   5.514
 5340POPC   PO468400  12.899  32.778   5.412
 5340POPC   GL168401  12.866  33.006   5.831
 5340POPC   GL268402  12.955  33.362   5.923
 5340POPC   C1A68403  12.898  32.937   6.281
 5340POPC   D2A68404  13.018  32.725   6.667
 5340POPC   C3A68405  13.184  32.982   7.026
 5340POPC   C4A68406  13.009  32.978   7.452
 5340POPC   C1B68407  12.554  33.287   6.203
 5340POPC   C2B68408  12.498  33.072   6.613
 5340POPC   C3B68409  12.649  33.090   7.042
 5340POPC   C4B68410  12.519  33.481   7.223
 5341POPC   NC368411   4.399  10.804   5.296
 5341POPC   PO468412   3.967  10.285   5.458
 5341POPC   GL168413   4.319  10.294   5.751
 5341POPC   GL268414   4.493  10.636   5.774
 5341POPC   C1A68415   4.347  10.390   6.210
 5341POPC   D2A68416   4.448  10.253   6.612
 5341POPC   C3A68417   4.376  10.493   6.969
 5341POPC   C4A68418   4.431  10.303   7.308
 5341POPC   C1B68419   4.595  10.827   6.192
 5341POPC   C2B68420   4.420  10.861   6.627
 5341POPC   C3B68421   4.591  10.930   7.087
 5341POPC   C4B68422   4.649  10.730   7.523
 5342POPC   NC368423  13.513  32.364   5.510
 5342POPC   PO468424  14.136  32.004   5.480
 5342POPC   GL168425  14.013  32.165   5.854
 5342POPC   GL268426  13.833  32.482   5.913
 5342POPC   C1A68427  13.975  32.056   6.251
 5342POPC   D2A68428  13.858  32.376   6.513
 5342POPC   C3A68429  13.775  32.204   6.882
 5342POPC   C4A68430  13.900  31.999   7.213
 5342POPC   C1B68431  13.496  32.272   6.158
 5342POPC   C2B68432  13.334  32.331   6.568
 5342POPC   C3B68433  13.386  32.507   6.964
 5342POPC   C4B68434  13.401  32.228   7.275
 5343POPC   NC368435  22.314   3.845   5.311
 5343POPC   PO468436  22.402   3.177   5.482
 5343POPC   GL168437  22.322   3.517   5.723
 5343POPC   GL268438  21.993   3.488   5.697
 5343POPC   C1A68439  22.338   3.492   6.174
 5343POPC   D2A68440  22.051   3.348   6.509
 5343POPC   C3A68441  22.278   3.411   6.906
 5343POPC   C4A68442  22.288   3.173   7.287
 5343POPC   C1B68443  21.877   3.695   6.087
 5343POPC   C2B68444  21.667   3.686   6.495
 5343POPC   C3B68445  21.803   3.605   6.906
 5343POPC   C4B68446  21.990   3.645   7.307
 5344POPC   NC368447  29.985  33.398   5.295
 5344POPC   PO468448  29.927  32.711   5.484
 5344POPC   GL168449  29.985  33.105   5.736
 5344POPC   GL268450  29.649  33.218   5.732
 5344POPC   C1A68451  30.035  33.212   6.200
 5344POPC   D2A68452  30.185  33.283   6.633
 5344POPC   C3A68453  29.941  33.085   6.979
 5344POPC   C4A68454  29.966  33.122   7.424
 5344POPC   C1B68455  29.700  32.848   6.068
 5344POPC   C2B68456  29.781  32.814   6.522
 5344POPC   C3B68457  29.580  32.719   6.914
 5344POPC   C4B68458  29.510  32.915   7.304
 5345POPC   NC368459  25.771   7.701   5.064
 5345POPC   PO468460  26.178   7.461   5.537
 5345POPC   GL168461  26.093   7.476   5.941
 5345POPC   GL268462  25.779   7.329   5.891
 5345POPC   C1A68463  26.133   7.460   6.380
 5345POPC   D2A68464  25.905   7.713   6.634
 5345POPC   C3A68465  25.940   7.470   6.954
 5345POPC   C4A68466  26.229   7.361   7.282
 5345POPC   C1B68467  25.795   7.071   6.246
 5345POPC   C2B68468  25.964   7.045   6.693
 5345POPC   C3B68469  25.783   7.009   7.147
 5345POPC   C4B68470  25.816   7.159   7.593
 5346POPC   NC368471  23.152   0.475   5.394
 5346POPC   PO468472  22.683   0.103   5.195
 5346POPC   GL168473  22.723   0.295   5.647
 5346POPC   GL268474  22.817   0.670   5.731
 5346POPC   C1A68475  22.848   0.322   6.126
 5346POPC   D2A68476  23.092   0.372   6.551
 5346POPC   C3A68477  22.903   0.309   7.007
 5346POPC   C4A68478  22.558   0.262   7.344
 5346POPC   C1B68479  22.702   0.809   6.190
 5346POPC   C2B68480  22.853   0.807   6.650
 5346POPC   C3B68481  22.970   0.808   7.099
 5346POPC   C4B68482  23.139   0.959   7.472
 5347POPC   NC368483  38.383  41.134   5.287
 5347POPC   PO468484  38.378  41.790   5.626
 5347POPC   GL168485  38.413  41.625   5.993
 5347POPC   GL268486  38.363  41.283   5.797
 5347POPC   C1A68487  38.587  41.874   6.308
 5347POPC   D2A68488  38.878  41.893   6.616
 5347POPC   C3A68489  38.548  41.938   6.895
 5347POPC   C4A68490  38.429  41.807   7.292
 5347POPC   C1B68491  38.602  41.169   6.146
 5347POPC   C2B68492  38.658  41.397   6.529
 5347POPC   C3B68493  38.538  41.407   6.957
 5347POPC   C4B68494  38.441  41.292   7.361
 5348POPC   NC368495   0.809   5.234   5.317
 5348POPC   PO468496   0.246   4.876   5.469
 5348POPC   GL168497   0.543   5.085   5.762
 5348POPC   GL268498   0.890   5.024   5.835
 5348POPC   C1A68499   0.555   5.253   6.183
 5348POPC   D2A68500   0.222   5.352   6.466
 5348POPC   C3A68501   0.348   5.317   6.879
 5348POPC   C4A68502   0.200   5.178   7.265
 5348POPC   C1B68503   0.830   4.809   6.225
 5348POPC   C2B68504   0.617   4.898   6.610
 5348POPC   C3B68505   0.754   5.053   7.032
 5348POPC   C4B68506   0.680   5.093   7.489
 5349POPC   NC368507  18.759   5.817   5.377
 5349POPC   PO468508  19.404   6.032   5.529
 5349POPC   GL168509  19.196   5.768   5.846
 5349POPC   GL268510  18.894   5.567   5.788
 5349POPC   C1A68511  19.199   5.869   6.288
 5349POPC   D2A68512  19.141   5.892   6.721
 5349POPC   C3A68513  19.346   6.039   7.041
 5349POPC   C4A68514  19.075   6.052   7.379
 5349POPC   C1B68515  18.968   5.405   6.175
 5349POPC   C2B68516  18.810   5.568   6.527
 5349POPC   C3B68517  18.748   5.643   6.949
 5349POPC   C4B68518  19.022   5.554   7.243
 5350POPC   NC368519   2.108   0.338   5.457
 5350POPC   PO468520   1.855   1.009   5.334
 5350POPC   GL168521   1.920   0.692   5.759
 5350POPC   GL268522   1.887   0.300   5.924
 5350POPC   C1A68523   2.134   0.662   6.173
 5350POPC   D2A68524   1.916   0.428   6.493
 5350POPC   C3A68525   1.982   0.537   6.918
 5350POPC   C4A68526   1.977   0.433   7.335
 5350POPC   C1B68527   2.224   0.148   6.187
 5350POPC   C2B68528   2.335   0.164   6.647
 5350POPC   C3B68529   2.204   0.053   7.082
 5350POPC   C4B68530   2.058  44.972   7.539
 5351POPC   NC368531  15.416  20.823   5.523
 5351POPC   PO468532  15.000  20.308   5.268
 5351POPC   GL168533  15.122  20.408   5.704
 5351POPC   GL268534  14.835  20.467   5.956
 5351POPC   C1A68535  15.314  20.468   6.120
 5351POPC   D2A68536  15.048  20.379   6.506
 5351POPC   C3A68537  15.207  20.403   6.931
 5351POPC   C4A68538  15.126  20.127   7.227
 5351POPC   C1B68539  14.976  20.821   6.261
 5351POPC   C2B68540  15.111  20.859   6.702
 5351POPC   C3B68541  14.934  20.819   7.114
 5351POPC   C4B68542  14.652  20.910   7.452
 5352POPC   NC368543  35.817   4.438   5.435
 5352POPC   PO468544  35.118   4.435   5.349
 5352POPC   GL168545  35.079   4.445   5.785
 5352POPC   GL268546  35.108   4.095   5.859
 5352POPC   C1A68547  35.330   4.436   6.187
 5352POPC   D2A68548  35.496   4.193   6.538
 5352POPC   C3A68549  35.630   4.352   6.950
 5352POPC   C4A68550  35.743   4.499   7.381
 5352POPC   C1B68551  34.848   4.262   6.203
 5352POPC   C2B68552  34.949   4.410   6.586
 5352POPC   C3B68553  35.144   4.257   6.923
 5352POPC   C4B68554  35.351   4.041   7.239
 5353POPC   NC368555  39.865   5.395   5.406
 5353POPC   PO468556  40.343   5.931   5.363
 5353POPC   GL168557  40.063   5.811   5.768
 5353POPC   GL268558  39.727   5.596   5.841
 5353POPC   C1A68559  39.923   6.001   6.191
 5353POPC   D2A68560  39.731   6.259   6.545
 5353POPC   C3A68561  39.674   6.030   6.925
 5353POPC   C4A68562  40.056   6.008   7.147
 5353POPC   C1B68563  39.969   5.477   6.186
 5353POPC   C2B68564  40.101   5.656   6.598
 5353POPC   C3B68565  40.077   5.483   7.020
 5353POPC   C4B68566  39.991   5.618   7.449
 5354POPC   NC368567  38.851  32.357   5.568
 5354POPC   PO468568  38.168  32.330   5.405
 5354POPC   GL168569  38.307  32.213   5.840
 5354POPC   GL268570  38.522  31.921   5.781
 5354POPC   C1A68571  38.238  32.285   6.315
 5354POPC   D2A68572  38.174  32.211   6.790
 5354POPC   C3A68573  38.315  32.456   7.137
 5354POPC   C4A68574  38.283  32.711   7.499
 5354POPC   C1B68575  38.607  31.919   6.232
 5354POPC   C2B68576  38.779  31.957   6.639
 5354POPC   C3B68577  38.612  32.051   7.028
 5354POPC   C4B68578  38.355  31.897   7.353
 5355POPC   NC368579  43.465   4.492   5.425
 5355POPC   PO468580  44.074   4.209   5.528
 5355POPC   GL168581  44.056   4.429   5.889
 5355POPC   GL268582  43.728   4.541   5.871
 5355POPC   C1A68583  44.103   4.517   6.296
 5355POPC   D2A68584  44.251   4.451   6.670
 5355POPC   C3A68585  44.002   4.125   6.886
 5355POPC   C4A68586  43.799   4.177   7.281
 5355POPC   C1B68587  43.715   4.847   6.210
 5355POPC   C2B68588  43.502   4.796   6.607
 5355POPC   C3B68589  43.639   4.543   6.944
 5355POPC   C4B68590  43.722   4.823   7.240
 5356POPC   NC368591  31.710   8.286   5.224
 5356POPC   PO468592  31.173   8.218   5.461
 5356POPC   GL168593  31.451   8.218   5.816
 5356POPC   GL268594  31.675   7.952   5.688
 5356POPC   C1A68595  31.343   8.151   6.261
 5356POPC   D2A68596  31.356   8.092   6.693
 5356POPC   C3A68597  31.491   8.304   7.053
 5356POPC   C4A68598  31.387   8.115   7.467
 5356POPC   C1B68599  31.772   7.854   6.151
 5356POPC   C2B68600  31.854   8.029   6.621
 5356POPC   C3B68601  31.781   7.895   7.093
 5356POPC   C4B68602  31.796   7.813   7.572
 5357POPC   NC368603  20.416  37.641   5.374
 5357POPC   PO468604  21.023  37.419   5.453
 5357POPC   GL168605  20.816  37.677   5.789
 5357POPC   GL268606  20.510  37.902   5.824
 5357POPC   C1A68607  20.756  37.680   6.231
 5357POPC   D2A68608  20.816  37.425   6.571
 5357POPC   C3A68609  20.629  37.532   6.996
 5357POPC   C4A68610  20.504  37.452   7.454
 5357POPC   C1B68611  20.553  38.140   6.219
 5357POPC   C2B68612  20.583  38.023   6.688
 5357POPC   C3B68613  20.450  38.011   7.143
 5357POPC   C4B68614  20.228  37.938   7.560
 5358POPC   NC368615  25.751  38.662   5.385
 5358POPC   PO468616  26.277  38.228   5.285
 5358POPC   GL168617  26.062  38.306   5.695
 5358POPC   GL268618  26.180  38.609   5.676
 5358POPC   C1A68619  25.943  38.513   6.118
 5358POPC   D2A68620  25.708  38.389   6.484
 5358POPC   C3A68621  25.936  38.422   6.871
 5358POPC   C4A68622  25.708  38.414   7.253
 5358POPC   C1B68623  26.360  38.849   5.995
 5358POPC   C2B68624  26.431  38.844   6.433
 5358POPC   C3B68625  26.352  38.741   6.852
 5358POPC   C4B68626  26.154  38.700   7.246
 5359POPC   NC368627  23.155  21.995   5.290
 5359POPC   PO468628  22.620  21.797   5.590
 5359POPC   GL168629  22.815  22.167   5.816
 5359POPC   GL268630  22.556  22.420   5.898
 5359POPC   C1A68631  23.057  22.486   6.050
 5359POPC   D2A68632  23.099  22.494   6.507
 5359POPC   C3A68633  22.928  22.114   6.751
 5359POPC   C4A68634  22.969  21.946   7.196
 5359POPC   C1B68635  22.639  22.298   6.303
 5359POPC   C2B68636  22.521  22.445   6.669
 5359POPC   C3B68637  22.654  22.357   7.119
 5359POPC   C4B68638  22.720  22.438   7.564
 5360POPC   NC368639  40.809  40.212   5.157
 5360POPC   PO468640  40.762  40.858   5.349
 5360POPC   GL168641  40.697  40.854   5.808
 5360POPC   GL268642  41.038  40.958   5.830
 5360POPC   C1A68643  40.580  40.865   6.278
 5360POPC   D2A68644  40.630  41.131   6.702
 5360POPC   C3A68645  40.621  40.909   7.143
 5360POPC   C4A68646  40.443  41.014   7.566
 5360POPC   C1B68647  41.103  40.940   6.266
 5360POPC   C2B68648  40.934  40.719   6.616
 5360POPC   C3B68649  41.100  40.872   6.978
 5360POPC   C4B68650  41.316  40.747   7.304
 5361POPC   NC368651   9.509  14.588   5.340
 5361POPC   PO468652  10.019  14.174   5.214
 5361POPC   GL168653   9.976  14.370   5.666
 5361POPC   GL268654  10.027  14.733   5.774
 5361POPC   C1A68655   9.814  14.275   6.111
 5361POPC   D2A68656   9.699  14.143   6.545
 5361POPC   C3A68657  10.030  14.290   6.827
 5361POPC   C4A68658   9.975  14.543   7.202
 5361POPC   C1B68659   9.618  14.759   6.002
 5361POPC   C2B68660   9.458  14.605   6.386
 5361POPC   C3B68661   9.565  14.624   6.819
 5361POPC   C4B68662   9.446  14.537   7.209
 5362POPC   NC368663  33.317  41.779   5.633
 5362POPC   PO468664  33.821  41.525   5.205
 5362POPC   GL168665  33.871  41.729   5.656
 5362POPC   GL268666  33.673  41.580   5.936
 5362POPC   C1A68667  34.069  41.833   6.086
 5362POPC   D2A68668  33.969  41.608   6.473
 5362POPC   C3A68669  34.148  41.778   6.871
 5362POPC   C4A68670  34.040  41.566   7.233
 5362POPC   C1B68671  33.595  41.275   6.258
 5362POPC   C2B68672  33.529  41.413   6.691
 5362POPC   C3B68673  33.549  41.408   7.134
 5362POPC   C4B68674  33.449  41.005   7.287
 5363POPC   NC368675  24.503  40.846   5.411
 5363POPC   PO468676  25.018  40.751   5.692
 5363POPC   GL168677  24.725  40.596   5.968
 5363POPC   GL268678  24.406  40.493   5.824
 5363POPC   C1A68679  24.662  40.802   6.353
 5363POPC   D2A68680  24.407  40.894   6.690
 5363POPC   C3A68681  24.520  40.589   6.982
 5363POPC   C4A68682  24.749  40.775   7.282
 5363POPC   C1B68683  24.318  40.432   6.288
 5363POPC   C2B68684  24.056  40.512   6.675
 5363POPC   C3B68685  24.021  40.652   7.097
 5363POPC   C4B68686  24.284  41.017   7.195
 5364POPC   NC368687  17.304  10.913   5.233
 5364POPC   PO468688  17.486  10.279   5.305
 5364POPC   GL168689  17.547  10.316   5.787
 5364POPC   GL268690  17.252  10.448   5.935
 5364POPC   C1A68691  17.737  10.473   6.197
 5364POPC   D2A68692  17.557  10.401   6.618
 5364POPC   C3A68693  17.629  10.645   6.971
 5364POPC   C4A68694  17.636  10.437   7.361
 5364POPC   C1B68695  17.107  10.415   6.350
 5364POPC   C2B68696  17.003  10.564   6.763
 5364POPC   C3B68697  17.157  10.561   7.185
 5364POPC   C4B68698  17.268  10.795   7.561
 5365POPC   NC368699  36.223  19.896   5.263
 5365POPC   PO468700  35.568  19.910   5.284
 5365POPC   GL168701  35.903  19.917   5.662
 5365POPC   GL268702  36.254  19.733   5.763
 5365POPC   C1A68703  35.906  19.973   6.114
 5365POPC   D2A68704  35.887  19.762   6.526
 5365POPC   C3A68705  35.940  19.939   6.920
 5365POPC   C4A68706  36.119  20.149   7.290
 5365POPC   C1B68707  36.409  19.916   6.183
 5365POPC   C2B68708  36.390  19.746   6.618
 5365POPC   C3B68709  36.439  19.845   7.035
 5365POPC   C4B68710  36.348  19.734   7.461
 5366POPC   NC368711  26.414  40.686   5.526
 5366POPC   PO468712  26.924  40.378   5.591
 5366POPC   GL168713  26.779  40.515   5.993
 5366POPC   GL268714  26.635  40.849   5.999
 5366POPC   C1A68715  26.852  40.526   6.451
 5366POPC   D2A68716  26.895  40.408   6.872
 5366POPC   C3A68717  26.998  40.705   7.134
 5366POPC   C4A68718  26.992  41.115   7.256
 5366POPC   C1B68719  26.400  40.699   6.370
 5366POPC   C2B68720  26.392  40.355   6.682
 5366POPC   C3B68721  26.445  40.475   7.098
 5366POPC   C4B68722  26.501  40.909   7.194
 5367POPC   NC368723  24.232   7.001   5.429
 5367POPC   PO468724  24.913   6.897   5.330
 5367POPC   GL168725  24.690   6.831   5.741
 5367POPC   GL268726  24.415   6.581   5.857
 5367POPC   C1A68727  24.770   6.719   6.178
 5367POPC   D2A68728  24.421   6.656   6.448
 5367POPC   C3A68729  24.575   6.727   6.857
 5367POPC   C4A68730  24.748   6.719   7.254
 5367POPC   C1B68731  24.090   6.374   6.155
 5367POPC   C2B68732  24.066   6.326   6.632
 5367POPC   C3B68733  24.179   6.470   7.064
 5367POPC   C4B68734  24.278   6.132   7.351
 5368POPC   NC368735  30.283  17.567   5.396
 5368POPC   PO468736  30.877  17.280   5.399
 5368POPC   GL168737  30.819  17.324   5.816
 5368POPC   GL268738  30.672  17.635   5.730
 5368POPC   C1A68739  30.515  17.394   6.139
 5368POPC   D2A68740  30.249  17.266   6.442
 5368POPC   C3A68741  30.441  17.204   6.840
 5368POPC   C4A68742  30.437  17.484   7.189
 5368POPC   C1B68743  30.564  17.911   6.070
 5368POPC   C2B68744  30.718  18.014   6.489
 5368POPC   C3B68745  30.702  17.895   6.957
 5368POPC   C4B68746  30.698  17.856   7.433
 5369POPC   NC368747  32.496  26.780   5.372
 5369POPC   PO468748  31.849  26.847   5.465
 5369POPC   GL168749  32.216  26.725   5.783
 5369POPC   GL268750  32.402  27.056   5.809
 5369POPC   C1A68751  32.455  26.777   6.231
 5369POPC   D2A68752  32.498  26.549   6.632
 5369POPC   C3A68753  32.425  26.720   7.059
 5369POPC   C4A68754  32.052  26.545   7.266
 5369POPC   C1B68755  31.998  27.005   6.110
 5369POPC   C2B68756  32.070  27.082   6.525
 5369POPC   C3B68757  31.954  26.937   6.906
 5369POPC   C4B68758  32.037  27.048   7.279
 5370POPC   NC368759  44.838  17.897   5.667
 5370POPC   PO468760  44.985  18.511   5.430
 5370POPC   GL168761  44.747  18.366   5.848
 5370POPC   GL268762  44.530  18.064   6.020
 5370POPC   C1A68763  44.603  18.508   6.247
 5370POPC   D2A68764  44.295  18.520   6.575
 5370POPC   C3A68765  44.469  18.499   6.963
 5370POPC   C4A68766  44.412  18.114   7.156
 5370POPC   C1B68767  44.814  18.048   6.351
 5370POPC   C2B68768  44.729  18.063   6.761
 5370POPC   C3B68769  44.919  18.173   7.115
 5370POPC   C4B68770   0.199  17.998   7.421
 5371POPC   NC368771  32.444  25.808   5.413
 5371POPC   PO468772  31.831  25.963   5.653
 5371POPC   GL168773  32.174  25.910   5.866
 5371POPC   GL268774  32.371  26.214   5.775
 5371POPC   C1A68775  32.130  25.771   6.277
 5371POPC   D2A68776  32.403  25.760   6.609
 5371POPC   C3A68777  32.234  25.717   7.013
 5371POPC   C4A68778  32.071  26.031   7.292
 5371POPC   C1B68779  32.525  26.171   6.204
 5371POPC   C2B68780  32.758  26.127   6.603
 5371POPC   C3B68781  32.490  26.169   7.009
 5371POPC   C4B68782  32.496  26.333   7.453
 5372POPC   NC368783  41.119  20.705   5.429
 5372POPC   PO468784  40.508  20.787   5.473
 5372POPC   GL168785  40.768  20.610   5.821
 5372POPC   GL268786  41.073  20.353   5.792
 5372POPC   C1A68787  40.676  20.701   6.246
 5372POPC   D2A68788  40.539  20.879   6.617
 5372POPC   C3A68789  40.620  20.638   6.987
 5372POPC   C4A68790  40.795  20.830   7.349
 5372POPC   C1B68791  40.952  20.262   6.203
 5372POPC   C2B68792  40.799  20.299   6.608
 5372POPC   C3B68793  41.066  20.381   6.968
 5372POPC   C4B68794  41.008  20.387   7.416
 5373POPC   NC368795  42.528  24.990   5.118
 5373POPC   PO468796  43.013  25.324   5.414
 5373POPC   GL168797  43.019  25.287   5.826
 5373POPC   GL268798  43.257  25.556   5.825
 5373POPC   C1A68799  42.978  25.113   6.253
 5373POPC   D2A68800  43.303  24.980   6.564
 5373POPC   C3A68801  43.362  25.143   6.948
 5373POPC   C4A68802  43.223  24.972   7.328
 5373POPC   C1B68803  43.083  25.626   6.209
 5373POPC   C2B68804  43.079  25.865   6.551
 5373POPC   C3B68805  43.202  25.706   6.937
 5373POPC   C4B68806  43.150  25.460   7.276
 5374POPC   NC368807  27.134  35.492   5.343
 5374POPC   PO468808  26.464  35.788   5.343
 5374POPC   GL168809  26.728  35.491   5.690
 5374POPC   GL268810  27.058  35.238   5.772
 5374POPC   C1A68811  26.701  35.266   6.110
 5374POPC   D2A68812  26.704  35.296   6.534
 5374POPC   C3A68813  26.798  35.011   6.833
 5374POPC   C4A68814  26.707  35.272   7.158
 5374POPC   C1B68815  27.081  35.613   6.062
 5374POPC   C2B68816  27.149  35.645   6.498
 5374POPC   C3B68817  27.132  35.430   6.891
 5374POPC   C4B68818  27.089  35.588   7.316
 5375POPC   NC368819  16.825  25.583   5.090
 5375POPC   PO468820  16.570  25.034   5.395
 5375POPC   GL168821  16.636  25.242   5.810
 5375POPC   GL268822  16.388  25.483   5.925
 5375POPC   C1A68823  16.770  25.311   6.266
 5375POPC   D2A68824  16.719  25.180   6.705
 5375POPC   C3A68825  16.990  25.300   7.066
 5375POPC   C4A68826  16.853  25.391   7.487
 5375POPC   C1B68827  16.411  25.670   6.340
 5375POPC   C2B68828  16.411  25.600   6.779
 5375POPC   C3B68829  16.402  25.393   7.181
 5375POPC   C4B68830  16.356  25.470   7.619
 5376POPC   NC368831  22.893  44.709   5.245
 5376POPC   PO468832  23.284  44.306   5.257
 5376POPC   GL168833  23.037  44.450   5.698
 5376POPC   GL268834  22.898  44.804   5.777
 5376POPC   C1A68835  22.915  44.444   6.178
 5376POPC   D2A68836  22.777  44.506   6.633
 5376POPC   C3A68837  22.944  44.420   7.088
 5376POPC   C4A68838  23.296  44.645   7.358
 5376POPC   C1B68839  22.631  44.864   6.160
 5376POPC   C2B68840  22.705   0.034   6.596
 5376POPC   C3B68841  22.650  44.849   7.023
 5376POPC   C4B68842  22.507  44.731   7.428
 5377POPC   NC368843   8.047  37.972   5.277
 5377POPC   PO468844   8.302  38.643   5.416
 5377POPC   GL168845   8.069  38.615   5.767
 5377POPC   GL268846   7.959  38.277   5.716
 5377POPC   C1A68847   8.208  38.628   6.178
 5377POPC   D2A68848   8.342  38.343   6.481
 5377POPC   C3A68849   8.210  38.494   6.880
 5377POPC   C4A68850   8.444  38.358   7.211
 5377POPC   C1B68851   7.991  38.146   6.143
 5377POPC   C2B68852   7.852  38.248   6.575
 5377POPC   C3B68853   7.873  38.053   6.995
 5377POPC   C4B68854   7.962  38.278   7.394
 5378POPC   NC368855   9.603   2.068   5.388
 5378POPC   PO468856  10.024   1.557   5.487
 5378POPC   GL168857   9.767   1.840   5.823
 5378POPC   GL268858   9.425   2.043   5.857
 5378POPC   C1A68859   9.647   1.916   6.279
 5378POPC   D2A68860   9.697   1.720   6.641
 5378POPC   C3A68861   9.790   2.056   6.909
 5378POPC   C4A68862   9.838   2.013   7.317
 5378POPC   C1B68863   9.431   2.365   6.235
 5378POPC   C2B68864   9.515   2.445   6.704
 5378POPC   C3B68865   9.364   2.240   7.149
 5378POPC   C4B68866   9.478   2.195   7.621
 5379POPC   NC368867  13.405  15.566   5.411
 5379POPC   PO468868  13.557  16.278   5.553
 5379POPC   GL168869  13.600  15.974   5.814
 5379POPC   GL268870  13.250  15.920   5.778
 5379POPC   C1A68871  13.757  16.046   6.222
 5379POPC   D2A68872  13.858  15.910   6.642
 5379POPC   C3A68873  13.863  16.145   7.000
 5379POPC   C4A68874  13.752  15.967   7.358
 5379POPC   C1B68875  13.283  15.808   6.203
 5379POPC   C2B68876  13.425  15.673   6.589
 5379POPC   C3B68877  13.376  15.832   6.997
 5379POPC   C4B68878  13.317  15.709   7.417
 5380POPC   NC368879   7.410  30.459   5.413
 5380POPC   PO468880   7.296  31.092   5.325
 5380POPC   GL168881   7.252  30.872   5.732
 5380POPC   GL268882   7.562  30.719   5.826
 5380POPC   C1A68883   7.301  30.902   6.211
 5380POPC   D2A68884   7.394  30.707   6.602
 5380POPC   C3A68885   7.266  30.962   6.932
 5380POPC   C4A68886   6.983  30.735   7.132
 5380POPC   C1B68887   7.735  30.602   6.230
 5380POPC   C2B68888   7.790  30.394   6.651
 5380POPC   C3B68889   7.664  30.618   7.038
 5380POPC   C4B68890   7.736  30.538   7.468
 5381POPC   NC368891  38.225  38.448   5.468
 5381POPC   PO468892  38.788  38.094   5.671
 5381POPC   GL168893  38.485  38.352   5.922
 5381POPC   GL268894  38.246  38.658   5.916
 5381POPC   C1A68895  38.328  38.382   6.347
 5381POPC   D2A68896  38.529  38.257   6.699
 5381POPC   C3A68897  38.495  38.467   7.027
 5381POPC   C4A68898  38.707  38.625   7.380
 5381POPC   C1B68899  37.963  38.741   6.237
 5381POPC   C2B68900  38.081  38.734   6.648
 5381POPC   C3B68901  38.159  38.880   7.031
 5381POPC   C4B68902  38.181  38.636   7.393
 5382POPC   NC368903  15.477  18.939   5.339
 5382POPC   PO468904  15.142  19.420   5.401
 5382POPC   GL168905  15.173  19.335   5.873
 5382POPC   GL268906  15.153  18.973   5.888
 5382POPC   C1A68907  14.946  19.237   6.301
 5382POPC   D2A68908  14.830  19.406   6.721
 5382POPC   C3A68909  14.945  19.172   7.122
 5382POPC   C4A68910  15.183  19.181   7.531
 5382POPC   C1B68911  15.362  18.958   6.312
 5382POPC   C2B68912  15.296  19.144   6.735
 5382POPC   C3B68913  15.415  18.970   7.133
 5382POPC   C4B68914  15.528  18.784   7.532
 5383POPC   NC368915  27.186  34.805   5.380
 5383POPC   PO468916  27.761  34.432   5.435
 5383POPC   GL168917  27.458  34.542   5.739
 5383POPC   GL268918  27.492  34.888   5.793
 5383POPC   C1A68919  27.482  34.504   6.170
 5383POPC   D2A68920  27.684  34.251   6.486
 5383POPC   C3A68921  27.530  34.430   6.838
 5383POPC   C4A68922  27.557  34.278   7.250
 5383POPC   C1B68923  27.799  34.930   6.103
 5383POPC   C2B68924  27.766  34.770   6.512
 5383POPC   C3B68925  27.902  34.760   6.911
 5383POPC   C4B68926  27.680  34.770   7.252
 5384POPC   NC368927   1.663  30.403   5.067
 5384POPC   PO468928   2.225  30.570   5.511
 5384POPC   GL168929   2.019  30.690   5.874
 5384POPC   GL268930   1.862  30.986   5.833
 5384POPC   C1A68931   2.031  30.540   6.299
 5384POPC   D2A68932   2.218  30.287   6.640
 5384POPC   C3A68933   2.198  30.529   7.018
 5384POPC   C4A68934   1.804  30.417   7.202
 5384POPC   C1B68935   2.052  31.112   6.231
 5384POPC   C2B68936   2.056  30.948   6.652
 5384POPC   C3B68937   1.843  30.921   7.066
 5384POPC   C4B68938   2.038  30.809   7.480
 5385POPC   NC368939  41.886   7.150   5.534
 5385POPC   PO468940  41.269   7.273   5.477
 5385POPC   GL168941  41.568   7.449   5.809
 5385POPC   GL268942  41.894   7.660   5.668
 5385POPC   C1A68943  41.656   7.261   6.225
 5385POPC   D2A68944  41.627   7.117   6.666
 5385POPC   C3A68945  41.308   7.257   6.978
 5385POPC   C4A68946  41.410   7.573   7.276
 5385POPC   C1B68947  41.953   7.677   6.109
 5385POPC   C2B68948  41.634   7.731   6.436
 5385POPC   C3B68949  41.666   7.622   6.844
 5385POPC   C4B68950  41.898   7.734   7.188
 5386POPC   NC368951  13.624  24.244   5.245
 5386POPC   PO468952  13.316  24.942   5.406
 5386POPC   GL168953  13.553  24.732   5.768
 5386POPC   GL268954  13.602  24.357   5.757
 5386POPC   C1A68955  13.606  24.587   6.219
 5386POPC   D2A68956  13.454  24.710   6.606
 5386POPC   C3A68957  13.662  24.594   6.947
 5386POPC   C4A68958  13.483  24.570   7.354
 5386POPC   C1B68959  13.889  24.185   6.088
 5386POPC   C2B68960  13.831  24.067   6.501
 5386POPC   C3B68961  13.979  24.190   6.876
 5386POPC   C4B68962  13.895  24.274   7.309
 5387POPC   NC368963  32.125  31.798   5.336
 5387POPC   PO468964  32.557  31.367   5.352
 5387POPC   GL168965  32.402  31.299   5.762
 5387POPC   GL268966  32.477  31.667   5.821
 5387POPC   C1A68967  32.455  31.315   6.251
 5387POPC   D2A68968  32.521  31.602   6.635
 5387POPC   C3A68969  32.426  31.560   7.101
 5387POPC   C4A68970  32.184  31.230   7.358
 5387POPC   C1B68971  32.056  31.554   6.037
 5387POPC   C2B68972  31.964  31.331   6.445
 5387POPC   C3B68973  32.002  31.519   6.841
 5387POPC   C4B68974  31.895  31.630   7.254
 5388POPC   NC368975  26.043  16.363   4.884
 5388POPC   PO468976  26.026  16.862   5.341
 5388POPC   GL168977  25.878  16.689   5.742
 5388POPC   GL268978  26.189  16.607   5.913
 5388POPC   C1A68979  25.779  16.712   6.193
 5388POPC   D2A68980  26.119  16.742   6.487
 5388POPC   C3A68981  26.031  16.690   6.932
 5388POPC   C4A68982  25.786  16.708   7.313
 5388POPC   C1B68983  26.149  17.048   6.049
 5388POPC   C2B68984  26.199  17.292   6.428
 5388POPC   C3B68985  26.308  17.111   6.818
 5388POPC   C4B68986  26.077  17.107   7.229
 5389POPC   NC368987  31.161  20.639   5.495
 5389POPC   PO468988  31.767  20.358   5.294
 5389POPC   GL168989  31.631  20.429   5.723
 5389POPC   GL268990  31.296  20.258   5.827
 5389POPC   C1A68991  31.878  20.615   6.088
 5389POPC   D2A68992  31.729  20.808   6.474
 5389POPC   C3A68993  31.732  20.611   6.851
 5389POPC   C4A68994  31.541  20.589   7.278
 5389POPC   C1B68995  31.343  20.624   6.152
 5389POPC   C2B68996  31.110  20.840   6.521
 5389POPC   C3B68997  31.308  20.917   6.944
 5389POPC   C4B68998  31.424  21.072   7.380
 5390POPC   NC368999  18.770  42.714   5.408
 5390POPC   PO469000  19.253  43.164   5.523
 5390POPC   GL169001  18.910  43.094   5.817
 5390POPC   GL269002  18.951  42.758   5.865
 5390POPC   C1A69003  18.967  43.182   6.279
 5390POPC   D2A69004  18.894  43.353   6.705
 5390POPC   C3A69005  19.090  43.200   7.091
 5390POPC   C4A69006  19.317  43.022   7.469
 5390POPC   C1B69007  18.752  42.732   6.242
 5390POPC   C2B69008  18.980  42.803   6.638
 5390POPC   C3B69009  18.791  42.792   7.029
 5390POPC   C4B69010  18.805  42.966   7.438
 5391POPC   NC369011  25.351  31.569   5.373
 5391POPC   PO469012  25.516  30.953   5.456
 5391POPC   GL169013  25.372  31.299   5.803
 5391POPC   GL269014  25.064  31.567   5.808
 5391POPC   C1A69015  25.348  31.615   6.202
 5391POPC   D2A69016  25.080  31.594   6.551
 5391POPC   C3A69017  25.357  31.627   6.890
 5391POPC   C4A69018  25.394  31.463   7.299
 5391POPC   C1B69019  25.002  31.234   6.145
 5391POPC   C2B69020  25.025  31.069   6.553
 5391POPC   C3B69021  24.971  31.277   6.953
 5391POPC   C4B69022  24.958  31.223   7.384
 5392POPC   NC369023   2.204  25.011   5.588
 5392POPC   PO469024   2.085  24.385   5.368
 5392POPC   GL169025   2.054  24.543   5.796
 5392POPC   GL269026   1.821  24.787   5.871
 5392POPC   C1A69027   2.033  24.437   6.248
 5392POPC   D2A69028   2.238  24.401   6.657
 5392POPC   C3A69029   2.012  24.248   6.985
 5392POPC   C4A69030   2.073  24.440   7.378
 5392POPC   C1B69031   1.659  24.789   6.270
 5392POPC   C2B69032   1.679  24.510   6.634
 5392POPC   C3B69033   1.649  24.587   7.084
 5392POPC   C4B69034   1.530  24.641   7.513
 5393POPC   NC369035  41.261   4.571   5.372
 5393POPC   PO469036  41.557   3.917   5.354
 5393POPC   GL169037  41.537   4.112   5.775
 5393POPC   GL269038  41.472   4.452   5.828
 5393POPC   C1A69039  41.413   4.022   6.221
 5393POPC   D2A69040  41.563   4.079   6.672
 5393POPC   C3A69041  41.424   4.062   7.130
 5393POPC   C4A69042  41.295   4.073   7.614
 5393POPC   C1B69043  41.739   4.396   6.190
 5393POPC   C2B69044  41.720   4.588   6.604
 5393POPC   C3B69045  41.745   4.436   7.013
 5393POPC   C4B69046  41.587   4.449   7.446
 5394POPC   NC369047  16.183  26.095   5.592
 5394POPC   PO469048  15.740  25.680   5.458
 5394POPC   GL169049  15.733  25.936   5.837
 5394POPC   GL269050  15.716  26.303   5.749
 5394POPC   C1A69051  15.959  25.946   6.249
 5394POPC   D2A69052  16.123  26.088   6.667
 5394POPC   C3A69053  16.040  25.821   7.043
 5394POPC   C4A69054  15.912  25.690   7.449
 5394POPC   C1B69055  15.703  26.397   6.193
 5394POPC   C2B69056  15.609  26.179   6.564
 5394POPC   C3B69057  15.718  26.207   6.963
 5394POPC   C4B69058  15.993  26.442   7.145
 5395POPC   NC369059  12.000  20.928   5.623
 5395POPC   PO469060  12.341  20.476   5.405
 5395POPC   GL169061  12.239  20.485   5.817
 5395POPC   GL269062  11.853  20.458   5.760
 5395POPC   C1A69063  12.246  20.734   6.232
 5395POPC   D2A69064  12.158  20.928   6.641
 5395POPC   C3A69065  12.371  20.732   6.985
 5395POPC   C4A69066  12.204  20.627   7.370
 5395POPC   C1B69067  11.947  20.313   6.180
 5395POPC   C2B69068  11.921  20.477   6.586
 5395POPC   C3B69069  12.021  20.340   6.988
 5395POPC   C4B69070  11.755  20.337   7.336
 5396POPC   NC369071  10.877  37.818   5.318
 5396POPC   PO469072  10.226  37.556   5.335
 5396POPC   GL169073  10.407  37.780   5.687
 5396POPC   GL269074  10.612  37.541   5.836
 5396POPC   C1A69075  10.364  37.909   6.127
 5396POPC   D2A69076  10.246  38.178   6.498
 5396POPC   C3A69077  10.245  37.976   6.915
 5396POPC   C4A69078  10.586  37.966   7.217
 5396POPC   C1B69079  10.801  37.694   6.230
 5396POPC   C2B69080  10.659  37.744   6.660
 5396POPC   C3B69081  10.666  37.476   7.036
 5396POPC   C4B69082  10.623  37.525   7.487
 5397POPC   NC369083  31.386  31.701   5.521
 5397POPC   PO469084  31.404  32.322   5.349
 5397POPC   GL169085  31.392  32.306   5.797
 5397POPC   GL269086  31.448  32.668   5.949
 5397POPC   C1A69087  31.509  31.988   6.152
 5397POPC   D2A69088  31.819  31.847   6.472
 5397POPC   C3A69089  31.630  31.910   6.896
 5397POPC   C4A69090  31.657  32.178   7.256
 5397POPC   C1B69091  31.219  32.412   6.252
 5397POPC   C2B69092  31.181  32.103   6.583
 5397POPC   C3B69093  31.215  32.249   7.012
 5397POPC   C4B69094  31.231  32.521   7.406
 5398POPC   NC369095  43.119  14.841   5.454
 5398POPC   PO469096  43.126  15.533   5.369
 5398POPC   GL169097  43.295  15.342   5.729
 5398POPC   GL269098  42.970  15.219   5.765
 5398POPC   C1A69099  43.357  15.114   6.127
 5398POPC   D2A69100  43.160  14.889   6.475
 5398POPC   C3A69101  43.108  15.136   6.871
 5398POPC   C4A69102  43.400  15.147   7.213
 5398POPC   C1B69103  42.864  15.489   6.095
 5398POPC   C2B69104  42.775  15.488   6.533
 5398POPC   C3B69105  42.800  15.600   6.971
 5398POPC   C4B69106  42.739  15.377   7.347
 5399POPC   NC369107  32.407  32.732   5.479
 5399POPC   PO469108  32.488  32.071   5.405
 5399POPC   GL169109  32.284  32.162   5.770
 5399POPC   GL269110  32.344  32.503   5.935
 5399POPC   C1A69111  32.267  32.022   6.185
 5399POPC   D2A69112  32.230  32.269   6.539
 5399POPC   C3A69113  32.339  32.040   6.876
 5399POPC   C4A69114  32.162  32.047   7.244
 5399POPC   C1B69115  32.571  32.609   6.322
 5399POPC   C2B69116  32.651  32.498   6.778
 5399POPC   C3B69117  32.483  32.466   7.216
 5399POPC   C4B69118  32.408  32.659   7.625
 5400POPC   NC369119   0.128  39.783   5.409
 5400POPC   PO469120   0.492  40.311   5.389
 5400POPC   GL169121   0.628  40.089   5.794
 5400POPC   GL269122   0.469  39.779   5.808
 5400POPC   C1A69123   0.685  39.974   6.249
 5400POPC   D2A69124   0.456  40.086   6.631
 5400POPC   C3A69125   0.646  40.070   7.058
 5400POPC   C4A69126   0.439  40.083   7.473
 5400POPC   C1B69127   0.272  39.699   6.223
 5400POPC   C2B69128   0.312  39.598   6.675
 5400POPC   C3B69129   0.200  39.785   7.074
 5400POPC   C4B69130   0.318  39.573   7.461
 5401POPC   NC369131   9.537   4.491   5.403
 5401POPC   PO469132  10.103   4.038   5.391
 5401POPC   GL169133   9.886   4.233   5.736
 5401POPC   GL269134   9.930   4.559   5.733
 5401POPC   C1A69135   9.740   4.205   6.169
 5401POPC   D2A69136   9.709   3.931   6.539
 5401POPC   C3A69137   9.832   4.122   6.909
 5401POPC   C4A69138   9.680   4.355   7.202
 5401POPC   C1B69139  10.108   4.574   6.134
 5401POPC   C2B69140   9.961   4.522   6.569
 5401POPC   C3B69141   9.971   4.717   6.990
 5401POPC   C4B69142   9.943   4.702   7.475
 5402POPC   NC369143  18.738  13.411   5.123
 5402POPC   PO469144  18.397  13.791   5.585
 5402POPC   GL169145  18.188  13.489   5.840
 5402POPC   GL269146  18.487  13.333   5.814
 5402POPC   C1A69147  17.981  13.417   6.265
 5402POPC   D2A69148  18.146  13.461   6.707
 5402POPC   C3A69149  18.039  13.736   7.054
 5402POPC   C4A69150  17.974  13.459   7.445
 5402POPC   C1B69151  18.509  13.434   6.265
 5402POPC   C2B69152  18.745  13.399   6.641
 5402POPC   C3B69153  18.588  13.505   7.026
 5402POPC   C4B69154  18.419  13.687   7.377
 5403POPC   NC369155  21.009  17.791   5.325
 5403POPC   PO469156  21.510  17.377   5.367
 5403POPC   GL169157  21.597  17.513   5.782
 5403POPC   GL269158  21.259  17.468   5.844
 5403POPC   C1A69159  21.670  17.302   6.197
 5403POPC   D2A69160  21.694  17.186   6.646
 5403POPC   C3A69161  21.530  17.472   6.951
 5403POPC   C4A69162  21.158  17.485   7.180
 5403POPC   C1B69163  21.239  17.587   6.272
 5403POPC   C2B69164  21.103  17.682   6.680
 5403POPC   C3B69165  21.275  17.926   6.969
 5403POPC   C4B69166  21.505  17.856   7.343
 5404POPC   NC369167   2.424  34.152   5.530
 5404POPC   PO469168   2.708  33.540   5.362
 5404POPC   GL169169   2.772  33.722   5.767
 5404POPC   GL269170   2.463  33.716   5.861
 5404POPC   C1A69171   2.833  33.909   6.184
 5404POPC   D2A69172   2.688  33.756   6.616
 5404POPC   C3A69173   2.866  33.990   6.990
 5404POPC   C4A69174   3.090  34.169   7.345
 5404POPC   C1B69175   2.334  34.002   6.214
 5404POPC   C2B69176   2.121  33.968   6.604
 5404POPC   C3B69177   2.310  33.969   7.002
 5404POPC   C4B69178   2.540  33.687   7.227
 5405POPC   NC369179  25.773  19.004   5.437
 5405POPC   PO469180  26.310  18.666   5.453
 5405POPC   GL169181  26.078  18.795   5.821
 5405POPC   GL269182  25.990  19.138   5.858
 5405POPC   C1A69183  26.125  18.838   6.256
 5405POPC   D2A69184  25.895  18.818   6.608
 5405POPC   C3A69185  26.167  18.869   6.952
 5405POPC   C4A69186  25.980  18.747   7.361
 5405POPC   C1B69187  26.011  19.361   6.195
 5405POPC   C2B69188  26.161  19.273   6.575
 5405POPC   C3B69189  26.238  19.384   6.969
 5405POPC   C4B69190  26.159  19.212   7.328
 5406POPC   NC369191  27.352  26.956   5.564
 5406POPC   PO469192  27.912  26.510   5.493
 5406POPC   GL169193  27.743  26.620   5.852
 5406POPC   GL269194  27.414  26.510   5.799
 5406POPC   C1A69195  27.576  26.842   6.209
 5406POPC   D2A69196  27.411  27.036   6.588
 5406POPC   C3A69197  27.554  27.075   7.014
 5406POPC   C4A69198  27.543  27.078   7.470
 5406POPC   C1B69199  27.529  26.316   6.198
 5406POPC   C2B69200  27.423  26.475   6.601
 5406POPC   C3B69201  27.464  26.567   7.028
 5406POPC   C4B69202  27.559  26.576   7.483
 5407POPC   NC369203  23.587  12.827   5.080
 5407POPC   PO469204  23.985  12.786   5.347
 5407POPC   GL169205  23.690  12.751   5.716
 5407POPC   GL269206  23.498  13.064   5.829
 5407POPC   C1A69207  23.599  12.679   6.183
 5407POPC   D2A69208  23.648  12.451   6.601
 5407POPC   C3A69209  23.594  12.684   7.014
 5407POPC   C4A69210  23.790  13.015   7.270
 5407POPC   C1B69211  23.476  13.159   6.294
 5407POPC   C2B69212  23.320  12.863   6.616
 5407POPC   C3B69213  23.131  12.847   7.062
 5407POPC   C4B69214  23.377  12.796   7.481
 5408POPC   NC369215  26.949  31.231   5.462
 5408POPC   PO469216  26.744  31.879   5.447
 5408POPC   GL169217  26.963  31.679   5.765
 5408POPC   GL269218  26.684  31.476   5.838
 5408POPC   C1A69219  26.957  31.689   6.223
 5408POPC   D2A69220  26.880  31.847   6.638
 5408POPC   C3A69221  27.012  31.561   6.945
 5408POPC   C4A69222  27.165  31.647   7.342
 5408POPC   C1B69223  26.626  31.260   6.250
 5408POPC   C2B69224  26.649  31.259   6.704
 5408POPC   C3B69225  26.615  31.318   7.163
 5408POPC   C4B69226  26.267  31.492   7.420
 5409POPC   NC369227  37.676  17.589   5.202
 5409POPC   PO469228  37.014  17.838   5.310
 5409POPC   GL169229  36.876  17.587   5.729
 5409POPC   GL269230  37.108  17.272   5.748
 5409POPC   C1A69231  36.744  17.535   6.159
 5409POPC   D2A69232  37.020  17.588   6.502
 5409POPC   C3A69233  36.935  17.529   6.935
 5409POPC   C4A69234  36.836  17.450   7.338
 5409POPC   C1B69235  37.111  17.185   6.198
 5409POPC   C2B69236  37.150  17.120   6.656
 5409POPC   C3B69237  37.215  17.130   7.094
 5409POPC   C4B69238  37.337  17.307   7.460
 5410POPC   NC369239  24.673  39.601   5.423
 5410POPC   PO469240  25.069  39.064   5.316
 5410POPC   GL169241  24.769  39.205   5.734
 5410POPC   GL269242  24.424  39.179   5.918
 5410POPC   C1A69243  24.725  39.534   6.102
 5410POPC   D2A69244  24.394  39.467   6.427
 5410POPC   C3A69245  24.547  39.538   6.841
 5410POPC   C4A69246  24.459  39.397   7.243
 5410POPC   C1B69247  24.661  39.052   6.278
 5410POPC   C2B69248  24.610  39.008   6.721
 5410POPC   C3B69249  24.300  38.941   7.048
 5410POPC   C4B69250  24.274  38.991   7.492
 5411POPC   NC369251  25.497   2.690   5.496
 5411POPC   PO469252  25.019   3.217   5.418
 5411POPC   GL169253  25.300   3.070   5.789
 5411POPC   GL269254  25.153   2.757   5.905
 5411POPC   C1A69255  25.525   2.951   6.220
 5411POPC   D2A69256  25.726   2.760   6.632
 5411POPC   C3A69257  25.553   2.802   7.039
 5411POPC   C4A69258  25.227   3.092   7.167
 5411POPC   C1B69259  25.102   2.547   6.299
 5411POPC   C2B69260  24.815   2.652   6.643
 5411POPC   C3B69261  24.824   2.802   7.033
 5411POPC   C4B69262  25.136   2.526   7.195
 5412POPC   NC369263   0.085  41.346   5.292
 5412POPC   PO469264   0.431  41.915   5.371
 5412POPC   GL169265   0.368  41.633   5.723
 5412POPC   GL269266   0.490  41.285   5.608
 5412POPC   C1A69267   0.221  41.716   6.182
 5412POPC   D2A69268   0.057  41.781   6.641
 5412POPC   C3A69269   0.323  41.728   7.034
 5412POPC   C4A69270   0.797  41.678   7.100
 5412POPC   C1B69271   0.491  41.252   6.064
 5412POPC   C2B69272   0.537  41.434   6.473
 5412POPC   C3B69273   0.444  41.253   6.850
 5412POPC   C4B69274   0.600  41.220   7.236
 5413POPC   NC369275  40.030  36.093   5.336
 5413POPC   PO469276  39.683  36.631   5.495
 5413POPC   GL169277  39.756  36.348   5.876
 5413POPC   GL269278  39.847  35.993   5.811
 5413POPC   C1A69279  39.930  36.241   6.298
 5413POPC   D2A69280  40.076  36.182   6.740
 5413POPC   C3A69281  39.877  36.416   7.089
 5413POPC   C4A69282  39.737  36.528   7.502
 5413POPC   C1B69283  39.667  35.804   6.167
 5413POPC   C2B69284  39.690  35.880   6.596
 5413POPC   C3B69285  39.834  35.780   7.002
 5413POPC   C4B69286  39.735  35.985   7.353
 5414POPC   NC369287  43.545  12.121   5.401
 5414POPC   PO469288  44.269  11.980   5.336
 5414POPC   GL169289  43.995  12.007   5.713
 5414POPC   GL269290  43.671  11.826   5.810
 5414POPC   C1A69291  44.125  12.084   6.145
 5414POPC   D2A69292  44.102  12.065   6.582
 5414POPC   C3A69293  44.008  12.364   6.905
 5414POPC   C4A69294  44.071  12.220   7.353
 5414POPC   C1B69295  43.623  12.181   6.103
 5414POPC   C2B69296  43.620  12.311   6.552
 5414POPC   C3B69297  43.518  12.263   6.993
 5414POPC   C4B69298  43.574  12.131   7.453
 5415POPC   NC369299  42.564  24.248   5.348
 5415POPC   PO469300  42.193  24.769   5.382
 5415POPC   GL169301  42.349  24.524   5.739
 5415POPC   GL269302  42.183  24.193   5.691
 5415POPC   C1A69303  42.452  24.611   6.192
 5415POPC   D2A69304  42.701  24.526   6.577
 5415POPC   C3A69305  42.438  24.600   6.960
 5415POPC   C4A69306  42.384  24.328   7.325
 5415POPC   C1B69307  42.155  24.193   6.144
 5415POPC   C2B69308  42.168  24.306   6.594
 5415POPC   C3B69309  42.013  24.167   7.004
 5415POPC   C4B69310  41.928  24.221   7.485
 5416POPC   NC369311  27.897   2.372   5.184
 5416POPC   PO469312  28.363   2.808   5.396
 5416POPC   GL169313  28.410   2.868   5.810
 5416POPC   GL269314  28.695   2.727   5.831
 5416POPC   C1A69315  28.458   2.791   6.268
 5416POPC   D2A69316  28.342   2.840   6.659
 5416POPC   C3A69317  28.419   2.637   7.027
 5416POPC   C4A69318  28.231   2.806   7.401
 5416POPC   C1B69319  28.762   3.132   6.070
 5416POPC   C2B69320  28.774   3.152   6.521
 5416POPC   C3B69321  28.675   3.104   6.947
 5416POPC   C4B69322  28.733   2.878   7.344
 5417POPC   NC369323   8.495  38.278   5.619
 5417POPC   PO469324   9.075  38.610   5.558
 5417POPC   GL169325   8.995  38.290   5.887
 5417POPC   GL269326   9.192  38.497   6.104
 5417POPC   C1A69327   8.824  38.225   6.331
 5417POPC   D2A69328   8.970  38.576   6.619
 5417POPC   C3A69329   9.155  38.575   7.037
 5417POPC   C4A69330   8.936  38.350   7.318
 5417POPC   C1B69331   8.739  38.700   6.163
 5417POPC   C2B69332   8.502  38.814   6.577
 5417POPC   C3B69333   8.650  38.786   6.998
 5417POPC   C4B69334   8.700  38.770   7.432
 5418POPC   NC369335   7.252  34.346   5.255
 5418POPC   PO469336   7.796  34.747   5.316
 5418POPC   GL169337   7.444  34.747   5.568
 5418POPC   GL269338   7.551  34.438   5.676
 5418POPC   C1A69339   7.358  34.821   5.992
 5418POPC   D2A69340   7.573  34.698   6.385
 5418POPC   C3A69341   7.521  34.971   6.729
 5418POPC   C4A69342   7.441  34.867   7.149
 5418POPC   C1B69343   7.400  34.313   6.054
 5418POPC   C2B69344   7.290  34.242   6.472
 5418POPC   C3B69345   7.357  34.427   6.885
 5418POPC   C4B69346   7.571  34.354   7.274
 5419POPC   NC369347  32.635   4.485   5.057
 5419POPC   PO469348  32.084   4.186   5.292
 5419POPC   GL169349  32.180   4.169   5.709
 5419POPC   GL269350  32.140   4.521   5.793
 5419POPC   C1A69351  32.275   4.135   6.155
 5419POPC   D2A69352  32.062   4.016   6.516
 5419POPC   C3A69353  32.224   4.170   6.910
 5419POPC   C4A69354  32.471   4.067   7.290
 5419POPC   C1B69355  31.940   4.706   6.158
 5419POPC   C2B69356  32.043   4.543   6.569
 5419POPC   C3B69357  32.008   4.661   6.994
 5419POPC   C4B69358  32.375   4.568   7.213
 5420POPC   NC369359  37.298  18.249   5.380
 5420POPC   PO469360  36.680  18.455   5.496
 5420POPC   GL169361  36.980  18.398   5.806
 5420POPC   GL269362  37.058  18.063   5.789
 5420POPC   C1A69363  36.792  18.483   6.199
 5420POPC   D2A69364  36.627  18.301   6.572
 5420POPC   C3A69365  36.806  18.393   6.964
 5420POPC   C4A69366  36.968  18.396   7.394
 5420POPC   C1B69367  36.951  18.013   6.227
 5420POPC   C2B69368  37.117  18.076   6.645
 5420POPC   C3B69369  37.082  17.984   7.077
 5420POPC   C4B69370  36.695  17.952   7.318
 5421POPC   NC369371   3.114   7.729   5.109
 5421POPC   PO469372   2.680   7.393   5.513
 5421POPC   GL169373   2.750   7.478   5.896
 5421POPC   GL269374   2.973   7.770   5.901
 5421POPC   C1A69375   2.725   7.206   6.234
 5421POPC   D2A69376   2.996   7.239   6.569
 5421POPC   C3A69377   2.839   7.259   6.983
 5421POPC   C4A69378   3.150   7.246   7.283
 5421POPC   C1B69379   2.873   7.699   6.356
 5421POPC   C2B69380   2.684   7.721   6.778
 5421POPC   C3B69381   2.605   7.804   7.217
 5421POPC   C4B69382   2.520   7.835   7.678
 5422POPC   NC369383  27.297  31.944   5.451
 5422POPC   PO469384  27.410  31.215   5.497
 5422POPC   GL169385  27.613  31.509   5.770
 5422POPC   GL269386  27.886  31.257   5.815
 5422POPC   C1A69387  27.487  31.748   6.160
 5422POPC   D2A69388  27.349  31.544   6.552
 5422POPC   C3A69389  27.524  31.635   6.969
 5422POPC   C4A69390  27.716  31.758   7.334
 5422POPC   C1B69391  27.795  31.352   6.255
 5422POPC   C2B69392  27.954  31.447   6.697
 5422POPC   C3B69393  27.857  31.285   7.140
 5422POPC   C4B69394  27.505  30.987   7.198
 5423POPC   NC369395  41.998   4.092   5.424
 5423POPC   PO469396  42.594   4.255   5.384
 5423POPC   GL169397  42.407   4.345   5.753
 5423POPC   GL269398  42.114   4.558   5.711
 5423POPC   C1A69399  42.248   4.326   6.172
 5423POPC   D2A69400  42.054   4.207   6.559
 5423POPC   C3A69401  42.256   4.230   6.952
 5423POPC   C4A69402  42.044   4.204   7.350
 5423POPC   C1B69403  42.013   4.807   6.099
 5423POPC   C2B69404  42.204   4.723   6.497
 5423POPC   C3B69405  42.141   4.736   6.912
 5423POPC   C4B69406  42.321   4.646   7.314
 5424POPC   NC369407  36.933   7.002   5.317
 5424POPC   PO469408  36.960   6.276   5.311
 5424POPC   GL169409  36.938   6.561   5.647
 5424POPC   GL269410  36.744   6.285   5.777
 5424POPC   C1A69411  37.028   6.673   6.099
 5424POPC   D2A69412  36.852   6.827   6.527
 5424POPC   C3A69413  36.768   6.612   6.944
 5424POPC   C4A69414  36.872   6.661   7.393
 5424POPC   C1B69415  36.760   6.234   6.176
 5424POPC   C2B69416  36.609   6.330   6.536
 5424POPC   C3B69417  36.571   6.134   6.909
 5424POPC   C4B69418  36.739   6.169   7.280
 5425POPC   NC369419   2.530  26.072   5.299
 5425POPC   PO469420   1.975  26.359   5.565
 5425POPC   GL169421   1.975  25.972   5.829
 5425POPC   GL269422   2.206  25.727   5.699
 5425POPC   C1A69423   1.829  25.788   6.232
 5425POPC   D2A69424   1.798  25.735   6.706
 5425POPC   C3A69425   1.907  26.150   6.955
 5425POPC   C4A69426   1.615  26.404   7.197
 5425POPC   C1B69427   2.321  25.713   6.163
 5425POPC   C2B69428   2.253  25.919   6.555
 5425POPC   C3B69429   2.408  26.031   6.952
 5425POPC   C4B69430   2.339  26.092   7.373
 5426POPC   NC369431  27.595  27.958   5.487
 5426POPC   PO469432  27.220  27.400   5.597
 5426POPC   GL169433  27.555  27.407   5.923
 5426POPC   GL269434  27.783  27.707   5.888
 5426POPC   C1A69435  27.559  27.542   6.365
 5426POPC   D2A69436  27.282  27.863   6.583
 5426POPC   C3A69437  27.253  27.828   7.043
 5426POPC   C4A69438  27.505  27.543   7.303
 5426POPC   C1B69439  27.883  27.953   6.274
 5426POPC   C2B69440  27.825  28.046   6.717
 5426POPC   C3B69441  27.760  27.953   7.155
 5426POPC   C4B69442  27.782  27.830   7.626
 5427POPC   NC369443   2.460  20.094   5.098
 5427POPC   PO469444   2.967  19.783   5.414
 5427POPC   GL169445   2.854  19.948   5.790
 5427POPC   GL269446   2.710  19.623   5.866
 5427POPC   C1A69447   3.028  19.845   6.195
 5427POPC   D2A69448   2.822  19.566   6.504
 5427POPC   C3A69449   2.823  19.763   6.889
 5427POPC   C4A69450   2.997  19.955   7.236
 5427POPC   C1B69451   2.519  19.873   6.202
 5427POPC   C2B69452   2.273  19.670   6.472
 5427POPC   C3B69453   2.394  19.487   6.830
 5427POPC   C4B69454   2.438  19.654   7.228
 5428POPC   NC369455  31.754  29.476   5.418
 5428POPC   PO469456  31.477  28.872   5.212
 5428POPC   GL169457  31.399  29.099   5.663
 5428POPC   GL269458  31.253  29.413   5.694
 5428POPC   C1A69459  31.569  29.282   6.102
 5428POPC   D2A69460  31.470  29.443   6.543
 5428POPC   C3A69461  31.317  29.131   6.828
 5428POPC   C4A69462  31.497  28.918   7.160
 5428POPC   C1B69463  31.112  29.502   6.142
 5428POPC   C2B69464  30.926  29.410   6.533
 5428POPC   C3B69465  31.015  29.514   6.943
 5428POPC   C4B69466  31.374  29.453   7.238
 5429POPC   NC369467  31.107  39.179   5.391
 5429POPC   PO469468  31.646  39.419   5.450
 5429POPC   GL169469  31.446  39.214   5.811
 5429POPC   GL269470  31.075  39.027   5.855
 5429POPC   C1A69471  31.661  39.247   6.218
 5429POPC   D2A69472  31.918  39.378   6.575
 5429POPC   C3A69473  31.669  39.246   6.897
 5429POPC   C4A69474  31.556  39.433   7.226
 5429POPC   C1B69475  31.090  39.331   6.177
 5429POPC   C2B69476  31.286  39.483   6.550
 5429POPC   C3B69477  31.153  39.373   6.939
 5429POPC   C4B69478  31.247  39.038   7.223
 5430POPC   NC369479  43.615  19.162   5.338
 5430POPC   PO469480  43.994  18.644   5.444
 5430POPC   GL169481  43.901  19.028   5.750
 5430POPC   GL269482  43.641  19.358   5.792
 5430POPC   C1A69483  43.922  19.157   6.168
 5430POPC   D2A69484  44.063  18.989   6.536
 5430POPC   C3A69485  44.003  18.803   6.931
 5430POPC   C4A69486  44.153  19.098   7.221
 5430POPC   C1B69487  43.427  19.325   6.172
 5430POPC   C2B69488  43.627  19.272   6.562
 5430POPC   C3B69489  43.808  19.296   6.920
 5430POPC   C4B69490  43.700  19.326   7.336
 5431POPC   NC369491  35.992  18.789   5.388
 5431POPC   PO469492  36.395  19.359   5.392
 5431POPC   GL169493  36.195  19.119   5.727
 5431POPC   GL269494  36.382  18.797   5.759
 5431POPC   C1A69495  35.972  18.948   6.074
 5431POPC   D2A69496  36.047  19.110   6.450
 5431POPC   C3A69497  36.029  19.041   6.869
 5431POPC   C4A69498  36.084  19.449   7.024
 5431POPC   C1B69499  36.478  18.886   6.197
 5431POPC   C2B69500  36.333  18.718   6.582
 5431POPC   C3B69501  36.486  18.797   6.981
 5431POPC   C4B69502  36.250  18.891   7.309
 5432POPC   NC369503  16.699  28.395   5.411
 5432POPC   PO469504  15.988  28.436   5.402
 5432POPC   GL169505  16.001  28.354   5.822
 5432POPC   GL269506  15.855  28.678   5.881
 5432POPC   C1A69507  16.209  28.495   6.209
 5432POPC   D2A69508  16.030  28.588   6.609
 5432POPC   C3A69509  16.085  28.218   6.824
 5432POPC   C4A69510  16.159  28.140   7.252
 5432POPC   C1B69511  15.694  28.430   6.242
 5432POPC   C2B69512  15.570  28.386   6.680
 5432POPC   C3B69513  15.746  28.508   7.079
 5432POPC   C4B69514  16.020  28.620   7.388
 5433POPC   NC369515  39.743   7.281   5.472
 5433POPC   PO469516  40.321   7.546   5.569
 5433POPC   GL169517  40.111   7.337   5.865
 5433POPC   GL269518  40.289   7.522   6.108
 5433POPC   C1A69519  40.021   7.104   6.231
 5433POPC   D2A69520  40.087   7.177   6.657
 5433POPC   C3A69521  39.743   7.176   6.940
 5433POPC   C4A69522  39.960   7.062   7.283
 5433POPC   C1B69523  39.951   7.624   6.341
 5433POPC   C2B69524  39.898   7.644   6.762
 5433POPC   C3B69525  40.272   7.600   6.949
 5433POPC   C4B69526  40.463   7.526   7.294
 5434POPC   NC369527  19.576  38.556   5.338
 5434POPC   PO469528  20.087  38.827   5.414
 5434POPC   GL169529  20.173  38.654   5.820
 5434POPC   GL269530  19.848  38.513   5.787
 5434POPC   C1A69531  20.253  38.725   6.310
 5434POPC   D2A69532  20.193  38.753   6.809
 5434POPC   C3A69533  20.125  38.448   7.157
 5434POPC   C4A69534  19.828  38.229   7.420
 5434POPC   C1B69535  19.774  38.807   6.146
 5434POPC   C2B69536  19.714  38.760   6.613
 5434POPC   C3B69537  19.638  38.555   7.033
 5434POPC   C4B69538  19.694  38.715   7.454
 5435POPC   NC369539  10.852  35.619   5.293
 5435POPC   PO469540  10.374  36.130   5.072
 5435POPC   GL169541  10.442  36.181   5.592
 5435POPC   GL269542  10.755  35.985   5.664
 5435POPC   C1A69543  10.401  35.954   6.047
 5435POPC   D2A69544  10.511  35.894   6.540
 5435POPC   C3A69545  10.486  36.146   6.957
 5435POPC   C4A69546  10.459  36.337   7.380
 5435POPC   C1B69547  10.849  36.228   6.055
 5435POPC   C2B69548  10.937  36.174   6.513
 5435POPC   C3B69549  10.951  35.927   6.870
 5435POPC   C4B69550  10.898  36.087   7.260
 5436POPC   NC369551  36.414  43.245   5.401
 5436POPC   PO469552  35.988  42.715   5.210
 5436POPC   GL169553  36.082  42.911   5.695
 5436POPC   GL269554  36.201  43.213   5.886
 5436POPC   C1A69555  36.020  42.806   6.138
 5436POPC   D2A69556  36.223  42.985   6.505
 5436POPC   C3A69557  36.087  42.840   6.909
 5436POPC   C4A69558  36.273  42.970   7.290
 5436POPC   C1B69559  35.844  43.285   6.205
 5436POPC   C2B69560  35.765  43.398   6.677
 5436POPC   C3B69561  35.982  43.359   7.097
 5436POPC   C4B69562  36.438  43.456   7.226
 5437POPC   NC369563  25.398  28.507   5.428
 5437POPC   PO469564  24.783  28.374   5.123
 5437POPC   GL169565  24.921  28.405   5.621
 5437POPC   GL269566  25.186  28.166   5.761
 5437POPC   C1A69567  24.983  28.553   6.100
 5437POPC   D2A69568  24.994  28.796   6.545
 5437POPC   C3A69569  25.034  28.603   6.992
 5437POPC   C4A69570  25.143  28.359   7.392
 5437POPC   C1B69571  25.353  28.199   6.199
 5437POPC   C2B69572  25.363  28.357   6.640
 5437POPC   C3B69573  25.371  28.092   7.019
 5437POPC   C4B69574  25.750  27.918   7.181
 5438POPC   NC369575  33.208   5.330   5.338
 5438POPC   PO469576  32.568   4.954   5.184
 5438POPC   GL169577  32.814   5.081   5.605
 5438POPC   GL269578  32.727   5.374   5.798
 5438POPC   C1A69579  33.036   5.046   6.066
 5438POPC   D2A69580  33.281   5.236   6.440
 5438POPC   C3A69581  33.195   5.105   6.870
 5438POPC   C4A69582  33.175   5.282   7.284
 5438POPC   C1B69583  32.611   5.296   6.223
 5438POPC   C2B69584  32.797   5.103   6.543
 5438POPC   C3B69585  32.725   5.327   6.893
 5438POPC   C4B69586  32.667   5.463   7.281
 5439POPC   NC369587  16.315  20.292   5.425
 5439POPC   PO469588  15.885  20.722   5.483
 5439POPC   GL169589  15.828  20.822   5.873
 5439POPC   GL269590  16.103  20.621   5.950
 5439POPC   C1A69591  15.746  20.742   6.307
 5439POPC   D2A69592  15.573  20.438   6.570
 5439POPC   C3A69593  15.747  20.438   6.971
 5439POPC   C4A69594  15.763  20.835   7.146
 5439POPC   C1B69595  16.195  21.028   6.160
 5439POPC   C2B69596  16.058  21.069   6.578
 5439POPC   C3B69597  16.192  21.082   7.005
 5439POPC   C4B69598  16.239  20.703   7.270
 5440POPC   NC369599  36.939  18.851   5.569
 5440POPC   PO469600  37.252  19.512   5.538
 5440POPC   GL169601  37.070  19.244   5.865
 5440POPC   GL269602  36.686  19.211   5.846
 5440POPC   C1A69603  37.063  18.923   6.229
 5440POPC   D2A69604  36.830  18.799   6.597
 5440POPC   C3A69605  37.006  18.863   6.996
 5440POPC   C4A69606  37.029  19.205   7.229
 5440POPC   C1B69607  36.384  19.385   6.193
 5440POPC   C2B69608  36.493  19.239   6.676
 5440POPC   C3B69609  36.530  19.287   7.174
 5440POPC   C4B69610  36.600  19.326   7.640
 5441POPC   NC369611  33.161  26.498   5.515
 5441POPC   PO469612  32.830  27.109   5.425
 5441POPC   GL169613  32.974  26.910   5.797
 5441POPC   GL269614  32.746  26.636   5.839
 5441POPC   C1A69615  33.008  26.941   6.264
 5441POPC   D2A69616  32.744  26.978   6.669
 5441POPC   C3A69617  32.963  26.953   7.080
 5441POPC   C4A69618  33.334  26.933   7.345
 5441POPC   C1B69619  32.964  26.437   6.190
 5441POPC   C2B69620  33.055  26.560   6.611
 5441POPC   C3B69621  32.895  26.460   6.986
 5441POPC   C4B69622  32.980  26.538   7.391
 5442POPC   NC369623  36.915  32.579   5.420
 5442POPC   PO469624  36.574  32.028   5.252
 5442POPC   GL169625  36.686  32.142   5.688
 5442POPC   GL269626  37.005  32.070   5.785
 5442POPC   C1A69627  36.670  32.218   6.148
 5442POPC   D2A69628  36.667  32.061   6.574
 5442POPC   C3A69629  36.794  32.271   6.938
 5442POPC   C4A69630  36.827  32.110   7.324
 5442POPC   C1B69631  37.130  32.013   6.219
 5442POPC   C2B69632  37.208  32.075   6.663
 5442POPC   C3B69633  37.268  31.903   7.101
 5442POPC   C4B69634  37.186  31.842   7.567
 5443POPC   NC369635  31.898  38.567   5.370
 5443POPC   PO469636  32.441  38.816   5.511
 5443POPC   GL169637  32.232  38.429   5.732
 5443POPC   GL269638  32.492  38.196   5.828
 5443POPC   C1A69639  32.074  38.282   6.144
 5443POPC   D2A69640  32.168  38.518   6.523
 5443POPC   C3A69641  32.095  38.412   6.942
 5443POPC   C4A69642  32.050  38.564   7.341
 5443POPC   C1B69643  32.603  38.395   6.245
 5443POPC   C2B69644  32.648  38.557   6.703
 5443POPC   C3B69645  32.527  38.728   7.119
 5443POPC   C4B69646  32.466  38.712   7.591
 5444POPC   NC369647  35.689  23.138   5.150
 5444POPC   PO469648  36.320  23.005   5.437
 5444POPC   GL169649  36.265  23.096   5.840
 5444POPC   GL269650  35.900  23.149   5.762
 5444POPC   C1A69651  36.260  22.901   6.262
 5444POPC   D2A69652  36.353  23.036   6.688
 5444POPC   C3A69653  36.199  22.859   7.080
 5444POPC   C4A69654  36.523  22.830   7.368
 5444POPC   C1B69655  35.758  23.035   6.160
 5444POPC   C2B69656  35.835  23.110   6.582
 5444POPC   C3B69657  35.688  22.938   6.960
 5444POPC   C4B69658  35.741  22.660   7.304
 5445POPC   NC369659  17.645  43.875   5.386
 5445POPC   PO469660  17.719  44.598   5.311
 5445POPC   GL169661  17.800  44.302   5.728
 5445POPC   GL269662  17.486  44.065   5.832
 5445POPC   C1A69663  17.689  44.310   6.208
 5445POPC   D2A69664  17.421  44.007   6.410
 5445POPC   C3A69665  17.481  43.980   6.843
 5445POPC   C4A69666  17.478  44.302   7.118
 5445POPC   C1B69667  17.788  43.826   6.085
 5445POPC   C2B69668  17.921  43.790   6.527
 5445POPC   C3B69669  17.868  43.648   6.948
 5445POPC   C4B69670  17.823  43.951   7.262
 5446POPC   NC369671  22.624   6.453   5.640
 5446POPC   PO469672  22.933   6.842   5.176
 5446POPC   GL169673  22.995   6.828   5.678
 5446POPC   GL269674  23.114   6.524   5.857
 5446POPC   C1A69675  22.853   6.870   6.164
 5446POPC   D2A69676  22.953   6.713   6.622
 5446POPC   C3A69677  22.688   6.786   7.010
 5446POPC   C4A69678  22.859   6.934   7.433
 5446POPC   C1B69679  22.862   6.361   6.241
 5446POPC   C2B69680  22.688   6.161   6.635
 5446POPC   C3B69681  22.782   6.260   7.057
 5446POPC   C4B69682  23.097   6.562   7.163
 5447POPC   NC369683   7.116  39.281   5.590
 5447POPC   PO469684   7.611  39.295   5.121
 5447POPC   GL169685   7.594  39.201   5.723
 5447POPC   GL269686   7.446  39.452   5.976
 5447POPC   C1A69687   7.375  39.003   6.177
 5447POPC   D2A69688   7.088  38.956   6.596
 5447POPC   C3A69689   7.349  38.943   7.013
 5447POPC   C4A69690   7.533  39.207   7.375
 5447POPC   C1B69691   7.039  39.601   6.204
 5447POPC   C2B69692   6.970  39.775   6.648
 5447POPC   C3B69693   7.142  39.697   7.083
 5447POPC   C4B69694   7.271  39.637   7.536
 5448POPC   NC369695  30.003  40.196   5.402
 5448POPC   PO469696  29.768  39.557   5.360
 5448POPC   GL169697  29.858  39.800   5.762
 5448POPC   GL269698  29.653  40.132   5.806
 5448POPC   C1A69699  30.109  39.844   6.164
 5448POPC   D2A69700  30.001  40.014   6.586
 5448POPC   C3A69701  30.311  40.224   6.838
 5448POPC   C4A69702  30.381  40.511   7.221
 5448POPC   C1B69703  29.607  39.904   6.230
 5448POPC   C2B69704  29.624  39.692   6.693
 5448POPC   C3B69705  29.686  39.847   7.150
 5448POPC   C4B69706  29.596  40.002   7.617
 5449POPC   NC369707   7.741  17.918   5.424
 5449POPC   PO469708   7.445  17.337   5.527
 5449POPC   GL169709   7.315  17.412   5.925
 5449POPC   GL269710   7.311  17.775   5.960
 5449POPC   C1A69711   7.081  17.463   6.298
 5449POPC   D2A69712   6.993  17.468   6.727
 5449POPC   C3A69713   7.267  17.407   7.027
 5449POPC   C4A69714   7.154  17.706   7.298
 5449POPC   C1B69715   7.602  17.643   6.289
 5449POPC   C2B69716   7.670  17.554   6.723
 5449POPC   C3B69717   7.621  17.754   7.130
 5449POPC   C4B69718   7.563  17.670   7.602
 5450POPC   NC369719  24.011  23.284   5.430
 5450POPC   PO469720  24.042  23.933   5.296
 5450POPC   GL169721  23.694  23.881   5.670
 5450POPC   GL269722  23.649  23.538   5.739
 5450POPC   C1A69723  23.631  23.950   6.141
 5450POPC   D2A69724  23.813  23.790   6.502
 5450POPC   C3A69725  23.750  23.872   6.929
 5450POPC   C4A69726  23.934  23.614   7.255
 5450POPC   C1B69727  23.630  23.446   6.161
 5450POPC   C2B69728  23.429  23.463   6.561
 5450POPC   C3B69729  23.530  23.411   6.986
 5450POPC   C4B69730  23.438  23.673   7.302
 5451POPC   NC369731  35.348  10.137   5.560
 5451POPC   PO469732  35.161   9.503   5.467
 5451POPC   GL169733  35.159   9.731   5.842
 5451POPC   GL269734  35.532   9.751   5.852
 5451POPC   C1A69735  35.256   9.735   6.280
 5451POPC   D2A69736  35.525   9.692   6.627
 5451POPC   C3A69737  35.242   9.801   6.975
 5451POPC   C4A69738  35.086   9.868   7.410
 5451POPC   C1B69739  35.696  10.024   6.194
 5451POPC   C2B69740  35.809  10.229   6.569
 5451POPC   C3B69741  35.748  10.013   6.962
 5451POPC   C4B69742  35.615   9.737   7.291
 5452POPC   NC369743  38.905   0.890   5.428
 5452POPC   PO469744  38.257   1.244   5.317
 5452POPC   GL169745  38.342   1.324   5.753
 5452POPC   GL269746  38.547   1.058   5.765
 5452POPC   C1A69747  38.512   1.471   6.178
 5452POPC   D2A69748  38.761   1.452   6.586
 5452POPC   C3A69749  38.510   1.464   6.991
 5452POPC   C4A69750  38.399   1.679   7.404
 5452POPC   C1B69751  38.411   0.974   6.187
 5452POPC   C2B69752  38.345   1.132   6.577
 5452POPC   C3B69753  38.469   0.958   6.979
 5452POPC   C4B69754  38.733   0.816   7.336
 5453POPC   NC369755  32.667   1.298   5.257
 5453POPC   PO469756  32.001   1.083   5.324
 5453POPC   GL169757  32.260   1.033   5.698
 5453POPC   GL269758  32.345   1.385   5.699
 5453POPC   C1A69759  32.293   1.110   6.167
 5453POPC   D2A69760  32.449   1.344   6.545
 5453POPC   C3A69761  32.467   1.109   6.947
 5453POPC   C4A69762  32.466   1.078   7.414
 5453POPC   C1B69763  31.931   1.386   5.939
 5453POPC   C2B69764  31.876   1.418   6.384
 5453POPC   C3B69765  32.004   1.461   6.803
 5453POPC   C4B69766  32.141   1.424   7.204
 5454POPC   NC369767  38.298   2.987   5.579
 5454POPC   PO469768  37.607   2.760   5.484
 5454POPC   GL169769  37.641   2.639   5.884
 5454POPC   GL269770  37.983   2.476   5.859
 5454POPC   C1A69771  37.486   2.801   6.302
 5454POPC   D2A69772  37.546   2.686   6.741
 5454POPC   C3A69773  37.418   2.909   7.125
 5454POPC   C4A69774  37.611   2.813   7.527
 5454POPC   C1B69775  38.006   2.783   6.210
 5454POPC   C2B69776  38.000   2.910   6.644
 5454POPC   C3B69777  37.935   2.845   7.097
 5454POPC   C4B69778  37.914   3.188   7.360
 5455POPC   NC369779  41.411  10.484   5.292
 5455POPC   PO469780  42.031  10.298   5.526
 5455POPC   GL169781  41.710  10.527   5.799
 5455POPC   GL269782  41.424  10.786   5.729
 5455POPC   C1A69783  41.873  10.710   6.194
 5455POPC   D2A69784  41.899  10.942   6.580
 5455POPC   C3A69785  41.814  10.641   6.867
 5455POPC   C4A69786  41.736  10.418   7.247
 5455POPC   C1B69787  41.361  10.639   6.171
 5455POPC   C2B69788  41.412  10.768   6.592
 5455POPC   C3B69789  41.326  10.617   7.009
 5455POPC   C4B69790  41.217  10.240   7.168
 5456POPC   NC369791  33.710  24.843   5.562
 5456POPC   PO469792  33.633  25.442   5.264
 5456POPC   GL169793  33.601  25.355   5.708
 5456POPC   GL269794  33.942  25.267   5.800
 5456POPC   C1A69795  33.570  25.242   6.166
 5456POPC   D2A69796  33.821  25.334   6.552
 5456POPC   C3A69797  33.665  25.183   6.981
 5456POPC   C4A69798  33.604  25.409   7.389
 5456POPC   C1B69799  34.030  24.991   6.164
 5456POPC   C2B69800  34.254  25.031   6.548
 5456POPC   C3B69801  34.180  25.249   6.922
 5456POPC   C4B69802  34.054  25.190   7.328
 5457POPC   NC369803  10.132  12.269   5.445
 5457POPC   PO469804   9.546  11.897   5.531
 5457POPC   GL169805   9.932  11.985   5.825
 5457POPC   GL269806   9.788  12.301   5.902
 5457POPC   C1A69807  10.108  12.160   6.251
 5457POPC   D2A69808   9.916  12.285   6.655
 5457POPC   C3A69809   9.836  11.863   6.821
 5457POPC   C4A69810  10.076  11.621   7.149
 5457POPC   C1B69811   9.456  12.462   6.155
 5457POPC   C2B69812   9.356  12.371   6.574
 5457POPC   C3B69813   9.481  12.216   6.965
 5457POPC   C4B69814   9.788  12.035   7.286
 5458POPC   NC369815  35.267  21.312   5.415
 5458POPC   PO469816  35.034  21.853   5.160
 5458POPC   GL169817  35.163  21.670   5.731
 5458POPC   GL269818  35.535  21.697   5.806
 5458POPC   C1A69819  35.280  21.445   6.180
 5458POPC   D2A69820  35.181  21.099   6.522
 5458POPC   C3A69821  35.216  21.273   6.963
 5458POPC   C4A69822  35.439  21.696   7.055
 5458POPC   C1B69823  35.782  21.577   6.199
 5458POPC   C2B69824  35.639  21.479   6.612
 5458POPC   C3B69825  35.717  21.206   6.953
 5458POPC   C4B69826  35.582  21.271   7.367
 5459POPC   NC369827   3.950   0.238   5.385
 5459POPC   PO469828   4.609   0.411   5.239
 5459POPC   GL169829   4.365   0.538   5.633
 5459POPC   GL269830   4.544   0.851   5.661
 5459POPC   C1A69831   4.195   0.433   6.069
 5459POPC   D2A69832   3.941   0.482   6.484
 5459POPC   C3A69833   4.100   0.429   6.898
 5459POPC   C4A69834   3.993   0.300   7.319
 5459POPC   C1B69835   4.488   0.828   6.109
 5459POPC   C2B69836   4.448   0.590   6.506
 5459POPC   C3B69837   4.507   0.729   6.941
 5459POPC   C4B69838   4.648   0.825   7.363
 5460POPC   NC369839  41.275  19.831   5.435
 5460POPC   PO469840  40.605  19.793   5.411
 5460POPC   GL169841  40.820  19.880   5.786
 5460POPC   GL269842  41.004  19.595   5.832
 5460POPC   C1A69843  40.643  19.851   6.208
 5460POPC   D2A69844  40.431  19.929   6.615
 5460POPC   C3A69845  40.667  19.985   7.006
 5460POPC   C4A69846  40.715  19.719   7.353
 5460POPC   C1B69847  41.149  19.774   6.208
 5460POPC   C2B69848  41.036  19.825   6.643
 5460POPC   C3B69849  41.054  19.533   7.001
 5460POPC   C4B69850  41.139  19.495   7.467
 5461POPC   NC369851  14.120  29.372   5.065
 5461POPC   PO469852  13.528  29.163   5.435
 5461POPC   GL169853  13.418  29.102   5.842
 5461POPC   GL269854  13.706  28.920   5.875
 5461POPC   C1A69855  13.177  29.311   6.209
 5461POPC   D2A69856  13.279  29.457   6.640
 5461POPC   C3A69857  13.427  29.183   6.968
 5461POPC   C4A69858  13.271  28.928   7.293
 5461POPC   C1B69859  13.689  29.156   6.267
 5461POPC   C2B69860  13.658  28.893   6.608
 5461POPC   C3B69861  13.852  28.846   6.974
 5461POPC   C4B69862  13.777  28.893   7.397
 5462POPC   NC369863  31.276  40.640   5.574
 5462POPC   PO469864  30.758  40.792   5.193
 5462POPC   GL169865  30.733  41.029   5.627
 5462POPC   GL269866  31.077  41.172   5.643
 5462POPC   C1A69867  30.563  41.001   6.087
 5462POPC   D2A69868  30.372  40.654   6.359
 5462POPC   C3A69869  30.513  40.693   6.773
 5462POPC   C4A69870  30.452  41.028   7.090
 5462POPC   C1B69871  31.073  41.063   6.099
 5462POPC   C2B69872  30.894  40.942   6.519
 5462POPC   C3B69873  30.977  40.777   6.955
 5462POPC   C4B69874  31.114  40.949   7.327
 5463POPC   NC369875  18.053  30.699   5.107
 5463POPC   PO469876  18.799  30.715   5.193
 5463POPC   GL169877  18.574  30.723   5.609
 5463POPC   GL269878  18.202  30.835   5.621
 5463POPC   C1A69879  18.560  30.768   6.061
 5463POPC   D2A69880  18.455  30.854   6.492
 5463POPC   C3A69881  18.330  30.552   6.810
 5463POPC   C4A69882  18.426  30.678   7.225
 5463POPC   C1B69883  18.045  30.811   6.094
 5463POPC   C2B69884  17.938  30.976   6.535
 5463POPC   C3B69885  17.971  30.861   6.987
 5463POPC   C4B69886  17.936  30.483   7.222
 5464POPC   NC369887  22.041  32.493   5.625
 5464POPC   PO469888  22.403  31.929   5.444
 5464POPC   GL169889  22.274  32.068   5.773
 5464POPC   GL269890  21.933  31.970   5.704
 5464POPC   C1A69891  22.319  32.264   6.161
 5464POPC   D2A69892  22.492  32.377   6.524
 5464POPC   C3A69893  22.253  32.280   6.856
 5464POPC   C4A69894  22.286  32.077   7.219
 5464POPC   C1B69895  21.849  32.000   6.125
 5464POPC   C2B69896  21.840  31.917   6.556
 5464POPC   C3B69897  21.800  32.066   6.963
 5464POPC   C4B69898  21.855  32.309   7.350
 5465POPC   NC369899  23.216   4.814   5.394
 5465POPC   PO469900  22.820   5.320   5.302
 5465POPC   GL169901  23.081   5.216   5.695
 5465POPC   GL269902  22.905   4.946   5.828
 5465POPC   C1A69903  23.088   5.265   6.181
 5465POPC   D2A69904  22.773   5.159   6.523
 5465POPC   C3A69905  22.886   5.239   6.964
 5465POPC   C4A69906  22.609   5.162   7.340
 5465POPC   C1B69907  22.993   4.763   6.225
 5465POPC   C2B69908  23.174   4.832   6.632
 5465POPC   C3B69909  22.854   4.736   6.907
 5465POPC   C4B69910  22.706   4.664   7.307
 5466POPC   NC369911   7.101  39.639   5.184
 5466POPC   PO469912   6.668  39.056   5.234
 5466POPC   GL169913   6.648  39.093   5.705
 5466POPC   GL269914   6.684  39.466   5.804
 5466POPC   C1A69915   6.755  39.103   6.171
 5466POPC   D2A69916   6.668  39.355   6.532
 5466POPC   C3A69917   6.737  39.231   6.934
 5466POPC   C4A69918   7.035  39.239   7.301
 5466POPC   C1B69919   6.491  39.671   6.159
 5466POPC   C2B69920   6.445  39.829   6.584
 5466POPC   C3B69921   6.322  39.743   7.004
 5466POPC   C4B69922   6.658  39.599   7.258
 5467POPC   NC369923  39.897  37.976   5.245
 5467POPC   PO469924  39.424  37.510   5.417
 5467POPC   GL169925  39.726  37.708   5.723
 5467POPC   GL269926  39.747  38.047   5.830
 5467POPC   C1A69927  39.902  37.540   6.120
 5467POPC   D2A69928  39.850  37.262   6.512
 5467POPC   C3A69929  39.984  37.435   6.931
 5467POPC   C4A69930  39.743  37.738   7.144
 5467POPC   C1B69931  39.822  38.009   6.321
 5467POPC   C2B69932  40.000  38.010   6.780
 5467POPC   C3B69933  40.010  38.153   7.236
 5467POPC   C4B69934  40.198  38.455   7.527
 5468POPC   NC369935   2.260  40.201   5.509
 5468POPC   PO469936   2.926  40.122   5.395
 5468POPC   GL169937   2.652  39.975   5.750
 5468POPC   GL269938   2.859  39.782   5.971
 5468POPC   C1A69939   2.450  40.014   6.164
 5468POPC   D2A69940   2.700  40.123   6.522
 5468POPC   C3A69941   2.451  40.077   6.852
 5468POPC   C4A69942   2.594  40.007   7.242
 5468POPC   C1B69943   3.164  39.567   6.237
 5468POPC   C2B69944   3.191  39.730   6.652
 5468POPC   C3B69945   3.154  39.657   7.081
 5468POPC   C4B69946   2.969  39.709   7.475
 5469POPC   NC369947  40.285  15.547   5.255
 5469POPC   PO469948  39.964  15.082   5.580
 5469POPC   GL169949  39.901  15.265   5.906
 5469POPC   GL269950  39.597  15.399   5.848
 5469POPC   C1A69951  40.057  15.218   6.278
 5469POPC   D2A69952  40.034  15.480   6.580
 5469POPC   C3A69953  40.066  15.193   6.901
 5469POPC   C4A69954  40.172  15.397   7.256
 5469POPC   C1B69955  39.540  15.238   6.282
 5469POPC   C2B69956  39.580  15.228   6.711
 5469POPC   C3B69957  39.657  15.345   7.131
 5469POPC   C4B69958  39.427  15.295   7.484
 5470POPC   NC369959  31.625  12.132   5.388
 5470POPC   PO469960  31.098  12.003   5.642
 5470POPC   GL169961  31.501  12.023   5.886
 5470POPC   GL269962  31.734  11.759   5.728
 5470POPC   C1A69963  31.502  12.010   6.347
 5470POPC   D2A69964  31.528  12.209   6.751
 5470POPC   C3A69965  31.283  12.008   7.106
 5470POPC   C4A69966  31.257  12.149   7.523
 5470POPC   C1B69967  31.840  11.662   6.146
 5470POPC   C2B69968  31.930  11.793   6.572
 5470POPC   C3B69969  31.742  11.793   6.963
 5470POPC   C4B69970  31.640  11.684   7.372
 5471POPC   NC369971   1.147  32.838   5.318
 5471POPC   PO469972   1.088  33.559   5.476
 5471POPC   GL169973   1.315  33.260   5.734
 5471POPC   GL269974   1.071  33.002   5.799
 5471POPC   C1A69975   1.421  33.133   6.179
 5471POPC   D2A69976   1.529  33.183   6.628
 5471POPC   C3A69977   1.237  33.133   6.974
 5471POPC   C4A69978   1.346  33.044   7.408
 5471POPC   C1B69979   1.063  32.739   6.157
 5471POPC   C2B69980   1.161  32.804   6.581
 5471POPC   C3B69981   0.983  32.583   6.940
 5471POPC   C4B69982   0.900  32.855   7.282
 5472POPC   NC369983  16.322  33.658   5.497
 5472POPC   PO469984  16.963  33.715   5.480
 5472POPC   GL169985  16.782  33.900   5.830
 5472POPC   GL269986  16.520  33.717   5.994
 5472POPC   C1A69987  16.958  33.891   6.236
 5472POPC   D2A69988  16.846  33.678   6.593
 5472POPC   C3A69989  16.875  33.848   6.971
 5472POPC   C4A69990  17.135  33.701   7.249
 5472POPC   C1B69991  16.485  34.061   6.300
 5472POPC   C2B69992  16.443  34.007   6.730
 5472POPC   C3B69993  16.437  34.056   7.173
 5472POPC   C4B69994  16.353  33.982   7.619
 5473POPC   NC369995   1.615  40.179   5.506
 5473POPC   PO469996   2.178  39.752   5.410
 5473POPC   GL169997   2.102  39.764   5.822
 5473POPC   GL269998   1.962  40.089   5.916
 5473POPC   C1A69999   1.982  39.621   6.221
 5473POPC   D2A70000   2.208  39.712   6.574
 5473POPC   C3A70001   1.940  39.865   6.880
 5473POPC   C4A70002   2.076  39.791   7.290
 5473POPC   C1B70003   1.993  40.145   6.364
 5473POPC   C2B70004   2.021  40.389   6.743
 5473POPC   C3B70005   2.078  40.276   7.140
 5473POPC   C4B70006   1.844  40.235   7.504
 5474POPC   NC370007  35.606  12.425   5.671
 5474POPC   PO470008  35.142  11.955   5.495
 5474POPC   GL170009  35.151  12.137   5.883
 5474POPC   GL270010  34.846  12.236   5.993
 5474POPC   C1A70011  35.366  12.236   6.260
 5474POPC   D2A70012  35.657  12.267   6.571
 5474POPC   C3A70013  35.691  11.861   6.793
 5474POPC   C4A70014  35.543  11.838   7.215
 5474POPC   C1B70015  34.888  12.159   6.408
 5474POPC   C2B70016  35.187  12.068   6.736
 5474POPC   C3B70017  35.437  12.298   7.051
 5474POPC   C4B70018  35.316  12.197   7.510
 5475POPC   NC370019   9.416  15.416   5.442
 5475POPC   PO470020   9.808  14.948   5.360
 5475POPC   GL170021   9.807  15.217   5.739
 5475POPC   GL270022  10.104  15.367   5.830
 5475POPC   C1A70023   9.773  15.238   6.199
 5475POPC   D2A70024   9.820  14.977   6.529
 5475POPC   C3A70025   9.690  15.140   6.909
 5475POPC   C4A70026   9.718  14.969   7.254
 5475POPC   C1B70027  10.221  15.476   6.254
 5475POPC   C2B70028  10.044  15.471   6.643
 5475POPC   C3B70029  10.124  15.324   7.057
 5475POPC   C4B70030  10.005  15.490   7.413
 5476POPC   NC370031  31.281  37.571   5.425
 5476POPC   PO470032  31.828  38.103   5.441
 5476POPC   GL170033  31.564  37.876   5.750
 5476POPC   GL270034  31.640  37.499   5.775
 5476POPC   C1A70035  31.558  37.769   6.202
 5476POPC   D2A70036  31.332  37.609   6.566
 5476POPC   C3A70037  31.562  37.861   6.906
 5476POPC   C4A70038  31.705  37.749   7.320
 5476POPC   C1B70039  31.596  37.262   6.167
 5476POPC   C2B70040  31.722  37.310   6.595
 5476POPC   C3B70041  31.548  37.350   6.988
 5476POPC   C4B70042  31.768  37.246   7.331
 5477POPC   NC370043  41.852  30.481   5.485
 5477POPC   PO470044  41.313  30.900   5.394
 5477POPC   GL170045  41.305  30.720   5.793
 5477POPC   GL270046  41.633  30.656   5.937
 5477POPC   C1A70047  41.220  30.840   6.218
 5477POPC   D2A70048  41.514  30.669   6.516
 5477POPC   C3A70049  41.499  30.495   6.913
 5477POPC   C4A70050  41.730  30.406   7.257
 5477POPC   C1B70051  41.723  31.027   6.220
 5477POPC   C2B70052  41.927  31.118   6.624
 5477POPC   C3B70053  41.814  30.910   7.015
 5477POPC   C4B70054  41.872  30.849   7.464
 5478POPC   NC370055  37.476  20.071   5.461
 5478POPC   PO470056  38.069  19.696   5.340
 5478POPC   GL170057  37.770  19.697   5.782
 5478POPC   GL270058  37.450  19.889   5.908
 5478POPC   C1A70059  37.765  19.815   6.282
 5478POPC   D2A70060  37.639  20.108   6.610
 5478POPC   C3A70061  37.712  19.944   7.015
 5478POPC   C4A70062  38.066  20.066   7.188
 5478POPC   C1B70063  37.278  19.670   6.249
 5478POPC   C2B70064  37.291  19.743   6.698
 5478POPC   C3B70065  37.345  19.574   7.103
 5478POPC   C4B70066  37.506  19.702   7.495
 5479POPC   NC370067  43.546  13.621   5.600
 5479POPC   PO470068  42.982  13.795   5.273
 5479POPC   GL170069  43.079  13.698   5.745
 5479POPC   GL270070  43.289  13.958   5.923
 5479POPC   C1A70071  42.929  13.593   6.161
 5479POPC   D2A70072  43.062  13.804   6.568
 5479POPC   C3A70073  43.066  13.472   6.860
 5479POPC   C4A70074  43.014  13.421   7.271
 5479POPC   C1B70075  43.430  13.639   6.261
 5479POPC   C2B70076  43.556  13.655   6.710
 5479POPC   C3B70077  43.494  13.545   7.144
 5479POPC   C4B70078  43.454  13.388   7.566
 5480POPC   NC370079   9.078  24.168   5.376
 5480POPC   PO470080   9.117  24.771   5.431
 5480POPC   GL170081   9.200  24.517   5.825
 5480POPC   GL270082   9.177  24.150   5.874
 5480POPC   C1A70083   9.189  24.446   6.301
 5480POPC   D2A70084   8.917  24.278   6.650
 5480POPC   C3A70085   8.852  24.536   7.022
 5480POPC   C4A70086   9.234  24.717   7.149
 5480POPC   C1B70087   9.432  24.003   6.224
 5480POPC   C2B70088   9.419  24.101   6.672
 5480POPC   C3B70089   9.269  24.218   7.074
 5480POPC   C4B70090   8.990  24.230   7.417
 5481POPC   NC370091  44.236  34.246   5.474
 5481POPC   PO470092  43.928  33.708   5.259
 5481POPC   GL170093  43.865  33.752   5.726
 5481POPC   GL270094  43.591  33.553   5.853
 5481POPC   C1A70095  44.008  33.648   6.188
 5481POPC   D2A70096  43.887  33.546   6.647
 5481POPC   C3A70097  44.076  33.715   7.027
 5481POPC   C4A70098  44.050  34.102   7.232
 5481POPC   C1B70099  43.508  33.702   6.251
 5481POPC   C2B70100  43.590  33.978   6.575
 5481POPC   C3B70101  43.589  33.894   6.995
 5481POPC   C4B70102  43.588  33.973   7.414
 5482POPC   NC370103  40.317  11.897   5.470
 5482POPC   PO470104  39.692  11.908   5.454
 5482POPC   GL170105  39.878  12.105   5.797
 5482POPC   GL270106  40.131  12.339   5.681
 5482POPC   C1A70107  39.958  11.970   6.212
 5482POPC   D2A70108  39.992  11.740   6.586
 5482POPC   C3A70109  39.938  11.892   6.984
 5482POPC   C4A70110  39.981  11.987   7.398
 5482POPC   C1B70111  40.195  12.416   6.103
 5482POPC   C2B70112  40.308  12.210   6.490
 5482POPC   C3B70113  40.507  12.102   6.829
 5482POPC   C4B70114  40.375  12.269   7.179
 5483POPC   NC370115   1.832  28.563   5.431
 5483POPC   PO470116   1.973  27.940   5.231
 5483POPC   GL170117   2.163  28.219   5.571
 5483POPC   GL270118   2.332  28.566   5.638
 5483POPC   C1A70119   2.121  28.277   6.028
 5483POPC   D2A70120   2.150  28.092   6.445
 5483POPC   C3A70121   1.953  28.294   6.776
 5483POPC   C4A70122   2.179  28.197   7.116
 5483POPC   C1B70123   2.332  28.766   6.077
 5483POPC   C2B70124   2.246  28.611   6.507
 5483POPC   C3B70125   2.284  28.683   6.987
 5483POPC   C4B70126   2.247  28.594   7.445
 5484POPC   NC370127  29.398   0.549   5.076
 5484POPC   PO470128  29.418   0.325   5.699
 5484POPC   GL170129  29.218   0.614   6.024
 5484POPC   GL270130  29.546   0.633   6.109
 5484POPC   C1A70131  29.230   0.721   6.507
 5484POPC   D2A70132  29.526   0.761   6.834
 5484POPC   C3A70133  29.349   0.533   7.210
 5484POPC   C4A70134  28.911   0.528   7.376
 5484POPC   C1B70135  29.326   0.252   6.356
 5484POPC   C2B70136  29.141   0.278   6.796
 5484POPC   C3B70137  29.031   0.073   7.189
 5484POPC   C4B70138  29.267  44.856   7.483
 5485POPC   NC370139  44.974   6.815   5.508
 5485POPC   PO470140   0.623   6.541   5.449
 5485POPC   GL170141   0.563   6.767   5.806
 5485POPC   GL270142   0.439   6.477   5.960
 5485POPC   C1A70143   0.471   6.963   6.206
 5485POPC   D2A70144   0.280   6.900   6.584
 5485POPC   C3A70145   0.454   6.698   6.923
 5485POPC   C4A70146   0.486   6.910   7.296
 5485POPC   C1B70147   0.513   6.469   6.404
 5485POPC   C2B70148   0.255   6.275   6.693
 5485POPC   C3B70149   0.037   6.445   7.041
 5485POPC   C4B70150   0.333   6.401   7.343
 5486POPC   NC370151  32.651   7.080   5.459
 5486POPC   PO470152  32.948   6.449   5.345
 5486POPC   GL170153  32.796   6.590   5.739
 5486POPC   GL270154  32.445   6.568   5.631
 5486POPC   C1A70155  32.921   6.637   6.212
 5486POPC   D2A70156  32.924   6.595   6.669
 5486POPC   C3A70157  33.132   6.730   7.058
 5486POPC   C4A70158  33.339   6.991   7.357
 5486POPC   C1B70159  32.463   6.407   6.061
 5486POPC   C2B70160  32.609   6.224   6.435
 5486POPC   C3B70161  32.527   6.329   6.839
 5486POPC   C4B70162  32.705   6.492   7.228
 5487POPC   NC370163  38.066  26.594   5.091
 5487POPC   PO470164  37.702  27.094   5.381
 5487POPC   GL170165  37.465  26.916   5.743
 5487POPC   GL270166  37.735  26.747   5.807
 5487POPC   C1A70167  37.520  26.937   6.219
 5487POPC   D2A70168  37.800  26.935   6.587
 5487POPC   C3A70169  37.496  27.020   6.871
 5487POPC   C4A70170  37.337  26.983   7.283
 5487POPC   C1B70171  38.014  26.727   6.176
 5487POPC   C2B70172  38.130  26.457   6.507
 5487POPC   C3B70173  38.118  26.609   6.918
 5487POPC   C4B70174  37.826  26.794   7.184
 5488POPC   NC370175  24.213  32.308   5.487
 5488POPC   PO470176  24.767  32.018   5.279
 5488POPC   GL170177  24.661  32.094   5.696
 5488POPC   GL270178  24.762  32.433   5.635
 5488POPC   C1A70179  24.439  32.058   6.127
 5488POPC   D2A70180  24.295  31.997   6.565
 5488POPC   C3A70181  24.293  32.285   6.887
 5488POPC   C4A70182  24.492  32.066   7.140
 5488POPC   C1B70183  24.758  32.463   6.086
 5488POPC   C2B70184  24.590  32.488   6.521
 5488POPC   C3B70185  24.785  32.439   6.942
 5488POPC   C4B70186  24.697  32.594   7.379
 5489POPC   NC370187   3.395   9.267   5.380
 5489POPC   PO470188   3.824   8.753   5.369
 5489POPC   GL170189   3.669   8.980   5.732
 5489POPC   GL270190   3.300   8.959   5.793
 5489POPC   C1A70191   3.623   9.184   6.145
 5489POPC   D2A70192   3.458   9.185   6.591
 5489POPC   C3A70193   3.728   8.987   6.901
 5489POPC   C4A70194   3.840   8.785   7.289
 5489POPC   C1B70195   3.121   9.028   6.204
 5489POPC   C2B70196   2.936   9.194   6.598
 5489POPC   C3B70197   3.131   9.134   7.022
 5489POPC   C4B70198   3.341   8.749   7.167
 5490POPC   NC370199   2.251   4.541   5.624
 5490POPC   PO470200   2.674   4.118   5.203
 5490POPC   GL170201   2.668   4.214   5.640
 5490POPC   GL270202   2.465   4.004   5.804
 5490POPC   C1A70203   2.682   4.379   6.081
 5490POPC   D2A70204   2.541   4.424   6.515
 5490POPC   C3A70205   2.740   4.322   6.920
 5490POPC   C4A70206   2.712   4.557   7.290
 5490POPC   C1B70207   2.370   4.004   6.259
 5490POPC   C2B70208   2.462   3.938   6.705
 5490POPC   C3B70209   2.484   3.953   7.176
 5490POPC   C4B70210   2.387   4.272   7.544
 5491POPC   NC370211  16.213  24.667   5.323
 5491POPC   PO470212  15.700  24.143   5.522
 5491POPC   GL170213  15.972  24.446   5.728
 5491POPC   GL270214  15.764  24.675   5.896
 5491POPC   C1A70215  16.174  24.523   6.148
 5491POPC   D2A70216  16.211  24.280   6.547
 5491POPC   C3A70217  16.204  24.472   6.960
 5491POPC   C4A70218  16.077  24.356   7.373
 5491POPC   C1B70219  15.847  24.924   6.221
 5491POPC   C2B70220  15.928  24.786   6.614
 5491POPC   C3B70221  15.795  24.790   7.037
 5491POPC   C4B70222  15.777  24.724   7.508
 5492POPC   NC370223  10.519  29.259   5.292
 5492POPC   PO470224  10.036  29.402   5.670
 5492POPC   GL170225  10.414  29.173   5.839
 5492POPC   GL270226  10.724  28.980   5.739
 5492POPC   C1A70227  10.434  29.129   6.291
 5492POPC   D2A70228  10.575  29.201   6.708
 5492POPC   C3A70229  10.318  29.098   7.051
 5492POPC   C4A70230  10.096  29.424   7.256
 5492POPC   C1B70231  10.861  28.909   6.150
 5492POPC   C2B70232  10.983  28.915   6.579
 5492POPC   C3B70233  10.801  28.830   6.976
 5492POPC   C4B70234  10.763  28.955   7.381
 5493POPC   NC370235  10.253  12.973   5.532
 5493POPC   PO470236  10.531  12.341   5.658
 5493POPC   GL170237  10.539  12.702   5.886
 5493POPC   GL270238  10.199  12.651   5.977
 5493POPC   C1A70239  10.670  12.954   6.235
 5493POPC   D2A70240  10.751  12.791   6.641
 5493POPC   C3A70241  10.613  13.002   7.004
 5493POPC   C4A70242  10.857  13.226   7.280
 5493POPC   C1B70243  10.268  12.628   6.419
 5493POPC   C2B70244  10.009  12.808   6.746
 5493POPC   C3B70245  10.092  12.978   7.148
 5493POPC   C4B70246  10.087  13.242   7.490
 5494POPC   NC370247  10.033  18.959   5.514
 5494POPC   PO470248   9.601  19.381   5.241
 5494POPC   GL170249   9.669  19.280   5.704
 5494POPC   GL270250   9.348  19.298   5.799
 5494POPC   C1A70251   9.836  19.068   6.118
 5494POPC   D2A70252  10.029  18.918   6.515
 5494POPC   C3A70253  10.075  19.287   6.754
 5494POPC   C4A70254   9.890  19.391   7.117
 5494POPC   C1B70255   9.501  19.472   6.191
 5494POPC   C2B70256   9.569  19.214   6.559
 5494POPC   C3B70257   9.324  19.103   6.930
 5494POPC   C4B70258   9.429  18.767   7.147
 5495POPC   NC370259   0.167   4.423   5.436
 5495POPC   PO470260   0.432   3.873   5.530
 5495POPC   GL170261   0.551   4.180   5.847
 5495POPC   GL270262   0.522   4.560   5.822
 5495POPC   C1A70263   0.662   4.314   6.267
 5495POPC   D2A70264   0.362   4.419   6.582
 5495POPC   C3A70265   0.401   4.210   6.945
 5495POPC   C4A70266   0.330   4.187   7.348
 5495POPC   C1B70267   0.292   4.773   6.174
 5495POPC   C2B70268   0.088   4.859   6.585
 5495POPC   C3B70269   0.303   4.768   6.989
 5495POPC   C4B70270   0.628   4.608   7.280
 5496POPC   NC370271   9.282  43.024   5.325
 5496POPC   PO470272   8.673  43.235   5.250
 5496POPC   GL170273   8.897  43.160   5.647
 5496POPC   GL270274   8.715  43.431   5.793
 5496POPC   C1A70275   9.003  43.123   6.117
 5496POPC   D2A70276   9.139  42.914   6.513
 5496POPC   C3A70277   9.087  43.105   6.917
 5496POPC   C4A70278   8.795  42.966   7.218
 5496POPC   C1B70279   8.513  43.330   6.187
 5496POPC   C2B70280   8.711  43.297   6.599
 5496POPC   C3B70281   8.688  43.430   7.049
 5496POPC   C4B70282   8.764  43.381   7.507
 5497POPC   NC370283  37.777  19.337   5.378
 5497POPC   PO470284  37.396  18.705   5.529
 5497POPC   GL170285  37.447  18.850   5.902
 5497POPC   GL270286  37.595  19.168   5.832
 5497POPC   C1A70287  37.700  18.793   6.266
 5497POPC   D2A70288  37.718  18.819   6.708
 5497POPC   C3A70289  37.487  19.087   6.983
 5497POPC   C4A70290  37.487  19.183   7.433
 5497POPC   C1B70291  37.894  19.332   6.129
 5497POPC   C2B70292  38.031  19.292   6.562
 5497POPC   C3B70293  38.136  19.032   6.909
 5497POPC   C4B70294  38.001  19.101   7.319
 5498POPC   NC370295  38.127  29.721   5.181
 5498POPC   PO470296  38.421  30.308   5.410
 5498POPC   GL170297  38.396  29.890   5.663
 5498POPC   GL270298  38.088  29.732   5.674
 5498POPC   C1A70299  38.438  29.773   6.095
 5498POPC   D2A70300  38.269  29.982   6.469
 5498POPC   C3A70301  38.492  29.937   6.876
 5498POPC   C4A70302  38.530  30.072   7.316
 5498POPC   C1B70303  37.941  29.775   6.076
 5498POPC   C2B70304  37.997  29.553   6.454
 5498POPC   C3B70305  38.000  29.760   6.855
 5498POPC   C4B70306  38.233  29.586   7.199
 5499POPC   NC370307  10.169  26.424   5.544
 5499POPC   PO470308  10.283  27.120   5.552
 5499POPC   GL170309  10.086  26.862   5.868
 5499POPC   GL270310   9.740  26.862   5.988
 5499POPC   C1A70311  10.148  26.895   6.300
 5499POPC   D2A70312   9.856  26.801   6.589
 5499POPC   C3A70313   9.980  26.883   7.014
 5499POPC   C4A70314   9.838  26.798   7.426
 5499POPC   C1B70315   9.434  26.973   6.325
 5499POPC   C2B70316   9.529  27.162   6.754
 5499POPC   C3B70317   9.492  27.229   7.202
 5499POPC   C4B70318   9.427  27.033   7.622
 5500POPC   NC370319  23.335  29.520   5.158
 5500POPC   PO470320  23.408  28.941   5.454
 5500POPC   GL170321  23.694  29.056   5.816
 5500POPC   GL270322  24.095  29.000   5.767
 5500POPC   C1A70323  23.572  29.269   6.211
 5500POPC   D2A70324  23.295  29.312   6.571
 5500POPC   C3A70325  23.521  29.267   6.937
 5500POPC   C4A70326  23.598  29.116   7.348
 5500POPC   C1B70327  23.996  28.839   6.186
 5500POPC   C2B70328  23.802  28.969   6.581
 5500POPC   C3B70329  24.006  29.111   6.957
 5500POPC   C4B70330  24.082  28.878   7.308
 5501POPC   NC370331   2.023  36.763   5.455
 5501POPC   PO470332   1.686  37.373   5.461
 5501POPC   GL170333   1.995  37.135   5.824
 5501POPC   GL270334   1.868  36.796   5.937
 5501POPC   C1A70335   2.282  36.916   6.216
 5501POPC   D2A70336   2.515  36.829   6.654
 5501POPC   C3A70337   2.285  37.042   7.039
 5501POPC   C4A70338   2.346  37.082   7.509
 5501POPC   C1B70339   1.780  37.038   6.320
 5501POPC   C2B70340   1.850  37.123   6.766
 5501POPC   C3B70341   1.782  36.893   7.146
 5501POPC   C4B70342   1.427  36.891   7.443
 5502POPC   NC370343   2.017  23.937   5.405
 5502POPC   PO470344   2.238  23.319   5.388
 5502POPC   GL170345   2.055  23.323   5.786
 5502POPC   GL270346   1.820  23.608   5.774
 5502POPC   C1A70347   2.186  23.566   6.163
 5502POPC   D2A70348   2.202  23.949   6.406
 5502POPC   C3A70349   2.285  23.839   6.833
 5502POPC   C4A70350   2.187  23.461   7.077
 5502POPC   C1B70351   1.729  23.823   6.171
 5502POPC   C2B70352   1.800  23.682   6.594
 5502POPC   C3B70353   1.749  23.754   7.004
 5502POPC   C4B70354   1.726  23.543   7.348
 5503POPC   NC370355  39.023  22.416   5.415
 5503POPC   PO470356  39.431  21.805   5.453
 5503POPC   GL170357  39.309  22.011   5.850
 5503POPC   GL270358  38.974  22.010   5.779
 5503POPC   C1A70359  39.149  22.005   6.305
 5503POPC   D2A70360  39.242  22.278   6.661
 5503POPC   C3A70361  39.186  22.228   7.105
 5503POPC   C4A70362  39.149  22.233   7.553
 5503POPC   C1B70363  38.967  22.389   6.046
 5503POPC   C2B70364  38.786  22.404   6.437
 5503POPC   C3B70365  38.854  22.601   6.840
 5503POPC   C4B70366  38.784  22.503   7.258
 5504POPC   NC370367  16.338  11.989   5.262
 5504POPC   PO470368  16.924  12.230   5.201
 5504POPC   GL170369  16.940  12.138   5.640
 5504POPC   GL270370  16.630  12.179   5.739
 5504POPC   C1A70371  16.980  12.076   6.122
 5504POPC   D2A70372  17.084  11.888   6.562
 5504POPC   C3A70373  16.906  12.118   6.957
 5504POPC   C4A70374  16.734  12.363   7.321
 5504POPC   C1B70375  16.474  12.072   6.181
 5504POPC   C2B70376  16.277  12.081   6.563
 5504POPC   C3B70377  16.388  12.206   6.961
 5504POPC   C4B70378  16.334  12.026   7.345
 5505POPC   NC370379  18.630  31.856   5.585
 5505POPC   PO470380  18.172  31.351   5.368
 5505POPC   GL170381  18.420  31.417   5.747
 5505POPC   GL270382  18.292  31.213   5.957
 5505POPC   C1A70383  18.483  31.632   6.203
 5505POPC   D2A70384  18.470  31.889   6.611
 5505POPC   C3A70385  18.537  31.701   7.026
 5505POPC   C4A70386  18.455  31.261   7.195
 5505POPC   C1B70387  17.999  31.542   6.046
 5505POPC   C2B70388  17.844  31.537   6.471
 5505POPC   C3B70389  18.108  31.524   6.832
 5505POPC   C4B70390  18.083  31.611   7.280
 5506POPC   NC370391   9.897  43.860   5.329
 5506POPC   PO470392  10.270  44.335   5.668
 5506POPC   GL170393   9.876  44.154   5.795
 5506POPC   GL270394   9.593  43.907   5.724
 5506POPC   C1A70395   9.689  44.150   6.195
 5506POPC   D2A70396   9.945  44.159   6.555
 5506POPC   C3A70397   9.718  44.104   6.884
 5506POPC   C4A70398   9.700  43.780   7.156
 5506POPC   C1B70399   9.535  43.673   6.100
 5506POPC   C2B70400   9.654  43.709   6.533
 5506POPC   C3B70401   9.373  43.553   6.841
 5506POPC   C4B70402   9.500  43.316   7.209
 5507POPC   NC370403  30.441  21.995   5.279
 5507POPC   PO470404  30.853  22.553   5.346
 5507POPC   GL170405  30.578  22.457   5.745
 5507POPC   GL270406  30.443  22.113   5.770
 5507POPC   C1A70407  30.473  22.452   6.220
 5507POPC   D2A70408  30.686  22.440   6.644
 5507POPC   C3A70409  30.821  22.117   6.940
 5507POPC   C4A70410  30.780  22.350   7.306
 5507POPC   C1B70411  30.708  22.008   6.102
 5507POPC   C2B70412  30.570  21.937   6.526
 5507POPC   C3B70413  30.308  21.982   6.907
 5507POPC   C4B70414  30.480  21.929   7.325
 5508POPC   NC370415  28.064   3.153   5.485
 5508POPC   PO470416  27.500   2.710   5.223
 5508POPC   GL170417  27.618   2.920   5.623
 5508POPC   GL270418  27.913   2.772   5.822
 5508POPC   C1A70419  27.485   2.895   6.070
 5508POPC   D2A70420  27.353   2.945   6.516
 5508POPC   C3A70421  27.354   2.656   6.833
 5508POPC   C4A70422  27.520   2.768   7.209
 5508POPC   C1B70423  27.935   2.789   6.318
 5508POPC   C2B70424  27.863   2.774   6.802
 5508POPC   C3B70425  27.937   2.463   7.175
 5508POPC   C4B70426  28.052   2.331   7.616
 5509POPC   NC370427   3.035  18.587   5.376
 5509POPC   PO470428   2.641  18.152   5.151
 5509POPC   GL170429   2.535  18.374   5.624
 5509POPC   GL270430   2.874  18.378   5.800
 5509POPC   C1A70431   2.519  18.259   6.134
 5509POPC   D2A70432   2.457  18.027   6.555
 5509POPC   C3A70433   2.439  18.102   6.996
 5509POPC   C4A70434   2.746  18.232   7.271
 5509POPC   C1B70435   3.067  18.255   6.211
 5509POPC   C2B70436   2.961  18.150   6.653
 5509POPC   C3B70437   3.183  18.139   7.041
 5509POPC   C4B70438   3.208  18.121   7.551
 5510POPC   NC370439  11.451  34.155   5.402
 5510POPC   PO470440  11.470  33.459   5.393
 5510POPC   GL170441  11.262  33.639   5.763
 5510POPC   GL270442  11.213  34.001   5.839
 5510POPC   C1A70443  11.165  33.585   6.209
 5510POPC   D2A70444  11.128  33.806   6.609
 5510POPC   C3A70445  11.364  33.668   6.981
 5510POPC   C4A70446  11.174  33.399   7.283
 5510POPC   C1B70447  11.446  34.014   6.237
 5510POPC   C2B70448  11.382  34.258   6.613
 5510POPC   C3B70449  11.273  34.195   7.048
 5510POPC   C4B70450  11.658  34.110   7.254
 5511POPC   NC370451  31.437  14.607   5.473
 5511POPC   PO470452  31.071  14.022   5.562
 5511POPC   GL170453  31.208  14.373   5.884
 5511POPC   GL270454  31.058  14.687   5.843
 5511POPC   C1A70455  31.526  14.509   6.232
 5511POPC   D2A70456  31.655  14.818   6.557
 5511POPC   C3A70457  31.613  14.555   6.903
 5511POPC   C4A70458  31.611  14.222   7.173
 5511POPC   C1B70459  31.149  14.844   6.239
 5511POPC   C2B70460  31.182  14.585   6.600
 5511POPC   C3B70461  31.100  14.539   6.998
 5511POPC   C4B70462  31.187  14.499   7.376
 5512POPC   NC370463  19.968  33.247   5.311
 5512POPC   PO470464  20.057  32.645   5.144
 5512POPC   GL170465  19.900  32.786   5.621
 5512POPC   GL270466  19.823  33.116   5.772
 5512POPC   C1A70467  19.921  32.734   6.109
 5512POPC   D2A70468  19.675  32.824   6.518
 5512POPC   C3A70469  19.873  32.868   6.939
 5512POPC   C4A70470  19.769  32.998   7.370
 5512POPC   C1B70471  19.763  33.240   6.203
 5512POPC   C2B70472  19.907  33.317   6.627
 5512POPC   C3B70473  19.668  33.327   6.985
 5512POPC   C4B70474  19.558  33.472   7.359
 5513POPC   NC370475  18.693  41.969   5.459
 5513POPC   PO470476  19.195  42.410   5.461
 5513POPC   GL170477  19.358  42.428   5.848
 5513POPC   GL270478  19.312  42.126   6.065
 5513POPC   C1A70479  19.254  42.618   6.236
 5513POPC   D2A70480  19.394  42.402   6.560
 5513POPC   C3A70481  19.132  42.350   6.903
 5513POPC   C4A70482  19.176  42.577   7.284
 5513POPC   C1B70483  18.931  42.250   6.326
 5513POPC   C2B70484  18.644  42.428   6.649
 5513POPC   C3B70485  18.643  42.292   7.043
 5513POPC   C4B70486  18.908  42.148   7.368
 5514POPC   NC370487  32.072  40.642   5.483
 5514POPC   PO470488  32.333  41.223   5.369
 5514POPC   GL170489  32.379  40.975   5.730
 5514POPC   GL270490  32.049  41.089   5.808
 5514POPC   C1A70491  32.523  40.734   6.144
 5514POPC   D2A70492  32.339  40.739   6.567
 5514POPC   C3A70493  32.458  40.539   6.918
 5514POPC   C4A70494  32.300  40.516   7.320
 5514POPC   C1B70495  32.032  40.879   6.198
 5514POPC   C2B70496  31.907  41.020   6.627
 5514POPC   C3B70497  32.026  40.823   7.000
 5514POPC   C4B70498  32.188  40.999   7.375
 5515POPC   NC370499  28.569  28.926   5.608
 5515POPC   PO470500  28.342  29.564   5.468
 5515POPC   GL170501  28.248  29.280   5.822
 5515POPC   GL270502  28.469  29.441   6.018
 5515POPC   C1A70503  28.362  29.025   6.248
 5515POPC   D2A70504  28.434  29.230   6.660
 5515POPC   C3A70505  28.364  28.982   6.998
 5515POPC   C4A70506  28.191  28.980   7.399
 5515POPC   C1B70507  28.563  29.659   6.360
 5515POPC   C2B70508  28.812  29.646   6.694
 5515POPC   C3B70509  28.516  29.643   6.961
 5515POPC   C4B70510  28.445  29.411   7.305
 5516POPC   NC370511  13.755   0.130   5.317
 5516POPC   PO470512  14.080   0.749   5.496
 5516POPC   GL170513  13.734   0.664   5.809
 5516POPC   GL270514  13.612   0.339   5.779
 5516POPC   C1A70515  13.574   0.783   6.211
 5516POPC   D2A70516  13.789   0.786   6.622
 5516POPC   C3A70517  13.622   0.492   6.909
 5516POPC   C4A70518  13.588   0.449   7.340
 5516POPC   C1B70519  13.601   0.277   6.214
 5516POPC   C2B70520  13.288   0.400   6.526
 5516POPC   C3B70521  13.249   0.125   6.855
 5516POPC   C4B70522  13.525  44.983   7.156
 5517POPC   NC370523  24.012  21.682   5.622
 5517POPC   PO470524  23.520  21.693   5.168
 5517POPC   GL170525  23.502  21.496   5.688
 5517POPC   GL270526  23.802  21.301   5.878
 5517POPC   C1A70527  23.374  21.413   6.208
 5517POPC   D2A70528  23.700  21.221   6.546
 5517POPC   C3A70529  23.768  21.236   7.029
 5517POPC   C4A70530  23.521  21.163   7.453
 5517POPC   C1B70531  23.816  21.628   6.221
 5517POPC   C2B70532  23.876  21.878   6.572
 5517POPC   C3B70533  23.660  21.771   6.952
 5517POPC   C4B70534  23.898  21.654   7.289
 5518POPC   NC370535  35.595  20.317   5.504
 5518POPC   PO470536  35.304  20.873   5.220
 5518POPC   GL170537  35.377  20.812   5.670
 5518POPC   GL270538  35.731  20.706   5.822
 5518POPC   C1A70539  35.270  20.774   6.114
 5518POPC   D2A70540  35.073  20.462   6.435
 5518POPC   C3A70541  35.115  20.418   6.909
 5518POPC   C4A70542  35.140  20.787   7.203
 5518POPC   C1B70543  35.601  20.381   6.187
 5518POPC   C2B70544  35.574  20.294   6.659
 5518POPC   C3B70545  35.588  20.603   7.035
 5518POPC   C4B70546  35.816  20.530   7.422
 5519POPC   NC370547  43.445   6.970   5.511
 5519POPC   PO470548  42.976   6.420   5.405
 5519POPC   GL170549  42.981   6.712   5.752
 5519POPC   GL270550  42.879   7.086   5.736
 5519POPC   C1A70551  43.167   6.650   6.161
 5519POPC   D2A70552  43.373   6.751   6.554
 5519POPC   C3A70553  43.176   6.727   6.949
 5519POPC   C4A70554  43.304   6.552   7.310
 5519POPC   C1B70555  43.090   7.168   6.139
 5519POPC   C2B70556  43.227   7.251   6.570
 5519POPC   C3B70557  43.097   7.250   6.989
 5519POPC   C4B70558  42.971   6.987   7.347
 5520POPC   NC370559  10.837  30.199   5.414
 5520POPC   PO470560  10.418  29.702   5.238
 5520POPC   GL170561  10.558  29.658   5.663
 5520POPC   GL270562  10.578  29.980   5.791
 5520POPC   C1A70563  10.525  29.611   6.123
 5520POPC   D2A70564  10.338  29.652   6.520
 5520POPC   C3A70565  10.607  29.688   6.878
 5520POPC   C4A70566  10.524  29.751   7.287
 5520POPC   C1B70567  10.421  30.114   6.180
 5520POPC   C2B70568  10.537  30.147   6.630
 5520POPC   C3B70569  10.376  30.175   7.054
 5520POPC   C4B70570  10.553  30.216   7.494
 5521POPC   NC370571  22.427  18.570   5.203
 5521POPC   PO470572  22.150  18.094   5.501
 5521POPC   GL170573  22.214  18.167   5.906
 5521POPC   GL270574  22.252  18.537   5.740
 5521POPC   C1A70575  21.971  18.183   6.303
 5521POPC   D2A70576  21.973  18.443   6.665
 5521POPC   C3A70577  22.287  18.251   6.896
 5521POPC   C4A70578  22.256  18.001   7.272
 5521POPC   C1B70579  22.085  18.644   6.103
 5521POPC   C2B70580  22.262  18.817   6.442
 5521POPC   C3B70581  22.308  18.798   6.862
 5521POPC   C4B70582  22.111  18.653   7.214
 5522POPC   NC370583  17.057  30.141   5.670
 5522POPC   PO470584  16.729  29.791   5.188
 5522POPC   GL170585  16.676  29.702   5.658
 5522POPC   GL270586  16.464  29.999   5.797
 5522POPC   C1A70587  16.745  29.733   6.128
 5522POPC   D2A70588  16.474  29.747   6.516
 5522POPC   C3A70589  16.773  29.707   6.859
 5522POPC   C4A70590  16.791  29.684   7.314
 5522POPC   C1B70591  16.518  30.177   6.240
 5522POPC   C2B70592  16.638  30.209   6.685
 5522POPC   C3B70593  16.639  30.130   7.132
 5522POPC   C4B70594  16.709  30.129   7.591
 5523POPC   NC370595  42.428  29.683   5.307
 5523POPC   PO470596  42.280  30.356   5.401
 5523POPC   GL170597  42.388  30.087   5.761
 5523POPC   GL270598  42.451  29.714   5.800
 5523POPC   C1A70599  42.391  30.065   6.215
 5523POPC   D2A70600  42.399  30.285   6.584
 5523POPC   C3A70601  42.356  30.077   6.948
 5523POPC   C4A70602  42.583  30.318   7.240
 5523POPC   C1B70603  42.244  29.574   6.174
 5523POPC   C2B70604  42.380  29.639   6.587
 5523POPC   C3B70605  42.240  29.562   6.981
 5523POPC   C4B70606  42.366  29.727   7.347
 5524POPC   NC370607  30.635  36.878   5.157
 5524POPC   PO470608  30.260  36.438   5.628
 5524POPC   GL170609  30.514  36.640   5.983
 5524POPC   GL270610  30.848  36.818   5.903
 5524POPC   C1A70611  30.540  36.971   6.297
 5524POPC   D2A70612  30.527  36.751   6.670
 5524POPC   C3A70613  30.601  36.954   7.014
 5524POPC   C4A70614  30.384  37.016   7.373
 5524POPC   C1B70615  30.951  36.660   6.331
 5524POPC   C2B70616  31.034  36.656   6.787
 5524POPC   C3B70617  30.856  36.542   7.183
 5524POPC   C4B70618  31.010  36.627   7.596
 5525POPC   NC370619  39.365  40.939   5.274
 5525POPC   PO470620  38.794  41.260   5.460
 5525POPC   GL170621  39.021  40.874   5.696
 5525POPC   GL270622  39.387  40.812   5.754
 5525POPC   C1A70623  39.100  40.707   6.140
 5525POPC   D2A70624  39.212  40.746   6.560
 5525POPC   C3A70625  38.985  40.625   6.930
 5525POPC   C4A70626  39.152  40.844   7.250
 5525POPC   C1B70627  39.629  40.577   6.063
 5525POPC   C2B70628  39.561  40.329   6.424
 5525POPC   C3B70629  39.454  40.410   6.858
 5525POPC   C4B70630  39.642  40.737   7.126
 5526POPC   NC370631   5.960   5.790   5.103
 5526POPC   PO470632   6.350   5.847   5.381
 5526POPC   GL170633   6.126   5.895   5.818
 5526POPC   GL270634   5.934   6.218   5.846
 5526POPC   C1A70635   5.960   5.931   6.300
 5526POPC   D2A70636   5.681   5.895   6.711
 5526POPC   C3A70637   5.822   5.783   7.169
 5526POPC   C4A70638   6.033   5.487   7.470
 5526POPC   C1B70639   5.644   6.338   6.189
 5526POPC   C2B70640   5.686   6.402   6.628
 5526POPC   C3B70641   5.916   6.259   7.002
 5526POPC   C4B70642   5.717   6.243   7.385
 5527POPC   NC370643  30.885  12.395   5.480
 5527POPC   PO470644  30.440  12.917   5.488
 5527POPC   GL170645  30.546  12.637   5.818
 5527POPC   GL270646  30.863  12.740   5.882
 5527POPC   C1A70647  30.604  12.559   6.284
 5527POPC   D2A70648  30.909  12.814   6.534
 5527POPC   C3A70649  30.945  12.807   7.014
 5527POPC   C4A70650  30.762  12.820   7.454
 5527POPC   C1B70651  30.614  13.053   6.145
 5527POPC   C2B70652  30.620  13.284   6.567
 5527POPC   C3B70653  30.676  13.231   7.035
 5527POPC   C4B70654  30.629  13.329   7.471
 5528POPC   NC370655   0.148  25.557   5.432
 5528POPC   PO470656   0.644  25.150   5.503
 5528POPC   GL170657   0.488  25.037   5.915
 5528POPC   GL270658   0.656  24.720   6.010
 5528POPC   C1A70659   0.345  25.343   6.258
 5528POPC   D2A70660   0.452  25.502   6.679
 5528POPC   C3A70661   0.361  25.191   6.997
 5528POPC   C4A70662   0.280  25.153   7.445
 5528POPC   C1B70663   0.723  25.006   6.384
 5528POPC   C2B70664   0.886  25.056   6.809
 5528POPC   C3B70665   0.819  25.398   7.071
 5528POPC   C4B70666   0.536  25.581   7.343
 5529POPC   NC370667   9.558  24.796   5.543
 5529POPC   PO470668   9.506  24.088   5.471
 5529POPC   GL170669   9.670  24.322   5.855
 5529POPC   GL270670  10.010  24.383   5.909
 5529POPC   C1A70671   9.720  24.419   6.332
 5529POPC   D2A70672  10.052  24.520   6.646
 5529POPC   C3A70673   9.926  24.812   6.974
 5529POPC   C4A70674   9.685  24.889   7.360
 5529POPC   C1B70675   9.953  23.985   6.188
 5529POPC   C2B70676   9.921  24.033   6.654
 5529POPC   C3B70677   9.776  24.271   7.039
 5529POPC   C4B70678   9.859  24.065   7.468
 5530POPC   NC370679  33.539  16.502   5.398
 5530POPC   PO470680  34.240  16.374   5.532
 5530POPC   GL170681  33.953  16.593   5.828
 5530POPC   GL270682  33.575  16.642   5.869
 5530POPC   C1A70683  33.870  16.389   6.206
 5530POPC   D2A70684  33.804  16.261   6.613
 5530POPC   C3A70685  33.788  16.626   6.840
 5530POPC   C4A70686  33.996  16.643   7.192
 5530POPC   C1B70687  33.711  16.877   6.220
 5530POPC   C2B70688  34.059  16.980   6.511
 5530POPC   C3B70689  34.024  17.135   6.929
 5530POPC   C4B70690  33.689  17.054   7.195
 5531POPC   NC370691  14.241  12.784   5.252
 5531POPC   PO470692  14.868  12.723   5.121
 5531POPC   GL170693  14.583  12.946   5.577
 5531POPC   GL270694  14.259  12.998   5.709
 5531POPC   C1A70695  14.551  12.760   6.058
 5531POPC   D2A70696  14.311  12.763   6.460
 5531POPC   C3A70697  14.487  12.677   6.906
 5531POPC   C4A70698  14.745  12.839   7.264
 5531POPC   C1B70699  14.326  13.199   6.095
 5531POPC   C2B70700  14.261  13.297   6.512
 5531POPC   C3B70701  14.401  13.208   6.900
 5531POPC   C4B70702  14.195  13.094   7.242
 5532POPC   NC370703  22.490  17.080   5.378
 5532POPC   PO470704  21.937  16.751   5.223
 5532POPC   GL170705  22.171  16.742   5.636
 5532POPC   GL270706  22.347  16.414   5.636
 5532POPC   C1A70707  22.220  16.978   6.065
 5532POPC   D2A70708  22.240  16.828   6.515
 5532POPC   C3A70709  22.093  16.967   6.956
 5532POPC   C4A70710  21.709  16.869   7.229
 5532POPC   C1B70711  22.359  16.458   6.098
 5532POPC   C2B70712  22.621  16.452   6.487
 5532POPC   C3B70713  22.561  16.653   6.891
 5532POPC   C4B70714  22.348  16.455   7.205
 5533POPC   NC370715  31.492  35.165   5.397
 5533POPC   PO470716  31.071  35.624   5.530
 5533POPC   GL170717  31.072  35.435   5.938
 5533POPC   GL270718  31.198  35.114   5.825
 5533POPC   C1A70719  31.142  35.357   6.412
 5533POPC   D2A70720  31.264  35.599   6.828
 5533POPC   C3A70721  31.647  35.490   7.095
 5533POPC   C4A70722  31.614  35.264   7.498
 5533POPC   C1B70723  31.559  35.342   6.070
 5533POPC   C2B70724  31.658  35.384   6.518
 5533POPC   C3B70725  31.508  35.099   6.842
 5533POPC   C4B70726  31.838  34.958   7.160
 5534POPC   NC370727  41.401  16.828   5.450
 5534POPC   PO470728  41.897  16.424   5.534
 5534POPC   GL170729  41.668  16.590   5.878
 5534POPC   GL270730  41.293  16.685   5.918
 5534POPC   C1A70731  41.600  16.607   6.316
 5534POPC   D2A70732  41.431  16.503   6.688
 5534POPC   C3A70733  41.554  16.741   7.041
 5534POPC   C4A70734  41.782  16.502   7.324
 5534POPC   C1B70735  41.271  17.008   6.272
 5534POPC   C2B70736  41.165  16.934   6.726
 5534POPC   C3B70737  41.074  16.838   7.168
 5534POPC   C4B70738  41.303  16.678   7.534
 5535POPC   NC370739  29.412  24.547   5.108
 5535POPC   PO470740  28.892  24.307   5.498
 5535POPC   GL170741  29.035  24.606   5.783
 5535POPC   GL270742  29.371  24.703   5.777
 5535POPC   C1A70743  29.049  24.503   6.198
 5535POPC   D2A70744  29.119  24.543   6.626
 5535POPC   C3A70745  29.197  24.184   6.872
 5535POPC   C4A70746  29.026  24.047   7.252
 5535POPC   C1B70747  29.515  24.711   6.244
 5535POPC   C2B70748  29.608  24.541   6.705
 5535POPC   C3B70749  29.339  24.622   7.131
 5535POPC   C4B70750  29.536  24.595   7.576
 5536POPC   NC370751   3.495  24.687   5.494
 5536POPC   PO470752   4.013  25.043   5.633
 5536POPC   GL170753   3.740  24.790   5.927
 5536POPC   GL270754   3.769  24.416   5.916
 5536POPC   C1A70755   3.468  24.642   6.261
 5536POPC   D2A70756   3.382  24.423   6.667
 5536POPC   C3A70757   3.541  24.685   7.032
 5536POPC   C4A70758   3.840  24.753   7.365
 5536POPC   C1B70759   3.601  24.131   6.272
 5536POPC   C2B70760   3.713  24.025   6.724
 5536POPC   C3B70761   3.827  24.262   7.091
 5536POPC   C4B70762   3.822  24.273   7.529
 5537POPC   NC370763  40.367  17.033   5.418
 5537POPC   PO470764  40.949  16.742   5.519
 5537POPC   GL170765  40.758  16.765   5.901
 5537POPC   GL270766  40.480  16.579   5.740
 5537POPC   C1A70767  40.784  16.878   6.356
 5537POPC   D2A70768  40.716  17.168   6.724
 5537POPC   C3A70769  40.561  16.887   7.031
 5537POPC   C4A70770  40.642  16.814   7.479
 5537POPC   C1B70771  40.512  16.377   6.154
 5537POPC   C2B70772  40.579  16.448   6.561
 5537POPC   C3B70773  40.922  16.474   6.791
 5537POPC   C4B70774  40.777  16.432   7.176
 5538POPC   NC370775  25.099  27.583   5.243
 5538POPC   PO470776  24.725  27.942   5.646
 5538POPC   GL170777  25.043  27.648   5.803
 5538POPC   GL270778  25.281  27.365   5.688
 5538POPC   C1A70779  25.227  27.690   6.199
 5538POPC   D2A70780  25.187  27.870   6.604
 5538POPC   C3A70781  25.041  27.656   7.003
 5538POPC   C4A70782  25.286  27.691   7.370
 5538POPC   C1B70783  25.597  27.356   6.058
 5538POPC   C2B70784  25.673  27.475   6.490
 5538POPC   C3B70785  25.530  27.562   6.890
 5538POPC   C4B70786  25.694  27.416   7.276
 5539POPC   NC370787  34.331  24.184   5.447
 5539POPC   PO470788  35.032  24.291   5.322
 5539POPC   GL170789  34.790  24.365   5.719
 5539POPC   GL270790  34.470  24.569   5.768
 5539POPC   C1A70791  34.804  24.520   6.158
 5539POPC   D2A70792  34.640  24.689   6.550
 5539POPC   C3A70793  34.775  24.591   6.992
 5539POPC   C4A70794  34.721  24.446   7.434
 5539POPC   C1B70795  34.286  24.522   6.187
 5539POPC   C2B70796  34.172  24.464   6.630
 5539POPC   C3B70797  34.262  24.724   7.007
 5539POPC   C4B70798  34.187  24.713   7.476
 5540POPC   NC370799  17.883   3.412   5.136
 5540POPC   PO470800  18.478   3.421   5.399
 5540POPC   GL170801  18.542   3.336   5.805
 5540POPC   GL270802  18.243   3.526   5.939
 5540POPC   C1A70803  18.535   3.178   6.186
 5540POPC   D2A70804  18.283   3.339   6.492
 5540POPC   C3A70805  18.395   3.301   6.908
 5540POPC   C4A70806  18.031   3.207   7.161
 5540POPC   C1B70807  18.527   3.737   6.246
 5540POPC   C2B70808  18.428   3.824   6.672
 5540POPC   C3B70809  18.045   3.736   6.877
 5540POPC   C4B70810  18.219   3.695   7.250
 5541POPC   NC370811  38.691  33.786   5.459
 5541POPC   PO470812  38.036  33.514   5.560
 5541POPC   GL170813  38.352  33.671   5.829
 5541POPC   GL270814  38.663  33.462   5.844
 5541POPC   C1A70815  38.418  33.697   6.250
 5541POPC   D2A70816  38.421  33.506   6.624
 5541POPC   C3A70817  38.214  33.754   6.881
 5541POPC   C4A70818  38.229  33.902   7.269
 5541POPC   C1B70819  38.906  33.745   6.137
 5541POPC   C2B70820  38.803  33.884   6.563
 5541POPC   C3B70821  38.761  33.710   6.952
 5541POPC   C4B70822  38.743  33.877   7.306
 5542POPC   NC370823  37.342  41.229   5.355
 5542POPC   PO470824  37.610  40.665   5.576
 5542POPC   GL170825  37.738  40.708   5.983
 5542POPC   GL270826  37.721  41.064   6.083
 5542POPC   C1A70827  37.720  40.630   6.397
 5542POPC   D2A70828  37.735  40.852   6.742
 5542POPC   C3A70829  37.957  40.585   7.028
 5542POPC   C4A70830  37.916  40.420   7.481
 5542POPC   C1B70831  37.392  41.018   6.362
 5542POPC   C2B70832  37.199  40.685   6.619
 5542POPC   C3B70833  37.233  40.585   7.050
 5542POPC   C4B70834  37.564  40.824   7.218
 5543POPC   NC370835  21.668  32.703   5.161
 5543POPC   PO470836  21.338  33.217   5.310
 5543POPC   GL170837  21.385  33.096   5.741
 5543POPC   GL270838  21.627  32.804   5.769
 5543POPC   C1A70839  21.373  33.331   6.140
 5543POPC   D2A70840  21.449  33.180   6.567
 5543POPC   C3A70841  21.273  33.364   6.924
 5543POPC   C4A70842  21.529  33.233   7.255
 5543POPC   C1B70843  21.399  32.817   6.204
 5543POPC   C2B70844  21.181  32.749   6.651
 5543POPC   C3B70845  21.189  32.865   7.108
 5543POPC   C4B70846  21.426  32.783   7.483
 5544POPC   NC370847  44.712   0.078   5.500
 5544POPC   PO470848  44.907   0.561   5.112
 5544POPC   GL170849  44.858   0.541   5.634
 5544POPC   GL270850   0.185   0.558   5.856
 5544POPC   C1A70851  44.709   0.423   6.075
 5544POPC   D2A70852  44.375   0.392   6.393
 5544POPC   C3A70853  44.441   0.341   6.844
 5544POPC   C4A70854  44.353   0.530   7.262
 5544POPC   C1B70855   0.138   0.605   6.314
 5544POPC   C2B70856  44.894   0.320   6.594
 5544POPC   C3B70857  44.901   0.213   7.043
 5544POPC   C4B70858  44.834   0.448   7.433
 5545POPC   NC370859  40.225  43.470   5.117
 5545POPC   PO470860  39.883  44.019   5.376
 5545POPC   GL170861  39.662  44.076   5.762
 5545POPC   GL270862  40.016  43.987   5.888
 5545POPC   C1A70863  39.628  43.994   6.220
 5545POPC   D2A70864  39.900  43.848   6.584
 5545POPC   C3A70865  39.956  44.089   6.969
 5545POPC   C4A70866  40.310  44.283   7.206
 5545POPC   C1B70867  40.287  43.832   6.219
 5545POPC   C2B70868  40.301  43.502   6.535
 5545POPC   C3B70869  40.321  43.689   6.936
 5545POPC   C4B70870  40.152  43.813   7.354
 5546POPC   NC370871  11.007  32.308   5.386
 5546POPC   PO470872  10.357  32.032   5.416
 5546POPC   GL170873  10.619  32.169   5.784
 5546POPC   GL270874  10.574  32.499   5.911
 5546POPC   C1A70875  10.401  32.157   6.215
 5546POPC   D2A70876  10.386  32.500   6.521
 5546POPC   C3A70877  10.354  32.308   6.911
 5546POPC   C4A70878  10.000  32.158   7.161
 5546POPC   C1B70879  10.863  32.426   6.291
 5546POPC   C2B70880  10.976  32.555   6.728
 5546POPC   C3B70881  10.840  32.422   7.152
 5546POPC   C4B70882  10.440  32.529   7.356
 5547POPC   NC370883  23.230  18.975   5.440
 5547POPC   PO470884  22.830  19.476   5.466
 5547POPC   GL170885  22.846  19.140   5.780
 5547POPC   GL270886  22.696  18.826   5.646
 5547POPC   C1A70887  23.140  18.988   6.136
 5547POPC   D2A70888  23.289  18.797   6.539
 5547POPC   C3A70889  23.142  19.005   6.913
 5547POPC   C4A70890  22.966  19.186   7.303
 5547POPC   C1B70891  22.662  18.791   6.110
 5547POPC   C2B70892  22.721  19.061   6.475
 5547POPC   C3B70893  22.656  19.192   6.894
 5547POPC   C4B70894  22.494  19.018   7.283
 5548POPC   NC370895  19.699   2.704   5.363
 5548POPC   PO470896  20.171   3.112   5.521
 5548POPC   GL170897  19.965   2.869   5.813
 5548POPC   GL270898  19.940   2.503   5.792
 5548POPC   C1A70899  19.863   2.743   6.234
 5548POPC   D2A70900  20.059   2.983   6.572
 5548POPC   C3A70901  19.845   3.008   6.942
 5548POPC   C4A70902  20.023   2.860   7.296
 5548POPC   C1B70903  19.965   2.221   6.136
 5548POPC   C2B70904  19.811   2.194   6.559
 5548POPC   C3B70905  19.833   2.506   6.887
 5548POPC   C4B70906  19.617   2.524   7.300
 5549POPC   NC370907  21.680  22.355   5.375
 5549POPC   PO470908  21.174  21.995   5.187
 5549POPC   GL170909  21.242  22.053   5.627
 5549POPC   GL270910  21.598  22.035   5.752
 5549POPC   C1A70911  21.235  22.316   6.007
 5549POPC   D2A70912  21.512  22.268   6.358
 5549POPC   C3A70913  21.394  22.164   6.748
 5549POPC   C4A70914  21.400  22.427   7.068
 5549POPC   C1B70915  21.800  21.869   6.120
 5549POPC   C2B70916  21.926  22.001   6.561
 5549POPC   C3B70917  21.845  22.135   6.988
 5549POPC   C4B70918  21.609  22.042   7.319
 5550POPC   NC370919  17.778   7.198   5.305
 5550POPC   PO470920  17.609   6.656   5.171
 5550POPC   GL170921  17.672   6.648   5.660
 5550POPC   GL270922  18.020   6.678   5.742
 5550POPC   C1A70923  17.651   6.529   6.151
 5550POPC   D2A70924  17.756   6.560   6.648
 5550POPC   C3A70925  17.659   6.378   7.100
 5550POPC   C4A70926  17.556   6.135   7.508
 5550POPC   C1B70927  18.093   6.779   6.207
 5550POPC   C2B70928  18.174   6.841   6.683
 5550POPC   C3B70929  17.934   6.833   7.108
 5550POPC   C4B70930  17.766   7.025   7.501
 5551POPC   NC370931  23.497  43.912   5.296
 5551POPC   PO470932  23.767  43.459   5.479
 5551POPC   GL170933  23.529  43.701   5.836
 5551POPC   GL270934  23.335  44.029   5.741
 5551POPC   C1A70935  23.582  43.765   6.329
 5551POPC   D2A70936  23.423  43.841   6.784
 5551POPC   C3A70937  23.721  43.927   7.135
 5551POPC   C4A70938  23.772  43.915   7.596
 5551POPC   C1B70939  23.300  44.131   6.133
 5551POPC   C2B70940  23.265  44.287   6.549
 5551POPC   C3B70941  23.428  44.321   6.969
 5551POPC   C4B70942  23.330  44.146   7.368
 5552POPC   NC370943  33.174  36.265   5.523
 5552POPC   PO470944  32.759  35.739   5.423
 5552POPC   GL170945  32.932  35.878   5.817
 5552POPC   GL270946  32.755  36.196   5.922
 5552POPC   C1A70947  33.142  36.037   6.212
 5552POPC   D2A70948  33.432  36.240   6.533
 5552POPC   C3A70949  33.330  36.150   6.994
 5552POPC   C4A70950  33.199  36.087   7.454
 5552POPC   C1B70951  32.571  36.146   6.343
 5552POPC   C2B70952  32.564  36.011   6.796
 5552POPC   C3B70953  32.784  36.172   7.162
 5552POPC   C4B70954  33.065  36.535   7.241
 5553POPC   NC370955  42.537  21.151   5.348
 5553POPC   PO470956  42.773  21.800   5.465
 5553POPC   GL170957  42.477  21.493   5.745
 5553POPC   GL270958  42.299  21.161   5.796
 5553POPC   C1A70959  42.582  21.336   6.186
 5553POPC   D2A70960  42.759  21.616   6.512
 5553POPC   C3A70961  42.705  21.411   6.923
 5553POPC   C4A70962  42.323  21.292   7.182
 5553POPC   C1B70963  41.960  21.020   6.062
 5553POPC   C2B70964  41.928  21.088   6.486
 5553POPC   C3B70965  41.927  21.196   6.893
 5553POPC   C4B70966  41.858  20.913   7.221
 5554POPC   NC370967   0.079  10.851   5.411
 5554POPC   PO470968   0.209  11.473   5.463
 5554POPC   GL170969   0.370  11.395   5.871
 5554POPC   GL270970   0.317  11.086   5.828
 5554POPC   C1A70971   0.561  11.235   6.273
 5554POPC   D2A70972   0.775  11.130   6.652
 5554POPC   C3A70973   0.525  11.245   7.001
 5554POPC   C4A70974   0.674  11.356   7.386
 5554POPC   C1B70975   0.085  11.090   6.222
 5554POPC   C2B70976   0.249  11.007   6.621
 5554POPC   C3B70977   0.066  10.991   7.038
 5554POPC   C4B70978   0.197  11.150   7.430
 5555POPC   NC370979   4.540  22.344   5.341
 5555POPC   PO470980   3.930  22.163   5.467
 5555POPC   GL170981   4.209  22.230   5.820
 5555POPC   GL270982   4.581  22.257   5.870
 5555POPC   C1A70983   4.242  22.015   6.209
 5555POPC   D2A70984   4.201  22.113   6.631
 5555POPC   C3A70985   4.447  21.954   6.968
 5555POPC   C4A70986   4.125  22.037   7.236
 5555POPC   C1B70987   4.598  22.353   6.337
 5555POPC   C2B70988   4.537  22.462   6.800
 5555POPC   C3B70989   4.478  22.438   7.266
 5555POPC   C4B70990   4.739  22.430   7.629
 5556POPC   NC370991   4.394  26.839   5.549
 5556POPC   PO470992   3.812  26.896   5.529
 5556POPC   GL170993   4.074  27.087   5.916
 5556POPC   GL270994   4.307  26.858   6.048
 5556POPC   C1A70995   4.137  27.134   6.428
 5556POPC   D2A70996   3.963  26.906   6.847
 5556POPC   C3A70997   4.121  26.863   7.293
 5556POPC   C4A70998   4.368  26.981   7.660
 5556POPC   C1B70999   3.969  26.652   6.298
 5556POPC   C2B71000   3.890  26.420   6.712
 5556POPC   C3B71001   4.229  26.423   7.067
 5556POPC   C4B71002   4.604  26.698   7.246
 5557POPC   NC371003  21.061  35.279   5.414
 5557POPC   PO471004  21.456  35.749   5.444
 5557POPC   GL171005  21.270  35.508   5.809
 5557POPC   GL271006  21.373  35.127   5.793
 5557POPC   C1A71007  21.388  35.490   6.223
 5557POPC   D2A71008  21.578  35.720   6.565
 5557POPC   C3A71009  21.448  35.545   6.939
 5557POPC   C4A71010  21.610  35.625   7.340
 5557POPC   C1B71011  21.265  34.964   6.192
 5557POPC   C2B71012  21.274  35.113   6.587
 5557POPC   C3B71013  21.430  34.973   6.942
 5557POPC   C4B71014  21.417  35.166   7.308
 5558POPC   NC371015  36.921  17.389   5.268
 5558POPC   PO471016  36.811  16.775   5.400
 5558POPC   GL171017  36.851  16.831   5.844
 5558POPC   GL271018  36.643  17.113   5.855
 5558POPC   C1A71019  36.935  16.703   6.286
 5558POPC   D2A71020  36.681  16.715   6.653
 5558POPC   C3A71021  36.971  16.684   6.992
 5558POPC   C4A71022  37.254  16.397   7.100
 5558POPC   C1B71023  36.571  17.052   6.256
 5558POPC   C2B71024  36.656  17.245   6.618
 5558POPC   C3B71025  36.674  17.090   7.035
 5558POPC   C4B71026  36.592  17.030   7.503
 5559POPC   NC371027  41.958   8.135   5.373
 5559POPC   PO471028  41.278   8.394   5.336
 5559POPC   GL171029  41.529   8.196   5.666
 5559POPC   GL271030  41.443   7.889   5.586
 5559POPC   C1A71031  41.801   8.149   6.036
 5559POPC   D2A71032  41.959   8.120   6.467
 5559POPC   C3A71033  41.711   8.337   6.773
 5559POPC   C4A71034  41.669   8.191   7.182
 5559POPC   C1B71035  41.355   7.915   6.040
 5559POPC   C2B71036  41.224   8.091   6.444
 5559POPC   C3B71037  41.300   7.987   6.860
 5559POPC   C4B71038  41.191   8.048   7.267
 5560POPC   NC371039   8.369  11.709   5.150
 5560POPC   PO471040   8.018  11.155   5.336
 5560POPC   GL171041   8.131  11.307   5.758
 5560POPC   GL271042   8.080  10.955   5.907
 5560POPC   C1A71043   8.387  11.259   6.147
 5560POPC   D2A71044   8.476  11.378   6.536
 5560POPC   C3A71045   8.501  11.115   6.869
 5560POPC   C4A71046   8.488  11.258   7.246
 5560POPC   C1B71047   7.877  11.221   6.205
 5560POPC   C2B71048   7.936  11.532   6.523
 5560POPC   C3B71049   8.133  11.510   6.910
 5560POPC   C4B71050   7.998  11.331   7.271
 5561POPC   NC371051  20.972   6.234   5.402
 5561POPC   PO471052  20.548   6.786   5.532
 5561POPC   GL171053  20.809   6.805   5.851
 5561POPC   GL271054  20.948   6.470   5.858
 5561POPC   C1A71055  20.779   6.866   6.264
 5561POPC   D2A71056  20.548   6.641   6.544
 5561POPC   C3A71057  20.584   6.850   6.897
 5561POPC   C4A71058  20.649   6.730   7.269
 5561POPC   C1B71059  20.813   6.340   6.202
 5561POPC   C2B71060  20.930   6.191   6.586
 5561POPC   C3B71061  20.810   6.364   6.936
 5561POPC   C4B71062  20.981   6.346   7.321
 5562POPC   NC371063  27.398  14.295   5.471
 5562POPC   PO471064  27.879  14.053   5.801
 5562POPC   GL171065  27.549  14.287   5.954
 5562POPC   GL271066  27.686  14.622   5.920
 5562POPC   C1A71067  27.540  14.305   6.371
 5562POPC   D2A71068  27.864  14.387   6.641
 5562POPC   C3A71069  27.742  14.350   7.067
 5562POPC   C4A71070  27.729  14.399   7.528
 5562POPC   C1B71071  27.426  14.780   6.266
 5562POPC   C2B71072  27.425  14.661   6.732
 5562POPC   C3B71073  27.535  14.808   7.144
 5562POPC   C4B71074  27.398  14.761   7.606
 5563POPC   NC371075  11.612  21.740   5.390
 5563POPC   PO471076  10.985  21.539   5.064
 5563POPC   GL171077  11.213  21.388   5.557
 5563POPC   GL271078  11.214  21.048   5.820
 5563POPC   C1A71079  11.394  21.447   6.049
 5563POPC   D2A71080  11.484  21.530   6.519
 5563POPC   C3A71081  11.570  21.363   6.923
 5563POPC   C4A71082  11.780  21.570   7.235
 5563POPC   C1B71083  11.023  21.079   6.253
 5563POPC   C2B71084  11.104  21.213   6.683
 5563POPC   C3B71085  11.138  21.167   7.131
 5563POPC   C4B71086  10.909  21.210   7.515
 5564POPC   NC371087  31.471  25.668   5.395
 5564POPC   PO471088  31.679  24.965   5.282
 5564POPC   GL171089  31.592  24.979   5.700
 5564POPC   GL271090  31.340  25.233   5.735
 5564POPC   C1A71091  31.479  24.884   6.118
 5564POPC   D2A71092  31.349  25.018   6.494
 5564POPC   C3A71093  31.444  24.888   6.903
 5564POPC   C4A71094  31.379  25.174   7.217
 5564POPC   C1B71095  31.206  25.382   6.174
 5564POPC   C2B71096  31.092  25.592   6.565
 5564POPC   C3B71097  31.279  25.629   6.986
 5564POPC   C4B71098  31.615  25.801   7.225
 5565POPC   NC371099  32.744  34.123   5.540
 5565POPC   PO471100  33.163  33.567   5.401
 5565POPC   GL171101  33.111  33.818   5.744
 5565POPC   GL271102  32.794  33.722   5.858
 5565POPC   C1A71103  33.144  33.978   6.158
 5565POPC   D2A71104  33.283  33.788   6.554
 5565POPC   C3A71105  33.013  33.762   6.906
 5565POPC   C4A71106  33.208  33.875   7.273
 5565POPC   C1B71107  32.668  33.758   6.271
 5565POPC   C2B71108  32.573  33.549   6.646
 5565POPC   C3B71109  32.518  33.663   7.092
 5565POPC   C4B71110  32.669  34.005   7.304
 5566POPC   NC371111  16.681  23.341   5.739
 5566POPC   PO471112  16.827  22.759   5.436
 5566POPC   GL171113  16.723  22.827   5.854
 5566POPC   GL271114  16.384  22.938   5.836
 5566POPC   C1A71115  16.808  22.980   6.270
 5566POPC   D2A71116  16.788  23.228   6.637
 5566POPC   C3A71117  16.984  23.015   6.988
 5566POPC   C4A71118  16.797  22.731   7.298
 5566POPC   C1B71119  16.279  23.122   6.197
 5566POPC   C2B71120  16.358  22.912   6.536
 5566POPC   C3B71121  16.524  22.799   6.878
 5566POPC   C4B71122  16.303  22.991   7.210
 5567POPC   NC371123  44.771   6.274   4.692
 5567POPC   PO471124  44.587   6.489   5.362
 5567POPC   GL171125  44.574   6.624   5.804
 5567POPC   GL271126  44.914   6.508   5.897
 5567POPC   C1A71127  44.441   6.564   6.247
 5567POPC   D2A71128  44.301   6.427   6.667
 5567POPC   C3A71129  44.542   6.587   6.992
 5567POPC   C4A71130  44.645   6.513   7.423
 5567POPC   C1B71131  44.926   6.729   6.270
 5567POPC   C2B71132  44.780   6.947   6.660
 5567POPC   C3B71133   0.059   7.025   7.033
 5567POPC   C4B71134   0.021   6.838   7.470
 5568POPC   NC371135  37.193  36.370   5.305
 5568POPC   PO471136  36.732  35.857   5.394
 5568POPC   GL171137  36.822  36.203   5.733
 5568POPC   GL271138  37.046  36.476   5.834
 5568POPC   C1A71139  36.650  36.390   6.152
 5568POPC   D2A71140  36.677  36.183   6.567
 5568POPC   C3A71141  36.615  36.371   6.969
 5568POPC   C4A71142  36.741  36.277   7.409
 5568POPC   C1B71143  37.131  36.289   6.297
 5568POPC   C2B71144  37.160  36.170   6.758
 5568POPC   C3B71145  36.926  35.941   7.063
 5568POPC   C4B71146  36.969  35.836   7.504
 5569POPC   NC371147   0.522  42.979   5.348
 5569POPC   PO471148   0.067  43.372   5.408
 5569POPC   GL171149   0.292  43.177   5.775
 5569POPC   GL271150   0.299  42.801   5.808
 5569POPC   C1A71151   0.482  43.312   6.184
 5569POPC   D2A71152   0.443  43.601   6.557
 5569POPC   C3A71153   0.571  43.402   6.938
 5569POPC   C4A71154   0.381  43.293   7.326
 5569POPC   C1B71155   0.582  42.798   6.196
 5569POPC   C2B71156   0.635  42.999   6.611
 5569POPC   C3B71157   0.388  42.923   6.974
 5569POPC   C4B71158   0.344  42.585   7.229
 5570POPC   NC371159  31.908  19.167   5.629
 5570POPC   PO471160  32.045  18.649   5.176
 5570POPC   GL171161  32.251  18.789   5.642
 5570POPC   GL271162  32.368  19.191   5.801
 5570POPC   C1A71163  32.336  18.786   6.098
 5570POPC   D2A71164  31.967  18.825   6.399
 5570POPC   C3A71165  31.991  18.841   6.839
 5570POPC   C4A71166  32.298  18.774   7.160
 5570POPC   C1B71167  32.191  19.260   6.219
 5570POPC   C2B71168  32.045  19.319   6.617
 5570POPC   C3B71169  32.163  19.302   7.043
 5570POPC   C4B71170  31.925  19.487   7.363
 5571POPC   NC371171  32.990  20.440   5.504
 5571POPC   PO471172  32.927  21.081   5.538
 5571POPC   GL171173  33.180  20.868   5.859
 5571POPC   GL271174  33.397  20.577   5.790
 5571POPC   C1A71175  32.965  20.662   6.206
 5571POPC   D2A71176  32.668  20.569   6.530
 5571POPC   C3A71177  32.795  20.707   6.923
 5571POPC   C4A71178  32.827  20.542   7.333
 5571POPC   C1B71179  33.440  20.481   6.229
 5571POPC   C2B71180  33.267  20.605   6.645
 5571POPC   C3B71181  33.252  20.540   7.078
 5571POPC   C4B71182  33.171  20.135   7.243
 5572POPC   NC371183  39.495  37.053   5.420
 5572POPC   PO471184  38.894  36.685   5.609
 5572POPC   GL171185  39.194  36.964   5.874
 5572POPC   GL271186  39.558  36.921   5.908
 5572POPC   C1A71187  39.211  36.954   6.339
 5572POPC   D2A71188  38.928  37.102   6.652
 5572POPC   C3A71189  39.030  37.081   7.061
 5572POPC   C4A71190  38.989  36.691   7.264
 5572POPC   C1B71191  39.661  36.698   6.282
 5572POPC   C2B71192  39.613  36.830   6.708
 5572POPC   C3B71193  39.453  36.805   7.111
 5572POPC   C4B71194  39.530  36.980   7.511
 5573POPC   NC371195   4.117  29.017   5.174
 5573POPC   PO471196   4.474  29.367   5.549
 5573POPC   GL171197   4.302  29.245   5.853
 5573POPC   GL271198   4.071  29.000   5.736
 5573POPC   C1A71199   4.495  29.132   6.218
 5573POPC   D2A71200   4.327  29.262   6.569
 5573POPC   C3A71201   4.600  29.261   6.900
 5573POPC   C4A71202   4.659  29.173   7.312
 5573POPC   C1B71203   3.957  29.093   6.189
 5573POPC   C2B71204   3.915  28.960   6.620
 5573POPC   C3B71205   4.104  29.119   7.025
 5573POPC   C4B71206   3.953  28.881   7.369
 5574POPC   NC371207  19.298  31.984   5.480
 5574POPC   PO471208  19.274  32.633   5.371
 5574POPC   GL171209  19.181  32.477   5.812
 5574POPC   GL271210  19.075  32.134   5.951
 5574POPC   C1A71211  19.019  32.588   6.248
 5574POPC   D2A71212  19.215  32.597   6.647
 5574POPC   C3A71213  19.123  32.337   6.993
 5574POPC   C4A71214  19.217  32.315   7.417
 5574POPC   C1B71215  19.130  32.107   6.424
 5574POPC   C2B71216  18.978  31.879   6.786
 5574POPC   C3B71217  18.992  31.864   7.230
 5574POPC   C4B71218  19.108  31.846   7.636
 5575POPC   NC371219  41.902  20.115   5.233
 5575POPC   PO471220  41.540  19.583   5.126
 5575POPC   GL171221  41.742  19.693   5.568
 5575POPC   GL271222  41.692  20.036   5.706
 5575POPC   C1A71223  41.656  19.658   6.048
 5575POPC   D2A71224  41.585  19.800   6.472
 5575POPC   C3A71225  41.701  19.536   6.821
 5575POPC   C4A71226  41.598  19.575   7.254
 5575POPC   C1B71227  41.476  20.178   6.103
 5575POPC   C2B71228  41.372  20.257   6.551
 5575POPC   C3B71229  41.443  19.992   6.923
 5575POPC   C4B71230  41.178  19.952   7.242
 5576POPC   NC371231  37.328   8.561   5.697
 5576POPC   PO471232  36.929   8.085   5.295
 5576POPC   GL171233  36.931   8.198   5.729
 5576POPC   GL271234  36.943   7.881   5.843
 5576POPC   C1A71235  36.805   8.457   6.100
 5576POPC   D2A71236  36.610   8.479   6.527
 5576POPC   C3A71237  36.812   8.415   6.944
 5576POPC   C4A71238  36.734   8.164   7.349
 5576POPC   C1B71239  37.051   7.998   6.290
 5576POPC   C2B71240  36.996   7.973   6.761
 5576POPC   C3B71241  37.103   7.867   7.194
 5576POPC   C4B71242  37.050   7.963   7.695
 5577POPC   NC371243  38.607  39.371   5.484
 5577POPC   PO471244  38.061  38.960   5.512
 5577POPC   GL171245  38.083  39.157   5.921
 5577POPC   GL271246  38.257  39.464   5.882
 5577POPC   C1A71247  38.271  39.128   6.351
 5577POPC   D2A71248  38.579  38.812   6.555
 5577POPC   C3A71249  38.679  38.928   6.965
 5577POPC   C4A71250  38.891  39.260   7.156
 5577POPC   C1B71251  38.567  39.532   6.235
 5577POPC   C2B71252  38.668  39.396   6.673
 5577POPC   C3B71253  38.404  39.350   7.029
 5577POPC   C4B71254  38.270  39.544   7.418
 5578POPC   NC371255  11.731   5.515   5.430
 5578POPC   PO471256  12.225   5.073   5.425
 5578POPC   GL171257  11.964   5.142   5.814
 5578POPC   GL271258  11.620   5.120   5.773
 5578POPC   C1A71259  11.942   4.971   6.266
 5578POPC   D2A71260  12.063   4.909   6.728
 5578POPC   C3A71261  12.020   5.213   7.102
 5578POPC   C4A71262  11.789   5.090   7.504
 5578POPC   C1B71263  11.504   5.208   6.223
 5578POPC   C2B71264  11.730   5.320   6.651
 5578POPC   C3B71265  11.626   5.547   7.070
 5578POPC   C4B71266  11.708   5.582   7.546
 5579POPC   NC371267  26.657  33.783   5.486
 5579POPC   PO471268  26.987  34.363   5.415
 5579POPC   GL171269  26.976  34.083   5.797
 5579POPC   GL271270  26.633  34.080   5.885
 5579POPC   C1A71271  26.956  33.769   6.158
 5579POPC   D2A71272  26.856  33.518   6.498
 5579POPC   C3A71273  27.047  33.585   6.893
 5579POPC   C4A71274  26.850  33.522   7.265
 5579POPC   C1B71275  26.706  34.201   6.278
 5579POPC   C2B71276  26.715  33.983   6.682
 5579POPC   C3B71277  26.744  34.014   7.162
 5579POPC   C4B71278  26.968  34.310   7.373
 5580POPC   NC371279  30.438  36.968   5.628
 5580POPC   PO471280  29.952  36.786   5.207
 5580POPC   GL171281  29.941  36.827   5.709
 5580POPC   GL271282  29.742  36.543   5.842
 5580POPC   C1A71283  30.010  37.031   6.144
 5580POPC   D2A71284  29.936  37.220   6.578
 5580POPC   C3A71285  30.050  37.030   6.981
 5580POPC   C4A71286  29.861  37.079   7.401
 5580POPC   C1B71287  29.629  36.688   6.291
 5580POPC   C2B71288  29.665  36.792   6.754
 5580POPC   C3B71289  29.538  36.708   7.209
 5580POPC   C4B71290  29.599  36.745   7.701
 5581POPC   NC371291  41.441  42.129   5.326
 5581POPC   PO471292  42.049  42.491   5.398
 5581POPC   GL171293  41.791  42.249   5.721
 5581POPC   GL271294  41.511  42.455   5.720
 5581POPC   C1A71295  41.607  42.119   6.155
 5581POPC   D2A71296  41.479  42.348   6.546
 5581POPC   C3A71297  41.536  42.225   6.972
 5581POPC   C4A71298  41.332  42.334   7.409
 5581POPC   C1B71299  41.661  42.629   6.094
 5581POPC   C2B71300  41.944  42.567   6.427
 5581POPC   C3B71301  41.991  42.536   6.869
 5581POPC   C4B71302  41.764  42.567   7.255
 5582POPC   NC371303   1.461  43.296   5.482
 5582POPC   PO471304   0.961  42.926   5.456
 5582POPC   GL171305   0.959  42.960   5.885
 5582POPC   GL271306   1.304  43.078   5.904
 5582POPC   C1A71307   0.997  43.167   6.288
 5582POPC   D2A71308   0.935  43.473   6.576
 5582POPC   C3A71309   1.099  43.348   6.958
 5582POPC   C4A71310   0.968  42.996   7.173
 5582POPC   C1B71311   1.612  43.095   6.224
 5582POPC   C2B71312   1.611  42.878   6.634
 5582POPC   C3B71313   1.476  42.996   7.044
 5582POPC   C4B71314   1.628  43.407   7.167
 5583POPC   NC371315  10.257  20.764   5.619
 5583POPC   PO471316   9.680  20.360   5.431
 5583POPC   GL171317   9.782  20.584   5.807
 5583POPC   GL271318   9.532  20.840   5.868
 5583POPC   C1A71319   9.629  20.468   6.219
 5583POPC   D2A71320   9.387  20.617   6.540
 5583POPC   C3A71321   9.553  20.467   6.887
 5583POPC   C4A71322   9.817  20.447   7.196
 5583POPC   C1B71323   9.851  20.957   6.201
 5583POPC   C2B71324   9.823  20.910   6.665
 5583POPC   C3B71325   9.624  20.936   7.087
 5583POPC   C4B71326   9.638  20.803   7.531
 5584POPC   NC371327  22.574  14.472   5.344
 5584POPC   PO471328  22.782  13.828   5.270
 5584POPC   GL171329  22.726  14.084   5.665
 5584POPC   GL271330  22.957  14.386   5.690
 5584POPC   C1A71331  22.714  14.238   6.128
 5584POPC   D2A71332  22.827  14.502   6.514
 5584POPC   C3A71333  23.028  14.295   6.859
 5584POPC   C4A71334  22.911  14.161   7.262
 5584POPC   C1B71335  22.954  14.705   6.046
 5584POPC   C2B71336  23.131  14.915   6.433
 5584POPC   C3B71337  23.102  14.812   6.865
 5584POPC   C4B71338  22.854  14.658   7.206
 5585POPC   NC371339  41.130  15.053   5.314
 5585POPC   PO471340  41.789  15.165   5.127
 5585POPC   GL171341  41.716  15.119   5.615
 5585POPC   GL271342  41.405  14.926   5.735
 5585POPC   C1A71343  41.842  15.006   6.076
 5585POPC   D2A71344  41.837  15.285   6.472
 5585POPC   C3A71345  41.748  15.208   6.943
 5585POPC   C4A71346  41.835  15.485   7.339
 5585POPC   C1B71347  41.354  15.128   6.148
 5585POPC   C2B71348  41.481  14.924   6.528
 5585POPC   C3B71349  41.323  14.894   6.917
 5585POPC   C4B71350  41.376  14.921   7.326
 5586POPC   NC371351   4.672  21.518   5.434
 5586POPC   PO471352   4.006  21.545   5.512
 5586POPC   GL171353   4.234  21.496   5.857
 5586POPC   GL271354   4.459  21.760   5.829
 5586POPC   C1A71355   4.345  21.241   6.188
 5586POPC   D2A71356   4.568  21.209   6.558
 5586POPC   C3A71357   4.442  21.394   6.914
 5586POPC   C4A71358   4.407  21.119   7.243
 5586POPC   C1B71359   4.618  21.666   6.251
 5586POPC   C2B71360   4.962  21.540   6.519
 5586POPC   C3B71361   4.925  21.688   6.942
 5586POPC   C4B71362   4.709  21.559   7.313
 5587POPC   NC371363   4.963  29.471   5.373
 5587POPC   PO471364   4.947  28.835   5.296
 5587POPC   GL171365   5.098  29.063   5.675
 5587POPC   GL271366   4.865  29.299   5.854
 5587POPC   C1A71367   5.140  28.978   6.129
 5587POPC   D2A71368   4.951  29.024   6.548
 5587POPC   C3A71369   5.241  28.930   6.893
 5587POPC   C4A71370   5.133  28.972   7.311
 5587POPC   C1B71371   4.968  29.473   6.262
 5587POPC   C2B71372   4.964  29.567   6.723
 5587POPC   C3B71373   5.043  29.469   7.171
 5587POPC   C4B71374   5.232  29.396   7.599
 5588POPC   NC371375  43.783   2.126   5.448
 5588POPC   PO471376  43.706   1.442   5.589
 5588POPC   GL171377  43.975   1.795   5.833
 5588POPC   GL271378  44.080   2.200   5.871
 5588POPC   C1A71379  44.072   1.882   6.265
 5588POPC   D2A71380  43.854   1.966   6.629
 5588POPC   C3A71381  44.060   1.911   7.004
 5588POPC   C4A71382  43.767   1.678   7.255
 5588POPC   C1B71383  43.704   2.265   6.206
 5588POPC   C2B71384  43.509   2.360   6.659
 5588POPC   C3B71385  43.680   2.309   7.109
 5588POPC   C4B71386  44.128   2.339   7.290
 5589POPC   NC371387   3.414  10.968   5.235
 5589POPC   PO471388   3.199  10.458   5.610
 5589POPC   GL171389   3.377  10.410   5.981
 5589POPC   GL271390   3.719  10.493   5.862
 5589POPC   C1A71391   3.382  10.676   6.335
 5589POPC   D2A71392   3.544  10.846   6.715
 5589POPC   C3A71393   3.335  10.611   6.996
 5589POPC   C4A71394   3.117  10.261   7.026
 5589POPC   C1B71395   3.814  10.400   6.263
 5589POPC   C2B71396   3.984  10.526   6.629
 5589POPC   C3B71397   3.851  10.552   7.027
 5589POPC   C4B71398   3.892  10.339   7.374
 5590POPC   NC371399   1.017  12.319   5.472
 5590POPC   PO471400   1.191  11.662   5.495
 5590POPC   GL171401   0.900  11.917   5.812
 5590POPC   GL271402   1.108  12.183   5.952
 5590POPC   C1A71403   0.824  11.960   6.294
 5590POPC   D2A71404   1.078  12.123   6.654
 5590POPC   C3A71405   0.959  12.068   7.098
 5590POPC   C4A71406   1.112  12.213   7.510
 5590POPC   C1B71407   1.340  12.391   6.283
 5590POPC   C2B71408   1.402  12.534   6.716
 5590POPC   C3B71409   1.432  12.394   7.146
 5590POPC   C4B71410   1.490  12.571   7.572
 5591POPC   NC371411  24.213  33.926   5.364
 5591POPC   PO471412  24.715  33.447   5.568
 5591POPC   GL171413  24.736  33.746   5.868
 5591POPC   GL271414  24.392  33.775   5.834
 5591POPC   C1A71415  24.727  33.954   6.278
 5591POPC   D2A71416  24.733  34.149   6.690
 5591POPC   C3A71417  24.653  33.821   6.990
 5591POPC   C4A71418  24.584  33.664   7.371
 5591POPC   C1B71419  24.186  34.061   6.075
 5591POPC   C2B71420  24.259  34.042   6.494
 5591POPC   C3B71421  24.249  34.119   6.906
 5591POPC   C4B71422  24.184  34.042   7.322
 5592POPC   NC371423  33.227  25.202   5.266
 5592POPC   PO471424  32.676  25.437   5.553
 5592POPC   GL171425  33.064  25.327   5.783
 5592POPC   GL271426  33.226  24.999   5.748
 5592POPC   C1A71427  33.042  25.203   6.216
 5592POPC   D2A71428  32.861  25.116   6.631
 5592POPC   C3A71429  33.165  25.330   6.858
 5592POPC   C4A71430  33.153  25.581   7.224
 5592POPC   C1B71431  33.330  24.773   6.118
 5592POPC   C2B71432  33.327  24.919   6.537
 5592POPC   C3B71433  33.292  24.813   6.955
 5592POPC   C4B71434  33.241  25.084   7.287
 5593POPC   NC371435  10.953  12.127   5.545
 5593POPC   PO471436  10.375  11.924   5.225
 5593POPC   GL171437  10.478  11.820   5.705
 5593POPC   GL271438  10.719  11.932   5.936
 5593POPC   C1A71439  10.331  11.687   6.137
 5593POPC   D2A71440  10.398  11.750   6.597
 5593POPC   C3A71441  10.285  12.048   6.960
 5593POPC   C4A71442  10.669  12.219   7.213
 5593POPC   C1B71443  10.615  12.139   6.305
 5593POPC   C2B71444  10.600  12.314   6.691
 5593POPC   C3B71445  10.368  12.553   6.992
 5593POPC   C4B71446  10.189  12.372   7.366
 5594POPC   NC371447  36.336  40.235   5.410
 5594POPC   PO471448  35.931  39.746   5.511
 5594POPC   GL171449  36.110  39.966   5.869
 5594POPC   GL271450  36.254  40.310   5.892
 5594POPC   C1A71451  36.049  39.911   6.300
 5594POPC   D2A71452  36.200  39.694   6.646
 5594POPC   C3A71453  35.991  39.894   6.953
 5594POPC   C4A71454  35.960  39.986   7.408
 5594POPC   C1B71455  36.268  40.426   6.305
 5594POPC   C2B71456  36.327  40.215   6.672
 5594POPC   C3B71457  36.275  40.283   7.099
 5594POPC   C4B71458  36.316  40.377   7.506
 5595POPC   NC371459  17.907   8.942   5.419
 5595POPC   PO471460  17.362   9.220   5.380
 5595POPC   GL171461  17.507   9.043   5.787
 5595POPC   GL271462  17.841   9.098   5.907
 5595POPC   C1A71463  17.497   8.960   6.257
 5595POPC   D2A71464  17.398   9.200   6.619
 5595POPC   C3A71465  17.424   9.019   7.029
 5595POPC   C4A71466  17.310   9.015   7.459
 5595POPC   C1B71467  18.012   8.937   6.296
 5595POPC   C2B71468  17.861   8.953   6.730
 5595POPC   C3B71469  17.921   8.733   7.142
 5595POPC   C4B71470  17.924   8.720   7.614
 5596POPC   NC371471  15.493  14.181   5.428
 5596POPC   PO471472  16.190  14.310   5.400
 5596POPC   GL171473  15.995  14.419   5.771
 5596POPC   GL271474  15.763  14.624   5.619
 5596POPC   C1A71475  16.087  14.389   6.239
 5596POPC   D2A71476  15.906  14.339   6.673
 5596POPC   C3A71477  16.111  14.367   7.076
 5596POPC   C4A71478  16.252  13.969   7.243
 5596POPC   C1B71479  15.698  14.695   6.068
 5596POPC   C2B71480  15.714  14.776   6.525
 5596POPC   C3B71481  15.618  14.653   6.996
 5596POPC   C4B71482  15.691  14.538   7.465
 5597POPC   NC371483  10.158   5.352   5.404
 5597POPC   PO471484  10.600   4.896   5.521
 5597POPC   GL171485  10.614   5.150   5.840
 5597POPC   GL271486  10.728   5.501   5.795
 5597POPC   C1A71487  10.678   4.995   6.226
 5597POPC   D2A71488  10.787   5.021   6.644
 5597POPC   C3A71489  10.434   5.003   6.897
 5597POPC   C4A71490  10.407   4.782   7.243
 5597POPC   C1B71491  10.395   5.519   6.099
 5597POPC   C2B71492  10.464   5.382   6.506
 5597POPC   C3B71493  10.629   5.502   6.897
 5597POPC   C4B71494  10.472   5.447   7.307
 5598POPC   NC371495  35.557  43.658   5.502
 5598POPC   PO471496  34.973  43.831   5.236
 5598POPC   GL171497  35.156  43.819   5.734
 5598POPC   GL271498  35.184  44.140   5.912
 5598POPC   C1A71499  35.442  43.777   6.151
 5598POPC   D2A71500  35.599  44.011   6.544
 5598POPC   C3A71501  35.436  43.916   6.934
 5598POPC   C4A71502  35.598  43.669   7.258
 5598POPC   C1B71503  35.442  44.371   6.215
 5598POPC   C2B71504  35.377  44.456   6.665
 5598POPC   C3B71505  35.441  44.396   7.113
 5598POPC   C4B71506  35.283  44.065   7.399
 5599POPC   NC371507  14.732  14.289   5.397
 5599POPC   PO471508  15.328  14.615   5.366
 5599POPC   GL171509  15.279  14.494   5.800
 5599POPC   GL271510  15.047  14.237   5.819
 5599POPC   C1A71511  15.327  14.327   6.230
 5599POPC   D2A71512  15.273  14.487   6.625
 5599POPC   C3A71513  15.230  14.290   7.031
 5599POPC   C4A71514  15.210  14.579   7.359
 5599POPC   C1B71515  14.781  14.065   6.133
 5599POPC   C2B71516  14.896  14.080   6.564
 5599POPC   C3B71517  14.720  14.222   6.943
 5599POPC   C4B71518  14.826  13.996   7.307
 5600POPC   NC371519  30.179  15.835   5.402
 5600POPC   PO471520  29.615  16.265   5.451
 5600POPC   GL171521  29.863  16.109   5.738
 5600POPC   GL271522  29.760  15.771   5.824
 5600POPC   C1A71523  30.094  16.077   6.100
 5600POPC   D2A71524  29.976  15.715   6.396
 5600POPC   C3A71525  30.050  15.803   6.855
 5600POPC   C4A71526  30.235  16.161   7.044
 5600POPC   C1B71527  29.605  16.066   6.193
 5600POPC   C2B71528  29.815  16.216   6.575
 5600POPC   C3B71529  29.697  16.216   7.031
 5600POPC   C4B71530  29.625  16.019   7.415
 5601POPC   NC371531  38.720   2.504   5.162
 5601POPC   PO471532  38.743   2.912   5.707
 5601POPC   GL171533  38.483   2.598   5.883
 5601POPC   GL271534  38.725   2.474   6.098
 5601POPC   C1A71535  38.264   2.348   6.249
 5601POPC   D2A71536  38.050   2.384   6.650
 5601POPC   C3A71537  38.352   2.625   6.915
 5601POPC   C4A71538  38.465   2.574   7.344
 5601POPC   C1B71539  38.513   2.804   6.343
 5601POPC   C2B71540  38.481   3.116   6.621
 5601POPC   C3B71541  38.263   3.246   6.947
 5601POPC   C4B71542  38.414   3.070   7.275
 5602POPC   NC371543  31.930  16.723   5.353
 5602POPC   PO471544  32.410  17.029   5.673
 5602POPC   GL171545  32.264  16.649   5.883
 5602POPC   GL271546  31.919  16.544   5.863
 5602POPC   C1A71547  32.400  16.637   6.277
 5602POPC   D2A71548  32.504  16.791   6.669
 5602POPC   C3A71549  32.445  16.575   7.049
 5602POPC   C4A71550  32.502  16.943   7.269
 5602POPC   C1B71551  31.910  16.850   6.199
 5602POPC   C2B71552  31.984  16.869   6.644
 5602POPC   C3B71553  32.031  16.862   7.079
 5602POPC   C4B71554  31.989  16.545   7.418
 5603POPC   NC371555  42.885   4.556   5.543
 5603POPC   PO471556  43.156   3.964   5.305
 5603POPC   GL171557  43.184   4.152   5.708
 5603POPC   GL271558  42.881   4.047   5.772
 5603POPC   C1A71559  43.219   4.025   6.165
 5603POPC   D2A71560  42.972   4.023   6.570
 5603POPC   C3A71561  43.152   4.280   6.907
 5603POPC   C4A71562  43.163   4.728   7.030
 5603POPC   C1B71563  42.752   4.231   6.137
 5603POPC   C2B71564  42.665   4.522   6.440
 5603POPC   C3B71565  42.644   4.644   6.867
 5603POPC   C4B71566  42.731   4.347   7.197
 5604POPC   NC371567  32.753  15.060   5.365
 5604POPC   PO471568  33.323  14.895   5.630
 5604POPC   GL171569  32.901  15.080   5.853
 5604POPC   GL271570  32.603  15.346   5.764
 5604POPC   C1A71571  32.690  15.093   6.254
 5604POPC   D2A71572  32.769  14.999   6.683
 5604POPC   C3A71573  33.158  15.091   6.844
 5604POPC   C4A71574  33.178  15.054   7.263
 5604POPC   C1B71575  32.816  15.570   6.101
 5604POPC   C2B71576  32.909  15.544   6.557
 5604POPC   C3B71577  32.851  15.475   7.007
 5604POPC   C4B71578  33.287  15.533   7.161
 5605POPC   NC371579  34.218  37.783   5.287
 5605POPC   PO471580  34.844  37.743   5.408
 5605POPC   GL171581  34.485  37.651   5.735
 5605POPC   GL271582  34.130  37.462   5.705
 5605POPC   C1A71583  34.582  37.715   6.176
 5605POPC   D2A71584  34.852  37.727   6.552
 5605POPC   C3A71585  34.869  37.430   6.901
 5605POPC   C4A71586  34.657  37.415   7.309
 5605POPC   C1B71587  34.069  37.628   6.149
 5605POPC   C2B71588  34.276  37.751   6.569
 5605POPC   C3B71589  34.413  37.775   6.998
 5605POPC   C4B71590  34.117  37.566   7.284
 5606POPC   NC371591  41.574   8.678   5.560
 5606POPC   PO471592  41.702   9.353   5.541
 5606POPC   GL171593  41.470   9.245   5.927
 5606POPC   GL271594  41.342   8.892   5.958
 5606POPC   C1A71595  41.620   9.091   6.344
 5606POPC   D2A71596  41.487   8.794   6.654
 5606POPC   C3A71597  41.334   9.029   6.957
 5606POPC   C4A71598  41.624   9.207   7.222
 5606POPC   C1B71599  41.629   8.599   6.200
 5606POPC   C2B71600  41.993   8.683   6.451
 5606POPC   C3B71601  41.994   8.840   6.876
 5606POPC   C4B71602  41.739   8.693   7.202
 5607POPC   NC371603   9.460  41.287   5.368
 5607POPC   PO471604   9.568  42.001   5.428
 5607POPC   GL171605   9.161  41.750   5.661
 5607POPC   GL271606   9.049  41.429   5.850
 5607POPC   C1A71607   9.036  41.831   6.131
 5607POPC   D2A71608   9.068  41.514   6.476
 5607POPC   C3A71609   9.071  41.684   6.896
 5607POPC   C4A71610   9.168  41.548   7.289
 5607POPC   C1B71611   8.662  41.460   6.169
 5607POPC   C2B71612   8.604  41.288   6.606
 5607POPC   C3B71613   8.605  41.309   7.067
 5607POPC   C4B71614   8.607  41.201   7.484
 5608POPC   NC371615  22.826  38.634   5.355
 5608POPC   PO471616  23.222  38.052   5.331
 5608POPC   GL171617  22.998  38.249   5.694
 5608POPC   GL271618  22.612  38.296   5.724
 5608POPC   C1A71619  23.017  38.240   6.148
 5608POPC   D2A71620  22.947  38.523   6.499
 5608POPC   C3A71621  22.933  38.367   6.916
 5608POPC   C4A71622  22.916  38.552   7.337
 5608POPC   C1B71623  22.581  38.546   6.130
 5608POPC   C2B71624  22.465  38.517   6.611
 5608POPC   C3B71625  22.442  38.318   7.047
 5608POPC   C4B71626  22.440  38.516   7.466
 5609POPC   NC371627  35.069   9.044   5.479
 5609POPC   PO471628  35.684   9.066   5.195
 5609POPC   GL171629  35.547   8.919   5.604
 5609POPC   GL271630  35.518   9.243   5.757
 5609POPC   C1A71631  35.522   8.855   6.075
 5609POPC   D2A71632  35.559   9.065   6.477
 5609POPC   C3A71633  35.297   8.847   6.768
 5609POPC   C4A71634  35.253   8.880   7.191
 5609POPC   C1B71635  35.211   9.257   6.115
 5609POPC   C2B71636  35.130   9.333   6.579
 5609POPC   C3B71637  35.395   9.318   6.966
 5609POPC   C4B71638  35.076   9.370   7.278
 5610POPC   NC371639   5.876  17.796   5.411
 5610POPC   PO471640   6.019  17.185   5.622
 5610POPC   GL171641   6.001  17.555   5.859
 5610POPC   GL271642   5.661  17.741   5.865
 5610POPC   C1A71643   6.069  17.491   6.268
 5610POPC   D2A71644   6.121  17.186   6.523
 5610POPC   C3A71645   6.026  17.418   6.830
 5610POPC   C4A71646   6.219  17.483   7.179
 5610POPC   C1B71647   5.562  17.529   6.240
 5610POPC   C2B71648   5.494  17.564   6.665
 5610POPC   C3B71649   5.589  17.555   7.089
 5610POPC   C4B71650   5.797  17.211   7.240
 5611POPC   NC371651  25.126   1.763   5.553
 5611POPC   PO471652  25.116   2.408   5.538
 5611POPC   GL171653  24.999   2.176   5.881
 5611POPC   GL271654  24.705   1.959   5.843
 5611POPC   C1A71655  25.206   2.028   6.235
 5611POPC   D2A71656  25.259   1.770   6.591
 5611POPC   C3A71657  25.300   2.027   6.963
 5611POPC   C4A71658  25.125   2.016   7.352
 5611POPC   C1B71659  24.765   1.777   6.274
 5611POPC   C2B71660  24.781   1.651   6.728
 5611POPC   C3B71661  25.097   1.563   7.073
 5611POPC   C4B71662  25.068   1.543   7.555
 5612POPC   NC371663  33.140   9.333   5.300
 5612POPC   PO471664  32.552   9.226   5.434
 5612POPC   GL171665  32.908   9.089   5.729
 5612POPC   GL271666  33.265   9.067   5.846
 5612POPC   C1A71667  32.849   8.998   6.174
 5612POPC   D2A71668  32.483   9.010   6.441
 5612POPC   C3A71669  32.611   9.068   6.830
 5612POPC   C4A71670  32.873   9.002   7.156
 5612POPC   C1B71671  33.356   8.911   6.249
 5612POPC   C2B71672  33.152   8.937   6.657
 5612POPC   C3B71673  33.351   8.853   7.045
 5612POPC   C4B71674  33.251   8.845   7.447
 5613POPC   NC371675   3.819  28.213   5.109
 5613POPC   PO471676   3.206  28.466   5.315
 5613POPC   GL171677   3.473  28.442   5.701
 5613POPC   GL271678   3.424  28.128   5.873
 5613POPC   C1A71679   3.715  28.470   6.122
 5613POPC   D2A71680   3.636  28.153   6.463
 5613POPC   C3A71681   3.689  28.323   6.890
 5613POPC   C4A71682   3.596  28.448   7.317
 5613POPC   C1B71683   3.209  28.467   6.155
 5613POPC   C2B71684   3.322  28.566   6.573
 5613POPC   C3B71685   3.188  28.430   6.973
 5613POPC   C4B71686   3.083  28.684   7.308
 5614POPC   NC371687  39.113  37.868   5.410
 5614POPC   PO471688  38.892  37.204   5.275
 5614POPC   GL171689  39.066  37.467   5.749
 5614POPC   GL271690  39.237  37.814   5.881
 5614POPC   C1A71691  39.309  37.408   6.143
 5614POPC   D2A71692  39.220  37.519   6.572
 5614POPC   C3A71693  39.462  37.321   6.886
 5614POPC   C4A71694  39.381  37.410   7.295
 5614POPC   C1B71695  38.957  37.830   6.247
 5614POPC   C2B71696  38.964  37.981   6.665
 5614POPC   C3B71697  39.204  37.833   7.036
 5614POPC   C4B71698  39.436  38.102   7.339
 5615POPC   NC371699  39.682  10.764   5.603
 5615POPC   PO471700  39.375  10.218   5.334
 5615POPC   GL171701  39.320  10.104   5.801
 5615POPC   GL271702  39.327  10.450   5.946
 5615POPC   C1A71703  39.149  10.027   6.252
 5615POPC   D2A71704  39.159  10.244   6.657
 5615POPC   C3A71705  39.074  10.338   7.083
 5615POPC   C4A71706  39.448  10.220   7.272
 5615POPC   C1B71707  39.371  10.858   6.181
 5615POPC   C2B71708  39.118  11.049   6.486
 5615POPC   C3B71709  39.162  10.759   6.805
 5615POPC   C4B71710  39.447  10.717   7.161
 5616POPC   NC371711   9.951  16.249   5.121
 5616POPC   PO471712   9.417  15.868   5.328
 5616POPC   GL171713   9.554  15.764   5.787
 5616POPC   GL271714   9.495  16.108   5.986
 5616POPC   C1A71715   9.828  15.776   6.151
 5616POPC   D2A71716   9.682  16.036   6.488
 5616POPC   C3A71717   9.892  15.928   6.865
 5616POPC   C4A71718   9.621  15.786   7.158
 5616POPC   C1B71719   9.408  16.458   6.275
 5616POPC   C2B71720   9.372  16.392   6.723
 5616POPC   C3B71721   9.593  16.290   7.088
 5616POPC   C4B71722   9.446  16.163   7.507
 5617POPC   NC371723  40.423  12.720   5.473
 5617POPC   PO471724  40.961  13.155   5.498
 5617POPC   GL171725  40.739  12.973   5.800
 5617POPC   GL271726  40.789  12.621   5.831
 5617POPC   C1A71727  40.495  13.078   6.136
 5617POPC   D2A71728  40.380  13.143   6.542
 5617POPC   C3A71729  40.655  13.111   6.864
 5617POPC   C4A71730  40.509  12.856   7.220
 5617POPC   C1B71731  41.106  12.496   6.187
 5617POPC   C2B71732  41.125  12.673   6.602
 5617POPC   C3B71733  41.285  12.507   6.944
 5617POPC   C4B71734  41.464  12.628   7.270
 5618POPC   NC371735  26.165  28.548   5.386
 5618POPC   PO471736  25.688  28.103   5.450
 5618POPC   GL171737  25.801  28.380   5.794
 5618POPC   GL271738  25.906  28.720   5.784
 5618POPC   C1A71739  25.709  28.573   6.203
 5618POPC   D2A71740  25.701  28.754   6.576
 5618POPC   C3A71741  25.856  28.458   6.865
 5618POPC   C4A71742  25.670  28.430   7.250
 5618POPC   C1B71743  26.268  28.732   6.053
 5618POPC   C2B71744  26.457  28.712   6.476
 5618POPC   C3B71745  26.392  28.801   6.914
 5618POPC   C4B71746  26.146  28.635   7.264
 5619POPC   NC371747  32.259   8.856   5.413
 5619POPC   PO471748  32.802   8.490   5.551
 5619POPC   GL171749  32.528   8.738   5.833
 5619POPC   GL271750  32.401   9.092   5.896
 5619POPC   C1A71751  32.195   8.702   6.138
 5619POPC   D2A71752  32.193   8.549   6.562
 5619POPC   C3A71753  32.155   8.853   6.883
 5619POPC   C4A71754  32.377   8.915   7.256
 5619POPC   C1B71755  32.109   9.277   6.213
 5619POPC   C2B71756  31.989   9.281   6.645
 5619POPC   C3B71757  32.161   9.351   7.057
 5619POPC   C4B71758  32.071   9.288   7.494
 5620POPC   NC371759  44.369  20.584   5.411
 5620POPC   PO471760   0.042  20.776   5.337
 5620POPC   GL171761  44.821  20.628   5.680
 5620POPC   GL271762  44.653  20.969   5.677
 5620POPC   C1A71763  44.647  20.389   6.064
 5620POPC   D2A71764  44.475  20.574   6.461
 5620POPC   C3A71765  44.557  20.410   6.890
 5620POPC   C4A71766  44.799  20.492   7.273
 5620POPC   C1B71767  44.754  20.895   6.121
 5620POPC   C2B71768  44.884  20.900   6.550
 5620POPC   C3B71769  44.728  20.911   6.972
 5620POPC   C4B71770   0.019  20.960   7.285
 5621POPC   NC371771  43.281  44.095   5.124
 5621POPC   PO471772  43.846  43.959   5.394
 5621POPC   GL171773  43.829  43.823   5.784
 5621POPC   GL271774  43.500  43.832   5.886
 5621POPC   C1A71775  44.065  43.719   6.165
 5621POPC   D2A71776  43.923  43.768   6.591
 5621POPC   C3A71777  44.120  43.982   6.932
 5621POPC   C4A71778  43.912  43.990   7.318
 5621POPC   C1B71779  43.572  43.624   6.233
 5621POPC   C2B71780  43.640  43.349   6.571
 5621POPC   C3B71781  43.772  43.467   7.003
 5621POPC   C4B71782  43.679  43.556   7.446
 5622POPC   NC371783  38.073  37.833   5.304
 5622POPC   PO471784  37.455  37.472   5.443
 5622POPC   GL171785  37.506  37.631   5.843
 5622POPC   GL271786  37.708  37.336   5.966
 5622POPC   C1A71787  37.574  37.799   6.257
 5622POPC   D2A71788  37.384  37.756   6.669
 5622POPC   C3A71789  37.676  37.857   6.989
 5622POPC   C4A71790  37.888  37.801   7.374
 5622POPC   C1B71791  38.002  37.494   6.317
 5622POPC   C2B71792  38.063  37.478   6.792
 5622POPC   C3B71793  38.285  37.517   7.208
 5622POPC   C4B71794  38.131  37.437   7.638
 5623POPC   NC371795  33.922  36.481   5.478
 5623POPC   PO471796  33.515  35.865   5.471
 5623POPC   GL171797  33.727  35.830   5.851
 5623POPC   GL271798  34.075  35.943   5.805
 5623POPC   C1A71799  33.581  35.768   6.251
 5623POPC   D2A71800  33.699  35.823   6.649
 5623POPC   C3A71801  33.528  35.608   6.984
 5623POPC   C4A71802  33.611  35.821   7.336
 5623POPC   C1B71803  33.945  36.128   6.216
 5623POPC   C2B71804  33.948  36.302   6.622
 5623POPC   C3B71805  33.841  36.160   7.006
 5623POPC   C4B71806  34.035  36.111   7.373
 5624POPC   NC371807  22.759  40.925   5.485
 5624POPC   PO471808  23.285  40.528   5.283
 5624POPC   GL171809  22.994  40.553   5.730
 5624POPC   GL271810  23.116  40.803   5.940
 5624POPC   C1A71811  22.927  40.345   6.172
 5624POPC   D2A71812  23.108  40.545   6.562
 5624POPC   C3A71813  22.810  40.772   6.846
 5624POPC   C4A71814  22.757  40.698   7.276
 5624POPC   C1B71815  22.713  40.806   6.169
 5624POPC   C2B71816  22.475  40.994   6.494
 5624POPC   C3B71817  22.342  41.093   6.906
 5624POPC   C4B71818  22.456  41.091   7.334
 5625POPC   NC371819  34.605  13.602   5.309
 5625POPC   PO471820  34.009  13.542   5.355
 5625POPC   GL171821  34.334  13.725   5.734
 5625POPC   GL271822  34.696  13.577   5.860
 5625POPC   C1A71823  34.435  13.880   6.186
 5625POPC   D2A71824  34.552  13.709   6.583
 5625POPC   C3A71825  34.644  13.819   7.018
 5625POPC   C4A71826  34.459  13.606   7.402
 5625POPC   C1B71827  34.855  13.368   6.281
 5625POPC   C2B71828  34.936  13.418   6.737
 5625POPC   C3B71829  34.922  13.421   7.172
 5625POPC   C4B71830  34.895  13.419   7.616
 5626POPC   NC371831  31.010  17.717   5.281
 5626POPC   PO471832  31.650  17.608   5.386
 5626POPC   GL171833  31.533  17.756   5.782
 5626POPC   GL271834  31.185  17.713   5.793
 5626POPC   C1A71835  31.503  17.652   6.225
 5626POPC   D2A71836  31.294  17.607   6.649
 5626POPC   C3A71837  31.608  17.587   6.995
 5626POPC   C4A71838  31.781  17.265   7.264
 5626POPC   C1B71839  30.980  17.647   6.204
 5626POPC   C2B71840  30.747  17.521   6.579
 5626POPC   C3B71841  30.907  17.420   6.974
 5626POPC   C4B71842  31.146  17.692   7.202
 5627POPC   NC371843   5.458  22.096   5.651
 5627POPC   PO471844   4.898  21.937   5.355
 5627POPC   GL171845   4.985  21.843   5.790
 5627POPC   GL271846   5.287  21.651   5.802
 5627POPC   C1A71847   5.019  21.985   6.235
 5627POPC   D2A71848   4.945  22.153   6.659
 5627POPC   C3A71849   4.893  22.185   7.110
 5627POPC   C4A71850   5.175  22.360   7.408
 5627POPC   C1B71851   5.484  21.753   6.214
 5627POPC   C2B71852   5.366  21.840   6.629
 5627POPC   C3B71853   5.361  21.985   7.043
 5627POPC   C4B71854   5.149  21.853   7.412
 5628POPC   NC371855  22.904  16.227   5.404
 5628POPC   PO471856  23.025  15.566   5.502
 5628POPC   GL171857  22.859  15.875   5.774
 5628POPC   GL271858  23.147  16.113   5.843
 5628POPC   C1A71859  22.723  16.072   6.135
 5628POPC   D2A71860  22.810  15.927   6.522
 5628POPC   C3A71861  22.781  16.121   6.892
 5628POPC   C4A71862  22.903  15.840   7.220
 5628POPC   C1B71863  23.207  15.817   6.152
 5628POPC   C2B71864  23.452  15.768   6.495
 5628POPC   C3B71865  23.232  15.788   6.842
 5628POPC   C4B71866  23.390  15.651   7.210
 5629POPC   NC371867   9.277  22.644   5.406
 5629POPC   PO471868   8.849  22.107   5.278
 5629POPC   GL171869   9.076  22.057   5.683
 5629POPC   GL271870   8.968  21.708   5.782
 5629POPC   C1A71871   8.995  22.337   6.036
 5629POPC   D2A71872   8.812  22.265   6.461
 5629POPC   C3A71873   9.041  22.266   6.886
 5629POPC   C4A71874   8.861  22.332   7.301
 5629POPC   C1B71875   9.019  21.866   6.192
 5629POPC   C2B71876   9.161  21.872   6.593
 5629POPC   C3B71877   9.032  21.736   6.972
 5629POPC   C4B71878   9.165  21.932   7.300
 5630POPC   NC371879  33.514  24.244   5.242
 5630POPC   PO471880  34.085  24.599   5.416
 5630POPC   GL171881  33.928  24.439   5.809
 5630POPC   GL271882  33.582  24.390   5.742
 5630POPC   C1A71883  33.779  24.553   6.260
 5630POPC   D2A71884  33.802  24.815   6.645
 5630POPC   C3A71885  33.779  24.552   7.004
 5630POPC   C4A71886  33.981  24.128   7.031
 5630POPC   C1B71887  33.445  24.207   6.102
 5630POPC   C2B71888  33.605  24.079   6.480
 5630POPC   C3B71889  33.498  24.086   6.879
 5630POPC   C4B71890  33.341  24.348   7.170
 5631POPC   NC371891  42.246  21.854   5.394
 5631POPC   PO471892  42.575  22.466   5.337
 5631POPC   GL171893  42.265  22.286   5.695
 5631POPC   GL271894  42.378  21.982   5.852
 5631POPC   C1A71895  42.137  22.254   6.192
 5631POPC   D2A71896  42.235  22.034   6.609
 5631POPC   C3A71897  42.048  22.207   6.980
 5631POPC   C4A71898  42.257  22.238   7.363
 5631POPC   C1B71899  42.277  21.730   6.203
 5631POPC   C2B71900  42.279  21.522   6.638
 5631POPC   C3B71901  42.382  21.779   7.068
 5631POPC   C4B71902  42.341  21.645   7.547
 5632POPC   NC371903  25.829  16.031   5.544
 5632POPC   PO471904  26.470  16.049   5.305
 5632POPC   GL171905  26.338  15.803   5.696
 5632POPC   GL271906  26.233  16.099   5.856
 5632POPC   C1A71907  26.221  15.706   6.167
 5632POPC   D2A71908  26.358  15.881   6.570
 5632POPC   C3A71909  26.128  15.822   6.939
 5632POPC   C4A71910  26.056  15.778   7.368
 5632POPC   C1B71911  25.956  16.214   6.202
 5632POPC   C2B71912  25.988  16.252   6.645
 5632POPC   C3B71913  25.794  16.242   7.054
 5632POPC   C4B71914  26.026  16.274   7.438
 5633POPC   NC371915  36.186  31.057   5.343
 5633POPC   PO471916  36.108  30.419   5.360
 5633POPC   GL171917  36.360  30.568   5.673
 5633POPC   GL271918  36.427  30.294   5.876
 5633POPC   C1A71919  36.319  30.752   6.100
 5633POPC   D2A71920  36.132  30.750   6.522
 5633POPC   C3A71921  36.346  30.980   6.866
 5633POPC   C4A71922  36.195  31.056   7.300
 5633POPC   C1B71923  36.160  30.270   6.265
 5633POPC   C2B71924  36.202  30.272   6.714
 5633POPC   C3B71925  36.339  30.508   7.060
 5633POPC   C4B71926  36.278  30.619   7.539
 5634POPC   NC371927  41.678  28.921   5.552
 5634POPC   PO471928  41.112  29.303   5.462
 5634POPC   GL171929  41.182  28.929   5.783
 5634POPC   GL271930  41.509  28.817   6.006
 5634POPC   C1A71931  41.109  28.982   6.237
 5634POPC   D2A71932  41.195  29.223   6.608
 5634POPC   C3A71933  41.235  29.039   6.982
 5634POPC   C4A71934  41.555  29.171   7.242
 5634POPC   C1B71935  41.602  28.974   6.420
 5634POPC   C2B71936  41.745  28.829   6.819
 5634POPC   C3B71937  41.804  28.717   7.253
 5634POPC   C4B71938  41.758  28.967   7.665
 5635POPC   NC371939   2.385  27.779   5.345
 5635POPC   PO471940   3.075  27.500   5.433
 5635POPC   GL171941   2.909  27.667   5.780
 5635POPC   GL271942   2.572  27.550   5.796
 5635POPC   C1A71943   2.896  27.507   6.206
 5635POPC   D2A71944   2.738  27.357   6.572
 5635POPC   C3A71945   2.919  27.491   6.975
 5635POPC   C4A71946   2.846  27.660   7.405
 5635POPC   C1B71947   2.501  27.833   6.162
 5635POPC   C2B71948   2.563  27.830   6.636
 5635POPC   C3B71949   2.466  27.755   7.086
 5635POPC   C4B71950   2.454  28.016   7.482
 5636POPC   NC371951  25.397  35.469   5.461
 5636POPC   PO471952  24.832  35.812   5.462
 5636POPC   GL171953  25.015  35.555   5.831
 5636POPC   GL271954  25.359  35.644   5.943
 5636POPC   C1A71955  25.043  35.314   6.223
 5636POPC   D2A71956  25.384  35.332   6.530
 5636POPC   C3A71957  25.245  35.197   6.935
 5636POPC   C4A71958  25.532  35.096   7.245
 5636POPC   C1B71959  25.187  35.794   6.351
 5636POPC   C2B71960  25.166  35.723   6.781
 5636POPC   C3B71961  25.419  35.662   7.145
 5636POPC   C4B71962  25.044  35.517   7.307
 5637POPC   NC371963   4.542  32.678   5.506
 5637POPC   PO471964   4.156  32.202   5.474
 5637POPC   GL171965   4.328  32.127   5.833
 5637POPC   GL271966   4.644  32.251   5.789
 5637POPC   C1A71967   4.256  32.154   6.247
 5637POPC   D2A71968   4.036  32.006   6.580
 5637POPC   C3A71969   4.215  32.160   6.950
 5637POPC   C4A71970   4.048  32.242   7.371
 5637POPC   C1B71971   4.697  32.487   6.147
 5637POPC   C2B71972   4.603  32.377   6.553
 5637POPC   C3B71973   4.601  32.577   6.904
 5637POPC   C4B71974   4.570  32.353   7.259
 5638POPC   NC371975   2.912   5.273   5.457
 5638POPC   PO471976   2.731   4.661   5.398
 5638POPC   GL171977   2.662   4.833   5.804
 5638POPC   GL271978   2.469   5.125   5.706
 5638POPC   C1A71979   2.750   4.855   6.292
 5638POPC   D2A71980   2.618   4.877   6.754
 5638POPC   C3A71981   2.944   4.948   7.074
 5638POPC   C4A71982   2.981   4.961   7.527
 5638POPC   C1B71983   2.315   5.054   6.128
 5638POPC   C2B71984   2.320   5.279   6.549
 5638POPC   C3B71985   2.524   5.333   6.963
 5638POPC   C4B71986   2.493   5.077   7.315
 5639POPC   NC371987   5.567   8.494   5.661
 5639POPC   PO471988   5.672   7.988   5.299
 5639POPC   GL171989   5.919   8.125   5.701
 5639POPC   GL271990   6.115   7.856   5.743
 5639POPC   C1A71991   5.881   8.253   6.182
 5639POPC   D2A71992   5.654   8.170   6.564
 5639POPC   C3A71993   5.783   8.373   6.895
 5639POPC   C4A71994   5.762   8.195   7.313
 5639POPC   C1B71995   6.176   7.813   6.191
 5639POPC   C2B71996   6.166   7.973   6.611
 5639POPC   C3B71997   6.198   7.739   7.004
 5639POPC   C4B71998   6.087   7.841   7.420
 5640POPC   NC371999   1.397   6.039   4.970
 5640POPC   PO472000   1.446   5.801   5.600
 5640POPC   GL172001   1.217   5.765   5.957
 5640POPC   GL272002   0.901   5.551   5.852
 5640POPC   C1A72003   1.321   5.890   6.368
 5640POPC   D2A72004   1.424   6.261   6.628
 5640POPC   C3A72005   1.343   6.140   7.019
 5640POPC   C4A72006   1.448   5.715   7.127
 5640POPC   C1B72007   0.810   5.713   6.266
 5640POPC   C2B72008   0.869   6.034   6.589
 5640POPC   C3B72009   0.936   5.829   6.976
 5640POPC   C4B72010   1.064   5.933   7.380
 5641POPC   NC372011  12.215  10.456   5.164
 5641POPC   PO472012  11.744  10.839   5.439
 5641POPC   GL172013  12.035  10.597   5.731
 5641POPC   GL272014  11.978  10.232   5.834
 5641POPC   C1A72015  12.144  10.738   6.187
 5641POPC   D2A72016  12.378  10.519   6.529
 5641POPC   C3A72017  12.275  10.568   6.968
 5641POPC   C4A72018  12.472  10.230   7.226
 5641POPC   C1B72019  11.955  10.289   6.307
 5641POPC   C2B72020  11.864  10.579   6.652
 5641POPC   C3B72021  11.783  10.450   7.082
 5641POPC   C4B72022  11.521  10.242   7.366
 5642POPC   NC372023   1.119   0.616   5.354
 5642POPC   PO472024   1.639   0.342   5.497
 5642POPC   GL172025   1.389   0.508   5.813
 5642POPC   GL272026   1.165   0.237   5.756
 5642POPC   C1A72027   1.095   0.555   6.178
 5642POPC   D2A72028   1.140   0.730   6.618
 5642POPC   C3A72029   1.429   0.493   6.892
 5642POPC   C4A72030   1.519   0.609   7.311
 5642POPC   C1B72031   1.181   0.049   6.167
 5642POPC   C2B72032   0.876  44.999   6.518
 5642POPC   C3B72033   0.880   0.031   6.965
 5642POPC   C4B72034   1.204   0.191   7.233
 5643POPC   NC372035  20.500  11.878   5.395
 5643POPC   PO472036  20.722  12.407   5.520
 5643POPC   GL172037  20.427  12.295   5.839
 5643POPC   GL272038  20.396  11.924   5.918
 5643POPC   C1A72039  20.527  12.303   6.297
 5643POPC   D2A72040  20.753  12.458   6.683
 5643POPC   C3A72041  20.670  12.355   7.148
 5643POPC   C4A72042  20.991  12.328   7.494
 5643POPC   C1B72043  20.290  11.856   6.366
 5643POPC   C2B72044  20.477  12.026   6.741
 5643POPC   C3B72045  20.606  11.851   7.117
 5643POPC   C4B72046  20.287  12.034   7.333
 5644POPC   NC372047  17.947  13.839   5.559
 5644POPC   PO472048  17.533  13.324   5.491
 5644POPC   GL172049  17.454  13.639   5.845
 5644POPC   GL272050  17.315  13.980   5.749
 5644POPC   C1A72051  17.405  13.682   6.324
 5644POPC   D2A72052  17.663  13.746   6.701
 5644POPC   C3A72053  17.654  13.410   7.037
 5644POPC   C4A72054  17.442  13.424   7.467
 5644POPC   C1B72055  17.184  14.113   6.191
 5644POPC   C2B72056  16.992  13.928   6.569
 5644POPC   C3B72057  17.174  13.677   6.888
 5644POPC   C4B72058  17.466  13.849   7.193
 5645POPC   NC372059   8.347  36.650   5.387
 5645POPC   PO472060   8.182  37.279   5.398
 5645POPC   GL172061   8.393  37.038   5.725
 5645POPC   GL272062   8.163  36.736   5.866
 5645POPC   C1A72063   8.473  37.023   6.162
 5645POPC   D2A72064   8.151  37.078   6.482
 5645POPC   C3A72065   8.360  37.088   6.879
 5645POPC   C4A72066   8.333  36.924   7.305
 5645POPC   C1B72067   8.237  36.552   6.303
 5645POPC   C2B72068   8.313  36.477   6.777
 5645POPC   C3B72069   8.066  36.516   7.164
 5645POPC   C4B72070   8.141  36.550   7.623
 5646POPC   NC372071  27.503   8.081   5.232
 5646POPC   PO472072  28.227   8.070   5.295
 5646POPC   GL172073  27.854   8.102   5.638
 5646POPC   GL272074  27.488   8.229   5.761
 5646POPC   C1A72075  27.879   8.246   6.088
 5646POPC   D2A72076  27.722   8.136   6.483
 5646POPC   C3A72077  27.769   8.267   6.873
 5646POPC   C4A72078  27.605   8.048   7.179
 5646POPC   C1B72079  27.377   8.381   6.194
 5646POPC   C2B72080  27.320   8.398   6.664
 5646POPC   C3B72081  27.303   8.443   7.104
 5646POPC   C4B72082  27.481   8.538   7.495
 5647POPC   NC372083  33.805  17.557   5.510
 5647POPC   PO472084  33.763  16.907   5.335
 5647POPC   GL172085  33.797  17.095   5.749
 5647POPC   GL272086  33.459  17.221   5.747
 5647POPC   C1A72087  33.826  17.372   6.147
 5647POPC   D2A72088  34.045  17.503   6.531
 5647POPC   C3A72089  33.952  17.670   6.932
 5647POPC   C4A72090  33.964  17.497   7.325
 5647POPC   C1B72091  33.307  17.437   6.129
 5647POPC   C2B72092  33.477  17.634   6.519
 5647POPC   C3B72093  33.429  17.743   6.960
 5647POPC   C4B72094  33.433  17.469   7.321
 5648POPC   NC372095  23.448  30.297   5.565
 5648POPC   PO472096  23.663  29.839   5.096
 5648POPC   GL172097  23.658  29.832   5.561
 5648POPC   GL272098  23.896  30.085   5.709
 5648POPC   C1A72099  23.558  29.840   6.049
 5648POPC   D2A72100  23.370  29.815   6.492
 5648POPC   C3A72101  23.586  29.834   6.912
 5648POPC   C4A72102  23.842  29.579   7.205
 5648POPC   C1B72103  23.900  30.228   6.155
 5648POPC   C2B72104  23.979  30.093   6.598
 5648POPC   C3B72105  23.846  30.271   6.982
 5648POPC   C4B72106  23.738  30.174   7.357
 5649POPC   NC372107   8.161  13.174   5.436
 5649POPC   PO472108   8.072  12.500   5.526
 5649POPC   GL172109   8.213  12.470   5.949
 5649POPC   GL272110   8.544  12.596   5.908
 5649POPC   C1A72111   8.072  12.668   6.350
 5649POPC   D2A72112   8.086  12.580   6.784
 5649POPC   C3A72113   7.965  12.911   7.014
 5649POPC   C4A72114   7.987  12.772   7.429
 5649POPC   C1B72115   8.533  12.871   6.268
 5649POPC   C2B72116   8.457  12.917   6.722
 5649POPC   C3B72117   8.454  12.829   7.153
 5649POPC   C4B72118   8.345  13.139   7.446
 5650POPC   NC372119  24.730  35.371   5.450
 5650POPC   PO472120  24.075  35.159   5.482
 5650POPC   GL172121  24.352  35.293   5.798
 5650POPC   GL272122  24.499  35.643   5.815
 5650POPC   C1A72123  24.519  35.268   6.195
 5650POPC   D2A72124  24.415  35.264   6.613
 5650POPC   C3A72125  24.721  35.205   6.935
 5650POPC   C4A72126  24.620  35.243   7.371
 5650POPC   C1B72127  24.686  35.763   6.212
 5650POPC   C2B72128  24.608  35.726   6.669
 5650POPC   C3B72129  24.392  35.582   7.062
 5650POPC   C4B72130  24.597  35.730   7.455
 5651POPC   NC372131  38.941  27.475   5.386
 5651POPC   PO472132  38.339  27.682   5.302
 5651POPC   GL172133  38.580  27.747   5.695
 5651POPC   GL272134  38.640  27.400   5.770
 5651POPC   C1A72135  38.375  27.698   6.137
 5651POPC   D2A72136  38.413  27.910   6.564
 5651POPC   C3A72137  38.210  27.804   6.979
 5651POPC   C4A72138  38.238  27.468   7.282
 5651POPC   C1B72139  38.777  27.371   6.164
 5651POPC   C2B72140  38.628  27.444   6.549
 5651POPC   C3B72141  38.657  27.513   6.977
 5651POPC   C4B72142  38.730  27.210   7.335
 5652POPC   NC372143  35.589  35.762   5.382
 5652POPC   PO472144  34.985  35.975   5.252
 5652POPC   GL172145  35.311  36.156   5.554
 5652POPC   GL272146  35.307  35.914   5.791
 5652POPC   C1A72147  35.377  36.410   5.951
 5652POPC   D2A72148  35.445  36.570   6.403
 5652POPC   C3A72149  35.445  36.311   6.793
 5652POPC   C4A72150  35.503  36.456   7.213
 5652POPC   C1B72151  35.188  35.973   6.207
 5652POPC   C2B72152  35.278  35.829   6.604
 5652POPC   C3B72153  35.201  35.788   7.016
 5652POPC   C4B72154  35.487  35.961   7.291
 5653POPC   NC372155   7.887  15.356   5.346
 5653POPC   PO472156   8.445  15.030   5.352
 5653POPC   GL172157   8.294  15.279   5.696
 5653POPC   GL272158   8.506  15.535   5.877
 5653POPC   C1A72159   8.133  15.259   6.103
 5653POPC   D2A72160   8.158  14.935   6.402
 5653POPC   C3A72161   8.180  14.931   6.858
 5653POPC   C4A72162   8.020  15.087   7.258
 5653POPC   C1B72163   8.626  15.341   6.246
 5653POPC   C2B72164   8.640  15.125   6.639
 5653POPC   C3B72165   8.544  15.229   7.060
 5653POPC   C4B72166   8.364  15.514   7.335
 5654POPC   NC372167  16.969  24.688   5.513
 5654POPC   PO472168  16.533  24.339   5.218
 5654POPC   GL172169  16.524  24.402   5.710
 5654POPC   GL272170  16.681  24.687   5.942
 5654POPC   C1A72171  16.592  24.229   6.146
 5654POPC   D2A72172  16.715  24.160   6.550
 5654POPC   C3A72173  16.723  24.437   6.888
 5654POPC   C4A72174  17.009  24.479   7.246
 5654POPC   C1B72175  16.911  24.775   6.372
 5654POPC   C2B72176  17.059  24.821   6.831
 5654POPC   C3B72177  16.727  24.886   7.157
 5654POPC   C4B72178  16.538  24.547   7.369
 5655POPC   NC372179  40.653  29.399   5.470
 5655POPC   PO472180  40.479  28.730   5.248
 5655POPC   GL172181  40.473  28.789   5.748
 5655POPC   GL272182  40.638  29.097   5.857
 5655POPC   C1A72183  40.630  28.770   6.224
 5655POPC   D2A72184  40.746  29.003   6.593
 5655POPC   C3A72185  40.730  28.908   7.006
 5655POPC   C4A72186  40.917  29.038   7.394
 5655POPC   C1B72187  40.805  29.380   6.202
 5655POPC   C2B72188  40.847  29.584   6.617
 5655POPC   C3B72189  40.771  29.420   7.041
 5655POPC   C4B72190  40.490  29.305   7.408
 5656POPC   NC372191  22.979  28.727   5.487
 5656POPC   PO472192  23.004  28.069   5.480
 5656POPC   GL172193  23.182  28.114   5.876
 5656POPC   GL272194  22.968  28.408   5.937
 5656POPC   C1A72195  23.321  28.285   6.286
 5656POPC   D2A72196  23.225  28.297   6.734
 5656POPC   C3A72197  22.985  28.558   6.951
 5656POPC   C4A72198  22.858  28.371   7.323
 5656POPC   C1B72199  22.889  28.528   6.388
 5656POPC   C2B72200  22.577  28.406   6.698
 5656POPC   C3B72201  22.424  28.488   7.100
 5656POPC   C4B72202  22.345  28.307   7.500
 5657POPC   NC372203  24.891  13.609   5.505
 5657POPC   PO472204  25.388  13.939   5.366
 5657POPC   GL172205  25.448  13.824   5.794
 5657POPC   GL272206  25.157  13.989   5.912
 5657POPC   C1A72207  25.353  13.620   6.227
 5657POPC   D2A72208  25.431  13.740   6.683
 5657POPC   C3A72209  25.179  13.649   7.096
 5657POPC   C4A72210  24.861  13.418   7.303
 5657POPC   C1B72211  25.341  14.111   6.319
 5657POPC   C2B72212  25.169  14.173   6.740
 5657POPC   C3B72213  25.407  14.096   7.074
 5657POPC   C4B72214  25.683  13.701   7.118
 5658POPC   NC372215  41.398  21.621   5.345
 5658POPC   PO472216  42.124  21.392   5.355
 5658POPC   GL172217  41.941  21.523   5.761
 5658POPC   GL272218  41.594  21.429   5.768
 5658POPC   C1A72219  41.821  21.517   6.213
 5658POPC   D2A72220  41.629  21.539   6.603
 5658POPC   C3A72221  41.891  21.718   6.881
 5658POPC   C4A72222  41.938  21.655   7.265
 5658POPC   C1B72223  41.355  21.314   6.143
 5658POPC   C2B72224  41.405  21.094   6.509
 5658POPC   C3B72225  41.431  21.209   6.944
 5658POPC   C4B72226  41.461  21.588   7.147
 5659POPC   NC372227  37.429   4.392   5.510
 5659POPC   PO472228  37.824   4.839   5.249
 5659POPC   GL172229  37.865   4.549   5.729
 5659POPC   GL272230  37.877   4.226   5.883
 5659POPC   C1A72231  37.592   4.491   6.187
 5659POPC   D2A72232  37.588   4.582   6.636
 5659POPC   C3A72233  37.606   4.230   6.935
 5659POPC   C4A72234  37.397   3.968   7.257
 5659POPC   C1B72235  38.089   4.574   6.191
 5659POPC   C2B72236  38.070   4.777   6.654
 5659POPC   C3B72237  37.955   4.770   7.102
 5659POPC   C4B72238  37.970   4.739   7.569
 5660POPC   NC372239  14.327   1.089   5.309
 5660POPC   PO472240  14.580   1.684   5.457
 5660POPC   GL172241  14.456   1.387   5.828
 5660POPC   GL272242  14.356   1.034   5.818
 5660POPC   C1A72243  14.350   1.453   6.265
 5660POPC   D2A72244  14.102   1.509   6.647
 5660POPC   C3A72245  14.299   1.494   7.059
 5660POPC   C4A72246  14.652   1.256   7.202
 5660POPC   C1B72247  14.593   0.936   6.175
 5660POPC   C2B72248  14.729   1.099   6.591
 5660POPC   C3B72249  14.832   0.857   6.960
 5660POPC   C4B72250  14.568   0.658   7.237
 5661POPC   NC372251  26.293  22.854   5.360
 5661POPC   PO472252  26.917  22.646   5.153
 5661POPC   GL172253  26.790  22.826   5.567
 5661POPC   GL272254  26.878  23.198   5.640
 5661POPC   C1A72255  26.721  22.709   6.006
 5661POPC   D2A72256  26.641  22.851   6.445
 5661POPC   C3A72257  26.838  22.838   6.865
 5661POPC   C4A72258  26.555  22.793   7.236
 5661POPC   C1B72259  26.707  23.209   6.072
 5661POPC   C2B72260  26.555  23.358   6.466
 5661POPC   C3B72261  26.807  23.446   6.812
 5661POPC   C4B72262  26.841  23.228   7.204
 5662POPC   NC372263   1.469  38.448   5.538
 5662POPC   PO472264   0.874  38.679   5.562
 5662POPC   GL172265   1.185  38.651   5.927
 5662POPC   GL272266   1.564  38.561   6.013
 5662POPC   C1A72267   1.243  38.708   6.361
 5662POPC   D2A72268   1.521  38.588   6.641
 5662POPC   C3A72269   1.330  38.730   7.032
 5662POPC   C4A72270   1.081  38.536   7.384
 5662POPC   C1B72271   1.679  38.252   6.283
 5662POPC   C2B72272   1.832  38.184   6.702
 5662POPC   C3B72273   1.517  38.240   7.018
 5662POPC   C4B72274   1.433  38.184   7.436
 5663POPC   NC372275  10.904  40.337   5.347
 5663POPC   PO472276  10.395  40.760   5.363
 5663POPC   GL172277  10.375  40.805   5.782
 5663POPC   GL272278  10.668  40.591   5.810
 5663POPC   C1A72279  10.379  40.740   6.239
 5663POPC   D2A72280  10.473  40.995   6.609
 5663POPC   C3A72281  10.731  40.914   6.965
 5663POPC   C4A72282  10.328  40.818   7.159
 5663POPC   C1B72283  10.849  40.522   6.219
 5663POPC   C2B72284  10.654  40.486   6.634
 5663POPC   C3B72285  10.660  40.404   7.078
 5663POPC   C4B72286  10.931  40.572   7.356
 5664POPC   NC372287  34.195  27.570   5.632
 5664POPC   PO472288  34.883  27.680   5.542
 5664POPC   GL172289  34.630  27.637   5.932
 5664POPC   GL272290  34.492  27.292   5.947
 5664POPC   C1A72291  34.477  27.590   6.376
 5664POPC   D2A72292  34.140  27.509   6.671
 5664POPC   C3A72293  34.326  27.726   7.035
 5664POPC   C4A72294  34.808  27.724   7.058
 5664POPC   C1B72295  34.844  27.235   6.224
 5664POPC   C2B72296  34.926  27.366   6.644
 5664POPC   C3B72297  34.579  27.289   6.933
 5664POPC   C4B72298  34.527  27.280   7.391
 5665POPC   NC372299   1.871  10.012   5.564
 5665POPC   PO472300   2.241   9.520   5.385
 5665POPC   GL172301   2.239   9.712   5.792
 5665POPC   GL272302   1.924   9.541   5.874
 5665POPC   C1A72303   2.101   9.898   6.212
 5665POPC   D2A72304   1.836   9.965   6.582
 5665POPC   C3A72305   2.108   9.951   6.933
 5665POPC   C4A72306   2.212   9.753   7.309
 5665POPC   C1B72307   1.729   9.506   6.296
 5665POPC   C2B72308   1.600   9.488   6.747
 5665POPC   C3B72309   1.736   9.620   7.170
 5665POPC   C4B72310   1.537   9.742   7.561
 5666POPC   NC372311  11.647  28.770   5.632
 5666POPC   PO472312  12.197  28.613   5.218
 5666POPC   GL172313  12.023  28.320   5.562
 5666POPC   GL272314  12.290  28.381   5.757
 5666POPC   C1A72315  11.979  28.109   6.049
 5666POPC   D2A72316  11.944  28.272   6.516
 5666POPC   C3A72317  12.071  28.094   6.934
 5666POPC   C4A72318  12.044  28.257   7.365
 5666POPC   C1B72319  12.188  28.599   6.162
 5666POPC   C2B72320  12.061  28.805   6.567
 5666POPC   C3B72321  12.079  28.616   6.975
 5666POPC   C4B72322  12.431  28.592   7.223
 5667POPC   NC372323  34.334  11.572   5.365
 5667POPC   PO472324  34.727  11.114   5.323
 5667POPC   GL172325  34.454  11.205   5.723
 5667POPC   GL272326  34.290  11.531   5.876
 5667POPC   C1A72327  34.559  11.196   6.176
 5667POPC   D2A72328  34.926  11.238   6.468
 5667POPC   C3A72329  34.820  11.325   6.893
 5667POPC   C4A72330  34.908  11.126   7.266
 5667POPC   C1B72331  34.223  11.583   6.321
 5667POPC   C2B72332  34.327  11.381   6.725
 5667POPC   C3B72333  34.399  11.418   7.183
 5667POPC   C4B72334  34.521  11.686   7.556
 5668POPC   NC372335  34.220  16.856   5.478
 5668POPC   PO472336  34.832  16.784   5.334
 5668POPC   GL172337  34.677  16.913   5.767
 5668POPC   GL272338  34.342  16.972   5.961
 5668POPC   C1A72339  34.815  16.787   6.194
 5668POPC   D2A72340  34.676  16.851   6.613
 5668POPC   C3A72341  34.861  16.629   6.952
 5668POPC   C4A72342  34.870  16.787   7.383
 5668POPC   C1B72343  34.332  16.612   6.280
 5668POPC   C2B72344  34.304  16.556   6.765
 5668POPC   C3B72345  34.429  16.884   7.094
 5668POPC   C4B72346  34.140  17.019   7.479
 5669POPC   NC372347  43.215   0.020   5.524
 5669POPC   PO472348  43.144  44.332   5.481
 5669POPC   GL172349  43.222  44.620   5.829
 5669POPC   GL272350  42.896  44.658   5.863
 5669POPC   C1A72351  43.274  44.644   6.286
 5669POPC   D2A72352  43.283  44.379   6.660
 5669POPC   C3A72353  43.195  44.479   7.045
 5669POPC   C4A72354  43.135  44.875   7.086
 5669POPC   C1B72355  42.762  44.494   6.274
 5669POPC   C2B72356  42.796  44.617   6.722
 5669POPC   C3B72357  42.700  44.592   7.166
 5669POPC   C4B72358  42.635  44.627   7.611
 5670POPC   NC372359  16.405  13.782   5.329
 5670POPC   PO472360  15.847  13.371   5.384
 5670POPC   GL172361  16.090  13.475   5.716
 5670POPC   GL272362  15.838  13.308   5.899
 5670POPC   C1A72363  16.210  13.596   6.112
 5670POPC   D2A72364  16.055  13.873   6.422
 5670POPC   C3A72365  16.065  13.713   6.831
 5670POPC   C4A72366  15.826  13.576   7.191
 5670POPC   C1B72367  15.684  13.368   6.308
 5670POPC   C2B72368  15.694  13.319   6.747
 5670POPC   C3B72369  15.411  13.282   7.086
 5670POPC   C4B72370  15.479  13.217   7.541
 5671POPC   NC372371  35.803  23.975   5.213
 5671POPC   PO472372  35.370  23.434   5.364
 5671POPC   GL172373  35.409  23.613   5.763
 5671POPC   GL272374  35.493  23.957   5.647
 5671POPC   C1A72375  35.638  23.566   6.161
 5671POPC   D2A72376  35.486  23.538   6.579
 5671POPC   C3A72377  35.468  23.537   7.032
 5671POPC   C4A72378  35.124  23.789   7.184
 5671POPC   C1B72379  35.384  24.021   6.085
 5671POPC   C2B72380  35.512  24.086   6.508
 5671POPC   C3B72381  35.489  24.067   6.946
 5671POPC   C4B72382  35.559  23.982   7.369
 5672POPC   NC372383  12.312  36.685   5.200
 5672POPC   PO472384  11.729  36.809   5.429
 5672POPC   GL172385  12.043  36.738   5.725
 5672POPC   GL272386  12.346  36.900   5.665
 5672POPC   C1A72387  12.053  36.767   6.183
 5672POPC   D2A72388  11.975  37.080   6.550
 5672POPC   C3A72389  12.015  36.929   7.000
 5672POPC   C4A72390  11.885  36.628   7.292
 5672POPC   C1B72391  12.439  37.227   5.976
 5672POPC   C2B72392  12.439  37.362   6.412
 5672POPC   C3B72393  12.364  37.272   6.857
 5672POPC   C4B72394  12.217  37.338   7.273
 5673POPC   NC372395  20.946   9.545   5.249
 5673POPC   PO472396  20.796  10.249   5.376
 5673POPC   GL172397  20.752   9.878   5.647
 5673POPC   GL272398  20.439   9.662   5.682
 5673POPC   C1A72399  20.716   9.791   6.097
 5673POPC   D2A72400  20.768   9.758   6.549
 5673POPC   C3A72401  20.737   9.781   6.970
 5673POPC   C4A72402  20.877   9.817   7.378
 5673POPC   C1B72403  20.382   9.425   6.117
 5673POPC   C2B72404  20.349   9.481   6.573
 5673POPC   C3B72405  20.386   9.425   7.056
 5673POPC   C4B72406  20.469   9.574   7.486
 5674POPC   NC372407  34.356  14.563   5.433
 5674POPC   PO472408  34.795  14.043   5.280
 5674POPC   GL172409  34.613  14.172   5.690
 5674POPC   GL272410  34.825  14.096   5.954
 5674POPC   C1A72411  34.464  14.440   6.077
 5674POPC   D2A72412  34.528  14.638   6.488
 5674POPC   C3A72413  34.398  14.356   6.862
 5674POPC   C4A72414  34.415  14.177   7.288
 5674POPC   C1B72415  34.949  14.348   6.316
 5674POPC   C2B72416  35.012  14.508   6.735
 5674POPC   C3B72417  34.903  14.291   7.136
 5674POPC   C4B72418  34.794  14.294   7.592
 5675POPC   NC372419  36.502  28.420   5.446
 5675POPC   PO472420  35.773  28.169   5.486
 5675POPC   GL172421  35.993  28.289   5.872
 5675POPC   GL272422  36.134  28.646   5.864
 5675POPC   C1A72423  35.993  28.042   6.277
 5675POPC   D2A72424  36.176  27.903   6.684
 5675POPC   C3A72425  36.062  28.206   7.024
 5675POPC   C4A72426  36.368  28.422   7.258
 5675POPC   C1B72427  36.018  28.804   6.307
 5675POPC   C2B72428  36.051  28.712   6.782
 5675POPC   C3B72429  36.002  28.842   7.223
 5675POPC   C4B72430  35.985  28.872   7.672
 5676POPC   NC372431  11.686  18.476   5.378
 5676POPC   PO472432  11.167  18.037   5.468
 5676POPC   GL172433  11.491  18.135   5.777
 5676POPC   GL272434  11.406  18.481   5.823
 5676POPC   C1A72435  11.441  18.067   6.227
 5676POPC   D2A72436  11.100  18.032   6.541
 5676POPC   C3A72437  11.293  18.084   6.952
 5676POPC   C4A72438  11.636  18.166   7.220
 5676POPC   C1B72439  11.135  18.478   6.176
 5676POPC   C2B72440  11.177  18.544   6.615
 5676POPC   C3B72441  10.865  18.366   6.871
 5676POPC   C4B72442  10.867  18.154   7.254
 5677POPC   NC372443  14.025  22.263   5.471
 5677POPC   PO472444  13.352  22.052   5.392
 5677POPC   GL172445  13.606  22.165   5.767
 5677POPC   GL272446  13.318  22.174   5.955
 5677POPC   C1A72447  13.749  22.370   6.142
 5677POPC   D2A72448  13.536  22.360   6.504
 5677POPC   C3A72449  13.697  22.338   6.932
 5677POPC   C4A72450  13.423  22.412   7.275
 5677POPC   C1B72451  13.376  21.884   6.285
 5677POPC   C2B72452  13.541  21.898   6.687
 5677POPC   C3B72453  13.436  21.936   7.089
 5677POPC   C4B72454  13.363  21.841   7.507
 5678POPC   NC372455  32.597  39.768   5.155
 5678POPC   PO472456  32.216  40.231   5.327
 5678POPC   GL172457  32.205  40.157   5.732
 5678POPC   GL272458  32.284  39.807   5.675
 5678POPC   C1A72459  32.157  40.353   6.146
 5678POPC   D2A72460  32.244  40.201   6.553
 5678POPC   C3A72461  32.041  40.199   6.958
 5678POPC   C4A72462  32.162  40.036   7.345
 5678POPC   C1B72463  32.289  39.839   6.121
 5678POPC   C2B72464  32.386  39.612   6.450
 5678POPC   C3B72465  32.715  39.624   6.691
 5678POPC   C4B72466  32.550  39.796   7.090
 5679POPC   NC372467  22.692  15.251   5.448
 5679POPC   PO472468  22.982  14.717   5.270
 5679POPC   GL172469  23.083  15.054   5.701
 5679POPC   GL272470  22.801  15.282   5.924
 5679POPC   C1A72471  23.251  15.297   6.110
 5679POPC   D2A72472  23.020  15.440   6.501
 5679POPC   C3A72473  23.089  15.313   6.958
 5679POPC   C4A72474  23.162  15.031   7.330
 5679POPC   C1B72475  22.662  15.062   6.292
 5679POPC   C2B72476  22.540  14.903   6.702
 5679POPC   C3B72477  22.620  15.130   7.080
 5679POPC   C4B72478  22.559  15.457   7.378
 5680POPC   NC372479  29.253   9.947   5.351
 5680POPC   PO472480  28.991   9.352   5.305
 5680POPC   GL172481  28.891   9.627   5.677
 5680POPC   GL272482  29.212   9.749   5.847
 5680POPC   C1A72483  28.821   9.670   6.143
 5680POPC   D2A72484  29.187   9.564   6.444
 5680POPC   C3A72485  29.142   9.749   6.862
 5680POPC   C4A72486  28.906   9.990   7.172
 5680POPC   C1B72487  29.176  10.047   6.256
 5680POPC   C2B72488  29.218  10.305   6.663
 5680POPC   C3B72489  29.383  10.156   7.072
 5680POPC   C4B72490  29.599   9.950   7.406
 5681POPC   NC372491  10.964   5.639   5.347
 5681POPC   PO472492  11.619   6.036   5.351
 5681POPC   GL172493  11.298   5.946   5.640
 5681POPC   GL272494  11.471   6.051   5.926
 5681POPC   C1A72495  11.202   5.658   5.984
 5681POPC   D2A72496  11.384   5.686   6.404
 5681POPC   C3A72497  11.071   5.750   6.696
 5681POPC   C4A72498  11.088   5.608   7.099
 5681POPC   C1B72499  11.173   6.136   6.263
 5681POPC   C2B72500  11.174   6.280   6.692
 5681POPC   C3B72501  11.286   6.097   7.075
 5681POPC   C4B72502  11.679   6.018   7.298
 5682POPC   NC372503   6.039  10.867   5.504
 5682POPC   PO472504   5.480  10.369   5.484
 5682POPC   GL172505   5.796  10.470   5.769
 5682POPC   GL272506   5.704  10.785   5.857
 5682POPC   C1A72507   5.996  10.481   6.189
 5682POPC   D2A72508   5.858  10.364   6.616
 5682POPC   C3A72509   6.095  10.495   6.983
 5682POPC   C4A72510   5.858  10.583   7.355
 5682POPC   C1B72511   5.576  10.771   6.253
 5682POPC   C2B72512   5.403  10.610   6.614
 5682POPC   C3B72513   5.551  10.773   7.002
 5682POPC   C4B72514   5.532  11.080   7.342
 5683POPC   NC372515  18.622  10.385   5.413
 5683POPC   PO472516  19.313  10.470   5.405
 5683POPC   GL172517  19.008  10.410   5.765
 5683POPC   GL272518  19.046  10.102   5.953
 5683POPC   C1A72519  18.797  10.577   6.168
 5683POPC   D2A72520  18.612  10.880   6.508
 5683POPC   C3A72521  18.814  10.861   6.920
 5683POPC   C4A72522  19.200  10.685   7.130
 5683POPC   C1B72523  19.029  10.166   6.406
 5683POPC   C2B72524  18.772  10.375   6.711
 5683POPC   C3B72525  18.799  10.361   7.162
 5683POPC   C4B72526  19.193  10.246   7.378
 5684POPC   NC372527  28.113   7.603   5.304
 5684POPC   PO472528  28.753   7.563   5.227
 5684POPC   GL172529  28.564   7.412   5.666
 5684POPC   GL272530  28.208   7.285   5.706
 5684POPC   C1A72531  28.425   7.525   6.140
 5684POPC   D2A72532  28.264   7.373   6.584
 5684POPC   C3A72533  28.385   7.507   7.034
 5684POPC   C4A72534  28.614   7.691   7.408
 5684POPC   C1B72535  28.093   7.133   6.129
 5684POPC   C2B72536  27.942   6.953   6.531
 5684POPC   C3B72537  28.136   7.020   6.942
 5684POPC   C4B72538  28.103   7.015   7.382
 5685POPC   NC372539  32.988  43.326   5.550
 5685POPC   PO472540  33.459  42.966   5.377
 5685POPC   GL172541  33.289  42.983   5.811
 5685POPC   GL272542  32.953  42.832   5.816
 5685POPC   C1A72543  33.112  43.147   6.226
 5685POPC   D2A72544  33.245  42.997   6.631
 5685POPC   C3A72545  33.176  43.241   6.993
 5685POPC   C4A72546  32.931  43.305   7.368
 5685POPC   C1B72547  33.185  42.643   6.208
 5685POPC   C2B72548  33.061  42.522   6.680
 5685POPC   C3B72549  33.042  42.732   7.119
 5685POPC   C4B72550  32.974  42.798   7.587
 5686POPC   NC372551  18.658   0.377   5.456
 5686POPC   PO472552  18.001   0.616   5.411
 5686POPC   GL172553  18.283   0.534   5.787
 5686POPC   GL272554  18.198   0.188   5.883
 5686POPC   C1A72555  18.604   0.495   6.147
 5686POPC   D2A72556  18.524   0.713   6.575
 5686POPC   C3A72557  18.552   0.463   6.958
 5686POPC   C4A72558  18.274   0.124   7.068
 5686POPC   C1B72559  18.133   0.403   6.296
 5686POPC   C2B72560  17.933   0.309   6.702
 5686POPC   C3B72561  17.875   0.577   7.047
 5686POPC   C4B72562  18.185   0.779   7.274
 5687POPC   NC372563  35.787  40.945   5.472
 5687POPC   PO472564  35.161  40.944   5.650
 5687POPC   GL172565  35.450  40.736   5.872
 5687POPC   GL272566  35.624  41.050   5.932
 5687POPC   C1A72567  35.299  40.537   6.269
 5687POPC   D2A72568  34.997  40.826   6.504
 5687POPC   C3A72569  34.970  40.683   6.911
 5687POPC   C4A72570  34.955  40.828   7.310
 5687POPC   C1B72571  35.506  40.983   6.333
 5687POPC   C2B72572  35.453  40.836   6.757
 5687POPC   C3B72573  35.410  40.981   7.169
 5687POPC   C4B72574  35.502  40.764   7.557
 5688POPC   NC372575  31.076  24.106   5.611
 5688POPC   PO472576  30.722  24.694   5.384
 5688POPC   GL172577  30.633  24.757   5.802
 5688POPC   GL272578  30.736  24.433   5.929
 5688POPC   C1A72579  30.513  24.734   6.262
 5688POPC   D2A72580  30.541  24.428   6.629
 5688POPC   C3A72581  30.624  24.659   7.014
 5688POPC   C4A72582  30.490  24.714   7.457
 5688POPC   C1B72583  30.833  24.076   6.219
 5688POPC   C2B72584  31.001  24.121   6.619
 5688POPC   C3B72585  30.819  24.108   6.999
 5688POPC   C4B72586  30.808  24.337   7.363
 5689POPC   NC372587  33.031  34.850   5.388
 5689POPC   PO472588  33.303  34.261   5.501
 5689POPC   GL172589  33.089  34.475   5.819
 5689POPC   GL272590  33.091  34.832   5.878
 5689POPC   C1A72591  32.995  34.487   6.257
 5689POPC   D2A72592  32.927  34.174   6.589
 5689POPC   C3A72593  33.186  34.275   6.918
 5689POPC   C4A72594  33.053  34.349   7.316
 5689POPC   C1B72595  33.174  34.986   6.282
 5689POPC   C2B72596  33.147  34.769   6.700
 5689POPC   C3B72597  32.964  34.801   7.107
 5689POPC   C4B72598  32.927  34.912   7.562
 5690POPC   NC372599   2.330  19.874   5.601
 5690POPC   PO472600   1.643  20.064   5.389
 5690POPC   GL172601   1.851  20.005   5.758
 5690POPC   GL272602   1.803  19.698   5.844
 5690POPC   C1A72603   2.034  20.058   6.195
 5690POPC   D2A72604   2.290  20.173   6.575
 5690POPC   C3A72605   2.127  19.961   6.911
 5690POPC   C4A72606   1.995  19.981   7.316
 5690POPC   C1B72607   1.677  19.701   6.265
 5690POPC   C2B72608   1.807  19.606   6.684
 5690POPC   C3B72609   1.599  19.669   7.064
 5690POPC   C4B72610   1.580  19.538   7.477
 5691POPC   NC372611  37.906  39.396   5.474
 5691POPC   PO472612  37.269  39.729   5.497
 5691POPC   GL172613  37.461  39.416   5.813
 5691POPC   GL272614  37.750  39.555   5.911
 5691POPC   C1A72615  37.667  39.170   6.207
 5691POPC   D2A72616  37.818  39.197   6.633
 5691POPC   C3A72617  37.675  39.092   7.068
 5691POPC   C4A72618  37.952  39.079   7.459
 5691POPC   C1B72619  37.948  39.593   6.275
 5691POPC   C2B72620  38.161  39.569   6.634
 5691POPC   C3B72621  37.936  39.522   7.036
 5691POPC   C4B72622  37.768  39.550   7.489
 5692POPC   NC372623  10.085  15.312   5.314
 5692POPC   PO472624  10.634  14.996   5.225
 5692POPC   GL172625  10.554  15.112   5.688
 5692POPC   GL272626  10.873  14.993   5.855
 5692POPC   C1A72627  10.473  15.043   6.175
 5692POPC   D2A72628  10.335  15.052   6.624
 5692POPC   C3A72629  10.595  15.157   6.993
 5692POPC   C4A72630  10.582  15.092   7.415
 5692POPC   C1B72631  10.977  15.160   6.279
 5692POPC   C2B72632  10.991  15.257   6.713
 5692POPC   C3B72633  11.081  14.993   7.062
 5692POPC   C4B72634  11.022  14.871   7.507
 5693POPC   NC372635  31.612  21.536   5.520
 5693POPC   PO472636  31.153  21.059   5.671
 5693POPC   GL172637  31.294  21.157   6.082
 5693POPC   GL272638  31.490  21.474   6.022
 5693POPC   C1A72639  31.424  21.247   6.510
 5693POPC   D2A72640  31.588  21.634   6.674
 5693POPC   C3A72641  31.737  21.648   7.086
 5693POPC   C4A72642  31.519  21.563   7.479
 5693POPC   C1B72643  31.827  21.192   6.128
 5693POPC   C2B72644  31.937  21.262   6.540
 5693POPC   C3B72645  31.771  21.145   6.936
 5693POPC   C4B72646  31.919  21.230   7.346
 5694POPC   NC372647  14.570   2.702   5.253
 5694POPC   PO472648  14.059   2.994   5.468
 5694POPC   GL172649  14.206   2.603   5.713
 5694POPC   GL272650  13.912   2.605   5.944
 5694POPC   C1A72651  14.367   2.471   6.130
 5694POPC   D2A72652  14.518   2.754   6.451
 5694POPC   C3A72653  14.431   2.621   6.880
 5694POPC   C4A72654  14.107   2.610   7.198
 5694POPC   C1B72655  14.026   2.964   6.191
 5694POPC   C2B72656  14.143   3.046   6.645
 5694POPC   C3B72657  14.077   3.171   7.071
 5694POPC   C4B72658  13.949   3.162   7.487
 5695POPC   NC372659  33.351  27.211   5.504
 5695POPC   PO472660  33.103  27.872   5.387
 5695POPC   GL172661  33.130  27.601   5.771
 5695POPC   GL272662  32.829  27.419   5.838
 5695POPC   C1A72663  33.190  27.452   6.214
 5695POPC   D2A72664  33.139  27.282   6.646
 5695POPC   C3A72665  32.868  27.435   6.991
 5695POPC   C4A72666  32.993  27.446   7.471
 5695POPC   C1B72667  32.658  27.288   6.199
 5695POPC   C2B72668  32.524  27.425   6.562
 5695POPC   C3B72669  32.378  27.250   6.923
 5695POPC   C4B72670  32.544  27.177   7.316
 5696POPC   NC372671  36.760  25.361   5.514
 5696POPC   PO472672  37.349  25.552   5.379
 5696POPC   GL172673  37.211  25.404   5.798
 5696POPC   GL272674  36.910  25.506   6.003
 5696POPC   C1A72675  37.249  25.175   6.197
 5696POPC   D2A72676  37.029  25.270   6.580
 5696POPC   C3A72677  37.110  25.103   6.979
 5696POPC   C4A72678  37.037  25.094   7.396
 5696POPC   C1B72679  36.750  25.082   6.153
 5696POPC   C2B72680  36.745  24.819   6.522
 5696POPC   C3B72681  36.621  25.011   6.901
 5696POPC   C4B72682  36.451  25.071   7.291
 5697POPC   NC372683  19.278  24.024   5.329
 5697POPC   PO472684  19.519  23.446   5.212
 5697POPC   GL172685  19.690  23.505   5.689
 5697POPC   GL272686  19.593  23.193   5.834
 5697POPC   C1A72687  19.943  23.616   6.131
 5697POPC   D2A72688  20.136  23.708   6.596
 5697POPC   C3A72689  19.902  23.997   6.900
 5697POPC   C4A72690  19.606  24.177   7.216
 5697POPC   C1B72691  19.548  23.338   6.274
 5697POPC   C2B72692  19.633  23.578   6.666
 5697POPC   C3B72693  19.738  23.559   7.119
 5697POPC   C4B72694  19.869  23.499   7.587
 5698POPC   NC372695  10.365  38.782   5.523
 5698POPC   PO472696  10.733  39.223   5.089
 5698POPC   GL172697  10.634  39.360   5.547
 5698POPC   GL272698  10.869  39.165   5.711
 5698POPC   C1A72699  10.547  39.487   6.035
 5698POPC   D2A72700  10.249  39.431   6.452
 5698POPC   C3A72701  10.430  39.310   6.882
 5698POPC   C4A72702  10.810  39.362   7.145
 5698POPC   C1B72703  10.701  38.993   6.100
 5698POPC   C2B72704  10.705  39.048   6.510
 5698POPC   C3B72705  10.797  38.905   6.880
 5698POPC   C4B72706  10.542  38.870   7.177
 5699POPC   NC372707  21.678  30.465   5.222
 5699POPC   PO472708  21.273  29.956   5.473
 5699POPC   GL172709  21.331  29.922   5.899
 5699POPC   GL272710  21.659  29.928   6.040
 5699POPC   C1A72711  21.224  30.101   6.283
 5699POPC   D2A72712  21.327  30.244   6.661
 5699POPC   C3A72713  21.216  30.059   7.021
 5699POPC   C4A72714  21.294  29.790   7.386
 5699POPC   C1B72715  21.701  29.958   6.470
 5699POPC   C2B72716  21.618  29.764   6.875
 5699POPC   C3B72717  21.783  29.647   7.285
 5699POPC   C4B72718  21.616  29.549   7.714
 5700POPC   NC372719  19.218  34.635   5.478
 5700POPC   PO472720  18.682  34.195   5.438
 5700POPC   GL172721  18.851  34.514   5.827
 5700POPC   GL272722  19.144  34.806   5.933
 5700POPC   C1A72723  18.933  34.526   6.271
 5700POPC   D2A72724  18.795  34.360   6.611
 5700POPC   C3A72725  18.945  34.519   6.974
 5700POPC   C4A72726  18.762  34.693   7.316
 5700POPC   C1B72727  19.464  34.741   6.249
 5700POPC   C2B72728  19.497  34.654   6.680
 5700POPC   C3B72729  19.549  34.860   7.041
 5700POPC   C4B72730  19.180  34.943   7.209
 5701POPC   NC372731  22.406  23.836   5.060
 5701POPC   PO472732  21.954  23.465   5.495
 5701POPC   GL172733  22.200  23.606   5.853
 5701POPC   GL272734  22.419  23.889   5.813
 5701POPC   C1A72735  22.112  23.719   6.286
 5701POPC   D2A72736  21.838  23.890   6.614
 5701POPC   C3A72737  21.896  23.694   7.006
 5701POPC   C4A72738  22.298  23.733   7.206
 5701POPC   C1B72739  22.521  24.034   6.209
 5701POPC   C2B72740  22.641  23.869   6.611
 5701POPC   C3B72741  22.606  24.068   7.011
 5701POPC   C4B72742  22.474  24.460   7.170
 5702POPC   NC372743  17.385  11.416   5.339
 5702POPC   PO472744  17.503  10.800   5.626
 5702POPC   GL172745  17.359  11.175   5.798
 5702POPC   GL272746  17.617  11.407   5.795
 5702POPC   C1A72747  17.313  11.222   6.241
 5702POPC   D2A72748  17.389  10.896   6.575
 5702POPC   C3A72749  17.251  11.021   6.994
 5702POPC   C4A72750  17.361  11.279   7.340
 5702POPC   C1B72751  17.810  11.434   6.181
 5702POPC   C2B72752  17.670  11.342   6.590
 5702POPC   C3B72753  17.785  11.164   6.961
 5702POPC   C4B72754  17.783  11.526   7.198
 5703POPC   NC372755  11.667  36.424   5.121
 5703POPC   PO472756  11.258  35.928   5.465
 5703POPC   GL172757  11.391  35.889   5.863
 5703POPC   GL272758  11.732  35.817   5.845
 5703POPC   C1A72759  11.338  36.130   6.215
 5703POPC   D2A72760  11.481  36.235   6.602
 5703POPC   C3A72761  11.246  36.345   6.995
 5703POPC   C4A72762  11.455  36.331   7.415
 5703POPC   C1B72763  11.651  35.745   6.305
 5703POPC   C2B72764  11.404  35.734   6.692
 5703POPC   C3B72765  11.392  35.881   7.143
 5703POPC   C4B72766  11.644  35.856   7.532
 5704POPC   NC372767  25.883  30.066   5.352
 5704POPC   PO472768  26.509  29.678   5.304
 5704POPC   GL172769  26.227  29.667   5.676
 5704POPC   GL272770  25.847  29.698   5.700
 5704POPC   C1A72771  26.131  29.566   6.109
 5704POPC   D2A72772  26.204  29.803   6.446
 5704POPC   C3A72773  26.109  29.598   6.791
 5704POPC   C4A72774  26.051  29.687   7.183
 5704POPC   C1B72775  25.887  30.021   6.041
 5704POPC   C2B72776  25.799  30.154   6.462
 5704POPC   C3B72777  25.727  29.978   6.852
 5704POPC   C4B72778  25.940  30.199   7.128
 5705POPC   NC372779  17.850  10.540   5.470
 5705POPC   PO472780  18.489  10.826   5.466
 5705POPC   GL172781  18.305  10.527   5.787
 5705POPC   GL272782  18.518  10.200   5.861
 5705POPC   C1A72783  18.277  10.588   6.229
 5705POPC   D2A72784  18.055  10.657   6.600
 5705POPC   C3A72785  18.357  10.611   6.919
 5705POPC   C4A72786  18.084  10.729   7.184
 5705POPC   C1B72787  18.220  10.099   6.137
 5705POPC   C2B72788  18.284  10.206   6.589
 5705POPC   C3B72789  17.997  10.247   6.956
 5705POPC   C4B72790  17.957  10.038   7.348
 5706POPC   NC372791  17.473   3.308   4.668
 5706POPC   PO472792  17.483   3.497   5.335
 5706POPC   GL172793  17.685   3.488   5.767
 5706POPC   GL272794  17.833   3.836   5.794
 5706POPC   C1A72795  17.617   3.282   6.201
 5706POPC   D2A72796  17.803   3.301   6.633
 5706POPC   C3A72797  17.554   3.267   6.978
 5706POPC   C4A72798  17.231   3.422   7.220
 5706POPC   C1B72799  17.598   3.931   6.167
 5706POPC   C2B72800  17.609   4.075   6.607
 5706POPC   C3B72801  17.507   3.812   6.966
 5706POPC   C4B72802  17.712   3.620   7.305
 5707POPC   NC372803  41.206   9.549   5.582
 5707POPC   PO472804  41.472  10.024   5.184
 5707POPC   GL172805  41.468  10.068   5.661
 5707POPC   GL272806  41.602   9.774   5.820
 5707POPC   C1A72807  41.498  10.149   6.157
 5707POPC   D2A72808  41.540  10.262   6.637
 5707POPC   C3A72809  41.621   9.972   7.003
 5707POPC   C4A72810  41.415   9.815   7.410
 5707POPC   C1B72811  41.348   9.661   6.210
 5707POPC   C2B72812  41.247   9.807   6.615
 5707POPC   C3B72813  41.320   9.563   6.969
 5707POPC   C4B72814  41.143   9.360   7.301
 5708POPC   NC372815  36.820  33.972   5.327
 5708POPC   PO472816  37.047  33.398   5.464
 5708POPC   GL172817  36.855  33.739   5.774
 5708POPC   GL272818  37.017  34.121   5.777
 5708POPC   C1A72819  37.053  33.807   6.177
 5708POPC   D2A72820  36.936  33.566   6.517
 5708POPC   C3A72821  37.119  33.738   6.848
 5708POPC   C4A72822  37.007  33.840   7.234
 5708POPC   C1B72823  36.814  34.257   6.154
 5708POPC   C2B72824  36.802  34.065   6.551
 5708POPC   C3B72825  36.803  34.197   6.952
 5708POPC   C4B72826  36.461  34.238   7.242
 5709POPC   NC372827   0.526  29.394   5.681
 5709POPC   PO472828   0.433  30.006   5.406
 5709POPC   GL172829   0.408  30.000   5.809
 5709POPC   GL272830   0.059  29.989   5.810
 5709POPC   C1A72831   0.540  29.816   6.192
 5709POPC   D2A72832   0.435  29.665   6.579
 5709POPC   C3A72833   0.688  29.897   6.886
 5709POPC   C4A72834   0.491  29.893   7.263
 5709POPC   C1B72835   0.124  30.170   6.211
 5709POPC   C2B72836   0.292  30.184   6.618
 5709POPC   C3B72837   0.030  30.189   6.976
 5709POPC   C4B72838   0.050  30.081   7.418
 5710POPC   NC372839   9.549  39.278   5.227
 5710POPC   PO472840  10.159  39.202   5.548
 5710POPC   GL172841   9.745  39.220   5.754
 5710POPC   GL272842   9.466  38.940   5.812
 5710POPC   C1A72843   9.668  39.347   6.181
 5710POPC   D2A72844   9.782  39.161   6.599
 5710POPC   C3A72845   9.907  39.413   6.914
 5710POPC   C4A72846   9.815  39.427   7.320
 5710POPC   C1B72847   9.388  38.934   6.266
 5710POPC   C2B72848   9.338  38.938   6.716
 5710POPC   C3B72849   9.534  39.064   7.089
 5710POPC   C4B72850   9.630  38.796   7.433
 5711POPC   NC372851  34.414  33.439   5.423
 5711POPC   PO472852  34.783  32.899   5.358
 5711POPC   GL172853  34.679  32.946   5.785
 5711POPC   GL272854  34.432  32.658   5.802
 5711POPC   C1A72855  34.617  33.178   6.178
 5711POPC   D2A72856  34.756  33.102   6.585
 5711POPC   C3A72857  34.547  33.219   6.930
 5711POPC   C4A72858  34.603  33.292   7.344
 5711POPC   C1B72859  34.608  32.648   6.231
 5711POPC   C2B72860  34.770  32.598   6.639
 5711POPC   C3B72861  34.663  32.725   7.062
 5711POPC   C4B72862  34.520  32.781   7.489
 5712POPC   NC372863  33.413  31.319   5.319
 5712POPC   PO472864  34.069  31.620   5.347
 5712POPC   GL172865  33.750  31.576   5.667
 5712POPC   GL272866  33.641  31.218   5.762
 5712POPC   C1A72867  33.924  31.529   6.074
 5712POPC   D2A72868  33.999  31.380   6.482
 5712POPC   C3A72869  33.740  31.563   6.782
 5712POPC   C4A72870  33.731  31.573   7.193
 5712POPC   C1B72871  33.692  31.073   6.183
 5712POPC   C2B72872  33.607  31.095   6.635
 5712POPC   C3B72873  33.754  31.087   7.050
 5712POPC   C4B72874  33.696  31.150   7.492
 5713POPC   NC372875  31.792   6.582   5.577
 5713POPC   PO472876  32.208   6.950   5.361
 5713POPC   GL172877  32.132   6.984   5.757
 5713POPC   GL272878  32.375   7.242   5.844
 5713POPC   C1A72879  32.045   6.741   6.148
 5713POPC   D2A72880  32.117   6.424   6.453
 5713POPC   C3A72881  32.080   6.583   6.861
 5713POPC   C4A72882  32.194   6.331   7.209
 5713POPC   C1B72883  32.519   6.915   6.087
 5713POPC   C2B72884  32.472   6.784   6.496
 5713POPC   C3B72885  32.560   6.859   6.908
 5713POPC   C4B72886  32.321   6.809   7.254
 5714POPC   NC372887  21.024   4.928   5.750
 5714POPC   PO472888  20.493   4.854   5.340
 5714POPC   GL172889  20.509   4.940   5.813
 5714POPC   GL272890  20.682   5.284   5.877
 5714POPC   C1A72891  20.337   5.149   6.226
 5714POPC   D2A72892  20.467   5.413   6.609
 5714POPC   C3A72893  20.779   5.226   6.919
 5714POPC   C4A72894  20.671   5.121   7.360
 5714POPC   C1B72895  20.854   5.147   6.320
 5714POPC   C2B72896  21.106   4.758   6.429
 5714POPC   C3B72897  21.118   4.606   6.845
 5714POPC   C4B72898  21.057   4.829   7.231
 5715POPC   NC372899  21.318  40.372   5.208
 5715POPC   PO472900  21.412  41.008   5.452
 5715POPC   GL172901  21.173  40.815   5.765
 5715POPC   GL272902  21.144  40.453   5.699
 5715POPC   C1A72903  21.172  40.969   6.189
 5715POPC   D2A72904  21.357  41.097   6.598
 5715POPC   C3A72905  21.148  40.986   6.964
 5715POPC   C4A72906  21.446  40.961   7.283
 5715POPC   C1B72907  21.115  40.376   6.155
 5715POPC   C2B72908  21.286  40.584   6.533
 5715POPC   C3B72909  21.427  40.565   6.956
 5715POPC   C4B72910  21.054  40.465   7.163
 5716POPC   NC372911   5.377   7.673   5.122
 5716POPC   PO472912   5.756   7.217   5.431
 5716POPC   GL172913   5.779   7.437   5.779
 5716POPC   GL272914   5.602   7.716   5.718
 5716POPC   C1A72915   5.787   7.331   6.194
 5716POPC   D2A72916   6.036   7.215   6.553
 5716POPC   C3A72917   5.882   7.305   6.960
 5716POPC   C4A72918   5.544   7.129   7.182
 5716POPC   C1B72919   5.636   7.816   6.147
 5716POPC   C2B72920   5.753   7.672   6.577
 5716POPC   C3B72921   5.682   7.791   7.008
 5716POPC   C4B72922   5.675   7.561   7.410
 5717POPC   NC372923  14.001  19.347   5.380
 5717POPC   PO472924  13.446  18.972   5.394
 5717POPC   GL172925  13.564  19.204   5.747
 5717POPC   GL272926  13.867  19.024   5.779
 5717POPC   C1A72927  13.534  19.193   6.209
 5717POPC   D2A72928  13.494  19.283   6.644
 5717POPC   C3A72929  13.589  18.902   6.857
 5717POPC   C4A72930  13.520  19.077   7.245
 5717POPC   C1B72931  14.007  19.289   6.100
 5717POPC   C2B72932  13.964  19.179   6.517
 5717POPC   C3B72933  13.939  19.282   6.936
 5717POPC   C4B72934  14.029  19.133   7.333
 5718POPC   NC372935  14.353  26.198   5.345
 5718POPC   PO472936  14.246  25.535   5.497
 5718POPC   GL172937  14.529  25.683   5.821
 5718POPC   GL272938  14.624  26.071   5.768
 5718POPC   C1A72939  14.396  25.721   6.278
 5718POPC   D2A72940  14.102  25.987   6.533
 5718POPC   C3A72941  14.214  26.088   6.959
 5718POPC   C4A72942  14.442  25.792   7.230
 5718POPC   C1B72943  14.591  26.295   6.169
 5718POPC   C2B72944  14.593  26.118   6.557
 5718POPC   C3B72945  14.750  26.030   6.913
 5718POPC   C4B72946  14.630  26.281   7.218
 5719POPC   NC372947  13.682  27.848   5.433
 5719POPC   PO472948  13.508  27.194   5.410
 5719POPC   GL172949  13.431  27.499   5.743
 5719POPC   GL272950  13.738  27.439   5.881
 5719POPC   C1A72951  13.405  27.590   6.225
 5719POPC   D2A72952  13.746  27.723   6.547
 5719POPC   C3A72953  13.620  27.865   6.979
 5719POPC   C4A72954  13.591  27.628   7.390
 5719POPC   C1B72955  14.005  27.367   6.213
 5719POPC   C2B72956  13.935  27.234   6.616
 5719POPC   C3B72957  13.681  27.325   6.961
 5719POPC   C4B72958  13.960  27.203   7.286
 5720POPC   NC372959  34.588  15.383   5.201
 5720POPC   PO472960  34.155  14.887   5.189
 5720POPC   GL172961  34.544  15.019   5.562
 5720POPC   GL272962  34.682  15.376   5.692
 5720POPC   C1A72963  34.541  15.045   6.055
 5720POPC   D2A72964  34.708  15.230   6.464
 5720POPC   C3A72965  34.742  14.955   6.831
 5720POPC   C4A72966  34.518  14.774   7.145
 5720POPC   C1B72967  34.541  15.611   6.067
 5720POPC   C2B72968  34.527  15.705   6.492
 5720POPC   C3B72969  34.442  15.480   6.863
 5720POPC   C4B72970  34.479  15.722   7.225
 5721POPC   NC372971   3.991  33.599   5.524
 5721POPC   PO472972   4.625  33.752   5.395
 5721POPC   GL172973   4.463  33.750   5.830
 5721POPC   GL272974   4.156  33.947   5.923
 5721POPC   C1A72975   4.450  33.735   6.288
 5721POPC   D2A72976   4.130  33.898   6.554
 5721POPC   C3A72977   4.264  34.027   6.968
 5721POPC   C4A72978   4.559  33.794   7.211
 5721POPC   C1B72979   3.986  33.568   6.164
 5721POPC   C2B72980   4.134  33.354   6.490
 5721POPC   C3B72981   4.184  33.511   6.892
 5721POPC   C4B72982   4.042  33.219   7.191
 5722POPC   NC372983  17.086   0.608   5.414
 5722POPC   PO472984  16.444   0.733   5.524
 5722POPC   GL172985  16.705   0.544   5.807
 5722POPC   GL272986  16.967   0.306   5.814
 5722POPC   C1A72987  16.818   0.586   6.215
 5722POPC   D2A72988  16.995   0.642   6.586
 5722POPC   C3A72989  16.711   0.745   6.897
 5722POPC   C4A72990  16.676   0.609   7.306
 5722POPC   C1B72991  17.054   0.106   6.219
 5722POPC   C2B72992  16.963   0.096   6.661
 5722POPC   C3B72993  16.798  44.866   7.024
 5722POPC   C4B72994  16.985  44.926   7.449
 5723POPC   NC372995  27.187   8.713   5.512
 5723POPC   PO472996  26.814   8.183   5.265
 5723POPC   GL172997  26.740   8.073   5.702
 5723POPC   GL272998  26.922   7.742   5.697
 5723POPC   C1A72999  26.617   8.159   6.143
 5723POPC   D2A73000  26.668   8.339   6.561
 5723POPC   C3A73001  26.604   8.173   6.978
 5723POPC   C4A73002  26.795   8.493   7.261
 5723POPC   C1B73003  27.073   7.962   6.052
 5723POPC   C2B73004  27.054   8.016   6.484
 5723POPC   C3B73005  26.962   7.807   6.874
 5723POPC   C4B73006  27.039   8.030   7.235
 5724POPC   NC373007  12.364  12.892   5.438
 5724POPC   PO473008  13.089  12.712   5.331
 5724POPC   GL173009  13.015  12.813   5.784
 5724POPC   GL273010  12.742  13.018   5.782
 5724POPC   C1A73011  12.834  12.766   6.230
 5724POPC   D2A73012  12.429  12.777   6.481
 5724POPC   C3A73013  12.567  12.777   6.915
 5724POPC   C4A73014  12.988  12.894   7.051
 5724POPC   C1B73015  12.574  13.205   6.157
 5724POPC   C2B73016  12.717  13.210   6.590
 5724POPC   C3B73017  12.565  13.281   7.003
 5724POPC   C4B73018  12.729  13.235   7.380
 5725POPC   NC373019  30.621  10.894   5.248
 5725POPC   PO473020  30.427  11.450   5.408
 5725POPC   GL173021  30.605  11.185   5.680
 5725POPC   GL273022  30.289  11.022   5.659
 5725POPC   C1A73023  30.802  11.123   6.081
 5725POPC   D2A73024  30.774  11.411   6.424
 5725POPC   C3A73025  30.669  11.330   6.838
 5725POPC   C4A73026  30.882  11.486   7.183
 5725POPC   C1B73027  30.314  10.990   6.080
 5725POPC   C2B73028  30.484  10.969   6.493
 5725POPC   C3B73029  30.531  10.837   6.913
 5725POPC   C4B73030  30.622  11.068   7.293
 5726POPC   NC373031  34.299  39.019   5.341
 5726POPC   PO473032  34.866  39.375   5.450
 5726POPC   GL173033  34.630  39.136   5.766
 5726POPC   GL273034  34.292  39.225   5.814
 5726POPC   C1A73035  34.567  38.962   6.188
 5726POPC   D2A73036  34.751  39.054   6.570
 5726POPC   C3A73037  34.580  38.987   6.982
 5726POPC   C4A73038  34.627  39.239   7.347
 5726POPC   C1B73039  34.138  39.207   6.234
 5726POPC   C2B73040  34.279  39.224   6.617
 5726POPC   C3B73041  34.319  39.445   6.992
 5726POPC   C4B73042  34.394  39.792   7.240
 5727POPC   NC373043  38.506  12.725   5.345
 5727POPC   PO473044  38.122  13.272   5.394
 5727POPC   GL173045  38.288  12.984   5.745
 5727POPC   GL273046  38.651  12.844   5.797
 5727POPC   C1A73047  38.284  12.732   6.138
 5727POPC   D2A73048  38.395  12.863   6.563
 5727POPC   C3A73049  38.310  12.840   7.012
 5727POPC   C4A73050  38.510  12.904   7.413
 5727POPC   C1B73051  38.758  12.542   6.141
 5727POPC   C2B73052  38.627  12.384   6.557
 5727POPC   C3B73053  38.723  12.487   6.996
 5727POPC   C4B73054  38.762  12.472   7.484
 5728POPC   NC373055  29.045   7.267   5.435
 5728POPC   PO473056  29.193   7.921   5.505
 5728POPC   GL173057  29.354   7.570   5.750
 5728POPC   GL273058  29.025   7.531   5.877
 5728POPC   C1A73059  29.409   7.446   6.214
 5728POPC   D2A73060  29.200   7.502   6.647
 5728POPC   C3A73061  29.266   7.410   7.089
 5728POPC   C4A73062  29.526   7.567   7.407
 5728POPC   C1B73063  28.886   7.376   6.279
 5728POPC   C2B73064  28.742   7.256   6.698
 5728POPC   C3B73065  28.812   7.196   7.122
 5728POPC   C4B73066  28.990   7.378   7.523
 5729POPC   NC373067  33.771  14.866   5.456
 5729POPC   PO473068  34.194  15.376   5.526
 5729POPC   GL173069  34.132  15.334   5.913
 5729POPC   GL273070  33.804  15.196   5.875
 5729POPC   C1A73071  34.054  15.469   6.325
 5729POPC   D2A73072  33.961  15.164   6.657
 5729POPC   C3A73073  33.801  15.244   7.051
 5729POPC   C4A73074  34.215  15.235   7.267
 5729POPC   C1B73075  33.616  15.107   6.272
 5729POPC   C2B73076  33.555  14.832   6.631
 5729POPC   C3B73077  33.475  14.700   7.052
 5729POPC   C4B73078  33.675  14.891   7.412
 5730POPC   NC373079  32.967  22.612   5.452
 5730POPC   PO473080  32.954  23.254   5.491
 5730POPC   GL173081  33.219  23.196   5.827
 5730POPC   GL273082  33.317  22.842   5.792
 5730POPC   C1A73083  33.030  23.041   6.186
 5730POPC   D2A73084  32.929  22.784   6.534
 5730POPC   C3A73085  33.003  22.962   6.944
 5730POPC   C4A73086  32.755  22.719   7.207
 5730POPC   C1B73087  33.395  22.688   6.254
 5730POPC   C2B73088  33.392  22.726   6.739
 5730POPC   C3B73089  33.260  22.588   7.185
 5730POPC   C4B73090  33.429  22.606   7.652
 5731POPC   NC373091  43.847  27.712   5.292
 5731POPC   PO473092  43.961  27.142   5.431
 5731POPC   GL173093  43.927  27.530   5.759
 5731POPC   GL273094  44.150  27.835   5.699
 5731POPC   C1A73095  43.707  27.791   6.089
 5731POPC   D2A73096  43.485  27.672   6.481
 5731POPC   C3A73097  43.428  27.888   6.861
 5731POPC   C4A73098  43.644  27.665   7.176
 5731POPC   C1B73099  44.242  27.843   6.140
 5731POPC   C2B73100  44.355  27.690   6.539
 5731POPC   C3B73101  44.196  27.719   6.947
 5731POPC   C4B73102  44.086  27.429   7.242
 5732POPC   NC373103  42.844   9.433   5.426
 5732POPC   PO473104  43.480   9.490   5.480
 5732POPC   GL173105  43.181   9.666   5.777
 5732POPC   GL273106  42.878   9.897   5.700
 5732POPC   C1A73107  43.012   9.579   6.183
 5732POPC   D2A73108  43.075   9.462   6.607
 5732POPC   C3A73109  43.129   9.741   6.944
 5732POPC   C4A73110  42.881   9.664   7.305
 5732POPC   C1B73111  42.929  10.069   6.122
 5732POPC   C2B73112  42.882   9.994   6.569
 5732POPC   C3B73113  42.799  10.127   7.012
 5732POPC   C4B73114  42.586  10.053   7.425
 5733POPC   NC373115  24.558  16.109   5.499
 5733POPC   PO473116  24.007  15.756   5.499
 5733POPC   GL173117  24.295  15.814   5.825
 5733POPC   GL273118  24.167  16.154   5.840
 5733POPC   C1A73119  24.525  16.015   6.199
 5733POPC   D2A73120  24.840  16.226   6.499
 5733POPC   C3A73121  24.722  16.225   6.939
 5733POPC   C4A73122  24.579  15.867   7.147
 5733POPC   C1B73123  24.111  16.335   6.229
 5733POPC   C2B73124  24.295  16.213   6.621
 5733POPC   C3B73125  24.133  16.237   7.010
 5733POPC   C4B73126  24.158  16.058   7.389
 5734POPC   NC373127  25.156  33.652   5.551
 5734POPC   PO473128  25.409  34.321   5.464
 5734POPC   GL173129  25.461  34.034   5.823
 5734POPC   GL273130  25.599  33.682   5.851
 5734POPC   C1A73131  25.266  33.944   6.205
 5734POPC   D2A73132  25.439  33.863   6.593
 5734POPC   C3A73133  25.141  33.789   6.892
 5734POPC   C4A73134  25.064  33.397   7.106
 5734POPC   C1B73135  25.502  33.459   6.241
 5734POPC   C2B73136  25.380  33.342   6.672
 5734POPC   C3B73137  25.560  33.566   7.036
 5734POPC   C4B73138  25.531  34.043   7.092
 5735POPC   NC373139  32.548   2.400   4.849
 5735POPC   PO473140  32.152   2.843   5.297
 5735POPC   GL173141  32.259   2.875   5.745
 5735POPC   GL273142  32.042   2.657   5.961
 5735POPC   C1A73143  32.389   3.008   6.177
 5735POPC   D2A73144  32.259   2.796   6.522
 5735POPC   C3A73145  32.528   2.747   6.868
 5735POPC   C4A73146  32.610   2.815   7.293
 5735POPC   C1B73147  32.047   2.360   6.330
 5735POPC   C2B73148  32.124   2.393   6.787
 5735POPC   C3B73149  32.095   2.688   7.135
 5735POPC   C4B73150  31.779   2.675   7.431
 5736POPC   NC373151   3.480  22.740   5.276
 5736POPC   PO473152   2.778  22.830   5.361
 5736POPC   GL173153   2.694  22.974   5.780
 5736POPC   GL273154   2.964  22.786   5.872
 5736POPC   C1A73155   2.545  23.110   6.222
 5736POPC   D2A73156   2.472  22.845   6.616
 5736POPC   C3A73157   2.323  22.960   7.020
 5736POPC   C4A73158   2.574  23.172   7.327
 5736POPC   C1B73159   3.045  22.960   6.284
 5736POPC   C2B73160   3.016  23.016   6.755
 5736POPC   C3B73161   2.819  22.789   7.085
 5736POPC   C4B73162   2.725  22.425   7.311
 5737POPC   NC373163   7.428  44.860   5.508
 5737POPC   PO473164   7.195  44.204   5.519
 5737POPC   GL173165   7.307  44.515   5.865
 5737POPC   GL273166   7.100  44.807   5.888
 5737POPC   C1A73167   7.463  44.739   6.248
 5737POPC   D2A73168   7.625  44.597   6.645
 5737POPC   C3A73169   7.326  44.739   6.937
 5737POPC   C4A73170   7.481  44.950   7.216
 5737POPC   C1B73171   6.942  44.597   6.218
 5737POPC   C2B73172   7.158  44.416   6.568
 5737POPC   C3B73173   7.202  44.262   7.014
 5737POPC   C4B73174   7.174  44.531   7.412
 5738POPC   NC373175  39.381  12.258   5.469
 5738POPC   PO473176  39.004  11.698   5.247
 5738POPC   GL173177  39.060  11.943   5.711
 5738POPC   GL273178  39.391  11.867   5.848
 5738POPC   C1A73179  39.201  12.285   6.074
 5738POPC   D2A73180  39.280  12.553   6.446
 5738POPC   C3A73181  39.367  12.353   6.851
 5738POPC   C4A73182  39.163  12.325   7.214
 5738POPC   C1B73183  39.459  11.869   6.265
 5738POPC   C2B73184  39.509  11.880   6.674
 5738POPC   C3B73185  39.477  11.647   7.004
 5738POPC   C4B73186  39.459  11.918   7.282
 5739POPC   NC373187  21.716  39.730   5.443
 5739POPC   PO473188  21.118  39.959   5.225
 5739POPC   GL173189  21.306  39.963   5.642
 5739POPC   GL273190  21.110  39.764   5.794
 5739POPC   C1A73191  21.461  39.991   6.102
 5739POPC   D2A73192  21.295  39.857   6.526
 5739POPC   C3A73193  21.319  40.075   6.924
 5739POPC   C4A73194  21.452  40.210   7.354
 5739POPC   C1B73195  21.033  39.527   6.161
 5739POPC   C2B73196  21.086  39.380   6.583
 5739POPC   C3B73197  21.085  39.618   6.963
 5739POPC   C4B73198  21.090  39.848   7.357
 5740POPC   NC373199  37.388  22.549   5.391
 5740POPC   PO473200  37.758  22.127   5.070
 5740POPC   GL173201  37.600  22.095   5.582
 5740POPC   GL273202  37.657  22.411   5.806
 5740POPC   C1A73203  37.559  21.962   6.089
 5740POPC   D2A73204  37.534  21.746   6.536
 5740POPC   C3A73205  37.399  21.976   6.923
 5740POPC   C4A73206  37.508  22.054   7.361
 5740POPC   C1B73207  37.844  22.364   6.234
 5740POPC   C2B73208  37.806  22.173   6.641
 5740POPC   C3B73209  37.907  22.173   7.066
 5740POPC   C4B73210  37.713  22.513   7.306
 5741POPC   NC373211  35.652   1.956   5.550
 5741POPC   PO473212  36.277   1.857   5.358
 5741POPC   GL173213  36.195   1.964   5.780
 5741POPC   GL273214  36.412   1.692   5.848
 5741POPC   C1A73215  35.977   2.119   6.174
 5741POPC   D2A73216  35.705   2.201   6.555
 5741POPC   C3A73217  35.883   2.117   6.957
 5741POPC   C4A73218  36.220   2.249   7.176
 5741POPC   C1B73219  36.318   1.447   6.193
 5741POPC   C2B73220  36.400   1.514   6.602
 5741POPC   C3B73221  36.253   1.745   6.945
 5741POPC   C4B73222  36.357   1.660   7.364
 5742POPC   NC373223  34.179   6.993   5.297
 5742POPC   PO473224  33.808   7.641   5.264
 5742POPC   GL173225  33.794   7.555   5.731
 5742POPC   GL273226  34.081   7.719   5.860
 5742POPC   C1A73227  33.711   7.465   6.208
 5742POPC   D2A73228  33.507   7.269   6.604
 5742POPC   C3A73229  33.690   7.184   7.012
 5742POPC   C4A73230  33.849   7.451   7.326
 5742POPC   C1B73231  34.182   7.692   6.305
 5742POPC   C2B73232  33.987   7.677   6.747
 5742POPC   C3B73233  34.123   7.845   7.162
 5742POPC   C4B73234  34.081   7.882   7.625
 5743POPC   NC373235  43.678  32.512   5.493
 5743POPC   PO473236  44.285  32.076   5.472
 5743POPC   GL173237  43.998  31.991   5.818
 5743POPC   GL273238  43.625  32.008   5.733
 5743POPC   C1A73239  44.075  31.918   6.254
 5743POPC   D2A73240  44.224  32.048   6.666
 5743POPC   C3A73241  44.093  31.982   7.077
 5743POPC   C4A73242  44.038  32.388   7.269
 5743POPC   C1B73243  43.658  32.276   6.111
 5743POPC   C2B73244  43.564  32.248   6.545
 5743POPC   C3B73245  43.563  32.378   6.972
 5743POPC   C4B73246  43.613  32.049   7.238
 5744POPC   NC373247  37.070  34.773   5.346
 5744POPC   PO473248  36.629  34.350   5.513
 5744POPC   GL173249  36.828  34.670   5.807
 5744POPC   GL273250  37.187  34.661   5.846
 5744POPC   C1A73251  36.902  34.775   6.258
 5744POPC   D2A73252  37.282  34.801   6.558
 5744POPC   C3A73253  37.205  34.673   7.003
 5744POPC   C4A73254  36.761  34.669   7.133
 5744POPC   C1B73255  37.302  34.399   6.199
 5744POPC   C2B73256  37.320  34.120   6.559
 5744POPC   C3B73257  37.366  34.154   7.030
 5744POPC   C4B73258  37.173  34.300   7.416
 5745POPC   NC373259  13.501  20.360   5.383
 5745POPC   PO473260  13.746  19.727   5.477
 5745POPC   GL173261  13.681  20.079   5.769
 5745POPC   GL273262  13.359  20.191   5.827
 5745POPC   C1A73263  13.701  20.073   6.209
 5745POPC   D2A73264  13.846  19.755   6.503
 5745POPC   C3A73265  13.711  19.881   6.915
 5745POPC   C4A73266  13.638  19.577   7.214
 5745POPC   C1B73267  13.135  20.167   6.200
 5745POPC   C2B73268  13.152  20.271   6.638
 5745POPC   C3B73269  13.201  20.050   7.028
 5745POPC   C4B73270  13.395  19.969   7.415
 5746POPC   NC373271  29.603  41.484   5.285
 5746POPC   PO473272  30.025  41.806   5.643
 5746POPC   GL173273  29.989  41.399   5.846
 5746POPC   GL273274  29.714  41.195   5.727
 5746POPC   C1A73275  30.091  41.201   6.242
 5746POPC   D2A73276  30.259  41.105   6.613
 5746POPC   C3A73277  30.154  41.437   6.862
 5746POPC   C4A73278  30.187  41.624   7.243
 5746POPC   C1B73279  29.592  41.330   6.161
 5746POPC   C2B73280  29.759  41.533   6.558
 5746POPC   C3B73281  29.603  41.523   7.007
 5746POPC   C4B73282  29.562  41.442   7.444
 5747POPC   NC373283  39.659  30.473   5.606
 5747POPC   PO473284  39.038  30.426   5.469
 5747POPC   GL173285  39.240  30.743   5.761
 5747POPC   GL273286  38.976  30.940   5.867
 5747POPC   C1A73287  39.516  30.724   6.161
 5747POPC   D2A73288  39.568  30.863   6.582
 5747POPC   C3A73289  39.476  30.568   6.925
 5747POPC   C4A73290  39.348  30.664   7.352
 5747POPC   C1B73291  39.015  30.678   6.248
 5747POPC   C2B73292  38.959  30.727   6.704
 5747POPC   C3B73293  38.985  30.448   7.065
 5747POPC   C4B73294  38.928  30.449   7.514
 5748POPC   NC373295   0.040  40.588   5.234
 5748POPC   PO473296  44.920  41.095   5.630
 5748POPC   GL173297  44.753  40.938   5.955
 5748POPC   GL273298  44.757  40.581   5.884
 5748POPC   C1A73299  44.790  40.815   6.357
 5748POPC   D2A73300  44.478  40.781   6.672
 5748POPC   C3A73301  44.644  40.878   7.037
 5748POPC   C4A73302  44.725  40.801   7.472
 5748POPC   C1B73303  44.552  40.356   6.245
 5748POPC   C2B73304  44.368  40.299   6.651
 5748POPC   C3B73305  44.450  40.422   7.059
 5748POPC   C4B73306  44.245  40.680   7.331
 5749POPC   NC373307  31.554  30.373   5.467
 5749POPC   PO473308  31.360  29.800   5.376
 5749POPC   GL173309  31.455  29.962   5.777
 5749POPC   GL273310  31.235  30.244   5.841
 5749POPC   C1A73311  31.521  29.854   6.202
 5749POPC   D2A73312  31.820  29.830   6.525
 5749POPC   C3A73313  31.672  29.778   6.935
 5749POPC   C4A73314  31.830  29.681   7.347
 5749POPC   C1B73315  31.555  30.379   6.124
 5749POPC   C2B73316  31.585  30.278   6.537
 5749POPC   C3B73317  31.757  30.351   6.926
 5749POPC   C4B73318  31.631  30.150   7.297
 5750POPC   NC373319  31.559   0.942   5.422
 5750POPC   PO473320  31.303   1.504   5.498
 5750POPC   GL173321  31.259   1.152   5.786
 5750POPC   GL273322  31.314   0.753   5.830
 5750POPC   C1A73323  31.483   1.159   6.131
 5750POPC   D2A73324  31.569   0.989   6.476
 5750POPC   C3A73325  31.601   1.149   6.842
 5750POPC   C4A73326  31.664   1.253   7.233
 5750POPC   C1B73327  31.046   0.866   6.143
 5750POPC   C2B73328  31.072   0.995   6.532
 5750POPC   C3B73329  31.283   0.755   6.820
 5750POPC   C4B73330  31.293   0.908   7.202
 5751POPC   NC373331  29.488  18.395   5.609
 5751POPC   PO473332  29.009  18.014   5.281
 5751POPC   GL173333  28.943  18.411   5.754
 5751POPC   GL273334  29.226  18.483   6.011
 5751POPC   C1A73335  28.813  18.374   6.256
 5751POPC   D2A73336  28.961  18.466   6.719
 5751POPC   C3A73337  28.719  18.471   7.110
 5751POPC   C4A73338  28.789  18.175   7.426
 5751POPC   C1B73339  29.359  18.497   6.408
 5751POPC   C2B73340  29.388  18.131   6.703
 5751POPC   C3B73341  29.175  18.146   7.074
 5751POPC   C4B73342  29.193  18.545   7.262
 5752POPC   NC373343  24.913  19.461   5.391
 5752POPC   PO473344  24.529  18.823   5.468
 5752POPC   GL173345  24.512  18.995   5.845
 5752POPC   GL273346  24.808  19.166   5.816
 5752POPC   C1A73347  24.178  19.116   6.144
 5752POPC   D2A73348  24.028  19.348   6.507
 5752POPC   C3A73349  24.242  19.152   6.832
 5752POPC   C4A73350  24.454  19.089   7.222
 5752POPC   C1B73351  24.657  19.300   6.235
 5752POPC   C2B73352  24.766  19.183   6.660
 5752POPC   C3B73353  24.793  19.403   7.043
 5752POPC   C4B73354  24.765  19.423   7.528
 5753POPC   NC373355  33.540   4.478   5.446
 5753POPC   PO473356  32.987   4.192   5.135
 5753POPC   GL173357  32.919   4.284   5.602
 5753POPC   GL273358  33.055   4.619   5.678
 5753POPC   C1A73359  32.756   4.362   6.059
 5753POPC   D2A73360  32.844   4.567   6.476
 5753POPC   C3A73361  32.708   4.353   6.849
 5753POPC   C4A73362  32.856   4.406   7.264
 5753POPC   C1B73363  33.249   4.549   6.091
 5753POPC   C2B73364  33.334   4.711   6.491
 5753POPC   C3B73365  33.190   4.580   6.890
 5753POPC   C4B73366  33.202   4.779   7.288
 5754POPC   NC373367   9.986  18.127   5.355
 5754POPC   PO473368   9.618  18.694   5.437
 5754POPC   GL173369   9.623  18.455   5.827
 5754POPC   GL273370   9.625  18.081   5.731
 5754POPC   C1A73371   9.705  18.508   6.284
 5754POPC   D2A73372   9.963  18.422   6.658
 5754POPC   C3A73373   9.822  18.444   7.098
 5754POPC   C4A73374   9.682  18.543   7.524
 5754POPC   C1B73375   9.455  18.065   6.138
 5754POPC   C2B73376   9.626  18.057   6.553
 5754POPC   C3B73377   9.736  17.953   6.989
 5754POPC   C4B73378   9.504  18.076   7.346
 5755POPC   NC373379  30.507  34.997   5.422
 5755POPC   PO473380  30.380  35.703   5.306
 5755POPC   GL173381  30.589  35.528   5.689
 5755POPC   GL273382  30.321  35.343   5.794
 5755POPC   C1A73383  30.652  35.619   6.160
 5755POPC   D2A73384  30.874  35.795   6.509
 5755POPC   C3A73385  30.756  35.540   6.852
 5755POPC   C4A73386  30.425  35.497   7.121
 5755POPC   C1B73387  30.648  35.115   6.046
 5755POPC   C2B73388  30.662  35.172   6.479
 5755POPC   C3B73389  30.437  35.062   6.835
 5755POPC   C4B73390  30.526  34.988   7.230
 5756POPC   NC373391  25.270   4.344   5.086
 5756POPC   PO473392  25.493   4.066   5.654
 5756POPC   GL173393  25.251   4.280   5.874
 5756POPC   GL273394  25.005   3.986   5.863
 5756POPC   C1A73395  25.372   4.448   6.286
 5756POPC   D2A73396  25.121   4.383   6.630
 5756POPC   C3A73397  25.193   4.607   6.979
 5756POPC   C4A73398  25.569   4.572   7.155
 5756POPC   C1B73399  25.267   3.960   6.277
 5756POPC   C2B73400  25.538   4.089   6.644
 5756POPC   C3B73401  25.409   4.071   7.051
 5756POPC   C4B73402  24.963   4.140   7.046
 5757POPC   NC373403   7.101  16.215   5.445
 5757POPC   PO473404   7.659  15.757   5.391
 5757POPC   GL173405   7.515  15.930   5.807
 5757POPC   GL273406   7.789  16.143   5.905
 5757POPC   C1A73407   7.468  15.998   6.290
 5757POPC   D2A73408   7.285  16.136   6.699
 5757POPC   C3A73409   7.263  16.017   7.128
 5757POPC   C4A73410   7.027  15.770   7.328
 5757POPC   C1B73411   7.866  16.326   6.303
 5757POPC   C2B73412   7.793  16.535   6.703
 5757POPC   C3B73413   7.557  16.422   7.080
 5757POPC   C4B73414   7.511  16.451   7.548
 5758POPC   NC373415  35.508  15.597   5.393
 5758POPC   PO473416  35.225  16.200   5.537
 5758POPC   GL173417  35.476  15.957   5.843
 5758POPC   GL273418  35.346  15.629   5.947
 5758POPC   C1A73419  35.526  15.934   6.322
 5758POPC   D2A73420  35.695  16.121   6.714
 5758POPC   C3A73421  35.396  16.042   7.046
 5758POPC   C4A73422  35.247  16.040   7.492
 5758POPC   C1B73423  35.255  15.500   6.402
 5758POPC   C2B73424  35.484  15.599   6.800
 5758POPC   C3B73425  35.552  15.588   7.248
 5758POPC   C4B73426  35.225  15.544   7.519
 5759POPC   NC373427  16.866  33.024   5.205
 5759POPC   PO473428  16.832  32.295   5.325
 5759POPC   GL173429  16.763  32.161   5.765
 5759POPC   GL273430  16.493  31.934   5.733
 5759POPC   C1A73431  16.711  32.375   6.208
 5759POPC   D2A73432  16.426  32.358   6.607
 5759POPC   C3A73433  16.616  32.395   7.037
 5759POPC   C4A73434  17.062  32.454   7.194
 5759POPC   C1B73435  16.351  32.037   6.162
 5759POPC   C2B73436  16.321  31.837   6.577
 5759POPC   C3B73437  16.225  31.988   7.011
 5759POPC   C4B73438  16.341  32.208   7.434
 5760POPC   NC373439  10.762  31.791   5.417
 5760POPC   PO473440  10.274  31.255   5.391
 5760POPC   GL173441  10.446  31.392   5.758
 5760POPC   GL273442  10.404  31.719   5.832
 5760POPC   C1A73443  10.435  31.345   6.177
 5760POPC   D2A73444  10.747  31.368   6.479
 5760POPC   C3A73445  10.577  31.392   6.851
 5760POPC   C4A73446  10.545  31.520   7.258
 5760POPC   C1B73447  10.741  31.776   6.150
 5760POPC   C2B73448  10.756  31.909   6.612
 5760POPC   C3B73449  10.702  31.959   7.072
 5760POPC   C4B73450  10.399  31.999   7.411
 5761POPC   NC373451   2.831  20.638   5.349
 5761POPC   PO473452   2.251  20.511   5.149
 5761POPC   GL173453   2.465  20.748   5.675
 5761POPC   GL273454   2.820  20.651   5.841
 5761POPC   C1A73455   2.515  20.920   6.138
 5761POPC   D2A73456   2.566  20.671   6.549
 5761POPC   C3A73457   2.471  20.879   6.932
 5761POPC   C4A73458   2.730  20.643   7.229
 5761POPC   C1B73459   3.006  20.376   6.146
 5761POPC   C2B73460   2.805  20.183   6.500
 5761POPC   C3B73461   2.761  20.275   6.893
 5761POPC   C4B73462   3.168  20.411   7.028
 5762POPC   NC373463   4.933   9.254   5.520
 5762POPC   PO473464   5.471   8.928   5.575
 5762POPC   GL173465   5.230   8.909   5.930
 5762POPC   GL273466   5.009   8.645   5.834
 5762POPC   C1A73467   5.068   9.206   6.270
 5762POPC   D2A73468   4.964   9.175   6.724
 5762POPC   C3A73469   5.173   8.875   6.930
 5762POPC   C4A73470   5.322   9.074   7.291
 5762POPC   C1B73471   4.862   8.724   6.269
 5762POPC   C2B73472   4.662   8.754   6.672
 5762POPC   C3B73473   4.720   8.803   7.128
 5762POPC   C4B73474   5.040   8.635   7.369
 5763POPC   NC373475  12.573  22.226   5.302
 5763POPC   PO473476  12.001  21.999   5.295
 5763POPC   GL173477  11.948  22.009   5.734
 5763POPC   GL273478  11.603  21.944   5.855
 5763POPC   C1A73479  12.195  22.020   6.101
 5763POPC   D2A73480  12.316  22.313   6.422
 5763POPC   C3A73481  12.064  22.421   6.784
 5763POPC   C4A73482  12.133  22.404   7.227
 5763POPC   C1B73483  11.733  22.183   6.222
 5763POPC   C2B73484  11.964  21.959   6.560
 5763POPC   C3B73485  11.920  21.977   6.976
 5763POPC   C4B73486  11.664  22.287   7.117
 5764POPC   NC373487   1.526  22.248   5.480
 5764POPC   PO473488   1.092  21.817   5.284
 5764POPC   GL173489   1.146  22.038   5.719
 5764POPC   GL273490   0.914  22.319   5.803
 5764POPC   C1A73491   1.129  21.903   6.153
 5764POPC   D2A73492   1.152  21.784   6.585
 5764POPC   C3A73493   1.002  22.081   6.868
 5764POPC   C4A73494   1.161  22.105   7.256
 5764POPC   C1B73495   1.188  22.412   6.172
 5764POPC   C2B73496   1.390  22.280   6.551
 5764POPC   C3B73497   1.328  22.481   6.922
 5764POPC   C4B73498   1.163  22.613   7.293
 5765POPC   NC373499  18.756  12.579   5.090
 5765POPC   PO473500  18.391  13.170   5.316
 5765POPC   GL173501  18.381  12.859   5.680
 5765POPC   GL273502  18.094  12.979   5.890
 5765POPC   C1A73503  18.445  12.745   6.153
 5765POPC   D2A73504  18.262  12.676   6.582
 5765POPC   C3A73505  18.403  13.026   6.807
 5765POPC   C4A73506  18.785  13.013   6.995
 5765POPC   C1B73507  17.926  12.890   6.260
 5765POPC   C2B73508  17.880  13.032   6.667
 5765POPC   C3B73509  17.981  13.028   7.098
 5765POPC   C4B73510  18.017  12.890   7.502
 5766POPC   NC373511  41.029   3.845   5.434
 5766POPC   PO473512  40.482   3.382   5.361
 5766POPC   GL173513  40.497   3.553   5.788
 5766POPC   GL273514  40.825   3.710   5.878
 5766POPC   C1A73515  40.487   3.599   6.241
 5766POPC   D2A73516  40.679   3.830   6.569
 5766POPC   C3A73517  40.709   3.513   6.875
 5766POPC   C4A73518  40.755   3.542   7.313
 5766POPC   C1B73519  40.955   3.392   6.197
 5766POPC   C2B73520  41.087   3.155   6.584
 5766POPC   C3B73521  41.098   3.219   7.046
 5766POPC   C4B73522  41.056   3.200   7.517
 5767POPC   NC373523  34.887  38.209   5.518
 5767POPC   PO473524  34.279  38.566   5.425
 5767POPC   GL173525  34.458  38.650   5.806
 5767POPC   GL273526  34.830  38.654   5.848
 5767POPC   C1A73527  34.553  38.449   6.211
 5767POPC   D2A73528  34.564  38.158   6.517
 5767POPC   C3A73529  34.403  38.297   6.906
 5767POPC   C4A73530  34.292  38.575   7.242
 5767POPC   C1B73531  34.985  38.695   6.287
 5767POPC   C2B73532  34.804  38.578   6.704
 5767POPC   C3B73533  34.800  38.551   7.142
 5767POPC   C4B73534  34.731  38.226   7.445
 5768POPC   NC373535  28.078  25.399   5.215
 5768POPC   PO473536  27.470  25.082   5.345
 5768POPC   GL173537  27.606  25.138   5.790
 5768POPC   GL273538  27.594  25.493   5.813
 5768POPC   C1A73539  27.515  25.173   6.259
 5768POPC   D2A73540  27.553  24.984   6.679
 5768POPC   C3A73541  27.368  25.285   7.006
 5768POPC   C4A73542  27.529  25.612   7.258
 5768POPC   C1B73543  27.930  25.427   6.111
 5768POPC   C2B73544  27.975  25.282   6.519
 5768POPC   C3B73545  27.863  25.342   6.912
 5768POPC   C4B73546  28.005  25.344   7.314
 5769POPC   NC373547  13.455   9.711   5.340
 5769POPC   PO473548  14.173   9.793   5.475
 5769POPC   GL173549  13.770   9.877   5.739
 5769POPC   GL273550  13.483   9.612   5.833
 5769POPC   C1A73551  13.585   9.981   6.156
 5769POPC   D2A73552  13.760   9.775   6.543
 5769POPC   C3A73553  13.499   9.787   6.915
 5769POPC   C4A73554  13.313   9.675   7.307
 5769POPC   C1B73555  13.562   9.375   6.233
 5769POPC   C2B73556  13.645   9.300   6.685
 5769POPC   C3B73557  13.862   9.431   7.058
 5769POPC   C4B73558  14.087   9.345   7.458
 5770POPC   NC373559   9.274  40.000   5.252
 5770POPC   PO473560   9.828  39.641   5.165
 5770POPC   GL173561   9.697  39.731   5.612
 5770POPC   GL273562   9.420  39.966   5.728
 5770POPC   C1A73563   9.782  39.843   6.069
 5770POPC   D2A73564   9.624  39.754   6.488
 5770POPC   C3A73565   9.885  39.913   6.802
 5770POPC   C4A73566   9.786  39.926   7.222
 5770POPC   C1B73567   9.444  40.255   6.078
 5770POPC   C2B73568   9.688  40.268   6.466
 5770POPC   C3B73569   9.508  40.250   6.903
 5770POPC   C4B73570   9.623  40.421   7.286
 5771POPC   NC373571  21.216  20.156   5.110
 5771POPC   PO473572  20.925  19.704   5.531
 5771POPC   GL173573  20.573  19.755   5.810
 5771POPC   GL273574  20.410  19.438   5.858
 5771POPC   C1A73575  20.523  19.905   6.252
 5771POPC   D2A73576  20.668  19.963   6.688
 5771POPC   C3A73577  20.804  19.742   7.087
 5771POPC   C4A73578  20.491  19.792   7.448
 5771POPC   C1B73579  20.732  19.448   6.208
 5771POPC   C2B73580  20.682  19.425   6.679
 5771POPC   C3B73581  20.463  19.370   7.109
 5771POPC   C4B73582  20.702  19.337   7.518
 5772POPC   NC373583  10.486  14.400   5.221
 5772POPC   PO473584  10.785  14.184   5.789
 5772POPC   GL173585  10.420  14.313   5.988
 5772POPC   GL273586  10.515  14.626   5.894
 5772POPC   C1A73587  10.384  14.437   6.428
 5772POPC   D2A73588  10.645  14.261   6.760
 5772POPC   C3A73589  10.419  13.954   6.957
 5772POPC   C4A73590  10.274  14.150   7.294
 5772POPC   C1B73591  10.825  14.657   6.263
 5772POPC   C2B73592  10.762  14.768   6.697
 5772POPC   C3B73593  10.454  14.675   7.066
 5772POPC   C4B73594  10.585  14.584   7.513
 5773POPC   NC373595  25.517   5.284   5.321
 5773POPC   PO473596  25.121   4.736   5.289
 5773POPC   GL173597  25.155   5.011   5.688
 5773POPC   GL273598  25.392   5.302   5.811
 5773POPC   C1A73599  25.320   4.908   6.104
 5773POPC   D2A73600  25.253   4.909   6.547
 5773POPC   C3A73601  25.475   5.064   6.891
 5773POPC   C4A73602  25.384   5.005   7.315
 5773POPC   C1B73603  25.312   5.388   6.274
 5773POPC   C2B73604  25.045   5.387   6.660
 5773POPC   C3B73605  25.019   5.359   7.121
 5773POPC   C4B73606  25.285   5.460   7.481
 5774POPC   NC373607  38.998  29.330   5.347
 5774POPC   PO473608  39.501  28.929   5.309
 5774POPC   GL173609  39.220  28.987   5.661
 5774POPC   GL273610  39.276  29.281   5.811
 5774POPC   C1A73611  39.102  28.890   6.091
 5774POPC   D2A73612  38.970  29.029   6.485
 5774POPC   C3A73613  39.300  29.039   6.779
 5774POPC   C4A73614  39.222  28.880   7.183
 5774POPC   C1B73615  39.271  29.398   6.232
 5774POPC   C2B73616  39.083  29.525   6.612
 5774POPC   C3B73617  39.214  29.516   7.013
 5774POPC   C4B73618  39.524  29.319   7.187
 5775POPC   NC373619  34.908   3.246   5.529
 5775POPC   PO473620  34.325   3.592   5.407
 5775POPC   GL173621  34.521   3.539   5.805
 5775POPC   GL273622  34.810   3.695   5.743
 5775POPC   C1A73623  34.472   3.461   6.260
 5775POPC   D2A73624  34.673   3.596   6.644
 5775POPC   C3A73625  34.355   3.627   6.926
 5775POPC   C4A73626  34.318   3.484   7.380
 5775POPC   C1B73627  34.878   3.755   6.182
 5775POPC   C2B73628  35.076   3.903   6.541
 5775POPC   C3B73629  35.118   3.714   6.928
 5775POPC   C4B73630  34.787   3.567   7.179
 5776POPC   NC373631  25.657  22.370   5.409
 5776POPC   PO473632  26.315  22.343   5.497
 5776POPC   GL173633  26.195  22.306   5.890
 5776POPC   GL273634  25.884  22.149   5.836
 5776POPC   C1A73635  26.188  22.061   6.248
 5776POPC   D2A73636  26.076  21.905   6.628
 5776POPC   C3A73637  26.232  22.089   7.000
 5776POPC   C4A73638  26.087  22.396   7.264
 5776POPC   C1B73639  25.650  21.974   6.190
 5776POPC   C2B73640  25.576  21.630   6.485
 5776POPC   C3B73641  25.630  21.846   6.856
 5776POPC   C4B73642  25.774  21.975   7.257
 5777POPC   NC373643   1.758  16.328   5.206
 5777POPC   PO473644   2.219  15.977   5.452
 5777POPC   GL173645   2.031  16.138   5.849
 5777POPC   GL273646   1.679  16.282   5.727
 5777POPC   C1A73647   2.067  16.036   6.329
 5777POPC   D2A73648   1.966  15.875   6.777
 5777POPC   C3A73649   2.043  16.165   7.144
 5777POPC   C4A73650   2.070  16.243   7.604
 5777POPC   C1B73651   1.607  16.160   6.155
 5777POPC   C2B73652   1.698  16.293   6.589
 5777POPC   C3B73653   1.558  16.113   6.973
 5777POPC   C4B73654   1.584  16.240   7.402
 5778POPC   NC373655  29.053  42.316   5.356
 5778POPC   PO473656  29.522  42.636   5.399
 5778POPC   GL173657  29.471  42.454   5.790
 5778POPC   GL273658  29.312  42.131   5.819
 5778POPC   C1A73659  29.494  42.373   6.239
 5778POPC   D2A73660  29.212  42.425   6.582
 5778POPC   C3A73661  29.302  42.547   6.996
 5778POPC   C4A73662  29.216  42.417   7.432
 5778POPC   C1B73663  29.095  42.022   6.233
 5778POPC   C2B73664  28.948  41.988   6.669
 5778POPC   C3B73665  28.913  42.112   7.126
 5778POPC   C4B73666  28.837  42.101   7.603
 5779POPC   NC373667   4.237  44.195   5.414
 5779POPC   PO473668   4.475  44.814   5.178
 5779POPC   GL173669   4.438  44.743   5.641
 5779POPC   GL273670   4.518   0.061   5.777
 5779POPC   C1A73671   4.512  44.492   6.054
 5779POPC   D2A73672   4.549  44.314   6.495
 5779POPC   C3A73673   4.429  44.565   6.867
 5779POPC   C4A73674   4.254  44.665   7.269
 5779POPC   C1B73675   4.382  44.990   6.220
 5779POPC   C2B73676   4.412   0.095   6.685
 5779POPC   C3B73677   4.436   0.137   7.147
 5779POPC   C4B73678   4.372   0.015   7.607
 5780POPC   NC373679  27.923   5.080   5.487
 5780POPC   PO473680  28.484   5.323   5.303
 5780POPC   GL173681  28.416   5.177   5.734
 5780POPC   GL273682  28.289   4.844   5.757
 5780POPC   C1A73683  28.452   5.284   6.180
 5780POPC   D2A73684  28.258   5.363   6.581
 5780POPC   C3A73685  28.475   5.235   6.956
 5780POPC   C4A73686  28.843   5.194   7.169
 5780POPC   C1B73687  28.455   4.756   6.181
 5780POPC   C2B73688  28.372   4.855   6.628
 5780POPC   C3B73689  28.497   4.711   7.074
 5780POPC   C4B73690  28.509   4.650   7.524
 5781POPC   NC373691   2.921  24.316   5.532
 5781POPC   PO473692   2.680  24.954   5.618
 5781POPC   GL173693   2.771  24.707   5.898
 5781POPC   GL273694   3.131  24.695   5.851
 5781POPC   C1A73695   2.539  24.632   6.280
 5781POPC   D2A73696   2.443  24.863   6.670
 5781POPC   C3A73697   2.544  24.674   7.071
 5781POPC   C4A73698   2.466  24.780   7.522
 5781POPC   C1B73699   3.018  24.429   6.239
 5781POPC   C2B73700   2.887  24.602   6.647
 5781POPC   C3B73701   3.048  24.587   7.026
 5781POPC   C4B73702   3.278  24.235   7.154
 5782POPC   NC373703   7.881  32.829   5.448
 5782POPC   PO473704   8.254  32.155   5.314
 5782POPC   GL173705   8.167  32.154   5.745
 5782POPC   GL273706   8.133  32.482   5.722
 5782POPC   C1A73707   7.978  32.301   6.182
 5782POPC   D2A73708   7.785  32.163   6.581
 5782POPC   C3A73709   8.124  32.122   6.861
 5782POPC   C4A73710   8.215  32.302   7.255
 5782POPC   C1B73711   8.452  32.467   6.030
 5782POPC   C2B73712   8.384  32.428   6.482
 5782POPC   C3B73713   8.572  32.383   6.888
 5782POPC   C4B73714   8.651  32.552   7.309
 5783POPC   NC373715  30.877   1.328   5.499
 5783POPC   PO473716  30.280   1.034   5.439
 5783POPC   GL173717  30.510   1.109   5.831
 5783POPC   GL273718  30.595   1.448   5.912
 5783POPC   C1A73719  30.608   1.092   6.284
 5783POPC   D2A73720  30.602   0.851   6.664
 5783POPC   C3A73721  30.621   1.131   6.953
 5783POPC   C4A73722  30.765   1.262   7.340
 5783POPC   C1B73723  30.983   1.426   6.156
 5783POPC   C2B73724  30.878   1.471   6.579
 5783POPC   C3B73725  31.099   1.334   6.947
 5783POPC   C4B73726  31.231   1.459   7.369
 5784POPC   NC373727   8.528  20.956   5.400
 5784POPC   PO473728   8.223  21.580   5.296
 5784POPC   GL173729   8.170  21.705   5.718
 5784POPC   GL273730   8.449  21.537   5.808
 5784POPC   C1A73731   8.089  21.598   6.178
 5784POPC   D2A73732   8.272  21.453   6.582
 5784POPC   C3A73733   8.068  21.524   7.005
 5784POPC   C4A73734   8.269  21.495   7.424
 5784POPC   C1B73735   8.371  21.146   6.096
 5784POPC   C2B73736   8.458  20.970   6.532
 5784POPC   C3B73737   8.323  21.079   6.975
 5784POPC   C4B73738   8.427  21.012   7.409
 5785POPC   NC373739  40.191  19.590   5.453
 5785POPC   PO473740  39.746  20.142   5.413
 5785POPC   GL173741  39.967  19.938   5.791
 5785POPC   GL273742  40.321  20.036   5.801
 5785POPC   C1A73743  40.127  19.731   6.202
 5785POPC   D2A73744  40.173  19.468   6.598
 5785POPC   C3A73745  40.103  19.733   6.989
 5785POPC   C4A73746  39.660  19.685   7.132
 5785POPC   C1B73747  40.366  20.286   6.201
 5785POPC   C2B73748  40.283  20.439   6.633
 5785POPC   C3B73749  40.213  20.323   7.069
 5785POPC   C4B73750  39.840  20.144   7.197
 5786POPC   NC373751   7.005   1.206   5.390
 5786POPC   PO473752   7.599   1.170   5.245
 5786POPC   GL173753   7.496   1.089   5.728
 5786POPC   GL273754   7.129   1.039   5.874
 5786POPC   C1A73755   7.642   1.182   6.198
 5786POPC   D2A73756   7.801   1.195   6.658
 5786POPC   C3A73757   7.536   1.331   7.031
 5786POPC   C4A73758   7.259   1.359   7.422
 5786POPC   C1B73759   7.056   0.680   6.192
 5786POPC   C2B73760   7.132   0.678   6.663
 5786POPC   C3B73761   7.139   0.975   7.049
 5786POPC   C4B73762   6.792   1.201   7.279
 5787POPC   NC373763  31.156   7.825   5.690
 5787POPC   PO473764  31.564   7.608   5.232
 5787POPC   GL173765  31.509   7.404   5.651
 5787POPC   GL273766  31.167   7.315   5.725
 5787POPC   C1A73767  31.473   7.432   6.131
 5787POPC   D2A73768  31.560   7.610   6.551
 5787POPC   C3A73769  31.661   7.380   6.925
 5787POPC   C4A73770  31.538   7.430   7.368
 5787POPC   C1B73771  31.043   7.173   6.180
 5787POPC   C2B73772  31.238   7.192   6.629
 5787POPC   C3B73773  31.192   7.181   7.107
 5787POPC   C4B73774  31.071   7.278   7.584
 5788POPC   NC373775  31.253   3.381   5.173
 5788POPC   PO473776  30.670   3.676   5.080
 5788POPC   GL173777  30.677   3.587   5.812
 5788POPC   GL273778  30.342   3.716   5.945
 5788POPC   C1A73779  30.910   3.743   6.193
 5788POPC   D2A73780  31.121   3.565   6.563
 5788POPC   C3A73781  31.008   3.787   6.925
 5788POPC   C4A73782  30.817   3.707   7.282
 5788POPC   C1B73783  30.479   3.470   6.288
 5788POPC   C2B73784  30.607   3.596   6.680
 5788POPC   C3B73785  30.428   3.481   7.064
 5788POPC   C4B73786  30.543   3.270   7.425
 5789POPC   NC373787  11.606  32.291   5.609
 5789POPC   PO473788  12.191  32.101   5.217
 5789POPC   GL173789  12.106  31.989   5.668
 5789POPC   GL273790  12.158  32.310   5.798
 5789POPC   C1A73791  11.977  31.960   6.151
 5789POPC   D2A73792  11.704  32.045   6.488
 5789POPC   C3A73793  11.804  31.805   6.845
 5789POPC   C4A73794  11.955  32.069   7.163
 5789POPC   C1B73795  11.992  32.483   6.184
 5789POPC   C2B73796  12.059  32.664   6.588
 5789POPC   C3B73797  12.044  32.561   7.004
 5789POPC   C4B73798  11.768  32.726   7.277
 5790POPC   NC373799  11.649  19.249   5.544
 5790POPC   PO473800  11.001  18.998   5.457
 5790POPC   GL173801  11.253  18.998   5.832
 5790POPC   GL273802  11.307  19.354   5.926
 5790POPC   C1A73803  11.364  18.925   6.275
 5790POPC   D2A73804  11.416  19.144   6.675
 5790POPC   C3A73805  11.490  18.895   7.035
 5790POPC   C4A73806  11.258  18.543   7.160
 5790POPC   C1B73807  11.656  19.347   6.230
 5790POPC   C2B73808  11.807  19.477   6.655
 5790POPC   C3B73809  11.630  19.422   7.080
 5790POPC   C4B73810  11.773  19.408   7.500
 5791POPC   NC373811  34.860  30.683   5.458
 5791POPC   PO473812  35.499  30.777   5.509
 5791POPC   GL173813  35.614  30.741   5.906
 5791POPC   GL273814  35.892  30.511   5.890
 5791POPC   C1A73815  35.297  30.791   6.235
 5791POPC   D2A73816  35.026  30.751   6.587
 5791POPC   C3A73817  35.201  30.866   6.938
 5791POPC   C4A73818  35.463  30.756   7.264
 5791POPC   C1B73819  35.551  30.313   6.163
 5791POPC   C2B73820  35.376  30.350   6.542
 5791POPC   C3B73821  35.590  30.420   6.907
 5791POPC   C4B73822  35.873  30.453   7.276
 5792POPC   NC373823  34.146  23.389   5.535
 5792POPC   PO473824  33.709  23.788   5.238
 5792POPC   GL173825  33.794  23.690   5.718
 5792POPC   GL273826  34.088  23.867   5.765
 5792POPC   C1A73827  33.929  23.555   6.170
 5792POPC   D2A73828  33.678  23.575   6.567
 5792POPC   C3A73829  33.768  23.635   6.995
 5792POPC   C4A73830  33.964  23.276   7.181
 5792POPC   C1B73831  33.996  24.073   6.149
 5792POPC   C2B73832  34.087  23.910   6.546
 5792POPC   C3B73833  34.209  23.529   6.739
 5792POPC   C4B73834  34.263  23.701   7.139
 5793POPC   NC373835  32.614   6.128   5.234
 5793POPC   PO473836  32.879   5.556   5.088
 5793POPC   GL173837  33.015   5.731   5.573
 5793POPC   GL273838  33.072   6.069   5.644
 5793POPC   C1A73839  33.122   5.630   6.065
 5793POPC   D2A73840  32.931   5.644   6.522
 5793POPC   C3A73841  33.115   5.669   6.967
 5793POPC   C4A73842  33.055   5.765   7.431
 5793POPC   C1B73843  32.990   6.154   6.067
 5793POPC   C2B73844  33.129   6.145   6.498
 5793POPC   C3B73845  33.005   6.158   6.919
 5793POPC   C4B73846  33.131   6.249   7.308
 5794POPC   NC373847  23.388  18.353   5.373
 5794POPC   PO473848  24.027  18.048   5.387
 5794POPC   GL173849  23.779  18.316   5.720
 5794POPC   GL273850  23.449  18.193   5.844
 5794POPC   C1A73851  23.709  18.491   6.153
 5794POPC   D2A73852  23.663  18.306   6.558
 5794POPC   C3A73853  24.032  18.370   6.789
 5794POPC   C4A73854  24.147  18.704   7.087
 5794POPC   C1B73855  23.420  17.959   6.218
 5794POPC   C2B73856  23.293  17.969   6.653
 5794POPC   C3B73857  23.381  18.216   7.040
 5794POPC   C4B73858  23.419  17.925   7.374
 5795POPC   NC373859  38.608  34.824   5.165
 5795POPC   PO473860  38.694  34.247   5.391
 5795POPC   GL173861  38.516  34.259   5.772
 5795POPC   GL273862  38.570  34.622   5.771
 5795POPC   C1A73863  38.611  34.181   6.194
 5795POPC   D2A73864  38.661  34.379   6.590
 5795POPC   C3A73865  38.538  34.191   6.955
 5795POPC   C4A73866  38.314  34.389   7.332
 5795POPC   C1B73867  38.295  34.579   6.146
 5795POPC   C2B73868  38.217  34.646   6.583
 5795POPC   C3B73869  38.432  34.716   6.950
 5795POPC   C4B73870  38.238  34.893   7.300
 5796POPC   NC373871  26.469  14.015   5.292
 5796POPC   PO473872  26.890  14.510   5.290
 5796POPC   GL173873  26.850  14.605   5.741
 5796POPC   GL273874  26.923  14.258   5.784
 5796POPC   C1A73875  26.604  14.578   6.169
 5796POPC   D2A73876  26.532  14.781   6.604
 5796POPC   C3A73877  26.566  14.566   7.037
 5796POPC   C4A73878  26.444  14.540   7.525
 5796POPC   C1B73879  27.080  14.397   6.172
 5796POPC   C2B73880  26.908  14.415   6.588
 5796POPC   C3B73881  27.011  14.310   6.994
 5796POPC   C4B73882  27.286  14.378   7.274
 5797POPC   NC373883  26.548   4.627   5.421
 5797POPC   PO473884  27.183   4.274   5.474
 5797POPC   GL173885  27.090   4.235   5.854
 5797POPC   GL273886  26.735   4.307   5.795
 5797POPC   C1A73887  26.984   4.275   6.272
 5797POPC   D2A73888  26.705   4.411   6.583
 5797POPC   C3A73889  26.832   4.303   6.982
 5797POPC   C4A73890  26.802   4.569   7.338
 5797POPC   C1B73891  26.492   4.190   6.144
 5797POPC   C2B73892  26.540   3.929   6.520
 5797POPC   C3B73893  26.399   4.039   6.921
 5797POPC   C4B73894  26.463   4.211   7.333
 5798POPC   NC373895  21.368  19.478   5.469
 5798POPC   PO473896  21.798  19.928   5.216
 5798POPC   GL173897  21.550  19.825   5.757
 5798POPC   GL273898  21.719  19.606   6.009
 5798POPC   C1A73899  21.208  19.701   6.091
 5798POPC   D2A73900  21.099  19.667   6.513
 5798POPC   C3A73901  21.427  19.677   6.795
 5798POPC   C4A73902  21.350  19.793   7.220
 5798POPC   C1B73903  21.577  19.995   6.250
 5798POPC   C2B73904  21.573  20.173   6.632
 5798POPC   C3B73905  21.577  20.242   7.056
 5798POPC   C4B73906  21.754  20.087   7.378
 5799POPC   NC373907  39.425  15.587   5.385
 5799POPC   PO473908  39.080  15.074   5.112
 5799POPC   GL173909  39.200  15.151   5.573
 5799POPC   GL273910  39.092  15.444   5.781
 5799POPC   C1A73911  39.226  14.944   5.992
 5799POPC   D2A73912  39.097  15.002   6.423
 5799POPC   C3A73913  39.269  14.818   6.771
 5799POPC   C4A73914  39.179  14.915   7.229
 5799POPC   C1B73915  38.927  15.423   6.193
 5799POPC   C2B73916  39.127  15.488   6.580
 5799POPC   C3B73917  39.176  15.366   6.988
 5799POPC   C4B73918  38.970  15.511   7.318
 5800POPC   NC373919  13.768  25.145   5.445
 5800POPC   PO473920  13.386  25.699   5.541
 5800POPC   GL173921  13.478  25.377   5.792
 5800POPC   GL273922  13.855  25.432   5.860
 5800POPC   C1A73923  13.466  25.470   6.205
 5800POPC   D2A73924  13.528  25.265   6.587
 5800POPC   C3A73925  13.516  25.483   6.951
 5800POPC   C4A73926  13.609  25.311   7.345
 5800POPC   C1B73927  13.759  25.069   6.121
 5800POPC   C2B73928  13.917  24.936   6.522
 5800POPC   C3B73929  13.857  25.066   6.937
 5800POPC   C4B73930  13.927  24.841   7.314
 5801POPC   NC373931  25.170  26.589   5.290
 5801POPC   PO473932  25.571  27.128   5.258
 5801POPC   GL173933  25.435  26.848   5.658
 5801POPC   GL273934  25.099  26.878   5.788
 5801POPC   C1A73935  25.544  26.831   6.115
 5801POPC   D2A73936  25.378  26.906   6.518
 5801POPC   C3A73937  25.390  26.664   6.891
 5801POPC   C4A73938  25.086  26.638   7.242
 5801POPC   C1B73939  25.112  27.178   6.147
 5801POPC   C2B73940  25.148  27.356   6.574
 5801POPC   C3B73941  25.211  27.149   6.969
 5801POPC   C4B73942  25.250  27.169   7.395
 5802POPC   NC373943  31.907  42.361   5.408
 5802POPC   PO473944  32.487  42.728   5.395
 5802POPC   GL173945  32.338  42.440   5.762
 5802POPC   GL273946  32.000  42.326   5.906
 5802POPC   C1A73947  32.377  42.128   6.153
 5802POPC   D2A73948  32.077  42.133   6.532
 5802POPC   C3A73949  32.168  42.256   6.998
 5802POPC   C4A73950  32.433  42.000   7.296
 5802POPC   C1B73951  32.209  42.596   6.234
 5802POPC   C2B73952  32.074  42.647   6.648
 5802POPC   C3B73953  32.249  42.775   7.030
 5802POPC   C4B73954  32.115  42.770   7.476
 5803POPC   NC373955  33.541  33.874   5.401
 5803POPC   PO473956  34.032  34.415   5.318
 5803POPC   GL173957  33.930  34.103   5.680
 5803POPC   GL273958  33.993  33.732   5.716
 5803POPC   C1A73959  33.692  33.923   6.069
 5803POPC   D2A73960  33.801  33.772   6.501
 5803POPC   C3A73961  33.683  34.105   6.786
 5803POPC   C4A73962  33.616  34.193   7.220
 5803POPC   C1B73963  33.993  33.452   6.119
 5803POPC   C2B73964  34.249  33.406   6.514
 5803POPC   C3B73965  34.041  33.408   6.928
 5803POPC   C4B73966  33.629  33.659   7.013
 5804POPC   NC373967  40.369  24.303   5.056
 5804POPC   PO473968  40.016  23.846   5.402
 5804POPC   GL173969  39.958  23.553   5.738
 5804POPC   GL273970  40.053  23.831   5.921
 5804POPC   C1A73971  40.068  23.360   6.172
 5804POPC   D2A73972  40.046  23.579   6.566
 5804POPC   C3A73973  40.068  23.442   7.005
 5804POPC   C4A73974  39.836  23.558   7.367
 5804POPC   C1B73975  39.907  24.052   6.259
 5804POPC   C2B73976  39.904  24.205   6.655
 5804POPC   C3B73977  39.865  23.937   6.986
 5804POPC   C4B73978  40.170  23.975   7.297
 5805POPC   NC373979  23.203  13.696   5.392
 5805POPC   PO473980  22.725  13.283   5.550
 5805POPC   GL173981  22.841  13.604   5.795
 5805POPC   GL273982  23.170  13.522   5.925
 5805POPC   C1A73983  22.703  13.739   6.194
 5805POPC   D2A73984  22.719  13.970   6.594
 5805POPC   C3A73985  22.982  13.774   6.916
 5805POPC   C4A73986  23.047  13.665   7.355
 5805POPC   C1B73987  23.166  13.576   6.405
 5805POPC   C2B73988  23.152  13.306   6.776
 5805POPC   C3B73989  23.344  13.282   7.199
 5805POPC   C4B73990  23.065  13.196   7.558
 5806POPC   NC373991  36.972  16.048   5.101
 5806POPC   PO473992  36.728  15.654   5.651
 5806POPC   GL173993  36.967  15.935   5.878
 5806POPC   GL273994  36.857  16.302   5.806
 5806POPC   C1A73995  37.078  15.805   6.298
 5806POPC   D2A73996  36.862  15.725   6.675
 5806POPC   C3A73997  37.022  15.896   7.029
 5806POPC   C4A73998  37.202  15.952   7.401
 5806POPC   C1B73999  36.800  16.213   6.254
 5806POPC   C2B74000  36.998  16.261   6.615
 5806POPC   C3B74001  36.705  16.258   6.905
 5806POPC   C4B74002  36.773  16.247   7.323
 5807POPC   NC374003  13.997  39.007   5.435
 5807POPC   PO474004  13.881  39.683   5.498
 5807POPC   GL174005  13.672  39.392   5.855
 5807POPC   GL274006  13.763  39.027   5.889
 5807POPC   C1A74007  13.632  39.323   6.342
 5807POPC   D2A74008  13.566  39.187   6.801
 5807POPC   C3A74009  13.832  39.037   7.186
 5807POPC   C4A74010  13.971  38.965   7.653
 5807POPC   C1B74011  13.372  38.960   6.083
 5807POPC   C2B74012  13.223  38.931   6.500
 5807POPC   C3B74013  13.250  38.823   6.935
 5807POPC   C4B74014  13.207  39.231   7.162
 5808POPC   NC374015  15.624   2.741   5.440
 5808POPC   PO474016  14.999   2.587   5.361
 5808POPC   GL174017  15.241   2.684   5.764
 5808POPC   GL274018  15.451   2.977   5.865
 5808POPC   C1A74019  15.340   2.536   6.172
 5808POPC   D2A74020  15.047   2.650   6.492
 5808POPC   C3A74021  15.196   2.667   6.891
 5808POPC   C4A74022  15.351   2.330   7.131
 5808POPC   C1B74023  15.391   3.023   6.331
 5808POPC   C2B74024  15.519   3.111   6.768
 5808POPC   C3B74025  15.299   3.090   7.178
 5808POPC   C4B74026  14.998   3.110   7.553
 5809POPC   NC374027  12.630  24.073   5.136
 5809POPC   PO474028  12.535  23.497   5.497
 5809POPC   GL174029  12.714  23.527   5.915
 5809POPC   GL274030  12.908  23.840   5.954
 5809POPC   C1A74031  12.890  23.517   6.337
 5809POPC   D2A74032  12.739  23.609   6.717
 5809POPC   C3A74033  12.980  23.463   7.026
 5809POPC   C4A74034  12.863  23.189   7.336
 5809POPC   C1B74035  12.868  24.059   6.342
 5809POPC   C2B74036  12.709  24.108   6.758
 5809POPC   C3B74037  12.971  24.038   7.107
 5809POPC   C4B74038  12.936  24.002   7.541
 5810POPC   NC374039   0.656  13.997   5.433
 5810POPC   PO474040   0.180  14.472   5.301
 5810POPC   GL174041   0.360  14.407   5.696
 5810POPC   GL274042   0.131  14.148   5.792
 5810POPC   C1A74043   0.424  14.465   6.138
 5810POPC   D2A74044   0.286  14.740   6.468
 5810POPC   C3A74045   0.444  14.651   6.894
 5810POPC   C4A74046   0.801  14.565   7.161
 5810POPC   C1B74047   0.027  14.184   6.228
 5810POPC   C2B74048   0.218  14.257   6.662
 5810POPC   C3B74049   0.428  14.159   7.084
 5810POPC   C4B74050   0.262  14.084   7.520
 5811POPC   NC374051  16.131  27.993   5.414
 5811POPC   PO474052  15.764  27.467   5.442
 5811POPC   GL174053  15.960  27.627   5.798
 5811POPC   GL274054  16.106  27.283   5.830
 5811POPC   C1A74055  15.921  27.900   6.192
 5811POPC   D2A74056  15.787  27.744   6.606
 5811POPC   C3A74057  15.754  27.893   7.035
 5811POPC   C4A74058  15.908  27.748   7.434
 5811POPC   C1B74059  15.928  27.352   6.254
 5811POPC   C2B74060  16.113  27.344   6.669
 5811POPC   C3B74061  16.101  27.396   7.123
 5811POPC   C4B74062  16.211  27.377   7.611
 5812POPC   NC374063  38.530   3.939   5.379
 5812POPC   PO474064  38.146   3.409   5.461
 5812POPC   GL174065  38.449   3.555   5.741
 5812POPC   GL274066  38.793   3.429   5.801
 5812POPC   C1A74067  38.502   3.667   6.171
 5812POPC   D2A74068  38.240   3.560   6.503
 5812POPC   C3A74069  38.276   3.787   6.871
 5812POPC   C4A74070  38.394   3.626   7.261
 5812POPC   C1B74071  38.824   3.282   6.244
 5812POPC   C2B74072  38.765   3.537   6.620
 5812POPC   C3B74073  38.765   3.357   7.008
 5812POPC   C4B74074  38.794   3.367   7.427
 5813POPC   NC374075  40.658  24.901   5.603
 5813POPC   PO474076  40.673  24.256   5.398
 5813POPC   GL174077  40.860  24.172   5.789
 5813POPC   GL274078  40.808  24.513   5.892
 5813POPC   C1A74079  40.808  24.142   6.240
 5813POPC   D2A74080  40.831  24.347   6.633
 5813POPC   C3A74081  40.696  24.189   7.026
 5813POPC   C4A74082  41.013  24.164   7.322
 5813POPC   C1B74083  40.695  24.722   6.291
 5813POPC   C2B74084  40.735  24.839   6.729
 5813POPC   C3B74085  40.900  24.656   7.096
 5813POPC   C4B74086  40.908  24.594   7.555
 5814POPC   NC374087  40.149  20.464   5.334
 5814POPC   PO474088  39.620  20.888   5.101
 5814POPC   GL174089  39.722  20.751   5.590
 5814POPC   GL274090  40.055  20.619   5.799
 5814POPC   C1A74091  39.655  20.729   6.092
 5814POPC   D2A74092  39.716  20.406   6.423
 5814POPC   C3A74093  39.710  20.494   6.862
 5814POPC   C4A74094  39.814  20.654   7.273
 5814POPC   C1B74095  40.157  20.781   6.220
 5814POPC   C2B74096  39.965  20.861   6.598
 5814POPC   C3B74097  40.153  20.872   6.967
 5814POPC   C4B74098  40.302  20.745   7.381
 5815POPC   NC374099  36.800   3.773   5.610
 5815POPC   PO474100  36.923   4.407   5.279
 5815POPC   GL174101  36.975   4.435   5.742
 5815POPC   GL274102  36.711   4.573   5.851
 5815POPC   C1A74103  37.046   4.502   6.232
 5815POPC   D2A74104  37.102   4.299   6.680
 5815POPC   C3A74105  37.118   4.425   7.134
 5815POPC   C4A74106  37.182   4.312   7.602
 5815POPC   C1B74107  36.487   4.506   6.194
 5815POPC   C2B74108  36.566   4.245   6.539
 5815POPC   C3B74109  36.513   4.273   6.962
 5815POPC   C4B74110  36.673   4.309   7.385
 5816POPC   NC374111  35.835   9.455   5.388
 5816POPC   PO474112  35.882  10.185   5.587
 5816POPC   GL174113  36.041   9.797   5.821
 5816POPC   GL274114  36.023   9.403   5.863
 5816POPC   C1A74115  36.161   9.708   6.257
 5816POPC   D2A74116  36.292  10.010   6.573
 5816POPC   C3A74117  36.428   9.937   6.981
 5816POPC   C4A74118  36.116   9.873   7.275
 5816POPC   C1B74119  36.021   9.166   6.260
 5816POPC   C2B74120  35.984   9.267   6.712
 5816POPC   C3B74121  35.974   9.390   7.156
 5816POPC   C4B74122  36.335   9.461   7.470
 5817POPC   NC374123  14.271  38.240   5.388
 5817POPC   PO474124  14.420  38.843   5.564
 5817POPC   GL174125  14.148  38.575   5.872
 5817POPC   GL274126  13.992  38.209   5.828
 5817POPC   C1A74127  14.176  38.597   6.373
 5817POPC   D2A74128  14.202  38.499   6.837
 5817POPC   C3A74129  14.619  38.421   7.065
 5817POPC   C4A74130  14.960  38.529   7.379
 5817POPC   C1B74131  14.162  38.105   6.262
 5817POPC   C2B74132  14.238  37.993   6.725
 5817POPC   C3B74133  14.231  38.101   7.169
 5817POPC   C4B74134  14.078  38.126   7.589
 5818POPC   NC374135   6.007  36.387   5.104
 5818POPC   PO474136   5.558  35.910   5.194
 5818POPC   GL174137   5.545  36.038   5.730
 5818POPC   GL274138   5.831  36.229   5.944
 5818POPC   C1A74139   5.593  35.859   6.176
 5818POPC   D2A74140   5.675  36.102   6.573
 5818POPC   C3A74141   5.713  35.902   6.990
 5818POPC   C4A74142   6.128  35.900   7.202
 5818POPC   C1B74143   6.086  36.560   6.156
 5818POPC   C2B74144   6.122  36.402   6.560
 5818POPC   C3B74145   5.995  36.318   6.953
 5818POPC   C4B74146   6.148  36.398   7.335
 5819POPC   NC374147  19.332  41.240   5.151
 5819POPC   PO474148  19.031  41.660   5.485
 5819POPC   GL174149  18.943  41.774   5.881
 5819POPC   GL274150  18.591  41.654   5.851
 5819POPC   C1A74151  19.046  41.738   6.312
 5819POPC   D2A74152  19.284  41.910   6.647
 5819POPC   C3A74153  19.135  41.799   7.052
 5819POPC   C4A74154  18.970  41.422   7.276
 5819POPC   C1B74155  18.569  41.905   6.241
 5819POPC   C2B74156  18.738  41.922   6.696
 5819POPC   C3B74157  18.623  41.785   7.135
 5819POPC   C4B74158  18.451  41.645   7.547
 5820POPC   NC374159  42.114  10.758   5.585
 5820POPC   PO474160  42.739  10.704   5.364
 5820POPC   GL174161  42.588  10.513   5.742
 5820POPC   GL274162  42.420  10.728   5.977
 5820POPC   C1A74163  42.446  10.229   6.058
 5820POPC   D2A74164  42.369  10.071   6.475
 5820POPC   C3A74165  42.220  10.314   6.823
 5820POPC   C4A74166  42.418  10.450   7.178
 5820POPC   C1B74167  42.705  10.995   6.142
 5820POPC   C2B74168  42.648  11.013   6.572
 5820POPC   C3B74169  42.330  10.837   6.853
 5820POPC   C4B74170  42.069  10.804   7.246
 5821POPC   NC374171   2.854  32.622   5.530
 5821POPC   PO474172   2.385  33.026   5.654
 5821POPC   GL174173   2.720  32.969   5.887
 5821POPC   GL274174   2.902  33.220   5.744
 5821POPC   C1A74175   2.756  32.755   6.255
 5821POPC   D2A74176   2.956  32.724   6.635
 5821POPC   C3A74177   2.669  32.855   6.941
 5821POPC   C4A74178   2.480  33.196   7.156
 5821POPC   C1B74179   2.739  33.390   6.162
 5821POPC   C2B74180   2.756  33.247   6.593
 5821POPC   C3B74181   2.920  33.400   6.992
 5821POPC   C4B74182   2.995  33.216   7.415
 5822POPC   NC374183  35.083  32.526   5.371
 5822POPC   PO474184  35.693  32.279   5.196
 5822POPC   GL174185  35.571  32.246   5.698
 5822POPC   GL274186  35.222  32.252   5.793
 5822POPC   C1A74187  35.566  32.246   6.193
 5822POPC   D2A74188  35.767  32.244   6.632
 5822POPC   C3A74189  35.521  32.191   7.031
 5822POPC   C4A74190  35.519  32.533   7.358
 5822POPC   C1B74191  35.043  32.356   6.191
 5822POPC   C2B74192  35.189  32.282   6.611
 5822POPC   C3B74193  35.120  32.493   7.009
 5822POPC   C4B74194  35.091  32.244   7.351
 5823POPC   NC374195   2.979  41.479   5.551
 5823POPC   PO474196   2.250  41.728   5.556
 5823POPC   GL174197   2.590  41.747   5.798
 5823POPC   GL274198   2.572  41.392   5.852
 5823POPC   C1A74199   2.676  41.847   6.234
 5823POPC   D2A74200   2.917  41.685   6.583
 5823POPC   C3A74201   2.937  41.931   6.939
 5823POPC   C4A74202   2.779  41.752   7.284
 5823POPC   C1B74203   2.639  41.326   6.277
 5823POPC   C2B74204   2.808  41.179   6.663
 5823POPC   C3B74205   3.010  41.356   7.022
 5823POPC   C4B74206   3.095  41.371   7.452
 5824POPC   NC374207  40.822  19.387   5.395
 5824POPC   PO474208  40.956  18.778   5.230
 5824POPC   GL174209  40.862  18.952   5.647
 5824POPC   GL274210  40.549  18.922   5.806
 5824POPC   C1A74211  40.923  19.146   6.063
 5824POPC   D2A74212  40.943  19.020   6.476
 5824POPC   C3A74213  40.902  19.040   6.908
 5824POPC   C4A74214  40.908  18.719   7.229
 5824POPC   C1B74215  40.466  19.342   6.075
 5824POPC   C2B74216  40.675  19.456   6.517
 5824POPC   C3B74217  40.549  19.444   6.965
 5824POPC   C4B74218  40.726  19.211   7.344
 5825W        W74219  35.399  43.802   4.389
 5826W        W74220  29.386  33.371  14.485
 5827W        W74221  27.317  21.752   2.177
 5828W        W74222   6.700  13.080   3.734
 5829W        W74223   2.006  39.839  14.913
 5830W        W74224  12.200  38.611  10.495
 5831W        W74225  28.659  28.857   1.231
 5832W        W74226  16.251  42.384   3.075
 5833W        W74227  28.241  26.575   4.656
 5834W        W74228  34.793  14.648  13.012
 5835W        W74229  32.510   0.693  11.009
 5836W        W74230   2.883  18.499   3.642
 5837W        W74231  23.556  31.841   4.549
 5838W        W74232  13.629  18.072   3.656
 5839W        W74233   5.317  27.536  10.580
 5840W        W74234   2.027  31.908  13.958
 5841W        W74235   5.445   3.341   1.814
 5842W        W74236  15.115  19.038  13.892
 5843W        W74237   5.607  31.208   3.637
 5844W        W74238   6.865  40.079   0.261
 5845W        W74239  36.488   0.872   2.921
 5846W        W74240  13.136  44.432  10.607
 5847W        W74241  26.549  11.231  14.368
 5848W        W74242  41.107  38.862   2.294
 5849W        W74243  44.853  43.498  12.230
 5850W        W74244  29.939   8.194   4.883
 5851W        W74245  28.224  42.947   4.978
 5852W        W74246  19.138  42.247  12.506
 5853W        W74247   7.484  33.943   0.591
 5854W        W74248  43.354  17.530   1.696
 5855W        W74249  11.389  16.776   4.451
 5856W        W74250  41.940  41.788  12.111
 5857W        W74251  31.472  37.969  14.070
 5858W        W74252  25.190  32.896  11.142
 5859W        W74253  16.732  41.290  12.477
 5860W        W74254  13.528  30.954  14.968
 5861W        W74255  30.817  44.796   1.356
 5862W        W74256   5.156  16.854   9.869
 5863W        W74257  31.509   6.203   1.869
 5864W        W74258  17.326  44.326  11.093
 5865W        W74259   7.603  13.266   4.608
 5866W        W74260   0.413  38.464  14.223
 5867W        W74261   9.141   5.729  14.811
 5868W        W74262   7.463  17.864  11.133
 5869W        W74263  38.948  17.146  12.401
 5870W        W74264  15.630   5.939  11.610
 5871W        W74265  17.761  10.747   0.365
 5872W        W74266  28.446  35.099  12.571
 5873W        W74267  34.205  35.978  11.557
 5874W        W74268  12.109  40.009   4.614
 5875W        W74269   6.361   5.327   2.825
 5876W        W74270  32.517  14.063   2.577
 5877W        W74271  38.304  42.074  13.868
 5878W        W74272  10.394  10.298  11.542
 5879W        W74273  15.369   6.901  11.222
 5880W        W74274   5.454  38.602  13.016
 5881W        W74275  30.458  15.330   4.256
 5882W        W74276  28.524   6.199   3.099
 5883W        W74277  43.578  32.702  11.086
 5884W        W74278  30.857  25.970  12.975
 5885W        W74279  17.093   0.842   3.654
 5886W        W74280   1.063   8.601   2.433
 5887W        W74281  27.105  16.297   2.041
 5888W        W74282  31.587  43.015  10.651
 5889W        W74283  20.281  40.263  14.609
 5890W        W74284  16.510   3.878   2.252
 5891W        W74285  35.399  11.455   2.688
 5892W        W74286  26.633  36.144  10.736
 5893W        W74287  35.014  31.079   2.101
 5894W        W74288   6.664  42.260  13.430
 5895W        W74289  40.775  44.297  11.666
 5896W        W74290  42.628  32.521   3.246
 5897W        W74291  35.562  34.356  13.477
 5898W        W74292  19.001  11.217  14.062
 5899W        W74293  35.711  10.774   0.547
 5900W        W74294  21.498  10.218   0.183
 5901W        W74295  35.319  28.318   2.871
 5902W        W74296  35.887  41.251  11.579
 5903W        W74297   7.623  40.293  14.413
 5904W        W74298   1.207  21.046  12.469
 5905W        W74299   9.800  13.339   4.347
 5906W        W74300  20.844  23.675   3.730
 5907W        W74301  32.957   0.843   0.921
 5908W        W74302  30.530   4.225  12.841
 5909W        W74303   0.229  15.825   3.608
 5910W        W74304  10.750  27.841  10.663
 5911W        W74305  17.256   3.493  11.089
 5912W        W74306  14.254  43.543   5.032
 5913W        W74307  20.661  17.386   1.902
 5914W        W74308  37.045  38.587  12.980
 5915W        W74309  14.768  37.289   0.823
 5916W        W74310  35.624  23.124  13.387
 5917W        W74311  19.915   4.647   1.219
 5918W        W74312  39.047  14.272  11.536
 5919W        W74313   0.922   8.808  12.975
 5920W        W74314  40.404  28.480   4.123
 5921W        W74315   9.257  38.884  14.483
 5922W        W74316  40.037  17.295   3.706
 5923W        W74317  32.509  23.624   4.686
 5924W        W74318  27.331   8.653  12.499
 5925W        W74319  30.160  28.719   3.322
 5926W        W74320  27.675  17.550   0.382
 5927W        W74321  30.937  10.697  12.951
 5928W        W74322   2.936   2.973  10.637
 5929W        W74323   2.837  23.227   3.262
 5930W        W74324  10.533  44.743  13.853
 5931W        W74325   8.908  18.026  14.412
 5932W        W74326  27.016  18.269   2.826
 5933W        W74327   1.707  16.481  13.812
 5934W        W74328  20.748  25.391  13.662
 5935W        W74329   0.730  37.755   0.396
 5936W        W74330   3.921   7.378  10.853
 5937W        W74331   0.565  33.506  10.954
 5938W        W74332  25.131  20.692   1.213
 5939W        W74333  18.321   7.730   3.197
 5940W        W74334  13.741   2.018  13.626
 5941W        W74335  30.682  25.554   0.650
 5942W        W74336  42.567  10.892  13.852
 5943W        W74337  29.635  19.293   0.288
 5944W        W74338  41.501  15.387  12.197
 5945W        W74339   5.095  20.113  14.266
 5946W        W74340  22.113  43.727   0.401
 5947W        W74341  22.102  21.253   5.050
 5948W        W74342  33.039  20.559  11.181
 5949W        W74343  22.252  37.011  14.209
 5950W        W74344  19.534  34.476  12.522
 5951W        W74345  43.509  35.856  12.147
 5952W        W74346  41.405   8.693   4.026
 5953W        W74347  34.553  13.576  14.444
 5954W        W74348  30.422  17.729   3.677
 5955W        W74349  17.069   8.725   2.102
 5956W        W74350  40.824  25.746   0.035
 5957W        W74351  18.753  35.818   2.837
 5958W        W74352  39.535  40.165   1.675
 5959W        W74353  38.471  37.429   4.556
 5960W        W74354  42.630  21.501   0.405
 5961W        W74355  24.123  31.452   3.675
 5962W        W74356   1.145  12.352  11.790
 5963W        W74357  23.256  41.580  14.326
 5964W        W74358  24.688   9.628   3.719
 5965W        W74359   8.648  17.270   0.353
 5966W        W74360  44.723   4.253   0.004
 5967W        W74361   0.349  28.495   2.335
 5968W        W74362  31.353   5.339   0.304
 5969W        W74363  38.068   8.645  11.234
 5970W        W74364  27.907  38.153  14.880
 5971W        W74365   6.861  23.286   2.789
 5972W        W74366  42.358  26.003   0.141
 5973W        W74367  32.601  44.650  12.967
 5974W        W74368  40.830   5.719   2.925
 5975W        W74369   1.007  11.344   5.013
 5976W        W74370  44.888  31.844   2.718
 5977W        W74371   9.155  34.355  14.977
 5978W        W74372  22.190  34.883  10.425
 5979W        W74373   6.444  13.531  10.979
 5980W        W74374   0.801   6.787  10.942
 5981W        W74375  27.005  30.074   3.162
 5982W        W74376   3.143   7.334  12.424
 5983W        W74377   4.939  39.847   4.346
 5984W        W74378  13.662  22.544   1.287
 5985W        W74379   1.909  41.800  11.678
 5986W        W74380  30.049  15.547  10.270
 5987W        W74381  40.924  23.566   4.480
 5988W        W74382  31.390   5.602   3.730
 5989W        W74383  43.047  25.573   2.265
 5990W        W74384  27.042  10.331   4.535
 5991W        W74385  11.052  31.776  12.138
 5992W        W74386   8.820  40.034  10.742
 5993W        W74387  16.139  11.825   0.475
 5994W        W74388  36.466  40.472   2.280
 5995W        W74389  33.955   7.302  12.441
 5996W        W74390  10.815  32.484   0.129
 5997W        W74391  40.897   2.505  14.930
 5998W        W74392   1.899  15.581   1.072
 5999W        W74393  13.948  18.325   0.756
 6000W        W74394  19.600  28.438  14.381
 6001W        W74395   7.172  37.439  12.927
 6002W        W74396  24.927  36.388  11.748
 6003W        W74397  26.549   0.211   0.907
 6004W        W74398  17.179  19.872   2.465
 6005W        W74399  20.427  20.298   2.024
 6006W        W74400   2.209   9.819   0.215
 6007W        W74401  14.596  35.228   0.843
 6008W        W74402  19.829  21.410  14.923
 6009W        W74403  40.150  41.357   0.891
 6010W        W74404  38.351  27.976   0.823
 6011W        W74405  33.508  12.613  12.626
 6012W        W74406  42.030  44.863   3.159
 6013W        W74407   7.623   1.222   4.704
 6014W        W74408   5.898   6.711   5.564
 6015W        W74409   5.901  22.842   0.262
 6016W        W74410  36.443   3.400   2.261
 6017W        W74411   8.863   8.097   2.757
 6018W        W74412  35.610  12.905   3.801
 6019W        W74413  12.066  29.163  14.848
 6020W        W74414  10.504  23.568   5.042
 6021W        W74415  43.561  14.271   4.301
 6022W        W74416  18.518  38.414  13.735
 6023W        W74417  30.539  37.146  11.937
 6024W        W74418   0.328  14.298   0.685
 6025W        W74419  16.933  39.589   4.882
 6026W        W74420  14.854  25.029  11.414
 6027W        W74421  33.366  18.588   4.084
 6028W        W74422  30.598  26.480   1.823
 6029W        W74423  19.051  23.484  13.086
 6030W        W74424  43.271  14.796   2.791
 6031W        W74425   5.456  36.979  13.292
 6032W        W74426  11.136  22.495  11.111
 6033W        W74427  28.483  30.425  13.305
 6034W        W74428  44.026   2.649  14.407
 6035W        W74429   8.080   8.802   2.515
 6036W        W74430  14.738   7.413   1.640
 6037W        W74431  40.976  14.658   1.556
 6038W        W74432  34.560  43.361   2.472
 6039W        W74433  26.703   6.000  12.024
 6040W        W74434   6.417  15.817   1.623
 6041W        W74435   4.104   6.211  11.623
 6042W        W74436  13.750  28.411  10.674
 6043W        W74437  26.293  33.873   3.623
 6044W        W74438  29.497   3.413   4.029
 6045W        W74439  22.585  44.509   0.381
 6046W        W74440  16.372  24.202   3.349
 6047W        W74441   3.345   8.319  13.662
 6048W        W74442   0.041  18.872  11.301
 6049W        W74443  40.463  20.056   1.215
 6050W        W74444  39.612  38.490  10.971
 6051W        W74445  12.826  10.115  12.791
 6052W        W74446  20.715   5.247   3.800
 6053W        W74447   7.408  10.339   3.168
 6054W        W74448  29.532  37.809   0.996
 6055W        W74449  29.718  44.617  11.526
 6056W        W74450  24.774  20.119  12.972
 6057W        W74451   0.368   3.338  10.521
 6058W        W74452  19.247  36.362  14.810
 6059W        W74453   9.345  43.417  12.386
 6060W        W74454  10.144  19.678  11.457
 6061W        W74455  24.690  29.119   1.234
 6062W        W74456   8.367  44.829  15.000
 6063W        W74457   0.885  22.578  12.788
 6064W        W74458  13.601   7.973   3.087
 6065W        W74459  15.309  33.580   3.156
 6066W        W74460  12.408  13.300   1.858
 6067W        W74461  24.520  43.741   9.974
 6068W        W74462   0.887  21.789  13.862
 6069W        W74463   6.782   0.431   2.370
 6070W        W74464  41.979   9.357   4.535
 6071W        W74465  34.417  30.019   0.014
 6072W        W74466  18.270  18.349   4.707
 6073W        W74467  35.209  26.909  14.861
 6074W        W74468  22.000  43.267   1.734
 6075W        W74469   0.913  41.921   0.761
 6076W        W74470  12.741  26.165   3.126
 6077W        W74471  34.217  15.698   4.253
 6078W        W74472  43.495  33.887  12.553
 6079W        W74473   3.900  37.036   1.880
 6080W        W74474  16.114  34.139   0.683
 6081W        W74475  41.903  13.234  13.695
 6082W        W74476  21.380  11.910  14.872
 6083W        W74477  35.462  33.860   0.075
 6084W        W74478  36.695   0.349   3.648
 6085W        W74479  31.161  38.122   1.307
 6086W        W74480  26.059  22.580  10.604
 6087W        W74481  21.544  27.287   0.355
 6088W        W74482  39.542  11.611   3.848
 6089W        W74483  35.945  22.265  13.885
 6090W        W74484  15.904   2.825   5.011
 6091W        W74485  37.208   7.671   1.098
 6092W        W74486   1.652  16.198   2.406
 6093W        W74487  40.560  27.004  11.864
 6094W        W74488  21.955  35.857  10.697
 6095W        W74489   6.624  26.966   3.221
 6096W        W74490   3.288  26.561  14.382
 6097W        W74491   3.311  28.042   1.292
 6098W        W74492  18.014  21.813  14.961
 6099W        W74493  38.490  35.031   0.717
 6100W        W74494  25.006  44.205  13.577
 6101W        W74495  44.418  29.449   3.623
 6102W        W74496  14.778  19.543   4.604
 6103W        W74497  41.455   1.750   0.188
 6104W        W74498  39.679  44.317   3.056
 6105W        W74499  30.077  11.170  14.471
 6106W        W74500   5.699   8.248  12.372
 6107W        W74501  42.286  42.401   3.707
 6108W        W74502  28.243  31.370  10.888
 6109W        W74503   5.985  14.052   1.967
 6110W        W74504  39.294  19.239   3.655
 6111W        W74505  39.836   8.557   2.739
 6112W        W74506  41.955  15.045  10.463
 6113W        W74507   0.833  43.706   2.011
 6114W        W74508  44.118  15.808  11.947
 6115W        W74509   2.203  10.928  11.599
 6116W        W74510  19.820  32.093  11.595
 6117W        W74511   4.261  15.783  14.427
 6118W        W74512  28.255  11.536  13.817
 6119W        W74513   4.446  40.694   4.688
 6120W        W74514  30.268  41.594   3.196
 6121W        W74515  17.748  25.197  12.853
 6122W        W74516  17.369   7.445  11.586
 6123W        W74517   4.536  26.571  10.281
 6124W        W74518   5.366  18.478   4.085
 6125W        W74519   4.483  32.974   1.518
 6126W        W74520   8.716   1.005   1.168
 6127W        W74521  44.077  28.031   2.749
 6128W        W74522  10.655  10.332  13.003
 6129W        W74523   0.209  29.206  10.721
 6130W        W74524  18.745  20.649  10.354
 6131W        W74525  11.952   1.039   2.494
 6132W        W74526  13.684  25.777   2.323
 6133W        W74527  19.316  43.063   3.130
 6134W        W74528  16.015  41.529   2.812
 6135W        W74529   6.290   5.645  11.156
 6136W        W74530  40.578   7.210   3.358
 6137W        W74531  30.349  39.486  14.859
 6138W        W74532  37.429  17.844   4.398
 6139W        W74533  44.768  24.912   2.095
 6140W        W74534  12.055   8.112   3.571
 6141W        W74535   9.352  15.808   3.864
 6142W        W74536  20.012  22.653   3.218
 6143W        W74537   2.930  22.820  14.513
 6144W        W74538  43.223  39.472  12.723
 6145W        W74539  13.986   6.992  14.804
 6146W        W74540   4.224  12.092  14.786
 6147W        W74541  15.198  17.473   3.944
 6148W        W74542  35.119  36.855  11.040
 6149W        W74543  13.156  12.843  12.816
 6150W        W74544  26.075  20.325   3.597
 6151W        W74545   5.001   6.472   0.986
 6152W        W74546   4.441   1.781   4.833
 6153W        W74547  33.870  44.790   3.693
 6154W        W74548   6.670  27.244  11.999
 6155W        W74549  21.523  11.886  11.996
 6156W        W74550  16.932  34.994   0.117
 6157W        W74551  44.441   1.978  10.280
 6158W        W74552  24.646  24.589  12.843
 6159W        W74553   4.944   3.195  13.740
 6160W        W74554  10.865  14.329  12.665
 6161W        W74555  10.863  15.459  11.546
 6162W        W74556   9.274   1.181  10.900
 6163W        W74557   7.351  28.078   0.434
 6164W        W74558  37.230  33.662   1.721
 6165W        W74559   3.945  12.127  12.064
 6166W        W74560  35.444  20.530   1.263
 6167W        W74561  21.594  21.114   4.361
 6168W        W74562  16.752  32.976   1.277
 6169W        W74563   3.973  10.740  14.334
 6170W        W74564  30.255  43.393  12.619
 6171W        W74565  38.555  34.821   4.404
 6172W        W74566  30.773  41.041  12.054
 6173W        W74567   9.417   3.922  13.580
 6174W        W74568  10.305   7.703   1.174
 6175W        W74569  18.091  17.854   2.278
 6176W        W74570   1.424  33.083  13.871
 6177W        W74571   4.160  22.692   4.143
 6178W        W74572   9.209  10.083   0.007
 6179W        W74573  35.141   6.760   2.867
 6180W        W74574   9.891  24.141   1.885
 6181W        W74575  37.768   5.768   9.982
 6182W        W74576  31.180   5.391  13.352
 6183W        W74577  42.150  29.062   4.758
 6184W        W74578  31.172  26.022  11.738
 6185W        W74579   9.753   6.742   2.659
 6186W        W74580  10.064   3.240   3.127
 6187W        W74581  23.015  27.566  12.788
 6188W        W74582   2.182   2.285   1.737
 6189W        W74583  20.748   1.187  13.544
 6190W        W74584  22.274  22.101  13.063
 6191W        W74585  19.734  32.771   3.387
 6192W        W74586   5.414   0.219   2.762
 6193W        W74587   9.644   3.407   3.359
 6194W        W74588  30.602  20.124   4.116
 6195W        W74589  42.941  41.026  14.518
 6196W        W74590  34.366  32.369  12.591
 6197W        W74591   7.419  30.442   0.063
 6198W        W74592   9.795  19.085   3.981
 6199W        W74593   8.249  24.015  11.605
 6200W        W74594  31.372  23.529   0.477
 6201W        W74595   7.674   9.262  13.105
 6202W        W74596  20.506  34.622  12.730
 6203W        W74597  41.989  17.822   2.757
 6204W        W74598  39.101  25.677  11.223
 6205W        W74599   3.259  20.817   2.720
 6206W        W74600   2.784  19.264   2.338
 6207W        W74601  28.419  13.362   3.966
 6208W        W74602  11.253  33.068   0.690
 6209W        W74603  18.615   5.421  14.448
 6210W        W74604   8.811  37.970  11.595
 6211W        W74605  43.362  36.390  10.938
 6212W        W74606  43.914  14.218   0.042
 6213W        W74607  32.139  12.597  13.827
 6214W        W74608  11.640  28.503  12.578
 6215W        W74609   1.494  22.286  12.091
 6216W        W74610   2.973  13.512  11.812
 6217W        W74611  38.824  24.107   1.932
 6218W        W74612  23.286  33.413  11.677
 6219W        W74613  28.172  18.942   1.497
 6220W        W74614  10.390   3.212   4.482
 6221W        W74615  17.117  24.676  12.766
 6222W        W74616   9.699  34.002   0.382
 6223W        W74617  38.160   0.700  14.121
 6224W        W74618  25.201  41.531   1.773
 6225W        W74619  26.470  15.276   2.246
 6226W        W74620   9.725   8.526   0.168
 6227W        W74621  39.984  19.758   1.255
 6228W        W74622  11.214  11.824   0.260
 6229W        W74623  11.807  27.386  13.838
 6230W        W74624  40.035  29.417   1.246
 6231W        W74625  16.819  26.067  13.058
 6232W        W74626   6.726  11.307  13.924
 6233W        W74627  11.585  42.696   2.477
 6234W        W74628  39.512  16.117   4.336
 6235W        W74629  34.966  34.417   0.629
 6236W        W74630  17.551  10.246  10.515
 6237W        W74631  44.173  31.940   1.219
 6238W        W74632  14.816   4.370   5.145
 6239W        W74633  33.479  42.442   4.181
 6240W        W74634   1.217  12.577   3.179
 6241W        W74635  26.572  31.973  11.585
 6242W        W74636  21.748  18.184  11.450
 6243W        W74637  35.067  24.537  12.471
 6244W        W74638  30.339  12.881   0.874
 6245W        W74639   9.938  25.676  10.106
 6246W        W74640  18.205  40.013  14.104
 6247W        W74641  43.024  43.372   3.203
 6248W        W74642  12.757   3.680   0.398
 6249W        W74643  19.053   7.823   4.591
 6250W        W74644  10.384  18.222   9.856
 6251W        W74645   9.724  15.342   0.767
 6252W        W74646  14.914  13.135   4.506
 6253W        W74647  38.555  36.145  11.670
 6254W        W74648  24.255  33.160  11.074
 6255W        W74649  20.298  14.677  14.973
 6256W        W74650  16.839  27.024   4.562
 6257W        W74651  44.508   7.508  10.822
 6258W        W74652   7.821  40.407  11.848
 6259W        W74653  23.812  31.963  11.463
 6260W        W74654  44.854  16.850  12.282
 6261W        W74655  43.305  21.490  12.985
 6262W        W74656   1.980  13.663   3.624
 6263W        W74657  28.759  17.539   4.023
 6264W        W74658  40.018  31.493   1.755
 6265W        W74659  26.925  25.669  13.283
 6266W        W74660  42.523   7.437   0.472
 6267W        W74661  16.612  15.745  12.418
 6268W        W74662  15.515  25.533   0.770
 6269W        W74663  27.194  33.552   4.570
 6270W        W74664  35.520   1.217  13.754
 6271W        W74665  33.569  29.974  13.837
 6272W        W74666  30.568  16.205  10.711
 6273W        W74667  18.818  36.147  14.054
 6274W        W74668   9.794  38.695  14.488
 6275W        W74669  16.749  33.516  10.683
 6276W        W74670  44.124  31.109   4.479
 6277W        W74671  18.136  26.582  14.322
 6278W        W74672   0.793  42.543  11.035
 6279W        W74673   0.912   4.710   0.930
 6280W        W74674  37.650  29.686  11.756
 6281W        W74675  24.146  37.063  11.563
 6282W        W74676  36.695  22.445  11.588
 6283W        W74677  14.082  16.361  14.473
 6284W        W74678   4.726  19.688   1.401
 6285W        W74679   4.643  16.933   0.398
 6286W        W74680  37.354   4.810   3.713
 6287W        W74681  25.250  35.531  14.311
 6288W        W74682  36.118  38.411   2.759
 6289W        W74683  29.622   6.437  11.626
 6290W        W74684  14.091   7.222  14.288
 6291W        W74685  42.757  20.326   3.897
 6292W        W74686  12.800  12.718  11.731
 6293W        W74687  20.902  34.315  10.745
 6294W        W74688  38.478  22.634  14.472
 6295W        W74689  38.135  13.034   4.446
 6296W        W74690  43.914  27.708   0.284
 6297W        W74691  39.524   1.753  14.927
 6298W        W74692   4.641   5.709   2.843
 6299W        W74693   9.669  33.567  10.777
 6300W        W74694  40.405   5.624  14.863
 6301W        W74695  31.512  24.941   3.090
 6302W        W74696   3.034  11.328   4.916
 6303W        W74697  20.924  28.556   4.099
 6304W        W74698   1.377  17.916   2.663
 6305W        W74699  21.340  25.275  11.084
 6306W        W74700  15.281  35.497  12.192
 6307W        W74701   3.363   7.919   0.222
 6308W        W74702  28.270  39.355  12.477
 6309W        W74703   8.206  41.245  12.020
 6310W        W74704   6.393  23.001   0.444
 6311W        W74705   0.288  23.600  11.238
 6312W        W74706  27.622  23.483   1.389
 6313W        W74707  12.724  12.020  14.410
 6314W        W74708  24.950  37.852   3.272
 6315W        W74709  11.862  42.025   3.340
 6316W        W74710  27.177  17.852  11.457
 6317W        W74711  43.218  31.853  14.907
 6318W        W74712  27.395  40.468   4.121
 6319W        W74713   3.404  18.673   1.367
 6320W        W74714   9.801  39.565   2.249
 6321W        W74715  33.824  27.447  12.016
 6322W        W74716   3.006  36.276   3.162
 6323W        W74717  28.717  31.196  14.699
 6324W        W74718  37.866  15.827   2.289
 6325W        W74719  44.296  26.778   4.302
 6326W        W74720  41.017   1.823  11.867
 6327W        W74721  10.701   7.180  13.839
 6328W        W74722  37.657  36.427   4.744
 6329W        W74723  24.003   8.167  10.705
 6330W        W74724  20.277   7.158  13.947
 6331W        W74725  11.334   3.672   2.819
 6332W        W74726   5.726  44.388   2.579
 6333W        W74727  40.999   4.343   2.300
 6334W        W74728  19.618  24.121  12.740
 6335W        W74729  34.197  29.050   3.276
 6336W        W74730  25.423  38.503   1.044
 6337W        W74731  44.083  22.183  12.893
 6338W        W74732  10.810  27.207   0.389
 6339W        W74733  20.932  35.426  10.847
 6340W        W74734  44.268  38.051  12.430
 6341W        W74735  11.809  19.513  14.526
 6342W        W74736  22.729  28.185   3.307
 6343W        W74737  14.528  37.624   2.217
 6344W        W74738  35.579  22.216   3.527
 6345W        W74739  14.868  33.229   2.393
 6346W        W74740  13.906   5.331   2.416
 6347W        W74741   8.372   0.416   3.963
 6348W        W74742  33.492  28.971  11.553
 6349W        W74743  41.802  23.983  13.849
 6350W        W74744  36.072   2.296  10.744
 6351W        W74745   1.512   6.032   3.656
 6352W        W74746  29.429   7.967   1.333
 6353W        W74747  11.450  27.955   1.719
 6354W        W74748  17.750   5.645  11.706
 6355W        W74749  35.815  32.276  12.543
 6356W        W74750  26.005   2.543   2.219
 6357W        W74751  21.147  24.166   3.776
 6358W        W74752   5.868   5.262   5.113
 6359W        W74753   6.816  12.151  13.965
 6360W        W74754  23.681  26.911   1.392
 6361W        W74755  13.093  13.411  13.959
 6362W        W74756  14.270   3.309   2.950
 6363W        W74757   2.014  26.745   3.259
 6364W        W74758  10.083  44.215  13.114
 6365W        W74759  15.227  31.918   1.862
 6366W        W74760  40.301   5.464  14.360
 6367W        W74761  42.389  26.912  12.094
 6368W        W74762   3.038  40.296   4.415
 6369W        W74763  33.533  27.208   0.693
 6370W        W74764  28.854  17.028   3.601
 6371W        W74765  41.310  31.890  12.489
 6372W        W74766  33.596  33.412  11.469
 6373W        W74767  17.373   1.277   0.734
 6374W        W74768  39.401  38.519   3.884
 6375W        W74769   5.655  35.023   4.529
 6376W        W74770  34.872  19.800   2.404
 6377W        W74771  18.668   0.044   1.364
 6378W        W74772  18.357  24.152   4.182
 6379W        W74773  40.976  24.402  12.462
 6380W        W74774  36.051  27.898  10.721
 6381W        W74775  14.658  22.626   0.902
 6382W        W74776  12.391  24.143   2.859
 6383W        W74777  43.538  30.889  13.091
 6384W        W74778  11.422  11.138   4.347
 6385W        W74779  11.242   7.238  13.501
 6386W        W74780   0.714  40.416   0.033
 6387W        W74781  18.556  29.702   2.250
 6388W        W74782   9.395  35.015   1.771
 6389W        W74783  23.477   1.969  13.653
 6390W        W74784  37.129  20.283   3.227
 6391W        W74785  37.276   8.840   4.229
 6392W        W74786  12.870   4.383   2.304
 6393W        W74787  25.064  21.524  11.222
 6394W        W74788  32.596  20.357   3.651
 6395W        W74789  28.358  18.752   0.318
 6396W        W74790  13.195   4.653   1.422
 6397W        W74791   2.937   6.458   2.798
 6398W        W74792  23.232  11.390   2.951
 6399W        W74793  25.606  11.670  14.273
 6400W        W74794  30.370  34.908  12.309
 6401W        W74795  14.383  32.163   2.265
 6402W        W74796  26.443  44.878   3.112
 6403W        W74797   9.618  18.528   1.665
 6404W        W74798   3.319  23.648  13.486
 6405W        W74799  36.900   5.252   4.331
 6406W        W74800  18.208   9.343  11.735
 6407W        W74801   9.994   3.226  12.099
 6408W        W74802  16.341  39.866   0.900
 6409W        W74803  16.276  43.293  12.290
 6410W        W74804  14.213  13.332   3.513
 6411W        W74805  25.841  35.526   3.736
 6412W        W74806  40.252  21.527  13.047
 6413W        W74807   3.722  14.851   1.376
 6414W        W74808  29.447  23.437  12.961
 6415W        W74809  24.347  25.593   4.129
 6416W        W74810   1.202  11.370   0.696
 6417W        W74811  30.067  35.230  12.044
 6418W        W74812  32.511   0.978  13.118
 6419W        W74813   7.091  39.373  13.032
 6420W        W74814  16.919   5.670  10.822
 6421W        W74815  39.980  40.935  12.336
 6422W        W74816  22.371  14.363   3.217
 6423W        W74817   2.876   0.027   3.556
 6424W        W74818   9.344   0.414  10.457
 6425W        W74819  16.089   1.688   2.287
 6426W        W74820  34.552  32.520   3.329
 6427W        W74821  38.343  26.081   3.916
 6428W        W74822  33.559  12.904   1.244
 6429W        W74823  24.144  44.860   5.463
 6430W        W74824  31.015  28.913   3.231
 6431W        W74825   9.295   0.054   1.243
 6432W        W74826  15.843   9.795   0.539
 6433W        W74827  13.628  27.538  11.143
 6434W        W74828  28.567  12.367   3.226
 6435W        W74829   3.300  27.655   0.970
 6436W        W74830  22.634   1.035  13.637
 6437W        W74831   8.636  12.361  11.055
 6438W        W74832  24.296  22.596   0.857
 6439W        W74833   9.502  38.410   1.511
 6440W        W74834   5.146  28.114  14.741
 6441W        W74835   3.161   8.738   4.940
 6442W        W74836   8.182  19.982   3.100
 6443W        W74837  11.743  38.572  11.746
 6444W        W74838  17.193  14.799  13.256
 6445W        W74839  39.497  39.122   1.841
 6446W        W74840  25.206  26.081   0.062
 6447W        W74841  39.700  43.382   0.826
 6448W        W74842  22.253  20.755  13.065
 6449W        W74843  10.337   9.039  13.473
 6450W        W74844   5.213  14.410   3.079
 6451W        W74845  25.389   7.608   3.125
 6452W        W74846   6.755  24.577   4.007
 6453W        W74847  32.423  36.752  12.005
 6454W        W74848  25.439  27.672   2.280
 6455W        W74849  17.565  38.223   1.754
 6456W        W74850   9.790  41.745  12.634
 6457W        W74851  30.644  16.821   3.212
 6458W        W74852   4.178   8.193   3.724
 6459W        W74853  13.820  22.404   0.445
 6460W        W74854  12.586  19.190  14.763
 6461W        W74855  12.695  20.036  14.191
 6462W        W74856  37.311  26.123   1.738
 6463W        W74857   4.993  12.011  10.757
 6464W        W74858  23.371  37.035   3.516
 6465W        W74859   3.906  26.098   4.305
 6466W        W74860  11.604  12.772   4.576
 6467W        W74861  18.584  10.585   2.700
 6468W        W74862  44.206  15.783   3.656
 6469W        W74863  36.500  27.673   3.951
 6470W        W74864  21.170  36.839  12.136
 6471W        W74865  23.218  38.845  12.646
 6472W        W74866  15.000  42.996  11.832
 6473W        W74867  38.398  15.632  14.732
 6474W        W74868  19.556  13.727   4.939
 6475W        W74869  20.209   7.149   3.363
 6476W        W74870  39.509  10.615  12.085
 6477W        W74871  33.485  14.072  13.644
 6478W        W74872  10.618  18.670  12.824
 6479W        W74873   3.512  16.571  10.087
 6480W        W74874   7.374  12.758   1.375
 6481W        W74875   8.095  19.417  10.469
 6482W        W74876  18.752  15.684   4.680
 6483W        W74877  18.525  18.135  13.934
 6484W        W74878  37.518  30.836  12.580
 6485W        W74879  15.399  15.601   0.264
 6486W        W74880   0.854  31.483  11.336
 6487W        W74881  22.199   5.714  12.945
 6488W        W74882  21.258  16.918   2.341
 6489W        W74883   1.515  20.199  12.005
 6490W        W74884  39.938  41.075  13.920
 6491W        W74885  12.530  43.176  13.935
 6492W        W74886   0.046  28.783  12.383
 6493W        W74887  34.959  31.933  14.784
 6494W        W74888   6.645  15.954  14.439
 6495W        W74889  39.056  31.569  13.805
 6496W        W74890  36.582  29.380   4.898
 6497W        W74891  34.543  17.213  14.842
 6498W        W74892   1.504  16.246  10.834
 6499W        W74893  14.254  33.643   1.850
 6500W        W74894  18.835   3.313   2.363
 6501W        W74895   2.823  34.486  10.483
 6502W        W74896   1.876  23.789   3.183
 6503W        W74897  41.534  16.213  11.523
 6504W        W74898  40.958  34.698   2.756
 6505W        W74899  36.073  36.856  11.251
 6506W        W74900  21.032   2.597  11.613
 6507W        W74901  11.171  16.241   0.326
 6508W        W74902  19.235  14.944   0.371
 6509W        W74903   3.912  28.709   0.929
 6510W        W74904   0.299  17.270  10.693
 6511W        W74905  43.549   7.458   0.242
 6512W        W74906   7.317  21.083   1.235
 6513W        W74907   7.531  17.189   2.830
 6514W        W74908   4.418  28.019  13.437
 6515W        W74909  37.450  19.073   2.260
 6516W        W74910  27.032   7.668   1.768
 6517W        W74911  40.704   7.864   1.713
 6518W        W74912   2.730  37.335  11.979
 6519W        W74913  23.178  22.055  11.254
 6520W        W74914  37.355  21.594   0.968
 6521W        W74915   4.300  17.783   3.928
 6522W        W74916  31.656   0.850  14.912
 6523W        W74917  25.082  29.626   2.494
 6524W        W74918  16.677  26.155  10.790
 6525W        W74919  24.201  23.734  14.084
 6526W        W74920  26.598  20.319  10.805
 6527W        W74921  24.121  25.217  11.474
 6528W        W74922  25.990  17.664  11.653
 6529W        W74923  37.079  34.854   4.184
 6530W        W74924  43.203  10.868   3.302
 6531W        W74925  39.039  36.297   4.840
 6532W        W74926  15.307  14.542   0.131
 6533W        W74927   0.611  19.835   2.151
 6534W        W74928   1.924  15.502  10.809
 6535W        W74929   7.416  28.597  10.980
 6536W        W74930  25.008  42.784   4.247
 6537W        W74931  10.713  20.544  10.597
 6538W        W74932  21.045  29.222   4.861
 6539W        W74933   8.127  27.725   4.082
 6540W        W74934  35.951  38.229   4.143
 6541W        W74935  17.179  22.394  13.462
 6542W        W74936  22.137   7.377  11.524
 6543W        W74937   6.888   5.161  12.474
 6544W        W74938  31.360  42.814  14.477
 6545W        W74939  18.120  18.711  13.399
 6546W        W74940  36.108  41.170   3.309
 6547W        W74941   4.265  32.534  14.292
 6548W        W74942  27.183  39.065   1.031
 6549W        W74943  41.541  40.761   2.815
 6550W        W74944  25.584  31.075   0.816
 6551W        W74945  34.394  28.591   0.176
 6552W        W74946  17.447  17.761  13.415
 6553W        W74947  10.877  11.186  14.736
 6554W        W74948  10.199  33.802   0.436
 6555W        W74949  39.073  36.875   0.874
 6556W        W74950  41.289  43.834   0.469
 6557W        W74951  11.896  23.130   1.920
 6558W        W74952  32.462  30.619   3.219
 6559W        W74953  27.709  43.315   3.189
 6560W        W74954  40.643  25.276  12.874
 6561W        W74955  13.724  11.840  13.156
 6562W        W74956  24.457  11.585  12.880
 6563W        W74957  38.100  38.065  10.712
 6564W        W74958  22.778  39.443  11.952
 6565W        W74959  44.732   0.045  11.040
 6566W        W74960  27.624   3.171  12.394
 6567W        W74961  24.437  42.519   0.395
 6568W        W74962  41.861  32.625   1.153
 6569W        W74963  19.919  20.324   2.201
 6570W        W74964  19.335   3.121   5.045
 6571W        W74965  28.660  41.305  13.158
 6572W        W74966  28.618   1.887  14.383
 6573W        W74967   9.893  41.599   2.367
 6574W        W74968  23.129  32.040   4.784
 6575W        W74969  15.274  26.490   1.185
 6576W        W74970  32.476  16.774  12.847
 6577W        W74971  22.214  27.429  14.733
 6578W        W74972  42.461   7.166   3.291
 6579W        W74973   5.279  14.909   0.406
 6580W        W74974   5.875  11.160  10.868
 6581W        W74975  27.138  37.756  12.073
 6582W        W74976  17.068  31.436  10.365
 6583W        W74977  41.265  43.296   2.843
 6584W        W74978  42.012  16.522   0.475
 6585W        W74979   0.629  44.809   0.967
 6586W        W74980   0.007  37.267  14.914
 6587W        W74981  38.809  15.868   4.948
 6588W        W74982   7.765  37.563   0.709
 6589W        W74983   7.211  23.428   9.634
 6590W        W74984  19.293   2.387  13.864
 6591W        W74985  44.341  10.504  14.023
 6592W        W74986  40.521  14.662   2.440
 6593W        W74987  12.926  20.776  10.542
 6594W        W74988   0.918  18.867   1.871
 6595W        W74989   9.143  11.749  14.333
 6596W        W74990  10.268  42.454   0.801
 6597W        W74991  32.141  31.621   2.669
 6598W        W74992  14.770  34.605   2.786
 6599W        W74993   1.780   3.365   3.545
 6600W        W74994  16.029  27.802  11.052
 6601W        W74995  36.002  25.265   0.474
 6602W        W74996   8.036  15.084  10.615
 6603W        W74997   1.410  30.977  14.783
 6604W        W74998  37.651  20.252   3.911
 6605W        W74999  22.558  40.969  12.570
 6606W        W75000  21.224  16.297   1.740
 6607W        W75001   0.064   3.897   0.824
 6608W        W75002  39.773  15.803  10.773
 6609W        W75003  33.027  14.563   4.480
 6610W        W75004   7.795  11.897  14.634
 6611W        W75005  31.675  37.832   0.357
 6612W        W75006  16.884  23.054  11.582
 6613W        W75007  33.472  39.464  10.918
 6614W        W75008  40.282   1.828   3.224
 6615W        W75009  41.900  38.554   1.651
 6616W        W75010  17.545  20.734  11.069
 6617W        W75011   7.484   6.435  11.536
 6618W        W75012  17.348  21.588  12.025
 6619W        W75013   4.763  28.680  13.157
 6620W        W75014  11.369  30.596  11.492
 6621W        W75015  30.500  23.868   0.232
 6622W        W75016  11.308  17.115   2.922
 6623W        W75017  37.273  39.763  13.776
 6624W        W75018  17.059  40.179  12.451
 6625W        W75019  15.012  38.813   4.252
 6626W        W75020  17.067  30.494   3.890
 6627W        W75021  30.919  18.110   0.859
 6628W        W75022  11.402  44.461   1.811
 6629W        W75023  27.120  25.573   3.922
 6630W        W75024   3.199  38.944  11.548
 6631W        W75025  43.460  14.395   0.256
 6632W        W75026  34.369  44.313   2.993
 6633W        W75027   4.002  20.062   1.400
 6634W        W75028   7.356   5.268  12.644
 6635W        W75029  20.516   9.611   1.363
 6636W        W75030   9.915  10.348   4.715
 6637W        W75031   4.732   7.094  10.715
 6638W        W75032  42.916  32.886  12.800
 6639W        W75033  17.603  21.593  14.003
 6640W        W75034  27.532  43.476  12.098
 6641W        W75035   4.593  12.271   3.768
 6642W        W75036  24.126  37.474   9.940
 6643W        W75037  20.617  41.700   4.127
 6644W        W75038  25.630  14.845  13.381
 6645W        W75039  36.827  39.341   3.702
 6646W        W75040  20.694  20.089   4.750
 6647W        W75041  34.667   4.329   2.755
 6648W        W75042  20.938  23.995   4.191
 6649W        W75043  31.817  19.757   2.729
 6650W        W75044   2.290   0.503  11.143
 6651W        W75045  13.305  14.114   0.441
 6652W        W75046  14.358   7.313  11.829
 6653W        W75047   9.693  18.318   0.204
 6654W        W75048  38.093  26.154  14.877
 6655W        W75049  34.275  17.933  10.612
 6656W        W75050  13.140  38.787   5.266
 6657W        W75051   0.951   0.330   2.661
 6658W        W75052  19.092  10.674   0.369
 6659W        W75053   7.996  11.746   3.668
 6660W        W75054   0.799  33.267   0.747
 6661W        W75055  31.376  37.992  14.939
 6662W        W75056   2.692   9.257  14.943
 6663W        W75057  29.127  35.439   2.678
 6664W        W75058  41.055  35.047   4.540
 6665W        W75059   4.968  38.872   1.173
 6666W        W75060  38.482  44.320   4.930
 6667W        W75061  33.664   8.717   2.259
 6668W        W75062  22.982  17.706   3.627
 6669W        W75063   9.081   5.283   2.002
 6670W        W75064  30.597  25.121   0.282
 6671W        W75065  25.217  26.059   4.152
 6672W        W75066  26.046   8.718  11.024
 6673W        W75067  36.582   7.164  13.018
 6674W        W75068  29.394  41.509   1.363
 6675W        W75069  15.817  16.213  13.439
 6676W        W75070  28.446  25.943   0.991
 6677W        W75071  25.625  11.852   2.802
 6678W        W75072  16.512  35.365  13.505
 6679W        W75073  33.685  39.014  14.165
 6680W        W75074  25.133  29.164   0.959
 6681W        W75075   7.176  26.739  13.320
 6682W        W75076  37.604  26.038  12.911
 6683W        W75077  29.379   3.904   0.456
 6684W        W75078   2.153  30.594  15.000
 6685W        W75079  21.483  42.446   3.628
 6686W        W75080  41.312  42.075   3.152
 6687W        W75081  28.277   7.347  14.834
 6688W        W75082  29.117  26.559  13.378
 6689W        W75083  27.207  29.399  13.843
 6690W        W75084  36.577  13.326   3.654
 6691W        W75085   1.840  44.752   2.806
 6692W        W75086   5.485  10.535  12.537
 6693W        W75087  18.968  10.462  14.473
 6694W        W75088  19.037   1.848   2.303
 6695W        W75089  33.159  34.875   1.440
 6696W        W75090   3.706  22.547   9.945
 6697W        W75091  34.635  31.061   0.327
 6698W        W75092   6.838  24.728   0.756
 6699W        W75093  13.244  23.310  11.253
 6700W        W75094  32.446  34.902  10.680
 6701W        W75095  16.896  11.265   2.831
 6702W        W75096  31.903  40.856  14.909
 6703W        W75097  10.342  37.850  13.364
 6704W        W75098  32.398  40.767   4.910
 6705W        W75099  44.966  29.469   4.573
 6706W        W75100   1.248   3.869  11.454
 6707W        W75101  34.558  14.262   0.427
 6708W        W75102  13.652   9.645  12.094
 6709W        W75103  17.340  17.764  11.137
 6710W        W75104  35.209  27.382   4.227
 6711W        W75105   4.468  16.173   3.222
 6712W        W75106  23.713  34.804  11.302
 6713W        W75107  33.681  12.745  11.143
 6714W        W75108   6.470  24.958  14.019
 6715W        W75109  31.098   5.154   2.437
 6716W        W75110  41.198  37.850  11.456
 6717W        W75111  43.432  21.354   5.160
 6718W        W75112   6.839  31.211  14.435
 6719W        W75113  21.232   7.800  14.835
 6720W        W75114  10.793  40.558  10.644
 6721W        W75115   8.173  39.421   1.515
 6722W        W75116  25.479   6.785  13.388
 6723W        W75117  28.404  24.670  12.841
 6724W        W75118   4.527  12.261  10.779
 6725W        W75119  44.307  12.709  10.852
 6726W        W75120   8.909  34.069  13.423
 6727W        W75121   4.389  22.695   3.252
 6728W        W75122  14.069  39.523  12.857
 6729W        W75123  13.121  37.874  12.883
 6730W        W75124  14.189  29.898   4.632
 6731W        W75125   3.393  18.302   3.633
 6732W        W75126  24.021   5.901   0.030
 6733W        W75127  32.427  35.326   3.082
 6734W        W75128  17.201  27.779   1.191
 6735W        W75129  26.576   9.769   5.250
 6736W        W75130  10.108  42.056  10.952
 6737W        W75131  14.583  27.472  14.840
 6738W        W75132  33.392  43.316   0.746
 6739W        W75133  37.397   1.294   4.671
 6740W        W75134  19.393   9.171   2.249
 6741W        W75135  23.570  37.381   2.667
 6742W        W75136   4.338  29.917   0.335
 6743W        W75137   4.475   1.850  11.993
 6744W        W75138  27.153  27.400  12.975
 6745W        W75139  13.303  28.352   3.709
 6746W        W75140   8.081   2.326  12.558
 6747W        W75141  41.941  30.336   3.026
 6748W        W75142   9.628  19.719  11.402
 6749W        W75143  39.297  14.283  14.487
 6750W        W75144  25.502  28.391  14.956
 6751W        W75145  20.772  41.559  10.932
 6752W        W75146  39.401  41.960  13.113
 6753W        W75147   7.655  19.343  12.011
 6754W        W75148  21.338   5.784  13.325
 6755W        W75149  39.892  15.910  12.672
 6756W        W75150  36.509   9.319  12.589
 6757W        W75151  24.258  42.649  14.292
 6758W        W75152  28.467  14.767  11.260
 6759W        W75153   0.978  41.495  11.100
 6760W        W75154  41.780  41.310   3.221
 6761W        W75155  14.713  38.338  12.062
 6762W        W75156  43.299  34.503  11.992
 6763W        W75157  25.664   6.802   3.771
 6764W        W75158  11.615   7.270  10.688
 6765W        W75159  28.505  40.865  13.367
 6766W        W75160  29.788  42.670  11.057
 6767W        W75161  25.943  43.763   1.726
 6768W        W75162  12.400  40.672   9.995
 6769W        W75163  26.800  17.286   0.382
 6770W        W75164  21.090  37.911  11.554
 6771W        W75165   9.118  20.967  14.321
 6772W        W75166  32.620  25.681   0.285
 6773W        W75167  15.202   6.677  10.791
 6774W        W75168  24.513  29.651   2.706
 6775W        W75169   7.006  21.588  13.622
 6776W        W75170   9.636  16.492   2.381
 6777W        W75171  37.962  27.886  10.513
 6778W        W75172  35.028  30.651   0.314
 6779W        W75173  32.501  38.990   4.196
 6780W        W75174   4.773  40.716   1.355
 6781W        W75175  35.237  14.622   1.031
 6782W        W75176  30.454  26.452   0.878
 6783W        W75177  44.190  24.251  13.714
 6784W        W75178  14.005  27.525  13.818
 6785W        W75179   7.471  24.607   1.660
 6786W        W75180  34.643   1.999  12.485
 6787W        W75181  34.493  36.385   2.107
 6788W        W75182  10.186  27.682  13.431
 6789W        W75183  33.185  11.469   3.405
 6790W        W75184  13.390   4.346   2.376
 6791W        W75185   6.228  44.300  12.504
 6792W        W75186  10.290  31.375   1.538
 6793W        W75187  31.948  16.633  13.717
 6794W        W75188  25.452  13.172   0.773
 6795W        W75189  32.430  12.131  11.101
 6796W        W75190   4.515  30.977   1.266
 6797W        W75191  41.441  44.258   0.725
 6798W        W75192  19.786  23.574   0.831
 6799W        W75193  38.326  36.777   1.930
 6800W        W75194  34.197  21.150   3.743
 6801W        W75195  24.587   9.690   0.597
 6802W        W75196   2.737   9.384  13.359
 6803W        W75197  20.056   2.725  11.512
 6804W        W75198  17.111  42.782   0.305
 6805W        W75199  23.848   3.480  10.545
 6806W        W75200  30.500   7.780  12.947
 6807W        W75201  20.140  27.404   3.562
 6808W        W75202   9.213  41.699   3.321
 6809W        W75203  43.539  18.409   4.834
 6810W        W75204  25.653  26.536   3.738
 6811W        W75205  12.390  20.791   2.761
 6812W        W75206   0.018  23.049  13.441
 6813W        W75207  31.296  35.960  13.304
 6814W        W75208  10.391   7.855  14.288
 6815W        W75209   4.877  13.869  14.904
 6816W        W75210  37.296  24.345  11.011
 6817W        W75211   2.189  37.741  13.663
 6818W        W75212  27.157  27.168   3.198
 6819W        W75213   1.742  43.555   0.336
 6820W        W75214  43.721   9.207   3.759
 6821W        W75215  43.390  41.823  14.467
 6822W        W75216  11.413  18.002  14.774
 6823W        W75217  28.065  15.961   3.744
 6824W        W75218  37.643   5.928  11.566
 6825W        W75219  34.005  44.856  10.796
 6826W        W75220  34.902  16.871  11.135
 6827W        W75221  37.377   6.260   4.303
 6828W        W75222   4.298  17.318   2.065
 6829W        W75223  44.068  40.354  13.551
 6830W        W75224   2.189  41.296  11.998
 6831W        W75225   7.676   8.731  13.895
 6832W        W75226  18.460  19.344   9.759
 6833W        W75227   6.346  10.242   4.016
 6834W        W75228  22.891  44.663  13.262
 6835W        W75229  22.838  32.121   1.145
 6836W        W75230  10.146  28.137   4.624
 6837W        W75231  15.195  16.618  13.933
 6838W        W75232  32.586   1.325   1.853
 6839W        W75233  43.739   8.794   0.452
 6840W        W75234  15.924  37.427  14.486
 6841W        W75235  31.949  14.515   3.789
 6842W        W75236  24.582   7.069  11.948
 6843W        W75237  26.688   8.293  14.286
 6844W        W75238   7.743  28.022   3.723
 6845W        W75239   5.866   6.258  13.940
 6846W        W75240  35.912  42.332  13.823
 6847W        W75241  24.551  22.827   0.381
 6848W        W75242  28.251  13.071   0.301
 6849W        W75243   7.608  13.411  11.942
 6850W        W75244  21.399  38.463  12.735
 6851W        W75245  33.021   2.961   4.815
 6852W        W75246  10.609  38.832  14.382
 6853W        W75247   1.465  44.511  10.708
 6854W        W75248  17.790   8.313  13.876
 6855W        W75249   8.281   7.441   1.909
 6856W        W75250   0.461  19.232   0.228
 6857W        W75251  23.653  15.289  13.075
 6858W        W75252  40.574  22.307   0.925
 6859W        W75253  25.258   9.149   0.921
 6860W        W75254   5.907  19.858  13.183
 6861W        W75255  25.196   3.931   2.211
 6862W        W75256   7.640  38.821  12.397
 6863W        W75257  29.421  21.045   1.443
 6864W        W75258  25.283   3.854  13.689
 6865W        W75259  31.574  22.606  11.433
 6866W        W75260  13.193  40.529  13.409
 6867W        W75261   0.364  21.257   0.451
 6868W        W75262  24.652  16.418   3.174
 6869W        W75263  30.131  43.276  11.678
 6870W        W75264  35.265  18.639   2.726
 6871W        W75265  37.909   8.973  11.622
 6872W        W75266  43.853   5.277  13.112
 6873W        W75267  41.150   3.741  11.072
 6874W        W75268  17.516  26.019  14.382
 6875W        W75269  38.143  38.385   0.318
 6876W        W75270  29.221  24.113  11.570
 6877W        W75271  31.270  24.067  13.190
 6878W        W75272  35.972   1.524   2.656
 6879W        W75273  10.799  11.322   1.946
 6880W        W75274   6.279  37.565   5.206
 6881W        W75275   1.946  13.302  14.954
 6882W        W75276  33.015  30.717   4.405
 6883W        W75277   5.517  40.104   2.436
 6884W        W75278  10.804  11.871  11.338
 6885W        W75279   5.919  33.713   4.173
 6886W        W75280  11.181  33.033  10.895
 6887W        W75281   2.914  44.995   2.712
 6888W        W75282   1.807   4.420  13.861
 6889W        W75283  17.294  43.367   2.466
 6890W        W75284  34.424   7.679  10.771
 6891W        W75285  34.523  22.722  10.648
 6892W        W75286   8.205  29.406  14.523
 6893W        W75287  30.104  33.314   3.696
 6894W        W75288  26.655  39.519   3.088
 6895W        W75289  27.209   3.752  14.015
 6896W        W75290   8.273  24.566   3.659
 6897W        W75291  41.468  33.895  13.805
 6898W        W75292  36.971   5.941  10.797
 6899W        W75293  34.666   0.902  11.176
 6900W        W75294   0.312  23.745  13.191
 6901W        W75295  22.684  42.010   0.298
 6902W        W75296  33.942   2.854   3.782
 6903W        W75297   3.773   3.798   4.067
 6904W        W75298  23.543  40.887  12.592
 6905W        W75299  32.975  17.303   4.364
 6906W        W75300   4.173   2.355  13.316
 6907W        W75301  10.112  32.990   2.763
 6908W        W75302  24.754   3.854  13.485
 6909W        W75303  29.369   2.462   0.677
 6910W        W75304  36.417  41.393  14.915
 6911W        W75305  10.967  27.685  14.498
 6912W        W75306  10.962  32.244   0.867
 6913W        W75307   9.386  22.745  12.621
 6914W        W75308  20.931  39.433   2.717
 6915W        W75309  23.966  24.682   0.790
 6916W        W75310  20.016  10.415  12.782
 6917W        W75311  31.446  31.454  14.944
 6918W        W75312  39.040  16.706   0.302
 6919W        W75313  24.018  35.531   0.802
 6920W        W75314   8.928  26.079   1.802
 6921W        W75315   5.633  24.755  11.245
 6922W        W75316   4.992   0.817   4.725
 6923W        W75317  33.726  43.337  12.421
 6924W        W75318  32.047  14.671  12.673
 6925W        W75319   0.562   3.820  13.466
 6926W        W75320   6.929  39.595   3.277
 6927W        W75321  15.231  15.032  13.403
 6928W        W75322  43.087  43.046   2.742
 6929W        W75323  17.507   7.831  14.444
 6930W        W75324  11.509   5.368  12.194
 6931W        W75325  35.934  35.099  11.305
 6932W        W75326   1.469  39.843   1.117
 6933W        W75327  41.100  22.635   4.460
 6934W        W75328   2.396  22.206   1.547
 6935W        W75329  17.139  36.029   5.102
 6936W        W75330   8.656  35.515   0.796
 6937W        W75331  25.754  41.091  12.039
 6938W        W75332  25.765   3.689  13.648
 6939W        W75333  41.787  24.636  11.186
 6940W        W75334  42.466   2.475  12.003
 6941W        W75335   9.208   7.249   1.193
 6942W        W75336  37.256  26.411  13.129
 6943W        W75337  18.227   5.626   2.591
 6944W        W75338  35.407  15.908   0.406
 6945W        W75339   7.330  10.447   3.676
 6946W        W75340  16.243   1.280   3.719
 6947W        W75341  10.972  35.085  11.045
 6948W        W75342  22.510  26.119   1.895
 6949W        W75343   4.390   3.533   1.440
 6950W        W75344   4.924  19.219  13.042
 6951W        W75345  28.409  17.116   2.825
 6952W        W75346  29.365  10.611  12.010
 6953W        W75347  39.247  13.670   2.867
 6954W        W75348  25.470  13.919   2.313
 6955W        W75349  32.839   9.358  12.641
 6956W        W75350   7.864  23.100  12.558
 6957W        W75351  17.637  37.844   4.357
 6958W        W75352  26.543  17.083   2.724
 6959W        W75353   9.918  16.501  11.730
 6960W        W75354  24.808   7.066  12.517
 6961W        W75355  20.518  33.954  10.653
 6962W        W75356  30.570  19.615   1.625
 6963W        W75357  31.261  44.089   0.428
 6964W        W75358   8.657  28.482  12.970
 6965W        W75359  28.958  40.283  13.266
 6966W        W75360  38.709  17.978   0.376
 6967W        W75361  24.560   5.979   1.899
 6968W        W75362  38.884  22.510  11.646
 6969W        W75363  23.069   3.137  12.111
 6970W        W75364   6.314  22.709  13.420
 6971W        W75365  40.294  20.756  12.110
 6972W        W75366  29.446  27.562  12.161
 6973W        W75367  23.861  22.098  13.970
 6974W        W75368  23.724  24.921  11.561
 6975W        W75369  17.745  12.262  12.327
 6976W        W75370  30.163  36.978   3.155
 6977W        W75371  14.034   8.696   0.850
 6978W        W75372  43.322  19.550   2.256
 6979W        W75373  23.207   0.149   2.916
 6980W        W75374  22.152  38.281  10.725
 6981W        W75375  44.077  39.482   4.851
 6982W        W75376  16.240  27.637  10.590
 6983W        W75377  16.780  24.229  13.542
 6984W        W75378  43.844  27.645   4.304
 6985W        W75379  22.487  30.499   4.824
 6986W        W75380   0.990  35.816  13.547
 6987W        W75381  19.466  24.477  13.068
 6988W        W75382   9.077   9.523   4.276
 6989W        W75383  38.848   8.583  11.630
 6990W        W75384  13.957  31.852   2.236
 6991W        W75385  15.334  36.736  11.595
 6992W        W75386   3.043  36.348  12.150
 6993W        W75387  38.541  27.400  11.074
 6994W        W75388  27.366  25.193   3.064
 6995W        W75389  30.085  37.765  11.197
 6996W        W75390  28.802  38.883  13.142
 6997W        W75391   1.822  33.494   2.571
 6998W        W75392  22.479  35.191   2.631
 6999W        W75393  42.677  43.127   4.580
 7000W        W75394  15.717  18.056  12.096
 7001W        W75395  35.073  14.335  14.720
 7002W        W75396  13.100  15.140   0.889
 7003W        W75397  25.920  22.093   0.392
 7004W        W75398  38.060  40.742   2.752
 7005W        W75399  23.478  30.692  11.865
 7006W        W75400   1.751  11.339   4.168
 7007W        W75401  23.602  16.227  13.048
 7008W        W75402  34.606   6.382  11.929
 7009W        W75403  18.322  41.961   0.993
 7010W        W75404  33.393  13.702  12.097
 7011W        W75405  36.144  34.849   3.657
 7012W        W75406  24.884  28.506   2.802
 7013W        W75407  23.533   6.228  11.456
 7014W        W75408  39.468   7.380  11.162
 7015W        W75409   1.378  41.849  14.050
 7016W        W75410  43.718  44.915  14.243
 7017W        W75411  35.279  30.100  10.670
 7018W        W75412  25.611  30.250  11.223
 7019W        W75413   6.379  18.738   2.566
 7020W        W75414  34.994   9.437  10.854
 7021W        W75415  34.714   4.198  11.587
 7022W        W75416  24.706  43.778  12.015
 7023W        W75417   7.438  20.861  12.099
 7024W        W75418  41.358  31.038  10.735
 7025W        W75419  34.626  18.566  12.857
 7026W        W75420   6.656  33.200   4.568
 7027W        W75421  15.129  38.080  13.763
 7028W        W75422  29.496   5.531  11.532
 7029W        W75423  23.723  31.995   0.791
 7030W        W75424  36.077  32.845  13.577
 7031W        W75425  38.422   5.707   0.269
 7032W        W75426  43.006  25.619  13.538
 7033W        W75427   9.187   9.713  13.904
 7034W        W75428  31.625   6.238   2.380
 7035W        W75429   4.950  10.704  14.290
 7036W        W75430  28.727  29.370   1.251
 7037W        W75431  27.814  13.373  10.763
 7038W        W75432   6.680  33.658   3.808
 7039W        W75433   7.313   9.902   3.685
 7040W        W75434  11.551  39.943   3.726
 7041W        W75435  36.255  38.756  12.096
 7042W        W75436  29.368  10.124  13.939
 7043W        W75437  40.241   6.790  11.846
 7044W        W75438   3.245  25.229  11.707
 7045W        W75439  18.578  30.957  14.857
 7046W        W75440  15.649  41.288  10.786
 7047W        W75441   7.253  15.581  10.730
 7048W        W75442   5.464  17.016  10.970
 7049W        W75443  20.660  42.349   4.879
 7050W        W75444  21.815  32.679  13.616
 7051W        W75445  36.573  14.271  11.914
 7052W        W75446  22.985   4.155   4.515
 7053W        W75447  24.987  27.068   4.037
 7054W        W75448  26.670  14.808   4.940
 7055W        W75449  31.561   0.206   4.900
 7056W        W75450  14.951  13.659  13.048
 7057W        W75451  11.354  32.585   0.815
 7058W        W75452   1.919  36.072  10.771
 7059W        W75453  22.990  34.171   4.512
 7060W        W75454   9.049   4.333   5.407
 7061W        W75455  20.651  15.883   0.624
 7062W        W75456  16.191  23.110   4.773
 7063W        W75457   0.466  19.072  12.928
 7064W        W75458  31.613  32.673  14.588
 7065W        W75459  27.667   4.255   3.794
 7066W        W75460   0.347  22.283  13.302
 7067W        W75461   0.397  40.287   3.724
 7068W        W75462   5.931   8.351   1.186
 7069W        W75463  16.589   9.841  14.969
 7070W        W75464  23.718  30.096  14.929
 7071W        W75465  32.674   5.177   1.254
 7072W        W75466  36.697  34.897   2.887
 7073W        W75467  40.396  19.246   2.797
 7074W        W75468  25.007  33.898  14.073
 7075W        W75469  32.436   0.741   0.855
 7076W        W75470   3.842  20.494   3.898
 7077W        W75471   5.399  19.626  14.796
 7078W        W75472  44.246  37.002   0.641
 7079W        W75473  13.826   2.236  12.747
 7080W        W75474  43.199  22.690   1.685
 7081W        W75475  25.038  38.365  12.879
 7082W        W75476  16.944   8.430  12.872
 7083W        W75477  32.108  19.062   2.844
 7084W        W75478  31.468   9.063  11.582
 7085W        W75479  11.953  32.082   3.623
 7086W        W75480  13.689   5.277   0.760
 7087W        W75481  35.623   8.743  11.072
 7088W        W75482  23.885  16.285   2.414
 7089W        W75483  34.906   5.429  14.810
 7090W        W75484  42.412  39.975   0.201
 7091W        W75485  19.317  20.597  11.000
 7092W        W75486  41.109  24.598   1.945
 7093W        W75487  36.326  23.999   1.502
 7094W        W75488   8.935   8.968  12.416
 7095W        W75489   2.274  30.053  13.940
 7096W        W75490  25.777  37.778  10.807
 7097W        W75491   3.394   0.858  13.324
 7098W        W75492  44.858   6.151  10.314
 7099W        W75493  31.636  18.678   3.273
 7100W        W75494  41.694  21.554  12.176
 7101W        W75495  11.301  34.685   4.090
 7102W        W75496  16.903  34.602   0.511
 7103W        W75497  13.801   7.638   2.764
 7104W        W75498  26.899   1.276   4.328
 7105W        W75499  34.402  44.496   0.685
 7106W        W75500  44.508   3.645   4.734
 7107W        W75501  29.582  26.928   4.528
 7108W        W75502   0.680   1.750  13.471
 7109W        W75503   0.558  27.069  13.926
 7110W        W75504   1.315  35.589   1.670
 7111W        W75505  31.498   8.967  14.750
 7112W        W75506  43.530  28.558  13.536
 7113W        W75507  30.139  35.558   2.644
 7114W        W75508  26.502  24.859   0.360
 7115W        W75509  43.059  21.578   2.172
 7116W        W75510  11.570  44.420  12.595
 7117W        W75511  35.168  25.726  14.447
 7118W        W75512  18.344   7.602   9.914
 7119W        W75513  42.408  18.398  14.307
 7120W        W75514  10.244  37.338   1.132
 7121W        W75515  29.574  20.549  14.817
 7122W        W75516  18.702  20.985  11.791
 7123W        W75517  23.293  36.761  11.257
 7124W        W75518  25.602  29.206   1.275
 7125W        W75519  19.893   7.210   2.950
 7126W        W75520   2.666  35.990  11.535
 7127W        W75521   9.761  36.028   1.216
 7128W        W75522  44.613  15.197   1.262
 7129W        W75523  19.990   2.787   3.642
 7130W        W75524   2.971   0.508   0.778
 7131W        W75525   9.068  30.461   1.386
 7132W        W75526   1.052  38.334  11.037
 7133W        W75527   7.293  21.610   2.865
 7134W        W75528  14.408  29.524  12.068
 7135W        W75529  21.310  21.433  13.382
 7136W        W75530  12.811  42.830  10.607
 7137W        W75531  10.504   2.736  13.335
 7138W        W75532  18.391   9.151   2.461
 7139W        W75533  18.500   6.752  10.931
 7140W        W75534  23.139   2.463   4.708
 7141W        W75535   6.834  38.822  13.808
 7142W        W75536   6.257  44.939  10.772
 7143W        W75537  44.455  43.829   1.935
 7144W        W75538  19.117   1.286  11.704
 7145W        W75539  43.290   7.400   3.331
 7146W        W75540   5.412  13.211  13.357
 7147W        W75541  17.237  37.829   0.853
 7148W        W75542  11.335  20.097  14.771
 7149W        W75543  19.232   6.173  14.568
 7150W        W75544   7.159  41.057   4.851
 7151W        W75545  11.189  23.113  10.775
 7152W        W75546   2.456  13.495   0.203
 7153W        W75547  37.677   1.622  13.070
 7154W        W75548  10.763  40.010  14.022
 7155W        W75549  44.707  39.916  10.661
 7156W        W75550  14.010  34.526   3.004
 7157W        W75551   0.300  17.139   3.289
 7158W        W75552  35.097  44.341  12.085
 7159W        W75553  44.142  21.107  13.398
 7160W        W75554  36.483  11.608   0.354
 7161W        W75555  40.076  20.892   4.817
 7162W        W75556   6.967   9.749   1.190
 7163W        W75557   4.052  34.657  11.511
 7164W        W75558   5.363  15.575  11.215
 7165W        W75559  22.706   8.753   2.395
 7166W        W75560  43.079  21.041   4.721
 7167W        W75561  14.171   0.993   3.273
 7168W        W75562  18.649  41.630  11.036
 7169W        W75563  10.195  44.490  12.331
 7170W        W75564   0.321  16.786  10.905
 7171W        W75565  41.343  44.346  12.445
 7172W        W75566   1.233  21.103   3.298
 7173W        W75567  36.603  10.129  12.040
 7174W        W75568  35.589  40.585  14.955
 7175W        W75569  13.690   7.203  13.963
 7176W        W75570   1.532  26.909  11.621
 7177W        W75571  23.728  29.582  14.821
 7178W        W75572  27.385  31.582   0.040
 7179W        W75573  36.369  39.547   0.322
 7180W        W75574   2.157   4.440   2.733
 7181W        W75575  11.128  40.809   4.305
 7182W        W75576  33.030  31.957  14.538
 7183W        W75577  37.576  27.638   4.691
 7184W        W75578  36.584  14.312   1.153
 7185W        W75579  27.800  43.743  13.383
 7186W        W75580   6.426  15.802   1.123
 7187W        W75581  35.463  28.629  12.986
 7188W        W75582  32.909   3.079  13.458
 7189W        W75583  10.675  21.102  12.366
 7190W        W75584   6.852   2.362   3.197
 7191W        W75585  40.838  20.006  13.035
 7192W        W75586  43.923  35.090   2.886
 7193W        W75587  29.116  31.695   4.021
 7194W        W75588  10.460  37.173  12.881
 7195W        W75589  18.613   3.801  14.928
 7196W        W75590   1.961  34.211  13.985
 7197W        W75591   4.121  19.490  12.805
 7198W        W75592  20.013  16.963  13.245
 7199W        W75593  30.358   3.639   0.764
 7200W        W75594  43.022  33.641   3.736
 7201W        W75595  21.616   1.887  11.418
 7202W        W75596  41.376  19.820   3.731
 7203W        W75597  12.631   4.330  12.944
 7204W        W75598   5.647   5.169  14.451
 7205W        W75599   8.927  16.560  12.766
 7206W        W75600  14.547  36.379  11.691
 7207W        W75601  13.794   4.247  11.051
 7208W        W75602  40.455   5.245   0.755
 7209W        W75603  35.540  25.154   3.313
 7210W        W75604  30.621  26.045   4.179
 7211W        W75605  21.100  15.943  12.416
 7212W        W75606  10.265  25.294  10.777
 7213W        W75607  19.259   0.219   0.389
 7214W        W75608   3.087  24.763  12.096
 7215W        W75609  10.790  23.295   2.256
 7216W        W75610  35.432  39.866  14.770
 7217W        W75611  15.635   1.313  13.797
 7218W        W75612  14.025  20.162  12.529
 7219W        W75613   2.007  17.836  11.537
 7220W        W75614  25.207  19.772   4.398
 7221W        W75615  21.529  15.046  13.006
 7222W        W75616  41.279  32.121  11.600
 7223W        W75617  42.946  18.081   1.369
 7224W        W75618   8.341  34.349   3.799
 7225W        W75619  41.074  19.465  13.520
 7226W        W75620  29.596  39.481  13.419
 7227W        W75621  19.097  40.246  14.001
 7228W        W75622  12.177  14.613  12.588
 7229W        W75623  19.752  37.344  10.663
 7230W        W75624   3.342   3.502   4.170
 7231W        W75625  33.681  31.642   3.168
 7232W        W75626  30.578   7.365  11.676
 7233W        W75627  18.208  36.832  13.240
 7234W        W75628   4.998  29.528  13.649
 7235W        W75629  16.683  42.858   1.253
 7236W        W75630  37.099  13.795   1.867
 7237W        W75631  19.413  19.042   1.694
 7238W        W75632   4.093  29.405  14.021
 7239W        W75633  20.963   8.196   0.400
 7240W        W75634   4.868   4.298   1.342
 7241W        W75635   3.046  30.971  12.020
 7242W        W75636  31.712  28.574   3.404
 7243W        W75637  14.532  40.617  14.519
 7244W        W75638  44.537   5.860   3.153
 7245W        W75639  43.980   4.004   2.109
 7246W        W75640   7.943  24.911  14.043
 7247W        W75641  19.400  12.174   3.285
 7248W        W75642   4.166   2.198   4.586
 7249W        W75643   0.381  20.238   3.348
 7250W        W75644  31.432  15.547  12.547
 7251W        W75645  43.123  16.619  11.202
 7252W        W75646  18.624  43.907  11.155
 7253W        W75647  44.368  19.504  11.190
 7254W        W75648   3.155  15.985   1.789
 7255W        W75649  32.192   7.395  10.391
 7256W        W75650  21.143  41.394   1.318
 7257W        W75651   8.075  19.011   4.213
 7258W        W75652  20.596  19.602   4.385
 7259W        W75653  21.534  25.653  10.378
 7260W        W75654  14.592  30.193   2.590
 7261W        W75655  22.661  25.262  12.389
 7262W        W75656  40.836  20.773  13.390
 7263W        W75657   7.523  28.369  13.353
 7264W        W75658  36.528  17.255   0.425
 7265W        W75659   2.204  19.569   1.512
 7266W        W75660  26.179  38.917   4.565
 7267W        W75661  40.646   5.508  12.480
 7268W        W75662  27.830   8.159  11.082
 7269W        W75663  15.463  11.760   1.890
 7270W        W75664   3.718  11.309   0.885
 7271W        W75665  44.098  23.682  10.596
 7272W        W75666   7.731   2.397   0.647
 7273W        W75667   5.599   5.246   0.408
 7274W        W75668  19.144   2.001  13.473
 7275W        W75669  40.618  12.812  13.512
 7276W        W75670   9.759  28.545  11.620
 7277W        W75671  16.274  36.794  14.696
 7278W        W75672  33.329   6.954  10.349
 7279W        W75673  24.193  27.444  11.102
 7280W        W75674   6.435  31.460   0.711
 7281W        W75675  35.678  43.325  14.927
 7282W        W75676   0.058   7.839   4.545
 7283W        W75677  28.701  31.798   1.699
 7284W        W75678  10.327  29.128  12.561
 7285W        W75679  24.613  32.711  14.317
 7286W        W75680  33.079  13.514  13.398
 7287W        W75681  34.968  39.301   4.079
 7288W        W75682  35.240  10.690   1.734
 7289W        W75683  12.739   6.980   4.193
 7290W        W75684  18.304  10.650   3.284
 7291W        W75685   7.963  13.928  11.319
 7292W        W75686  22.703  31.098   1.145
 7293W        W75687  19.701  37.909   1.601
 7294W        W75688  32.031  25.291   9.942
 7295W        W75689  35.440  29.165  12.974
 7296W        W75690  21.339  13.104  13.487
 7297W        W75691  41.048   2.250   3.253
 7298W        W75692  30.127  38.075  10.791
 7299W        W75693  38.501  32.850  10.625
 7300W        W75694  31.147  15.546  11.171
 7301W        W75695   2.441   8.810   3.210
 7302W        W75696  16.568  14.232   1.719
 7303W        W75697  32.379  37.597  14.781
 7304W        W75698  27.712  19.735  10.652
 7305W        W75699  33.741  33.543  10.013
 7306W        W75700  35.877  26.561   4.595
 7307W        W75701  20.413  13.996   4.905
 7308W        W75702  31.533  37.084   2.428
 7309W        W75703  12.564  33.559  11.574
 7310W        W75704  19.552   9.852  14.019
 7311W        W75705  19.740  16.840   5.095
 7312W        W75706  36.875   3.893  12.400
 7313W        W75707  17.129  42.268   0.327
 7314W        W75708  30.354  35.623  14.451
 7315W        W75709  42.222   0.289   1.363
 7316W        W75710  15.109  14.861  12.434
 7317W        W75711  27.174  30.988  12.938
 7318W        W75712  21.034  44.608  14.022
 7319W        W75713  12.779   3.393   0.830
 7320W        W75714   6.262  42.249  10.589
 7321W        W75715  18.619  33.470  13.930
 7322W        W75716  29.538  12.997  14.766
 7323W        W75717  35.398  19.241  12.879
 7324W        W75718   1.832  24.549  10.718
 7325W        W75719   7.581  17.838   0.792
 7326W        W75720  16.947  37.857   3.795
 7327W        W75721  14.220   2.764  10.374
 7328W        W75722  24.709  39.321   3.290
 7329W        W75723  29.594  17.303  14.554
 7330W        W75724  23.585   0.814   1.735
 7331W        W75725   8.699  17.581   1.711
 7332W        W75726   7.606   5.434  14.996
 7333W        W75727  20.592   0.515   4.612
 7334W        W75728  16.153  13.263   3.711
 7335W        W75729  28.597  20.716  14.064
 7336W        W75730  32.847  37.536  11.542
 7337W        W75731  43.867  24.638   4.033
 7338W        W75732  17.158  35.571   1.283
 7339W        W75733  33.395  30.597  11.226
 7340W        W75734  32.601   8.305   3.082
 7341W        W75735  32.108  37.927   3.685
 7342W        W75736   6.857  40.738   4.550
 7343W        W75737  27.749  35.540   5.103
 7344W        W75738  29.138   4.200   2.364
 7345W        W75739  14.251  22.328   4.339
 7346W        W75740   2.349  21.676   3.514
 7347W        W75741   3.099   6.961   2.834
 7348W        W75742  29.684  24.313  14.486
 7349W        W75743  17.313  18.199  11.991
 7350W        W75744  44.890  15.120  12.951
 7351W        W75745   0.747   2.958   3.280
 7352W        W75746  23.630  20.849   4.474
 7353W        W75747  25.509  17.276   4.843
 7354W        W75748  24.613  11.246   0.373
 7355W        W75749  14.637  42.559   2.320
 7356W        W75750  12.241  40.884  13.292
 7357W        W75751  44.356  25.788   3.081
 7358W        W75752  22.772  18.132   4.415
 7359W        W75753  28.222  35.140  12.022
 7360W        W75754  25.245   6.248   2.737
 7361W        W75755  34.012  29.683  12.342
 7362W        W75756  13.653  17.949   1.010
 7363W        W75757   1.441  15.254   4.099
 7364W        W75758  31.394  18.229   2.399
 7365W        W75759  11.712  27.184  11.994
 7366W        W75760  33.457  21.635   3.803
 7367W        W75761  30.980   3.399  12.585
 7368W        W75762  11.212  37.985  14.478
 7369W        W75763  24.006  40.145   3.495
 7370W        W75764   4.277  28.704  10.900
 7371W        W75765   9.815  25.477   3.504
 7372W        W75766  44.862  32.553   1.240
 7373W        W75767  39.401   8.809   2.103
 7374W        W75768   6.956   6.913  12.089
 7375W        W75769   8.214   1.264   3.152
 7376W        W75770   1.991  19.580   3.792
 7377W        W75771  32.525  41.456  14.449
 7378W        W75772  14.651   4.680  11.961
 7379W        W75773  38.624   7.279   4.217
 7380W        W75774   5.238   6.271   1.454
 7381W        W75775  23.190  10.709   0.200
 7382W        W75776  17.456  26.435   3.282
 7383W        W75777   5.475  20.265   1.201
 7384W        W75778  18.289  16.589   2.729
 7385W        W75779  33.643  16.866   3.150
 7386W        W75780  32.854  29.107  12.635
 7387W        W75781  41.037  21.194   4.648
 7388W        W75782  28.002  41.077  11.189
 7389W        W75783   9.166  22.602  13.596
 7390W        W75784  29.027   2.897  13.065
 7391W        W75785   7.323  20.274   0.825
 7392W        W75786  31.145  40.336  10.720
 7393W        W75787  14.507  44.481   4.176
 7394W        W75788  20.697  19.656  11.384
 7395W        W75789  10.877  43.372  13.689
 7396W        W75790   0.725  42.827   3.101
 7397W        W75791  20.599  25.142  10.696
 7398W        W75792  40.423  44.814  10.564
 7399W        W75793  11.151   1.891  14.400
 7400W        W75794  35.577  17.916  11.963
 7401W        W75795  40.346   0.793  11.014
 7402W        W75796  33.884  27.857   2.694
 7403W        W75797  44.383   9.332   1.411
 7404W        W75798  27.764  22.707   3.680
 7405W        W75799  16.050  44.774  13.379
 7406W        W75800  28.183  26.695   3.734
 7407W        W75801  24.206  10.986   1.851
 7408W        W75802  11.672  23.498  10.362
 7409W        W75803  37.129  24.677   1.761
 7410W        W75804  16.805  17.238  14.770
 7411W        W75805   7.690  43.959   0.393
 7412W        W75806   0.282  22.563  12.028
 7413W        W75807   3.517   4.204   2.277
 7414W        W75808   5.627  44.506  10.820
 7415W        W75809  38.903   7.327  10.647
 7416W        W75810  37.360  22.151   1.724
 7417W        W75811   3.459  34.134   3.996
 7418W        W75812  40.059  40.848  10.562
 7419W        W75813   4.914  25.525  14.625
 7420W        W75814   2.839  32.677   1.208
 7421W        W75815  18.242  36.671  12.753
 7422W        W75816  38.922  11.628   0.328
 7423W        W75817  25.691   6.849  12.928
 7424W        W75818  39.297  41.996   4.892
 7425W        W75819   9.633  26.408   3.744
 7426W        W75820  11.635  22.586   3.680
 7427W        W75821  30.071  33.855   4.607
 7428W        W75822  27.542  35.567  13.197
 7429W        W75823   1.499  15.756  10.634
 7430W        W75824  23.668  21.780   4.034
 7431W        W75825   2.785   3.785  14.232
 7432W        W75826  27.522  10.712   3.259
 7433W        W75827   7.917   4.014  12.585
 7434W        W75828  22.943  14.635   4.750
 7435W        W75829  31.118  30.506  14.326
 7436W        W75830  15.502  22.128   4.743
 7437W        W75831  16.838   2.461   3.190
 7438W        W75832  39.213  43.371   1.018
 7439W        W75833   7.356   3.358  12.561
 7440W        W75834  34.549   3.682  12.461
 7441W        W75835  10.855  19.939   1.441
 7442W        W75836  34.869  11.325  13.968
 7443W        W75837  17.643  42.986   4.403
 7444W        W75838  33.588   3.161   0.941
 7445W        W75839  11.640  43.915  10.605
 7446W        W75840  26.784  33.504  13.758
 7447W        W75841  13.994   6.318  14.273
 7448W        W75842  17.595  36.043   4.182
 7449W        W75843  33.366   7.922  10.975
 7450W        W75844  18.338   2.357  10.870
 7451W        W75845  26.522   5.656   1.825
 7452W        W75846  19.420  32.739  12.166
 7453W        W75847  23.315  14.175   3.586
 7454W        W75848  37.146  10.599   2.190
 7455W        W75849   1.242  27.610   1.665
 7456W        W75850  24.134  11.091  10.813
 7457W        W75851  30.417   0.931  10.797
 7458W        W75852  44.581  40.493  13.596
 7459W        W75853  20.888  17.152   3.736
 7460W        W75854  26.299  15.717  12.671
 7461W        W75855   7.343  37.850   3.403
 7462W        W75856  27.153   2.785   0.729
 7463W        W75857  12.881  34.605   3.246
 7464W        W75858  16.217   7.673   3.525
 7465W        W75859  13.447  26.592  14.765
 7466W        W75860   5.663  37.821  14.372
 7467W        W75861  26.083  12.707   0.288
 7468W        W75862  16.281  36.149  13.786
 7469W        W75863  36.024  18.595   3.244
 7470W        W75864  23.163  34.167  14.021
 7471W        W75865  42.248  21.716   3.604
 7472W        W75866  41.284   3.512   1.673
 7473W        W75867  38.882   0.933   1.761
 7474W        W75868   3.248  15.171   4.095
 7475W        W75869  37.055  29.067  13.329
 7476W        W75870  22.433  17.366  12.543
 7477W        W75871  43.038  28.641  13.689
 7478W        W75872  31.004   3.810  10.972
 7479W        W75873  24.265  29.347   1.442
 7480W        W75874   9.002  35.654  14.336
 7481W        W75875   4.724   0.868  14.737
 7482W        W75876   7.785  41.590   3.710
 7483W        W75877   1.128  17.751  11.100
 7484W        W75878  42.502  23.806  13.147
 7485W        W75879  27.419  44.857  14.168
 7486W        W75880  12.797   3.964  11.147
 7487W        W75881  11.383  19.799  14.353
 7488W        W75882  43.755   7.393   3.585
 7489W        W75883  29.411  24.593  11.632
 7490W        W75884  30.078   7.705   2.240
 7491W        W75885  28.112   2.263  12.374
 7492W        W75886   9.807  39.049  13.527
 7493W        W75887   2.302  43.298  12.076
 7494W        W75888   3.679   9.698   4.231
 7495W        W75889  42.603  35.228   4.979
 7496W        W75890  16.998   4.842  11.177
 7497W        W75891  25.876  35.620  13.066
 7498W        W75892  33.150  23.233  11.661
 7499W        W75893  22.451  16.597  11.569
 7500W        W75894  31.671  33.187  11.535
 7501W        W75895  30.362  13.563  14.302
 7502W        W75896  29.282   8.233  13.042
 7503W        W75897   1.886  20.791   1.666
 7504W        W75898   1.988  33.145   0.741
 7505W        W75899   0.882  11.460  12.042
 7506W        W75900  19.023   0.831   1.518
 7507W        W75901  17.745  19.286  14.370
 7508W        W75902   1.305  40.015   1.934
 7509W        W75903  29.872   8.759  14.555
 7510W        W75904  42.158  23.401  11.707
 7511W        W75905  29.882   5.315  10.829
 7512W        W75906  15.539  10.706   2.762
 7513W        W75907  38.837  16.026   4.073
 7514W        W75908  24.121  34.325  13.302
 7515W        W75909  44.847  41.268   4.465
 7516W        W75910  33.942  44.849   3.149
 7517W        W75911  34.827   0.363   0.256
 7518W        W75912   1.923  15.777  11.637
 7519W        W75913  27.229  16.045  11.299
 7520W        W75914  13.076  10.606  10.690
 7521W        W75915   7.331  30.687   3.127
 7522W        W75916  19.732  22.645   2.336
 7523W        W75917  29.561   6.299  13.997
 7524W        W75918  30.214  14.170  10.737
 7525W        W75919  36.831  40.603  14.363
 7526W        W75920  12.797  27.199  14.403
 7527W        W75921  25.084  13.684  10.841
 7528W        W75922  19.328  25.159   5.292
 7529W        W75923  36.417   8.626   3.872
 7530W        W75924  19.694  24.015   3.128
 7531W        W75925  44.438  15.746  13.097
 7532W        W75926  15.751  33.086  13.885
 7533W        W75927  14.291  35.522   0.535
 7534W        W75928   4.383  11.648   1.678
 7535W        W75929  31.890  33.366   3.232
 7536W        W75930  10.220  40.452  14.886
 7537W        W75931  32.588  16.503   0.522
 7538W        W75932  19.338  27.192  14.905
 7539W        W75933   4.569  37.977   2.414
 7540W        W75934  38.096  27.426  10.318
 7541W        W75935  35.071   8.625   1.848
 7542W        W75936   1.796  40.472  11.006
 7543W        W75937  20.611  39.476  11.956
 7544W        W75938  27.246  22.752  13.102
 7545W        W75939   8.073   7.323  10.616
 7546W        W75940  31.011  43.947   4.563
 7547W        W75941  12.899  37.381  10.586
 7548W        W75942  36.830   2.039   3.211
 7549W        W75943  25.688  22.692  11.965
 7550W        W75944  17.793  14.217  13.503
 7551W        W75945  31.189   9.747   2.734
 7552W        W75946  12.237   5.717   0.451
 7553W        W75947  17.678  12.914  14.631
 7554W        W75948  35.268  31.457   2.365
 7555W        W75949  41.520   0.258  11.155
 7556W        W75950  25.630  14.564   4.190
 7557W        W75951   5.191  43.072  12.969
 7558W        W75952  36.032  15.324   0.642
 7559W        W75953  42.449  41.966  11.977
 7560W        W75954   9.530  36.472   0.378
 7561W        W75955  38.955  14.803  14.334
 7562W        W75956  21.169  12.314  11.402
 7563W        W75957  30.582  27.673   1.135
 7564W        W75958  26.034   2.681   2.701
 7565W        W75959   9.204   9.226  13.584
 7566W        W75960   2.165  20.747   0.644
 7567W        W75961  23.406  29.510   2.424
 7568W        W75962  13.094  18.322  13.003
 7569W        W75963   8.783  16.803  13.699
 7570W        W75964  32.167  42.559   1.831
 7571W        W75965  38.611  27.642   2.405
 7572W        W75966  11.654  10.642   1.004
 7573W        W75967  33.848  31.343  13.872
 7574W        W75968  26.075  10.333   1.802
 7575W        W75969   9.374   2.845   0.395
 7576W        W75970   2.300  19.800  14.424
 7577W        W75971  41.781  26.997  14.386
 7578W        W75972  27.910  38.001   3.527
 7579W        W75973  34.448  36.910  13.501
 7580W        W75974  33.525  43.308   2.660
 7581W        W75975  19.056  39.459   2.066
 7582W        W75976   7.322  17.689  14.360
 7583W        W75977  24.292   4.925   2.353
 7584W        W75978  28.992  17.773  13.886
 7585W        W75979  41.468   0.688  14.802
 7586W        W75980  10.215   6.673  14.556
 7587W        W75981   0.170   0.374  13.393
 7588W        W75982  32.463  18.762   0.902
 7589W        W75983  33.571  11.597   1.737
 7590W        W75984  19.560   7.981   2.800
 7591W        W75985  21.378  16.604   2.842
 7592W        W75986  32.566  21.206   1.733
 7593W        W75987  44.070  37.440  13.293
 7594W        W75988  24.443   7.391  13.220
 7595W        W75989  15.145  13.393   3.688
 7596W        W75990  30.541  27.320   0.244
 7597W        W75991  34.322   5.892  13.309
 7598W        W75992  32.329  30.784   5.003
 7599W        W75993  15.333  20.301  14.496
 7600W        W75994  16.553  21.318   3.694
 7601W        W75995   0.297   5.190   4.576
 7602W        W75996   9.174  24.252   0.551
 7603W        W75997  16.655  38.884   2.340
 7604W        W75998   9.865  30.561   0.979
 7605W        W75999   0.998   6.169   3.658
 7606W        W76000  10.760  14.638   2.809
 7607W        W76001  35.045   3.755  11.677
 7608W        W76002  22.535  36.119  14.711
 7609W        W76003  44.165   3.030  12.341
 7610W        W76004   6.758   1.291  13.102
 7611W        W76005   9.328   2.515  10.546
 7612W        W76006  31.177  41.292  12.433
 7613W        W76007  34.400  33.002   3.078
 7614W        W76008  32.842  35.046  11.005
 7615W        W76009  35.410   8.237  11.556
 7616W        W76010  14.067  27.966   4.078
 7617W        W76011  10.665  35.691   0.773
 7618W        W76012  35.140  44.046   0.731
 7619W        W76013  13.893   3.511   1.281
 7620W        W76014   5.027  27.948   4.384
 7621W        W76015   5.768  23.900  11.624
 7622W        W76016  13.486   7.746  11.866
 7623W        W76017  10.957  44.747   2.553
 7624W        W76018  26.702  38.888   0.837
 7625W        W76019  28.222   4.720  10.707
 7626W        W76020  19.755   1.240  12.365
 7627W        W76021  19.031  27.018  13.362
 7628W        W76022  23.211  35.384  12.528
 7629W        W76023   4.549  31.855  10.975
 7630W        W76024  36.674  29.746   1.331
 7631W        W76025  35.577  11.243   4.294
 7632W        W76026  12.911  31.617   1.792
 7633W        W76027   6.321  31.568   4.165
 7634W        W76028  44.916  31.064   1.044
 7635W        W76029  18.711  38.961  13.046
 7636W        W76030   5.765  24.526   0.913
 7637W        W76031  35.127   1.299  10.745
 7638W        W76032  12.194  17.090   3.534
 7639W        W76033   9.447  37.776   2.878
 7640W        W76034  14.567   1.053  13.955
 7641W        W76035  40.782  39.486  14.728
 7642W        W76036  32.675  14.282   4.984
 7643W        W76037  43.283  22.634   0.298
 7644W        W76038  31.901  38.702  10.985
 7645W        W76039  38.578   7.364   1.487
 7646W        W76040  42.807  33.452   3.317
 7647W        W76041  28.141  43.350   2.202
 7648W        W76042  33.619   7.224  14.061
 7649W        W76043  38.424  26.083  12.505
 7650W        W76044   0.431   0.869   3.086
 7651W        W76045   4.433  32.990   2.807
 7652W        W76046  33.262  44.134  13.511
 7653W        W76047  40.814  28.104  11.828
 7654W        W76048   4.992  31.429   1.864
 7655W        W76049  29.107   6.339  11.654
 7656W        W76050  12.197   6.381   3.606
 7657W        W76051  29.752   0.493   3.653
 7658W        W76052  16.243   9.481  13.988
 7659W        W76053  11.375   1.361   0.783
 7660W        W76054  42.976  16.606   0.202
 7661W        W76055  42.825  25.510   3.667
 7662W        W76056  22.446  25.956  14.821
 7663W        W76057   1.738  25.139  12.055
 7664W        W76058   0.404  42.841  12.046
 7665W        W76059  32.866  41.977   4.720
 7666W        W76060   2.344  15.348   4.452
 7667W        W76061   3.492  23.151   0.331
 7668W        W76062   8.252  40.893   0.229
 7669W        W76063   1.740  20.204  12.771
 7670W        W76064  29.817  44.510  10.594
 7671W        W76065   7.933  35.991  11.896
 7672W        W76066  37.650  21.936  12.059
 7673W        W76067  22.417  22.260   1.721
 7674W        W76068  28.913  37.525   4.318
 7675W        W76069  29.094  42.262   3.518
 7676W        W76070  27.609  11.908   2.749
 7677W        W76071  17.604  16.215  11.000
 7678W        W76072  21.510  34.445   3.845
 7679W        W76073  25.654  38.758   1.851
 7680W        W76074  42.287  26.970   4.577
 7681W        W76075  11.444  27.403  12.957
 7682W        W76076   6.223  38.980   3.668
 7683W        W76077  41.596  17.075   5.003
 7684W        W76078  37.613  44.753  11.945
 7685W        W76079  39.358  43.802  12.444
 7686W        W76080  40.074   8.325   2.346
 7687W        W76081  13.613   9.864  10.420
 7688W        W76082  33.640  41.320  12.899
 7689W        W76083   8.169  15.181   2.196
 7690W        W76084  35.397  18.993  11.924
 7691W        W76085   0.247  20.985   4.455
 7692W        W76086   5.374  37.473   3.345
 7693W        W76087  34.709  18.573   2.668
 7694W        W76088   9.179   7.792   4.549
 7695W        W76089  39.376  43.307   0.288
 7696W        W76090  16.907  14.300  10.776
 7697W        W76091  18.517   0.009   3.985
 7698W        W76092  33.566  13.201   0.270
 7699W        W76093  28.855  12.779   0.866
 7700W        W76094  16.716  18.591  14.721
 7701W        W76095  27.684  42.476   4.417
 7702W        W76096  28.908  44.354   4.105
 7703W        W76097  12.083  19.138   3.639
 7704W        W76098   1.342  32.054   1.326
 7705W        W76099  16.094  25.588  12.049
 7706W        W76100   5.769  28.452   0.659
 7707W        W76101  32.860  36.346   4.839
 7708W        W76102  39.133  34.180   1.391
 7709W        W76103  29.886  29.626  12.884
 7710W        W76104  18.701  34.860  12.087
 7711W        W76105  19.591  29.382   9.791
 7712W        W76106  22.003  30.218  14.697
 7713W        W76107  25.020  32.927   2.811
 7714W        W76108  28.997  27.036  13.597
 7715W        W76109  25.029  42.920   3.398
 7716W        W76110  16.319  25.044  12.998
 7717W        W76111   6.830   2.822  14.282
 7718W        W76112  10.374  32.678   3.302
 7719W        W76113  26.664  44.755  14.610
 7720W        W76114  28.397  20.113  10.624
 7721W        W76115  17.180  38.820  11.529
 7722W        W76116  11.408  14.062  13.518
 7723W        W76117   3.847  44.722  12.085
 7724W        W76118  20.249   6.867  12.600
 7725W        W76119   8.478  43.767  14.404
 7726W        W76120  13.856  23.509   1.454
 7727W        W76121  33.040  26.453   3.696
 7728W        W76122  30.549   4.072  13.364
 7729W        W76123  36.950  15.568  10.950
 7730W        W76124   2.215  42.060   3.026
 7731W        W76125  22.186  43.878   2.271
 7732W        W76126  25.199   0.182  14.736
 7733W        W76127  32.042   7.666  12.547
 7734W        W76128  17.719   2.732   0.909
 7735W        W76129  35.043  29.041  11.532
 7736W        W76130  14.739  38.375   0.007
 7737W        W76131   6.821  41.818  14.864
 7738W        W76132  16.212  44.767   0.858
 7739W        W76133  32.977  10.373   4.079
 7740W        W76134  20.118  36.338   1.793
 7741W        W76135   0.439  10.821   2.473
 7742W        W76136  15.723   6.756  10.853
 7743W        W76137  28.649   2.198   4.112
 7744W        W76138  24.197  25.567   4.782
 7745W        W76139   7.436   9.173   0.812
 7746W        W76140  37.548  43.085  13.082
 7747W        W76141  36.524  26.687   3.788
 7748W        W76142  13.795   1.372  12.993
 7749W        W76143  12.897  33.370   1.649
 7750W        W76144  34.167  19.605   3.680
 7751W        W76145  32.146   8.192   0.297
 7752W        W76146  42.260   0.064  14.807
 7753W        W76147  22.548  41.434   2.808
 7754W        W76148  21.246  19.641  12.141
 7755W        W76149  36.803  13.658   1.462
 7756W        W76150  23.143  34.673   4.588
 7757W        W76151  10.186  18.724   4.643
 7758W        W76152  44.325  11.277   1.209
 7759W        W76153  41.267  11.404  12.996
 7760W        W76154  15.049  19.624   4.157
 7761W        W76155  32.510  27.409  12.479
 7762W        W76156  26.697  43.945   1.083
 7763W        W76157   5.764  43.556   0.324
 7764W        W76158   3.106   2.131  14.959
 7765W        W76159  34.090  36.221  14.304
 7766W        W76160   3.909  31.110   4.748
 7767W        W76161  36.353  39.424   2.438
 7768W        W76162   7.960  15.440  10.201
 7769W        W76163   5.677  31.628  13.970
 7770W        W76164  33.068  35.085  11.883
 7771W        W76165  11.694   8.746   4.635
 7772W        W76166  13.506  18.457  12.571
 7773W        W76167  11.968  22.118  11.111
 7774W        W76168  30.497  16.281   3.878
 7775W        W76169  35.972   4.361   1.891
 7776W        W76170  37.891  21.732   3.730
 7777W        W76171  32.567  36.366   4.125
 7778W        W76172  34.901  27.374  11.154
 7779W        W76173   7.256  21.130  10.285
 7780W        W76174  23.865  31.397   4.149
 7781W        W76175  33.946  41.793   1.893
 7782W        W76176  30.816  27.694  14.442
 7783W        W76177  16.115  13.166   1.896
 7784W        W76178  13.511  38.150  14.779
 7785W        W76179  27.422  24.084  13.456
 7786W        W76180  36.112  43.365   4.569
 7787W        W76181  23.909   1.585   5.194
 7788W        W76182  26.459   1.664  11.872
 7789W        W76183  38.873  41.390   4.371
 7790W        W76184  23.586  25.659  14.445
 7791W        W76185  25.046  28.419   0.357
 7792W        W76186   8.370   8.814   4.437
 7793W        W76187   1.246  32.930  14.842
 7794W        W76188  30.913  36.767  12.019
 7795W        W76189  37.676   2.918   0.449
 7796W        W76190   1.740  38.882  14.928
 7797W        W76191  36.525   4.435   3.600
 7798W        W76192  24.075  22.618   1.857
 7799W        W76193  18.871  42.791   3.193
 7800W        W76194  36.557   7.482  14.894
 7801W        W76195   7.194  24.382  14.408
 7802W        W76196  35.879  37.999   0.777
 7803W        W76197  11.873  13.220  12.481
 7804W        W76198  35.524  12.858  11.649
 7805W        W76199  40.321  31.609   4.782
 7806W        W76200  40.045  19.808   2.913
 7807W        W76201  14.190  39.001   4.773
 7808W        W76202  26.185  10.642   2.681
 7809W        W76203  12.442  22.727   4.031
 7810W        W76204  20.158  15.729  12.490
 7811W        W76205  21.756   1.584   2.767
 7812W        W76206  14.888   7.694   3.383
 7813W        W76207  36.301  26.159  11.635
 7814W        W76208  22.824  20.492   0.842
 7815W        W76209  30.961  13.199  10.762
 7816W        W76210  11.589  44.026  12.971
 7817W        W76211  23.096   5.674   0.432
 7818W        W76212  23.501  29.585  10.697
 7819W        W76213   7.363  16.380   0.734
 7820W        W76214   2.323  43.585  12.480
 7821W        W76215  30.199  25.448   0.407
 7822W        W76216  12.099  35.968  14.769
 7823W        W76217  12.080  38.985  13.401
 7824W        W76218  30.094  19.536   0.296
 7825W        W76219  32.183  36.416   1.364
 7826W        W76220  24.188  35.535  12.603
 7827W        W76221   1.018   8.794   3.432
 7828W        W76222  20.738  34.536  14.863
 7829W        W76223  23.724  21.969  14.458
 7830W        W76224  18.678  22.475  10.683
 7831W        W76225  30.558  43.002   2.401
 7832W        W76226  16.944  29.221   3.147
 7833W        W76227  15.022  14.138  11.951
 7834W        W76228  16.333  40.847  10.548
 7835W        W76229  25.287  18.992   1.003
 7836W        W76230  23.443  16.261  11.531
 7837W        W76231   1.509   0.958  12.917
 7838W        W76232   5.731   6.865  14.858
 7839W        W76233  30.440   1.829   1.779
 7840W        W76234  11.486   3.304   1.258
 7841W        W76235  42.862  17.343   2.763
 7842W        W76236  31.227  24.700   3.841
 7843W        W76237  15.877   8.348  11.072
 7844W        W76238   5.420  21.767   2.297
 7845W        W76239   7.304   4.834   1.810
 7846W        W76240  25.244  23.686   2.668
 7847W        W76241   7.093  34.063   1.014
 7848W        W76242   2.789  31.854  10.729
 7849W        W76243  38.984  33.457  14.303
 7850W        W76244  22.777  17.569  12.927
 7851W        W76245  16.108  36.089   0.467
 7852W        W76246  23.075  39.374   1.658
 7853W        W76247   6.745  18.065  10.607
 7854W        W76248  34.685  24.824  10.843
 7855W        W76249   2.286   0.030   3.271
 7856W        W76250  40.358   3.865   1.315
 7857W        W76251  39.710  35.613  12.937
 7858W        W76252  30.585  39.931  14.988
 7859W        W76253  15.218   2.906   1.766
 7860W        W76254  17.243  26.400   2.261
 7861W        W76255  29.682  37.156  10.782
 7862W        W76256  11.909  18.463   3.118
 7863W        W76257  39.917  36.139   3.278
 7864W        W76258   7.423  17.665   3.984
 7865W        W76259  21.102  21.099   0.427
 7866W        W76260  14.144  36.112   3.721
 7867W        W76261   5.871  32.686   3.859
 7868W        W76262  35.066   6.349  14.773
 7869W        W76263  41.971  33.786  14.970
 7870W        W76264  35.228   7.827   0.064
 7871W        W76265  36.171  43.548  12.147
 7872W        W76266  10.379  22.410   3.172
 7873W        W76267  40.410   3.680   3.426
 7874W        W76268  19.650  42.058   4.612
 7875W        W76269   7.967   0.524   4.227
 7876W        W76270  12.777  31.375  10.598
 7877W        W76271  34.091  18.496  13.550
 7878W        W76272  21.715   3.882   4.814
 7879W        W76273   9.454   2.986   4.150
 7880W        W76274  33.073  15.834   2.883
 7881W        W76275  26.585  29.745  11.159
 7882W        W76276  17.332   2.327  14.824
 7883W        W76277  27.965   4.000   4.439
 7884W        W76278  24.979  21.632   4.182
 7885W        W76279  22.137  35.104  14.922
 7886W        W76280  25.139  15.268   4.402
 7887W        W76281  30.575  40.107  12.322
 7888W        W76282  43.491  15.645   1.867
 7889W        W76283  38.826  24.432   4.421
 7890W        W76284   9.725  13.426   4.843
 7891W        W76285   1.649  12.256   1.297
 7892W        W76286  16.052  29.072  12.354
 7893W        W76287  44.239  21.995   4.149
 7894W        W76288  35.052  33.873   0.789
 7895W        W76289   8.246   9.253  12.851
 7896W        W76290  40.982  42.039   4.151
 7897W        W76291  14.779   9.206   3.131
 7898W        W76292  39.738  44.263   1.802
 7899W        W76293  32.878  30.662  11.130
 7900W        W76294  27.584   1.220   5.395
 7901W        W76295  28.018   9.621  11.688
 7902W        W76296  29.341  37.253   2.427
 7903W        W76297  33.837  37.402   2.724
 7904W        W76298  42.559  33.989  11.192
 7905W        W76299  26.649  22.232   4.592
 7906W        W76300  37.854  32.206  10.163
 7907W        W76301   1.013  21.537   3.847
 7908W        W76302  43.410  28.372  14.899
 7909W        W76303   3.375  18.790  13.422
 7910W        W76304   9.707   6.044   2.340
 7911W        W76305  39.277  34.346   4.757
 7912W        W76306  38.672   8.662   4.520
 7913W        W76307  27.721  29.500   2.730
 7914W        W76308  27.018  26.688  14.975
 7915W        W76309   0.783  23.702  14.822
 7916W        W76310  39.979   1.835  10.437
 7917W        W76311  39.944  17.061   1.748
 7918W        W76312  16.118  16.272  14.590
 7919W        W76313  41.298  39.958   3.783
 7920W        W76314   1.409  35.197  12.399
 7921W        W76315  40.776  28.633   1.216
 7922W        W76316  21.605  10.076   3.360
 7923W        W76317  31.978  12.073  12.127
 7924W        W76318   8.303  26.180   2.577
 7925W        W76319  19.004  30.544   2.971
 7926W        W76320  43.421  26.344  10.442
 7927W        W76321   2.272  31.598  13.527
 7928W        W76322  12.892  12.868   0.644
 7929W        W76323   6.399  39.495   0.775
 7930W        W76324  10.694  36.615  11.113
 7931W        W76325  14.501  26.658   3.877
 7932W        W76326  43.587  32.595  12.491
 7933W        W76327  36.667  30.809   3.803
 7934W        W76328  38.472   8.764   2.643
 7935W        W76329  30.015   3.995   4.689
 7936W        W76330  40.414  38.139  14.519
 7937W        W76331  10.925  15.313  13.523
 7938W        W76332  43.230   1.918  11.170
 7939W        W76333   7.323   2.453  13.071
 7940W        W76334  25.671  19.707   4.648
 7941W        W76335  41.465  33.078   3.843
 7942W        W76336   4.098   7.433  14.881
 7943W        W76337   0.498  13.309  14.801
 7944W        W76338  41.685  12.501   0.898
 7945W        W76339   0.385  29.612   0.633
 7946W        W76340  29.023  24.671  12.025
 7947W        W76341  43.846  11.456   4.777
 7948W        W76342  14.972  28.000  10.323
 7949W        W76343  20.657   8.153  11.060
 7950W        W76344   3.026  37.101   0.276
 7951W        W76345  28.207   0.036  13.793
 7952W        W76346  32.370   5.694  10.565
 7953W        W76347  11.702  21.391  10.469
 7954W        W76348  35.343  39.444   2.749
 7955W        W76349   2.531  43.755   4.062
 7956W        W76350  36.344  18.849  12.901
 7957W        W76351   9.379  33.310  14.894
 7958W        W76352  30.209  39.218   3.850
 7959W        W76353  20.222   3.376   4.399
 7960W        W76354  40.928   0.369   2.720
 7961W        W76355  12.057   5.410   4.066
 7962W        W76356  13.417   4.306   4.097
 7963W        W76357   2.986  37.115  13.421
 7964W        W76358  32.867   4.252  12.438
 7965W        W76359   4.752  27.428  13.036
 7966W        W76360   5.769  14.888  11.726
 7967W        W76361  40.390  30.430  13.346
 7968W        W76362  37.550   7.429   1.451
 7969W        W76363  16.815  28.673   4.105
 7970W        W76364  44.981   1.305   3.297
 7971W        W76365  22.226  11.225   1.811
 7972W        W76366  14.169   6.724  12.508
 7973W        W76367  43.202  42.095   2.624
 7974W        W76368  28.591  42.201   4.576
 7975W        W76369  23.501  17.438   2.371
 7976W        W76370   8.290  30.730  14.948
 7977W        W76371  17.808  37.587  10.724
 7978W        W76372  41.993  38.544  14.882
 7979W        W76373   2.146  29.202  10.689
 7980W        W76374   3.144  33.483  11.608
 7981W        W76375  30.081  18.648   3.334
 7982W        W76376  19.393  28.747  14.722
 7983W        W76377  31.351  12.185  14.918
 7984W        W76378  31.647  25.185  11.216
 7985W        W76379  15.712   1.935   0.175
 7986W        W76380  42.902   6.485   2.846
 7987W        W76381  38.570   4.328  12.595
 7988W        W76382  40.824   4.439   0.830
 7989W        W76383  42.070  28.479   0.933
 7990W        W76384   0.108  15.569   0.072
 7991W        W76385  19.873  29.421  14.628
 7992W        W76386   1.922   6.190  14.544
 7993W        W76387  29.554  42.939   4.984
 7994W        W76388  13.543   9.093   2.740
 7995W        W76389   2.630   3.343  14.462
 7996W        W76390   3.279  18.093   0.942
 7997W        W76391  42.842   2.365  14.089
 7998W        W76392   8.924  32.700   1.198
 7999W        W76393   4.167  17.994  11.951
 8000W        W76394  17.260   9.864  12.559
 8001W        W76395  19.072  16.492  13.043
 8002W        W76396  44.676  30.512   4.118
 8003W        W76397  23.092  26.201  11.581
 8004W        W76398  24.976   9.928   4.063
 8005W        W76399  24.486  37.284  11.209
 8006W        W76400   0.341  24.992   2.848
 8007W        W76401  22.030  41.499   2.800
 8008W        W76402  20.512   5.346   2.928
 8009W        W76403   1.112  34.456   1.278
 8010W        W76404   4.174   0.888   1.405
 8011W        W76405  28.146   7.920  13.912
 8012W        W76406  35.576   5.689   4.299
 8013W        W76407  39.840  34.329   3.662
 8014W        W76408  37.386  13.956   0.799
 8015W        W76409   3.391   4.148  14.951
 8016W        W76410  42.468  33.134   0.857
 8017W        W76411  11.325  17.994  13.479
 8018W        W76412  12.279  24.022   2.369
 8019W        W76413  12.044   4.332   3.268
 8020W        W76414   2.278  39.835   1.395
 8021W        W76415  26.642   2.752  12.574
 8022W        W76416  38.405  15.348  10.985
 8023W        W76417  29.121  16.314  13.043
 8024W        W76418  17.716  17.479  13.076
 8025W        W76419  11.461  25.364  10.361
 8026W        W76420  43.018  36.187   3.611
 8027W        W76421  32.115   8.970  13.021
 8028W        W76422  36.802  29.567  13.074
 8029W        W76423  29.611   1.229  12.673
 8030W        W76424  41.731  41.900   1.232
 8031W        W76425  33.999  32.829  10.557
 8032W        W76426  15.347  16.436  12.537
 8033W        W76427  20.344   2.361   2.297
 8034W        W76428   4.429  29.661   3.629
 8035W        W76429  21.071  40.259  14.064
 8036W        W76430  12.971  18.427   2.360
 8037W        W76431  30.902  37.385  12.577
 8038W        W76432  16.249  24.026  14.121
 8039W        W76433  40.535  19.809  12.427
 8040W        W76434  37.982  37.348   0.823
 8041W        W76435  18.724  14.336   0.918
 8042W        W76436  43.130   4.189  11.142
 8043W        W76437  39.996  29.500  14.292
 8044W        W76438  41.048   6.309   2.257
 8045W        W76439  13.811  23.699   0.755
 8046W        W76440  35.672  13.070   2.388
 8047W        W76441  21.177  11.357  12.636
 8048W        W76442  13.086  34.780  14.179
 8049W        W76443  28.647  12.457  11.126
 8050W        W76444  16.019  44.022   1.260
 8051W        W76445  28.491  13.684   0.860
 8052W        W76446  14.504   3.912   3.714
 8053W        W76447  37.088   5.407   0.411
 8054W        W76448  26.967  30.958  12.002
 8055W        W76449   2.444   2.882   0.746
 8056W        W76450  18.098   6.792   3.559
 8057W        W76451  21.113   7.207   4.526
 8058W        W76452  10.725  31.568  10.817
 8059W        W76453   8.740   9.608   1.769
 8060W        W76454   8.854  14.681   4.658
 8061W        W76455  23.942   5.157  13.294
 8062W        W76456   9.017  33.024   3.836
 8063W        W76457   3.407   4.727  12.658
 8064W        W76458  30.023   3.292   1.827
 8065W        W76459  31.209   1.960   4.557
 8066W        W76460  11.161   9.369  14.254
 8067W        W76461  37.571  39.905  13.370
 8068W        W76462  31.886  38.457   2.549
 8069W        W76463  20.649   1.592   1.522
 8070W        W76464   4.236  26.487  14.354
 8071W        W76465   8.422  24.821   2.360
 8072W        W76466  40.290   4.087  11.055
 8073W        W76467  41.514  37.588  12.905
 8074W        W76468  41.390  15.356  14.408
 8075W        W76469   4.465   8.086  13.370
 8076W        W76470  19.080  27.074   1.849
 8077W        W76471  40.037   7.787  11.374
 8078W        W76472  23.527  14.547  14.253
 8079W        W76473   2.754  25.698  11.539
 8080W        W76474  41.314  40.765   0.757
 8081W        W76475  21.536  37.879   3.308
 8082W        W76476  43.047  28.738  11.892
 8083W        W76477   5.510  28.988   2.325
 8084W        W76478  26.255   6.715   1.248
 8085W        W76479  12.089  44.142  10.704
 8086W        W76480  43.325   6.842  11.622
 8087W        W76481   8.331  17.587  14.453
 8088W        W76482  20.956  22.676   4.771
 8089W        W76483  29.900  19.847  14.435
 8090W        W76484   2.818  18.049  11.868
 8091W        W76485  18.582  27.561   1.230
 8092W        W76486  23.626  37.884  10.669
 8093W        W76487   0.279  23.067   4.137
 8094W        W76488   6.162  37.779   0.254
 8095W        W76489  18.318  43.496   4.118
 8096W        W76490   4.014  41.456  14.756
 8097W        W76491  43.905  11.322  14.811
 8098W        W76492  11.576  30.567   2.821
 8099W        W76493   5.719  16.681   2.876
 8100W        W76494  33.890  44.429   0.778
 8101W        W76495  29.698  25.700   2.837
 8102W        W76496  11.299  22.955   0.867
 8103W        W76497   8.621  12.308  11.919
 8104W        W76498   5.858  11.569   2.138
 8105W        W76499  14.800  14.693   2.876
 8106W        W76500  20.784  40.584   2.390
 8107W        W76501  11.294  18.583   0.977
 8108W        W76502  17.727  44.717  11.546
 8109W        W76503  43.735   5.338  10.620
 8110W        W76504  10.760   7.515  14.293
 8111W        W76505  17.246  22.481   2.849
 8112W        W76506   5.765  42.525  13.043
 8113W        W76507  15.701  18.112   1.712
 8114W        W76508  25.694  41.000   3.269
 8115W        W76509   7.403  16.632   1.828
 8116W        W76510  22.047  30.772  12.048
 8117W        W76511  30.410   9.713   0.844
 8118W        W76512   0.987  40.202  13.211
 8119W        W76513  33.185   1.953   5.036
 8120W        W76514  16.047  21.172  11.564
 8121W        W76515  32.497  10.546  10.663
 8122W        W76516  25.877  41.952  10.724
 8123W        W76517  44.766  21.085  10.118
 8124W        W76518  36.058  33.594   2.029
 8125W        W76519  24.540  28.274  12.570
 8126W        W76520  42.581   3.377  11.983
 8127W        W76521  12.975  40.296  12.980
 8128W        W76522   0.804  41.434   2.426
 8129W        W76523   8.592  29.793  13.464
 8130W        W76524   2.330  23.620   3.759
 8131W        W76525  42.315  24.037  10.766
 8132W        W76526  24.888  38.827   3.231
 8133W        W76527  24.525  14.275   0.405
 8134W        W76528   8.892  25.697   0.654
 8135W        W76529  23.777   4.839   0.455
 8136W        W76530  28.962  24.150   1.745
 8137W        W76531   6.492  40.606   3.581
 8138W        W76532  37.223  44.047   2.251
 8139W        W76533  13.160  19.440   0.884
 8140W        W76534  26.085  43.064  12.358
 8141W        W76535  37.487  42.929   0.473
 8142W        W76536  26.691   0.515   4.976
 8143W        W76537  41.974  40.841  13.891
 8144W        W76538  30.166  39.540   0.396
 8145W        W76539  15.945  44.668   0.416
 8146W        W76540  33.333  33.126  14.856
 8147W        W76541  14.824  21.095   4.263
 8148W        W76542  42.064  24.762  11.597
 8149W        W76543  26.407  34.112   4.517
 8150W        W76544   5.667  19.145   2.810
 8151W        W76545  39.342  18.797   3.378
 8152W        W76546  36.892   4.017  13.657
 8153W        W76547  27.089  34.825   2.274
 8154W        W76548  19.394  20.236   2.338
 8155W        W76549  43.183  10.155  14.072
 8156W        W76550  35.672   4.063  11.902
 8157W        W76551  40.576  29.095   0.405
 8158W        W76552  19.159  13.086   4.367
 8159W        W76553  21.768   8.046   0.802
 8160W        W76554  38.804  26.098   0.946
 8161W        W76555  43.890  32.353  10.882
 8162W        W76556  23.346  37.645  11.441
 8163W        W76557  21.749   1.940  14.874
 8164W        W76558  31.360  37.932   4.891
 8165W        W76559  25.765  10.412   4.462
 8166W        W76560  13.865  36.751  13.615
 8167W        W76561  22.138  38.797  10.724
 8168W        W76562  11.570  20.071   1.944
 8169W        W76563  28.649  32.299   1.764
 8170W        W76564   1.789  38.551   1.448
 8171W        W76565  36.499   6.092  12.009
 8172W        W76566  32.506  42.969  14.207
 8173W        W76567   9.679  10.781   4.613
 8174W        W76568  41.909  29.734   0.447
 8175W        W76569  19.001  15.447  12.458
 8176W        W76570  28.728  26.828   1.420
 8177W        W76571  20.502  38.388  11.129
 8178W        W76572   9.959  32.457  14.477
 8179W        W76573   3.771  30.380   3.310
 8180W        W76574  17.245  10.863   0.362
 8181W        W76575  39.614  21.649  13.565
 8182W        W76576  34.156   0.900   0.851
 8183W        W76577  33.863  20.999  14.369
 8184W        W76578  26.726  31.623   3.215
 8185W        W76579   7.670  22.144  14.454
 8186W        W76580  24.014   0.759  12.502
 8187W        W76581  17.076  18.773  10.505
 8188W        W76582   7.337  14.711  14.194
 8189W        W76583  16.083  32.587   1.323
 8190W        W76584  31.816   0.647   5.082
 8191W        W76585  13.658  21.726  14.318
 8192W        W76586  28.851  13.200  13.951
 8193W        W76587  41.578   8.407  13.518
 8194W        W76588  16.224  27.063  13.842
 8195W        W76589  11.108   8.280   3.703
 8196W        W76590   3.486  15.283   3.122
 8197W        W76591  21.772  36.680   0.732
 8198W        W76592  40.361  23.782  11.664
 8199W        W76593  15.146  29.156   2.286
 8200W        W76594  26.712  22.929   3.230
 8201W        W76595  27.702  11.784  11.470
 8202W        W76596  33.846  37.335   1.829
 8203W        W76597  14.365  37.002  11.940
 8204W        W76598  24.017  24.443  13.503
 8205W        W76599   5.467  27.218  14.356
 8206W        W76600  26.136  39.055   0.048
 8207W        W76601  35.499   3.003  11.992
 8208W        W76602   6.901   5.679   4.123
 8209W        W76603  11.577  15.598  12.922
 8210W        W76604  12.822  10.432  12.369
 8211W        W76605  36.975  14.598  12.445
 8212W        W76606  14.035  34.051  12.133
 8213W        W76607  43.429  26.841   1.911
 8214W        W76608  26.556  40.795   4.728
 8215W        W76609  40.968  24.470  10.792
 8216W        W76610   9.161   4.766  12.918
 8217W        W76611   8.150  26.015   4.987
 8218W        W76612  17.170  27.513  12.542
 8219W        W76613  12.702  16.405   3.633
 8220W        W76614  10.180  15.221   2.927
 8221W        W76615  36.971   9.337  14.883
 8222W        W76616   4.813   7.697  13.267
 8223W        W76617   2.952  39.882   3.116
 8224W        W76618  10.609  43.089   3.645
 8225W        W76619  38.482  18.111  12.606
 8226W        W76620   9.863  21.650  12.949
 8227W        W76621  27.875   7.652  11.199
 8228W        W76622   0.468  37.525  10.548
 8229W        W76623  38.448  24.897   0.981
 8230W        W76624  36.538  28.210  14.837
 8231W        W76625  25.577  33.337  14.366
 8232W        W76626   0.436   6.371   3.242
 8233W        W76627  28.719  29.052   3.237
 8234W        W76628  37.282  38.877  13.359
 8235W        W76629  35.351  40.836  13.029
 8236W        W76630  24.537  25.028  12.375
 8237W        W76631  12.561  14.967  12.514
 8238W        W76632  18.090  37.116   4.060
 8239W        W76633   1.217  22.677  13.524
 8240W        W76634  30.299  44.994   1.345
 8241W        W76635   8.203  21.976   4.456
 8242W        W76636  43.298   2.892  13.847
 8243W        W76637  13.778  36.225  12.451
 8244W        W76638  33.652   6.857  13.543
 8245W        W76639  39.699   5.196   3.189
 8246W        W76640  14.593  15.850  11.618
 8247W        W76641  12.576  18.554  14.063
 8248W        W76642  25.725  40.052  12.060
 8249W        W76643  10.665   1.489  14.993
 8250W        W76644  18.150  10.522  13.228
 8251W        W76645  35.597  41.771  11.136
 8252W        W76646  42.486  38.829   4.143
 8253W        W76647  34.539  20.297   3.699
 8254W        W76648  33.371   5.826   4.596
 8255W        W76649  23.272  19.208   0.367
 8256W        W76650  20.141  21.900  12.960
 8257W        W76651   7.979   1.744  13.491
 8258W        W76652  24.087   8.193   4.842
 8259W        W76653  34.489  27.210   2.263
 8260W        W76654  42.334  15.188  11.949
 8261W        W76655  28.530   7.335   4.544
 8262W        W76656  28.462  31.025   0.178
 8263W        W76657  15.595   7.774   0.628
 8264W        W76658   0.911   8.636  11.524
 8265W        W76659   2.243  10.606  11.167
 8266W        W76660  34.151  11.078   2.442
 8267W        W76661  29.431  15.416  12.426
 8268W        W76662   2.393  21.722  11.964
 8269W        W76663  11.756   5.181   1.643
 8270W        W76664  25.687   3.707  11.913
 8271W        W76665  16.009  28.842  14.228
 8272W        W76666  39.478  24.604  14.894
 8273W        W76667  41.280  44.809   1.864
 8274W        W76668  19.740  20.919  14.719
 8275W        W76669  43.642  27.170  11.729
 8276W        W76670  16.824  38.983  13.449
 8277W        W76671   2.950   7.091  14.108
 8278W        W76672  38.043  15.414  14.358
 8279W        W76673  22.890  11.454  11.077
 8280W        W76674  12.107  15.686   3.708
 8281W        W76675  34.032  20.503   2.699
 8282W        W76676  16.250  14.800  12.014
 8283W        W76677  39.054  26.564  11.198
 8284W        W76678  24.647  29.248   0.308
 8285W        W76679  29.937  38.769   3.291
 8286W        W76680  34.430  28.618  13.908
 8287W        W76681   9.665  27.816   2.161
 8288W        W76682  43.956  24.960  13.826
 8289W        W76683  25.707  40.571  12.057
 8290W        W76684  44.994  34.899  11.604
 8291W        W76685   4.387   7.354   4.583
 8292W        W76686  19.638  16.951  11.951
 8293W        W76687  43.700  16.147  11.998
 8294W        W76688  12.142  26.583   1.149
 8295W        W76689  44.622  43.529  11.286
 8296W        W76690  25.005  38.730   0.758
 8297W        W76691  41.445  31.660  14.121
 8298W        W76692  35.940  24.684  14.923
 8299W        W76693  33.364  34.573   4.081
 8300W        W76694  38.301  38.503  11.549
 8301W        W76695   7.871  20.725   0.281
 8302W        W76696   3.008   5.687   1.237
 8303W        W76697  41.449  32.689   4.630
 8304W        W76698   9.258  28.218   0.809
 8305W        W76699  21.270  13.608   2.886
 8306W        W76700  43.986  34.351  14.544
 8307W        W76701  15.365   7.609   3.199
 8308W        W76702  40.521  11.827  11.772
 8309W        W76703  42.538  34.958  12.170
 8310W        W76704  42.641   8.930   3.626
 8311W        W76705  12.278  43.826  13.486
 8312W        W76706  30.883  41.419  14.289
 8313W        W76707  44.785  27.693   2.678
 8314W        W76708  25.689   1.697   5.004
 8315W        W76709  17.122  31.480   1.492
 8316W        W76710  22.498  34.638   1.831
 8317W        W76711   1.435  25.048  13.458
 8318W        W76712  31.950  35.375   1.240
 8319W        W76713  12.670  37.103   0.280
 8320W        W76714  24.074  41.743  11.692
 8321W        W76715   0.094   7.082  12.601
 8322W        W76716  15.938   3.990   3.671
 8323W        W76717  19.592  41.479  11.512
 8324W        W76718  44.112   7.904   2.404
 8325W        W76719  22.873   3.576   3.111
 8326W        W76720   9.302   5.716   1.295
 8327W        W76721  19.775   1.239   1.010
 8328W        W76722  32.223  25.498  12.435
 8329W        W76723  39.579  22.033  14.949
 8330W        W76724  39.182  16.872   1.147
 8331W        W76725  20.540   3.354  14.468
 8332W        W76726   7.560  31.576  14.860
 8333W        W76727  10.348   4.765   3.291
 8334W        W76728  37.087  11.087   4.013
 8335W        W76729  16.205  33.898   4.590
 8336W        W76730  44.072  17.630   2.943
 8337W        W76731  28.607   1.482   4.529
 8338W        W76732  11.353  38.904   0.007
 8339W        W76733  22.281  34.173  11.188
 8340W        W76734  39.448   1.944  14.422
 8341W        W76735  19.137  26.924   4.107
 8342W        W76736  24.228  17.389  12.132
 8343W        W76737  26.793  18.104  14.433
 8344W        W76738  29.234  12.103  13.330
 8345W        W76739  39.446   3.745  14.288
 8346W        W76740   9.731  44.864   0.458
 8347W        W76741  32.849  16.164   0.800
 8348W        W76742   2.884  24.459  10.777
 8349W        W76743   0.479  17.997   1.086
 8350W        W76744  29.033   7.266   0.944
 8351W        W76745  15.821  12.671   3.711
 8352W        W76746  38.956  24.770  14.784
 8353W        W76747  11.577  17.530  14.630
 8354W        W76748  22.996  37.738  11.073
 8355W        W76749   6.904  28.259  11.858
 8356W        W76750  25.549  30.318   3.120
 8357W        W76751  19.211  44.791  11.445
 8358W        W76752  10.309   3.912   0.924
 8359W        W76753  44.256  13.081   2.427
 8360W        W76754  20.065   0.268  11.533
 8361W        W76755  43.801  22.772   3.861
 8362W        W76756  43.385  39.376   1.821
 8363W        W76757  44.579  24.500   3.829
 8364W        W76758  16.613   3.836   1.338
 8365W        W76759  11.705  31.352   2.506
 8366W        W76760   2.355   5.710   4.739
 8367W        W76761  30.056   7.489   0.898
 8368W        W76762   4.689  42.243   2.365
 8369W        W76763   1.511  26.468   1.858
 8370W        W76764  23.614  37.528   0.344
 8371W        W76765  38.994  32.788   1.271
 8372W        W76766   5.332  23.764   1.095
 8373W        W76767  17.787  33.965   4.479
 8374W        W76768   1.035  22.671   0.793
 8375W        W76769  30.182  20.573   2.146
 8376W        W76770  21.127  39.442  12.019
 8377W        W76771  27.423  30.444   2.392
 8378W        W76772   9.940  22.924   9.630
 8379W        W76773  35.054  15.638  13.327
 8380W        W76774   1.378  43.782  14.335
 8381W        W76775  33.015   0.781   0.044
 8382W        W76776   3.987  32.843   4.140
 8383W        W76777  37.864  31.480   4.282
 8384W        W76778  34.298  31.101   2.335
 8385W        W76779   0.464  33.093   0.307
 8386W        W76780  36.514  39.459   4.119
 8387W        W76781  29.065  16.572  14.379
 8388W        W76782  31.692  10.385  11.824
 8389W        W76783  23.766   4.575  13.796
 8390W        W76784   4.162   2.338   1.081
 8391W        W76785  42.907  29.985  13.017
 8392W        W76786  36.286  38.122  12.920
 8393W        W76787   6.873  15.273   5.121
 8394W        W76788  27.475   3.843  11.050
 8395W        W76789  10.421  32.831  13.942
 8396W        W76790  16.481   0.366   4.249
 8397W        W76791  31.037   4.262  12.908
 8398W        W76792  43.277  40.299  12.494
 8399W        W76793  33.641  29.155   3.301
 8400W        W76794   5.793  17.256  11.712
 8401W        W76795  29.159   9.233  11.102
 8402W        W76796  26.097  44.423  14.384
 8403W        W76797  27.584   5.271  11.038
 8404W        W76798   3.002  29.563   2.537
 8405W        W76799  43.828  29.170  14.064
 8406W        W76800  33.789  10.360   0.638
 8407W        W76801  40.401  39.527   4.413
 8408W        W76802  24.716   0.508   5.021
 8409W        W76803  15.203  22.636   3.575
 8410W        W76804  29.722  20.316   0.371
 8411W        W76805  41.382  38.969   1.674
 8412W        W76806  30.612  42.290  11.683
 8413W        W76807  19.379  32.910  14.862
 8414W        W76808  44.958   1.083  12.966
 8415W        W76809  34.771  43.391  12.672
 8416W        W76810  19.116  36.570  10.834
 8417W        W76811  26.094   8.911  13.969
 8418W        W76812  42.278   9.584   4.180
 8419W        W76813   9.439  12.298   0.392
 8420W        W76814  27.998  16.838   2.189
 8421W        W76815  37.456  38.392  13.420
 8422W        W76816  29.724  41.219   9.902
 8423W        W76817  33.588  18.131   0.725
 8424W        W76818  32.341   4.838   1.499
 8425W        W76819  23.555   5.907  13.496
 8426W        W76820  13.092  28.730   3.998
 8427W        W76821   7.329  41.034  14.379
 8428W        W76822  12.260  25.100   3.390
 8429W        W76823   4.847   7.905  12.105
 8430W        W76824  17.149   9.556  13.826
 8431W        W76825  29.754  13.717  12.003
 8432W        W76826   8.235   9.269  13.866
 8433W        W76827  12.822  13.688   2.852
 8434W        W76828  23.640  23.844  14.964
 8435W        W76829  35.551  42.776  10.974
 8436W        W76830  39.921   5.749  14.704
 8437W        W76831   9.163   3.829  12.194
 8438W        W76832  16.006  31.973  13.359
 8439W        W76833  42.951  17.645  14.377
 8440W        W76834  17.813  35.538  13.071
 8441W        W76835  27.032  41.915   2.696
 8442W        W76836  10.246   5.229   0.338
 8443W        W76837  25.957   3.930  14.812
 8444W        W76838  23.074  41.306   1.294
 8445W        W76839  25.596  17.740  13.634
 8446W        W76840  27.181  13.431   0.342
 8447W        W76841  11.316  25.217  11.302
 8448W        W76842  10.542   8.870   1.045
 8449W        W76843  41.182  26.666  13.433
 8450W        W76844  13.165  14.269  13.998
 8451W        W76845  27.114  43.166  13.592
 8452W        W76846  44.174  16.048  14.919
 8453W        W76847  38.781  15.113   0.119
 8454W        W76848  26.470  37.888  12.910
 8455W        W76849  42.836  26.696   3.236
 8456W        W76850  34.618  39.537  13.528
 8457W        W76851   5.163   0.393  12.504
 8458W        W76852  34.778   5.322   2.662
 8459W        W76853   9.357  16.013   2.323
 8460W        W76854  10.715   3.610   4.227
 8461W        W76855   7.297   7.760   1.765
 8462W        W76856  12.144  25.227  13.348
 8463W        W76857  14.706  44.655   0.546
 8464W        W76858  19.584  12.267   1.906
 8465W        W76859  39.631  41.087  13.489
 8466W        W76860  37.709   9.037  13.373
 8467W        W76861  25.042  23.030   0.349
 8468W        W76862  18.771  19.046   3.663
 8469W        W76863  10.141  15.012  10.966
 8470W        W76864  42.901  18.711  13.604
 8471W        W76865  32.941  44.440  12.556
 8472W        W76866  16.166  22.477   2.487
 8473W        W76867  27.046  13.750   1.374
 8474W        W76868  39.769  32.925  12.078
 8475W        W76869  39.572   8.313  13.358
 8476W        W76870  14.911   6.677   4.087
 8477W        W76871   7.498   2.848   0.831
 8478W        W76872  14.271  28.698   1.953
 8479W        W76873   2.139  24.405  11.130
 8480W        W76874  17.483  38.903   4.540
 8481W        W76875   3.390  37.514   0.977
 8482W        W76876  41.801  35.914  12.555
 8483W        W76877  20.195  24.711  11.449
 8484W        W76878  10.715  32.356  11.220
 8485W        W76879  13.121  16.605   2.047
 8486W        W76880  19.180  30.480   1.062
 8487W        W76881  34.159  22.098   1.996
 8488W        W76882   0.175  30.921   4.482
 8489W        W76883  10.780  29.059  11.434
 8490W        W76884   7.223  44.466   2.392
 8491W        W76885  32.125   7.702  11.631
 8492W        W76886  22.659  35.608  13.317
 8493W        W76887  29.717  27.173   3.202
 8494W        W76888  16.598  15.330   3.902
 8495W        W76889  11.766  40.059   3.262
 8496W        W76890  11.733  32.886   5.066
 8497W        W76891  41.459  10.264  13.855
 8498W        W76892  21.660   5.008   3.443
 8499W        W76893  37.285  34.439  14.378
 8500W        W76894  34.411   5.641  13.842
 8501W        W76895  23.368  36.536   4.209
 8502W        W76896  43.315   1.878  14.203
 8503W        W76897  23.203  18.181   3.630
 8504W        W76898   7.886   4.049  14.642
 8505W        W76899  34.867  15.558  10.626
 8506W        W76900  13.165   0.601   0.951
 8507W        W76901   2.768  16.857   0.059
 8508W        W76902   1.956  21.532   1.148
 8509W        W76903  13.128  41.900   2.868
 8510W        W76904   1.244  17.883  13.837
 8511W        W76905  28.160  29.341   4.067
 8512W        W76906  27.988  41.938  11.816
 8513W        W76907  20.098  26.494   1.203
 8514W        W76908  28.461   2.724  13.775
 8515W        W76909  18.473  17.992   4.099
 8516W        W76910  11.281   0.275   3.710
 8517W        W76911  20.261  10.716   3.740
 8518W        W76912  41.792   5.295   3.415
 8519W        W76913  40.034   8.661  11.151
 8520W        W76914  14.032   6.500  12.039
 8521W        W76915   7.895  16.053  14.379
 8522W        W76916  36.352  30.707   4.734
 8523W        W76917  43.374  27.227   3.707
 8524W        W76918  25.480  10.245   3.284
 8525W        W76919  35.897   4.339  12.293
 8526W        W76920  17.592  25.502  11.923
 8527W        W76921  18.483  28.997  12.571
 8528W        W76922  25.047  40.239   3.265
 8529W        W76923  11.179  31.040  12.156
 8530W        W76924  27.191   0.060   0.882
 8531W        W76925   0.323  42.744   3.430
 8532W        W76926  21.106  19.858   3.750
 8533W        W76927  23.712   1.918   2.479
 8534W        W76928   8.414  20.755   0.321
 8535W        W76929  39.019  39.314   2.891
 8536W        W76930  26.211  33.686  12.989
 8537W        W76931  12.079   8.159  10.373
 8538W        W76932  10.245  43.605  12.403
 8539W        W76933  36.385  27.010  12.334
 8540W        W76934   6.868  13.227  11.083
 8541W        W76935   2.678  28.629  14.973
 8542W        W76936   3.953  41.500   3.324
 8543W        W76937  18.165  38.832  14.892
 8544W        W76938  11.907  14.611   4.250
 8545W        W76939  10.382   2.140  11.989
 8546W        W76940  29.341  42.001  12.478
 8547W        W76941   0.496  23.895  10.878
 8548W        W76942   4.759  44.057  10.784
 8549W        W76943  12.165  41.366  13.104
 8550W        W76944  14.311  30.496   3.737
 8551W        W76945  27.364  11.334  10.187
 8552W        W76946  40.635   2.442  14.351
 8553W        W76947  32.836  44.682   2.326
 8554W        W76948  35.401  43.723   0.147
 8555W        W76949  13.819  41.876  13.938
 8556W        W76950  32.415  36.412   2.351
 8557W        W76951  20.298  27.691  11.607
 8558W        W76952  20.216  34.356  13.080
 8559W        W76953  32.945  29.036   3.476
 8560W        W76954   6.646  17.713  11.066
 8561W        W76955   3.254  43.025   4.428
 8562W        W76956  36.391  24.623   0.679
 8563W        W76957  23.159  32.616  13.133
 8564W        W76958  30.097  30.749   2.140
 8565W        W76959  13.029   4.922   0.090
 8566W        W76960  32.348   6.268   4.647
 8567W        W76961  11.166   8.245   1.369
 8568W        W76962  41.314  25.553   0.031
 8569W        W76963   3.292  25.064  13.529
 8570W        W76964  23.663  26.541   2.782
 8571W        W76965  41.992   3.440  14.876
 8572W        W76966  34.515  34.349   3.091
 8573W        W76967  36.522   4.388  13.591
 8574W        W76968  40.916   7.469  11.247
 8575W        W76969   7.867  32.513  13.111
 8576W        W76970  36.383  36.404   4.709
 8577W        W76971  38.418  16.809   3.750
 8578W        W76972  21.509  37.913   1.563
 8579W        W76973  24.848   5.026   4.106
 8580W        W76974  44.451  34.111  12.478
 8581W        W76975  28.217  15.170  10.657
 8582W        W76976  37.389  44.913  14.486
 8583W        W76977  42.600  25.520  12.481
 8584W        W76978  27.576  28.022  10.539
 8585W        W76979  40.627   8.719  12.887
 8586W        W76980  44.494  35.546  11.963
 8587W        W76981  20.254  27.422  14.826
 8588W        W76982  27.626  42.683  13.349
 8589W        W76983  43.251  22.730  13.096
 8590W        W76984  30.584  24.727  12.577
 8591W        W76985  39.514  19.745   1.724
 8592W        W76986  17.513   3.787  13.919
 8593W        W76987  42.580  44.953   0.700
 8594W        W76988  18.766  44.204  12.130
 8595W        W76989  10.210  14.752   1.541
 8596W        W76990  41.987  15.083  12.311
 8597W        W76991  23.169  35.866  12.245
 8598W        W76992  18.652  24.115  10.649
 8599W        W76993  21.155   3.266   4.620
 8600W        W76994  16.762  12.890   1.787
 8601W        W76995  16.536   7.834   2.200
 8602W        W76996  43.891   6.925   3.387
 8603W        W76997  38.381  28.875   4.214
 8604W        W76998  12.209  20.826   3.271
 8605W        W76999   0.698  19.599  11.926
 8606W        W77000  25.381   7.191  11.594
 8607W        W77001   5.210  30.058  13.263
 8608W        W77002   3.186  34.448   2.863
 8609W        W77003  26.376   3.929   3.667
 8610W        W77004  15.108  12.900   3.820
 8611W        W77005  12.290  33.971  14.894
 8612W        W77006   0.871  40.689  13.416
 8613W        W77007  35.474  28.031   1.064
 8614W        W77008  22.162   0.947  11.411
 8615W        W77009  41.494  24.624   3.722
 8616W        W77010   6.952  32.873   3.175
 8617W        W77011  19.863  39.806   2.133
 8618W        W77012  44.778   5.283   1.434
 8619W        W77013  24.746  17.083   3.708
 8620W        W77014   6.811   7.871  13.406
 8621W        W77015  39.814   8.335   3.206
 8622W        W77016   9.137   7.072   3.982
 8623W        W77017  13.117  18.050   1.975
 8624W        W77018  37.879  34.766  11.123
 8625W        W77019  20.649  12.304   3.855
 8626W        W77020  11.843  21.076  14.360
 8627W        W77021   3.115   3.743  10.746
 8628W        W77022  20.532  41.803   1.804
 8629W        W77023  28.235  26.713   1.340
 8630W        W77024  44.460  17.067  10.487
 8631W        W77025   8.818  38.656   3.799
 8632W        W77026   5.846  37.785   2.774
 8633W        W77027  30.605  36.126  10.542
 8634W        W77028  43.283  39.343  11.197
 8635W        W77029   2.032  39.063  10.673
 8636W        W77030  43.600  21.998  12.892
 8637W        W77031  39.400  12.217   4.609
 8638W        W77032  36.850  42.538   3.633
 8639W        W77033   9.777  37.780  14.292
 8640W        W77034  43.745  35.785   2.348
 8641W        W77035   2.745  36.215  13.017
 8642W        W77036  43.196  44.479   4.765
 8643W        W77037  36.881  31.025  10.899
 8644W        W77038   6.332  44.855   2.666
 8645W        W77039  19.524   1.676  13.315
 8646W        W77040  34.359  25.635   2.950
 8647W        W77041  42.478  43.007  11.118
 8648W        W77042  38.319   1.706  13.880
 8649W        W77043   9.818  23.535  11.580
 8650W        W77044  20.125  34.872   1.172
 8651W        W77045  15.515  10.647  11.541
 8652W        W77046  36.899  34.792  12.874
 8653W        W77047  38.995  22.970   0.248
 8654W        W77048  28.363  12.138   4.045
 8655W        W77049  44.352  25.569   1.159
 8656W        W77050  34.652   7.279   3.203
 8657W        W77051  34.075  19.007  13.594
 8658W        W77052  42.083  13.082   0.329
 8659W        W77053  37.314  14.414  13.581
 8660W        W77054  21.017  35.519  14.783
 8661W        W77055  19.669  21.780   0.801
 8662W        W77056  25.615  29.984   0.790
 8663W        W77057  32.999   6.265  13.435
 8664W        W77058  43.926   4.925   0.948
 8665W        W77059  24.260  33.883  13.068
 8666W        W77060  31.685   1.479  11.473
 8667W        W77061  13.229  15.537  10.561
 8668W        W77062  24.036  23.058   3.236
 8669W        W77063  38.450  38.852   3.155
 8670W        W77064   5.887  31.612   2.722
 8671W        W77065  18.209   4.286   4.863
 8672W        W77066  23.667   6.408   3.147
 8673W        W77067  22.694   5.905  11.633
 8674W        W77068  31.035  12.641   4.335
 8675W        W77069  28.798   3.919   1.783
 8676W        W77070  11.273   8.472  10.965
 8677W        W77071  26.280  38.538  14.438
 8678W        W77072  32.994   9.165   4.826
 8679W        W77073  32.174  32.669  11.005
 8680W        W77074   7.525  30.261   2.362
 8681W        W77075   2.487  29.140  11.953
 8682W        W77076  38.391  34.124  11.456
 8683W        W77077  10.581  43.710  13.935
 8684W        W77078  10.006  26.157  14.878
 8685W        W77079  42.833   1.177  13.549
 8686W        W77080  31.649  39.326  11.568
 8687W        W77081  37.854  40.431  10.765
 8688W        W77082  16.010  35.457   1.667
 8689W        W77083  29.840   3.723   0.663
 8690W        W77084  26.125  32.197   2.947
 8691W        W77085  30.654  32.662  12.555
 8692W        W77086  20.241  17.739  10.814
 8693W        W77087  31.245  41.748   1.425
 8694W        W77088  20.569  28.234   0.895
 8695W        W77089  26.111  27.566  14.026
 8696W        W77090  10.133   6.050   1.825
 8697W        W77091   4.799  30.672   0.434
 8698W        W77092  22.015  38.806  11.542
 8699W        W77093  25.342  44.056   0.400
 8700W        W77094  11.291  18.180   3.157
 8701W        W77095  15.386  25.883   1.523
 8702W        W77096  35.553  15.977  13.832
 8703W        W77097  19.664  42.461   2.819
 8704W        W77098  21.748  28.640  14.091
 8705W        W77099  13.326   6.153   3.228
 8706W        W77100  29.685  31.709   1.911
 8707W        W77101   7.350  36.912  14.590
 8708W        W77102  18.553   5.722  13.996
 8709W        W77103  19.487   2.315   5.031
 8710W        W77104  28.948  42.941   4.205
 8711W        W77105  20.803   5.528   0.990
 8712W        W77106  33.586  29.737  14.867
 8713W        W77107  16.989  14.163   4.785
 8714W        W77108  19.176  16.889   1.249
 8715W        W77109   8.663  22.094  14.092
 8716W        W77110   5.896   3.124   1.771
 8717W        W77111  27.737  40.060   4.172
 8718W        W77112  32.695  16.517  10.962
 8719W        W77113   6.322  35.876   4.484
 8720W        W77114  14.305  22.954  11.208
 8721W        W77115  24.873  36.498   3.241
 8722W        W77116  43.880  34.631   3.098
 8723W        W77117  22.581  43.831  11.501
 8724W        W77118   9.210  36.894   0.797
 8725W        W77119  33.433   9.406   1.306
 8726W        W77120   1.809  43.040   1.260
 8727W        W77121  25.705  35.722  11.589
 8728W        W77122   7.654  33.524   3.795
 8729W        W77123   4.979  41.448  13.548
 8730W        W77124  22.291  10.910   4.085
 8731W        W77125   4.667  31.073  13.990
 8732W        W77126  35.534  35.847  12.598
 8733W        W77127  25.588  18.452   4.160
 8734W        W77128  28.016  33.011   1.362
 8735W        W77129  31.862  43.408  14.888
 8736W        W77130  16.790  11.684   4.588
 8737W        W77131  31.989  34.480  13.483
 8738W        W77132  26.058  30.496  12.404
 8739W        W77133   3.275  28.016   4.565
 8740W        W77134  31.627  32.578   2.633
 8741W        W77135  11.875  12.444  11.392
 8742W        W77136  33.415  18.197   2.824
 8743W        W77137  36.189   1.772   0.305
 8744W        W77138  18.530   0.698  10.625
 8745W        W77139  14.796  17.261  14.963
 8746W        W77140  41.445   1.338  14.356
 8747W        W77141  19.393   4.720   1.322
 8748W        W77142   2.310  33.311   2.422
 8749W        W77143   3.818   7.162   4.669
 8750W        W77144  29.315  43.266   0.861
 8751W        W77145  18.651  30.518   0.965
 8752W        W77146  33.653  29.206  14.830
 8753W        W77147  15.392  19.961  12.408
 8754W        W77148  19.983   9.689   2.872
 8755W        W77149   6.235  15.575   0.712
 8756W        W77150   2.633  17.665  14.031
 8757W        W77151  20.459  18.699  11.542
 8758W        W77152  18.669   2.529  14.244
 8759W        W77153  43.979  39.094   2.868
 8760W        W77154  28.222  42.904   0.467
 8761W        W77155  44.981  10.812   2.175
 8762W        W77156   5.028   1.169   2.890
 8763W        W77157  22.339  26.268   0.683
 8764W        W77158  35.581  15.218  11.644
 8765W        W77159   3.466   1.182  14.985
 8766W        W77160   7.971   4.006  11.276
 8767W        W77161  28.160  12.224   2.955
 8768W        W77162  15.110  19.162  12.627
 8769W        W77163  36.686   4.701   1.320
 8770W        W77164  21.745  17.080   4.063
 8771W        W77165  30.926  12.386  11.243
 8772W        W77166  28.114  14.153   4.656
 8773W        W77167  15.348   6.250  12.479
 8774W        W77168  12.317  38.460  11.522
 8775W        W77169  41.605  36.302  12.009
 8776W        W77170  31.609  30.384  10.586
 8777W        W77171  33.512  23.064  12.690
 8778W        W77172  15.708  28.622  12.369
 8779W        W77173  19.861  34.303  14.396
 8780W        W77174  32.090  12.606  14.815
 8781W        W77175  35.743  43.349   1.745
 8782W        W77176  16.192  31.599  10.460
 8783W        W77177  26.918   3.936   2.145
 8784W        W77178  19.999  41.237   3.748
 8785W        W77179   5.808  18.165   0.426
 8786W        W77180  40.456  13.213  10.561
 8787W        W77181  12.257   5.880  12.131
 8788W        W77182  29.331  40.460  11.165
 8789W        W77183   8.134  27.670  12.612
 8790W        W77184  18.081  26.174  10.164
 8791W        W77185  44.443  27.733   3.069
 8792W        W77186  10.742  32.233  13.408
 8793W        W77187  40.708   6.838   4.791
 8794W        W77188  29.940  37.252   1.828
 8795W        W77189  28.114  17.084  14.383
 8796W        W77190   8.388  22.796  11.157
 8797W        W77191  42.322  16.841  10.847
 8798W        W77192   3.189  31.499  14.017
 8799W        W77193  32.187  25.084  12.917
 8800W        W77194  37.117  33.370   4.597
 8801W        W77195  34.162  15.071  12.062
 8802W        W77196  30.715  32.907  13.308
 8803W        W77197  43.048  14.122  10.260
 8804W        W77198  26.260   0.291  10.800
 8805W        W77199  36.362  33.547   1.380
 8806W        W77200  37.959  21.010  13.065
 8807W        W77201  24.789  39.104   0.443
 8808W        W77202  34.777  32.048   0.280
 8809W        W77203  12.247  20.302   0.827
 8810W        W77204  25.613  24.906  11.411
 8811W        W77205  38.268  25.462  12.216
 8812W        W77206  42.709  37.903  14.975
 8813W        W77207  43.732  34.346  12.683
 8814W        W77208  11.930  32.797  13.363
 8815W        W77209  20.949   4.192   1.365
 8816W        W77210   7.781  44.390  13.579
 8817W        W77211  14.349  36.500  11.213
 8818W        W77212   6.241  23.554  10.013
 8819W        W77213  20.497  28.578  14.404
 8820W        W77214  44.503  26.991  13.833
 8821W        W77215   1.331  15.276  10.226
 8822W        W77216  42.347  37.780  14.517
 8823W        W77217  19.144  27.565   1.214
 8824W        W77218   6.040  38.773  14.446
 8825W        W77219  42.589  31.013   5.322
 8826W        W77220  15.752  22.282  10.274
 8827W        W77221   4.395  16.860   2.277
 8828W        W77222  32.087  35.475   4.217
 8829W        W77223  27.968  20.727  11.962
 8830W        W77224  19.279  27.722  14.897
 8831W        W77225  42.733   4.245   0.869
 8832W        W77226  39.718  44.393  14.495
 8833W        W77227  36.020  27.365  11.380
 8834W        W77228  20.743  29.643  14.787
 8835W        W77229  25.647  19.061  14.738
 8836W        W77230  29.924  40.055  11.972
 8837W        W77231  15.626  36.142   2.205
 8838W        W77232  33.415  31.160   2.276
 8839W        W77233   8.375   3.458  14.922
 8840W        W77234  25.601  18.218  12.857
 8841W        W77235  41.800  23.058   4.148
 8842W        W77236  13.702  38.077   3.359
 8843W        W77237   5.353  28.077  13.327
 8844W        W77238  29.754  36.894   3.462
 8845W        W77239  44.370  42.247  12.355
 8846W        W77240   5.653  34.530  12.383
 8847W        W77241   3.291  27.754   3.191
 8848W        W77242  23.543   1.877   3.442
 8849W        W77243   0.835  38.851  11.125
 8850W        W77244  44.226  18.516  12.317
 8851W        W77245  28.993  19.206   1.773
 8852W        W77246  15.806  11.076  11.582
 8853W        W77247  24.569  14.668   0.752
 8854W        W77248   0.992  14.779  11.935
 8855W        W77249  35.007  18.381  12.533
 8856W        W77250  20.634  27.884  14.939
 8857W        W77251   9.410  35.700   2.725
 8858W        W77252  15.754  43.080   2.661
 8859W        W77253  33.198  35.533  12.062
 8860W        W77254  16.360  41.604   3.911
 8861W        W77255  16.271  36.663   3.967
 8862W        W77256  44.719  30.498  13.437
 8863W        W77257   6.992  16.261   4.378
 8864W        W77258  40.764  41.475  12.528
 8865W        W77259  29.247  11.301   3.779
 8866W        W77260   4.249  10.354   0.849
 8867W        W77261  17.030  24.492   2.852
 8868W        W77262  18.118  18.605   5.315
 8869W        W77263  27.999  27.864  14.566
 8870W        W77264  33.927  39.027  10.297
 8871W        W77265  15.724  43.456   3.652
 8872W        W77266  22.983  43.522  11.394
 8873W        W77267  10.742  36.900   4.790
 8874W        W77268  41.025  39.438   3.729
 8875W        W77269   8.440  33.572   1.688
 8876W        W77270  41.391   2.043   4.675
 8877W        W77271  28.446   2.343  14.901
 8878W        W77272  11.117   1.822   0.847
 8879W        W77273  31.789   5.618  13.795
 8880W        W77274  35.139  31.158   0.280
 8881W        W77275   4.695  18.620  11.076
 8882W        W77276  26.321   0.811  12.290
 8883W        W77277  31.564   2.365  12.117
 8884W        W77278   6.417  16.597   0.331
 8885W        W77279  37.041  42.817   0.774
 8886W        W77280  28.131  22.743   1.348
 8887W        W77281   5.403  39.979  10.796
 8888W        W77282   6.736  23.510   9.820
 8889W        W77283  36.028  14.432  14.896
 8890W        W77284   0.500   9.764  12.894
 8891W        W77285  11.454  34.271  11.200
 8892W        W77286  18.231  11.436  14.492
 8893W        W77287   0.466   6.940  13.872
 8894W        W77288  40.871   9.160   4.283
 8895W        W77289  36.191   1.229  14.358
 8896W        W77290   6.949   6.234  12.434
 8897W        W77291   4.710  13.743  12.274
 8898W        W77292  38.548  22.683  13.597
 8899W        W77293  39.416   5.199   3.742
 8900W        W77294   4.590  33.417   1.256
 8901W        W77295  42.488   7.194  14.422
 8902W        W77296  24.288   7.112  12.376
 8903W        W77297  26.458  37.339   3.197
 8904W        W77298  35.593  11.416   1.333
 8905W        W77299  15.277  35.621  13.979
 8906W        W77300   2.433   1.885   5.034
 8907W        W77301  44.813  18.092   0.420
 8908W        W77302   4.633  24.735  13.503
 8909W        W77303  28.957  14.107   1.287
 8910W        W77304  27.451  11.075  12.558
 8911W        W77305  15.737  37.675  10.664
 8912W        W77306  44.166  29.865  13.640
 8913W        W77307  15.681   8.132   2.755
 8914W        W77308  21.806  18.138  14.503
 8915W        W77309  18.861  43.305   3.175
 8916W        W77310   3.412  20.638   4.179
 8917W        W77311  35.744   7.906   0.274
 8918W        W77312  23.607  17.474   4.826
 8919W        W77313  33.574   7.166   4.579
 8920W        W77314  11.193  36.880  14.549
 8921W        W77315  32.041   4.359  10.415
 8922W        W77316   3.374  13.092   0.723
 8923W        W77317   2.114  28.100  11.110
 8924W        W77318  27.932   3.477   4.470
 8925W        W77319   5.870  27.496   0.254
 8926W        W77320  21.927  17.199   1.249
 8927W        W77321  20.159  24.108  12.830
 8928W        W77322  36.374  21.076  13.552
 8929W        W77323   0.996  33.107   0.279
 8930W        W77324  44.882   8.021   2.815
 8931W        W77325  36.892  23.716   3.374
 8932W        W77326  36.551   2.321  12.188
 8933W        W77327   8.196  39.571  11.125
 8934W        W77328   2.712  39.011   5.015
 8935W        W77329  44.875  12.861  14.601
 8936W        W77330  41.998  21.165  12.004
 8937W        W77331  31.540  30.731  13.401
 8938W        W77332  15.971   2.340   3.630
 8939W        W77333  31.674  22.148   1.300
 8940W        W77334  36.836  28.410  13.385
 8941W        W77335   5.140   6.310   3.282
 8942W        W77336   6.339  26.234   0.370
 8943W        W77337  38.426   1.498   0.122
 8944W        W77338  10.866  15.627   2.751
 8945W        W77339  10.247  11.513   4.873
 8946W        W77340  29.375  44.660  13.337
 8947W        W77341  41.075  24.128   0.018
 8948W        W77342  34.735  11.070  13.549
 8949W        W77343  25.322  31.575   4.857
 8950W        W77344  25.793  27.169  11.046
 8951W        W77345  29.155  31.184   2.770
 8952W        W77346  13.941  35.938  12.058
 8953W        W77347  40.317   8.195   1.904
 8954W        W77348  21.016  21.176   2.567
 8955W        W77349   8.695  41.985   4.760
 8956W        W77350  15.354  23.933   1.691
 8957W        W77351  25.096  31.631   3.841
 8958W        W77352   5.404  25.399  12.574
 8959W        W77353  19.253  27.033   1.126
 8960W        W77354  16.300  23.082  12.833
 8961W        W77355   7.456  32.340   4.243
 8962W        W77356   2.082   3.768   3.688
 8963W        W77357   3.492  21.055  12.596
 8964W        W77358  23.327  12.722   1.881
 8965W        W77359  43.824  16.785   4.032
 8966W        W77360  31.378  14.864   2.164
 8967W        W77361  17.808  16.373   0.380
 8968W        W77362  20.655  36.257   0.021
 8969W        W77363  25.593   3.380  10.970
 8970W        W77364  43.502  30.389  12.978
 8971W        W77365  22.539  21.938  11.390
 8972W        W77366  41.144  25.974  12.500
 8973W        W77367   4.203  38.059  11.616
 8974W        W77368  38.131  24.757   3.700
 8975W        W77369  31.699  30.055  14.815
 8976W        W77370   6.978  27.537  14.311
 8977W        W77371   0.370  38.474  14.881
 8978W        W77372  37.089  19.795  13.474
 8979W        W77373  17.083   3.838   0.380
 8980W        W77374  18.197  44.771   4.782
 8981W        W77375  20.591  34.778   4.248
 8982W        W77376  42.850  32.091  13.976
 8983W        W77377  24.775  27.417  11.200
 8984W        W77378  29.687   0.428  10.538
 8985W        W77379  11.601  39.097  13.565
 8986W        W77380  30.678  31.079  12.016
 8987W        W77381  11.638  28.197  14.874
 8988W        W77382  42.054  11.750   2.294
 8989W        W77383   2.877  42.730   0.026
 8990W        W77384   4.423  21.220   4.017
 8991W        W77385   4.269   0.359   2.177
 8992W        W77386  15.741  15.095   1.745
 8993W        W77387   0.669  39.033   2.610
 8994W        W77388  17.208  19.479  11.216
 8995W        W77389  40.304  26.698   3.586
 8996W        W77390  14.615  12.831  10.762
 8997W        W77391  36.445   2.046  12.996
 8998W        W77392  26.676  42.815  13.012
 8999W        W77393  13.153  37.008  12.496
 9000W        W77394  13.854   4.537  12.777
 9001W        W77395  21.492  23.977  13.110
 9002W        W77396  39.003  18.322  12.638
 9003W        W77397  31.928  16.261  12.392
 9004W        W77398  31.002  25.892   0.384
 9005W        W77399  34.938   6.272   1.718
 9006W        W77400  11.342  40.387   3.160
 9007W        W77401  40.939  40.095   4.249
 9008W        W77402  23.903  19.170  11.943
 9009W        W77403  24.414   0.410   4.089
 9010W        W77404  30.048  31.990   2.180
 9011W        W77405  36.936   3.652   2.322
 9012W        W77406  27.167  42.372  11.955
 9013W        W77407  32.684  28.595   3.608
 9014W        W77408   6.155  26.792   3.435
 9015W        W77409  33.054  23.102  13.562
 9016W        W77410  21.513  23.765  10.397
 9017W        W77411  12.702  19.650   3.204
 9018W        W77412   0.396  18.446  13.846
 9019W        W77413  30.314  35.514  11.113
 9020W        W77414  19.762  36.505   0.525
 9021W        W77415  29.975   7.703  10.914
 9022W        W77416  16.773   2.351  12.865
 9023W        W77417   0.378  41.950  14.360
 9024W        W77418  22.116  15.333  11.646
 9025W        W77419  21.425  11.885  13.934
 9026W        W77420  25.386  37.400  11.609
 9027W        W77421   7.294  14.473  13.271
 9028W        W77422  16.292  14.794   2.896
 9029W        W77423  33.920   2.679   4.269
 9030W        W77424   8.397   2.350  11.014
 9031W        W77425   4.572  23.547   5.212
 9032W        W77426  43.385  26.710   3.759
 9033W        W77427  44.882  15.076  13.794
 9034W        W77428  20.698  44.644   3.595
 9035W        W77429  44.249  29.434  12.836
 9036W        W77430  41.483  14.780  10.598
 9037W        W77431  18.276  34.565  12.022
 9038W        W77432  24.697   9.180   5.556
 9039W        W77433  36.808  26.623  14.551
 9040W        W77434  10.929  12.378   4.140
 9041W        W77435  11.898  41.308   3.496
 9042W        W77436  23.719   2.808  13.058
 9043W        W77437   5.888   2.141  11.334
 9044W        W77438  44.054  33.943  14.857
 9045W        W77439   1.469  42.002   0.847
 9046W        W77440   6.607  35.277  13.938
 9047W        W77441  19.602  39.853  10.739
 9048W        W77442  28.883   3.346  13.756
 9049W        W77443   4.647  42.342   1.276
 9050W        W77444  27.891  37.660   3.120
 9051W        W77445   6.454  16.403  13.461
 9052W        W77446  18.639   8.172  11.051
 9053W        W77447  26.229   9.431  12.556
 9054W        W77448  26.594   3.717  10.778
 9055W        W77449  17.766  16.539  10.633
 9056W        W77450  38.905  18.209   1.680
 9057W        W77451   0.337  32.495   1.951
 9058W        W77452  41.489   6.720  14.974
 9059W        W77453  29.225  37.531   1.337
 9060W        W77454  39.412  32.738   3.773
 9061W        W77455  19.293   9.678  12.569
 9062W        W77456  38.923  29.502  10.458
 9063W        W77457  36.502  10.749  14.894
 9064W        W77458  28.141  16.163  12.961
 9065W        W77459   5.759  34.134  11.619
 9066W        W77460   9.225   6.063   2.533
 9067W        W77461  39.957  23.478  11.497
 9068W        W77462  30.579  42.282   1.877
 9069W        W77463  18.850  10.728  11.070
 9070W        W77464  34.995  40.926   2.893
 9071W        W77465  22.600  20.983   0.694
 9072W        W77466  26.136  33.481   1.677
 9073W        W77467   2.924  16.230  13.333
 9074W        W77468  19.802  31.652   4.952
 9075W        W77469  22.437  44.516   3.637
 9076W        W77470  16.528  41.816  13.620
 9077W        W77471  26.867  10.425  11.424
 9078W        W77472  37.223   9.029   2.070
 9079W        W77473   3.713   9.928   3.309
 9080W        W77474  18.132  19.473  12.847
 9081W        W77475  40.447  29.877  13.555
 9082W        W77476   4.648  10.855  12.759
 9083W        W77477  27.520  31.847   2.298
 9084W        W77478  27.413  38.880  10.481
 9085W        W77479  35.015  22.647  12.933
 9086W        W77480  19.292  44.336   0.384
 9087W        W77481  24.403  21.044   3.759
 9088W        W77482   2.786  25.562   3.576
 9089W        W77483  22.664  19.002  11.451
 9090W        W77484  29.629  35.730  11.529
 9091W        W77485   3.374  40.586  13.288
 9092W        W77486   3.945  33.644  13.019
 9093W        W77487  43.318  26.206   3.681
 9094W        W77488  37.608  33.903   3.408
 9095W        W77489  38.934  33.297  11.921
 9096W        W77490  17.718  26.410   1.949
 9097W        W77491  28.116  26.763   9.897
 9098W        W77492  36.536  10.782   3.842
 9099W        W77493  33.468  31.596  10.358
 9100W        W77494   6.631  28.714  12.438
 9101W        W77495  33.392  44.045  14.057
 9102W        W77496  35.811  26.102  13.366
 9103W        W77497  30.451  11.939   0.114
 9104W        W77498  42.625   8.422   3.632
 9105W        W77499  14.982  17.100  13.904
 9106W        W77500  28.819  20.234   1.185
 9107W        W77501  37.418  25.530   1.026
 9108W        W77502  27.234  40.044  14.526
 9109W        W77503  27.729  15.399  14.543
 9110W        W77504  42.361  44.030   4.601
 9111W        W77505  21.389  28.033  13.081
 9112W        W77506  34.715  10.323  11.360
 9113W        W77507   8.139  36.316  12.258
 9114W        W77508  29.896  27.434  13.504
 9115W        W77509  39.631   5.393  13.825
 9116W        W77510  12.132  11.720   2.158
 9117W        W77511  39.912  24.242   3.240
 9118W        W77512   8.161  23.845   2.278
 9119W        W77513  25.187  34.330  11.481
 9120W        W77514  40.999   9.800   3.579
 9121W        W77515  31.093  24.606   3.168
 9122W        W77516  20.646  35.516   1.705
 9123W        W77517  14.731  15.159   0.719
 9124W        W77518  34.747  21.687  14.000
 9125W        W77519  40.842   5.832   2.401
 9126W        W77520  14.049   3.153   4.200
 9127W        W77521  23.928  35.952   1.382
 9128W        W77522  30.537  33.831   1.447
 9129W        W77523  28.938  17.659   0.744
 9130W        W77524   8.975  22.666   0.877
 9131W        W77525  10.684   2.619   1.867
 9132W        W77526  28.135  40.951   0.833
 9133W        W77527   2.372  34.812  14.465
 9134W        W77528  15.018  17.704   9.934
 9135W        W77529  24.806  40.582  12.434
 9136W        W77530  28.152  22.618   4.042
 9137W        W77531   8.506  21.462  11.619
 9138W        W77532  44.027  15.119   3.136
 9139W        W77533  32.278  27.113   1.286
 9140W        W77534  31.101   5.887   1.143
 9141W        W77535  21.607  20.428  13.273
 9142W        W77536  14.609  11.695   1.381
 9143W        W77537  36.034  31.608   0.945
 9144W        W77538  23.718  16.221   1.820
 9145W        W77539  27.526  12.457  14.887
 9146W        W77540  32.109   9.502  13.815
 9147W        W77541  22.001  13.301  10.936
 9148W        W77542   2.368   3.726   2.418
 9149W        W77543  22.981  29.178   0.419
 9150W        W77544  21.286  22.807  13.845
 9151W        W77545  43.112  30.423   1.310
 9152W        W77546  27.089  37.607   3.445
 9153W        W77547  37.662  40.656   0.286
 9154W        W77548  29.594  39.901   2.210
 9155W        W77549  17.767  42.474  13.511
 9156W        W77550  43.918  24.195   1.879
 9157W        W77551  42.272  25.578  11.183
 9158W        W77552  12.155  37.473   2.547
 9159W        W77553   3.675   3.719  10.756
 9160W        W77554  26.573  32.386  10.692
 9161W        W77555   9.833  22.909  12.427
 9162W        W77556   2.510  27.127   2.954
 9163W        W77557  11.243  40.515   2.260
 9164W        W77558  36.380   2.523   0.318
 9165W        W77559  44.274  25.129  13.413
 9166W        W77560  12.040  23.159   0.075
 9167W        W77561  31.199  36.784   3.067
 9168W        W77562  27.551  32.323  14.002
 9169W        W77563  42.532  14.209  14.485
 9170W        W77564  15.262  23.295  14.837
 9171W        W77565  13.308  32.996   2.151
 9172W        W77566   2.857  19.831   3.184
 9173W        W77567  32.882  13.671   1.361
 9174W        W77568   3.749   1.846   0.416
 9175W        W77569  26.017  20.536   2.098
 9176W        W77570  32.048  32.386  14.516
 9177W        W77571  28.192  38.457   3.396
 9178W        W77572   9.334  43.709  14.371
 9179W        W77573  28.043  10.487  12.213
 9180W        W77574  24.111  29.344   2.863
 9181W        W77575  10.152  29.760   2.535
 9182W        W77576  10.445  41.337   3.270
 9183W        W77577   6.946  22.667   1.013
 9184W        W77578  30.195  23.140  12.974
 9185W        W77579   7.200  44.571   1.241
 9186W        W77580  35.344  19.519  11.819
 9187W        W77581  34.633  22.742   1.726
 9188W        W77582  18.821  35.516   1.291
 9189W        W77583  34.889  36.428  14.859
 9190W        W77584  16.710  37.561  14.783
 9191W        W77585   9.654  42.402  12.997
 9192W        W77586  10.154  38.822   1.666
 9193W        W77587   4.516  34.445   2.262
 9194W        W77588   3.009   5.715  10.412
 9195W        W77589  19.819   9.611   4.197
 9196W        W77590  12.374  24.728  13.791
 9197W        W77591   0.839  16.202  11.994
 9198W        W77592   2.401  35.530   4.046
 9199W        W77593  22.455   9.603   4.122
 9200W        W77594  35.745  16.401  14.070
 9201W        W77595  44.336  38.403  14.878
 9202W        W77596  12.694  39.450  13.950
 9203W        W77597  13.828   6.515  13.398
 9204W        W77598   4.485   3.230   5.438
 9205W        W77599   2.668  31.038   3.546
 9206W        W77600  22.470  37.374   5.182
 9207W        W77601  16.408  21.043   4.475
 9208W        W77602   5.711   6.219   0.325
 9209W        W77603  33.339   4.784   4.599
 9210W        W77604  28.153  12.208   1.023
 9211W        W77605  38.566   9.172   4.345
 9212W        W77606  36.099  38.400   3.681
 9213W        W77607  11.294  40.308  11.999
 9214W        W77608  16.301  37.847   2.458
 9215W        W77609  14.305   1.844   1.369
 9216W        W77610  23.674   0.468   3.650
 9217W        W77611  26.445  40.137   0.374
 9218W        W77612   7.622  17.579  10.727
 9219W        W77613   5.784  18.132   1.923
 9220W        W77614  12.309  12.731   0.050
 9221W        W77615  15.732   1.731   4.801
 9222W        W77616  42.217  20.221   1.466
 9223W        W77617  18.607   6.006   3.856
 9224W        W77618   3.481  33.416  12.985
 9225W        W77619  24.934  22.067   3.316
 9226W        W77620  35.015   1.909   3.811
 9227W        W77621   0.322  16.064  13.762
 9228W        W77622  34.908  37.588  14.022
 9229W        W77623  30.124  12.367   1.378
 9230W        W77624  16.988   5.899   2.195
 9231W        W77625  25.608  44.725   1.515
 9232W        W77626  33.977  38.950  13.715
 9233W        W77627  13.241  15.036   4.567
 9234W        W77628  33.326   0.412   3.429
 9235W        W77629  29.559  16.104  11.537
 9236W        W77630  37.483  12.568  14.301
 9237W        W77631  22.711  36.614   0.582
 9238W        W77632  16.090   4.676   4.353
 9239W        W77633  24.665  41.308  14.807
 9240W        W77634  32.338  44.370  13.382
 9241W        W77635  31.282  16.015   4.516
 9242W        W77636  12.866  10.833  11.118
 9243W        W77637  28.137   6.252   2.304
 9244W        W77638  27.920  23.507   1.842
 9245W        W77639  16.874  29.153   2.623
 9246W        W77640   7.624  19.505   1.331
 9247W        W77641  15.627  11.309  12.021
 9248W        W77642  30.754  29.174  12.830
 9249W        W77643  29.130  39.782  11.660
 9250W        W77644  25.729  41.934   2.210
 9251W        W77645  16.139  28.346  14.275
 9252W        W77646  39.027   1.672  14.503
 9253W        W77647  13.580   6.285   2.285
 9254W        W77648   2.002  25.551  11.925
 9255W        W77649  44.092   0.917  12.543
 9256W        W77650  37.804  39.434  12.477
 9257W        W77651  17.269   3.323   2.350
 9258W        W77652   4.304  38.115   1.380
 9259W        W77653  19.048  24.140  12.502
 9260W        W77654  27.176   6.712   0.885
 9261W        W77655   8.251  10.803   1.810
 9262W        W77656  23.503  23.056  12.541
 9263W        W77657  39.399  18.039   2.441
 9264W        W77658   1.780  12.311  11.729
 9265W        W77659  30.684   3.235   0.621
 9266W        W77660  27.567  28.102  13.356
 9267W        W77661  21.105  19.849   2.738
 9268W        W77662  27.085  42.410   3.159
 9269W        W77663   0.939  35.510  11.070
 9270W        W77664  23.821   4.269   2.689
 9271W        W77665   6.361   0.751  14.872
 9272W        W77666   0.026  26.346   2.737
 9273W        W77667  43.615   1.867   4.186
 9274W        W77668  19.909  27.932   2.308
 9275W        W77669  22.176  21.191   1.763
 9276W        W77670   9.858   7.305  13.098
 9277W        W77671  32.592   0.405   1.861
 9278W        W77672  36.876  12.386  11.107
 9279W        W77673  17.021  41.636   2.896
 9280W        W77674  44.578   4.181  13.248
 9281W        W77675  32.143   9.531   1.463
 9282W        W77676   3.173  36.401  12.640
 9283W        W77677  34.462  13.877  10.839
 9284W        W77678  30.055   0.388  11.573
 9285W        W77679   3.267  24.925  12.581
 9286W        W77680   2.215  14.841  13.356
 9287W        W77681   7.521  42.151  13.263
 9288W        W77682  10.542  19.623  10.694
 9289W        W77683   1.453  21.408   1.383
 9290W        W77684  16.873  29.170  11.899
 9291W        W77685  42.513   3.730   2.733
 9292W        W77686  22.722  17.300   4.000
 9293W        W77687  42.575  43.254   2.895
 9294W        W77688  14.664   7.892   0.811
 9295W        W77689   5.805   8.799  13.969
 9296W        W77690  30.688   2.112  14.361
 9297W        W77691  13.130  39.985   1.713
 9298W        W77692  19.646  38.297  12.533
 9299W        W77693  42.732  10.322   2.083
 9300W        W77694   8.614   9.487  11.604
 9301W        W77695  36.522   3.933   2.209
 9302W        W77696  24.249   0.504  12.921
 9303W        W77697  10.174  26.392   3.907
 9304W        W77698  35.722  33.387   4.586
 9305W        W77699  34.039  43.042   3.727
 9306W        W77700  21.770  40.897   0.735
 9307W        W77701  24.424  23.661   0.881
 9308W        W77702  19.624   7.392  11.958
 9309W        W77703  44.743   0.355  10.619
 9310W        W77704  31.214   0.243   2.215
 9311W        W77705  33.074   9.698   0.004
 9312W        W77706   1.444  25.541  11.938
 9313W        W77707  30.597   6.488  14.569
 9314W        W77708  43.812  32.645   2.591
 9315W        W77709  36.688   1.648   4.515
 9316W        W77710  28.110   6.254   4.400
 9317W        W77711  36.444  36.877  14.442
 9318W        W77712  42.165  13.183   3.624
 9319W        W77713  28.955  32.093  13.447
 9320W        W77714  31.596   3.388   1.696
 9321W        W77715  25.468  23.399  13.483
 9322W        W77716   1.981  22.702  14.308
 9323W        W77717  37.751   3.883  13.917
 9324W        W77718  28.324  12.754   4.608
 9325W        W77719  11.046  25.981  13.074
 9326W        W77720   0.822  27.795  12.913
 9327W        W77721   4.474  24.752  14.023
 9328W        W77722  38.834  25.240  11.163
 9329W        W77723  22.537   3.339   5.015
 9330W        W77724  39.438  20.322  10.533
 9331W        W77725  10.916   1.065  12.369
 9332W        W77726  24.514  41.632  11.265
 9333W        W77727  12.631  16.320  13.554
 9334W        W77728   1.356   4.447  13.565
 9335W        W77729   1.876  12.882   1.861
 9336W        W77730  30.885  40.999   2.575
 9337W        W77731  13.555  10.433   1.784
 9338W        W77732   7.616  30.013  12.593
 9339W        W77733   2.695  37.121   2.885
 9340W        W77734   5.372  27.699  14.536
 9341W        W77735  38.651   4.719   5.102
 9342W        W77736  38.063  15.050   0.333
 9343W        W77737  15.529   1.801  11.618
 9344W        W77738   8.313  38.086  12.929
 9345W        W77739   8.806  44.718   0.807
 9346W        W77740   1.764  17.850  13.437
 9347W        W77741  41.074  11.460  14.809
 9348W        W77742  31.582  14.157   3.621
 9349W        W77743  38.535   6.363   0.003
 9350W        W77744  11.751  41.571  11.738
 9351W        W77745  23.424  42.025   3.502
 9352W        W77746  11.380  19.301  10.648
 9353W        W77747  10.656   5.466  12.524
 9354W        W77748  42.764  34.511  13.728
 9355W        W77749   8.540  18.900  12.412
 9356W        W77750  20.029  13.620   0.921
 9357W        W77751   0.384  31.852   3.656
 9358W        W77752   4.246  19.009  12.911
 9359W        W77753  28.757  17.341   3.154
 9360W        W77754  39.002  37.762  11.122
 9361W        W77755  22.509  15.676  11.625
 9362W        W77756  34.293  42.327   4.670
 9363W        W77757  34.615  43.424  12.186
 9364W        W77758  15.380   4.273   2.666
 9365W        W77759  18.521  12.837  12.216
 9366W        W77760  19.607   4.360  12.580
 9367W        W77761  26.211  37.483   1.341
 9368W        W77762   0.299  35.345  12.284
 9369W        W77763   7.911  11.962   0.993
 9370W        W77764  10.321  29.658   4.529
 9371W        W77765  36.862  43.536  11.681
 9372W        W77766  29.098  31.114  12.610
 9373W        W77767  42.308  12.147  11.549
 9374W        W77768  18.118  19.598  10.490
 9375W        W77769  33.072  28.701  13.420
 9376W        W77770  44.553   1.547  12.467
 9377W        W77771  29.376  11.209  13.945
 9378W        W77772   4.962   7.073  13.906
 9379W        W77773   3.388  30.157   2.613
 9380W        W77774  20.798  21.550   1.963
 9381W        W77775  27.595  23.070   1.806
 9382W        W77776  24.285  36.459  14.764
 9383W        W77777  31.047  43.092   0.328
 9384W        W77778  19.688  34.796  14.311
 9385W        W77779  30.057   3.127   3.279
 9386W        W77780  35.261  37.420  12.508
 9387W        W77781  40.032  29.229   4.488
 9388W        W77782  12.237  18.018   1.453
 9389W        W77783  14.222  32.475  13.495
 9390W        W77784  14.309  38.104   2.625
 9391W        W77785  24.221  25.730   1.518
 9392W        W77786  20.230  19.997  11.970
 9393W        W77787  18.017  12.117  12.902
 9394W        W77788  27.276  18.302  11.695
 9395W        W77789  11.643  21.663   2.420
 9396W        W77790  42.014  21.505   1.879
 9397W        W77791  44.369  33.506   1.254
 9398W        W77792   4.815  43.372   3.582
 9399W        W77793  22.918  10.155   2.224
 9400W        W77794   8.864  29.835  10.579
 9401W        W77795  32.593  14.683   0.946
 9402W        W77796   3.842   7.318  13.490
 9403W        W77797  31.400  23.283  13.560
 9404W        W77798  15.910  39.091  14.904
 9405W        W77799  25.289  43.979   3.720
 9406W        W77800  21.568  33.936   2.286
 9407W        W77801   8.951  27.902   1.546
 9408W        W77802  29.977   1.946  13.960
 9409W        W77803  22.634  10.237   2.648
 9410W        W77804  34.001  38.632   2.155
 9411W        W77805  36.174  32.472   2.727
 9412W        W77806   0.353  25.153   1.494
 9413W        W77807   1.121  10.366   3.191
 9414W        W77808  35.335  12.180   3.217
 9415W        W77809  10.976  13.133  10.689
 9416W        W77810  18.694  40.909   2.808
 9417W        W77811  26.541  11.148   3.267
 9418W        W77812  18.623  35.439   3.755
 9419W        W77813  31.418  29.850   2.803
 9420W        W77814  16.591  33.382  13.977
 9421W        W77815  14.176  28.230  12.261
 9422W        W77816  41.718   1.575  13.944
 9423W        W77817  35.591  38.025  11.179
 9424W        W77818   6.323  11.190  12.606
 9425W        W77819  27.501  16.029  14.968
 9426W        W77820  14.655  43.070   4.676
 9427W        W77821  21.032  41.990   4.164
 9428W        W77822   9.398  12.535   0.862
 9429W        W77823  39.831  41.906   2.314
 9430W        W77824  39.861  11.452  11.975
 9431W        W77825   4.488   9.315   0.313
 9432W        W77826  14.548  37.737   3.586
 9433W        W77827   6.478  41.895   3.255
 9434W        W77828  32.007  24.711  14.238
 9435W        W77829  34.819  27.022   4.077
 9436W        W77830  24.262  40.442  13.847
 9437W        W77831  20.579   5.878  11.177
 9438W        W77832  29.086  10.285   2.263
 9439W        W77833  11.919  10.309   0.671
 9440W        W77834   3.873  20.942  13.902
 9441W        W77835  22.438  29.238   3.273
 9442W        W77836  44.291   0.154  10.799
 9443W        W77837   4.817  42.792  14.917
 9444W        W77838  23.109  29.957   2.354
 9445W        W77839  13.128   2.232   3.413
 9446W        W77840  36.410  40.065   0.341
 9447W        W77841  22.637  13.640  14.792
 9448W        W77842  42.918  41.896   5.149
 9449W        W77843  14.280  19.615  14.326
 9450W        W77844  21.822  13.460  10.106
 9451W        W77845   6.249  12.890   4.940
 9452W        W77846   7.403  20.010   1.270
 9453W        W77847  23.716  18.580   0.045
 9454W        W77848  17.784   8.403  11.675
 9455W        W77849  17.443  24.049   0.743
 9456W        W77850  41.776  25.198  11.617
 9457W        W77851   2.425  12.800   1.246
 9458W        W77852   9.462  31.689  11.530
 9459W        W77853  43.997  28.526  11.059
 9460W        W77854  15.669   1.259   4.553
 9461W        W77855   9.429   4.595  12.505
 9462W        W77856  14.157   4.462  14.012
 9463W        W77857  33.934  30.237   4.153
 9464W        W77858  13.644  40.448   3.091
 9465W        W77859  16.596   1.291   1.468
 9466W        W77860  24.033   8.903  14.433
 9467W        W77861  12.642  14.167  11.110
 9468W        W77862  42.550  43.574   4.829
 9469W        W77863  15.365  38.450   1.837
 9470W        W77864  37.420  34.927   4.586
 9471W        W77865  16.492  38.175  12.897
 9472W        W77866  30.241   0.461  10.436
 9473W        W77867  34.880  34.315  13.914
 9474W        W77868   7.907  17.493  14.915
 9475W        W77869  15.170  15.391  12.422
 9476W        W77870  42.878  29.757  11.998
 9477W        W77871  41.886  43.741   3.888
 9478W        W77872   0.802  11.598  14.070
 9479W        W77873  32.158  43.394  14.428
 9480W        W77874  26.460  34.663  10.815
 9481W        W77875  13.886  17.998  12.091
 9482W        W77876  35.442   4.712  14.737
 9483W        W77877  35.447  26.232  10.899
 9484W        W77878   6.796  36.997   1.782
 9485W        W77879   9.965   4.423   3.336
 9486W        W77880  31.949   2.128   1.715
 9487W        W77881  15.519  29.172  13.399
 9488W        W77882  12.597   7.101  14.208
 9489W        W77883  12.755  21.772   4.921
 9490W        W77884  37.951  37.484   2.150
 9491W        W77885  24.649  30.431  12.750
 9492W        W77886   8.814   8.666   0.383
 9493W        W77887  43.944   4.465  12.489
 9494W        W77888  12.802  35.339   2.171
 9495W        W77889  42.779   1.724   0.969
 9496W        W77890  17.195  30.049  11.441
 9497W        W77891   4.737  30.370  14.967
 9498W        W77892  27.740  22.786   0.805
 9499W        W77893   8.899  43.209  12.646
 9500W        W77894  37.261  29.442  11.519
 9501W        W77895   3.194  15.788   3.168
 9502W        W77896  40.887  31.916   1.424
 9503W        W77897  33.969   4.684  13.316
 9504W        W77898  25.630   8.201  14.513
 9505W        W77899  21.382  42.858   2.597
 9506W        W77900  32.059  16.061  10.553
 9507W        W77901  34.632  44.886  13.578
 9508W        W77902  35.807   9.251   0.519
 9509W        W77903   2.170  27.941  11.945
 9510W        W77904  29.333  12.723  11.683
 9511W        W77905  27.140  37.126   0.398
 9512W        W77906  21.317  32.175  10.752
 9513W        W77907  29.606  20.730  12.926
 9514W        W77908  35.837   0.675   2.319
 9515W        W77909   1.478  14.609  11.452
 9516W        W77910  13.152  25.894  13.469
 9517W        W77911   1.860  35.823   0.834
 9518W        W77912  35.710   1.035   0.886
 9519W        W77913   4.856  12.389   1.681
 9520W        W77914  41.868  36.898  13.433
 9521W        W77915  35.582   5.117   0.407
 9522W        W77916  23.017  22.269   1.704
 9523W        W77917  14.165  22.645   1.444
 9524W        W77918  29.881  44.840   0.008
 9525W        W77919  12.910  40.657   2.927
 9526W        W77920  37.593   8.805  14.223
 9527W        W77921  28.447  37.608   0.893
 9528W        W77922  19.549   2.612  11.656
 9529W        W77923  31.508  17.520  14.852
 9530W        W77924  33.959  11.149   1.955
 9531W        W77925  25.673  28.100   2.443
 9532W        W77926  33.875  42.838  13.996
 9533W        W77927   5.988  34.326  12.042
 9534W        W77928  15.003   9.239   4.961
 9535W        W77929  32.096  26.577   0.229
 9536W        W77930  11.775  40.375   4.995
 9537W        W77931  13.726  10.880  13.504
 9538W        W77932  27.608  10.967   2.810
 9539W        W77933  25.474  29.618  13.572
 9540W        W77934  18.255   4.304  13.897
 9541W        W77935  42.800  22.239  11.571
 9542W        W77936   3.115   7.109  14.833
 9543W        W77937   4.330  37.324   4.160
 9544W        W77938  25.943  11.679  13.618
 9545W        W77939  13.114  10.385  11.144
 9546W        W77940  21.174  30.441   0.232
 9547W        W77941   3.843  42.517  13.071
 9548W        W77942  26.489  11.266  13.860
 9549W        W77943  20.038   5.394   4.903
 9550W        W77944   2.599  22.722  14.907
 9551W        W77945  27.106  22.510   2.596
 9552W        W77946  19.208  41.118  10.039
 9553W        W77947  25.655  30.476   4.154
 9554W        W77948  24.655  18.470   1.272
 9555W        W77949  44.864  34.871  11.123
 9556W        W77950   3.723  37.337  12.849
 9557W        W77951   3.349  12.232   3.265
 9558W        W77952  30.397  34.566  14.275
 9559W        W77953  26.313  21.198   0.843
 9560W        W77954  37.966  11.906   0.265
 9561W        W77955  16.044  10.830   3.752
 9562W        W77956  44.038  37.527   2.697
 9563W        W77957   0.885  23.569   2.929
 9564W        W77958   1.343   9.160  13.099
 9565W        W77959  39.945  27.422   0.448
 9566W        W77960  42.437  36.418  14.932
 9567W        W77961  18.558  40.439   3.687
 9568W        W77962  27.929  14.238  14.797
 9569W        W77963  36.434  44.901  10.677
 9570W        W77964   6.397   7.270   3.684
 9571W        W77965  39.766  14.750   3.616
 9572W        W77966  29.224  43.874   2.697
 9573W        W77967  38.091  22.777  10.030
 9574W        W77968  12.229  28.569   4.271
 9575W        W77969  29.683  30.982   3.572
 9576W        W77970  29.664  44.493   4.542
 9577W        W77971   1.788  14.844  12.593
 9578W        W77972  21.527  17.096  10.643
 9579W        W77973  40.567  31.415   0.812
 9580W        W77974  14.251   7.302  11.334
 9581W        W77975  19.739  38.168  13.436
 9582W        W77976  22.661  44.868   1.998
 9583W        W77977  22.568   4.237   0.967
 9584W        W77978  19.016   4.669  11.072
 9585W        W77979  32.076   4.907   0.624
 9586W        W77980  41.980  36.517  14.702
 9587W        W77981   0.220  26.614   0.942
 9588W        W77982   9.160  15.627  12.610
 9589W        W77983  16.246  29.374   4.453
 9590W        W77984  34.909  11.281   4.168
 9591W        W77985   7.856   8.369   0.762
 9592W        W77986  36.923  16.263   3.885
 9593W        W77987  34.923  13.438  14.105
 9594W        W77988  44.226   1.041  11.644
 9595W        W77989   7.936   2.278  13.592
 9596W        W77990  36.371   8.919   1.363
 9597W        W77991  23.207  42.555  13.420
 9598W        W77992   7.857  38.952  13.360
 9599W        W77993   1.218  15.314   0.871
 9600W        W77994   5.910  14.568   1.882
 9601W        W77995  40.686  15.951   0.781
 9602W        W77996  43.630   5.888   0.858
 9603W        W77997  38.284  10.824   1.704
 9604W        W77998   6.664  18.197  12.954
 9605W        W77999  28.053  19.424  13.152
 9606W        W78000  36.078  39.985  14.392
 9607W        W78001  34.564  20.607  14.361
 9608W        W78002  14.260  19.636   0.293
 9609W        W78003   4.898  43.225   0.848
 9610W        W78004  27.139   8.334  13.318
 9611W        W78005  18.858  14.846   3.209
 9612W        W78006  28.179  26.468  13.974
 9613W        W78007  18.712  13.081   4.683
 9614W        W78008  29.632  18.886   4.571
 9615W        W78009   2.067  22.089   3.652
 9616W        W78010  31.583   4.889   2.535
 9617W        W78011  40.556  42.683   5.216
 9618W        W78012   8.829  15.250  10.654
 9619W        W78013  29.311   3.103  13.909
 9620W        W78014  39.419  30.460   1.245
 9621W        W78015  42.184  33.854   1.429
 9622W        W78016  18.291  42.899  14.591
 9623W        W78017  28.240  41.308  13.932
 9624W        W78018  39.803  15.582  13.652
 9625W        W78019   1.322  39.320  12.981
 9626W        W78020  42.045  30.658  11.736
 9627W        W78021   6.095  36.725   2.775
 9628W        W78022  35.133  15.124  14.069
 9629W        W78023  11.379  40.843  14.336
 9630W        W78024  19.860   2.884   2.716
 9631W        W78025   2.711   9.937   1.194
 9632W        W78026  28.476  12.126   1.444
 9633W        W78027  29.201  10.904  11.624
 9634W        W78028  21.837  35.255   1.888
 9635W        W78029  43.829  29.975  12.039
 9636W        W78030  12.569   2.886   0.792
 9637W        W78031   6.383  43.473   1.229
 9638W        W78032  38.836   0.952   0.463
 9639W        W78033   3.296  10.622   2.448
 9640W        W78034  30.776  30.125   2.234
 9641W        W78035   3.732  21.681   3.311
 9642W        W78036  21.231  27.757   5.488
 9643W        W78037   9.486  13.361   1.537
 9644W        W78038   2.950  21.199   1.412
 9645W        W78039   3.906   0.836  13.519
 9646W        W78040  43.816  29.383   3.801
 9647W        W78041  30.240  17.372   1.796
 9648W        W78042  20.754  24.129  14.920
 9649W        W78043   3.489  35.273  10.600
 9650W        W78044   4.753  23.301  11.014
 9651W        W78045  38.879  22.627   4.957
 9652W        W78046  18.732  38.074  12.950
 9653W        W78047  41.261  23.331  13.651
 9654W        W78048  19.292   1.397  12.214
 9655W        W78049   7.591  24.725   2.818
 9656W        W78050  41.791   2.559   0.006
 9657W        W78051  34.933  26.544   4.239
 9658W        W78052  32.217  30.087  14.829
 9659W        W78053  37.866   6.700  13.460
 9660W        W78054  39.431  30.843  10.427
 9661W        W78055  22.645   6.403  11.435
 9662W        W78056  38.709  36.761   0.219
 9663W        W78057  32.849  42.100  12.028
 9664W        W78058  16.038  26.490   4.499
 9665W        W78059  27.997  35.890   2.889
 9666W        W78060  41.454  18.755   5.067
 9667W        W78061  37.906   1.402   4.610
 9668W        W78062  39.475  14.306   2.657
 9669W        W78063  12.325  38.079  11.923
 9670W        W78064  27.064  39.893   4.524
 9671W        W78065   3.156  33.508   4.587
 9672W        W78066  35.326  10.301  13.303
 9673W        W78067  26.976  34.022  12.438
 9674W        W78068  38.333  42.086  13.060
 9675W        W78069  31.052  17.242  10.364
 9676W        W78070  10.707  23.507  13.242
 9677W        W78071   0.082  16.452   0.922
 9678W        W78072   5.481  17.185   4.908
 9679W        W78073  31.512  31.034  12.235
 9680W        W78074  21.893  42.067   4.785
 9681W        W78075  39.907   9.157  13.801
 9682W        W78076  14.141  40.535   3.727
 9683W        W78077  41.381  41.022  12.811
 9684W        W78078  17.983  39.531   0.708
 9685W        W78079  11.072  26.728  12.321
 9686W        W78080   3.198  29.027  10.725
 9687W        W78081  16.533   6.502   2.060
 9688W        W78082   0.940  14.210  11.242
 9689W        W78083  21.776  42.502  14.007
 9690W        W78084  14.367  34.653  11.529
 9691W        W78085  44.530  33.067   4.110
 9692W        W78086  18.227  19.761  13.274
 9693W        W78087  21.865  31.785   3.107
 9694W        W78088  11.539  24.726  10.743
 9695W        W78089  16.322  29.150  11.042
 9696W        W78090  37.595   3.870   2.783
 9697W        W78091  17.615  20.323  11.960
 9698W        W78092   5.974  28.634   1.857
 9699W        W78093  42.922  23.147  10.588
 9700W        W78094  15.288  32.400  12.663
 9701W        W78095  31.894  28.400   0.253
 9702W        W78096  38.695  16.704   1.314
 9703W        W78097  13.615  23.242  12.138
 9704W        W78098   2.305  37.544  14.955
 9705W        W78099  23.248  27.508  14.259
 9706W        W78100   3.246  29.613  11.997
 9707W        W78101  27.933  32.395  13.655
 9708W        W78102   1.430  28.885  13.102
 9709W        W78103  28.396  35.183   0.159
 9710W        W78104  22.759  35.254  11.965
 9711W        W78105  22.311  34.608  13.888
 9712W        W78106   5.505   7.869  10.814
 9713W        W78107  36.358  32.158  11.066
 9714W        W78108  32.055  26.789  12.931
 9715W        W78109   6.000  20.098  14.184
 9716W        W78110   5.511  24.401   2.201
 9717W        W78111   6.362  28.044  14.599
 9718W        W78112  27.619  22.899  11.294
 9719W        W78113  37.078  21.591   2.855
 9720W        W78114  36.842   5.645  14.357
 9721W        W78115  21.448  21.060   1.840
 9722W        W78116  15.129   2.787  14.920
 9723W        W78117  23.294  21.596   2.674
 9724W        W78118   6.342   6.420  11.442
 9725W        W78119  20.019  13.352   4.255
 9726W        W78120  24.510  12.669  13.885
 9727W        W78121   8.858   2.499   3.415
 9728W        W78122  13.709  36.359  11.470
 9729W        W78123  19.049  29.631   3.216
 9730W        W78124   7.162   8.562   2.394
 9731W        W78125  21.133  21.656   4.450
 9732W        W78126  33.887   4.989  12.908
 9733W        W78127  44.748  35.942  14.170
 9734W        W78128  21.276  40.453   3.277
 9735W        W78129  21.223  40.811   0.818
 9736W        W78130  35.420  31.191   4.412
 9737W        W78131  41.347  36.452   4.540
 9738W        W78132  29.869  44.687   1.298
 9739W        W78133   6.638   4.029   2.431
 9740W        W78134  40.548   7.621  12.062
 9741W        W78135  42.046   3.953   2.767
 9742W        W78136  34.391   5.127   0.735
 9743W        W78137  17.712  35.440   0.486
 9744W        W78138  17.384  24.189  14.807
 9745W        W78139  22.251   9.271  14.443
 9746W        W78140  42.940  16.239   4.136
 9747W        W78141  27.026   4.982   4.594
 9748W        W78142  22.394  25.476  11.506
 9749W        W78143  37.323  15.298  14.811
 9750W        W78144  30.680   9.899   2.820
 9751W        W78145   1.028  13.675   1.101
 9752W        W78146  32.602  15.572   3.003
 9753W        W78147  23.025  26.069   1.860
 9754W        W78148  23.052   0.280   4.409
 9755W        W78149   6.728  18.518   2.877
 9756W        W78150  18.595  20.980   3.697
 9757W        W78151  26.960  37.952  14.739
 9758W        W78152  44.865  10.664   1.123
 9759W        W78153  44.449  36.752  12.728
 9760W        W78154  21.028  33.497  11.905
 9761W        W78155  34.566  15.913   1.645
 9762W        W78156   4.037  38.010   2.408
 9763W        W78157  16.088  14.193   4.173
 9764W        W78158   6.616  31.139   2.803
 9765W        W78159  17.636   7.982   2.750
 9766W        W78160  37.243  36.753  12.149
 9767W        W78161  39.059  15.196   1.079
 9768W        W78162  10.124  18.637   1.799
 9769W        W78163  41.839   1.861   4.506
 9770W        W78164  11.778  22.884   2.358
 9771W        W78165  14.679  39.059  14.459
 9772W        W78166  19.790  13.096  11.149
 9773W        W78167   4.182  22.535   1.265
 9774W        W78168  43.459  36.961   2.281
 9775W        W78169  19.448  40.507   3.111
 9776W        W78170  23.222  30.517  14.192
 9777W        W78171  23.496  43.309  13.044
 9778W        W78172  32.196  28.739   3.751
 9779W        W78173   5.553  10.236  10.432
 9780W        W78174   5.377  40.938   4.605
 9781W        W78175  29.182  22.089   2.575
 9782W        W78176  17.716  30.245   2.232
 9783W        W78177  40.422   8.252  13.851
 9784W        W78178  22.083  36.891   2.222
 9785W        W78179  12.653  44.688  11.968
 9786W        W78180  36.571  32.047   4.571
 9787W        W78181  38.299  16.358  14.073
 9788W        W78182  42.295  27.405  13.709
 9789W        W78183  36.870   9.633  11.193
 9790W        W78184  44.320  38.999   0.785
 9791W        W78185   2.120   8.393   2.432
 9792W        W78186  33.625  11.330   4.640
 9793W        W78187   7.038   7.644  14.432
 9794W        W78188  44.991  39.416  12.471
 9795W        W78189  32.328  42.233  13.367
 9796W        W78190  37.611  39.361  11.993
 9797W        W78191  37.317  23.228  11.288
 9798W        W78192  32.652   5.286   0.736
 9799W        W78193  34.775  37.946  12.109
 9800W        W78194  36.479  40.812   4.610
 9801W        W78195   5.973   9.868  13.544
 9802W        W78196   8.266  12.688   1.698
 9803W        W78197   9.343  33.159  10.670
 9804W        W78198   6.757   4.142   0.422
 9805W        W78199  11.151   6.254  11.472
 9806W        W78200  15.282  11.258  13.854
 9807W        W78201  36.557  44.789  14.764
 9808W        W78202  28.556  10.726  11.163
 9809W        W78203  10.586  32.675  11.624
 9810W        W78204  42.350  16.873  14.520
 9811W        W78205  27.776  34.481  10.666
 9812W        W78206   4.484   7.467  11.548
 9813W        W78207  15.228  16.133   3.140
 9814W        W78208  29.156  30.394  14.356
 9815W        W78209  17.668  15.080   2.184
 9816W        W78210  27.079  31.665  10.861
 9817W        W78211  43.017  11.824  13.833
 9818W        W78212  21.189  33.428   2.742
 9819W        W78213  36.962  23.242  11.654
 9820W        W78214  21.822   6.366  14.969
 9821W        W78215  15.181  20.597   0.597
 9822W        W78216  38.938  29.083  13.402
 9823W        W78217   3.849   6.760   2.201
 9824W        W78218  43.174  39.575   2.456
 9825W        W78219  38.828  34.377  14.365
 9826W        W78220  30.269  29.539  14.034
 9827W        W78221  44.278  40.838  13.361
 9828W        W78222  44.268  42.552  11.101
 9829W        W78223  25.694  40.913   1.190
 9830W        W78224  19.128  19.154   1.224
 9831W        W78225  17.587  27.196  11.838
 9832W        W78226   2.884  30.482  12.637
 9833W        W78227  36.211  33.420  14.062
 9834W        W78228  44.807  17.117   0.536
 9835W        W78229   4.761   1.962   4.113
 9836W        W78230  42.466  31.573   3.298
 9837W        W78231  38.657  33.050  14.098
 9838W        W78232  19.575  29.341   4.501
 9839W        W78233  41.467   2.477  11.977
 9840W        W78234  32.074  33.183  11.064
 9841W        W78235  14.320  30.402  13.955
 9842W        W78236  33.852   3.202  13.814
 9843W        W78237  30.150  21.068   0.543
 9844W        W78238  13.164  36.108   3.376
 9845W        W78239  16.241  36.645  13.608
 9846W        W78240  18.017  17.884  14.889
 9847W        W78241   3.843  37.417  13.813
 9848W        W78242  35.839   5.270  12.181
 9849W        W78243   8.408  37.511  11.613
 9850W        W78244  15.604  13.861   4.118
 9851W        W78245  33.574  32.453   0.826
 9852W        W78246  20.467  29.193  14.772
 9853W        W78247  24.185  12.580  13.477
 9854W        W78248   3.117  12.594   2.230
 9855W        W78249   6.000  28.206   5.066
 9856W        W78250  16.070  21.285   0.344
 9857W        W78251   2.181   7.365   1.301
 9858W        W78252  30.627  14.537   4.595
 9859W        W78253  24.686   4.493  13.918
 9860W        W78254   8.599   6.395   4.937
 9861W        W78255  44.803  10.275  12.037
 9862W        W78256  13.169   5.770  10.531
 9863W        W78257  25.703  41.468  14.902
 9864W        W78258  32.506  35.973   0.115
 9865W        W78259   5.559  11.741  14.653
 9866W        W78260  43.834  29.235  13.113
 9867W        W78261   8.441  23.068   0.325
 9868W        W78262  36.971   8.797  11.933
 9869W        W78263  36.544  13.844  11.600
 9870W        W78264  15.412  43.312  14.249
 9871W        W78265  31.355  40.836   1.266
 9872W        W78266  18.638   3.167  13.365
 9873W        W78267  25.022  39.379   4.109
 9874W        W78268  28.790   0.803   0.244
 9875W        W78269  40.081  21.824  13.418
 9876W        W78270  18.295  44.383  13.888
 9877W        W78271  14.397  23.126  14.366
 9878W        W78272  19.979  25.560   0.580
 9879W        W78273  35.429  20.844   3.297
 9880W        W78274  40.911  16.035   4.647
 9881W        W78275  38.830  38.752  13.417
 9882W        W78276   8.219  30.356   4.090
 9883W        W78277   8.964  37.533   2.778
 9884W        W78278  20.269  17.623   4.100
 9885W        W78279  14.844   8.221   3.190
 9886W        W78280   3.843   5.888   0.517
 9887W        W78281  25.969   5.301  12.177
 9888W        W78282  25.723   9.433  12.590
 9889W        W78283  31.224  27.239  12.173
 9890W        W78284  30.664   4.814  13.676
 9891W        W78285  25.689  21.639   3.447
 9892W        W78286   9.643  10.669   2.810
 9893W        W78287   0.820  29.584  11.779
 9894W        W78288  11.335  36.051   4.968
 9895W        W78289  44.849  39.914  14.394
 9896W        W78290  43.455   2.449   0.917
 9897W        W78291  10.868  18.225  13.433
 9898W        W78292   2.818  43.478  10.927
 9899W        W78293  34.886  35.822  13.839
 9900W        W78294  34.106   3.503  12.783
 9901W        W78295  40.602  41.806  11.354
 9902W        W78296  29.167   1.365   4.542
 9903W        W78297  36.621  10.956  11.188
 9904W        W78298  37.557  10.108  13.281
 9905W        W78299   1.872  41.285  11.607
 9906W        W78300  37.676   7.754   2.264
 9907W        W78301   2.030  19.986   4.124
 9908W        W78302  41.294  30.045   2.100
 9909W        W78303  36.972  28.518   2.740
 9910W        W78304  36.384  40.163  12.032
 9911W        W78305  15.401  36.468  12.795
 9912W        W78306  40.640  28.633   3.123
 9913W        W78307  36.099  30.497   1.685
 9914W        W78308  37.323   0.395  11.658
 9915W        W78309  32.400  44.147  11.898
 9916W        W78310  27.974  29.285  14.435
 9917W        W78311  26.095  26.938   0.295
 9918W        W78312   3.288  29.698  13.303
 9919W        W78313  10.745  29.876  14.875
 9920W        W78314  14.772  33.139  12.470
 9921W        W78315   5.162  39.562  10.990
 9922W        W78316   2.783  44.222  12.890
 9923W        W78317  38.530  33.600  10.677
 9924W        W78318   6.449   6.700  10.108
 9925W        W78319  35.963   1.753   3.524
 9926W        W78320  18.150  34.197   0.705
 9927W        W78321  31.164  17.791   2.618
 9928W        W78322   2.241  11.664   0.952
 9929W        W78323  30.443   0.291   1.779
 9930W        W78324   9.453  10.178  11.086
 9931W        W78325  25.561  27.024  14.301
 9932W        W78326   9.795  43.423   3.393
 9933W        W78327  20.133   4.509   4.918
 9934W        W78328  38.339  13.314   2.615
 9935W        W78329  29.293  29.008   4.059
 9936W        W78330  26.564  26.479  14.224
 9937W        W78331  29.780  39.002  13.467
 9938W        W78332  25.701  19.171  10.620
 9939W        W78333  20.290  28.561  13.520
 9940W        W78334  23.787   9.693   5.393
 9941W        W78335  36.148   7.324   1.431
 9942W        W78336  40.396  14.199   4.030
 9943W        W78337  43.549  37.779  12.001
 9944W        W78338  18.042   2.834   2.318
 9945W        W78339  41.329  40.511   3.241
 9946W        W78340  42.816   6.252   0.529
 9947W        W78341  28.521  37.287   1.324
 9948W        W78342  38.343   2.758  12.472
 9949W        W78343   1.679  34.908  12.767
 9950W        W78344   7.032  11.905   0.524
 9951W        W78345  34.978  13.248  13.193
 9952W        W78346  42.320   5.423   3.557
 9953W        W78347  11.609  27.951  13.931
 9954W        W78348   2.305  33.510   4.401
 9955W        W78349  38.762   1.999  13.834
 9956W        W78350  16.753  19.889   5.039
 9957W        W78351   1.079  32.063   2.278
 9958W        W78352  34.796  28.483   4.072
 9959W        W78353  14.135  43.877  10.651
 9960W        W78354  13.394  31.023   4.613
 9961W        W78355   6.880  25.156  12.523
 9962W        W78356   9.226  23.579  14.442
 9963W        W78357   7.674   6.823   5.631
 9964W        W78358  12.319  35.184  12.024
 9965W        W78359  29.448  10.844   1.805
 9966W        W78360  44.925  32.479  13.829
 9967W        W78361   3.993  20.693   3.377
 9968W        W78362  28.107  23.009   1.817
 9969W        W78363  18.727  21.212   0.079
 9970W        W78364  39.091   9.986   0.849
 9971W        W78365  31.080  17.456   1.237
 9972W        W78366  37.803   9.562   4.212
 9973W        W78367  37.381  35.471   1.551
 9974W        W78368  42.974   1.584  11.659
 9975W        W78369  40.509  38.452  12.948
 9976W        W78370  31.159   3.182   2.503
 9977W        W78371  26.944  33.404  11.679
 9978W        W78372  40.691  38.317  10.370
 9979W        W78373  44.977  15.817  11.602
 9980W        W78374  44.016  40.116  13.092
 9981W        W78375   8.224   6.160  12.878
 9982W        W78376   9.849  33.042  12.562
 9983W        W78377  10.410   9.687   0.544
 9984W        W78378  43.889  30.986   1.601
 9985W        W78379   2.256  22.195   0.684
 9986W        W78380  22.182  10.214  10.253
 9987W        W78381   6.270  36.831  11.444
 9988W        W78382  23.085  24.500   1.551
 9989W        W78383   1.580  26.980  14.815
 9990W        W78384  27.841   5.575   0.765
 9991W        W78385   0.931  21.493  14.711
 9992W        W78386  38.027  33.295  11.256
 9993W        W78387  40.669  37.744   4.900
 9994W        W78388  30.059  32.009  10.962
 9995W        W78389  17.568  21.714   2.225
 9996W        W78390  42.780   0.861  11.057
 9997W        W78391  10.347  13.868  13.044
 9998W        W78392   0.058  32.301   3.767
 9999W        W78393  16.380  28.018   1.556
10000W        W78394   7.174  11.740  10.548
10001W        W78395  14.169  10.629   2.420
10002W        W78396   1.008  41.859   2.212
10003W        W78397  19.725  12.616   3.303
10004W        W78398  40.338  33.406   0.040
10005W        W78399  13.154  32.565  10.799
10006W        W78400  20.696  12.222   2.400
10007W        W78401  26.171  13.659   4.452
10008W        W78402  27.532  38.219  11.241
10009W        W78403  29.385   8.115   0.538
10010W        W78404  42.066  27.373   3.342
10011W        W78405  39.400  24.524  13.047
10012W        W78406  25.126  43.403   2.244
10013W        W78407  42.012  21.695  11.264
10014W        W78408  10.723  31.280   4.482
10015W        W78409  21.116  30.042   3.150
10016W        W78410   4.341  17.089  11.804
10017W        W78411  21.133  10.393  11.913
10018W        W78412  12.345  43.007   2.939
10019W        W78413   7.349  39.270   1.388
10020W        W78414  15.185  35.139  11.841
10021W        W78415  25.170  36.278  13.066
10022W        W78416  21.720  44.511   0.659
10023W        W78417  23.043  11.199  11.537
10024W        W78418   8.817  38.842  13.093
10025W        W78419  23.301  18.065   1.226
10026W        W78420  29.515  40.554  12.036
10027W        W78421   6.996  21.006   2.084
10028W        W78422  33.084  38.678  10.403
10029W        W78423  31.338   3.859  13.116
10030W        W78424  25.976  15.252   2.419
10031W        W78425  19.104  28.445  11.153
10032W        W78426  23.117  29.926   0.891
10033W        W78427  27.968  38.856   0.362
10034W        W78428   1.224  12.622  14.652
10035W        W78429  21.045  17.201   0.059
10036W        W78430  42.150  18.747  13.408
10037W        W78431  11.775  19.591   1.875
10038W        W78432  39.627  27.054  14.329
10039W        W78433  26.910  39.593  12.856
10040W        W78434   4.978   8.930  12.046
10041W        W78435  25.205  10.643   2.320
10042W        W78436  40.906  11.068  12.781
10043W        W78437  40.695  39.897  10.988
10044W        W78438  22.610   0.037   2.833
10045W        W78439  24.508  29.211  14.328
10046W        W78440   5.686  23.596  12.041
10047W        W78441  43.617  22.518  11.819
10048W        W78442  36.894  22.937  11.122
10049W        W78443  24.912  40.511   1.892
10050W        W78444  26.257   0.812  10.709
10051W        W78445  42.491  22.282  13.966
10052W        W78446  38.058  17.299   4.954
10053W        W78447   0.290   6.702  14.333
10054W        W78448  40.914  20.719   4.409
10055W        W78449  21.806  42.755  13.522
10056W        W78450  42.400  19.175  13.614
10057W        W78451  33.584  44.520  12.922
10058W        W78452  37.012  23.283   4.390
10059W        W78453  26.283  24.667   3.790
10060W        W78454  18.088   5.794   4.595
10061W        W78455  43.983  15.641   3.209
10062W        W78456  17.872   9.411   0.736
10063W        W78457  11.636   8.909   0.493
10064W        W78458  23.026  44.566   2.213
10065W        W78459  24.945  19.171  13.345
10066W        W78460  40.005  20.003  11.627
10067W        W78461  34.954  19.283   2.384
10068W        W78462  14.902   2.932  11.540
10069W        W78463  37.087  23.230  12.167
10070W        W78464  36.522  36.667   1.721
10071W        W78465  37.126  35.447  14.251
10072W        W78466   3.862  13.683  11.371
10073W        W78467  23.104  25.946  12.035
10074W        W78468  11.502  44.483   5.085
10075W        W78469  38.019  17.620   3.645
10076W        W78470  11.138  15.793  14.078
10077W        W78471  15.272  10.152  13.099
10078W        W78472  21.512  38.424  13.224
10079W        W78473  29.144  44.717  12.533
10080W        W78474  13.663   8.160   2.615
10081W        W78475  22.676  43.999  14.423
10082W        W78476   2.040   0.095   2.422
10083W        W78477  33.847  44.332   3.162
10084W        W78478   3.883  32.658  13.939
10085W        W78479  29.884  31.401   3.806
10086W        W78480   3.228  32.821  14.821
10087W        W78481  34.740  39.503  11.786
10088W        W78482  15.082  21.714   2.570
10089W        W78483   2.340  28.714  12.220
10090W        W78484  36.463   4.195  12.167
10091W        W78485  40.550   2.400  12.983
10092W        W78486  16.615  43.391   0.613
10093W        W78487  11.651  39.958   0.110
10094W        W78488   3.174   5.320   2.157
10095W        W78489   5.722  33.559  12.420
10096W        W78490  14.564  16.514  10.906
10097W        W78491  35.115  27.667  11.525
10098W        W78492  11.108  37.505   0.957
10099W        W78493   1.255  26.258   4.572
10100W        W78494  38.929  18.584  10.569
10101W        W78495  28.606  18.000   0.932
10102W        W78496  33.144   0.028   0.447
10103W        W78497  19.140   1.822   1.379
10104W        W78498  35.926   1.959  13.606
10105W        W78499   9.697   6.662  13.584
10106W        W78500  22.535  20.060   0.928
10107W        W78501  42.894  24.504   3.611
10108W        W78502  42.336  13.095  14.013
10109W        W78503   8.068   7.345  12.447
10110W        W78504  28.542  18.040   4.167
10111W        W78505  27.338   0.381   0.467
10112W        W78506   2.874   7.003   0.301
10113W        W78507  11.403  20.588   2.814
10114W        W78508   1.666  35.298   0.058
10115W        W78509  28.108  28.904   4.314
10116W        W78510  28.117  17.642  14.461
10117W        W78511  10.803  32.676  14.389
10118W        W78512   3.278  11.597   1.704
10119W        W78513  40.106  27.070  12.590
10120W        W78514  14.400  34.747   1.673
10121W        W78515  19.608  34.605   4.621
10122W        W78516  42.232   4.290   0.950
10123W        W78517  10.716   1.946   3.625
10124W        W78518  30.682  29.112   0.656
10125W        W78519  40.432  23.282   2.339
10126W        W78520  12.712   8.697   1.919
10127W        W78521  32.730   0.528  14.585
10128W        W78522  31.542  14.763   0.811
10129W        W78523  18.695  38.095   2.274
10130W        W78524   6.225  41.511   2.630
10131W        W78525  31.460  19.288  14.363
10132W        W78526  40.284  44.711  14.844
10133W        W78527  28.474  43.668  13.982
10134W        W78528   5.685  37.867  13.499
10135W        W78529  37.349   3.956   2.299
10136W        W78530  32.482  41.958  10.788
10137W        W78531   1.709  10.186  13.040
10138W        W78532  32.842   4.221  11.250
10139W        W78533  42.898  35.326  10.719
10140W        W78534  35.450   1.800   4.123
10141W        W78535  26.120  40.604  11.297
10142W        W78536   0.918  23.742  12.119
10143W        W78537  13.534  30.171  13.402
10144W        W78538  30.111  30.072   0.103
10145W        W78539  24.056  42.523  10.250
10146W        W78540   1.391  11.908   0.801
10147W        W78541  24.521   0.317  10.529
10148W        W78542  35.046  19.949  14.825
10149W        W78543  41.871  26.299   5.001
10150W        W78544  36.931  18.815   3.208
10151W        W78545  13.005   7.459   4.081
10152W        W78546  32.912  26.497   2.667
10153W        W78547  33.487  23.883  12.466
10154W        W78548   9.807  28.142   1.234
10155W        W78549   3.902  31.170   2.930
10156W        W78550  36.995   4.432   3.817
10157W        W78551  27.966  21.322   3.821
10158W        W78552  28.710  44.780   3.320
10159W        W78553   8.493   1.650  13.388
10160W        W78554  30.606  37.215  11.350
10161W        W78555  43.806  26.698   2.236
10162W        W78556   4.168  27.653  13.005
10163W        W78557  26.636  26.890  14.527
10164W        W78558  12.358  27.121  12.622
10165W        W78559  41.539   3.430  10.429
10166W        W78560  25.173  44.436   2.100
10167W        W78561  16.085  30.230  12.972
10168W        W78562   6.624   9.420  14.906
10169W        W78563  25.761  26.072  12.007
10170W        W78564   8.995  12.877   0.901
10171W        W78565  37.498  12.285   4.126
10172W        W78566   3.493   4.259  12.178
10173W        W78567   4.793  25.044   2.163
10174W        W78568  25.666  35.315  14.050
10175W        W78569  22.240  34.516   1.341
10176W        W78570  38.610  43.049  13.965
10177W        W78571  35.917   1.330   0.310
10178W        W78572  41.320  27.491  11.446
10179W        W78573  15.802  16.798   2.704
10180W        W78574  10.258  34.067   2.831
10181W        W78575  40.931  24.800  14.685
10182W        W78576  15.217  41.581  11.046
10183W        W78577  44.406  34.030   2.665
10184W        W78578  16.788   8.474   0.352
10185W        W78579  36.475  31.990   1.294
10186W        W78580  43.351  10.778  11.001
10187W        W78581  20.708  30.592  10.543
10188W        W78582  23.478   8.874   4.510
10189W        W78583  28.910  22.427  12.792
10190W        W78584   1.657  25.574   0.950
10191W        W78585  33.452  11.616  10.622
10192W        W78586  36.994  14.796  13.444
10193W        W78587  40.912  23.542  12.404
10194W        W78588   9.510  35.545   1.357
10195W        W78589  31.443  29.139  14.273
10196W        W78590  16.530  14.493  12.838
10197W        W78591  41.523  22.785  11.110
10198W        W78592  37.620   9.911  11.053
10199W        W78593   5.165  28.160   3.106
10200W        W78594  23.730  44.815   1.793
10201W        W78595  28.143  14.091  12.347
10202W        W78596  29.639  35.066  14.046
10203W        W78597  32.208  28.633  12.997
10204W        W78598  26.417   0.383   1.405
10205W        W78599  43.436  39.860   3.224
10206W        W78600  21.585  28.850  11.115
10207W        W78601  13.644  34.802   0.056
10208W        W78602   4.542  15.231  14.725
10209W        W78603  23.071   8.765   2.785
10210W        W78604  10.653  11.078   0.527
10211W        W78605   4.265  18.047  12.988
10212W        W78606  15.166  26.702   1.671
10213W        W78607  41.987  41.427   3.676
10214W        W78608  15.618   2.463  11.081
10215W        W78609   9.445  41.445   4.522
10216W        W78610   2.760   6.545  14.087
10217W        W78611  16.432  15.485   0.386
10218W        W78612  28.648   3.449   0.544
10219W        W78613  14.079   6.232   0.572
10220W        W78614  43.832  18.692  13.056
10221W        W78615  38.021  15.162  13.544
10222W        W78616  36.072  25.495  14.536
10223W        W78617  13.555  20.289  14.339
10224W        W78618  39.040  16.055  11.289
10225W        W78619  26.750  31.033   2.350
10226W        W78620   3.234  41.531  11.611
10227W        W78621  40.330  30.282  10.956
10228W        W78622  29.843   3.761   4.258
10229W        W78623   4.680  24.591   0.928
10230W        W78624  17.262  10.832   2.191
10231W        W78625  40.758   2.211  12.541
10232W        W78626  13.332  19.263   1.330
10233W        W78627  16.526  25.034   4.198
10234W        W78628   6.766  19.218   0.394
10235W        W78629  18.308   2.376   2.243
10236W        W78630  37.956  44.822   2.783
10237W        W78631  33.169  22.146   2.220
10238W        W78632   6.238   4.732   1.101
10239W        W78633  19.761  20.994   5.029
10240W        W78634  21.177   5.923  12.381
10241W        W78635  25.665   4.987   0.955
10242W        W78636  24.649  42.987  14.404
10243W        W78637  44.732  32.519   4.135
10244W        W78638  31.567  44.381  12.888
10245W        W78639  33.828   6.140   3.688
10246W        W78640   0.822  17.115   3.724
10247W        W78641   9.290  43.953  12.519
10248W        W78642  44.791  38.468   3.640
10249W        W78643  43.992   2.157   2.191
10250W        W78644  30.510  43.209  14.845
10251W        W78645  36.746   2.489  14.947
10252W        W78646  37.916  35.022   4.522
10253W        W78647  39.977  40.363  10.705
10254W        W78648  22.272  42.524   4.011
10255W        W78649  40.002  25.512   3.656
10256W        W78650  17.195  15.839  13.238
10257W        W78651  23.960  14.826  14.081
10258W        W78652   0.955  43.235   3.399
10259W        W78653   2.837  23.329  14.462
10260W        W78654  25.757  19.818  10.515
10261W        W78655  38.441   2.969   2.929
10262W        W78656   4.457   1.392   3.623
10263W        W78657  42.692  42.270  13.909
10264W        W78658   4.340  41.473   2.886
10265W        W78659  18.141  35.959  12.288
10266W        W78660  36.578  27.194   1.696
10267W        W78661  20.110   8.195   4.545
10268W        W78662  19.161  21.009  12.931
10269W        W78663  30.468  10.266   2.534
10270W        W78664  41.348  37.758   0.315
10271W        W78665  26.652  20.933   3.075
10272W        W78666  22.708   8.680  11.938
10273W        W78667  36.552  15.048  13.216
10274W        W78668  20.257   1.476   0.715
10275W        W78669   5.787  23.114  12.284
10276W        W78670  20.978  18.631   2.333
10277W        W78671   3.686   8.086  13.950
10278W        W78672  10.159  16.460  10.554
10279W        W78673  27.839  16.753   2.692
10280W        W78674  11.982  25.353  11.184
10281W        W78675  34.111  17.561   1.212
10282W        W78676  11.697  24.192   0.521
10283W        W78677   5.015  28.251  12.994
10284W        W78678  12.116  32.399  13.973
10285W        W78679  29.955  17.162   1.403
10286W        W78680  13.097  42.054   0.985
10287W        W78681  19.050  43.337   4.641
10288W        W78682  37.134  41.273   9.822
10289W        W78683  14.128  21.057   0.364
10290W        W78684  16.245  14.092   0.175
10291W        W78685  36.551  28.945   0.277
10292W        W78686  34.399   8.226   1.267
10293W        W78687  31.121  41.994   0.092
10294W        W78688  18.112   0.920   3.544
10295W        W78689  26.484  39.842   0.840
10296W        W78690  29.450  35.965   3.112
10297W        W78691  14.812   3.301   3.750
10298W        W78692   9.655  14.630  14.058
10299W        W78693  30.640  10.327  14.130
10300W        W78694   1.801   9.097   0.925
10301W        W78695  13.868  33.678   2.202
10302W        W78696  18.310   6.160  12.171
10303W        W78697  32.571  35.469  13.877
10304W        W78698  11.788   6.666  12.047
10305W        W78699   2.471  34.976   1.480
10306W        W78700  21.178  26.789   2.717
10307W        W78701  44.926  17.842  13.508
10308W        W78702  29.139  25.490   3.695
10309W        W78703  16.286  26.377  14.931
10310W        W78704  25.919  15.119  11.508
10311W        W78705  38.664  38.782   2.303
10312W        W78706  39.382  22.248   4.543
10313W        W78707  43.899  18.738   2.174
10314W        W78708  15.538  37.387  12.836
10315W        W78709   2.903  14.633   2.287
10316W        W78710   1.243  21.557  10.802
10317W        W78711  13.693   3.803  14.375
10318W        W78712   6.980  40.303   4.224
10319W        W78713   8.390  16.311   0.293
10320W        W78714  37.658   8.727   1.972
10321W        W78715   8.170  40.906   1.193
10322W        W78716  15.358  44.445   2.441
10323W        W78717  16.722   6.716  14.623
10324W        W78718  39.130  36.145  14.654
10325W        W78719  38.386   9.755  10.743
10326W        W78720  43.586  39.712   0.457
10327W        W78721  37.961  25.282   4.562
10328W        W78722   7.929  22.762  10.340
10329W        W78723  11.938  35.913   2.256
10330W        W78724  31.655  20.257   2.845
10331W        W78725   1.436  33.136   4.063
10332W        W78726  10.464  33.181  10.183
10333W        W78727  44.933  41.430   0.735
10334W        W78728   9.240  38.235   4.829
10335W        W78729  36.912  12.054  13.887
10336W        W78730  11.774  31.744  14.456
10337W        W78731   5.749  31.724   3.607
10338W        W78732  25.704  10.864   4.171
10339W        W78733  18.445  29.356   1.350
10340W        W78734   7.784  21.211  14.516
10341W        W78735  33.968   0.691  12.554
10342W        W78736  18.073  24.391  10.842
10343W        W78737  32.162  42.792   4.228
10344W        W78738  29.079  15.580  14.316
10345W        W78739  38.050   2.455  14.581
10346W        W78740  16.733  16.086   4.254
10347W        W78741  26.514   0.772  14.072
10348W        W78742   5.838  10.644   1.248
10349W        W78743  13.308  24.404  13.850
10350W        W78744  23.011   1.986   0.361
10351W        W78745  18.274  37.200  13.981
10352W        W78746   7.141  37.990   1.145
10353W        W78747  13.276  41.844  13.951
10354W        W78748  21.732  27.440   5.437
10355W        W78749   0.242  29.384  12.991
10356W        W78750  14.672  22.969  11.569
10357W        W78751   8.171  11.698  13.372
10358W        W78752   6.752  36.588   4.669
10359W        W78753  17.791  29.987   1.761
10360W        W78754   2.426  26.448  14.182
10361W        W78755  43.502   8.129  10.645
10362W        W78756  43.387   8.221   2.391
10363W        W78757  33.429  13.095   4.367
10364W        W78758  35.988  12.769  10.821
10365W        W78759  23.532   2.394  12.059
10366W        W78760  15.650   7.270   2.437
10367W        W78761   3.508  36.985  14.453
10368W        W78762   7.718  44.036   1.342
10369W        W78763   7.678  24.594  13.145
10370W        W78764   7.728   9.880   0.160
10371W        W78765  36.558  20.097   1.290
10372W        W78766  14.828  33.282   0.766
10373W        W78767  23.806   9.313  13.553
10374W        W78768  25.647   4.839   1.856
10375W        W78769  14.769  18.219   4.279
10376W        W78770  27.124  26.070   1.200
10377W        W78771   0.412   3.358   2.819
10378W        W78772  43.300  22.729   0.819
10379W        W78773  26.081  28.407   3.244
10380W        W78774   0.186  17.159   1.933
10381W        W78775  13.197  22.999   0.810
10382W        W78776  14.543  28.487  13.926
10383W        W78777  22.076   1.112  12.309
10384W        W78778  25.597  39.625   3.723
10385W        W78779   9.504  27.303   2.239
10386W        W78780  29.573   6.076   3.234
10387W        W78781  41.339  41.772   2.726
10388W        W78782  32.420  21.516   4.240
10389W        W78783  43.960  40.530   2.575
10390W        W78784  18.344  11.366  10.614
10391W        W78785  11.620  25.624   3.383
10392W        W78786  41.386  31.396  12.412
10393W        W78787   8.441   2.166  13.503
10394W        W78788  32.155  30.425  10.581
10395W        W78789  12.856  37.604  13.373
10396W        W78790  26.646  35.064  13.925
10397W        W78791  22.599  37.386  14.057
10398W        W78792  42.781   7.611   3.177
10399W        W78793  20.526  31.915  14.293
10400W        W78794  19.808  41.795  14.615
10401W        W78795  43.034   1.293  14.701
10402W        W78796   7.420  26.607   4.121
10403W        W78797  42.903  44.859   2.895
10404W        W78798  26.499  23.561  13.925
10405W        W78799  30.037  32.888   2.337
10406W        W78800   4.655  30.359   3.347
10407W        W78801  12.451  14.570   4.269
10408W        W78802   5.285  17.072   1.148
10409W        W78803  25.306  41.098   2.701
10410W        W78804   6.951  29.243  13.978
10411W        W78805  16.262   7.244   3.260
10412W        W78806  12.098  43.507  12.428
10413W        W78807   2.430  15.654  12.611
10414W        W78808  43.234   9.657   0.253
10415W        W78809  19.129   1.930  12.528
10416W        W78810  42.832  36.836   1.361
10417W        W78811  13.191  33.251  14.571
10418W        W78812  18.229  24.428   0.293
10419W        W78813  10.054  44.765  13.122
10420W        W78814  13.207  14.909  11.836
10421W        W78815  20.348  18.075   3.244
10422W        W78816  29.036  34.618  11.934
10423W        W78817  34.465  28.144  14.924
10424W        W78818  31.999  18.203   4.399
10425W        W78819  40.072  14.392  11.510
10426W        W78820  28.693   8.241   4.125
10427W        W78821  19.952  29.087   3.184
10428W        W78822  30.513   1.560  12.545
10429W        W78823  32.045   8.949  13.870
10430W        W78824  14.728  23.151   2.730
10431W        W78825  22.661  40.141  13.504
10432W        W78826  19.383  31.104   1.770
10433W        W78827  12.556  13.713   3.297
10434W        W78828   5.415  26.610   0.263
10435W        W78829  10.190  41.059   1.342
10436W        W78830  14.075   5.456   1.081
10437W        W78831   4.363  38.509   0.367
10438W        W78832  23.826  19.574   0.860
10439W        W78833  16.768  41.437  13.338
10440W        W78834   3.011   1.494   1.157
10441W        W78835  20.681   5.264   1.851
10442W        W78836   5.342  21.536   4.193
10443W        W78837  32.675  43.812  11.632
10444W        W78838  43.029   9.215  11.389
10445W        W78839  20.460  24.677  10.489
10446W        W78840   4.292  26.994   3.266
10447W        W78841  23.300  22.861   0.769
10448W        W78842  16.887  18.281  14.102
10449W        W78843  19.739   5.307  12.581
10450W        W78844  25.649  29.957   4.204
10451W        W78845  10.234  28.618   4.869
10452W        W78846  24.331   9.673  10.646
10453W        W78847  15.653  34.571  14.896
10454W        W78848  42.448  35.067   2.046
10455W        W78849  25.122  26.589   3.852
10456W        W78850   5.738  19.824  10.655
10457W        W78851  32.795  28.038  14.266
10458W        W78852   1.215  10.844  13.973
10459W        W78853   2.760   0.804   0.414
10460W        W78854   4.239  29.126   0.819
10461W        W78855  26.713  30.622  14.000
10462W        W78856   6.424   8.962   3.442
10463W        W78857   8.797  12.928   1.391
10464W        W78858  13.804  40.104  11.628
10465W        W78859  17.834  39.132  13.414
10466W        W78860  34.928   2.922   1.220
10467W        W78861  19.336   2.378   1.199
10468W        W78862  10.406   6.542   4.043
10469W        W78863  32.086  24.536   2.250
10470W        W78864  25.253  31.477   0.902
10471W        W78865  37.930  42.469   4.868
10472W        W78866  43.993  31.136  12.946
10473W        W78867  28.392  40.572   2.380
10474W        W78868   8.471   3.367  11.026
10475W        W78869  19.138  32.461   2.270
10476W        W78870  16.734  25.064  14.804
10477W        W78871   0.284  12.551  14.493
10478W        W78872   3.897   0.401  13.828
10479W        W78873   7.865  42.366  11.052
10480W        W78874   3.303   2.216  14.240
10481W        W78875  17.533   5.055  10.321
10482W        W78876  14.905  18.441  13.614
10483W        W78877  15.546  36.962  11.067
10484W        W78878  10.147  19.793   2.630
10485W        W78879  23.785  40.961   0.935
10486W        W78880  33.991  25.049   0.212
10487W        W78881  13.037  36.343  12.974
10488W        W78882  28.774   6.736  11.501
10489W        W78883  23.977  39.612   0.363
10490W        W78884  25.639  34.954   2.618
10491W        W78885   7.855  40.479   4.457
10492W        W78886  32.777   2.591  11.052
10493W        W78887  25.872   5.098   1.423
10494W        W78888  11.563  22.282   4.657
10495W        W78889   0.230  16.135   4.492
10496W        W78890  21.812   0.362  12.949
10497W        W78891  32.039  42.455  14.259
10498W        W78892   1.790  12.665   2.435
10499W        W78893  34.718  23.240   1.823
10500W        W78894   2.424  42.438   3.341
10501W        W78895   9.368  21.582  11.496
10502W        W78896  30.748   0.760  12.088
10503W        W78897  14.265  10.703  13.411
10504W        W78898  23.954  17.349  11.240
10505W        W78899  27.292  14.045  11.713
10506W        W78900  36.335  29.667   2.608
10507W        W78901  35.676   6.732   3.723
10508W        W78902  18.690  32.991   2.892
10509W        W78903  24.258   3.852   4.638
10510W        W78904   3.407  40.965  10.756
10511W        W78905   5.248  27.160   3.243
10512W        W78906  39.481  37.977   3.352
10513W        W78907   8.721  12.562   3.257
10514W        W78908  11.909  15.797  11.136
10515W        W78909  27.137  29.312  13.010
10516W        W78910  13.737  20.731   0.820
10517W        W78911  32.968   2.748   3.483
10518W        W78912  40.430   4.194  13.469
10519W        W78913  36.058  26.869  12.695
10520W        W78914  19.096   0.848   4.466
10521W        W78915  12.154   2.600  12.543
10522W        W78916   4.913  17.270  11.160
10523W        W78917  20.675   9.389   4.804
10524W        W78918  12.310  10.884  13.797
10525W        W78919  28.619  27.630  14.039
10526W        W78920  19.215   6.250   0.103
10527W        W78921  22.450   2.471   4.109
10528W        W78922  44.757   7.659   1.398
10529W        W78923  39.023  28.871   5.129
10530W        W78924  15.794   4.713   0.892
10531W        W78925  16.695   3.160   4.992
10532W        W78926  10.836  41.846  13.230
10533W        W78927  36.001  32.022   4.668
10534W        W78928  29.235  42.856  11.639
10535W        W78929  21.539  39.736   1.016
10536W        W78930   8.186  17.497   2.920
10537W        W78931  20.231  12.887   4.145
10538W        W78932   3.468  22.958  12.368
10539W        W78933  14.063  42.346  10.689
10540W        W78934  39.732  12.846   2.770
10541W        W78935  24.244  19.106  14.426
10542W        W78936  38.377  24.083  14.320
10543W        W78937  32.407  16.189   3.325
10544W        W78938  44.693   3.324   2.711
10545W        W78939   3.823   6.760  10.743
10546W        W78940  44.734   3.818   2.589
10547W        W78941  29.234   3.660   3.668
10548W        W78942   1.582  15.275  12.799
10549W        W78943  23.460  38.325  11.589
10550W        W78944  20.923  29.359   2.160
10551W        W78945   8.147  32.296  13.505
10552W        W78946  11.911  27.611  11.075
10553W        W78947  42.367  34.053  11.678
10554W        W78948  42.870  34.384  11.068
10555W        W78949  23.432  40.255  12.061
10556W        W78950  21.226  31.256   3.080
10557W        W78951   3.477  27.540  11.250
10558W        W78952  27.154  10.203  11.018
10559W        W78953  36.659  41.512   4.545
10560W        W78954  29.897  12.169  12.015
10561W        W78955  25.737  38.294  10.709
10562W        W78956  16.269  24.962  11.605
10563W        W78957   0.332   0.860   0.061
10564W        W78958  31.883  31.637  14.102
10565W        W78959  44.796  25.492   4.714
10566W        W78960  44.982   4.393   0.477
10567W        W78961  33.530  15.748  10.998
10568W        W78962  43.119  38.412  14.019
10569W        W78963  22.450   7.248  10.417
10570W        W78964  36.451   0.832  13.703
10571W        W78965  43.959  12.616   0.295
10572W        W78966   4.677  32.975   2.344
10573W        W78967  21.305  19.401  10.201
10574W        W78968  42.869  37.149  12.099
10575W        W78969  29.462  27.921  14.333
10576W        W78970  38.600  11.796  12.512
10577W        W78971  23.219  19.521  14.941
10578W        W78972  15.349  10.341   1.260
10579W        W78973  40.572  40.599  13.398
10580W        W78974   7.803  10.112  13.918
10581W        W78975  22.103  25.205   3.644
10582W        W78976  39.939   7.603   1.413
10583W        W78977   3.859  30.605   3.773
10584W        W78978  10.027   0.842   2.027
10585W        W78979   9.116  20.066   4.018
10586W        W78980  31.874   7.393   1.277
10587W        W78981  11.437  31.982  11.851
10588W        W78982  14.058  10.803   1.312
10589W        W78983  24.645  24.480   4.113
10590W        W78984  28.920   2.192   0.829
10591W        W78985   2.781  32.556  12.131
10592W        W78986  43.146  31.163   2.874
10593W        W78987   5.076  37.513   4.698
10594W        W78988  42.265  18.413   0.302
10595W        W78989  32.097  16.563  10.718
10596W        W78990  26.074  40.471   2.133
10597W        W78991  41.115   7.717  13.907
10598W        W78992  35.942  36.802   3.714
10599W        W78993  17.105  11.714   1.176
10600W        W78994  44.746  44.022  10.964
10601W        W78995  39.306  24.030  13.942
10602W        W78996  28.177  29.180   0.480
10603W        W78997   6.599  10.246  10.759
10604W        W78998  27.821  28.467  11.106
10605W        W78999  11.564  43.388  10.390
10606W        W79000   7.016  20.017   3.692
10607W        W79001  22.764  27.117  12.736
10608W        W79002  11.375  21.524   3.417
10609W        W79003  30.230  40.913   1.899
10610W        W79004  20.569  13.626  11.119
10611W        W79005  16.738  24.306  12.024
10612W        W79006  32.361  43.263   0.817
10613W        W79007  14.622  15.644   2.673
10614W        W79008  44.294  16.034  13.526
10615W        W79009  15.501  40.063   3.420
10616W        W79010  41.938  41.590   4.946
10617W        W79011  44.238  17.638  11.921
10618W        W79012   0.396  32.506  13.103
10619W        W79013  19.832  33.261   3.661
10620W        W79014   3.315   2.050  11.109
10621W        W79015  24.598  44.670   3.126
10622W        W79016  11.410  10.281  12.329
10623W        W79017   7.531  12.047  12.938
10624W        W79018   7.809  40.145  14.886
10625W        W79019  33.010  21.988  13.873
10626W        W79020  11.875   5.782   0.828
10627W        W79021  12.333  23.099  13.026
10628W        W79022  33.475   7.225   5.126
10629W        W79023  27.618  16.315  11.079
10630W        W79024  11.094  28.632   0.429
10631W        W79025  37.870  32.958  14.897
10632W        W79026  23.871  25.532   4.376
10633W        W79027  16.156  37.553   4.146
10634W        W79028  18.055  34.455   1.930
10635W        W79029  20.550   4.293  11.898
10636W        W79030   0.449   6.323   1.334
10637W        W79031   0.317   2.655   3.246
10638W        W79032   8.892  18.353  11.662
10639W        W79033  17.677  17.326  12.421
10640W        W79034  32.427   8.306   2.179
10641W        W79035  10.569  21.163  12.879
10642W        W79036  44.838  21.111   2.721
10643W        W79037  37.520  30.805   3.583
10644W        W79038  15.084  31.746   1.373
10645W        W79039  20.618  32.396  11.212
10646W        W79040  10.467   0.322  12.520
10647W        W79041  32.678   7.631  14.518
10648W        W79042   3.463  35.565  11.429
10649W        W79043   6.209  15.301   3.708
10650W        W79044  31.818  19.514  14.678
10651W        W79045   3.261  39.431   3.496
10652W        W79046  37.387  36.520   0.469
10653W        W79047   3.901  38.751   0.383
10654W        W79048  15.853  43.949  14.753
10655W        W79049  29.104   4.522  14.835
10656W        W79050  28.288   9.939   2.330
10657W        W79051  31.094  17.100  12.147
10658W        W79052   7.900  15.647   0.623
10659W        W79053   9.354  30.642  10.672
10660W        W79054  37.212  12.765   1.424
10661W        W79055   1.011  32.555   2.167
10662W        W79056  33.085  37.402   4.652
10663W        W79057  12.390  28.296  13.559
10664W        W79058  42.022   1.726   0.369
10665W        W79059  16.621   7.740   0.696
10666W        W79060  36.700   8.618   5.525
10667W        W79061  21.093  19.031   1.371
10668W        W79062  33.167  20.476  12.865
10669W        W79063  28.410  44.800  11.531
10670W        W79064  32.234  42.580  10.105
10671W        W79065  10.873  24.886   0.965
10672W        W79066   7.786  41.078   3.636
10673W        W79067  34.192  37.575   4.470
10674W        W79068  34.342  22.413  12.544
10675W        W79069  16.151  39.059  13.967
10676W        W79070  41.592  23.216  13.291
10677W        W79071  22.127   9.538  11.902
10678W        W79072  24.469  39.039  10.632
10679W        W79073  37.995  33.563   1.929
10680W        W79074  10.012  35.490  14.418
10681W        W79075  38.037  21.920  11.685
10682W        W79076  41.453  13.656   2.136
10683W        W79077  12.097   7.632   2.273
10684W        W79078  17.319  29.118  13.408
10685W        W79079  13.295  10.711   3.220
10686W        W79080  28.054  18.068  11.322
10687W        W79081   0.174  12.940   3.745
10688W        W79082   8.882  37.045  14.347
10689W        W79083  18.444   3.465  14.348
10690W        W79084   2.299  18.545   5.054
10691W        W79085  17.123  37.597  10.315
10692W        W79086   8.255   5.923   4.286
10693W        W79087   6.523   8.326   1.460
10694W        W79088  34.360  14.978  14.732
10695W        W79089   6.718   8.687  14.394
10696W        W79090  34.032  37.907   2.651
10697W        W79091  40.095   2.289  12.147
10698W        W79092  13.321  42.477   3.570
10699W        W79093   1.481  32.325   0.001
10700W        W79094  36.496  14.382   3.698
10701W        W79095  42.907  35.622   1.013
10702W        W79096  43.279   7.672  11.359
10703W        W79097  14.159  32.009  10.191
10704W        W79098  25.284  34.019  14.905
10705W        W79099   5.517  29.354   2.820
10706W        W79100   5.576   5.736  12.755
10707W        W79101   7.068  31.603  12.967
10708W        W79102  34.093   3.461  10.557
10709W        W79103  21.664  14.806   2.879
10710W        W79104  33.778  18.606   0.792
10711W        W79105   9.599  29.585   0.363
10712W        W79106  40.426  34.416   3.158
10713W        W79107   9.942  20.151  11.518
10714W        W79108  42.792  26.714  12.397
10715W        W79109   9.360  23.437  14.927
10716W        W79110  19.700  35.630   4.602
10717W        W79111  17.992  40.915   3.352
10718W        W79112  10.815  32.147  12.458
10719W        W79113   8.622  41.405   0.157
10720W        W79114   1.770   3.039  11.601
10721W        W79115  29.975  41.555  14.236
10722W        W79116  10.037  36.419  12.544
10723W        W79117  24.138  44.806  14.580
10724W        W79118  17.304   3.770  11.523
10725W        W79119  21.463   0.923  12.210
10726W        W79120   7.837  26.021   0.283
10727W        W79121  13.355  25.447  14.207
10728W        W79122   5.947  33.149  14.070
10729W        W79123   6.911  36.988  12.053
10730W        W79124  22.549  30.614  11.905
10731W        W79125   6.844  42.789   1.388
10732W        W79126   9.411   8.704  13.439
10733W        W79127  19.235  41.233   4.580
10734W        W79128  39.635  16.105   3.262
10735W        W79129  34.875  39.388   0.272
10736W        W79130  44.956  19.605   5.035
10737W        W79131  15.606   8.866   0.964
10738W        W79132  29.497  16.121  10.705
10739W        W79133  24.030  42.068   4.582
10740W        W79134  35.851   6.164   5.023
10741W        W79135  41.274  26.092   4.344
10742W        W79136  29.592  24.664   2.812
10743W        W79137  14.287  25.512   2.787
10744W        W79138  37.387  26.123   2.685
10745W        W79139  37.306   8.751   1.015
10746W        W79140  18.573  17.388  13.372
10747W        W79141  11.100  26.219   0.241
10748W        W79142  42.205  37.997  11.372
10749W        W79143   4.407  16.962  10.025
10750W        W79144  40.540  34.382   2.658
10751W        W79145   7.726  41.367  12.755
10752W        W79146  30.030  12.381   0.347
10753W        W79147  42.049  19.516  10.895
10754W        W79148  16.370  43.548   4.396
10755W        W79149  37.193   8.650  10.981
10756W        W79150  16.971  35.094   1.400
10757W        W79151  39.879   1.468   4.075
10758W        W79152  41.758  11.186   4.052
10759W        W79153  36.324  30.533  13.072
10760W        W79154   0.256  25.974   3.675
10761W        W79155  15.597  12.316  12.909
10762W        W79156  33.342  38.979  10.774
10763W        W79157  33.460  22.814  11.617
10764W        W79158   8.682  24.657  12.537
10765W        W79159  33.666  40.282  14.938
10766W        W79160   2.543   3.782   3.335
10767W        W79161   0.769  39.102  15.000
10768W        W79162  39.043   8.955   4.286
10769W        W79163  13.253  10.426  12.041
10770W        W79164  34.373   6.223   2.942
10771W        W79165   3.176  15.356  13.809
10772W        W79166   9.183  25.463   9.983
10773W        W79167  18.807  12.854  13.902
10774W        W79168  21.593  12.796  12.514
10775W        W79169  11.832  37.473   1.210
10776W        W79170  40.911  10.139   4.642
10777W        W79171  34.757  44.066   2.713
10778W        W79172  29.939  26.513   4.585
10779W        W79173  24.635  19.200   3.286
10780W        W79174  26.154  11.960   0.764
10781W        W79175   0.003   8.364   4.408
10782W        W79176   6.691  31.543  11.253
10783W        W79177  15.176  42.399   4.430
10784W        W79178  31.791  44.058   0.368
10785W        W79179  25.033  30.415  14.344
10786W        W79180   0.183  39.924   1.249
10787W        W79181  33.944   2.354   0.565
10788W        W79182  19.655  37.744   9.802
10789W        W79183  25.002   0.734  13.354
10790W        W79184  31.554  28.012   0.204
10791W        W79185  38.046  27.488  10.866
10792W        W79186  25.761   4.367  11.976
10793W        W79187  43.385  11.291  14.491
10794W        W79188   0.700  37.015   0.776
10795W        W79189  12.622  35.932   4.092
10796W        W79190  25.126  26.658   2.923
10797W        W79191  37.431   2.998  13.011
10798W        W79192   6.434  10.878   3.710
10799W        W79193  17.736  15.677   0.804
10800W        W79194  42.379  19.555   3.731
10801W        W79195   6.497  15.739   5.001
10802W        W79196  11.728  17.650  14.159
10803W        W79197  29.152  21.172   3.556
10804W        W79198  11.052  26.057   0.739
10805W        W79199  11.631   1.832  14.248
10806W        W79200   8.812  20.137  10.759
10807W        W79201  25.644   3.684  11.362
10808W        W79202  23.992   3.250  11.129
10809W        W79203   6.379  35.664  11.202
10810W        W79204   7.162   9.314  10.783
10811W        W79205   6.854  19.074   1.436
10812W        W79206  23.742   7.977   1.234
10813W        W79207  13.003  12.343   0.638
10814W        W79208   9.222  29.279   0.140
10815W        W79209   6.449  18.814  12.876
10816W        W79210  32.951  39.502  12.071
10817W        W79211  36.117  28.898   3.644
10818W        W79212  38.343  36.007   1.376
10819W        W79213  34.031  27.609  12.506
10820W        W79214  42.399  35.549  10.935
10821W        W79215  21.418   1.571   5.028
10822W        W79216  17.146  38.450  14.589
10823W        W79217  22.274   5.343   2.334
10824W        W79218   2.912   3.002  12.464
10825W        W79219  26.206   2.468   4.598
10826W        W79220  13.156  29.547  14.567
10827W        W79221  40.463  35.144  10.612
10828W        W79222   4.374  43.793   1.441
10829W        W79223  10.935   8.554   0.878
10830W        W79224  16.711  22.690   2.710
10831W        W79225  37.098  15.148  10.668
10832W        W79226  26.382  29.451  10.782
10833W        W79227  11.804  19.723   3.722
10834W        W79228  42.290  35.932  14.810
10835W        W79229  39.478  23.448  14.491
10836W        W79230  42.843   9.671  14.289
10837W        W79231  16.761  38.436  12.546
10838W        W79232  27.226   6.922   1.367
10839W        W79233  33.458  21.921   4.583
10840W        W79234  42.486  36.150   5.395
10841W        W79235   0.577  14.149   2.918
10842W        W79236  29.553   0.464   3.185
10843W        W79237  19.613   4.387   0.752
10844W        W79238  18.534  30.056  12.408
10845W        W79239  19.546   5.746  14.037
10846W        W79240   5.394   5.881   2.261
10847W        W79241   0.024  24.442  14.284
10848W        W79242  25.984   4.361  13.603
10849W        W79243   0.314  42.336   2.181
10850W        W79244  26.626  10.768   2.950
10851W        W79245   4.378   3.496  14.463
10852W        W79246  44.846  37.109  13.030
10853W        W79247  25.161  44.579  11.615
10854W        W79248   0.668   2.279  11.209
10855W        W79249  17.760   3.787  10.661
10856W        W79250  25.256  14.563   0.215
10857W        W79251   0.318  14.185   1.182
10858W        W79252  39.916   0.161   3.853
10859W        W79253  37.682  26.560  12.903
10860W        W79254  16.814  23.296   3.565
10861W        W79255   3.703  13.225   4.395
10862W        W79256   3.228  24.259  11.933
10863W        W79257  42.404   4.230   4.450
10864W        W79258  22.407  31.577   2.694
10865W        W79259  30.475   9.706  12.785
10866W        W79260  33.394  36.844  11.028
10867W        W79261  15.621  26.632  14.515
10868W        W79262  20.155  39.858  12.979
10869W        W79263   4.433  11.371  12.508
10870W        W79264   4.147  15.549  14.875
10871W        W79265  37.899  20.857   0.971
10872W        W79266   2.846  36.769  12.519
10873W        W79267  25.413  26.572   1.679
10874W        W79268  23.999   7.266  10.367
10875W        W79269  37.351  43.985   1.729
10876W        W79270   2.299   5.323  10.509
10877W        W79271  37.238  20.240   4.239
10878W        W79272  28.376  19.739  14.326
10879W        W79273  43.662  17.868  11.205
10880W        W79274  43.789   2.358   2.687
10881W        W79275  41.577  32.405  11.225
10882W        W79276   6.374  14.682  13.517
10883W        W79277  38.341   2.161   3.520
10884W        W79278   2.002  35.024  10.608
10885W        W79279  33.586  32.156   3.254
10886W        W79280  34.026  28.463  14.827
10887W        W79281   7.608   9.909   0.679
10888W        W79282   8.234  42.203   1.402
10889W        W79283  39.754  18.431   2.421
10890W        W79284  15.953   6.848   3.144
10891W        W79285  27.122  28.874  12.271
10892W        W79286  42.114  36.069   0.281
10893W        W79287  18.647  21.956  10.710
10894W        W79288   5.169  18.139  13.177
10895W        W79289  31.641  14.512  13.443
10896W        W79290  11.169  27.131   2.107
10897W        W79291  20.835  25.464   0.414
10898W        W79292   8.878  22.465  14.412
10899W        W79293  23.436  24.023  14.087
10900W        W79294   8.362  22.718   3.547
10901W        W79295  38.375  21.917   3.582
10902W        W79296  14.100  19.953  13.955
10903W        W79297  32.943  12.614   3.653
10904W        W79298  22.270  26.897  14.305
10905W        W79299  21.478  34.533   4.332
10906W        W79300  37.665  37.077  10.784
10907W        W79301  44.661  29.213  13.743
10908W        W79302  38.481   2.753   1.508
10909W        W79303  18.361  29.999   3.657
10910W        W79304   0.149  20.791   1.312
10911W        W79305   6.642  20.523  11.490
10912W        W79306  19.248   9.752  14.981
10913W        W79307  21.227  44.192  11.248
10914W        W79308  35.372  16.641  11.124
10915W        W79309   9.112  24.785  13.531
10916W        W79310  34.630   7.824   0.841
10917W        W79311  21.104  10.657  14.853
10918W        W79312  39.057   1.970   3.961
10919W        W79313  12.854  20.615  13.546
10920W        W79314   5.736  38.392   4.569
10921W        W79315  21.707  26.501   0.603
10922W        W79316  43.278  21.186  12.536
10923W        W79317  42.842  32.002   0.840
10924W        W79318   2.861  23.636  12.078
10925W        W79319   8.379   5.721   0.300
10926W        W79320  31.010   9.773  12.446
10927W        W79321  23.274  13.649   2.753
10928W        W79322  35.057  11.346   1.006
10929W        W79323  25.557  32.579  13.920
10930W        W79324  37.377  41.935   1.970
10931W        W79325  26.005  37.024   1.767
10932W        W79326  21.150  31.736  10.963
10933W        W79327  30.957  40.083  13.064
10934W        W79328  26.917  12.209  12.822
10935W        W79329  32.530  39.773  11.917
10936W        W79330  17.567  16.183  14.343
10937W        W79331  43.780  26.475   1.785
10938W        W79332  40.236  37.553   4.101
10939W        W79333  33.584  21.528   2.433
10940W        W79334  20.261  18.720   0.875
10941W        W79335   9.429  13.350   4.001
10942W        W79336  18.493   6.172  11.670
10943W        W79337   2.972   9.677  11.923
10944W        W79338  11.499  12.516  14.936
10945W        W79339  20.746  18.709  11.981
10946W        W79340  32.036  32.478  10.520
10947W        W79341   4.067  43.358   3.367
10948W        W79342  24.926  12.788  10.670
10949W        W79343  14.344  11.857   3.708
10950W        W79344  26.655   0.555  12.946
10951W        W79345   1.235  25.715   0.512
10952W        W79346  35.611  11.155  10.721
10953W        W79347  33.578  10.245  12.155
10954W        W79348   8.277  36.561   2.742
10955W        W79349  13.073   1.673   2.096
10956W        W79350  34.074   4.723   4.085
10957W        W79351  13.126  24.013   0.058
10958W        W79352  43.488  23.458   2.862
10959W        W79353  19.705  25.125   2.333
10960W        W79354   6.184  21.636  10.918
10961W        W79355  13.370  24.292   4.373
10962W        W79356  32.037   5.474   2.834
10963W        W79357  25.998  38.339  14.068
10964W        W79358  36.936  16.140  14.885
10965W        W79359  14.238   2.119  12.398
10966W        W79360  17.367  17.099  14.877
10967W        W79361   2.751  37.921   2.697
10968W        W79362  14.045  29.358  10.569
10969W        W79363  35.680  10.345  12.927
10970W        W79364  32.300   7.029   3.397
10971W        W79365   9.643  29.594   1.317
10972W        W79366   1.816  22.866   0.525
10973W        W79367   4.173  22.116   2.559
10974W        W79368  16.297  20.240  11.662
10975W        W79369   4.716  26.830   1.829
10976W        W79370   2.646  20.745   2.142
10977W        W79371  30.885  16.199   4.217
10978W        W79372  33.008  37.168  13.467
10979W        W79373  21.575  27.660  14.431
10980W        W79374  18.710  15.626  10.759
10981W        W79375  10.780   0.955  12.843
10982W        W79376  16.840  29.537  12.978
10983W        W79377   8.079   5.303   0.261
10984W        W79378  34.693  18.225   2.150
10985W        W79379  38.991  11.341   4.837
10986W        W79380  27.943  27.130   3.582
10987W        W79381  30.866  35.563   0.290
10988W        W79382  44.667  18.086  14.221
10989W        W79383   4.446  38.516  11.603
10990W        W79384  41.580  18.467  14.343
10991W        W79385  25.510  37.809   1.697
10992W        W79386  25.191  33.399  12.912
10993W        W79387  16.096  26.845  14.434
10994W        W79388  39.808  38.869   2.858
10995W        W79389  32.143  10.063   3.099
10996W        W79390   9.848  10.717   3.308
10997W        W79391  15.687  14.862  14.916
10998W        W79392  19.244  32.880   0.736
10999W        W79393  13.486  12.186   4.989
11000W        W79394  12.460  37.347   5.384
11001W        W79395  26.231   4.168   2.844
11002W        W79396   7.169  34.881   1.498
11003W        W79397  20.728  31.012   2.859
11004W        W79398  19.971  19.721   0.384
11005W        W79399  16.837  37.272   4.392
11006W        W79400  28.913  42.820  14.870
11007W        W79401  13.396  44.980  12.296
11008W        W79402   2.812  23.253   2.743
11009W        W79403  35.589   7.131   0.189
11010W        W79404  31.888  22.757   0.972
11011W        W79405   5.710  38.357  14.865
11012W        W79406  22.519   9.700   4.986
11013W        W79407  23.472  40.268   1.916
11014W        W79408  14.158  16.665  13.890
11015W        W79409  27.524  37.993  11.701
11016W        W79410  24.001   5.813   2.390
11017W        W79411  44.287  39.971   1.759
11018W        W79412  35.069  25.012  12.625
11019W        W79413  19.237  13.371   2.840
11020W        W79414  32.623  37.937   2.643
11021W        W79415  20.866  12.092  14.994
11022W        W79416  22.967  10.622   2.430
11023W        W79417  18.231  34.946  12.411
11024W        W79418  26.665  32.606  11.143
11025W        W79419  40.478   4.931   2.887
11026W        W79420  35.899  27.464  10.406
11027W        W79421  26.919   5.690  12.426
11028W        W79422  25.103  35.435  14.870
11029W        W79423  40.765  29.560  12.615
11030W        W79424   0.158  28.694  10.726
11031W        W79425  31.012   2.338   2.376
11032W        W79426  29.964  14.743  10.771
11033W        W79427   4.244  24.789   0.407
11034W        W79428   2.514   0.482   1.751
11035W        W79429  43.432   3.716   1.421
11036W        W79430  30.208   3.994   0.386
11037W        W79431  12.851  15.135  13.972
11038W        W79432   1.439   4.819   0.361
11039W        W79433  30.932  19.084  11.608
11040W        W79434   1.863  44.234   4.067
11041W        W79435  11.164  31.336   1.270
11042W        W79436  16.207  29.701  10.690
11043W        W79437  22.504  28.550  13.698
11044W        W79438  18.676  30.247  10.918
11045W        W79439  30.500  40.414  14.806
11046W        W79440   7.497  38.074   0.732
11047W        W79441  10.301  40.230   0.824
11048W        W79442  37.827  11.409   4.061
11049W        W79443  12.670  11.845  11.247
11050W        W79444   3.043  37.772  11.092
11051W        W79445   2.833  35.970   4.661
11052W        W79446  36.173   9.868  13.363
11053W        W79447  26.026   0.854  14.779
11054W        W79448  14.185  29.143  11.795
11055W        W79449  42.036   4.866  10.846
11056W        W79450   1.802  16.569   4.175
11057W        W79451  28.595  16.859  14.551
11058W        W79452  25.990  26.723  12.118
11059W        W79453  14.030  18.519  13.831
11060W        W79454  21.232  24.535   1.085
11061W        W79455  29.455  11.295   4.262
11062W        W79456  38.405  40.283  14.278
11063W        W79457   8.696  42.537   4.155
11064W        W79458  16.436  31.008  10.555
11065W        W79459  23.957   4.477   2.246
11066W        W79460  36.453  18.222  11.141
11067W        W79461  10.692   9.365  14.894
11068W        W79462  18.798  44.330  13.931
11069W        W79463  25.808  31.380   3.093
11070W        W79464  32.836  18.776   1.617
11071W        W79465  37.428  38.314   4.125
11072W        W79466   2.477  33.096  14.405
11073W        W79467   1.997  29.153  12.008
11074W        W79468  27.461  34.975   3.393
11075W        W79469  30.195  39.027   0.811
11076W        W79470  43.113  35.025  14.367
11077W        W79471  27.083  40.797   1.328
11078W        W79472  24.240  25.340   3.635
11079W        W79473  10.430   0.833   9.971
11080W        W79474  17.181  20.467  13.506
11081W        W79475  43.296  20.459  14.892
11082W        W79476  15.601  44.861  10.658
11083W        W79477  38.971  36.756   4.587
11084W        W79478  39.925  28.771   2.673
11085W        W79479  24.539   5.325   0.780
11086W        W79480   6.576  16.346  12.548
11087W        W79481   0.280  16.249   2.187
11088W        W79482  25.544  35.124   3.565
11089W        W79483  34.374  24.576  14.482
11090W        W79484  39.801  42.839   1.900
11091W        W79485  19.935  28.637   5.075
11092W        W79486   4.831  30.818  13.532
11093W        W79487  18.950  12.741  12.607
11094W        W79488   4.365  39.919  12.157
11095W        W79489   3.333  27.279  12.917
11096W        W79490   2.722   3.183   1.917
11097W        W79491  34.866   5.341   3.250
11098W        W79492  40.352  38.640   0.973
11099W        W79493  18.750  17.636  14.006
11100W        W79494   4.487  40.968  11.177
11101W        W79495  12.401  10.916  14.970
11102W        W79496  38.822  29.414  13.002
11103W        W79497   3.584  20.657   4.943
11104W        W79498  33.906  20.571  14.796
11105W        W79499  10.864  12.908   0.617
11106W        W79500  32.110  18.174  14.945
11107W        W79501  36.338   0.405   0.502
11108W        W79502  44.020   6.836   0.853
11109W        W79503  35.551  34.469  11.663
11110W        W79504  21.235  43.040   4.288
11111W        W79505   5.135  22.229   1.387
11112W        W79506  31.928  13.229   0.756
11113W        W79507   8.894   2.946   4.105
11114W        W79508  33.293  17.891  13.063
11115W        W79509  21.489  19.208  10.993
11116W        W79510  29.506  10.210   2.994
11117W        W79511  20.652  37.772  14.811
11118W        W79512  15.389  39.914  12.413
11119W        W79513  15.207  39.274   4.193
11120W        W79514  15.632  22.158   4.231
11121W        W79515  28.094   8.699   0.706
11122W        W79516  12.698  25.470  12.041
11123W        W79517  27.199  29.638  14.847
11124W        W79518   5.270  30.033   2.187
11125W        W79519   7.235  34.954  13.481
11126W        W79520  41.499  23.231   1.471
11127W        W79521  18.757  28.662  12.896
11128W        W79522   0.317  37.582   1.723
11129W        W79523  13.814   2.286   0.776
11130W        W79524  33.099  38.564   4.181
11131W        W79525  22.974  20.491   3.638
11132W        W79526  19.249   3.220   0.279
11133W        W79527  10.785   5.913  11.180
11134W        W79528   9.869  29.938  13.414
11135W        W79529  27.609  39.589   0.695
11136W        W79530  24.026   2.510  14.902
11137W        W79531  33.394  15.116   1.477
11138W        W79532  13.259  20.266   1.326
11139W        W79533  35.420  19.502   4.851
11140W        W79534  31.148  18.751  11.993
11141W        W79535   6.724   8.722  13.851
11142W        W79536  32.875  35.579  11.536
11143W        W79537  29.252  40.133   1.288
11144W        W79538  33.471   7.788  14.158
11145W        W79539   8.222  29.700  12.769
11146W        W79540  22.351  25.236  11.964
11147W        W79541  20.467  13.827  12.846
11148W        W79542  38.272  42.633  11.917
11149W        W79543   2.481  23.760   5.264
11150W        W79544  24.776  40.835   1.031
11151W        W79545  21.997   0.437  11.625
11152W        W79546  36.622   1.516  14.429
11153W        W79547  28.204   6.324   4.895
11154W        W79548   1.803  35.412  11.601
11155W        W79549  42.970  36.112   2.770
11156W        W79550  39.343  31.386   4.311
11157W        W79551  42.868   1.758  14.446
11158W        W79552   6.872  20.045   1.792
11159W        W79553  40.299  15.091  12.921
11160W        W79554  16.653  22.596   0.997
11161W        W79555   0.709  12.923   0.253
11162W        W79556  36.081  38.147  13.398
11163W        W79557  22.129  30.078  13.090
11164W        W79558  13.335  37.511   4.492
11165W        W79559  34.654  28.196   0.427
11166W        W79560  41.064  35.420  13.207
11167W        W79561  22.313  39.033   0.821
11168W        W79562  30.047  38.600   0.527
11169W        W79563  18.974   6.395   3.762
11170W        W79564  41.936  11.903  12.587
11171W        W79565  12.401  30.878   1.331
11172W        W79566  33.544  30.267   3.379
11173W        W79567   4.888  41.438  14.473
11174W        W79568   1.035   8.273  12.907
11175W        W79569  36.334  26.177  13.342
11176W        W79570   8.137   8.316  10.569
11177W        W79571  27.147  26.656   0.512
11178W        W79572   6.687  22.942  11.958
11179W        W79573  30.623  23.050   3.807
11180W        W79574  35.879  30.915  12.196
11181W        W79575  29.138  38.715  14.452
11182W        W79576  39.078  35.882   1.732
11183W        W79577  29.066  15.675   3.127
11184W        W79578  14.649  30.716   4.599
11185W        W79579  34.321   5.658   1.777
11186W        W79580  22.028  19.849   2.669
11187W        W79581  11.083  41.428  13.430
11188W        W79582   7.182  29.469   0.864
11189W        W79583  31.514   6.196  11.926
11190W        W79584  42.012   8.640  14.042
11191W        W79585   9.150   2.823  14.903
11192W        W79586  34.850  23.534  13.606
11193W        W79587  43.069  11.377  10.585
11194W        W79588   5.682  31.888   1.873
11195W        W79589  23.767  11.737   1.283
11196W        W79590   5.720  43.493  11.626
11197W        W79591  17.166  32.405  13.818
11198W        W79592  27.609  26.045   1.452
11199W        W79593  15.472  17.063  13.999
11200W        W79594  24.023  23.931  13.588
11201W        W79595  34.826   0.785  12.555
11202W        W79596  21.283  32.514   0.208
11203W        W79597  29.162  17.558   1.415
11204W        W79598  20.113  32.195   3.701
11205W        W79599  30.133  27.662  11.610
11206W        W79600  10.199  39.973  10.814
11207W        W79601  18.784   9.364   0.277
11208W        W79602  37.227  16.070  12.638
11209W        W79603  42.482  38.783  14.771
11210W        W79604  39.347  43.270  11.463
11211W        W79605  34.925  15.851   4.559
11212W        W79606  15.720  22.113   0.875
11213W        W79607  10.706  13.927  10.760
11214W        W79608  16.801  42.392   3.851
11215W        W79609  28.938  30.494   1.734
11216W        W79610  25.382   4.747  11.981
11217W        W79611  37.312  23.644   4.635
11218W        W79612  33.119   7.045   3.362
11219W        W79613   3.158  30.880  10.853
11220W        W79614  25.998  21.271  12.646
11221W        W79615  33.951  12.186   3.920
11222W        W79616  22.005   1.657   0.227
11223W        W79617  30.715  37.825   1.285
11224W        W79618  10.711  27.581  11.619
11225W        W79619  43.605   0.902   4.264
11226W        W79620  42.788  44.401  13.393
11227W        W79621  28.559  37.901   4.551
11228W        W79622  21.039  27.879  11.724
11229W        W79623  11.250  31.821  14.012
11230W        W79624   2.177  11.824  14.029
11231W        W79625  25.674   8.084  12.908
11232W        W79626  18.563  43.252   3.662
11233W        W79627   4.296  41.088  12.994
11234W        W79628  40.677  14.699  14.962
11235W        W79629  10.023  37.098   2.420
11236W        W79630  20.298  37.985  14.092
11237W        W79631   2.428  26.984   1.427
11238W        W79632  38.541  29.022   1.489
11239W        W79633  10.139  22.763  14.022
11240W        W79634   5.664  12.029   2.259
11241W        W79635   0.417  42.265  13.921
11242W        W79636  43.313  19.828   0.513
11243W        W79637  20.741  32.058   3.743
11244W        W79638  15.813  18.644   4.414
11245W        W79639  11.403  43.714  12.586
11246W        W79640  31.484  34.073  11.190
11247W        W79641  37.680  34.591   1.092
11248W        W79642   5.293  17.281   1.629
11249W        W79643   0.263  17.841   3.723
11250W        W79644  42.842  38.927   4.489
11251W        W79645  31.257   0.265   3.143
11252W        W79646  17.415  13.309  11.541
11253W        W79647  22.205  28.010   4.052
11254W        W79648  33.576  19.324   1.221
11255W        W79649   3.696  21.091   2.774
11256W        W79650  12.309  20.251   2.249
11257W        W79651  36.550  37.540   2.373
11258W        W79652  16.172  39.728   2.152
11259W        W79653  33.092  23.382  12.688
11260W        W79654  30.622  33.133  11.607
11261W        W79655  41.394  10.712   0.061
11262W        W79656  17.374  27.951  14.771
11263W        W79657  31.145   9.308   0.807
11264W        W79658  35.418  32.453   3.851
11265W        W79659  17.689  26.971   4.108
11266W        W79660  31.647  36.142  12.318
11267W        W79661  36.192  35.050   4.652
11268W        W79662  15.302   7.464   4.537
11269W        W79663   8.309  21.507   4.644
11270W        W79664   5.164  27.134   0.832
11271W        W79665  38.265  20.820   1.397
11272W        W79666   7.380  27.581   4.853
11273W        W79667  39.959   2.651  11.036
11274W        W79668   8.765  25.946   0.234
11275W        W79669  34.924   5.899   0.037
11276W        W79670  30.165   9.241  11.129
11277W        W79671  15.220  30.094   3.847
11278W        W79672  24.735   9.719  12.900
11279W        W79673  18.212  14.946  11.693
11280W        W79674  26.793  32.665   1.694
11281W        W79675  33.568  26.086  12.811
11282W        W79676  42.367  41.807   4.741
11283W        W79677   0.252   1.510   1.977
11284W        W79678  14.863   7.225   0.273
11285W        W79679  38.862  24.276  12.169
11286W        W79680   7.808  20.234   0.969
11287W        W79681   4.447  23.410  10.607
11288W        W79682  25.023  35.422  13.845
11289W        W79683   3.424  22.403   4.557
11290W        W79684  44.013  34.021   4.413
11291W        W79685  39.838  31.356  12.114
11292W        W79686   0.009  30.042  14.311
11293W        W79687  11.608   7.519   5.131
11294W        W79688  23.127   7.482  12.942
11295W        W79689  17.098  33.901   1.351
11296W        W79690  21.624   8.612  12.781
11297W        W79691  19.216   4.944   4.513
11298W        W79692  22.599  43.763   2.812
11299W        W79693  29.368  44.928   1.275
11300W        W79694  38.520   4.526   2.337
11301W        W79695  14.221  39.063   0.916
11302W        W79696  17.015  32.374  11.651
11303W        W79697  36.583  16.735  10.714
11304W        W79698  34.539  22.261  13.360
11305W        W79699  26.973  15.357  14.026
11306W        W79700  32.439  21.599   2.028
11307W        W79701  14.984  33.603   0.389
11308W        W79702  12.074  16.319   2.720
11309W        W79703   6.942   5.158   4.138
11310W        W79704  12.265  11.396  14.881
11311W        W79705   1.356  18.072   1.830
11312W        W79706   9.781  36.344   1.645
11313W        W79707   1.466  15.564   4.520
11314W        W79708  33.724   6.826   1.361
11315W        W79709  10.251  34.185   1.802
11316W        W79710  18.019  16.992   1.856
11317W        W79711  29.464  27.018  13.822
11318W        W79712  29.574  10.877  11.040
11319W        W79713  39.113  32.490   1.716
11320W        W79714   1.903  30.311  12.743
11321W        W79715  31.500  26.116   1.671
11322W        W79716  19.330   1.015  12.638
11323W        W79717  42.770  14.169   1.277
11324W        W79718  44.000  13.743   4.939
11325W        W79719  16.600  38.408   1.387
11326W        W79720  39.495  31.947   0.487
11327W        W79721  31.828  18.827  13.514
11328W        W79722  37.522  17.594   3.435
11329W        W79723  33.937  25.508   2.420
11330W        W79724   7.252  19.939  13.609
11331W        W79725  35.872  32.967   4.874
11332W        W79726  19.179  32.344  12.490
11333W        W79727  43.361   1.662  10.184
11334W        W79728   6.405   4.995   0.702
11335W        W79729  17.112  30.932   0.251
11336W        W79730  16.336  32.908   4.929
11337W        W79731  44.428  25.138  13.938
11338W        W79732  17.222  16.304   4.992
11339W        W79733  39.092   0.392   4.512
11340W        W79734  15.694  13.347  14.246
11341W        W79735  24.259  27.550   0.451
11342W        W79736   5.408  34.459  10.920
11343W        W79737  21.410  13.674   0.814
11344W        W79738  23.504  15.959   2.226
11345W        W79739  35.878  20.584   3.210
11346W        W79740   8.713  10.813  11.179
11347W        W79741  21.013  23.832  10.187
11348W        W79742  23.034  42.005  14.696
11349W        W79743  42.948  43.091  14.094
11350W        W79744  33.408  13.138  11.027
11351W        W79745   0.010  15.261   3.954
11352W        W79746   8.258  29.415   0.471
11353W        W79747  36.920  25.562  13.148
11354W        W79748   5.402  36.217   0.943
11355W        W79749  20.782  14.210  13.113
11356W        W79750  13.792   1.857  14.912
11357W        W79751  21.725  11.899  10.630
11358W        W79752  39.951   6.851   3.621
11359W        W79753  19.087  21.703   4.038
11360W        W79754  39.931   6.427   2.623
11361W        W79755  26.793  20.907  14.477
11362W        W79756   2.441  36.448   2.837
11363W        W79757  17.114  43.359  12.876
11364W        W79758  14.642  30.815   1.764
11365W        W79759   7.731  12.741   2.288
11366W        W79760   4.335  17.241   2.643
11367W        W79761  34.844  27.849   1.673
11368W        W79762  27.225  21.565   3.542
11369W        W79763  24.067   9.370   2.842
11370W        W79764  27.719  24.287   2.121
11371W        W79765   8.540  13.283  14.921
11372W        W79766  38.286  22.128   0.022
11373W        W79767   7.126   8.089   2.146
11374W        W79768  42.317   8.260   4.323
11375W        W79769  31.073  35.412   2.601
11376W        W79770  21.204  14.683  11.866
11377W        W79771  35.050  43.265   2.284
11378W        W79772  23.207  40.330   3.789
11379W        W79773  11.118  34.994   3.555
11380W        W79774  14.647  34.028  10.556
11381W        W79775  20.091   8.154  13.902
11382W        W79776  42.174  10.159   0.031
11383W        W79777  30.274   2.455   0.277
11384W        W79778  39.557  21.055   3.044
11385W        W79779  15.317  22.118   2.823
11386W        W79780  21.682  30.610  14.336
11387W        W79781  14.631  24.442   1.300
11388W        W79782  29.049  21.481  12.696
11389W        W79783  30.639   4.527  11.555
11390W        W79784  28.761  15.632   0.294
11391W        W79785  31.200   7.995   1.804
11392W        W79786  44.898  26.510  10.618
11393W        W79787  28.289  33.868   1.972
11394W        W79788  42.024  25.273   0.485
11395W        W79789   3.497  39.665  12.033
11396W        W79790  32.333  15.821  13.001
11397W        W79791  29.400  32.535  13.745
11398W        W79792  18.168  36.440   3.340
11399W        W79793   9.164  43.667   0.285
11400W        W79794  38.546  28.382  11.149
11401W        W79795  23.119  15.333  13.113
11402W        W79796   4.630   2.902   5.070
11403W        W79797  41.370  10.390   4.222
11404W        W79798  11.122  11.137  12.329
11405W        W79799  37.543  37.671   3.255
11406W        W79800  15.629  13.719  11.677
11407W        W79801  13.640  40.757  13.582
11408W        W79802  30.134  18.089   3.461
11409W        W79803  23.544  26.240  12.084
11410W        W79804  10.507  28.080  13.394
11411W        W79805  42.009  30.497  13.089
11412W        W79806  44.669   2.068  14.440
11413W        W79807  42.820  10.548   0.368
11414W        W79808  28.079  38.619  13.531
11415W        W79809  14.295  26.609  12.827
11416W        W79810  35.530   5.117  14.398
11417W        W79811  26.533  23.645  14.816
11418W        W79812   0.454   3.272  13.476
11419W        W79813   3.215  20.278   1.755
11420W        W79814   0.892  26.487   2.878
11421W        W79815  32.452  37.903   4.086
11422W        W79816  25.511   9.886  12.457
11423W        W79817  38.640  10.107  14.026
11424W        W79818  28.469   8.172   4.588
11425W        W79819  41.436  25.634  13.396
11426W        W79820  15.192  37.393   4.126
11427W        W79821   8.080   0.430   1.041
11428W        W79822  33.597  36.367   1.182
11429W        W79823  30.483  30.018  11.857
11430W        W79824  21.664   1.215  13.520
11431W        W79825  13.688  37.774  10.913
11432W        W79826  13.228  43.941  12.871
11433W        W79827  38.536   9.431  11.272
11434W        W79828   4.504  32.133  10.554
11435W        W79829  24.023  10.729   0.698
11436W        W79830  36.013  35.359   2.802
11437W        W79831   5.896  17.588  12.903
11438W        W79832  25.488   5.830  14.297
11439W        W79833  42.821   5.900  14.889
11440W        W79834  12.812  41.526   4.567
11441W        W79835  44.570   3.449   2.195
11442W        W79836  40.887  37.399   1.780
11443W        W79837  36.952  16.891   2.373
11444W        W79838  35.691  35.046  14.260
11445W        W79839  20.180  14.750  14.493
11446W        W79840   8.208  15.038   0.024
11447W        W79841  23.682  11.791  11.208
11448W        W79842  33.336  43.548   1.741
11449W        W79843   8.771   5.322  10.315
11450W        W79844  39.493   6.320  13.984
11451W        W79845   6.058   6.842   1.738
11452W        W79846  32.579  19.930  11.629
11453W        W79847   3.160   1.284  13.556
11454W        W79848  40.418  24.707  14.414
11455W        W79849  16.005  36.936   1.175
11456W        W79850   6.705  34.376  14.239
11457W        W79851  15.344  42.454   0.696
11458W        W79852  40.361  11.936   4.113
11459W        W79853  34.468  23.730  12.330
11460W        W79854  34.610  10.614  14.820
11461W        W79855  23.058  36.943  13.539
11462W        W79856  13.682   5.898   0.281
11463W        W79857  19.388  11.087   1.272
11464W        W79858  41.221  35.119  13.600
11465W        W79859  38.410  18.766  13.853
11466W        W79860   7.698  14.261  14.108
11467W        W79861  44.606  44.810   1.398
11468W        W79862  30.826  23.759  12.492
11469W        W79863  20.738  18.743   5.342
11470W        W79864   6.289  34.612  13.477
11471W        W79865   7.569  14.097  10.768
11472W        W79866  26.403  30.363   3.677
11473W        W79867  40.889   3.976  14.955
11474W        W79868  28.823  29.946   3.754
11475W        W79869  21.071   7.883  11.208
11476W        W79870  21.997   3.398  11.121
11477W        W79871  42.262  17.286   4.226
11478W        W79872  36.252  16.198   0.872
11479W        W79873  37.494  19.017  14.803
11480W        W79874  42.822  38.082   3.781
11481W        W79875   8.404  40.933  12.642
11482W        W79876  12.860  14.381   4.582
11483W        W79877  23.122  42.483   0.015
11484W        W79878   8.293  22.301  11.057
11485W        W79879  22.825  28.630   3.753
11486W        W79880  21.171   9.201   0.388
11487W        W79881  15.486   3.172  11.697
11488W        W79882   4.965  42.848  12.534
11489W        W79883   9.564  12.629   3.010
11490W        W79884   9.980  13.515   1.653
11491W        W79885  34.902   4.019  14.846
11492W        W79886   5.686  11.291   4.575
11493W        W79887  42.820  11.175   2.352
11494W        W79888  27.713   3.402  11.156
11495W        W79889  31.737  16.866   2.306
11496W        W79890  33.119  30.341   0.248
11497W        W79891  36.573  35.982   2.952
11498W        W79892  27.226   4.734  12.468
11499W        W79893   4.294   9.601   1.888
11500W        W79894   9.411   7.018   2.240
11501W        W79895  27.190  14.113   3.545
11502W        W79896  42.178  18.031  13.967
11503W        W79897   6.477  28.486  14.360
11504W        W79898  17.324  37.767  10.754
11505W        W79899  30.966  12.947   3.911
11506W        W79900  25.236  31.945   0.699
11507W        W79901  42.508  39.262  13.362
11508W        W79902  31.852  43.379   3.111
11509W        W79903   7.388  44.771   0.795
11510W        W79904   5.623  39.838   1.998
11511W        W79905  43.359  34.902   0.916
11512W        W79906   9.918  14.110   0.474
11513W        W79907   3.876  37.981   4.656
11514W        W79908  19.574  22.623   1.241
11515W        W79909  21.022   3.315  14.294
11516W        W79910  39.953  15.698  11.735
11517W        W79911  39.393  28.508  13.853
11518W        W79912  15.247  16.902  12.292
11519W        W79913   0.416   4.834   1.122
11520W        W79914   9.692  23.000   2.414
11521W        W79915  20.719   9.593  13.012
11522W        W79916  41.895  22.359   2.318
11523W        W79917  39.785  23.949   3.662
11524W        W79918  37.744  39.529   2.410
11525W        W79919  35.956  10.359  14.981
11526W        W79920   9.767   0.398   4.138
11527W        W79921  17.179  42.919  11.106
11528W        W79922  16.042   2.965   1.432
11529W        W79923  38.363   6.275  14.261
11530W        W79924  39.801  16.291  13.968
11531W        W79925  10.371  10.336   4.491
11532W        W79926  11.096  38.930  10.714
11533W        W79927   1.882  25.286  13.364
11534W        W79928  40.999  14.613  14.027
11535W        W79929  24.130   5.519   1.071
11536W        W79930  11.657  41.712   3.718
11537W        W79931  12.058  36.508   3.099
11538W        W79932  19.009   2.507   2.853
11539W        W79933   4.434  39.960   3.289
11540W        W79934  14.269  39.069  11.074
11541W        W79935  41.897  22.016   0.895
11542W        W79936  39.807   4.393   2.313
11543W        W79937  24.015   1.191   2.700
11544W        W79938  16.944  16.984  11.633
11545W        W79939  10.331  34.453  12.647
11546W        W79940  29.437   4.564  11.951
11547W        W79941  18.961  35.298   2.113
11548W        W79942  44.011  19.259   1.232
11549W        W79943  41.273  33.428   1.558
11550W        W79944  25.586  11.717   1.965
11551W        W79945   2.030   2.257  12.357
11552W        W79946  23.129  26.472  12.931
11553W        W79947  44.097  31.686  11.591
11554W        W79948  10.851   8.203   2.733
11555W        W79949  42.105  26.211  10.694
11556W        W79950  18.546  21.485  12.545
11557W        W79951  12.613   4.925   4.967
11558W        W79952   6.768   2.517   2.358
11559W        W79953  20.133  36.567   1.324
11560W        W79954  39.755   4.222   4.317
11561W        W79955   5.974  37.447  12.411
11562W        W79956  22.692   9.183  10.580
11563W        W79957  10.190  16.353  12.144
11564W        W79958  39.053  10.860  14.151
11565W        W79959  29.816  13.731  13.293
11566W        W79960  34.544  10.585   1.321
11567W        W79961  38.299  40.459   3.886
11568W        W79962  27.949  24.389   4.549
11569W        W79963  44.783  35.407  12.442
11570W        W79964  38.780  14.574   0.792
11571W        W79965  17.578  12.283   2.746
11572W        W79966   4.823  28.971  11.781
11573W        W79967  12.406  21.677  12.650
11574W        W79968  18.095  11.414   0.801
11575W        W79969  18.618  41.490  12.383
11576W        W79970   1.594   3.545  13.503
11577W        W79971  25.739  40.340   2.922
11578W        W79972  23.764   4.146   1.143
11579W        W79973   1.357  41.084   4.690
11580W        W79974   0.474   3.726   0.052
11581W        W79975  37.958  10.325  13.562
11582W        W79976  37.373   1.988  13.978
11583W        W79977  26.652  38.825  11.596
11584W        W79978  40.528  29.417   1.326
11585W        W79979  36.064  41.954   1.321
11586W        W79980  36.036  41.901  12.872
11587W        W79981  13.159  11.746   0.918
11588W        W79982  11.902  28.159  10.664
11589W        W79983  15.137  17.521   0.386
11590W        W79984  11.103  39.522  13.440
11591W        W79985  38.840   0.418  11.668
11592W        W79986  34.769  14.887   5.093
11593W        W79987  38.822   7.284   1.923
11594W        W79988  43.820  23.028   0.901
11595W        W79989   8.769  10.738   3.674
11596W        W79990   2.205   1.884   1.387
11597W        W79991  35.596  14.508   1.383
11598W        W79992   7.897  44.303   3.152
11599W        W79993  43.302  15.344  13.108
11600W        W79994   8.170   1.379  12.487
11601W        W79995  20.791  38.157  11.956
11602W        W79996   9.851  34.635  12.839
11603W        W79997  29.093  43.271  10.033
11604W        W79998   7.910  35.603   2.013
11605W        W79999  36.903  41.956   1.078
11606W        W80000   5.391  42.971   3.252
11607W        W80001  29.032   4.100   3.830
11608W        W80002  37.029  12.284   4.322
11609W        W80003  23.253  42.853  12.999
11610W        W80004  43.786  43.417  10.689
11611W        W80005  22.167  42.779  12.416
11612W        W80006  27.814  36.105  11.313
11613W        W80007  10.719  31.971   3.316
11614W        W80008  34.428  30.140  13.948
11615W        W80009  37.992  24.366   0.199
11616W        W80010  39.280  24.545   2.676
11617W        W80011  42.441  41.326   2.764
11618W        W80012  22.570   9.977  14.906
11619W        W80013   4.491  12.106   4.628
11620W        W80014   8.696   8.253  11.956
11621W        W80015  42.615  31.250   2.895
11622W        W80016  26.259   5.866   3.818
11623W        W80017  17.662   5.567   5.118
11624W        W80018  42.169  32.833  11.180
11625W        W80019  27.527  26.063  12.357
11626W        W80020  11.290  37.035  12.105
11627W        W80021  13.155  43.360   4.351
11628W        W80022  34.097  10.668  14.795
11629W        W80023  22.224   0.420  11.174
11630W        W80024  43.495  11.233   3.059
11631W        W80025   2.517   4.235  14.376
11632W        W80026  44.743  30.994  13.557
11633W        W80027  21.605   3.522   2.919
11634W        W80028  24.123  43.689   1.187
11635W        W80029  32.350   2.660   4.386
11636W        W80030   8.383  20.838  13.848
11637W        W80031   6.621  39.514  12.848
11638W        W80032  19.010   0.034   4.104
11639W        W80033  23.131   4.488   1.809
11640W        W80034  13.741  33.438   1.220
11641W        W80035  22.694   8.433   0.711
11642W        W80036  40.484  10.840   4.183
11643W        W80037  42.875  20.584   3.092
11644W        W80038  38.952  17.704   4.624
11645W        W80039   1.858  35.167  11.084
11646W        W80040  11.837  15.708   2.424
11647W        W80041  21.621  26.961   0.776
11648W        W80042  24.216  44.924   3.366
11649W        W80043  43.731  18.477   1.768
11650W        W80044   3.974  42.265  11.457
11651W        W80045  14.062  40.995  12.833
11652W        W80046   4.781   9.354  12.482
11653W        W80047   9.063  36.931  11.369
11654W        W80048   4.055  26.720  10.046
11655W        W80049  40.948  26.470   2.203
11656W        W80050  24.396   9.778   2.756
11657W        W80051  32.105  44.349   1.490
11658W        W80052  21.099  14.660  13.015
11659W        W80053  38.191  37.909   3.876
11660W        W80054  13.726   1.257   3.838
11661W        W80055   4.214  22.115   2.003
11662W        W80056  31.429  26.633  10.049
11663W        W80057   4.675  20.811   2.709
11664W        W80058  12.810  34.494  11.612
11665W        W80059  21.573  41.274  10.327
11666W        W80060  17.188  38.636  10.671
11667W        W80061  27.068  30.696   2.709
11668W        W80062  31.602  25.980   2.791
11669W        W80063  23.603   9.302  14.037
11670W        W80064  24.231  30.134   1.833
11671W        W80065  26.175  24.430   4.229
11672W        W80066  26.563  24.801   4.317
11673W        W80067  30.422   0.243   0.673
11674W        W80068  17.604  29.550   4.649
11675W        W80069  11.029  25.560  11.081
11676W        W80070  19.727  11.470   4.560
11677W        W80071  27.001  16.172   2.931
11678W        W80072   4.697   1.981   3.217
11679W        W80073  18.572  37.056  12.860
11680W        W80074  32.758  39.687   3.573
11681W        W80075   2.458   2.728  10.798
11682W        W80076  34.124  40.050   2.259
11683W        W80077  41.625  25.085   0.148
11684W        W80078   8.191   5.150   3.102
11685W        W80079  31.329  44.817   1.644
11686W        W80080  20.639   9.988   2.304
11687W        W80081  18.526  41.981   3.128
11688W        W80082  29.536  22.382   5.147
11689W        W80083   9.705   3.929   1.231
11690W        W80084  30.625   0.211  13.222
11691W        W80085  15.784  24.146  10.698
11692W        W80086   2.064  16.087   0.726
11693W        W80087  29.732  21.007   4.629
11694W        W80088  19.832   2.234   3.240
11695W        W80089   8.710   8.230  13.553
11696W        W80090  23.644   7.014  12.634
11697W        W80091  40.769   9.809   1.300
11698W        W80092  32.524  33.082  11.300
11699W        W80093  36.336  37.543  12.669
11700W        W80094  42.708  41.832   2.874
11701W        W80095  38.013   4.936  13.396
11702W        W80096  31.018  15.608  13.059
11703W        W80097   2.903  10.405  14.275
11704W        W80098   2.872  44.921  14.599
11705W        W80099  24.016   7.734   3.586
11706W        W80100  14.820   9.769   0.491
11707W        W80101  41.019  25.648   1.827
11708W        W80102  34.369   5.638   3.841
11709W        W80103  15.428   6.434   3.628
11710W        W80104  12.654  27.764  10.838
11711W        W80105   4.330  25.022   3.671
11712W        W80106   2.165  35.413  14.988
11713W        W80107  21.438  14.526  11.444
11714W        W80108   6.703  23.410   3.680
11715W        W80109   4.304  18.102  13.952
11716W        W80110  42.182  30.743   5.069
11717W        W80111  28.854  38.111  13.825
11718W        W80112   0.248  20.069  12.529
11719W        W80113  26.701  26.008   2.508
11720W        W80114  29.246  25.106   2.846
11721W        W80115  23.262   1.160   3.447
11722W        W80116  35.458  25.069  13.986
11723W        W80117  32.940   0.716   3.216
11724W        W80118  17.745  28.462   0.332
11725W        W80119  15.817  17.736   3.674
11726W        W80120   6.754  30.009   4.394
11727W        W80121  42.869   7.943  14.936
11728W        W80122  24.933  25.630   3.215
11729W        W80123  24.627   9.731  11.152
11730W        W80124  41.308  30.497  13.522
11731W        W80125   0.483  39.356   2.217
11732W        W80126  10.754  17.762   2.719
11733W        W80127   9.853  14.593   4.393
11734W        W80128  33.376  31.348   4.649
11735W        W80129  35.291  12.198  13.675
11736W        W80130   5.176  28.925  10.531
11737W        W80131  17.623  19.091   0.507
11738W        W80132  44.513  28.646  12.134
11739W        W80133  11.321   4.800   3.726
11740W        W80134   9.697  10.091  11.974
11741W        W80135  18.758  10.984  14.449
11742W        W80136  33.501  35.430   2.304
11743W        W80137  12.830  44.387   4.577
11744W        W80138  25.704  39.825   4.496
11745W        W80139  11.016  38.496   1.195
11746W        W80140   5.609   6.568  14.422
11747W        W80141  42.491   0.503   0.047
11748W        W80142  41.478  18.361  11.678
11749W        W80143  18.073  24.098   4.614
11750W        W80144  21.202  30.146  11.119
11751W        W80145   9.712   5.744   4.061
11752W        W80146  32.550  10.164   0.798
11753W        W80147  35.849  13.907  12.578
11754W        W80148   4.678  21.231  10.102
11755W        W80149  31.520  44.276  11.175
11756W        W80150  17.364   5.852  10.208
11757W        W80151  38.005  41.818   3.258
11758W        W80152  28.419  41.101   4.734
11759W        W80153   0.500  37.808  12.931
11760W        W80154  32.903  26.041   4.648
11761W        W80155   3.325  19.334  13.355
11762W        W80156  29.846  20.068   1.405
11763W        W80157   7.327   9.876   1.545
11764W        W80158  12.351  28.974   3.268
11765W        W80159  28.826  41.844   1.723
11766W        W80160  22.925  19.624  14.442
11767W        W80161  29.345  15.589  13.827
11768W        W80162  11.076   6.696  12.972
11769W        W80163  11.723  38.208   0.586
11770W        W80164  21.331   6.294   4.218
11771W        W80165  24.683   7.851   4.860
11772W        W80166  25.899  23.906   0.696
11773W        W80167  19.491  17.310   2.704
11774W        W80168  29.176   3.298   2.296
11775W        W80169  16.291  28.628   4.068
11776W        W80170  43.357   1.480  11.978
11777W        W80171  36.355   8.561  10.692
11778W        W80172   7.390  28.592  12.899
11779W        W80173  15.686   7.496  13.888
11780W        W80174  27.544  28.246   4.553
11781W        W80175   9.856  15.751  13.313
11782W        W80176   1.947  41.541  12.489
11783W        W80177  11.652  16.494   0.267
11784W        W80178   8.071  27.611   3.600
11785W        W80179  44.001   1.655  11.465
11786W        W80180  26.034  13.510   2.289
11787W        W80181  40.255  28.192  14.308
11788W        W80182  29.714  15.228  13.754
11789W        W80183  17.256  42.343   3.594
11790W        W80184   5.566   5.305   1.774
11791W        W80185  13.816  39.575   4.230
11792W        W80186  26.177  42.310   0.009
11793W        W80187  10.803  24.668   4.073
11794W        W80188   7.264  14.974   2.793
11795W        W80189  15.408  19.198  13.063
11796W        W80190  27.882   0.498   2.706
11797W        W80191   0.798  29.654   1.729
11798W        W80192  27.509  23.227   3.721
11799W        W80193  33.515  21.021   3.188
11800W        W80194   2.780  38.789  14.972
11801W        W80195  11.185   5.676   1.219
11802W        W80196  24.819  14.482  11.411
11803W        W80197  40.974  27.611  14.530
11804W        W80198  21.631  13.839   2.585
11805W        W80199  26.995  12.345   3.813
11806W        W80200  14.102  39.413   5.107
11807W        W80201   0.747   2.178  12.214
11808W        W80202  14.396  21.716  13.364
11809W        W80203   1.265  25.792   4.018
11810W        W80204   8.834  31.464  13.977
11811W        W80205  39.913   9.757  10.786
11812W        W80206   0.390  42.383   1.566
11813W        W80207   3.441  36.815  11.172
11814W        W80208  16.043  25.196  13.415
11815W        W80209  12.233   9.896  14.908
11816W        W80210   0.870  36.075  12.158
11817W        W80211  19.690   0.524   5.060
11818W        W80212  14.281  27.472  11.503
11819W        W80213   0.290  34.457   4.292
11820W        W80214   5.283  21.015   3.609
11821W        W80215  15.500  35.332   1.782
11822W        W80216  34.083  26.599  11.514
11823W        W80217  24.643  28.741  11.592
11824W        W80218   3.153  41.987   2.935
11825W        W80219  44.556  12.741  11.293
11826W        W80220  22.820   5.439  10.686
11827W        W80221  14.706   0.965  13.452
11828W        W80222  44.714  15.231   4.834
11829W        W80223  30.804  34.356   4.028
11830W        W80224   2.235  21.066  14.623
11831W        W80225  38.130   9.346  13.296
11832W        W80226   9.882  33.443  14.046
11833W        W80227  15.910  33.477  12.916
11834W        W80228  37.090   7.719  12.072
11835W        W80229  12.494  44.524  13.995
11836W        W80230  30.177  40.551   4.286
11837W        W80231  29.636  12.426  13.520
11838W        W80232   1.502  34.613  11.612
11839W        W80233  33.651  20.624  12.913
11840W        W80234  12.057  33.545   4.375
11841W        W80235   9.171  44.398   2.881
11842W        W80236  37.051  13.829   3.187
11843W        W80237   6.136   9.040   2.573
11844W        W80238  29.599  11.539  13.605
11845W        W80239  11.820  11.569   0.930
11846W        W80240  17.207  42.101   0.857
11847W        W80241  11.274   0.197   0.129
11848W        W80242  22.815  13.199   3.648
11849W        W80243  17.673  37.396  14.427
11850W        W80244  42.997  40.844   2.694
11851W        W80245  15.331  11.298  11.610
11852W        W80246  24.584  15.593   2.793
11853W        W80247   6.179   4.725  12.219
11854W        W80248   6.259   0.870  11.828
11855W        W80249  14.706  38.861  12.176
11856W        W80250   7.299  30.397  11.984
11857W        W80251  42.594  39.756  14.737
11858W        W80252  33.475   7.217  10.776
11859W        W80253   1.009  11.687  12.902
11860W        W80254  19.964  33.104  10.926
11861W        W80255  35.640   4.351   2.670
11862W        W80256  24.661  16.611  13.292
11863W        W80257   3.285  13.020   1.215
11864W        W80258   9.061   5.189  13.789
11865W        W80259  12.673  17.227  14.046
11866W        W80260  30.857  30.070  14.439
11867W        W80261  44.515   4.402   3.115
11868W        W80262  18.269  13.772   2.408
11869W        W80263   3.032  15.813  11.662
11870W        W80264  20.145  31.467  13.245
11871W        W80265  11.805  24.307   4.058
11872W        W80266  40.066  44.005   2.814
11873W        W80267  40.396  43.851   0.572
11874W        W80268   0.853   6.238  13.644
11875W        W80269   2.759  35.455   4.503
11876W        W80270   1.866   7.726   4.048
11877W        W80271  12.697   7.728   9.900
11878W        W80272  34.404  16.181   2.325
11879W        W80273  18.657   1.928  12.867
11880W        W80274  10.449  28.133   1.837
11881W        W80275  19.523  29.170  10.806
11882W        W80276  24.869   8.885  14.428
11883W        W80277   3.954  17.541  14.703
11884W        W80278   4.368  10.745   0.508
11885W        W80279  13.630  26.573  13.441
11886W        W80280  12.828  20.374  11.896
11887W        W80281   7.756  21.145   0.970
11888W        W80282  37.495  13.326  13.957
11889W        W80283  31.602  35.524   4.426
11890W        W80284  17.360   5.401   4.150
11891W        W80285  23.267   3.412  10.528
11892W        W80286  18.190  40.518   2.685
11893W        W80287   0.974  24.269  13.317
11894W        W80288  31.931  19.058  11.987
11895W        W80289  21.091   3.497   0.307
11896W        W80290   1.215  22.324  14.121
11897W        W80291   2.184  11.755   2.403
11898W        W80292  44.178  22.348   1.676
11899W        W80293  33.873  12.700   3.826
11900W        W80294  13.260  30.171  12.856
11901W        W80295  38.268  21.016   2.701
11902W        W80296  16.837  18.686   3.124
11903W        W80297  10.060  24.052  13.356
11904W        W80298   2.896   8.576  13.770
11905W        W80299  11.094  39.055  11.349
11906W        W80300  31.887   4.535   1.415
11907W        W80301  10.173  22.238   0.957
11908W        W80302  44.286   6.985   0.433
11909W        W80303  23.743  33.588   2.661
11910W        W80304   8.454  12.672  13.126
11911W        W80305  14.633   8.938   1.934
11912W        W80306   0.706  44.942  11.028
11913W        W80307  42.856  35.347   5.426
11914W        W80308  18.650  34.132   3.410
11915W        W80309  27.210  34.943  12.024
11916W        W80310  42.110  28.433   4.229
11917W        W80311   2.857   3.443   0.454
11918W        W80312  41.522   7.828   2.048
11919W        W80313  29.755  40.276  12.401
11920W        W80314  22.476  41.510  13.967
11921W        W80315  30.007  26.061  11.425
11922W        W80316   4.063  17.348   9.934
11923W        W80317  22.792  36.585  12.518
11924W        W80318  36.903   3.414   0.395
11925W        W80319  38.152  44.974   2.330
11926W        W80320  22.308  19.509  13.772
11927W        W80321   1.006  15.743   0.666
11928W        W80322  43.486  26.814  10.672
11929W        W80323  38.147   3.485   1.105
11930W        W80324  39.748  44.909   4.851
11931W        W80325  11.303  17.635  10.935
11932W        W80326  32.852  34.891   1.862
11933W        W80327  10.105  11.113   4.105
11934W        W80328   6.363  12.597   1.435
11935W        W80329  18.292  43.499   2.329
11936W        W80330   7.054  37.109   3.827
11937W        W80331  41.976  33.851  12.344
11938W        W80332  17.234   1.694   2.819
11939W        W80333  41.710  27.064   4.232
11940W        W80334   5.995   5.419  14.860
11941W        W80335  21.160   5.444  12.158
11942W        W80336  11.220  25.517   4.125
11943W        W80337  16.614   3.745   4.576
11944W        W80338  34.405  26.424   4.556
11945W        W80339  19.836  29.534   5.344
11946W        W80340  37.561  32.256   2.940
11947W        W80341  37.398  20.594   3.579
11948W        W80342  14.861  14.830  13.057
11949W        W80343  21.511  25.985  12.921
11950W        W80344  39.847  19.497  13.890
11951W        W80345  28.174  16.697   1.215
11952W        W80346   5.267   6.572   3.689
11953W        W80347   0.724  34.562   4.601
11954W        W80348  24.274  33.188   3.308
11955W        W80349   9.058  18.597   4.250
11956W        W80350  11.752  31.067  13.860
11957W        W80351  35.465   6.155  14.490
11958W        W80352   4.375  35.364  11.882
11959W        W80353  25.944  11.307  11.633
11960W        W80354   7.385  36.441   1.302
11961W        W80355  37.291  12.328  10.808
11962W        W80356  23.833  12.197   2.580
11963W        W80357  15.502  16.158  11.178
11964W        W80358  42.250   0.009  12.918
11965W        W80359  19.390  38.203   9.805
11966W        W80360  41.126  18.203   4.276
11967W        W80361  36.521  10.806   3.305
11968W        W80362  13.857   9.414  10.293
11969W        W80363  24.044   3.452   0.999
11970W        W80364  43.515  42.790  11.509
11971W        W80365  13.112  26.985  14.763
11972W        W80366   9.378  28.723   2.357
11973W        W80367  18.067  19.787   0.309
11974W        W80368  41.975  26.270   0.369
11975W        W80369   4.247  44.969   3.479
11976W        W80370  29.821  26.139   2.522
11977W        W80371  18.975  44.407  11.707
11978W        W80372  40.339  38.091  11.642
11979W        W80373   9.876  40.533   3.248
11980W        W80374   1.747  32.145  13.543
11981W        W80375  10.573  43.386  12.827
11982W        W80376  32.699  39.855  11.170
11983W        W80377   6.020   1.935   3.328
11984W        W80378  34.947  22.480   4.517
11985W        W80379  41.400  31.044  14.721
11986W        W80380  34.822  17.024  13.040
11987W        W80381  21.722  42.512   0.810
11988W        W80382  13.295  12.805  11.072
11989W        W80383  44.435  19.305  12.098
11990W        W80384  20.101   7.180   1.754
11991W        W80385   7.940   8.754  13.436
11992W        W80386  22.668  42.816   4.182
11993W        W80387  14.199  12.082  13.094
11994W        W80388  35.938  15.498   3.534
11995W        W80389   5.242  16.065  11.148
11996W        W80390   1.719   8.989   4.971
11997W        W80391  16.574  27.042  14.240
11998W        W80392  14.293  44.401   5.081
11999W        W80393   1.693  34.592  14.920
12000W        W80394   5.183  21.344  12.128
12001W        W80395  27.934  40.265   2.773
12002W        W80396  27.970   3.406   3.740
12003W        W80397  30.435   2.854  11.034
12004W        W80398   1.726  40.359   4.098
12005W        W80399  36.436   5.981  13.538
12006W        W80400  20.723  10.126  13.916
12007W        W80401  29.136  33.986  11.134
12008W        W80402  26.444  18.573  11.600
12009W        W80403  35.546  42.769   0.477
12010W        W80404   5.622  41.465  11.476
12011W        W80405   2.345  44.493  13.486
12012W        W80406  18.290  43.004  13.055
12013W        W80407  17.011   8.715   4.163
12014W        W80408  10.377  34.240  14.891
12015W        W80409   6.710  12.627  14.314
12016W        W80410  20.501  43.997   2.341
12017W        W80411  16.539  42.697  13.809
12018W        W80412  25.661   9.973   2.837
12019W        W80413  39.935  30.653  13.408
12020W        W80414  42.297   5.529   0.304
12021W        W80415  24.817  20.030   0.296
12022W        W80416   1.445  27.674  11.448
12023W        W80417  43.321   6.355  14.341
12024W        W80418   4.948   3.706  14.329
12025W        W80419   8.976  20.326   3.565
12026W        W80420   0.017  20.221  13.981
12027W        W80421   1.499  12.199   3.381
12028W        W80422  35.962  15.017  12.942
12029W        W80423  22.696  25.190   0.419
12030W        W80424  33.623  40.038  11.980
12031W        W80425  37.660   9.007   3.299
12032W        W80426  22.112  29.649  11.186
12033W        W80427  25.437  42.498  14.361
12034W        W80428  14.811  29.354   1.167
12035W        W80429   3.697  30.434  14.826
12036W        W80430  13.142  34.286  14.411
12037W        W80431  44.442  25.526   0.145
12038W        W80432   6.687  22.928  12.787
12039W        W80433  39.277  21.997  13.408
12040W        W80434  42.974  30.557  11.553
12041W        W80435  29.652  21.578  13.518
12042W        W80436  21.021  27.662  12.227
12043W        W80437   7.662  14.785  12.854
12044W        W80438   5.364  16.851   4.548
12045W        W80439  19.245  25.255  11.165
12046W        W80440   8.441  16.845  11.486
12047W        W80441  42.852  35.415  12.195
12048W        W80442  22.300  26.054   5.015
12049W        W80443  17.681   6.641  11.515
12050W        W80444  14.866  40.314  13.777
12051W        W80445  30.447   9.341  14.138
12052W        W80446   3.740  10.277  14.211
12053W        W80447  23.164   0.381  10.957
12054W        W80448  40.388  32.455   3.263
12055W        W80449  44.326  22.013  12.453
12056W        W80450  28.151  15.567  13.470
12057W        W80451   3.408   2.447  13.008
12058W        W80452  13.169  14.217  12.959
12059W        W80453  32.033  10.673   4.495
12060W        W80454  29.529  34.564   4.620
12061W        W80455  21.846  24.537  10.433
12062W        W80456   2.859  10.106  13.833
12063W        W80457  13.736  22.200   1.910
12064W        W80458  28.239  17.240  13.894
12065W        W80459  44.466  28.453  11.657
12066W        W80460  26.163  38.247  11.635
12067W        W80461  15.259  17.970   4.096
12068W        W80462  41.224  26.131  13.405
12069W        W80463  30.749  18.100  10.787
12070W        W80464   4.353  34.854  14.441
12071W        W80465  25.225  14.338   3.905
12072W        W80466  36.244   1.837   4.355
12073W        W80467  31.410   5.710   2.002
12074W        W80468  23.272  38.767   0.956
12075W        W80469  18.068  19.739   5.018
12076W        W80470  12.894  14.219  11.569
12077W        W80471  27.223  18.773   3.577
12078W        W80472   5.958  22.637   2.152
12079W        W80473  11.438  34.647   3.243
12080W        W80474  17.728  13.724  11.518
12081W        W80475  43.813  18.991   1.685
12082W        W80476  33.076  35.530   1.028
12083W        W80477  43.263  28.633   4.076
12084W        W80478  10.559  25.903   0.880
12085W        W80479  42.701  22.964  14.367
12086W        W80480  36.659   3.726  11.975
12087W        W80481  29.492  39.848  13.793
12088W        W80482  22.183  25.945   0.292
12089W        W80483  20.033  12.244  11.006
12090W        W80484  40.632  12.270  11.419
12091W        W80485  41.523  20.963   1.164
12092W        W80486  19.820  31.348   2.033
12093W        W80487  42.380  16.861   4.500
12094W        W80488  21.874   0.734   1.184
12095W        W80489  33.128  35.970   5.103
12096W        W80490  29.195  39.064   2.704
12097W        W80491  13.795  42.894   4.718
12098W        W80492  36.870  28.080  10.362
12099W        W80493   2.894  32.638  11.203
12100W        W80494  32.390  35.995  14.601
12101W        W80495  38.275  31.578   0.426
12102W        W80496  43.269  34.966  10.766
12103W        W80497  37.401  25.099   2.311
12104W        W80498  32.162  13.436   4.594
12105W        W80499  13.506  40.011   0.070
12106W        W80500  31.482  36.321   1.766
12107W        W80501  15.156  29.849   0.917
12108W        W80502  43.569  40.537   3.775
12109W        W80503  21.118  35.453   0.289
12110W        W80504  11.268  23.282   4.773
12111W        W80505  29.077  29.137  14.882
12112W        W80506  12.153  44.594   4.502
12113W        W80507  36.597  34.194  14.775
12114W        W80508   4.003   0.863  11.038
12115W        W80509  23.992  42.783  10.699
12116W        W80510  32.433  20.768  12.880
12117W        W80511  22.818  27.953  13.600
12118W        W80512  16.960  16.097  14.296
12119W        W80513  24.541  42.586   4.150
12120W        W80514  21.905  44.434   3.716
12121W        W80515  17.834  21.044   1.460
12122W        W80516   0.112  32.208  12.351
12123W        W80517  31.025   7.275   3.121
12124W        W80518  17.701  11.212  14.473
12125W        W80519  37.937  33.198  13.504
12126W        W80520  39.186   1.566   4.244
12127W        W80521  39.717   5.955   4.050
12128W        W80522  31.869  12.758  11.634
12129W        W80523  32.462   0.222   0.932
12130W        W80524  42.990   7.915   2.783
12131W        W80525  35.440   9.353  13.377
12132W        W80526  39.809   9.382  12.920
12133W        W80527  17.340  38.946  13.326
12134W        W80528  11.177  22.132  12.084
12135W        W80529  35.350  30.960  10.637
12136W        W80530  41.678  19.829  10.718
12137W        W80531  13.300  21.489   0.974
12138W        W80532  41.038  19.282  11.136
12139W        W80533  42.357  29.363   1.791
12140W        W80534  42.830  27.188  12.116
12141W        W80535  22.054  10.902   3.195
12142W        W80536  33.271   6.722   0.335
12143W        W80537   6.406  18.319   4.680
12144W        W80538  39.712  42.730  12.939
12145W        W80539  12.768  39.701  12.646
12146W        W80540  18.960   6.305  11.517
12147W        W80541   0.881  16.835   1.340
12148W        W80542  12.927  34.368   4.699
12149W        W80543  14.633  33.655  11.001
12150W        W80544  22.656  32.661  13.267
12151W        W80545   6.763  37.087   4.787
12152W        W80546   0.548  29.969  14.322
12153W        W80547  31.731  27.894  13.336
12154W        W80548  35.099  27.174   2.973
12155W        W80549  32.778  11.297  13.051
12156W        W80550  34.204  42.545   2.096
12157W        W80551  31.951  22.642  13.122
12158W        W80552  12.291  31.101  11.969
12159W        W80553   7.880  11.799  13.867
12160W        W80554  23.672  16.785   0.264
12161W        W80555   5.534  15.383   0.420
12162W        W80556  18.473  28.444   1.356
12163W        W80557  17.595  33.522   4.234
12164W        W80558  22.244  27.679   1.731
12165W        W80559   8.360  44.782  10.677
12166W        W80560  32.281  23.172  13.139
12167W        W80561   4.417  31.365  11.599
12168W        W80562  14.027   7.977  12.561
12169W        W80563  40.839  33.244  12.318
12170W        W80564   2.757  42.057   1.417
12171W        W80565  30.653  19.611  10.493
12172W        W80566   9.276  39.805  10.892
12173W        W80567  18.257  32.259   4.193
12174W        W80568  24.183  37.885  11.920
12175W        W80569  32.354  17.577  13.496
12176W        W80570  14.691  13.359  11.693
12177W        W80571  36.965  29.353  10.666
12178W        W80572   6.361  40.271   3.143
12179W        W80573  23.164  38.070   1.445
12180W        W80574   6.725   5.858  10.331
12181W        W80575  28.763  33.416   4.384
12182W        W80576  10.180  24.986   0.097
12183W        W80577  37.077   0.291   0.750
12184W        W80578  32.684  32.782  13.811
12185W        W80579   5.322  38.759   3.865
12186W        W80580  37.534  33.036  14.508
12187W        W80581  14.755   9.245  12.452
12188W        W80582  24.773  33.968  14.930
12189W        W80583  13.303  16.495   3.099
12190W        W80584  26.443  15.690   3.112
12191W        W80585  35.350  35.110   3.110
12192W        W80586   5.962  17.664   2.327
12193W        W80587  25.112  17.828  13.734
12194W        W80588   5.377  12.897  11.630
12195W        W80589  18.197  15.073   3.804
12196W        W80590   9.887  26.009  10.502
12197W        W80591  24.474  16.147   1.491
12198W        W80592  39.554  13.730  10.405
12199W        W80593   4.230  29.400  11.402
12200W        W80594  16.016  34.673  10.914
12201W        W80595  18.068  16.627   2.256
12202W        W80596  10.584  27.704   0.301
12203W        W80597  44.000  25.653  14.359
12204W        W80598  22.937  42.988  13.393
12205W        W80599  19.102  37.405   1.035
12206W        W80600   0.847   1.205  11.988
12207W        W80601  20.156  17.087   0.003
12208W        W80602  44.725   0.736  14.401
12209W        W80603   1.442  42.790   2.151
12210W        W80604  39.991  20.294  11.229
12211W        W80605  44.505  38.345   2.726
12212W        W80606  44.362   1.348  11.245
12213W        W80607  29.857  16.379  13.183
12214W        W80608  42.024  28.587  10.512
12215W        W80609  36.408  17.979  12.503
12216W        W80610   4.752   3.044  12.342
12217W        W80611  10.249  34.620  14.075
12218W        W80612  31.849  27.345   1.157
12219W        W80613  33.074  19.042  13.883
12220W        W80614  40.982  24.101   2.421
12221W        W80615  10.551   2.541   0.895
12222W        W80616  18.470  11.190   1.504
12223W        W80617  26.987  31.485  12.087
12224W        W80618  43.849  26.237   2.446
12225W        W80619  30.714  22.404  13.846
12226W        W80620  18.589  22.075  13.372
12227W        W80621   8.371  44.001   3.120
12228W        W80622  10.268   6.013  10.583
12229W        W80623  18.764  44.306   0.330
12230W        W80624  41.341  13.794   0.713
12231W        W80625  41.969   5.197   2.009
12232W        W80626  18.540  43.952   2.420
12233W        W80627  34.614  11.250  13.064
12234W        W80628  25.738  32.403  12.472
12235W        W80629  19.392   4.885  13.325
12236W        W80630  21.620  19.987   3.822
12237W        W80631  16.046  24.533   4.166
12238W        W80632  27.003  12.350   4.351
12239W        W80633   9.340  38.885  11.969
12240W        W80634  39.763  12.353   4.218
12241W        W80635  17.536   6.589  14.564
12242W        W80636  44.410  13.776  12.982
12243W        W80637  30.886  29.524   0.929
12244W        W80638  14.528   3.296  11.452
12245W        W80639  31.999  23.406  13.510
12246W        W80640   2.829  39.067   3.682
12247W        W80641  27.342  26.785  11.090
12248W        W80642  24.018  23.494   1.848
12249W        W80643  15.690  19.064  10.481
12250W        W80644  43.265  30.265   0.830
12251W        W80645  24.937  33.530  13.388
12252W        W80646  39.566   1.714  11.944
12253W        W80647  19.763   3.773  13.560
12254W        W80648  29.255  33.402  12.623
12255W        W80649   1.574  14.640   2.392
12256W        W80650   9.351  24.635  12.076
12257W        W80651  13.321   8.353   3.262
12258W        W80652   9.452  23.639   5.092
12259W        W80653  17.608   6.745   3.844
12260W        W80654   0.195  10.487  11.172
12261W        W80655  25.228  14.784  11.227
12262W        W80656  38.551  41.834  14.294
12263W        W80657  13.169  26.625   1.201
12264W        W80658  41.961  24.733  14.409
12265W        W80659   2.669  19.675  12.445
12266W        W80660  30.580  29.000   5.066
12267W        W80661  42.222  10.364  11.185
12268W        W80662   6.830  22.000   3.658
12269W        W80663  38.451   8.643  13.846
12270W        W80664  43.120  40.799   4.092
12271W        W80665   9.151  22.057  11.576
12272W        W80666  41.544  14.570   0.783
12273W        W80667   0.234  41.232  13.464
12274W        W80668  30.637   4.177  14.894
12275W        W80669  36.383  15.591  10.583
12276W        W80670  29.267  36.964   0.266
12277W        W80671   1.228  35.058   1.593
12278W        W80672  18.018  16.145   0.816
12279W        W80673  17.096  36.365   4.285
12280W        W80674  28.526  12.164  14.494
12281W        W80675  25.179   8.403  13.582
12282W        W80676   5.364   1.163   1.805
12283W        W80677  26.492  16.579   2.803
12284W        W80678   3.216  33.608  14.237
12285W        W80679  14.696   5.250  11.118
12286W        W80680  21.278  39.626  13.488
12287W        W80681   6.005  20.163   1.297
12288W        W80682  13.841  30.837  12.139
12289W        W80683  23.175  29.990  12.889
12290W        W80684  36.840  21.280   3.223
12291W        W80685   7.152  40.100  13.520
12292W        W80686  17.627  19.575  12.903
12293W        W80687   6.542  38.147   0.275
12294W        W80688  11.279  41.045   4.789
12295W        W80689  36.923  28.186  13.845
12296W        W80690  29.092  20.487  13.865
12297W        W80691   4.850  13.210  14.067
12298W        W80692  35.642  38.572   0.841
12299W        W80693  19.681  35.323  14.259
12300W        W80694  40.417  29.159  12.581
12301W        W80695   6.372  36.491   2.398
12302W        W80696  29.217  26.406   0.488
12303W        W80697  43.552  33.896  13.940
12304W        W80698   7.746  27.959  11.961
12305W        W80699   9.203  27.570   4.801
12306W        W80700  18.013  26.465   3.330
12307W        W80701  20.169  20.652  10.641
12308W        W80702  30.309  19.779   4.386
12309W        W80703  12.564   4.936  14.875
12310W        W80704   1.811  38.816   1.884
12311W        W80705  39.531  15.895   1.232
12312W        W80706  30.344  40.069   1.804
12313W        W80707   2.451  19.846   3.819
12314W        W80708   7.318   1.469   1.190
12315W        W80709  32.849  28.210   2.580
12316W        W80710  28.102  11.796   0.053
12317W        W80711  30.044  11.372  11.573
12318W        W80712  23.148  26.590   2.878
12319W        W80713  28.904   6.699   2.376
12320W        W80714  29.840  29.665  13.776
12321W        W80715  30.572  43.519  14.418
12322W        W80716   3.811  12.644  13.786
12323W        W80717  37.496  10.695   3.399
12324W        W80718  26.948  32.962  11.409
12325W        W80719  24.896  41.737  14.988
12326W        W80720  41.446  14.647   2.336
12327W        W80721  12.906  34.098   3.118
12328W        W80722  10.584  30.598   5.062
12329W        W80723  19.745  18.129   2.413
12330W        W80724  17.641  35.411  13.987
12331W        W80725  32.975  39.487  10.680
12332W        W80726   3.980  28.120  13.118
12333W        W80727  32.106   7.759   2.933
12334W        W80728  19.285  20.754   4.138
12335W        W80729  24.713  11.826  14.392
12336W        W80730  10.059   2.940  12.540
12337W        W80731   1.001  19.732   3.635
12338W        W80732   6.162  28.414  11.655
12339W        W80733  25.576  12.236  14.315
12340W        W80734  28.241  24.986   3.734
12341W        W80735  10.810  44.473  11.038
12342W        W80736   4.222  28.495  13.406
12343W        W80737   3.771  27.219   0.827
12344W        W80738  44.948  11.094   0.310
12345W        W80739  20.546  20.133   1.014
12346W        W80740  19.933  33.531  11.210
12347W        W80741  43.235  16.139  11.794
12348W        W80742  32.427  16.988  11.047
12349W        W80743  40.624  31.543  11.469
12350W        W80744  10.382  42.855   4.048
12351W        W80745  22.966  36.977   2.744
12352W        W80746  25.507   9.148   3.217
12353W        W80747  25.178   5.870   1.223
12354W        W80748  33.995  34.308   0.100
12355W        W80749  37.950   4.224  13.138
12356W        W80750  36.825  32.358   2.186
12357W        W80751  19.668  26.079  14.276
12358W        W80752   9.053  27.295   0.928
12359W        W80753  40.437   4.088  14.725
12360W        W80754  32.120  32.125   4.931
12361W        W80755  25.323   9.626  12.024
12362W        W80756  33.409  39.893   0.898
12363W        W80757   4.862  16.511   3.684
12364W        W80758   5.990  39.553   1.719
12365W        W80759  10.515  17.964   4.283
12366W        W80760  10.359   7.785   4.645
12367W        W80761  25.084  32.103   1.742
12368W        W80762  34.548  38.332   4.079
12369W        W80763  11.744  23.574   0.187
12370W        W80764  39.853  25.223   3.264
12371W        W80765   9.348  24.561   4.432
12372W        W80766  14.636  27.481  12.690
12373W        W80767  14.823  41.504   2.176
12374W        W80768  21.095   9.191  13.850
12375W        W80769  34.304  37.287   2.507
12376W        W80770  18.256  34.181  13.434
12377W        W80771  11.683  36.808  12.978
12378W        W80772  40.967  26.161   4.771
12379W        W80773   4.229  37.672  14.562
12380W        W80774  22.578  29.515   9.875
12381W        W80775  27.095   4.041   0.301
12382W        W80776   5.255   7.337   0.431
12383W        W80777   1.019   0.232  14.325
12384W        W80778   8.563  17.621   0.933
12385W        W80779  37.571   5.641  10.490
12386W        W80780  18.237  44.551   2.377
12387W        W80781  36.974  13.313  14.436
12388W        W80782  42.479  38.574   4.620
12389W        W80783  40.925  44.327   0.520
12390W        W80784   5.353   0.228  13.861
12391W        W80785  24.997  27.628  14.906
12392W        W80786  25.723   4.995   0.398
12393W        W80787  17.257   5.824  11.187
12394W        W80788   8.221  27.152  11.514
12395W        W80789  27.778  32.563   1.552
12396W        W80790  21.069   2.202   1.836
12397W        W80791  35.534  15.460  13.948
12398W        W80792  38.714  17.812   0.913
12399W        W80793  16.927   8.525  11.972
12400W        W80794   7.343  44.352   0.421
12401W        W80795   7.184  24.488  12.932
12402W        W80796  28.662  22.711  14.079
12403W        W80797  16.087   9.756   0.992
12404W        W80798  29.698   1.527   4.533
12405W        W80799  39.219  12.790   2.677
12406W        W80800  25.682  23.744   4.533
12407W        W80801  19.560  35.832  13.394
12408W        W80802   1.227  21.216   4.410
12409W        W80803  21.657   1.197   3.193
12410W        W80804  10.243   5.313  10.997
12411W        W80805   9.935  18.711  13.439
12412W        W80806  17.138  31.567  10.863
12413W        W80807   8.284   9.127   5.038
12414W        W80808   4.808  34.382  13.417
12415W        W80809   7.523  30.379  11.020
12416W        W80810  15.600   0.967  14.788
12417W        W80811  24.035   0.959   1.956
12418W        W80812  42.775  40.554   1.698
12419W        W80813   7.773  38.582   2.355
12420W        W80814   3.992  22.597  11.797
12421W        W80815  17.075  24.143   2.459
12422W        W80816  42.659  22.166  14.930
12423W        W80817  34.469  31.802  11.220
12424W        W80818  11.588  35.123   1.436
12425W        W80819  30.724  35.756  14.801
12426W        W80820  23.606   2.261  11.096
12427W        W80821  22.517  27.945  11.598
12428W        W80822  33.202  12.982   2.098
12429W        W80823   5.377  32.975   0.383
12430W        W80824  43.903   6.048  13.906
12431W        W80825  15.533   3.006  10.397
12432W        W80826  10.210  34.568  10.312
12433W        W80827  29.610  28.019  13.853
12434W        W80828  17.326  29.461  12.019
12435W        W80829  44.535  22.008   1.260
12436W        W80830  13.191  26.453  14.334
12437W        W80831  10.716  31.610   1.283
12438W        W80832  20.747  17.099  14.321
12439W        W80833  30.482   0.685  13.454
12440W        W80834  16.309   1.324   2.830
12441W        W80835   1.837  43.698  11.171
12442W        W80836   9.314   9.163   1.547
12443W        W80837   0.065  43.012   0.919
12444W        W80838  22.550  36.892   1.926
12445W        W80839  37.421  22.613   4.534
12446W        W80840  10.639  19.100  13.920
12447W        W80841  22.573  26.221  11.066
12448W        W80842  37.467   2.908   2.233
12449W        W80843  39.567  13.191   0.747
12450W        W80844  26.472  12.359   0.716
12451W        W80845   0.839  15.297   4.850
12452W        W80846  44.805  43.248   4.215
12453W        W80847  17.028  21.854   1.417
12454W        W80848  29.974  22.245   1.305
12455W        W80849  13.887   4.487   2.305
12456W        W80850  28.582   2.933   0.692
12457W        W80851  11.091   2.214   3.876
12458W        W80852   4.321  41.429  10.920
12459W        W80853  35.968  39.726   2.210
12460W        W80854  44.306  33.477   0.729
12461W        W80855  22.630  30.896  12.932
12462W        W80856  38.722  32.682   3.124
12463W        W80857  30.024  15.177   1.276
12464W        W80858  14.853   7.335   3.759
12465W        W80859  31.373  34.925   0.882
12466W        W80860  31.305  35.038   4.314
12467W        W80861  32.811  34.044   0.471
12468W        W80862  43.340  29.180   0.335
12469W        W80863  17.108  15.279  13.034
12470W        W80864  21.762  17.247  13.336
12471W        W80865  26.137  12.724  12.973
12472W        W80866  35.369  43.898   4.912
12473W        W80867  41.854  11.870  11.523
12474W        W80868  43.362   4.735  13.634
12475W        W80869   0.225  36.065   4.692
12476W        W80870   4.391   5.962  14.557
12477W        W80871  11.638  30.631   9.901
12478W        W80872   5.903  31.249   2.332
12479W        W80873  14.101  41.830  13.512
12480W        W80874  43.916   3.759   1.617
12481W        W80875  24.602  14.111   4.626
12482W        W80876   8.657  31.021   4.799
12483W        W80877  19.710  39.341   0.757
12484W        W80878  32.662  16.726  11.438
12485W        W80879   9.220  28.922  11.045
12486W        W80880  27.527   6.170  10.334
12487W        W80881  44.984  13.243  14.965
12488W        W80882   1.311  22.207  14.663
12489W        W80883  13.752  26.997  12.640
12490W        W80884  16.163  44.894  14.944
12491W        W80885  42.601  11.483   0.642
12492W        W80886  22.506  10.215   5.038
12493W        W80887  28.725   8.285   1.400
12494W        W80888  21.162  27.682   3.134
12495W        W80889  18.643  13.375  13.380
12496W        W80890  23.644   0.053   4.125
12497W        W80891  34.042  29.370  14.021
12498W        W80892  44.044   5.068  13.984
12499W        W80893  43.323  35.909  10.716
12500W        W80894  29.436  29.906  13.541
12501W        W80895  10.668  25.098   1.433
12502W        W80896  11.848  37.058   3.261
12503W        W80897  22.112  13.006  14.391
12504W        W80898  44.249   8.241  12.479
12505W        W80899  17.885  26.952   3.201
12506W        W80900  34.960  36.123   2.167
12507W        W80901  25.261  18.864   4.224
12508W        W80902  26.218  40.543  12.530
12509W        W80903   0.442   4.403   3.405
12510W        W80904   6.285  10.085   1.753
12511W        W80905  30.571  16.680  10.913
12512W        W80906   6.412   5.440  12.907
12513W        W80907  34.682  42.444   2.839
12514W        W80908   0.096  34.084  14.850
12515W        W80909  25.518   1.271  11.201
12516W        W80910  31.859  17.048   1.799
12517W        W80911  12.522   4.417  14.899
12518W        W80912  32.677  19.270   4.557
12519W        W80913  10.385   9.511  13.744
12520W        W80914  34.145  43.422  14.958
12521W        W80915  17.308  20.204  10.647
12522W        W80916  27.502  18.852  10.643
12523W        W80917  42.329  17.656   3.100
12524W        W80918  33.076  30.699  13.943
12525W        W80919  38.504   4.816   2.769
12526W        W80920  13.218  44.727  13.315
12527W        W80921  13.334   9.896  14.061
12528W        W80922  21.198  15.594   3.017
12529W        W80923  11.661  37.039  14.781
12530W        W80924  29.501  35.997   3.659
12531W        W80925  17.142  25.156  10.276
12532W        W80926  17.307  26.173   3.814
12533W        W80927  20.499   7.449   3.801
12534W        W80928  43.761  10.915   1.691
12535W        W80929  44.876  29.684  12.795
12536W        W80930  18.072   4.323  12.463
12537W        W80931   0.314  35.316  11.776
12538W        W80932  13.189   3.020  12.316
12539W        W80933  28.529   1.669   4.053
12540W        W80934  30.362  17.258  14.010
12541W        W80935  21.713  20.600   1.628
12542W        W80936   4.837  18.289  10.684
12543W        W80937   1.538  17.505  12.930
12544W        W80938   4.164  41.371  12.512
12545W        W80939  12.017  14.608   4.757
12546W        W80940  41.858  32.627   2.101
12547W        W80941  38.857  37.528  13.912
12548W        W80942  27.650  12.200  13.913
12549W        W80943   3.550  36.749   2.652
12550W        W80944  43.778  19.586  13.965
12551W        W80945   8.622  35.425   3.248
12552W        W80946  14.680   3.541   2.757
12553W        W80947  25.156  14.144  14.368
12554W        W80948  35.886  28.925  12.828
12555W        W80949   0.982  19.074   4.927
12556W        W80950  28.809  40.419  11.168
12557W        W80951  38.404  31.003  10.748
12558W        W80952   5.239  15.225  14.444
12559W        W80953  38.893  44.872   0.680
12560W        W80954  28.024  36.163  14.461
12561W        W80955  34.636  23.237  14.999
12562W        W80956  26.970  17.388   3.474
12563W        W80957  21.993  15.716   0.756
12564W        W80958  42.767  17.301   4.160
12565W        W80959  15.116  34.016   2.950
12566W        W80960  43.466  33.929   4.022
12567W        W80961  24.085  31.896   2.281
12568W        W80962   5.716  40.615  11.635
12569W        W80963  20.119  15.730  10.208
12570W        W80964  12.158  23.622   2.699
12571W        W80965  31.900  15.165   0.833
12572W        W80966  35.035  42.228  12.813
12573W        W80967   0.974  41.574  13.827
12574W        W80968   7.179   7.369   1.427
12575W        W80969   4.373  38.099  13.003
12576W        W80970  30.582  37.783   2.195
12577W        W80971  32.127   3.465   0.805
12578W        W80972   0.302  42.993  14.460
12579W        W80973  15.176  26.157   4.440
12580W        W80974  23.178  12.816  14.049
12581W        W80975  44.871   3.955   4.516
12582W        W80976  32.867  23.611   1.844
12583W        W80977   8.820  12.998   4.034
12584W        W80978  36.705   8.169   3.778
12585W        W80979  10.595  19.853   2.359
12586W        W80980  37.374  34.221   0.264
12587W        W80981  13.670  40.856  12.000
12588W        W80982  17.615  12.102   4.896
12589W        W80983  27.473  22.637  14.543
12590W        W80984  39.270   3.191   3.528
12591W        W80985  25.419  28.498   2.190
12592W        W80986   0.463   4.039  14.585
12593W        W80987   7.239  43.832  13.834
12594W        W80988   4.414  32.524   3.504
12595W        W80989  25.670  33.563  11.670
12596W        W80990  32.550  22.658  14.270
12597W        W80991  40.257  22.462  11.585
12598W        W80992  12.023  20.212  11.643
12599W        W80993  23.327  15.629  13.487
12600W        W80994  39.282  33.130   0.822
12601W        W80995  21.485  33.964   3.733
12602W        W80996   3.162  25.508   1.886
12603W        W80997   1.500  44.900  13.175
12604W        W80998  43.486  30.990   3.225
12605W        W80999  34.007   7.081  10.821
12606W        W81000  13.417  44.403   0.713
12607W        W81001  38.329  11.620  13.917
12608W        W81002  30.928  35.249   5.159
12609W        W81003   0.848  43.543  11.948
12610W        W81004  13.157  40.115   3.661
12611W        W81005  32.459   2.536   0.937
12612W        W81006   5.172  39.938  12.498
12613W        W81007   3.263  32.429   0.267
12614W        W81008  14.980  33.969   3.869
12615W        W81009   6.230  12.679  14.094
12616W        W81010  24.085   1.712   1.836
12617W        W81011  29.643  12.241  10.377
12618W        W81012  13.372  29.615  12.078
12619W        W81013  44.755  34.976   4.914
12620W        W81014  26.148  36.363  11.513
12621W        W81015  34.998   0.497   4.017
12622W        W81016  21.612  22.077   4.396
12623W        W81017  33.802  15.644  10.570
12624W        W81018   5.470  10.573   2.765
12625W        W81019  14.259  23.459  11.124
12626W        W81020   5.999  28.834  12.589
12627W        W81021  28.049  40.363  12.394
12628W        W81022   6.761   5.824   1.981
12629W        W81023  14.553  25.219   3.100
12630W        W81024   2.185  16.214  11.585
12631W        W81025  42.331  43.450  13.542
12632W        W81026  41.455   7.257  14.884
12633W        W81027  13.840  36.567   3.584
12634W        W81028   1.882  12.987  12.034
12635W        W81029  12.251  40.070  14.785
12636W        W81030  29.587  29.000  14.877
12637W        W81031   5.820  43.502   4.533
12638W        W81032   9.242   6.182   2.036
12639W        W81033  30.456   0.101   3.681
12640W        W81034  37.126  30.545   3.779
12641W        W81035  36.891  12.938  11.177
12642W        W81036   6.690  27.501   4.099
12643W        W81037   1.672   5.798  12.088
12644W        W81038  19.283   4.050   4.643
12645W        W81039  14.151  28.513  13.587
12646W        W81040  16.052   3.965  13.829
12647W        W81041  12.052   2.955   2.824
12648W        W81042  35.852   8.212  11.823
12649W        W81043   4.910   4.918  14.021
12650W        W81044  29.917  38.632   1.039
12651W        W81045  11.578  43.067  13.001
12652W        W81046  14.229   9.629   4.120
12653W        W81047  34.398   1.867   1.781
12654W        W81048  32.627  36.844   3.268
12655W        W81049  10.816  12.358  11.662
12656W        W81050  37.311  29.154  14.050
12657W        W81051  22.973   8.273   0.286
12658W        W81052   8.388   0.253   4.448
12659W        W81053  13.373  29.129  10.788
12660W        W81054  21.198  42.356   2.248
12661W        W81055  10.781  21.965  11.773
12662W        W81056  16.578  41.767   5.006
12663W        W81057  24.027  27.627   2.332
12664W        W81058  26.699  44.469   3.319
12665W        W81059  24.944  10.934  12.531
12666W        W81060  31.792   9.990   5.015
12667W        W81061  16.166  32.307  11.036
12668W        W81062  24.754  11.267  12.142
12669W        W81063  36.426  25.480  12.296
12670W        W81064  16.845  11.736   1.869
12671W        W81065  44.333  36.114  11.716
12672W        W81066  34.748  37.506   1.756
12673W        W81067  24.886  36.404  13.514
12674W        W81068  20.405  18.312   5.165
12675W        W81069  21.538  16.605   4.835
12676W        W81070   0.396  18.685   2.413
12677W        W81071  11.395  44.840   2.796
12678W        W81072   9.348   1.880   4.516
12679W        W81073  18.143  42.469   0.978
12680W        W81074  42.505  21.172  11.987
12681W        W81075  40.032  24.983   2.849
12682W        W81076   2.896  42.118  11.169
12683W        W81077  10.557  24.198   3.293
12684W        W81078  30.392   6.194  14.960
12685W        W81079  12.339  33.693  14.439
12686W        W81080  14.539   6.356   2.346
12687W        W81081   4.962  30.681  10.729
12688W        W81082  24.964  15.889  13.889
12689W        W81083  34.030  25.506  10.539
12690W        W81084   6.212  23.769  13.586
12691W        W81085  34.179  27.525   1.439
12692W        W81086  16.544  29.048  11.495
12693W        W81087  19.809  25.455  10.727
12694W        W81088   0.818  44.946  10.513
12695W        W81089  32.050  44.182  13.958
12696W        W81090   7.226   5.327   5.112
12697W        W81091  44.346  18.574  11.532
12698W        W81092  38.006  41.278  11.994
12699W        W81093  25.742  14.544   3.137
12700W        W81094  28.649  15.575  12.514
12701W        W81095  40.784  11.657   4.603
12702W        W81096   1.511  12.307   0.002
12703W        W81097  19.566  25.656  11.151
12704W        W81098  15.269  28.486   1.558
12705W        W81099  30.916  11.705   1.386
12706W        W81100  31.080   4.514   1.420
12707W        W81101   5.159  15.178   0.845
12708W        W81102  29.991  11.747   4.622
12709W        W81103  25.243  43.500   4.588
12710W        W81104  27.760  23.565  14.360
12711W        W81105  19.173  37.904   0.800
12712W        W81106  10.672  28.024   2.297
12713W        W81107  34.789  26.984   0.749
12714W        W81108   8.182  24.363   2.279
12715W        W81109   9.139  38.933  10.482
12716W        W81110  38.932  10.672  11.028
12717W        W81111  40.857  43.012   1.397
12718W        W81112  25.771  31.791  13.536
12719W        W81113  15.169   5.940   0.704
12720W        W81114   7.192   0.676   0.803
12721W        W81115   9.652  35.182  14.204
12722W        W81116  26.890  12.770   4.902
12723W        W81117  21.696   7.553   0.949
12724W        W81118   4.166  17.465   4.909
12725W        W81119  19.455  12.623  12.503
12726W        W81120  28.902  14.641  10.973
12727W        W81121  43.771  29.529   4.322
12728W        W81122   5.489  39.369  14.904
12729W        W81123  26.665  23.703  10.754
12730W        W81124  10.483  30.793  13.465
12731W        W81125  16.769  41.390  14.346
12732W        W81126   7.793  40.012   5.347
12733W        W81127  42.308  13.780  14.325
12734W        W81128  19.136  15.650   0.816
12735W        W81129   8.360  18.684  13.938
12736W        W81130   5.392  38.511   2.351
12737W        W81131  12.692  13.734   1.751
12738W        W81132  41.937   7.778  11.570
12739W        W81133  10.338   9.643   1.451
12740W        W81134  21.130   6.354   1.552
12741W        W81135   3.467   9.314   0.266
12742W        W81136  36.003  35.169  13.325
12743W        W81137  24.552   9.153   4.005
12744W        W81138  15.608  24.166   2.846
12745W        W81139  39.623  34.020   1.361
12746W        W81140  31.389  14.157   1.242
12747W        W81141  32.674   1.454   2.627
12748W        W81142  18.494  10.558  14.294
12749W        W81143   4.932  25.502   1.396
12750W        W81144  23.915  34.130   0.384
12751W        W81145   7.679  32.627  13.577
12752W        W81146  21.770  31.024   4.673
12753W        W81147  25.001  15.195   3.902
12754W        W81148  34.073   5.359  12.587
12755W        W81149  13.808  35.799   0.829
12756W        W81150   6.602  22.579   1.372
12757W        W81151  16.652  39.960  14.650
12758W        W81152  40.685  41.389  11.662
12759W        W81153  18.021  17.326   0.214
12760W        W81154   4.276  32.997  10.646
12761W        W81155  34.933  44.385   1.039
12762W        W81156  38.828  33.438   3.651
12763W        W81157   8.360   7.394   2.405
12764W        W81158  21.991  12.476  14.377
12765W        W81159  21.128  14.636   5.165
12766W        W81160   2.828  29.285   1.505
12767W        W81161  14.787   5.470  12.395
12768W        W81162  20.868  42.886   2.657
12769W        W81163  22.685  42.537  13.809
12770W        W81164   3.786   2.451   4.828
12771W        W81165   2.178  14.211  14.514
12772W        W81166   7.953   4.505  12.415
12773W        W81167  12.586   6.157  10.958
12774W        W81168  24.540  11.138   2.898
12775W        W81169   0.600   5.054  14.318
12776W        W81170  22.572  43.729  10.991
12777W        W81171  31.391  29.803   0.296
12778W        W81172  44.614  16.694   0.808
12779W        W81173  10.488  17.391  12.829
12780W        W81174  36.361  27.643   1.885
12781W        W81175  21.788  41.681   2.359
12782W        W81176  12.730  41.548  11.641
12783W        W81177  21.611  41.417   0.066
12784W        W81178  17.343  31.376   2.805
12785W        W81179  22.945  26.570   4.618
12786W        W81180  33.905  11.203   1.440
12787W        W81181  42.507  15.839  11.579
12788W        W81182  37.512  19.742   3.850
12789W        W81183  14.900  36.590  11.373
12790W        W81184  40.859  36.913   3.834
12791W        W81185  23.187   6.436  13.015
12792W        W81186  20.324   6.418   2.830
12793W        W81187  29.566   6.784   0.331
12794W        W81188   5.869  33.555   0.867
12795W        W81189  40.058   8.115  12.589
12796W        W81190   2.883  13.066  12.040
12797W        W81191  16.175  28.724   3.169
12798W        W81192  12.165  14.425   1.365
12799W        W81193   8.908   3.264  12.791
12800W        W81194  23.599  25.762  11.189
12801W        W81195  36.559   4.196  11.623
12802W        W81196  13.722  29.487  11.678
12803W        W81197  32.865  20.779  12.586
12804W        W81198  33.494  26.848  14.563
12805W        W81199  11.223  27.702   1.229
12806W        W81200  19.821  23.899   4.768
12807W        W81201  25.925   4.027   2.439
12808W        W81202   1.720  15.746  13.256
12809W        W81203   8.304  14.166   3.981
12810W        W81204   1.834  33.426  11.596
12811W        W81205  37.545  13.852  13.998
12812W        W81206  23.334  13.737  13.397
12813W        W81207  27.745  38.575  12.245
12814W        W81208  24.563  25.756  11.951
12815W        W81209  21.020  17.776   3.472
12816W        W81210  23.536  42.836   0.639
12817W        W81211  20.551  33.656  12.079
12818W        W81212   0.884  40.573   0.475
12819W        W81213  43.279  34.511   5.402
12820W        W81214   8.157  29.065  11.102
12821W        W81215  42.652  21.002  14.280
12822W        W81216  29.829  22.247  11.152
12823W        W81217   7.287  41.028   1.853
12824W        W81218  29.514  16.335  12.443
12825W        W81219   7.415   1.258  11.970
12826W        W81220  38.591   1.415  10.733
12827W        W81221  14.640   2.530   2.864
12828W        W81222  19.464  20.039  13.080
12829W        W81223  11.881  28.096   5.016
12830W        W81224  29.617   8.822   1.495
12831W        W81225  42.505  11.894   2.741
12832W        W81226   0.791  43.973  12.563
12833W        W81227  38.237  44.508   1.767
12834W        W81228   2.965  20.520  13.053
12835W        W81229  13.266   7.212   0.780
12836W        W81230  23.588   1.023   2.215
12837W        W81231  11.082  43.434   2.761
12838W        W81232  15.737  32.393   2.850
12839W        W81233  28.491  29.243  11.165
12840W        W81234  41.057  39.386   0.811
12841W        W81235   5.461  26.685   0.782
12842W        W81236  34.608  12.357   1.768
12843W        W81237  23.162   1.106   1.661
12844W        W81238   8.481   8.216  14.239
12845W        W81239   8.254  38.876   3.145
12846W        W81240  38.694  10.144   3.936
12847W        W81241  42.071  25.962  13.758
12848W        W81242  33.326  14.801  12.971
12849W        W81243  22.572   8.305   3.603
12850W        W81244  29.672   9.334  11.954
12851W        W81245  33.117   5.983  14.961
12852W        W81246  35.466  42.547   0.953
12853W        W81247  41.853  17.370  13.067
12854W        W81248   0.598  44.838   4.862
12855W        W81249   2.058  19.081  12.172
12856W        W81250   8.835   8.178   4.341
12857W        W81251  27.102  10.129   2.770
12858W        W81252  22.958  25.730   3.416
12859W        W81253   3.467  40.711  11.976
12860W        W81254  11.069  23.518   3.580
12861W        W81255   4.456  18.550  14.119
12862W        W81256  16.221  10.714   4.223
12863W        W81257  38.148  19.582   1.333
12864W        W81258  15.239  21.366   4.118
12865W        W81259  26.185  40.721   1.379
12866W        W81260   2.672  36.328  14.791
12867W        W81261  22.616  43.279   0.969
12868W        W81262  11.271   3.163   2.236
12869W        W81263  10.181   4.133  11.582
12870W        W81264  22.076   7.875   0.416
12871W        W81265  12.700   8.174   4.831
12872W        W81266   4.648  35.561   5.014
12873W        W81267  13.094  10.348   4.340
12874W        W81268   2.298  18.962  14.816
12875W        W81269  32.972  42.477   4.013
12876W        W81270   5.717  17.488   1.892
12877W        W81271  33.579  14.097   0.377
12878W        W81272  35.134  19.569   3.683
12879W        W81273  33.514  28.054   4.403
12880W        W81274  34.182  25.023   3.290
12881W        W81275  39.010  38.814  10.354
12882W        W81276  36.340  18.533   2.440
12883W        W81277  38.762  28.071  13.760
12884W        W81278   5.724  37.024   0.980
12885W        W81279  39.313   7.546   0.002
12886W        W81280  34.632  43.490  13.839
12887W        W81281  19.040   1.854  11.006
12888W        W81282  32.104  24.138  11.587
12889W        W81283  30.525  22.988  12.595
12890W        W81284  20.174  24.045   2.845
12891W        W81285   6.705  38.853  11.584
12892W        W81286  24.195  14.315   3.724
12893W        W81287   2.304  15.788   4.179
12894W        W81288  35.973   7.026   4.177
12895W        W81289  38.927  44.932  11.530
12896W        W81290  32.997  24.493   3.311
12897W        W81291  27.458  36.641   1.424
12898W        W81292   7.170  22.285  11.561
12899W        W81293  31.545  26.298  10.433
12900W        W81294  34.043  35.824  13.559
12901W        W81295  40.655  32.902   1.230
12902W        W81296  29.349  16.245   0.969
12903W        W81297  38.175  16.507   1.701
12904W        W81298  36.944  35.723   4.533
12905W        W81299  24.534  42.238  13.003
12906W        W81300  10.923  34.951  12.843
12907W        W81301  17.216  23.991  13.353
12908W        W81302  39.310   5.235  13.452
12909W        W81303   6.752  21.094  10.975
12910W        W81304  14.611  37.948   9.797
12911W        W81305  30.587  15.283  13.019
12912W        W81306  13.754  44.817   2.972
12913W        W81307  36.882  12.785   0.339
12914W        W81308  12.033  40.096  10.311
12915W        W81309  27.536   9.661  10.542
12916W        W81310  40.974  19.681  12.643
12917W        W81311  32.441  41.972   2.845
12918W        W81312   0.255   6.810   1.372
12919W        W81313   9.424  34.949  13.347
12920W        W81314  25.127  30.435  10.594
12921W        W81315   7.319   0.370  11.124
12922W        W81316  33.906  32.209  10.021
12923W        W81317  18.698   8.601   0.784
12924W        W81318  43.967  37.218   2.240
12925W        W81319  24.960  28.634  12.539
12926W        W81320   6.339  40.108  14.487
12927W        W81321  13.065  30.484  11.081
12928W        W81322  38.820  32.437  14.457
12929W        W81323  26.748  19.076   4.288
12930W        W81324   0.391  17.410  13.840
12931W        W81325   3.691  11.722  10.974
12932W        W81326  25.969  13.715  14.331
12933W        W81327  13.233  23.994   1.748
12934W        W81328   0.726  33.609   4.710
12935W        W81329  29.400  24.506  12.951
12936W        W81330  22.032   9.588   2.612
12937W        W81331  10.798  26.633   0.829
12938W        W81332   1.604  29.251  10.757
12939W        W81333  17.387  13.581  14.966
12940W        W81334  27.236  28.431  13.076
12941W        W81335   6.412  41.001   4.650
12942W        W81336   3.927  13.389  13.594
12943W        W81337  19.271  31.968  14.029
12944W        W81338   5.956  31.399  14.342
12945W        W81339  13.269  33.083  10.791
12946W        W81340   0.823  38.343   1.926
12947W        W81341   3.852  27.447   4.812
12948W        W81342  16.260   4.670  13.574
12949W        W81343  12.627   8.755   2.774
12950W        W81344  34.319  42.506  10.614
12951W        W81345   8.940  35.948   0.810
12952W        W81346  14.054  11.658   4.483
12953W        W81347  18.822  40.804  12.886
12954W        W81348  37.487  43.048   0.965
12955W        W81349  36.381  31.345   4.186
12956W        W81350   1.323  13.338   0.819
12957W        W81351  12.373  11.394  13.913
12958W        W81352  23.407  13.364   4.373
12959W        W81353   2.063  22.143   1.943
12960W        W81354   2.981  38.495  11.498
12961W        W81355   0.877   3.239   3.692
12962W        W81356   9.621  14.838   0.806
12963W        W81357  26.684  20.816  13.028
12964W        W81358  22.800   8.697  11.043
12965W        W81359  23.125   0.236  14.596
12966W        W81360   6.625  18.565  13.309
12967W        W81361  26.627  39.107   0.273
12968W        W81362  21.190  31.963  13.021
12969W        W81363  26.865   2.761  13.468
12970W        W81364  33.702   4.144  14.207
12971W        W81365  33.689  36.013   0.395
12972W        W81366  18.498   2.380  11.643
12973W        W81367  36.876  31.405   0.936
12974W        W81368  24.005  40.375  11.117
12975W        W81369  33.057  38.864   2.755
12976W        W81370   7.731   1.811   1.928
12977W        W81371  42.812   0.815   4.669
12978W        W81372  22.195  26.061  11.368
12979W        W81373  34.861   0.811   2.314
12980W        W81374  22.681  24.827   0.008
12981W        W81375  28.593   1.802  13.357
12982W        W81376  33.021   1.831   2.379
12983W        W81377  16.629  19.541   4.667
12984W        W81378   6.686  32.516   4.114
12985W        W81379   0.332  26.595  13.919
12986W        W81380  42.025  39.414  13.540
12987W        W81381  20.924  11.062   4.262
12988W        W81382   0.423  21.908   0.924
12989W        W81383  12.685  18.716   1.043
12990W        W81384  18.555   1.954  11.141
12991W        W81385  26.065   2.184  12.087
12992W        W81386  22.596   2.640   1.755
12993W        W81387  40.584  12.384  13.855
12994W        W81388  41.791  28.880   1.744
12995W        W81389  18.862  20.152   3.580
12996W        W81390  42.287  23.059   3.988
12997W        W81391  24.063   7.555   3.076
12998W        W81392   5.903   3.668   0.384
12999W        W81393   7.900  21.188   2.383
13000W        W81394   7.260  36.917  14.091
13001W        W81395  18.311  19.650   4.577
13002W        W81396  25.666  13.625   4.368
13003W        W81397  28.847  23.171   0.676
13004W        W81398  41.031  36.640  12.903
13005W        W81399  11.273  35.117   0.992
13006W        W81400   5.458  42.589  14.286
13007W        W81401   3.983   0.828   4.800
13008W        W81402  13.529  10.800   1.353
13009W        W81403  32.390  35.821   3.242
13010W        W81404  28.671  17.685   1.340
13011W        W81405  26.626  37.394  13.631
13012W        W81406  12.172  32.520   2.350
13013W        W81407  18.226  39.479  11.308
13014W        W81408  30.002   2.462  12.995
13015W        W81409  24.138   5.862   4.201
13016W        W81410   3.374  37.526  13.294
13017W        W81411  38.250   9.673   2.254
13018W        W81412  41.800  32.611   2.626
13019W        W81413  39.998  12.737  11.096
13020W        W81414   6.060  41.217   1.773
13021W        W81415  24.633   4.803   3.676
13022W        W81416  28.216  27.634   0.841
13023W        W81417  41.458  17.366   4.548
13024W        W81418  22.006  38.867   2.190
13025W        W81419  30.250  11.289   4.780
13026W        W81420  25.557  27.485  10.403
13027W        W81421  44.007  13.124  11.600
13028W        W81422  30.142   4.162  14.460
13029W        W81423  18.811  19.775  13.824
13030W        W81424  14.063  41.623  11.454
13031W        W81425  24.548  36.684  14.379
13032W        W81426  33.740  15.103   0.219
13033W        W81427   2.929  13.876   4.368
13034W        W81428  12.270  23.024  11.571
13035W        W81429  21.502  44.469  13.816
13036W        W81430  22.798   5.250   2.312
13037W        W81431   1.372  40.880  12.151
13038W        W81432  27.894   4.826  14.678
13039W        W81433  42.361  10.453   1.755
13040W        W81434  44.266  26.396   5.071
13041W        W81435   9.246  26.132  13.594
13042W        W81436  39.309  35.502  14.430
13043W        W81437  34.382  36.795   3.225
13044W        W81438  42.724  14.807  12.136
13045W        W81439  43.707  33.017   3.695
13046W        W81440  21.753  38.070   3.776
13047W        W81441   8.259  28.092   3.779
13048W        W81442  44.456  33.931   3.624
13049W        W81443   1.873  12.563  11.045
13050W        W81444   2.126   6.471  12.467
13051W        W81445  25.652   2.236   1.379
13052W        W81446  28.100  41.948   0.663
13053W        W81447  11.941  33.984   2.199
13054W        W81448  11.902  44.818   2.617
13055W        W81449   6.078  35.995   0.507
13056W        W81450  30.935  20.343  11.479
13057W        W81451  42.457  28.299   2.819
13058W        W81452   3.251   1.967   2.252
13059W        W81453   8.226  38.130  12.041
13060W        W81454  13.215   6.338   0.216
13061W        W81455  33.038  29.470   3.156
13062W        W81456   8.695   6.985   3.677
13063W        W81457  36.001   0.932  13.447
13064W        W81458  10.943  12.393   2.826
13065W        W81459   2.952  33.996   4.699
13066W        W81460  42.280  31.326  14.845
13067W        W81461  29.083  34.964  11.008
13068W        W81462  21.005  19.322  11.143
13069W        W81463  10.801  42.986   2.755
13070W        W81464  22.175  42.397  11.548
13071W        W81465  34.544  29.885   4.246
13072W        W81466  43.941  43.512   0.075
13073W        W81467  12.166  41.690  11.073
13074W        W81468  27.804   7.759  12.429
13075W        W81469  33.613  38.272  13.356
13076W        W81470   5.842  29.731  13.978
13077W        W81471  21.141  14.924  13.462
13078W        W81472  41.049   2.961   2.257
13079W        W81473  37.337  20.758   4.087
13080W        W81474   0.368  16.155  13.262
13081W        W81475  24.947  41.840  11.065
13082W        W81476   4.906  13.243   2.155
13083W        W81477  36.093  36.445   0.783
13084W        W81478  42.222  17.174   3.288
13085W        W81479   8.139  34.280   2.726
13086W        W81480  36.853  17.072   3.129
13087W        W81481  26.162   3.028   2.171
13088W        W81482  24.262   2.297   3.483
13089W        W81483  26.152  15.360  12.330
13090W        W81484  42.940  39.245  11.564
13091W        W81485  17.116  40.944   0.943
13092W        W81486  15.299  40.253   4.047
13093W        W81487  35.492  30.260   2.151
13094W        W81488  15.637   2.360  14.889
13095W        W81489  18.805  43.575  14.848
13096W        W81490  23.095  30.218  10.312
13097W        W81491   2.242  12.913  13.332
13098W        W81492  31.606   3.207  14.247
13099W        W81493  35.902  30.655   4.449
13100W        W81494  27.136  27.662  12.074
13101W        W81495   3.287  31.028  13.849
13102W        W81496  27.151  40.961   4.226
13103W        W81497   9.613   8.419  11.436
13104W        W81498   2.501  29.615  10.666
13105W        W81499  14.204  35.901   1.297
13106W        W81500  10.006  39.232   1.173
13107W        W81501  21.231  29.685   1.742
13108W        W81502  14.861  18.247  11.909
13109W        W81503  27.161   4.215   1.333
13110W        W81504  22.492   0.793   2.417
13111W        W81505  21.958  31.922  14.439
13112W        W81506  13.956  24.921  11.239
13113W        W81507  22.535  15.765   3.511
13114W        W81508  33.077  14.171   1.449
13115W        W81509  12.839   5.139   4.556
13116W        W81510  21.583  24.260  14.945
13117W        W81511  23.925  23.744  14.525
13118W        W81512  19.769   0.793   3.195
13119W        W81513  28.920  28.202  10.573
13120W        W81514  27.017  41.328   1.275
13121W        W81515  34.407  35.111  14.931
13122W        W81516  42.055   9.064   3.308
13123W        W81517   7.700  43.286   0.994
13124W        W81518  29.402  31.329   2.171
13125W        W81519   2.469  25.587  11.141
13126W        W81520  42.340  41.759   1.800
13127W        W81521  17.613  19.575  10.682
13128W        W81522  27.661  11.683   4.770
13129W        W81523  22.540  16.456   2.286
13130W        W81524  16.545  33.128  12.286
13131W        W81525   2.726   4.148  13.244
13132W        W81526  30.421  32.609  13.008
13133W        W81527  24.977  38.486   2.853
13134W        W81528  44.945  34.080   4.392
13135W        W81529  25.633  25.130  14.808
13136W        W81530  30.903  15.700  13.918
13137W        W81531  30.143  37.978  12.986
13138W        W81532  10.680  27.007  11.984
13139W        W81533  19.592  44.468  14.974
13140W        W81534  22.769  20.495  11.914
13141W        W81535  21.757  12.980   1.175
13142W        W81536  28.971   1.843   3.863
13143W        W81537  17.462  41.317   0.897
13144W        W81538  43.301   7.450  13.865
13145W        W81539  22.341  23.104  13.969
13146W        W81540  16.574  30.957  11.516
13147W        W81541  35.267   9.645  11.843
13148W        W81542   8.749  22.212   0.037
13149W        W81543  10.147  15.307   0.297
13150W        W81544  36.462  40.254   0.843
13151W        W81545  39.289  29.143   3.856
13152W        W81546  42.406  21.268   3.837
13153W        W81547  23.980  30.129  11.491
13154W        W81548  32.618   8.771   2.260
13155W        W81549  15.139   2.279   0.019
13156W        W81550  34.342  42.904  14.842
13157W        W81551  10.025  18.135   4.300
13158W        W81552  16.611  34.142   0.511
13159W        W81553  30.990   7.550   2.673
13160W        W81554   6.907   4.943   0.744
13161W        W81555   7.635  21.118   2.827
13162W        W81556  34.073   8.939   3.277
13163W        W81557  37.967   7.607   0.040
13164W        W81558  16.764  31.982  13.803
13165W        W81559  16.775  31.959  11.517
13166W        W81560   9.878  10.213  11.425
13167W        W81561  20.496  35.490   3.741
13168W        W81562   8.285  12.096   0.017
13169W        W81563   8.853  43.287   1.627
13170W        W81564  13.309  21.228  11.218
13171W        W81565  37.454  27.283   4.315
13172W        W81566   3.668  13.135   3.416
13173W        W81567  24.998  23.417  10.909
13174W        W81568  34.160  16.131  11.700
13175W        W81569   6.567  21.264   2.290
13176W        W81570   7.280   5.400   2.630
13177W        W81571   0.601   9.221   0.264
13178W        W81572  39.990  32.028   0.731
13179W        W81573   7.886  31.379  13.770
13180W        W81574  37.478   5.401  14.950
13181W        W81575  41.770  18.014  10.968
13182W        W81576   8.125  41.595  13.009
13183W        W81577  36.914  10.110   2.905
13184W        W81578  35.331  19.012  14.415
13185W        W81579  27.180  33.403  11.213
13186W        W81580  17.684  18.108   0.403
13187W        W81581  33.518   5.889   2.687
13188W        W81582  29.915   6.885   5.097
13189W        W81583  40.640  39.069   0.880
13190W        W81584  33.491  26.944  11.560
13191W        W81585  26.206   6.717  11.100
13192W        W81586  43.018  34.085  14.790
13193W        W81587   2.396  25.310  11.577
13194W        W81588  34.095  21.685  12.083
13195W        W81589   1.317   5.243  12.850
13196W        W81590  34.768   2.479   0.271
13197W        W81591   8.492   9.260  14.308
13198W        W81592  25.604  24.254   0.423
13199W        W81593  15.785  35.153   3.513
13200W        W81594  22.250   3.937   0.667
13201W        W81595   2.650  22.533   2.406
13202W        W81596   4.853  31.714   0.387
13203W        W81597   9.592  16.223   0.828
13204W        W81598  15.289  36.388   0.902
13205W        W81599   1.084  44.962  13.496
13206W        W81600  27.146  26.132  13.242
13207W        W81601  38.298  26.384  11.731
13208W        W81602  20.639  30.103   4.371
13209W        W81603  28.631   9.925   3.186
13210W        W81604  33.415  33.523   1.515
13211W        W81605  38.328  15.874  14.272
13212W        W81606  34.660  25.300  11.133
13213W        W81607   0.420   2.997  13.003
13214W        W81608  10.347  12.523  11.551
13215W        W81609  40.422  23.414  10.004
13216W        W81610  34.973   2.032   0.002
13217W        W81611   0.685  20.313   2.939
13218W        W81612  20.505  35.276   4.204
13219W        W81613   0.677  34.059  13.062
13220W        W81614  34.325   8.321   4.093
13221W        W81615  14.229  38.348   0.269
13222W        W81616  20.253  16.818   2.680
13223W        W81617  43.459  23.145   2.432
13224W        W81618  41.886  25.127   4.535
13225W        W81619  17.056  20.605   3.447
13226W        W81620  10.366   0.499  10.397
13227W        W81621  16.533  10.975   1.415
13228W        W81622  26.546  33.625   1.939
13229W        W81623  42.341  13.529   2.164
13230W        W81624  20.642  27.474  11.953
13231W        W81625  27.964  10.901  10.407
13232W        W81626  25.692  38.411  13.397
13233W        W81627  23.581  36.232   3.837
13234W        W81628  26.958  37.702  12.924
13235W        W81629  29.016   2.914  14.527
13236W        W81630   7.914  10.651  11.027
13237W        W81631  38.852  43.284  11.650
13238W        W81632  43.287  27.148   4.588
13239W        W81633  28.378  13.694  13.426
13240W        W81634  11.567  44.980   0.489
13241W        W81635   6.714   3.812  13.282
13242W        W81636  34.387  26.181   3.693
13243W        W81637   8.175  33.915   0.466
13244W        W81638  21.177  10.617   4.280
13245W        W81639  24.183   8.478  11.081
13246W        W81640   5.446  19.826   2.021
13247W        W81641  39.020  39.753  10.720
13248W        W81642  40.435  18.504  11.147
13249W        W81643  17.845  44.879  12.519
13250W        W81644  29.331  20.163   1.304
13251W        W81645  11.372   0.690  11.057
13252W        W81646  30.561  32.716   4.074
13253W        W81647  34.904  41.002   1.454
13254W        W81648  14.073  15.931   0.430
13255W        W81649   2.532   5.385  13.419
13256W        W81650  40.894  38.887   1.840
13257W        W81651  27.730  11.210   0.248
13258W        W81652   7.916   7.738   3.817
13259W        W81653   8.695  27.619   4.746
13260W        W81654  41.244   5.336   2.197
13261W        W81655   4.375  25.524   4.656
13262W        W81656   4.744  17.526   2.786
13263W        W81657  13.822  25.511   4.170
13264W        W81658  12.914  13.395  10.811
13265W        W81659  27.306  31.177  12.438
13266W        W81660  37.822   7.736  14.556
13267W        W81661  37.709  12.626  14.747
13268W        W81662  38.461   1.955  10.596
13269W        W81663  36.402  13.230   2.781
13270W        W81664  19.281  31.568  13.013
13271W        W81665   0.434  26.117  11.756
13272W        W81666  11.739  19.122   0.469
13273W        W81667  30.092  40.516  10.747
13274W        W81668  41.355  17.528  11.196
13275W        W81669   6.420  26.571   2.207
13276W        W81670  17.697  10.507   2.225
13277W        W81671  35.296  35.259   2.120
13278W        W81672  20.811  29.625   3.313
13279W        W81673  36.425  18.701   1.944
13280W        W81674   0.542  23.517   4.129
13281W        W81675  27.167  30.608  13.760
13282W        W81676  11.398  28.985  10.606
13283W        W81677  42.035  24.507  10.763
13284W        W81678  12.296   9.576   2.315
13285W        W81679   0.965  20.804   0.292
13286W        W81680  10.979  29.067   3.626
13287W        W81681  27.780  13.956  11.545
13288W        W81682  37.085  11.074   0.948
13289W        W81683  10.131  17.623   4.211
13290W        W81684  30.720   3.816   1.987
13291W        W81685  37.691  19.234   1.397
13292W        W81686  25.168  20.978  12.882
13293W        W81687  31.159  10.646   4.137
13294W        W81688   7.616   1.700  12.935
13295W        W81689  31.940  44.082   3.670
13296W        W81690  24.669  23.711   1.930
13297W        W81691  30.237   1.278   2.388
13298W        W81692  36.422  33.833   0.901
13299W        W81693  20.705   5.924   4.265
13300W        W81694   6.482  38.100   3.894
13301W        W81695  10.540  26.757   0.314
13302W        W81696  20.812  19.178  14.341
13303W        W81697  10.548  15.662  10.595
13304W        W81698  24.662  13.340  13.405
13305W        W81699  37.490  15.070  13.501
13306W        W81700   2.531  15.161  12.410
13307W        W81701  14.677   3.364  12.397
13308W        W81702  23.541   7.646  10.966
13309W        W81703  39.041  33.882   0.032
13310W        W81704  28.103  23.316  13.612
13311W        W81705  37.918  35.827  11.108
13312W        W81706  35.057  12.376   2.415
13313W        W81707  28.711  13.117  10.458
13314W        W81708   0.571  36.058   3.623
13315W        W81709   9.383  33.982   1.726
13316W        W81710  34.923   6.916   1.118
13317W        W81711  31.634  35.604   4.959
13318W        W81712   0.007   1.955   4.727
13319W        W81713  24.283   8.818   1.277
13320W        W81714  42.992  24.702  13.426
13321W        W81715  24.759  43.174  11.170
13322W        W81716   8.986   4.757   4.128
13323W        W81717  34.935  11.122   0.548
13324W        W81718  21.605  10.242  13.672
13325W        W81719  26.201  21.078  13.085
13326W        W81720  27.157   1.999  10.586
13327W        W81721  25.630   1.500   0.923
13328W        W81722  38.441  21.883   2.906
13329W        W81723  33.621  35.965  14.330
13330W        W81724  12.524   5.206   3.727
13331W        W81725  44.380  44.969   0.525
13332W        W81726   6.729  17.217  10.746
13333W        W81727  24.782   3.275   2.712
13334W        W81728  19.053   9.162   3.671
13335W        W81729  44.294  28.436   0.802
13336W        W81730  33.937  14.870  14.399
13337W        W81731  29.139   3.492  12.892
13338W        W81732  15.837  18.705   2.905
13339W        W81733  21.955   1.923   1.863
13340W        W81734  13.813  24.235   2.526
13341W        W81735  22.863  43.843  13.017
13342W        W81736  20.060  40.052   2.587
13343W        W81737  34.393  14.828  13.935
13344W        W81738  38.529  26.446  14.914
13345W        W81739  17.030  26.117   1.897
13346W        W81740  16.681   8.259  14.254
13347W        W81741  38.843  43.380  13.144
13348W        W81742  39.973  38.816   4.955
13349W        W81743  27.931  15.274   2.336
13350W        W81744   4.012  25.694  12.433
13351W        W81745  29.721   6.014  11.360
13352W        W81746  13.657   3.850  13.331
13353W        W81747  17.942   0.369   4.656
13354W        W81748   7.421  12.095   0.816
13355W        W81749  20.923  12.543  10.510
13356W        W81750  29.595  25.775  12.351
13357W        W81751  20.654   2.223  11.581
13358W        W81752   5.018  21.824   3.603
13359W        W81753  42.004  11.784  14.010
13360W        W81754  39.602  25.196   2.128
13361W        W81755  25.616   6.218   2.372
13362W        W81756  28.064  29.481   1.759
13363W        W81757  41.369  29.733  12.954
13364W        W81758  13.851  33.067   3.884
13365W        W81759   3.381   7.826   3.041
13366W        W81760  42.847  27.874   4.624
13367W        W81761   9.082  15.011   0.343
13368W        W81762  41.988  31.798   0.747
13369W        W81763  28.143  29.893   3.160
13370W        W81764   3.381  39.353   1.374
13371W        W81765  30.144  17.057   0.931
13372W        W81766  34.594  35.855  14.372
13373W        W81767  31.111  34.426   0.729
13374W        W81768  23.180  43.913  14.334
13375W        W81769   5.282  19.365  12.062
13376W        W81770  37.984   7.879  12.555
13377W        W81771  14.284  35.808  13.562
13378W        W81772  21.225  14.055  11.571
13379W        W81773  30.170   6.215  13.223
13380W        W81774  28.576   7.157  13.526
13381W        W81775  32.913   2.564  13.330
13382W        W81776   4.838  25.706   3.689
13383W        W81777   4.668  20.784  10.850
13384W        W81778  23.713   7.810  11.414
13385W        W81779  27.935  14.811  13.876
13386W        W81780  37.410  14.189   3.351
13387W        W81781  22.746   8.662  14.311
13388W        W81782  11.174  31.157   0.790
13389W        W81783  11.649  34.759   2.774
13390W        W81784  12.867  28.946  11.559
13391W        W81785  31.045  27.455   4.775
13392W        W81786  42.860   7.889   1.876
13393W        W81787  14.513  27.606   2.591
13394W        W81788  10.823  11.515   1.404
13395W        W81789  30.576  39.099   2.917
13396W        W81790   5.681  22.825  10.903
13397W        W81791  40.947  23.050   4.714
13398W        W81792  24.551  42.194   0.776
13399W        W81793  35.112   0.292   0.776
13400W        W81794  26.816  17.354  13.375
13401W        W81795  40.563   1.726  14.776
13402W        W81796   7.256  33.357  14.362
13403W        W81797  33.369  24.226  12.102
13404W        W81798  26.036  29.677   0.767
13405W        W81799  18.483  11.848  11.075
13406W        W81800  36.152  40.540  14.012
13407W        W81801  37.512  32.798  12.458
13408W        W81802  28.451   4.312  10.916
13409W        W81803  37.693  19.502   3.371
13410W        W81804  27.524  18.264   1.997
13411W        W81805  13.095  22.716   3.428
13412W        W81806  31.208  23.153  13.088
13413W        W81807   1.056  15.045  10.605
13414W        W81808   0.746  20.704  10.516
13415W        W81809   0.344  24.239   1.641
13416W        W81810  15.032  37.632   0.411
13417W        W81811   2.876  42.805  13.436
13418W        W81812  37.225  25.538  12.539
13419W        W81813   5.838  34.643  10.697
13420W        W81814  34.644   2.841  14.046
13421W        W81815  32.426  18.168  12.515
13422W        W81816  40.434  23.040   1.498
13423W        W81817  23.225  22.808  12.104
13424W        W81818  16.690  17.501   2.738
13425W        W81819   9.029  22.539   3.569
13426W        W81820   7.843   4.583   0.454
13427W        W81821  42.233  20.990  11.577
13428W        W81822  10.340  15.851  12.058
13429W        W81823   5.724  16.419   3.315
13430W        W81824  34.886  18.970  14.021
13431W        W81825  10.319  43.445   4.734
13432W        W81826  13.895  43.975   0.326
13433W        W81827  24.711  43.229  13.954
13434W        W81828  25.040  37.207  12.017
13435W        W81829   9.273  17.112   4.605
13436W        W81830  28.321   1.450  10.362
13437W        W81831  36.066  17.673   3.843
13438W        W81832  41.193  14.961  12.117
13439W        W81833  27.506   3.803  13.043
13440W        W81834   9.054  35.205   0.261
13441W        W81835  12.919  31.672  14.382
13442W        W81836  34.820  30.622   4.547
13443W        W81837  30.910  12.206   3.202
13444W        W81838  25.666  36.077  12.882
13445W        W81839  10.209  25.073  14.111
13446W        W81840  23.911  13.109  11.352
13447W        W81841  30.437  37.949   3.351
13448W        W81842  31.986  38.553  11.867
13449W        W81843  32.143  38.759   2.158
13450W        W81844   9.464   6.967  13.125
13451W        W81845  23.551  30.992   4.240
13452W        W81846  38.420  13.737  12.148
13453W        W81847  20.623  16.292   9.848
13454W        W81848  30.716  14.160  10.820
13455W        W81849  10.467  29.553   1.639
13456W        W81850  37.202  11.530   1.180
13457W        W81851  13.584  40.807  13.064
13458W        W81852  40.984  11.577   3.643
13459W        W81853  17.182  22.366   5.294
13460W        W81854   6.035   8.386   1.707
13461W        W81855  42.804  42.896   3.169
13462W        W81856  32.902  42.787  10.655
13463W        W81857   2.284   7.482   3.857
13464W        W81858  32.103  33.157   4.109
13465W        W81859  17.209  18.788   4.908
13466W        W81860   4.017  26.390   5.574
13467W        W81861  43.361  20.620   1.163
13468W        W81862  32.344  42.466   3.403
13469W        W81863  15.315  18.047   5.052
13470W        W81864  10.418  31.961   3.737
13471W        W81865  38.096  19.033   4.095
13472W        W81866  39.515  30.062   3.702
13473W        W81867  39.308   2.334   4.577
13474W        W81868  12.392   3.831  13.902
13475W        W81869  28.014  14.574  14.341
13476W        W81870  41.397  18.901   3.244
13477W        W81871   7.699  25.705  11.547
13478W        W81872  11.151  28.556  10.697
13479W        W81873   5.882  35.589   1.287
13480W        W81874  27.358   5.945  12.475
13481W        W81875  25.224  16.350  13.804
13482W        W81876  37.593   1.810   1.380
13483W        W81877  29.460  19.183  12.858
13484W        W81878  32.986  19.477   2.115
13485W        W81879   9.092  20.572   4.136
13486W        W81880  19.160  38.500   2.346
13487W        W81881  10.652  19.495  14.805
13488W        W81882  12.244   1.916   4.088
13489W        W81883  11.362   6.837   0.382
13490W        W81884  40.609  43.444   1.260
13491W        W81885   2.310  25.528   2.418
13492W        W81886  25.697  30.466  11.677
13493W        W81887  11.120  32.394   3.097
13494W        W81888  20.094  22.062  11.695
13495W        W81889  12.340  36.731  14.958
13496W        W81890  34.599  15.702  11.028
13497W        W81891  19.142  42.938  11.922
13498W        W81892  25.853  32.286   0.178
13499W        W81893  28.071  32.658  11.972
13500W        W81894  18.825   2.336   4.296
13501W        W81895  41.518  11.612   0.077
13502W        W81896  20.523  21.100  13.785
13503W        W81897  12.378  14.098  11.525
13504W        W81898   4.694  39.426   0.464
13505W        W81899  41.263  42.398  11.674
13506W        W81900  24.172  18.134   4.617
13507W        W81901  38.304  42.100  14.792
13508W        W81902   7.698  36.537  12.070
13509W        W81903  40.977  37.564  12.987
13510W        W81904  40.376  11.398   1.371
13511W        W81905  16.777   2.748   4.576
13512W        W81906  26.659  19.545  13.385
13513W        W81907  40.388  11.923   1.395
13514W        W81908   2.555  32.581  13.574
13515W        W81909  27.229  38.528  12.387
13516W        W81910  38.345  25.034  11.844
13517W        W81911  39.559  20.290   4.050
13518W        W81912  32.414  14.674  11.851
13519W        W81913  39.226  27.180  14.634
13520W        W81914  17.113  39.723  11.655
13521W        W81915  22.606   0.397   1.274
13522W        W81916  28.885   8.459  13.937
13523W        W81917  38.204   4.680  12.594
13524W        W81918   1.932  14.767  10.643
13525W        W81919  38.425   3.341  14.698
13526W        W81920  23.605  25.702   0.329
13527W        W81921  28.017   8.091  12.845
13528W        W81922  24.227  13.091  13.556
13529W        W81923   7.883  44.932   0.891
13530W        W81924  17.056  38.505  13.512
13531W        W81925  34.453  11.874   1.659
13532W        W81926  36.833   7.242   3.838
13533W        W81927   2.099  22.365  13.043
13534W        W81928   7.424  41.745   3.138
13535W        W81929  33.948  10.325  13.509
13536W        W81930  32.955   2.923  12.919
13537W        W81931  33.499  23.747   4.170
13538W        W81932   8.450   0.419  13.055
13539W        W81933   9.138   6.306  13.002
13540W        W81934  44.512   7.170   0.010
13541W        W81935   8.925  33.078   0.832
13542W        W81936  36.589  15.566  12.399
13543W        W81937  44.548  36.176  10.185
13544W        W81938   0.806  25.087  13.516
13545W        W81939   6.386   1.284   1.998
13546W        W81940  30.675  33.455  11.176
13547W        W81941  23.997  39.371  13.047
13548W        W81942  30.211  20.067   0.350
13549W        W81943  21.361  15.376  13.389
13550W        W81944   1.772  15.554  12.083
13551W        W81945  41.655   3.838   1.510
13552W        W81946  22.731  33.471  11.622
13553W        W81947  39.470  23.472  13.099
13554W        W81948  13.155   2.384  12.845
13555W        W81949  13.632  25.255   2.272
13556W        W81950  27.493  41.255  13.395
13557W        W81951  22.149  44.765   0.351
13558W        W81952  29.477  26.644  12.008
13559W        W81953   1.767  18.510  10.543
13560W        W81954  35.385  29.446  13.429
13561W        W81955   2.568  44.270  11.524
13562W        W81956  17.965  37.604  14.026
13563W        W81957  14.212  34.176  11.656
13564W        W81958  37.461  27.145   1.690
13565W        W81959  42.578  32.973  14.059
13566W        W81960  37.555  41.814   4.550
13567W        W81961   1.951   8.449  14.930
13568W        W81962  38.545  22.195  12.988
13569W        W81963  36.924  27.492  12.475
13570W        W81964  15.212   3.526  13.566
13571W        W81965   4.005  20.012  14.922
13572W        W81966   7.134  15.130  11.508
13573W        W81967   4.033  20.173  11.168
13574W        W81968  37.017  33.602  14.760
13575W        W81969  39.446  27.039   2.737
13576W        W81970  35.594  27.585  12.685
13577W        W81971  43.264  21.596  12.084
13578W        W81972  36.876  35.050   3.337
13579W        W81973  30.084  19.977   3.834
13580W        W81974  31.375   6.279   1.372
13581W        W81975  36.663  30.300   3.930
13582W        W81976   3.468  30.509   4.955
13583W        W81977   5.902  10.441  14.414
13584W        W81978  14.851  18.407   0.744
13585W        W81979  41.305  23.680   0.731
13586W        W81980  34.586  18.533   1.317
13587W        W81981  39.749  20.043  10.836
13588W        W81982  42.262  25.072   4.150
13589W        W81983  44.973  37.909   1.968
13590W        W81984  21.068  25.012   4.481
13591W        W81985  38.404   5.782   2.904
13592W        W81986   5.515   3.945  12.953
13593W        W81987  20.747  11.708   0.357
13594W        W81988  32.073  37.941  11.712
13595W        W81989  34.579  10.335   4.048
13596W        W81990  22.939  25.086   4.180
13597W        W81991   0.240  26.817  10.398
13598W        W81992  11.454  12.858   3.563
13599W        W81993  22.315  13.613  10.146
13600W        W81994  20.449  39.410   1.822
13601W        W81995   2.358   2.647  13.816
13602W        W81996  44.913  24.664   1.241
13603W        W81997  30.700  30.580   0.301
13604W        W81998   5.570  11.217   1.899
13605W        W81999  19.836  24.428   2.847
13606W        W82000  16.719   6.490  11.342
13607W        W82001   6.853   4.957  14.876
13608W        W82002  22.686  22.714  13.969
13609W        W82003  33.516  41.364   0.708
13610W        W82004  17.649  25.215  12.337
13611W        W82005   4.444  35.791   0.704
13612W        W82006  17.376  23.923   5.191
13613W        W82007  11.712   0.777  11.992
13614W        W82008   4.754  36.522  12.328
13615W        W82009  15.246  44.650  13.769
13616W        W82010  13.865  32.828  14.882
13617W        W82011   0.106  37.597   5.123
13618W        W82012  20.726  35.843  12.311
13619W        W82013  21.123  11.413   3.862
13620W        W82014  23.456   2.522   3.235
13621W        W82015  13.690  14.503   3.512
13622W        W82016   9.302  35.473  13.952
13623W        W82017  44.288   3.239  10.563
13624W        W82018  38.625  27.069   3.697
13625W        W82019   0.900  41.431   3.010
13626W        W82020   4.281  15.111   4.115
13627W        W82021  14.847  11.061   4.423
13628W        W82022   7.091  21.284   1.662
13629W        W82023  40.805  23.132   4.186
13630W        W82024  26.571  18.659   4.042
13631W        W82025   1.791   8.076   2.703
13632W        W82026  20.103  20.997  13.455
13633W        W82027  14.927   8.714  14.976
13634W        W82028   3.363  29.193   2.653
13635W        W82029  42.320  41.437  12.838
13636W        W82030  17.323  14.888   0.317
13637W        W82031  27.343   6.474  14.343
13638W        W82032  36.642  32.805   3.745
13639W        W82033  16.970  17.219  12.858
13640W        W82034  28.582  24.223  14.309
13641W        W82035   8.803  30.936  14.061
13642W        W82036   3.363  30.432   3.625
13643W        W82037  21.825  44.964  11.512
13644W        W82038  39.773  19.589  14.973
13645W        W82039  39.738  13.178  11.064
13646W        W82040   1.150  16.746   3.088
13647W        W82041  10.186  17.821  12.961
13648W        W82042  26.514  36.846   1.819
13649W        W82043  29.442   2.784   2.202
13650W        W82044   6.399  23.143   4.856
13651W        W82045  13.235  25.204   1.049
13652W        W82046   3.879   6.826  13.352
13653W        W82047  18.780  20.143  11.484
13654W        W82048  33.307  21.546   0.385
13655W        W82049  17.808  18.233   1.301
13656W        W82050  10.837  36.899   0.351
13657W        W82051  12.998  36.842   4.028
13658W        W82052  42.944  17.649   0.458
13659W        W82053  26.002   0.922   0.293
13660W        W82054  37.986  27.771   3.091
13661W        W82055   7.177  40.544  11.621
13662W        W82056   1.381  28.513  10.565
13663W        W82057  36.608  30.645   1.635
13664W        W82058  41.748  20.832  14.334
13665W        W82059  23.527   2.414  14.857
13666W        W82060  20.556  42.838  12.394
13667W        W82061  34.158  24.258   1.809
13668W        W82062  21.116  44.526   4.692
13669W        W82063  39.850  34.560  14.388
13670W        W82064  32.425  20.816  14.071
13671W        W82065   8.346  27.221   3.803
13672W        W82066  11.578  10.375   4.479
13673W        W82067  44.737  42.956   1.372
13674W        W82068  27.337  41.726  13.539
13675W        W82069  41.561   5.963  11.760
13676W        W82070   5.410  34.989  11.614
13677W        W82071  42.839   6.505  12.769
13678W        W82072  28.087  22.183  13.002
13679W        W82073  43.480  27.682  11.022
13680W        W82074  24.484  16.329  12.521
13681W        W82075  13.186   9.587  12.336
13682W        W82076  42.523   5.670  11.766
13683W        W82077  26.665  18.270   3.758
13684W        W82078   3.950   1.283  14.217
13685W        W82079   7.846   6.329  11.146
13686W        W82080  24.942  25.266  12.585
13687W        W82081  12.890  41.619   2.525
13688W        W82082  35.150  25.142   2.113
13689W        W82083  42.458  24.221   3.599
13690W        W82084  27.406  21.716  13.795
13691W        W82085   3.798  18.197  11.136
13692W        W82086  44.285  37.969  11.100
13693W        W82087  11.908  20.483   1.974
13694W        W82088  43.387  17.734   3.542
13695W        W82089   0.682   9.122   4.219
13696W        W82090  43.888  27.005  10.355
13697W        W82091  17.038  40.463   3.636
13698W        W82092  43.313  18.555  12.342
13699W        W82093  20.145  15.548   4.094
13700W        W82094  35.178  21.557   2.220
13701W        W82095  36.941   4.944  13.081
13702W        W82096  15.533   1.064   2.808
13703W        W82097  24.120  13.247  10.897
13704W        W82098  21.676   6.840   2.004
13705W        W82099   1.645  39.250   4.543
13706W        W82100  35.449   4.279   3.147
13707W        W82101  29.809  27.662  11.187
13708W        W82102  17.723  15.570  14.910
13709W        W82103  28.151  28.403  10.734
13710W        W82104  31.811  37.491  11.521
13711W        W82105  11.368  22.152   3.505
13712W        W82106  28.082  25.842   3.362
13713W        W82107   7.381  21.302  12.391
13714W        W82108   7.177  29.871   2.323
13715W        W82109  27.934  13.211   4.400
13716W        W82110  37.539  36.794   3.451
13717W        W82111   4.146  11.978   3.776
13718W        W82112  38.849  37.893  11.965
13719W        W82113  20.224  23.178  13.138
13720W        W82114  40.979   4.877   2.190
13721W        W82115  35.160  33.516   3.732
13722W        W82116   2.820  22.752   2.863
13723W        W82117  17.115  26.008   0.694
13724W        W82118  14.250  28.044  13.826
13725W        W82119   1.376  42.019  14.969
13726W        W82120  43.924  39.531   1.673
13727W        W82121  17.203   1.655  10.036
13728W        W82122  23.188  39.196  12.162
13729W        W82123  39.042  34.021  14.024
13730W        W82124  14.731  22.321   0.450
13731W        W82125  22.119  10.743  13.829
13732W        W82126  22.235  14.290   1.398
13733W        W82127  12.108  15.653  12.067
13734W        W82128  15.593   5.710   3.213
13735W        W82129  25.528  21.138  11.042
13736W        W82130  42.345  11.831   0.388
13737W        W82131  34.333   1.636   3.203
13738W        W82132  36.912  21.617  10.694
13739W        W82133  30.144  22.512   2.700
13740W        W82134  25.057   5.185   2.826
13741W        W82135  20.832  18.660  10.446
13742W        W82136  20.967  44.184  13.063
13743W        W82137   4.200  19.593   1.311
13744W        W82138   4.569   2.965   0.569
13745W        W82139  35.626  16.620  11.586
13746W        W82140  38.438  19.326   0.128
13747W        W82141   1.952  22.862   1.031
13748W        W82142  15.006  21.803   4.129
13749W        W82143  17.190  32.112   4.974
13750W        W82144   1.929   5.669  14.840
13751W        W82145  41.224  38.051   2.222
13752W        W82146  16.426  19.859   1.684
13753W        W82147  39.042  22.328  10.298
13754W        W82148   8.719  17.699  13.539
13755W        W82149  30.638  32.870  12.060
13756W        W82150  11.701  24.696   0.387
13757W        W82151  39.479  32.916   1.844
13758W        W82152  39.503   3.879   1.464
13759W        W82153  33.217   6.918  12.047
13760W        W82154  26.677  23.462   1.461
13761W        W82155  14.310   9.089  11.636
13762W        W82156  19.726  12.249  14.962
13763W        W82157  36.080   6.517   3.151
13764W        W82158  24.016   2.703   1.626
13765W        W82159   5.677  26.979   1.879
13766W        W82160  43.818   0.055   3.785
13767W        W82161  39.506  11.968   1.470
13768W        W82162  17.084  20.976  11.059
13769W        W82163   6.181  20.292  12.334
13770W        W82164  26.510   3.267  12.524
13771W        W82165   7.632  13.825  13.273
13772W        W82166  16.176   2.806  14.568
13773W        W82167  16.417  29.077   4.935
13774W        W82168  16.766  17.039   3.132
13775W        W82169  24.699  18.906   2.841
13776W        W82170  18.252  10.341   0.944
13777W        W82171  30.488  20.142  11.722
13778W        W82172  38.451  27.954   2.857
13779W        W82173  12.147  31.078   3.329
13780W        W82174   7.401   2.751   4.551
13781W        W82175   7.216  27.422  13.856
13782W        W82176   7.751  31.173  14.518
13783W        W82177  32.185  26.166  11.145
13784W        W82178  16.618  37.783  13.763
13785W        W82179  38.341  39.066   1.332
13786W        W82180  13.420  31.838  14.409
13787W        W82181  28.055  33.417   1.878
13788W        W82182  10.898  22.331   3.322
13789W        W82183  26.647   1.046  13.066
13790W        W82184  10.292  44.909  10.575
13791W        W82185  15.954  29.545   1.859
13792W        W82186  26.185  12.777  13.859
13793W        W82187  13.588  26.687   3.304
13794W        W82188  14.259   9.615  11.477
13795W        W82189   9.928  25.991   3.610
13796W        W82190  31.716  27.012   3.233
13797W        W82191  12.910  17.031   0.883
13798W        W82192  20.249  32.144  13.901
13799W        W82193  12.856   4.861  10.696
13800W        W82194  23.604  25.193   3.207
13801W        W82195  24.511  40.628  11.253
13802W        W82196   3.120  17.094   4.280
13803W        W82197   7.376  27.918   0.927
13804W        W82198  11.801  14.927   2.782
13805W        W82199  16.301   0.228  13.489
13806W        W82200  11.590  21.063  12.529
13807W        W82201  10.611   3.440  14.254
13808W        W82202   1.164  15.771  10.239
13809W        W82203  16.678  22.817   4.847
13810W        W82204   9.279  22.532   4.466
13811W        W82205  36.849  10.620   2.898
13812W        W82206  27.593   9.684   3.270
13813W        W82207  36.410  19.043   3.285
13814W        W82208  21.147  20.517   0.393
13815W        W82209  12.645  18.756  13.601
13816W        W82210   3.258  34.870  14.762
13817W        W82211   2.067  22.829   4.197
13818W        W82212   8.809   5.121  11.443
13819W        W82213  10.258  21.426  13.888
13820W        W82214  43.250  21.063   0.929
13821W        W82215  15.634  15.121  14.450
13822W        W82216  19.863  14.451  10.615
13823W        W82217  41.404  10.431   3.219
13824W        W82218   2.695  30.503  14.960
13825W        W82219  14.193  11.139  12.664
13826W        W82220  11.847  12.859  10.685
13827W        W82221  44.283  35.424   0.885
13828W        W82222  27.734  29.920   3.809
13829W        W82223   5.722   7.641   2.687
13830W        W82224   4.821  27.513  10.946
13831W        W82225   1.257  38.932   0.158
13832W        W82226  14.810   4.346  14.900
13833W        W82227  25.592  30.642  12.640
13834W        W82228  25.595  18.016  10.302
13835W        W82229   0.229   3.449   1.039
13836W        W82230  43.363  36.048  14.373
13837W        W82231   9.631  29.865  14.458
13838W        W82232   2.413  22.774  11.573
13839W        W82233  17.170  40.846   1.928
13840W        W82234  20.679   5.775   3.608
13841W        W82235  13.321  33.469   2.381
13842W        W82236  29.152  41.749  14.960
13843W        W82237  23.763  38.897   0.285
13844W        W82238  36.489  39.954   4.244
13845W        W82239  27.690  34.549   3.233
13846W        W82240   3.655  17.669  11.276
13847W        W82241   0.012  40.544  13.067
13848W        W82242  17.808   1.043  11.800
13849W        W82243  12.213  42.900  13.137
13850W        W82244  38.578  36.920   0.700
13851W        W82245  22.185  44.067   2.815
13852W        W82246  19.035  33.178  13.093
13853W        W82247   6.263  32.943  11.882
13854W        W82248  14.066   2.737   0.758
13855W        W82249  14.648  19.962   5.093
13856W        W82250  24.691   1.229   0.872
13857W        W82251   1.266   4.089  11.929
13858W        W82252  21.172   9.879   3.582
13859W        W82253   6.278  41.287  12.217
13860W        W82254  16.899   5.985  14.225
13861W        W82255  32.930  20.962   0.992
13862W        W82256  32.589   0.368   2.826
13863W        W82257   6.456  31.186  11.581
13864W        W82258  44.959  12.522   1.813
13865W        W82259   2.311  24.808  12.540
13866W        W82260  19.613  24.802  13.906
13867W        W82261  33.609  12.836  14.807
13868W        W82262  10.889   3.452  14.717
13869W        W82263  23.533  36.494   2.716
13870W        W82264  18.698  32.384  14.808
13871W        W82265   1.761  19.933  13.212
13872W        W82266  10.653  36.823   3.350
13873W        W82267  20.374  25.166   0.945
13874W        W82268   5.897  28.205  13.962
13875W        W82269  19.636  20.678   1.005
13876W        W82270  15.812  18.675   0.252
13877W        W82271  40.135   5.968  11.422
13878W        W82272   1.401   0.923   2.623
13879W        W82273  30.192   6.960   3.973
13880W        W82274  11.907   3.574   2.801
13881W        W82275  18.655  41.956  11.450
13882W        W82276  43.877   8.716   4.369
13883W        W82277   6.280  22.482   0.422
13884W        W82278  27.527  41.315   4.340
13885W        W82279  39.793  22.114  11.634
13886W        W82280  25.708  32.723  14.908
13887W        W82281  22.717  12.234   1.603
13888W        W82282  31.093  41.279   1.278
13889W        W82283  21.106  34.622  13.216
13890W        W82284   9.171  32.443  11.067
13891W        W82285  35.688  26.821   1.777
13892W        W82286  44.299  28.956  14.050
13893W        W82287  21.488  43.741   1.974
13894W        W82288  29.854  35.702   0.273
13895W        W82289  30.968  23.270  12.598
13896W        W82290  32.016  25.782  14.425
13897W        W82291  10.236   5.870  11.917
13898W        W82292  24.057  11.063  11.689
13899W        W82293  15.448  15.252  11.060
13900W        W82294  26.554  24.363   0.490
13901W        W82295  43.447  18.442   3.406
13902W        W82296  13.082  35.738   0.493
13903W        W82297   4.227  20.586  12.555
13904W        W82298  16.797  12.605   3.662
13905W        W82299  41.543  41.881  14.322
13906W        W82300   2.784  37.437   2.397
13907W        W82301  27.586  34.410  12.839
13908W        W82302  27.178  44.527   3.616
13909W        W82303  38.471  30.472  14.077
13910W        W82304  27.244   3.632  14.898
13911W        W82305  21.523  10.230  14.186
13912W        W82306  17.288   5.271  12.885
13913W        W82307  38.346  11.326  11.321
13914W        W82308  24.735  29.053  12.765
13915W        W82309   0.813  38.960  10.168
13916W        W82310   9.190   3.645   4.817
13917W        W82311   7.793  22.772   0.388
13918W        W82312  10.777   3.964  11.262
13919W        W82313  31.959  12.247   2.700
13920W        W82314  27.042  39.270  10.676
13921W        W82315   1.301  25.725   4.533
13922W        W82316   6.214  21.197  14.767
13923W        W82317  13.805   5.693  13.805
13924W        W82318   8.811  16.289   3.532
13925W        W82319  32.656  19.111  14.900
13926W        W82320  16.201  20.824   1.457
13927W        W82321   8.894  13.761   4.715
13928W        W82322  25.542  10.351   1.785
13929W        W82323   5.352  38.281  12.009
13930W        W82324  26.682  38.344   3.218
13931W        W82325  17.461  19.991  14.868
13932W        W82326  20.792   2.411   3.497
13933W        W82327  32.171  18.599  11.886
13934W        W82328  18.175   1.483   2.263
13935W        W82329  44.071  25.741   2.379
13936W        W82330  17.622   8.429   4.612
13937W        W82331  35.263  29.161   4.816
13938W        W82332  44.981  43.275   2.465
13939W        W82333   6.742  41.918   0.980
13940W        W82334  14.079   9.146   0.133
13941W        W82335  22.055   7.373  13.748
13942W        W82336  40.888  27.761   2.862
13943W        W82337  20.019  17.001   1.519
13944W        W82338  33.473  42.881   2.950
13945W        W82339  27.468  12.340   4.143
13946W        W82340  24.267   4.026   2.254
13947W        W82341  43.869   6.898   2.810
13948W        W82342   1.692  33.020  12.755
13949W        W82343  35.537  36.327   0.456
13950W        W82344  24.890  33.910   3.818
13951W        W82345  16.795  20.502  11.442
13952W        W82346   5.973  43.980   2.816
13953W        W82347  12.577  24.987  14.222
13954W        W82348  10.377   9.663  12.831
13955W        W82349  12.824  26.577  13.817
13956W        W82350  28.911  12.919  14.568
13957W        W82351  30.894  10.316  11.632
13958W        W82352  39.997  37.100   9.489
13959W        W82353   8.829  33.636  11.659
13960W        W82354  17.551   4.426   1.095
13961W        W82355   9.219  22.370  12.319
13962W        W82356  19.147   2.780  14.309
13963W        W82357  34.050  29.464   4.571
13964W        W82358  29.459  25.385   2.453
13965W        W82359  16.183   9.151   0.241
13966W        W82360  39.543  28.114  12.932
13967W        W82361  37.526  38.405   0.293
13968W        W82362  31.058   5.242  10.525
13969W        W82363   4.305  28.672  14.810
13970W        W82364  21.722  29.091  12.380
13971W        W82365  15.127  26.072   3.943
13972W        W82366  26.196  37.645  13.398
13973W        W82367  26.460   3.182  11.692
13974W        W82368   1.459   9.670  13.090
13975W        W82369  19.245   3.326   1.186
13976W        W82370  32.546  32.090   1.878
13977W        W82371  32.863   4.672  14.493
13978W        W82372  41.507   9.450   2.244
13979W        W82373   3.619   9.754   4.747
13980W        W82374  25.769   6.652   3.304
13981W        W82375  20.055  41.955   1.925
13982W        W82376  43.307   0.229  10.558
13983W        W82377  27.514  15.583   2.393
13984W        W82378  31.587   5.581  12.788
13985W        W82379  20.483  29.195  12.445
13986W        W82380   6.892  17.724   2.615
13987W        W82381  37.780  39.730   0.251
13988W        W82382  33.665  10.887  11.195
13989W        W82383  24.560  29.150  13.550
13990W        W82384  32.066  42.585  12.915
13991W        W82385  27.486  21.590  13.284
13992W        W82386   5.299  31.897  12.875
13993W        W82387  21.661  18.118  12.773
13994W        W82388  29.878  43.073  10.747
13995W        W82389   3.096  13.416  13.025
13996W        W82390   0.252  26.720   1.794
13997W        W82391  21.992   9.461   4.907
13998W        W82392  15.181  40.549  14.772
13999W        W82393  43.516  41.362   4.643
14000W        W82394  28.100  44.353   3.978
14001W        W82395   9.383   1.941   3.114
14002W        W82396  44.288  25.695  12.970
14003W        W82397  24.613   1.041  10.704
14004W        W82398  37.239  43.433  11.367
14005W        W82399   3.908  14.582  14.566
14006W        W82400  36.601  43.379  14.013
14007W        W82401  41.847  41.389   9.820
14008W        W82402  41.970  40.789  14.404
14009W        W82403  37.022  31.671  14.456
14010W        W82404  19.262  35.391   4.743
14011W        W82405  34.318  33.847   0.377
14012W        W82406   0.181  41.003   1.795
14013W        W82407  34.939   2.960   3.937
14014W        W82408  36.599   9.697   0.800
14015W        W82409   9.749  24.330   4.667
14016W        W82410  37.855  29.570  14.847
14017W        W82411  18.846  17.432   0.025
14018W        W82412  23.584  29.441   1.524
14019W        W82413  31.118  29.567  10.661
14020W        W82414  37.919  21.438  11.603
14021W        W82415  20.080  40.358   3.761
14022W        W82416  16.237  27.257   1.441
14023W        W82417  38.298  37.438  14.594
14024W        W82418  15.443  16.776   3.530
14025W        W82419  43.001  14.890  13.087
14026W        W82420   2.265  15.019  13.840
14027W        W82421  24.499  12.969  12.199
14028W        W82422  26.540  32.526   2.110
14029W        W82423  17.786   0.855  13.849
14030W        W82424  39.930   9.827  12.028
14031W        W82425  40.218  36.360   1.488
14032W        W82426  35.897  32.662   1.835
14033W        W82427  32.564  15.622  11.230
14034W        W82428  44.276   5.635   3.652
14035W        W82429  38.302  41.439  12.632
14036W        W82430  36.999  18.501  14.975
14037W        W82431   9.730  34.627   3.569
14038W        W82432  33.287   8.573  13.566
14039W        W82433  30.956  44.866  14.930
14040W        W82434  32.149   9.155  12.127
14041W        W82435  28.011  23.506   2.769
14042W        W82436  26.903  22.460   0.731
14043W        W82437  18.266   2.282  14.499
14044W        W82438  28.574  43.292  13.043
14045W        W82439   0.274   9.778  13.360
14046W        W82440  32.602  43.644   0.048
14047W        W82441  37.859  34.522   4.686
14048W        W82442   8.362  24.765   0.854
14049W        W82443  24.702  43.977  13.109
14050W        W82444   5.151  26.229  11.590
14051W        W82445  14.209  43.948   1.909
14052W        W82446  17.195  26.961  14.026
14053W        W82447   4.328   6.754  10.883
14054W        W82448   5.802  23.134  12.796
14055W        W82449  22.264  31.434  10.749
14056W        W82450  37.918  23.019   1.707
14057W        W82451   5.087  22.952   3.277
14058W        W82452  41.878  21.158   0.431
14059W        W82453  41.038   5.007   0.014
14060W        W82454  31.361  37.935   1.745
14061W        W82455  28.652  20.292   4.129
14062W        W82456  29.273  44.028   0.375
14063W        W82457  37.248  21.089   2.906
14064W        W82458   9.594   9.897   2.133
14065W        W82459   4.484  24.606  12.892
14066W        W82460   1.742  28.974  11.619
14067W        W82461  24.361   0.918  12.114
14068W        W82462  39.148  30.425  10.299
14069W        W82463   4.922  31.064  13.071
14070W        W82464  33.464  39.381  10.411
14071W        W82465  36.992   0.283   1.820
14072W        W82466  20.817   3.812   1.690
14073W        W82467  26.416  40.354  11.642
14074W        W82468  24.188  34.144  12.429
14075W        W82469  13.576  13.299  11.932
14076W        W82470  38.972   3.762  11.837
14077W        W82471  41.730  30.379   4.246
14078W        W82472  16.619  27.158   4.116
14079W        W82473  19.918  11.141  12.358
14080W        W82474  18.774  11.256   3.788
14081W        W82475  27.954  15.776  11.236
14082W        W82476  10.136  13.595  12.538
14083W        W82477  18.005   8.272   1.710
14084W        W82478  18.088  23.742   1.400
14085W        W82479   9.805   2.524   0.955
14086W        W82480  21.644  23.243   3.148
14087W        W82481   7.731  43.416   0.488
14088W        W82482  29.027  11.334  10.720
14089W        W82483  24.864   9.957  11.570
14090W        W82484  11.253   4.978   3.251
14091W        W82485  42.657  10.128  14.110
14092W        W82486  21.071  32.522   1.790
14093W        W82487  12.693  32.927  12.019
14094W        W82488  28.259  31.889   1.952
14095W        W82489  10.653  13.202  11.098
14096W        W82490  30.867  19.193  10.757
14097W        W82491   8.721  13.215   4.610
14098W        W82492   0.029  24.655  13.379
14099W        W82493   9.716  39.022  11.608
14100W        W82494  13.934   2.816   2.293
14101W        W82495  43.305  38.223  14.475
14102W        W82496  13.447   0.247   0.717
14103W        W82497  14.134  34.333   4.226
14104W        W82498  29.466  15.018   4.260
14105W        W82499  37.360  31.876  11.450
14106W        W82500  11.966  43.797   4.581
14107W        W82501   5.336   2.458  13.086
14108W        W82502  34.310  24.149  14.843
14109W        W82503  37.579  26.132  14.827
14110W        W82504  26.886   1.909   1.737
14111W        W82505  35.370  43.008   3.368
14112W        W82506  44.933  36.066  12.975
14113W        W82507  33.691  10.909   2.327
14114W        W82508  31.893   1.804  11.135
14115W        W82509  15.366  24.502   3.232
14116W        W82510  13.379  20.775  14.393
14117W        W82511   0.827  22.806  13.865
14118W        W82512  23.302  25.907   3.799
14119W        W82513   9.569  21.275  13.184
14120W        W82514  16.144  36.518   2.688
14121W        W82515  29.696  25.555   0.550
14122W        W82516  40.817  15.710   2.961
14123W        W82517  32.978  15.658  14.018
14124W        W82518   2.917  11.151  11.697
14125W        W82519  40.220  42.985  10.680
14126W        W82520  11.192   4.956  12.131
14127W        W82521  34.891  41.641   4.523
14128W        W82522  32.864  35.335   2.761
14129W        W82523  33.962  15.714  14.926
14130W        W82524   6.348   6.684   4.311
14131W        W82525  31.392  23.079   4.073
14132W        W82526   6.425   4.393   3.809
14133W        W82527   3.494  32.029   0.884
14134W        W82528   4.327  27.256   4.105
14135W        W82529  42.847   6.287  14.544
14136W        W82530  29.124  39.560  12.537
14137W        W82531  30.949  35.876  11.949
14138W        W82532  35.380   4.364  12.187
14139W        W82533  23.595  26.701   0.944
14140W        W82534   8.902  18.349   4.663
14141W        W82535  28.852  27.990  14.884
14142W        W82536  22.541   5.163  12.119
14143W        W82537  20.159  22.033   1.454
14144W        W82538   6.683  29.184   0.903
14145W        W82539   4.993  22.623  13.385
14146W        W82540  10.221  17.741   1.816
14147W        W82541  15.157  14.338   4.113
14148W        W82542  33.536  20.358  11.518
14149W        W82543  35.371  32.981   0.934
14150W        W82544  25.401  23.994   4.145
14151W        W82545  21.741  36.067   3.646
14152W        W82546  10.772  27.841   3.121
14153W        W82547  40.336   5.725   3.264
14154W        W82548   3.233  34.173   0.754
14155W        W82549  17.119  33.313   4.288
14156W        W82550   9.837  33.069   0.905
14157W        W82551  27.396  39.893  13.659
14158W        W82552  37.248  34.711   0.338
14159W        W82553   3.065  28.534   3.795
14160W        W82554   6.160  42.905   2.847
14161W        W82555  37.725  25.515  12.384
14162W        W82556  23.296  19.086   2.951
14163W        W82557  19.135  10.633   1.299
14164W        W82558  25.209  20.613   4.782
14165W        W82559  18.265  14.923   4.375
14166W        W82560  34.374  41.161  12.448
14167W        W82561   4.358  40.020  10.587
14168W        W82562   6.162   3.886   2.199
14169W        W82563  33.903  27.447  14.018
14170W        W82564  21.144   1.253   0.749
14171W        W82565  40.557  22.707   0.603
14172W        W82566  31.701  28.035  12.462
14173W        W82567  15.800  44.972  12.915
14174W        W82568  16.036  38.014   3.878
14175W        W82569  14.729  16.193   3.289
14176W        W82570  21.915  43.277   3.191
14177W        W82571  39.941  23.171   3.199
14178W        W82572  26.495  35.575   2.255
14179W        W82573  12.280  12.274   2.620
14180W        W82574  25.640  44.895   2.586
14181W        W82575  29.895  31.653   5.234
14182W        W82576  13.696  16.842   3.209
14183W        W82577  19.874   5.245  11.553
14184W        W82578  13.536  31.599   2.457
14185W        W82579  37.025  25.807   3.195
14186W        W82580  39.556  10.696   4.316
14187W        W82581  31.569  35.015  12.502
14188W        W82582  17.225  11.832   5.089
14189W        W82583  31.503  22.704   2.209
14190W        W82584   9.870  15.404  14.344
14191W        W82585   4.329  40.041  13.001
14192W        W82586   3.440  12.965  13.014
14193W        W82587  42.851  27.572   2.027
14194W        W82588  32.500  29.149   3.730
14195W        W82589  33.378  37.248   1.673
14196W        W82590  18.334   3.762  11.493
14197W        W82591  29.117  37.883   0.214
14198W        W82592  30.149  11.164   0.380
14199W        W82593   1.345   0.987   1.673
14200W        W82594  30.039  27.514  10.747
14201W        W82595  35.433  41.463  10.722
14202W        W82596  38.008  40.774   1.527
14203W        W82597   0.273  38.930   2.920
14204W        W82598  32.925  33.831  12.608
14205W        W82599  18.286  44.598  11.076
14206W        W82600   0.646  38.802   3.833
14207W        W82601  39.932   1.434   1.268
14208W        W82602  25.040  27.708  12.071
14209W        W82603   2.424  10.339  13.996
14210W        W82604  19.254  25.499  10.723
14211W        W82605  22.423  39.345  12.295
14212W        W82606  17.350  12.366  13.806
14213W        W82607  34.518  14.176   0.946
14214W        W82608  43.006  42.858  11.486
14215W        W82609  12.833  17.206  12.425
14216W        W82610  31.403  19.204  10.758
14217W        W82611  44.502   6.346   3.318
14218W        W82612  44.987  26.068   3.229
14219W        W82613  24.104  27.673  11.554
14220W        W82614   3.283  19.694  11.293
14221W        W82615  14.686  23.990   2.871
14222W        W82616  32.625  22.117  13.033
14223W        W82617  30.876  39.893  14.102
14224W        W82618  38.504   6.000  12.888
14225W        W82619  14.175  11.644   1.045
14226W        W82620  38.805  26.665   3.396
14227W        W82621  22.055  13.644  12.995
14228W        W82622  37.074  40.790   2.850
14229W        W82623  29.607  22.465   4.063
14230W        W82624  18.808  14.427  13.876
14231W        W82625  34.612  16.380  11.573
14232W        W82626  16.583  10.346   0.736
14233W        W82627  27.149   8.504  14.079
14234W        W82628  13.323   1.734  13.502
14235W        W82629  23.800  24.484   4.973
14236W        W82630  37.084  21.732  13.870
14237W        W82631  33.012  30.587  13.422
14238W        W82632  30.254  23.252   3.245
14239W        W82633   6.952   6.912  12.877
14240W        W82634  44.797  40.083   4.508
14241W        W82635  14.965  35.582  14.387
14242W        W82636  13.797  29.163   2.385
14243W        W82637  16.364   1.469  11.873
14244W        W82638   3.724  28.720  11.918
14245W        W82639  28.028  44.266   1.707
14246W        W82640  37.798   4.499  13.559
14247W        W82641  29.497   4.890  13.038
14248W        W82642   5.468  18.992   4.046
14249W        W82643  28.126  41.971   2.909
14250W        W82644  14.311  33.094   0.734
14251W        W82645  10.746  41.324  10.903
14252W        W82646  36.306  29.462  12.944
14253W        W82647  42.422   6.782   0.756
14254W        W82648  42.116  13.770   4.318
14255W        W82649  22.443   8.908   0.727
14256W        W82650  20.005   0.775  11.619
14257W        W82651  16.540  37.309   1.343
14258W        W82652  35.172  25.961   2.750
14259W        W82653  13.117  10.308   2.905
14260W        W82654  43.066   6.529   2.223
14261W        W82655  27.420  19.742  13.367
14262W        W82656  10.186  31.324   0.555
14263W        W82657  33.446   9.470  11.540
14264W        W82658  28.584  26.848  13.873
14265W        W82659   2.226   5.938  12.493
14266W        W82660  20.630  22.956   0.921
14267W        W82661  17.114  41.334  13.698
14268W        W82662   5.897  11.305  12.323
14269W        W82663  25.103  25.171  10.437
14270W        W82664  22.639  40.283   4.073
14271W        W82665  25.610   2.258  14.932
14272W        W82666   5.967  11.183   4.149
14273W        W82667   7.062  15.658  12.697
14274W        W82668  34.367   2.956  14.495
14275W        W82669   8.631  40.389  11.598
14276W        W82670  44.404   3.628  11.732
14277W        W82671  13.932  30.194   1.024
14278W        W82672  23.574  41.311   2.848
14279W        W82673  44.040  21.483   4.650
14280W        W82674   6.088  30.015   0.403
14281W        W82675  36.058  13.745   4.171
14282W        W82676  29.628   2.368  11.998
14283W        W82677   9.127  18.852   4.713
14284W        W82678  42.283  40.250   3.297
14285W        W82679  34.632   4.564  14.337
14286W        W82680  18.616   3.710   3.284
14287W        W82681  19.159  28.901   3.716
14288W        W82682  33.919  34.452  10.550
14289W        W82683  25.107  28.492   4.626
14290W        W82684  11.347  23.120   1.865
14291W        W82685  21.887  40.507  12.088
14292W        W82686  43.925  34.023   2.430
14293W        W82687  27.612  32.167   1.886
14294W        W82688  25.443  43.483  13.100
14295W        W82689   3.465   0.015  11.846
14296W        W82690  40.687  38.066   2.467
14297W        W82691  23.750  23.143   0.656
14298W        W82692  28.458   9.902  13.759
14299W        W82693  40.442  22.613   3.250
14300W        W82694  35.953  30.600  11.748
14301W        W82695   6.494   8.858   0.812
14302W        W82696  27.913  14.817  12.578
14303W        W82697   8.171  41.287   4.196
14304W        W82698  30.194  23.949  12.601
14305W        W82699   4.549  14.540   1.234
14306W        W82700  15.796   4.697  14.407
14307W        W82701  31.095  20.841   1.700
14308W        W82702  26.502  20.584  13.490
14309W        W82703  22.087  32.974  14.841
14310W        W82704   7.732   7.746  12.498
14311W        W82705  32.938  33.856   1.884
14312W        W82706  34.454   3.631   3.429
14313W        W82707  11.931  16.246  14.886
14314W        W82708  24.622  25.910   2.823
14315W        W82709  37.894  12.680  11.941
14316W        W82710  39.391  26.466  12.619
14317W        W82711   2.820  23.850  14.471
14318W        W82712  18.584  42.975   4.554
14319W        W82713  23.249  39.786   4.667
14320W        W82714   6.685  33.917   1.401
14321W        W82715  14.704  22.490  10.606
14322W        W82716  25.548  33.588   3.353
14323W        W82717  19.738  44.002  14.678
14324W        W82718  34.620  27.674  11.652
14325W        W82719  24.107  44.006   0.766
14326W        W82720  26.175   7.641   2.901
14327W        W82721  41.296  29.224  14.315
14328W        W82722  12.882  31.910  12.125
14329W        W82723  34.175  27.649   4.151
14330W        W82724  11.128  17.201   0.320
14331W        W82725  32.718   8.279  13.881
14332W        W82726  17.239  10.547  13.992
14333W        W82727  38.844  14.393  12.959
14334W        W82728  13.750  31.397   3.897
14335W        W82729  36.171   0.913   1.983
14336W        W82730  28.615   0.325   0.423
14337W        W82731  42.247  27.731  11.681
14338W        W82732  38.594  34.330   4.165
14339W        W82733  10.038   7.455   4.270
14340W        W82734  28.785  35.864   1.845
14341W        W82735  33.881  34.509  11.998
14342W        W82736   8.141  31.779  13.394
14343W        W82737  20.556   1.226  12.618
14344W        W82738   6.436  29.495   3.221
14345W        W82739  30.865   6.298   1.369
14346W        W82740  36.290  37.041   0.500
14347W        W82741   5.527  13.760  12.063
14348W        W82742   0.821  24.258   0.354
14349W        W82743  12.911  15.703   4.049
14350W        W82744  29.930  38.467   2.405
14351W        W82745  17.147  27.291   0.457
14352W        W82746  23.616  13.273   1.228
14353W        W82747  28.988  34.622  14.723
14354W        W82748  38.937  36.718   5.104
14355W        W82749  42.137  14.691  11.993
14356W        W82750   0.520  19.941  13.529
14357W        W82751  41.480  35.265   2.392
14358W        W82752  23.583   4.809  10.692
14359W        W82753  37.325  16.471  12.013
14360W        W82754   7.260  26.750   5.459
14361W        W82755  43.191  19.950  14.903
14362W        W82756   7.425   1.865  10.765
14363W        W82757  17.135   4.743   2.743
14364W        W82758  17.332  15.831   2.907
14365W        W82759  33.002   7.212  14.627
14366W        W82760  39.538  10.614   0.397
14367W        W82761  35.164  33.534   2.746
14368W        W82762  23.235   3.193  11.431
14369W        W82763  41.820  42.325   2.171
14370W        W82764  23.933  23.178   1.164
14371W        W82765  12.226  31.695  12.054
14372W        W82766  12.037   2.403   4.056
14373W        W82767  29.452  27.031   3.629
14374W        W82768  39.303  14.259   0.388
14375W        W82769   9.937  31.021   2.904
14376W        W82770  38.166  33.449   0.409
14377W        W82771   8.825   3.379   0.203
14378W        W82772  42.744  34.427   1.319
14379W        W82773   5.706   7.476  12.106
14380W        W82774  13.386   5.827   2.795
14381W        W82775  43.515  20.296   0.339
14382W        W82776  10.212  22.323  12.512
14383W        W82777  28.142  32.463  10.949
14384W        W82778   0.754  21.105   3.080
14385W        W82779  21.800  34.213  11.026
14386W        W82780  34.606  30.629   3.590
14387W        W82781  24.426   7.477  12.707
14388W        W82782  29.468  38.837   1.277
14389W        W82783  29.984  20.038  12.600
14390W        W82784  11.316   8.953   3.304
14391W        W82785  20.685  18.230  12.144
14392W        W82786  18.475  31.927  14.948
14393W        W82787  22.117  22.223  10.644
14394W        W82788   6.282  19.300  12.596
14395W        W82789  13.721  39.430   3.743
14396W        W82790  44.826   5.427   2.461
14397W        W82791  29.884  40.862   3.517
14398W        W82792  40.590   6.209   1.087
14399W        W82793  21.565   9.138   2.120
14400W        W82794   8.813  25.465  14.299
14401W        W82795  17.754  31.541   3.738
14402W        W82796  31.971  27.679   4.842
14403W        W82797  35.652  18.633   3.667
14404W        W82798  24.654  17.243  10.697
14405W        W82799   8.281  14.906  11.068
14406W        W82800   2.660   6.283   1.312
14407W        W82801  14.897   6.863  14.048
14408W        W82802  32.694  39.477  13.373
14409W        W82803   3.018   4.244  14.168
14410W        W82804  28.898  15.744  14.785
14411W        W82805  24.039  24.956   3.381
14412W        W82806  18.670   2.021  14.252
14413W        W82807  40.114  34.121   2.402
14414W        W82808  24.089  19.919  13.976
14415W        W82809  36.490  30.512  10.395
14416W        W82810   5.616  33.470   2.230
14417W        W82811   6.949  41.762   3.425
14418W        W82812  20.482  14.319  12.710
14419W        W82813  22.122  39.644  12.009
14420W        W82814  35.649  19.226  11.525
14421W        W82815  26.669  15.339  11.327
14422W        W82816   8.711   7.840  11.638
14423W        W82817   5.196   4.306  13.115
14424W        W82818   3.854   6.253  10.583
14425W        W82819  21.577  44.987  11.956
14426W        W82820   2.808  21.680   0.217
14427W        W82821  12.844  29.712  12.159
14428W        W82822   9.560   6.004  13.029
14429W        W82823  30.752  14.990  13.446
14430W        W82824   5.037  17.234   3.265
14431W        W82825  21.398   4.818   4.395
14432W        W82826  16.988  20.959  13.410
14433W        W82827   8.840   0.899   5.249
14434W        W82828  34.578  41.008   3.244
14435W        W82829   0.323   5.294   1.458
14436W        W82830  33.015  22.227   2.881
14437W        W82831  15.221  30.952   1.680
14438W        W82832  34.706   7.613  11.600
14439W        W82833  26.777  23.829  12.451
14440W        W82834   8.443  32.513   4.529
14441W        W82835   7.217  10.615   0.924
14442W        W82836  21.646  17.051  12.856
14443W        W82837  36.480  26.602  13.035
14444W        W82838  11.324  33.686  14.882
14445W        W82839   0.555  20.211  13.994
14446W        W82840  12.577  11.575   0.328
14447W        W82841  39.488  20.266  13.315
14448W        W82842  13.356  34.411  11.229
14449W        W82843  33.084  35.360  14.622
14450W        W82844  27.169  25.190   0.632
14451W        W82845  28.261  20.872   0.750
14452W        W82846  20.344  34.537   1.500
14453W        W82847  16.549  30.434   2.745
14454W        W82848  34.133   4.289   3.732
14455W        W82849  17.593  14.329  13.994
14456W        W82850  38.926  29.747  10.941
14457W        W82851  11.928  44.550   1.788
14458W        W82852  32.415  41.813  11.293
14459W        W82853  41.741   9.098  14.091
14460W        W82854   8.907  22.606  10.439
14461W        W82855  27.070  42.121   3.599
14462W        W82856  10.490  29.273  10.438
14463W        W82857  29.172  21.461   0.843
14464W        W82858   0.396  13.522  10.765
14465W        W82859  21.209  25.485   4.601
14466W        W82860  20.983   7.183   1.707
14467W        W82861  39.074  13.776  11.564
14468W        W82862   4.790  37.813  12.933
14469W        W82863  20.393  10.752  12.022
14470W        W82864  18.230  28.971  11.526
14471W        W82865   1.969  10.062  13.979
14472W        W82866  40.865  21.961  11.042
14473W        W82867  37.178  14.076   4.393
14474W        W82868  39.483  23.202  12.166
14475W        W82869  44.882  20.655  10.892
14476W        W82870  31.162  32.579  12.521
14477W        W82871  42.542  15.163   3.337
14478W        W82872   2.501  29.820   3.761
14479W        W82873  43.337  15.871  13.371
14480W        W82874  14.311  10.769   0.863
14481W        W82875  43.186  29.412  14.831
14482W        W82876  15.098   4.948  11.160
14483W        W82877  18.929  21.172  13.813
14484W        W82878   9.937  32.049  13.003
14485W        W82879  10.589   6.140  11.577
14486W        W82880  11.258  13.199   3.240
14487W        W82881  14.878  24.714  10.813
14488W        W82882  11.658  13.014   2.680
14489W        W82883   9.891  24.175  13.851
14490W        W82884  15.692  31.669  11.242
14491W        W82885  11.632  34.338   2.453
14492W        W82886  36.113  15.742   3.116
14493W        W82887   4.262   9.160   2.172
14494W        W82888   4.722  29.181  10.405
14495W        W82889  40.498   9.264   4.650
14496W        W82890   1.705  32.180  12.478
14497W        W82891  41.522  24.004  12.958
14498W        W82892   2.231   6.269  13.394
14499W        W82893  24.091  25.025   9.777
14500W        W82894   8.905   3.692   2.269
14501W        W82895  11.138  28.885   2.014
14502W        W82896  30.651  15.740   0.550
14503W        W82897  19.767   8.845   0.385
14504W        W82898   0.829  22.480  13.266
14505W        W82899  11.416  26.035   3.895
14506W        W82900  38.928  24.482  11.689
14507W        W82901  42.469  44.335   1.410
14508W        W82902   3.734  41.558  14.282
14509W        W82903  10.943   0.847   1.798
14510W        W82904  28.936  21.644  12.203
14511W        W82905   5.216  36.504  14.602
14512W        W82906  12.798   9.102   0.995
14513W        W82907  32.518   8.876   2.759
14514W        W82908  26.217   7.770   0.406
14515W        W82909  12.385   9.271  14.416
14516W        W82910  26.764  34.654   3.706
14517W        W82911  32.904  32.438   1.410
14518W        W82912   4.078  38.597   3.050
14519W        W82913  13.767  29.191   3.541
14520W        W82914   9.302  43.842   0.997
14521W        W82915  18.918  31.373  12.565
14522W        W82916   9.874  18.101  13.303
14523W        W82917  44.305  34.614   1.852
14524W        W82918   2.408   9.790   2.607
14525W        W82919   2.307  21.631   0.317
14526W        W82920  16.277   2.795   0.865
14527W        W82921  44.325  23.267   4.531
14528W        W82922  18.115  13.309  14.229
14529W        W82923  34.739  22.188  14.163
14530W        W82924  28.630   3.873  10.714
14531W        W82925   7.367  22.399   4.083
14532W        W82926  30.500   1.940  10.899
14533W        W82927   8.408  43.382  11.882
14534W        W82928  23.744  39.948   4.208
14535W        W82929   3.956  13.602   2.264
14536W        W82930  38.280  38.544  10.633
14537W        W82931  14.341  32.012  11.944
14538W        W82932  25.132  33.888  13.070
14539W        W82933  41.253  15.078   1.704
14540W        W82934  14.724  23.470  12.327
14541W        W82935  14.035  27.063   2.235
14542W        W82936  10.751  42.857   2.258
14543W        W82937  14.114  21.539  11.658
14544W        W82938  24.371  39.509   1.197
14545W        W82939  10.394  11.435   1.663
14546W        W82940  42.272  15.154   4.388
14547W        W82941  39.055   5.339   4.093
14548W        W82942  37.444  29.150  10.695
14549W        W82943   5.684  33.124  10.678
14550W        W82944  25.157  38.490  11.501
14551W        W82945  24.760  39.096  13.917
14552W        W82946  21.402   1.402  11.548
14553W        W82947  11.314  16.680   3.679
14554W        W82948  38.496  32.986   3.468
14555W        W82949  27.182  19.176  12.556
14556W        W82950  23.606  36.080   0.383
14557W        W82951  28.434  37.406   0.392
14558W        W82952  38.039  43.527  10.867
14559W        W82953  10.792  43.986  11.272
14560W        W82954   3.565  28.840   4.064
14561W        W82955   1.356  21.144  13.500
14562W        W82956  32.109   2.671  12.382
14563W        W82957  41.061  36.694  14.386
14564W        W82958  28.325  21.211  11.025
14565W        W82959  16.991   5.846   0.821
14566W        W82960   7.499  32.046  11.035
14567W        W82961  33.090  12.821  14.821
14568W        W82962  22.226  38.833   4.494
14569W        W82963  20.629   7.601  11.075
14570W        W82964  28.919  20.035   2.822
14571W        W82965  11.909   5.554   4.551
14572W        W82966  23.558  24.733  13.426
14573W        W82967  36.874  22.217   1.996
14574W        W82968  19.269  31.191  13.499
14575W        W82969  37.821  24.905   3.147
14576W        W82970  19.617  37.986  12.966
14577W        W82971  20.418  35.755   1.301
14578W        W82972  24.763  40.412  13.732
14579W        W82973  16.463  40.596  10.991
14580W        W82974  24.276   6.660  13.063
14581W        W82975  20.300   8.630  13.913
14582W        W82976   3.178  35.445  12.982
14583W        W82977  26.114   2.033   2.226
14584W        W82978  19.826  26.060   5.516
14585W        W82979  32.273  23.064  11.911
14586W        W82980   7.259   3.843  13.388
14587W        W82981  33.170   1.144  11.114
14588W        W82982  37.107  41.386  12.894
14589W        W82983  44.042  25.779  12.517
14590W        W82984   6.147  38.632  12.425
14591W        W82985  28.933  19.193  13.794
14592W        W82986   6.022   6.326   1.894
14593W        W82987  31.655  17.718   0.410
14594W        W82988   3.778  30.474   4.546
14595W        W82989  19.379   4.433   3.286
14596W        W82990  31.548  42.490   4.905
14597W        W82991  25.060   2.721   3.615
14598W        W82992  27.080   4.624   1.004
14599W        W82993   8.114   9.063   1.457
14600W        W82994   0.106   4.366   4.745
14601W        W82995   4.225   5.289   3.675
14602W        W82996  40.662  30.505   2.855
14603W        W82997  36.670  36.032  11.624
14604W        W82998  40.579  41.474  13.510
14605W        W82999  31.729   4.044   3.916
14606W        W83000  20.694  27.502   2.321
14607W        W83001  17.120   2.311   0.324
14608W        W83002  38.974  30.928  10.189
14609W        W83003  42.514  35.878   4.119
14610W        W83004  37.707  37.390   4.978
14611W        W83005  13.831   4.821   0.526
14612W        W83006  21.144  43.537   4.256
14613W        W83007  24.751  28.367  14.040
14614W        W83008  28.638  35.601  12.476
14615W        W83009  20.163  35.409   4.565
14616W        W83010  24.084  35.870   3.234
14617W        W83011  21.757   7.815  14.981
14618W        W83012  35.399   5.832   0.920
14619W        W83013   1.142  17.762   3.641
14620W        W83014  28.110  28.174   0.873
14621W        W83015  32.717  22.092   1.961
14622W        W83016   6.178  38.461  13.994
14623W        W83017  31.929  24.960  12.014
14624W        W83018  43.867  37.286  14.276
14625W        W83019   1.672  37.048  13.129
14626W        W83020  43.389  16.243  12.942
14627W        W83021  14.548  25.683  13.573
14628W        W83022  18.556   2.938   1.480
14629W        W83023  14.162  25.692  13.221
14630W        W83024  23.602  18.679   2.341
14631W        W83025  18.793  30.173  12.836
14632W        W83026   1.353  37.425  12.944
14633W        W83027  21.806  26.992  12.985
14634W        W83028  40.923  25.001   3.682
14635W        W83029  31.095  17.345  10.866
14636W        W83030  24.135  24.222  12.607
14637W        W83031  14.177  16.814   3.018
14638W        W83032  19.182   9.888   0.883
14639W        W83033   9.560  29.920   1.703
14640W        W83034  38.567  18.647  14.324
14641W        W83035  42.955  11.609   2.705
14642W        W83036  31.697   7.308  11.191
14643W        W83037  35.522  13.608   1.842
14644W        W83038   9.815   1.949   3.894
14645W        W83039   7.832  43.296  14.461
14646W        W83040  21.182  43.317   1.191
14647W        W83041  44.761  24.185   2.809
14648W        W83042  35.124  31.431  14.803
14649W        W83043  42.450  41.788  11.461
14650W        W83044   0.744  41.745  13.401
14651W        W83045  24.999   5.366   1.158
14652W        W83046   2.621  24.576  11.199
14653W        W83047   6.686  37.129   0.267
14654W        W83048  21.993  11.119  12.855
14655W        W83049  42.574  18.207  10.667
14656W        W83050   9.945  40.387  11.640
14657W        W83051  37.535  42.752  14.994
14658W        W83052   1.842  10.153   1.755
14659W        W83053  38.279  32.634   1.749
14660W        W83054  37.446   7.999  14.293
14661W        W83055  18.759  27.102  13.783
14662W        W83056   7.380  10.086  11.174
14663W        W83057  40.295   6.373   3.639
14664W        W83058  32.917  41.355  13.525
14665W        W83059  26.667  43.724  13.007
14666W        W83060  43.221   7.942   4.113
14667W        W83061  16.464   7.164  10.862
14668W        W83062   6.312   4.958   1.556
14669W        W83063   7.347  42.239  11.168
14670W        W83064  42.397  31.642   4.209
14671W        W83065  31.328  22.151  12.058
14672W        W83066  20.222   7.625  13.001
14673W        W83067  27.721  42.208  14.860
14674W        W83068  42.045  24.985   0.919
14675W        W83069  31.134   9.604   2.232
14676W        W83070  37.375   2.802   0.884
14677W        W83071   0.592  15.287  10.722
14678W        W83072   0.284  31.761  13.399
14679W        W83073  13.289  18.136  10.819
14680W        W83074  44.179  23.660   2.117
14681W        W83075  21.612  43.542   0.925
14682W        W83076  21.777  42.295  12.029
14683W        W83077   1.668  22.011   2.807
14684W        W83078  13.259  44.919  12.803
14685W        W83079   9.906  43.319  10.751
14686W        W83080  41.918  42.590  10.689
14687W        W83081   0.678  43.462   4.068
14688W        W83082  32.089   4.771   2.393
14689W        W83083  17.537   6.492   3.067
14690W        W83084  32.132   8.727  11.883
14691W        W83085   6.408   4.485   2.406
14692W        W83086  41.521  36.369  10.697
14693W        W83087  32.918  40.228  11.673
14694W        W83088  28.276  40.413  11.499
14695W        W83089  10.665  18.217  11.948
14696W        W83090  41.619   8.393   3.683
14697W        W83091   8.839   9.327   3.714
14698W        W83092  14.738   1.038   2.114
14699W        W83093  28.638  22.082  14.775
14700W        W83094  14.075  33.232  14.608
14701W        W83095  22.745  41.611  12.541
14702W        W83096  21.267  14.165   2.817
14703W        W83097  41.549  36.900  14.442
14704W        W83098  20.599  13.814   3.598
14705W        W83099  22.348  13.391   0.912
14706W        W83100  27.096  24.005   2.805
14707W        W83101  30.653  41.235  12.529
14708W        W83102  41.661  35.128   1.636
14709W        W83103  36.176   8.877  11.088
14710W        W83104  33.952  27.508   0.021
14711W        W83105  10.689  43.771   3.226
14712W        W83106  23.422  30.451   1.588
14713W        W83107  41.925  25.487   3.652
14714W        W83108  17.219  33.103  11.172
14715W        W83109   8.364  17.677   4.950
14716W        W83110   9.846  27.204  12.492
14717W        W83111  23.894  26.995   2.647
14718W        W83112  43.245  10.824   4.247
14719W        W83113  24.618  41.661   4.410
14720W        W83114  43.893  14.622   0.387
14721W        W83115   2.528   8.088  12.499
14722W        W83116  44.980  31.228  14.009
14723W        W83117  14.869   3.127   5.243
14724W        W83118   3.175  14.557  12.549
14725W        W83119  17.302   8.743  14.741
14726W        W83120  36.333  31.461   2.190
14727W        W83121  27.946  40.926   4.902
14728W        W83122  24.154  16.125   4.299
14729W        W83123  20.759  11.238   0.525
14730W        W83124  32.063  39.768   0.510
14731W        W83125  40.926  20.204  14.560
14732W        W83126  18.530   9.779  13.000
14733W        W83127  28.000  23.243  13.118
14734W        W83128  33.085  13.043  14.339
14735W        W83129  41.256  16.353   3.262
14736W        W83130  36.826   1.832   2.720
14737W        W83131  24.131  39.321  12.145
14738W        W83132  24.591  11.646  13.907
14739W        W83133  34.078   2.820  11.549
14740W        W83134  29.915  12.147  11.161
14741W        W83135   9.306  39.939  14.741
14742W        W83136  16.628  29.571   1.321
14743W        W83137  29.587   0.491  11.050
14744W        W83138  37.775  18.169   4.176
14745W        W83139   0.978   0.280  13.015
14746W        W83140  35.389  44.848   3.730
14747W        W83141  25.138   8.780  12.887
14748W        W83142  34.067  42.100   2.294
14749W        W83143  36.750  19.391   3.751
14750W        W83144   8.299   0.799   0.380
14751W        W83145  36.327  10.846   4.320
14752W        W83146  41.311  13.303   1.429
14753W        W83147  16.252  15.088  14.139
14754W        W83148  42.231  29.886   1.814
14755W        W83149   6.697  41.981   4.726
14756W        W83150  43.215  44.238   2.276
14757W        W83151  15.552  31.570   1.499
14758W        W83152  36.299   7.512  12.403
14759W        W83153  17.149  12.926  13.387
14760W        W83154   7.870  25.405  13.926
14761W        W83155  10.874  22.982  11.983
14762W        W83156   2.461  44.263   3.322
14763W        W83157  41.463  22.577   0.249
14764W        W83158   1.591  19.556  14.890
14765W        W83159  23.101  38.636   3.880
14766W        W83160  14.863  11.841   2.769
14767W        W83161  12.969  24.173  11.422
14768W        W83162   1.432   4.855   0.875
14769W        W83163  42.959  43.766  11.188
14770W        W83164  22.057  40.471  12.935
14771W        W83165  34.470  15.656   4.712
14772W        W83166   6.332  14.429   1.588
14773W        W83167  36.674  18.115  14.760
14774W        W83168  39.320  39.232  11.294
14775W        W83169  16.239  39.853   3.657
14776W        W83170  13.116  34.845   1.526
14777W        W83171   2.757  22.067  14.804
14778W        W83172  12.755   1.437   3.796
14779W        W83173  40.467  29.917  10.604
14780W        W83174   2.790  41.768  11.533
14781W        W83175  25.249   8.859   2.373
14782W        W83176   5.229  29.701   3.140
14783W        W83177  27.659  24.961   1.446
14784W        W83178   1.001  33.392  13.862
14785W        W83179  44.543   6.766   0.851
14786W        W83180  33.656  31.941   4.275
14787W        W83181   0.326  43.382  13.523
14788W        W83182  35.381  39.867   1.451
14789W        W83183  26.755  32.551  14.874
14790W        W83184  26.195   9.952  13.964
14791W        W83185  21.218  33.039   4.136
14792W        W83186  25.534   5.403   0.664
14793W        W83187  42.993  25.418  10.898
14794W        W83188  25.773   9.935  14.769
14795W        W83189  16.690  23.253   1.653
14796W        W83190   2.354  26.769  10.421
14797W        W83191  26.605  12.268  12.092
14798W        W83192   0.882  19.207  13.818
14799W        W83193   6.738  29.696   1.018
14800W        W83194  22.705   0.906  14.927
14801W        W83195  41.046  36.142   2.542
14802W        W83196   0.512  36.686   1.653
14803W        W83197  11.199  16.253   4.524
14804W        W83198  37.798  18.626   3.319
14805W        W83199  24.054  20.200  11.655
14806W        W83200  42.087  15.563  11.642
14807W        W83201   7.779  37.494   1.928
14808W        W83202  34.038  12.280   4.921
14809W        W83203   5.913  19.724   4.053
14810W        W83204  19.141  29.711  13.330
14811W        W83205  38.875  39.471  11.138
14812W        W83206   8.327  34.130  10.906
14813W        W83207  26.050  38.601  11.298
14814W        W83208  39.287  29.632   2.801
14815W        W83209  43.698   6.922   1.270
14816W        W83210  24.592  25.388   1.211
14817W        W83211  14.231  23.556   1.057
14818W        W83212  36.603  23.566   1.368
14819W        W83213  28.986   6.260  13.083
14820W        W83214  22.748  31.578  12.059
14821W        W83215  27.920  36.475   1.259
14822W        W83216  32.937   8.103   2.239
14823W        W83217  26.167  30.634  13.289
14824W        W83218  25.596  42.163  10.356
14825W        W83219  29.421   8.996   3.069
14826W        W83220   9.641  22.272   0.898
14827W        W83221  28.024   7.230   4.595
14828W        W83222  13.969   4.370   0.260
14829W        W83223  19.514  26.099   3.689
14830W        W83224  30.048  11.282   2.925
14831W        W83225  37.112  37.340   3.241
14832W        W83226  18.196  17.879   1.341
14833W        W83227   7.658  17.238   1.373
14834W        W83228  37.439  10.398  14.281
14835W        W83229  18.237  28.620  13.319
14836W        W83230  28.929  40.875  12.457
14837W        W83231  36.021  13.825  13.404
14838W        W83232  18.078  30.134  13.320
14839W        W83233  28.513  28.848  11.559
14840W        W83234   9.426  39.900   2.239
14841W        W83235  25.667  36.382  14.814
14842W        W83236  40.254  41.001   4.641
14843W        W83237  16.144  11.531   1.307
14844W        W83238  35.348  13.246  14.325
14845W        W83239   0.840  37.583  10.117
14846W        W83240  14.833  14.182   2.827
14847W        W83241   5.992   6.929   0.762
14848W        W83242  41.057   6.948  14.767
14849W        W83243   8.652  15.693  12.284
14850W        W83244  16.072  27.145   3.303
14851W        W83245  26.170   8.793  14.494
14852W        W83246   9.251  35.884  14.807
14853W        W83247  33.478  18.109   4.269
14854W        W83248  32.103  39.598  11.606
14855W        W83249  14.371  41.626  11.058
14856W        W83250  32.595  22.169   0.936
14857W        W83251  26.040  14.078  14.757
14858W        W83252  33.930  36.419  11.442
14859W        W83253  40.536  32.568   0.008
14860W        W83254  37.915  40.752  12.101
14861W        W83255  26.917  25.372  11.570
14862W        W83256  37.311  11.283  14.742
14863W        W83257  44.595   1.828   0.305
14864W        W83258  19.780   9.898  13.480
14865W        W83259   8.499   5.114   4.911
14866W        W83260  42.567   0.305  11.140
14867W        W83261  35.558  37.156  12.955
14868W        W83262  42.489  25.148   0.690
14869W        W83263  31.088  44.843   4.327
14870W        W83264  32.686  12.560  13.012
14871W        W83265  39.190   3.515  13.100
14872W        W83266  10.192  24.107   0.430
14873W        W83267  39.168  24.211   0.919
14874W        W83268  25.101  22.300   4.721
14875W        W83269   1.934   9.654   3.600
14876W        W83270  31.539  24.544   3.432
14877W        W83271  22.553  31.558  11.166
14878W        W83272  41.273  28.236  13.946
14879W        W83273   3.897   6.290  12.101
14880W        W83274  14.363  15.618   2.229
14881W        W83275  23.540   3.403  10.955
14882W        W83276  28.631  31.434   1.237
14883W        W83277  18.552  14.812  13.511
14884W        W83278  16.807  39.690   0.719
14885W        W83279  29.635  22.247   1.757
14886W        W83280  36.038  26.295   0.697
14887W        W83281   3.131   4.731   4.713
14888W        W83282   6.751  20.105  10.742
14889W        W83283   2.768  20.080   2.715
14890W        W83284  35.470   5.645  14.324
14891W        W83285  32.474  19.089  14.400
14892W        W83286  20.636  15.894   2.881
14893W        W83287  36.454  28.845  12.514
14894W        W83288  19.012  11.196   0.424
14895W        W83289  27.124  36.340  12.079
14896W        W83290  15.275  16.098  10.666
14897W        W83291   5.772  14.692   0.417
14898W        W83292   1.052   5.099   0.604
14899W        W83293   7.669   0.683   2.823
14900W        W83294  17.060  21.281  14.321
14901W        W83295  17.791  26.613   0.925
14902W        W83296  17.287  27.422   9.989
14903W        W83297  31.374  11.861   1.217
14904W        W83298  12.659  29.003   1.920
14905W        W83299  26.903  32.440   3.756
14906W        W83300  30.398  21.448   1.369
14907W        W83301  21.877  27.601   4.149
14908W        W83302  40.799  24.070  13.067
14909W        W83303  41.658  10.691  10.953
14910W        W83304   7.400  34.468   4.742
14911W        W83305  17.233  25.629   1.930
14912W        W83306  23.542   3.165   1.850
14913W        W83307   3.753   2.786   0.344
14914W        W83308  15.497  20.132  14.017
14915W        W83309   9.646  20.613  11.426
14916W        W83310  10.403  36.381  14.825
14917W        W83311  21.988   3.874  11.614
14918W        W83312  42.116  34.108   2.394
14919W        W83313  24.124  32.832  11.852
14920W        W83314  28.376  21.542  13.558
14921W        W83315  36.577   7.984  14.822
14922W        W83316   6.747  27.715  13.871
14923W        W83317  31.066  32.125  14.399
14924W        W83318  38.038  21.588  12.109
14925W        W83319  31.497   4.383  12.032
14926W        W83320  13.401  43.308  13.667
14927W        W83321  14.907  14.895   4.198
14928W        W83322  37.051  24.686  14.886
14929W        W83323  43.474  29.067   4.351
14930W        W83324  31.213  43.453   2.806
14931W        W83325   8.203  42.622   4.310
14932W        W83326   1.410  18.193   0.768
14933W        W83327  12.186  28.645  12.571
14934W        W83328   7.908  21.305  12.406
14935W        W83329  21.625   9.582   3.517
14936W        W83330  23.455   7.959  14.425
14937W        W83331   8.994  28.658   0.734
14938W        W83332  26.958  14.570   0.774
14939W        W83333   0.223  22.580  14.951
14940W        W83334   3.959  40.891   1.763
14941W        W83335  31.424  15.802  11.971
14942W        W83336   5.075  25.146  10.556
14943W        W83337   9.204  11.667   9.823
14944W        W83338  32.938  12.664   4.191
14945W        W83339   0.542  31.553   2.697
14946W        W83340  20.861   7.690   1.562
14947W        W83341  42.919  15.251   3.833
14948W        W83342  41.201  11.972  14.809
14949W        W83343  17.129  14.120   3.274
14950W        W83344  14.583   5.105   4.105
14951W        W83345  23.871  16.556  11.611
14952W        W83346  26.010  17.748   4.579
14953W        W83347   2.938  13.012   2.832
14954W        W83348  31.401   3.186  12.361
14955W        W83349  36.666   9.810  12.480
14956W        W83350  38.273  25.155  13.553
14957W        W83351   0.181  41.628   2.939
14958W        W83352  39.976  30.515  10.495
14959W        W83353   7.184   2.302   4.369
14960W        W83354  13.556  17.353  13.740
14961W        W83355  35.027  15.409   4.303
14962W        W83356  33.133  21.093  10.423
14963W        W83357  42.035  27.951   1.785
14964W        W83358  31.640  33.266  10.822
14965W        W83359   3.672  31.395  13.800
14966W        W83360   5.878   5.673  10.800
14967W        W83361  44.612  14.259  10.469
14968W        W83362   6.644  13.696   0.473
14969W        W83363  15.372  41.418   3.556
14970W        W83364  12.373  34.926   1.935
14971W        W83365  29.157  41.441  13.096
14972W        W83366   2.654  41.481   1.908
14973W        W83367  27.690  19.301   0.664
14974W        W83368  32.362  11.788   4.292
14975W        W83369   1.507  22.254  11.224
14976W        W83370  30.820  16.155   4.734
14977W        W83371  19.646  24.013   2.620
14978W        W83372  31.870  31.987  10.346
14979W        W83373  33.318   8.490   1.345
14980W        W83374  41.903  38.123   2.202
14981W        W83375   4.289  39.660   3.711
14982W        W83376  32.096   5.291   3.963
14983W        W83377   8.538  43.138   0.693
14984W        W83378   0.909   4.231   2.276
14985W        W83379  17.661  18.984   4.522
14986W        W83380  27.501  39.600  14.086
14987W        W83381  25.571  37.612   0.663
14988W        W83382  11.439  12.703  11.509
14989W        W83383   2.257  10.760  12.079
14990W        W83384   7.989  32.897  14.543
14991W        W83385  14.548  19.749   2.708
14992W        W83386  14.551  13.055   4.895
14993W        W83387  26.449   2.066   0.769
14994W        W83388   9.550  23.684  12.035
14995W        W83389  20.525  36.109   3.160
14996W        W83390  44.859  33.823   2.780
14997W        W83391  15.662  28.469   3.261
14998W        W83392   4.132  36.569  13.990
14999W        W83393  17.111  20.595   1.961
15000W        W83394  43.474  12.664  11.187
15001W        W83395  19.058  21.817  10.432
15002W        W83396  18.857  15.800  14.182
15003W        W83397   7.114  13.833   0.707
15004W        W83398   3.509  20.770  11.830
15005W        W83399   4.158  40.595   1.357
15006W        W83400  40.092   4.720   2.570
15007W        W83401   5.519  32.844  11.105
15008W        W83402  25.327  15.721  11.627
15009W        W83403  25.007  41.807  11.961
15010W        W83404  30.027  15.317  10.732
15011W        W83405  30.083  35.517   3.155
15012W        W83406  38.422  21.092  14.838
15013W        W83407  42.345  40.413   2.367
15014W        W83408  22.171  37.302   4.725
15015W        W83409  15.319   5.963   2.385
15016W        W83410  33.916  15.433  12.488
15017W        W83411  17.820  39.149  11.997
15018W        W83412   2.748  28.936   1.967
15019W        W83413  20.820  28.668  10.723
15020W        W83414   4.821  16.264   4.948
15021W        W83415  25.035  11.406  14.318
15022W        W83416  20.768  44.368  10.531
15023W        W83417  36.400  21.175  10.255
15024W        W83418  38.381  44.382   3.839
15025W        W83419  20.611  21.072  11.401
15026W        W83420  12.218  17.667   0.987
15027W        W83421  18.752  22.794   3.991
15028W        W83422  22.541  22.004   4.146
15029W        W83423  34.594   9.821  11.604
15030W        W83424  14.348  37.864  12.439
15031W        W83425  29.969  27.175  11.162
15032W        W83426  32.976  30.632  12.027
15033W        W83427  31.561  42.978   0.429
15034W        W83428   8.333  19.277   0.333
15035W        W83429  21.499   4.727  14.764
15036W        W83430   5.343   7.115   2.293
15037W        W83431  44.818   5.702  12.231
15038W        W83432  43.263   7.188   4.757
15039W        W83433  30.925  18.670  14.597
15040W        W83434  44.126  30.809   3.630
15041W        W83435  17.118  19.780   2.952
15042W        W83436  12.391  35.353   3.194
15043W        W83437  27.639  25.461   2.689
15044W        W83438  13.873  10.436  13.136
15045W        W83439  37.294  36.065   4.203
15046W        W83440  10.465  11.180   2.358
15047W        W83441  39.813  19.759   3.383
15048W        W83442   5.813   6.183  10.695
15049W        W83443  33.427  32.986  11.223
15050W        W83444  40.524  35.373   2.298
15051W        W83445  39.610  41.480  11.642
15052W        W83446  12.074  12.866   1.455
15053W        W83447   8.819   6.192  14.953
15054W        W83448  25.809   1.960  13.045
15055W        W83449  35.434   4.144   4.042
15056W        W83450  32.522  26.980  12.201
15057W        W83451   1.959  35.718   2.617
15058W        W83452   7.729  36.118   4.784
15059W        W83453  23.542   3.204  14.362
15060W        W83454   6.911  32.765   0.484
15061W        W83455  17.305  33.716   0.872
15062W        W83456  20.002  39.663  12.485
15063W        W83457   9.535  38.249   2.631
15064W        W83458  26.433  20.092   2.860
15065W        W83459   3.534  11.320   4.801
15066W        W83460  15.367   4.390  14.439
15067W        W83461  43.790  33.967   0.311
15068W        W83462  17.249  37.524  14.032
15069W        W83463   7.080   6.236  10.635
15070W        W83464  31.927  12.703   4.075
15071W        W83465  38.782   0.544   0.077
15072W        W83466  42.733  10.177  15.000
15073W        W83467  25.684   1.682  11.437
15074W        W83468  12.484  17.759  14.176
15075W        W83469   3.925  27.513  11.517
15076W        W83470  15.315  43.434   3.344
15077W        W83471   4.811  28.389   4.233
15078W        W83472   7.167  15.647   3.208
15079W        W83473  16.142  19.556  11.141
15080W        W83474  25.624   0.487  14.743
15081W        W83475  34.113   3.322   2.178
15082W        W83476  15.833  24.609  12.209
15083W        W83477  43.050  30.662   2.307
15084W        W83478  21.498  37.053   4.521
15085W        W83479  34.119  23.149  12.173
15086W        W83480  33.960  38.268  11.267
15087W        W83481  21.159  11.229  10.793
15088W        W83482  24.307   5.816   1.459
15089W        W83483  20.091  19.517  13.092
15090W        W83484   7.010  38.798  11.993
15091W        W83485  38.802  11.668  11.181
15092W        W83486  38.115   1.180   2.660
15093W        W83487  40.974  43.391   2.225
15094W        W83488  27.923  39.658   1.442
15095W        W83489   5.590   3.552  11.199
15096W        W83490  20.015  32.610   0.396
15097W        W83491   2.172  14.630   1.379
15098W        W83492  11.037  12.378  12.954
15099W        W83493  15.107   0.722   2.882
15100W        W83494  19.622  32.000  13.005
15101W        W83495   9.830  29.482   4.648
15102W        W83496  39.392   7.679  11.968
15103W        W83497  28.481  40.825  13.888
15104W        W83498  19.763  22.360   1.675
15105W        W83499  13.702  33.357  10.630
15106W        W83500  29.852  21.321   5.023
15107W        W83501  25.167  13.478   4.300
15108W        W83502  33.626   0.548   2.014
15109W        W83503  23.535  20.047  12.535
15110W        W83504  10.641   2.512  12.885
15111W        W83505  43.385  34.165  14.393
15112W        W83506  11.249  13.834   3.237
15113W        W83507  32.940  31.827   2.100
15114W        W83508   8.373  31.919  11.085
15115W        W83509  35.380   7.249  13.544
15116W        W83510   6.515  18.699   9.820
15117W        W83511  44.069  27.257   1.357
15118W        W83512  16.273   3.445  12.938
15119W        W83513  32.319  44.315  14.393
15120W        W83514  41.927  25.751  12.907
15121W        W83515   5.405  19.318   1.868
15122W        W83516  11.649  14.660  12.557
15123W        W83517  25.829  11.578   3.209
15124W        W83518   9.889  37.872  13.776
15125W        W83519  25.023  31.436  10.736
15126W        W83520  35.049  27.982   0.784
15127W        W83521   0.194   3.322  14.760
15128W        W83522  15.139  34.822   1.379
15129W        W83523  12.953  12.390  11.181
15130W        W83524   8.335  39.696   2.469
15131W        W83525  38.604   8.982   3.135
15132W        W83526  21.824  43.655  12.397
15133W        W83527  25.050   6.790  14.396
15134W        W83528  40.058  36.804   0.986
15135W        W83529  17.477  25.171   0.969
15136W        W83530  10.445  15.687  11.092
15137W        W83531  36.282   3.526  14.704
15138W        W83532  38.425  17.167   2.805
15139W        W83533  18.336   8.837   2.888
15140W        W83534  16.084  29.961  11.927
15141W        W83535  16.860  30.121   4.224
15142W        W83536  26.459  16.448  14.322
15143W        W83537  26.112  17.836   2.892
15144W        W83538  23.675  34.454   3.701
15145W        W83539  23.165   8.245   0.764
15146W        W83540  14.217  11.139   2.697
15147W        W83541  42.256  23.236  10.933
15148W        W83542  14.028   6.444   2.496
15149W        W83543  31.016  30.173   0.310
15150W        W83544  14.413  32.349  12.601
15151W        W83545  38.913  40.858   2.726
15152W        W83546   1.114  10.070  11.603
15153W        W83547   1.799  17.042  13.010
15154W        W83548  15.404  36.848   4.207
15155W        W83549  35.170   1.601   2.888
15156W        W83550  44.996  33.537  13.906
15157W        W83551  40.011  14.170   2.629
15158W        W83552  43.708  32.365   4.053
15159W        W83553  23.517  27.030   1.847
15160W        W83554  34.204  37.877   0.519
15161W        W83555   5.892  15.776   0.388
15162W        W83556  27.828  24.676  12.802
15163W        W83557  12.270  33.417   2.921
15164W        W83558  38.423  20.780  11.963
15165W        W83559  13.036   2.524  12.379
15166W        W83560  43.403  35.409  10.537
15167W        W83561  10.753  43.943  13.496
15168W        W83562   7.998   3.185  11.172
15169W        W83563  10.640  22.073   0.271
15170W        W83564   9.315  29.908  13.959
15171W        W83565  23.576  32.530   3.180
15172W        W83566   4.980   5.613  10.576
15173W        W83567  22.798  40.470  14.290
15174W        W83568  18.093  12.554  12.583
15175W        W83569  21.152  22.912   2.583
15176W        W83570   9.324   2.504   3.107
15177W        W83571  35.387   0.862  11.631
15178W        W83572  39.373  22.448   4.088
15179W        W83573   7.867  34.353  14.043
15180W        W83574  33.246   0.991   0.493
15181W        W83575  34.899  26.454   4.743
15182W        W83576   4.191  33.507   2.092
15183W        W83577  16.469   4.176   2.725
15184W        W83578  18.670  20.607   3.333
15185W        W83579  19.483  11.233  12.650
15186W        W83580  22.139  16.601   3.383
15187W        W83581  41.315  16.549   4.122
15188W        W83582  13.310  26.719  12.892
15189W        W83583   0.883  27.905   1.896
15190W        W83584  24.682  26.074  13.181
15191W        W83585  29.064  20.755   4.409
15192W        W83586  20.921   1.855  14.160
15193W        W83587   9.847  13.236   0.205
15194W        W83588  11.396  30.295  14.000
15195W        W83589  40.588  34.862   2.385
15196W        W83590  29.058   2.361   3.045
15197W        W83591  39.697  12.779   3.642
15198W        W83592  18.737  17.738   0.543
15199W        W83593  24.495  23.652  13.652
15200W        W83594   1.829  25.652   3.181
15201W        W83595  10.435  28.757  10.428
15202W        W83596   8.210  44.377   0.281
15203W        W83597  28.215  26.766   2.774
15204W        W83598   2.485  17.952   2.407
15205W        W83599  42.251  38.102   3.715
15206W        W83600  19.038  15.668  14.966
15207W        W83601  33.382   9.600  13.487
15208W        W83602  37.203   4.928   4.674
15209W        W83603   3.269  25.665   4.754
15210W        W83604  44.282   0.991   1.900
15211W        W83605  18.674   0.369   0.922
15212W        W83606  38.378   7.086   2.988
15213W        W83607  39.981  12.919   1.441
15214W        W83608  33.492  32.879  13.397
15215W        W83609  17.266   0.059   3.259
15216W        W83610   9.759  22.262   4.480
15217W        W83611  26.923   8.805   3.185
15218W        W83612  13.676  32.681   2.392
15219W        W83613  29.682  39.043   0.799
15220W        W83614  29.120  10.660   0.511
15221W        W83615   9.510  26.022  11.459
15222W        W83616   0.889  27.679  14.413
15223W        W83617  25.628   8.890   4.525
15224W        W83618  30.303  26.857   4.503
15225W        W83619  28.933   2.867  13.570
15226W        W83620  31.542  42.296  11.242
15227W        W83621  13.371  26.133   0.459
15228W        W83622  13.695   6.494  12.527
15229W        W83623   7.067  12.618  13.336
15230W        W83624   7.210  39.252   0.376
15231W        W83625  16.305  26.657  12.519
15232W        W83626  36.963   3.765   4.200
15233W        W83627   9.923  14.989   4.064
15234W        W83628  37.914  43.453  13.061
15235W        W83629  40.700  18.594   1.218
15236W        W83630  39.977  23.146   1.245
15237W        W83631  44.670  31.517   0.835
15238W        W83632  15.154  28.023  12.327
15239W        W83633  21.587  27.459   3.445
15240W        W83634  30.650  42.571  11.216
15241W        W83635  34.207  20.028   4.497
15242W        W83636  18.001  32.151  13.572
15243W        W83637  28.682   1.480   5.598
15244W        W83638  27.409  37.981  13.052
15245W        W83639   1.515  33.650   4.160
15246W        W83640  32.888  40.517   3.844
15247W        W83641  32.536  14.856  10.529
15248W        W83642  35.933  34.582   0.871
15249W        W83643  40.388  11.363   2.846
15250W        W83644   8.953  10.265   4.436
15251W        W83645  33.411  37.794   0.826
15252W        W83646  42.209  24.841   2.808
15253W        W83647  18.705  37.017  10.958
15254W        W83648  11.596  27.120  13.412
15255W        W83649   5.354   8.615   2.710
15256W        W83650  18.597   0.992  14.487
15257W        W83651   0.293  18.121   0.095
15258W        W83652  15.547   9.433   2.738
15259W        W83653  25.206  22.048  10.304
15260W        W83654  27.954  32.151   2.321
15261W        W83655  32.940  42.912   4.651
15262W        W83656  16.318  42.529  10.722
15263W        W83657  37.367  29.558   3.895
15264W        W83658  40.835   9.066  13.994
15265W        W83659  12.216  35.872   3.114
15266W        W83660  13.719  28.398  13.330
15267W        W83661  24.559  25.553  14.384
15268W        W83662  44.667  27.566  14.944
15269W        W83663  42.491  38.369   3.364
15270W        W83664   8.091  40.473  11.008
15271W        W83665  22.553  35.574   2.305
15272W        W83666  31.107  27.089  10.896
15273W        W83667  41.303  30.009   2.607
15274W        W83668  30.170  15.775  12.693
15275W        W83669  19.977  41.156  12.555
15276W        W83670  11.183  10.510  14.832
15277W        W83671  13.480   6.991  11.197
15278W        W83672  29.485  28.823   3.611
15279W        W83673   1.215   2.735   3.315
15280W        W83674  35.383  41.616  14.154
15281W        W83675  12.720  24.244   3.688
15282W        W83676  21.661  18.263  10.934
15283W        W83677  35.711  19.032   4.934
15284W        W83678  29.345   1.494  14.439
15285W        W83679  14.416   4.341   2.441
15286W        W83680  31.632  44.757  11.076
15287W        W83681  41.918  21.999   2.824
15288W        W83682  10.570  31.086   0.336
15289W        W83683   1.953   6.822   4.568
15290W        W83684  11.760  23.780   4.022
15291W        W83685   3.461  28.201  13.028
15292W        W83686  26.013  34.346  13.464
15293W        W83687  42.790  30.314  14.587
15294W        W83688  17.409  13.329   0.455
15295W        W83689  19.809  10.437   3.785
15296W        W83690   1.760  37.535   3.312
15297W        W83691   7.134  40.602  10.738
15298W        W83692  11.695  24.416   1.383
15299W        W83693  27.480  12.046  10.558
15300W        W83694  21.636  30.787   2.928
15301W        W83695  24.915  16.964   1.468
15302W        W83696   7.853  44.867  14.893
15303W        W83697  15.102  44.793   0.189
15304W        W83698  30.853   5.753   0.688
15305W        W83699  43.838  34.902   4.344
15306W        W83700  43.983  42.462   0.040
15307W        W83701  21.221  17.234   1.942
15308W        W83702  41.623  12.151   4.455
15309W        W83703  28.155  32.165  11.882
15310W        W83704  18.023  17.571  12.080
15311W        W83705  42.336  26.808   1.648
15312W        W83706   0.319  12.334   2.627
15313W        W83707  19.242  37.394  10.644
15314W        W83708  28.359  40.496   5.061
15315W        W83709   3.681  10.780   2.815
15316W        W83710  17.181   0.810   4.539
15317W        W83711  33.597  12.889   2.440
15318W        W83712  29.807  42.050  11.547
15319W        W83713  27.095  35.669   2.573
15320W        W83714  26.619   3.376   2.799
15321W        W83715   5.294  16.649   5.403
15322W        W83716  28.344  30.380   4.796
15323W        W83717  19.049  11.647  13.708
15324W        W83718  44.479  29.575   2.782
15325W        W83719  41.244  34.001  10.609
15326W        W83720  35.808  17.039   4.009
15327W        W83721  43.108  13.689  14.471
15328W        W83722  25.010   7.638   1.052
15329W        W83723   1.619  41.349  14.702
15330W        W83724  18.279  32.111   0.435
15331W        W83725  11.923  22.653   4.586
15332W        W83726  30.072  36.150   4.365
15333W        W83727  44.790  12.056   3.776
15334W        W83728  35.898  23.174   1.371
15335W        W83729  34.585  37.753  11.127
15336W        W83730  21.622   2.565   2.843
15337W        W83731  32.698   9.048   4.153
15338W        W83732   5.967  39.962  11.456
15339W        W83733  29.419   0.501   1.668
15340W        W83734  29.986  32.666  14.465
15341W        W83735  27.156  37.780  14.283
15342W        W83736  32.244  26.016   2.105
15343W        W83737  15.958  26.198  10.356
15344W        W83738  20.701   2.795  12.076
15345W        W83739  19.860  15.315  12.567
15346W        W83740  29.733  17.636  11.449
15347W        W83741  39.828  28.672  11.426
15348W        W83742   2.694  18.998   1.896
15349W        W83743  44.308  38.510  10.822
15350W        W83744  35.588  12.308   3.666
15351W        W83745  35.151  25.375  14.914
15352W        W83746  19.576  26.581  11.140
15353W        W83747   9.513  42.311   4.892
15354W        W83748   9.445   7.202  14.341
15355W        W83749  22.794  30.576  14.467
15356W        W83750  43.448   7.779   3.699
15357W        W83751  30.875   5.122  11.465
15358W        W83752  31.739   1.706   1.928
15359W        W83753  30.838  44.321  14.182
15360W        W83754  10.760   0.370   1.917
15361W        W83755   9.719  19.575   0.835
15362W        W83756  30.051  12.660  14.025
15363W        W83757   2.746   1.043   4.075
15364W        W83758  26.008  15.759  13.088
15365W        W83759   5.269  33.549   4.503
15366W        W83760   0.505  23.020  12.563
15367W        W83761   2.227   5.744  12.007
15368W        W83762  35.113  44.199  12.972
15369W        W83763  15.359  23.701   2.726
15370W        W83764  23.694   2.847  13.998
15371W        W83765  20.802  30.159  13.858
15372W        W83766  39.069  44.395   0.786
15373W        W83767  31.380  19.463   2.687
15374W        W83768  32.844  21.339  10.045
15375W        W83769  25.986  16.862  14.952
15376W        W83770  24.398  17.447   3.626
15377W        W83771  15.686  22.203  14.048
15378W        W83772  39.572  25.700   3.127
15379W        W83773  15.515  26.244   1.876
15380W        W83774  21.137   9.001   1.857
15381W        W83775  22.505  39.945  14.039
15382W        W83776   7.665  36.003   2.310
15383W        W83777  20.313  34.630   3.294
15384W        W83778  34.350  33.111  13.991
15385W        W83779  38.427  36.058  13.006
15386W        W83780  14.410  38.154   0.884
15387W        W83781  27.708   5.206  14.359
15388W        W83782  39.282  27.097  11.992
15389W        W83783  34.043   0.310  13.876
15390W        W83784  44.431  28.014  14.819
15391W        W83785   7.536  25.747   4.051
15392W        W83786  18.984  44.003  14.267
15393W        W83787  14.773  14.686   4.664
15394W        W83788   7.360  23.873  10.896
15395W        W83789  39.568  38.082  11.740
15396W        W83790   8.868  30.094  12.149
15397W        W83791  41.224  34.504  14.869
15398W        W83792  17.650   0.730  10.722
15399W        W83793  20.242  35.835   1.806
15400W        W83794   3.241  34.613   4.080
15401W        W83795   1.880   2.675  13.608
15402W        W83796  18.440   7.788  14.490
15403W        W83797   7.374  24.976  12.935
15404W        W83798  36.120   6.280  14.895
15405W        W83799   0.213   4.330   1.863
15406W        W83800  31.067  19.110   2.352
15407W        W83801  37.424  35.787  11.000
15408W        W83802  20.529  37.600  13.031
15409W        W83803  25.513  34.415   0.794
15410W        W83804   3.754  23.493  14.418
15411W        W83805  23.610  15.075   0.257
15412W        W83806  18.327   3.954  13.284
15413W        W83807  31.967   8.217  14.316
15414W        W83808  32.113  26.683   4.563
15415W        W83809  36.302  16.723  11.981
15416W        W83810  34.897  41.733  14.327
15417W        W83811  38.012  43.689   0.407
15418W        W83812  23.552   4.833  13.402
15419W        W83813  29.227   7.901   2.752
15420W        W83814  34.952  13.721   3.137
15421W        W83815  22.161  38.546  12.061
15422W        W83816  43.975  16.779  12.455
15423W        W83817  39.314  12.604  13.895
15424W        W83818   7.146  14.809  13.627
15425W        W83819  27.904  28.751  14.399
15426W        W83820  18.037  35.914   1.228
15427W        W83821  14.349  27.714   1.705
15428W        W83822   3.983   1.681   2.898
15429W        W83823  27.594  44.886  12.832
15430W        W83824  34.384   9.728   0.376
15431W        W83825   0.191   8.922   0.986
15432W        W83826  26.184  42.541   9.685
15433W        W83827   6.122   5.845  13.806
15434W        W83828  38.094  37.167  14.158
15435W        W83829  25.277  16.731  12.556
15436W        W83830  14.223  19.847  10.568
15437W        W83831  42.427  35.026   3.078
15438W        W83832  20.058   9.070  14.017
15439W        W83833  12.797  28.582   1.650
15440W        W83834  19.505  16.844  14.970
15441W        W83835  34.093  36.504   0.254
15442W        W83836   8.482  33.122   4.240
15443W        W83837  20.372  29.306  11.553
15444W        W83838  36.965  13.510  13.495
15445W        W83839   6.240   1.490  14.572
15446W        W83840  41.933  23.117  12.295
15447W        W83841  28.579  10.371   2.306
15448W        W83842  32.391  12.142   2.368
15449W        W83843  44.541  34.573   0.444
15450W        W83844  12.681   8.755  13.817
15451W        W83845   3.749  25.191   2.231
15452W        W83846   6.685  23.555  10.323
15453W        W83847   4.825  22.191   1.799
15454W        W83848  36.522  12.872   2.399
15455W        W83849   2.242   0.956  14.566
15456W        W83850  26.023   6.218  13.764
15457W        W83851  39.476  14.714   2.292
15458W        W83852  16.490  30.705  11.971
15459W        W83853   6.629  22.245   0.795
15460W        W83854   3.473  32.040   3.768
15461W        W83855  22.341  16.263   0.281
15462W        W83856  13.118  38.659   3.328
15463W        W83857  21.329  26.945   3.735
15464W        W83858  40.942  10.700   1.417
15465W        W83859  14.631  38.373   3.501
15466W        W83860  44.711  19.204  12.535
15467W        W83861   2.996  17.684  12.640
15468W        W83862  16.998   6.141   0.354
15469W        W83863   0.441  20.735   0.360
15470W        W83864   1.480   6.800  13.965
15471W        W83865  36.526  31.847   4.080
15472W        W83866  31.913   2.799   4.106
15473W        W83867  26.924  34.934  12.603
15474W        W83868  25.525  13.366  12.104
15475W        W83869  13.490  25.425   5.115
15476W        W83870  29.007   6.344   3.691
15477W        W83871  34.050  18.839   3.311
15478W        W83872  36.857  14.256   4.042
15479W        W83873  29.725   5.047  12.068
15480W        W83874  37.356  30.902   4.132
15481W        W83875  37.877  23.481   1.951
15482W        W83876  13.078  13.751   3.305
15483W        W83877  41.497   3.373  13.967
15484W        W83878  18.910  44.514   0.807
15485W        W83879   3.161   1.353  12.114
15486W        W83880   3.469  20.364   2.241
15487W        W83881  38.429   2.084   4.045
15488W        W83882   2.721   1.755  14.771
15489W        W83883  37.309  31.153  10.615
15490W        W83884  37.993   9.331   1.023
15491W        W83885  27.064  18.261   0.881
15492W        W83886  28.603  23.628  11.062
15493W        W83887  23.247   0.512   2.375
15494W        W83888  43.542  34.982   1.468
15495W        W83889  11.523  29.300   3.316
15496W        W83890   0.755  17.848   4.444
15497W        W83891  35.516  44.900  10.717
15498W        W83892  36.081  35.830  14.864
15499W        W83893  36.617  19.978  11.215
15500W        W83894   7.048   1.905   3.080
15501W        W83895  12.364  10.348   0.930
15502W        W83896  12.709  18.418   1.914
15503W        W83897  20.186  13.371   0.492
15504W        W83898  35.219  29.401   4.326
15505W        W83899  35.389   1.763  14.865
15506W        W83900  13.313  19.899   5.263
15507W        W83901  26.861  25.031  11.174
15508W        W83902  22.989  29.595  13.136
15509W        W83903  16.221   3.257   4.113
15510W        W83904   8.476  41.821  14.341
15511W        W83905   8.656   9.172  12.019
15512W        W83906  36.989  11.718   0.396
15513W        W83907   8.635   8.361  14.877
15514W        W83908  39.871  23.970   2.276
15515W        W83909  35.504  32.632   3.351
15516W        W83910  41.893  22.527   0.874
15517W        W83911  25.889  29.614   3.811
15518W        W83912  22.258  39.029   1.713
15519W        W83913  30.581  29.598   4.819
15520W        W83914   0.207  37.127   0.907
15521W        W83915  26.727  28.936  13.053
15522W        W83916  42.102  19.066   2.680
15523W        W83917  16.170  20.252   2.899
15524W        W83918  26.547  43.987  12.525
15525W        W83919  12.200  20.763   2.294
15526W        W83920  35.508  31.156  11.084
15527W        W83921   2.734  22.692  10.809
15528W        W83922  12.364  11.343   4.015
15529W        W83923  23.635  36.878  11.613
15530W        W83924   2.748  34.679  12.993
15531W        W83925   5.419  26.994  13.453
15532W        W83926   7.732   9.410  14.931
15533W        W83927  19.201   3.488  14.813
15534W        W83928   1.280  27.157  10.698
15535W        W83929  14.617  22.553   2.357
15536W        W83930  33.115  29.692  13.746
15537W        W83931  40.130  44.955  13.543
15538W        W83932  13.242  13.185  14.402
15539W        W83933  35.474  23.692   3.123
15540W        W83934   0.821  16.366   3.030
15541W        W83935  34.674  24.205  11.514
15542W        W83936   3.207   1.548   3.432
15543W        W83937  19.842   2.232  14.799
15544W        W83938  38.028  34.232  11.085
15545W        W83939   9.158  24.244  12.456
15546W        W83940  26.778   9.273   9.954
15547W        W83941  15.184   4.666  12.486
15548W        W83942  10.321  15.610  14.502
15549W        W83943   9.277   3.016  10.524
15550W        W83944  42.311  10.379  12.018
15551W        W83945  28.473  27.980   3.631
15552W        W83946  42.456   8.279  14.896
15553W        W83947  10.833  42.479  12.114
15554W        W83948  18.110   9.833   3.712
15555W        W83949   4.167  27.682   0.766
15556W        W83950   0.245  21.672  11.735
15557W        W83951  38.266  10.261   2.716
15558W        W83952  30.904  29.851  13.591
15559W        W83953  22.079  30.700  11.210
15560W        W83954   2.035  13.103  13.761
15561W        W83955  20.816   7.128  11.924
15562W        W83956  13.333  20.192   4.358
15563W        W83957   1.689  40.907   2.769
15564W        W83958   7.179   6.925  13.777
15565W        W83959  40.662  41.902  11.849
15566W        W83960   5.268  24.576   1.779
15567W        W83961   3.615  42.905   2.568
15568W        W83962  36.891  27.218   3.319
15569W        W83963  32.157  23.794  13.791
15570W        W83964   3.079  10.176  11.521
15571W        W83965  29.221   7.884   1.818
15572W        W83966  22.094   8.919  10.641
15573W        W83967   9.823  35.562  13.891
15574W        W83968  11.326  21.161  12.055
15575W        W83969  35.255   8.130   0.493
15576W        W83970  41.547  24.903   4.174
15577W        W83971  16.376   0.209   4.725
15578W        W83972   7.149  19.071  12.291
15579W        W83973   4.349   4.775   0.732
15580W        W83974  14.575  15.158   2.466
15581W        W83975   3.655  44.931  13.877
15582W        W83976  30.647   7.875  14.740
15583W        W83977   1.881   7.726   0.329
15584W        W83978  29.822  29.678   3.628
15585W        W83979   4.456  38.893  12.056
15586W        W83980  36.090   6.153   1.707
15587W        W83981  10.292  36.508   3.177
15588W        W83982   6.654  32.087  13.537
15589W        W83983   6.737  44.352   4.898
15590W        W83984   8.315   6.115  10.276
15591W        W83985  40.631  10.342   1.216
15592W        W83986   4.275   4.180  14.828
15593W        W83987  19.587  24.149   1.119
15594W        W83988  17.804  18.644  13.797
15595W        W83989  12.788  39.884  13.663
15596W        W83990  10.691  34.530  13.037
15597W        W83991  12.034  13.727  11.612
15598W        W83992  22.550  31.874   0.210
15599W        W83993  18.195  15.812  14.849
15600W        W83994  35.032   2.447   1.426
15601W        W83995   0.267   4.850   3.648
15602W        W83996  36.944  41.255  13.770
15603W        W83997   7.150  16.215   3.870
15604W        W83998  37.848  29.584   2.566
15605W        W83999  19.865  23.154   3.264
15606W        W84000  41.264  30.110  11.216
15607W        W84001   8.944  36.997   2.758
15608W        W84002  33.312  14.241  14.956
15609W        W84003   9.613  35.221  12.915
15610W        W84004  39.863  40.561   2.319
15611W        W84005  34.837  43.892  12.131
15612W        W84006  25.313  28.218  11.297
15613W        W84007  28.216   6.826  12.386
15614W        W84008  40.821  18.113   1.457
15615W        W84009   9.918   2.897   0.384
15616W        W84010  28.292  23.376  10.709
15617W        W84011   4.299  14.332   1.785
15618W        W84012  14.144  37.376   1.436
15619W        W84013  23.556  11.880   0.264
15620W        W84014  12.315   4.778   3.213
15621W        W84015  22.021  38.869  13.999
15622W        W84016   5.669  26.237  11.626
15623W        W84017  22.064   5.933   1.637
15624W        W84018  34.825  24.339  11.994
15625W        W84019   5.677  15.912  14.346
15626W        W84020  23.741  37.118  12.066
15627W        W84021  16.025  28.637   2.219
15628W        W84022  31.012   3.384   0.247
15629W        W84023   6.195  31.514  12.854
15630W        W84024   1.696  13.778   0.002
15631W        W84025  43.407  23.053  13.915
15632W        W84026  34.238  44.688  12.071
15633W        W84027  36.292  18.165  14.427
15634W        W84028  11.412  41.934  11.557
15635W        W84029  24.372  44.850  10.707
15636W        W84030  38.070  29.557  14.374
15637W        W84031  42.331   3.157  10.646
15638W        W84032  44.801  14.682  12.514
15639W        W84033   1.299  35.641  14.911
15640W        W84034  21.260  24.164   2.588
15641W        W84035  37.652  16.557   1.836
15642W        W84036   7.860  34.616   2.391
15643W        W84037  39.775   0.006   1.271
15644W        W84038  31.335  28.157  10.739
15645W        W84039   6.483  30.387   3.345
15646W        W84040   7.936  27.903  11.075
15647W        W84041  18.037   3.157  14.443
15648W        W84042   6.391  31.423   4.658
15649W        W84043  27.516  12.884   0.971
15650W        W84044  42.588  23.971  11.226
15651W        W84045  27.581  10.716   2.343
15652W        W84046   5.586  14.588   3.369
15653W        W84047  41.267  19.247   0.756
15654W        W84048  11.819  37.595   1.724
15655W        W84049  32.549  34.537   0.329
15656W        W84050  16.544  33.116  12.852
15657W        W84051  20.513  22.033  11.364
15658W        W84052  40.309  40.201   5.011
15659W        W84053  16.143  28.440   0.611
15660W        W84054   7.175  15.250   4.681
15661W        W84055  12.684  18.283   1.315
15662W        W84056  28.577   3.841  13.122
15663W        W84057  23.150  12.504  11.901
15664W        W84058  33.893  16.214   5.160
15665W        W84059  40.857  12.889  10.576
15666W        W84060   9.719  24.746   2.724
15667W        W84061  41.184  41.271  11.632
15668W        W84062  43.524  37.470   2.225
15669W        W84063   4.264  25.161   2.179
15670W        W84064  34.983   7.505  13.988
15671W        W84065  42.801  17.004   1.462
15672W        W84066   0.290  20.654  13.920
15673W        W84067   0.670  35.894  13.977
15674W        W84068  41.838  35.623   0.188
15675W        W84069  11.429  12.319   4.020
15676W        W84070   9.891  31.653  12.621
15677W        W84071  36.154   1.734  14.441
15678W        W84072  28.941  28.680   2.395
15679W        W84073  21.211  18.716  14.940
15680W        W84074   2.748  41.278  13.638
15681W        W84075   1.264  26.488   0.911
15682W        W84076   0.901  25.933  12.466
15683W        W84077  40.755  42.765  14.977
15684W        W84078  10.238  32.170   3.301
15685W        W84079  18.214  20.123   0.663
15686W        W84080  38.592  17.259  13.626
15687W        W84081  32.453  34.117  10.936
15688W        W84082   2.788  28.646   2.881
15689W        W84083   4.268  18.299   4.062
15690W        W84084  25.126  13.591   0.548
15691W        W84085  34.440   6.666  13.801
15692W        W84086  17.877   1.144   0.791
15693W        W84087   4.926  27.255   2.152
15694W        W84088  32.188  41.262   4.077
15695W        W84089   6.215   0.479   3.220
15696W        W84090  37.281  24.615  10.577
15697W        W84091  19.103  17.408   1.232
15698W        W84092   2.245  13.301   1.251
15699W        W84093  35.651  32.938   0.496
15700W        W84094   3.489  35.353   2.787
15701W        W84095  32.512  15.812  13.489
15702W        W84096  32.890  41.404   0.850
15703W        W84097  38.406   3.142   3.896
15704W        W84098  37.505  44.181  14.814
15705W        W84099  22.540  19.756   5.134
15706W        W84100   5.011  33.015   9.927
15707W        W84101   4.181  33.781  11.021
15708W        W84102  34.059   9.750  14.933
15709W        W84103  30.501  25.240  12.536
15710W        W84104  15.748  24.968   4.647
15711W        W84105  37.381  16.998   1.273
15712W        W84106  18.258  11.548   3.609
15713W        W84107  28.711  26.305   4.539
15714W        W84108   2.470   5.878  13.639
15715W        W84109  14.318  26.336  14.716
15716W        W84110  24.974   9.823  13.361
15717W        W84111   3.900  30.676   0.226
15718W        W84112  43.504   7.375   1.505
15719W        W84113  44.993  37.774   0.901
15720W        W84114   2.275  24.560  14.449
15721W        W84115  18.685  28.465  12.431
15722W        W84116  33.515  22.669   1.388
15723W        W84117   7.483  24.083  13.066
15724W        W84118  13.284  30.931  10.900
15725W        W84119  13.785  12.263  12.844
15726W        W84120  38.348  31.928   5.069
15727W        W84121  32.437  41.758   3.859
15728W        W84122  31.727  40.774  11.931
15729W        W84123  44.355  21.480   1.300
15730W        W84124  42.289  31.054   0.327
15731W        W84125   9.538  43.351  11.117
15732W        W84126  40.005  11.301  13.755
15733W        W84127  39.996  11.448  10.676
15734W        W84128  30.445  40.634  13.882
15735W        W84129  39.253  13.070   3.561
15736W        W84130  34.146  31.302   0.256
15737W        W84131  14.155   2.967  11.259
15738W        W84132  44.605  42.019  11.202
15739W        W84133  38.463  26.001   1.774
15740W        W84134  23.644  43.867   3.397
15741W        W84135  40.932  18.504  12.014
15742W        W84136  10.369   8.817   0.556
15743W        W84137  27.204  38.378  10.467
15744W        W84138  34.499  42.557  14.073
15745W        W84139  33.050   8.340  10.894
15746W        W84140  21.981   8.908  11.417
15747W        W84141  29.575  26.806  11.139
15748W        W84142  30.577  27.340  14.739
15749W        W84143  43.404  18.384   0.389
15750W        W84144  31.893  35.985  10.968
15751W        W84145   5.510   7.233   4.842
15752W        W84146  11.828  21.009   5.063
15753W        W84147  36.460   5.695   4.186
15754W        W84148  11.747  28.377   4.121
15755W        W84149   9.477  11.642   3.796
15756W        W84150  44.504  17.474   1.436
15757W        W84151  19.443  21.178  13.911
15758W        W84152  15.977  21.525  12.827
15759W        W84153  40.355   6.389  13.527
15760W        W84154  13.191  24.448  10.648
15761W        W84155  16.817  35.188   1.883
15762W        W84156  35.011   9.834  14.385
15763W        W84157  44.952   4.166  12.299
15764W        W84158  27.879  38.352  13.961
15765W        W84159  43.850  16.788   1.276
15766W        W84160   4.876  44.209   0.781
15767W        W84161   3.959  44.003   3.101
15768W        W84162  20.855  21.659   2.478
15769W        W84163  14.796   1.205  12.963
15770W        W84164  13.373   1.030  14.261
15771W        W84165  34.208  38.805   1.347
15772W        W84166  37.075  31.422  14.930
15773W        W84167  32.741  44.284   4.884
15774W        W84168  42.477  20.694  14.741
15775W        W84169  40.611  14.210  10.787
15776W        W84170  43.240   7.166  11.219
15777W        W84171  34.997  41.809  10.640
15778W        W84172  19.144  13.997  13.191
15779W        W84173  20.561   3.827   0.004
15780W        W84174   0.611  33.771   0.851
15781W        W84175   3.869  40.332  11.307
15782W        W84176  35.462  17.172  11.024
15783W        W84177   8.134   8.899  14.207
15784W        W84178  30.038  39.091  14.726
15785W        W84179  11.190  15.579  11.938
15786W        W84180   8.913  12.296  11.498
15787W        W84181  37.383  33.899  10.657
15788W        W84182  31.159  27.152   1.502
15789W        W84183   8.784  25.166   0.753
15790W        W84184  32.859  34.527   4.044
15791W        W84185  17.495  44.082  12.136
15792W        W84186   3.868  14.070   1.573
15793W        W84187  33.515  24.261   0.348
15794W        W84188  23.027  35.885   1.680
15795W        W84189   7.217  37.957  12.981
15796W        W84190  35.093  17.231  14.723
15797W        W84191  43.776  40.870  14.015
15798W        W84192  26.758  22.555  13.904
15799W        W84193   0.391  24.199   3.356
15800W        W84194  42.034  25.220   1.422
15801W        W84195  38.400   3.409   3.276
15802W        W84196  23.605  44.768  10.242
15803W        W84197  30.713  14.628  14.309
15804W        W84198  15.258  27.811  11.476
15805W        W84199  21.007  14.359   4.139
15806W        W84200  23.158   5.218   3.854
15807W        W84201  41.461   9.218   1.283
15808W        W84202  44.274  44.770   2.697
15809W        W84203  22.130  41.467   1.918
15810W        W84204  12.495   7.437   4.187
15811W        W84205   1.392  15.677  12.418
15812W        W84206  17.121  39.354   1.829
15813W        W84207   9.084  14.480   0.330
15814W        W84208  41.199  36.548  11.107
15815W        W84209  20.111   4.893   4.584
15816W        W84210  13.888  37.826  13.475
15817W        W84211   8.119   1.837  10.866
15818W        W84212   4.408   9.980   1.231
15819W        W84213   2.662  38.862  14.132
15820W        W84214  16.083   8.655   0.909
15821W        W84215  32.596  19.268  10.523
15822W        W84216  15.084  30.582  14.269
15823W        W84217   7.763  21.553  14.070
15824W        W84218  25.644  17.111   2.716
15825W        W84219  13.420  26.591   0.752
15826W        W84220  32.711  18.941  13.530
15827W        W84221  37.665  22.367   4.159
15828W        W84222  19.003  32.171  13.647
15829W        W84223  27.251   3.119   0.017
15830W        W84224   4.642  25.416  10.557
15831W        W84225  13.773  38.415   4.686
15832W        W84226  27.743  33.239  13.558
15833W        W84227  23.927  10.170  13.047
15834W        W84228   7.239  14.087   1.306
15835W        W84229   5.693  44.316  12.456
15836W        W84230  39.146  21.295   2.825
15837W        W84231   0.927  44.569   1.829
15838W        W84232   8.593  13.278  13.905
15839W        W84233  12.377   6.291   4.933
15840W        W84234   7.931  42.329   0.981
15841W        W84235  31.308  24.331  11.179
15842W        W84236  22.457  27.463  10.693
15843W        W84237   4.026  19.112   1.202
15844W        W84238  26.024   3.514   2.307
15845W        W84239  43.546  41.480   0.746
15846W        W84240  28.702  33.620   2.239
15847W        W84241  42.978  23.196  12.501
15848W        W84242  34.016  21.105  10.557
15849W        W84243  12.093   8.936   4.017
15850W        W84244  25.245  41.241   3.187
15851W        W84245  38.107  44.152   2.800
15852W        W84246  33.133  39.549   1.797
15853W        W84247  21.117  35.911  10.823
15854W        W84248   6.779  37.820   2.103
15855W        W84249  38.331  34.000  11.965
15856W        W84250   2.628   6.350  12.586
15857W        W84251  43.925   5.388  13.594
15858W        W84252   6.419  33.627   3.048
15859W        W84253   1.021  35.452   1.249
15860W        W84254   9.040  23.533  12.134
15861W        W84255   1.580  28.963   3.906
15862W        W84256  14.164  11.379  14.023
15863W        W84257  18.595   1.705  12.409
15864W        W84258  22.702   6.511   2.867
15865W        W84259  28.517  41.628  10.617
15866W        W84260  39.623  13.760  13.557
15867W        W84261   0.268  32.091  10.933
15868W        W84262  10.007  11.570  14.529
15869W        W84263  22.072  28.923  10.932
15870W        W84264   3.974   1.350   1.244
15871W        W84265  17.129  24.847  11.557
15872W        W84266   5.283   5.666  12.061
15873W        W84267  35.018  14.899   1.969
15874W        W84268  25.153  26.046  10.718
15875W        W84269  28.920  29.587   0.423
15876W        W84270  22.298  22.040   2.330
15877W        W84271  18.757  29.991   4.623
15878W        W84272   9.267  34.385   3.469
15879W        W84273  33.134   5.659   2.347
15880W        W84274   7.477  17.365  11.257
15881W        W84275   8.274  21.125  14.326
15882W        W84276  37.827   2.733  12.800
15883W        W84277   4.806  29.379   1.020
15884W        W84278   0.463   7.345   0.304
15885W        W84279  36.247   1.765   1.490
15886W        W84280  21.751  35.302  13.387
15887W        W84281  38.887  38.568   4.239
15888W        W84282  36.791  22.994   4.007
15889W        W84283  11.660  40.542  13.302
15890W        W84284   8.799   9.366   5.083
15891W        W84285  15.298  40.922  11.495
15892W        W84286  17.300  30.505  11.211
15893W        W84287   0.942   4.692   0.280
15894W        W84288  22.524   8.202  11.850
15895W        W84289  19.827  38.162   4.999
15896W        W84290  30.997  42.951  14.823
15897W        W84291   0.818  40.032  10.913
15898W        W84292  28.001  15.806   2.292
15899W        W84293  14.538  33.023  14.347
15900W        W84294  27.750   7.793   0.715
15901W        W84295   7.893   8.702  10.816
15902W        W84296   7.711  20.027   0.489
15903W        W84297  21.674  41.550   0.979
15904W        W84298   9.770   6.971   3.581
15905W        W84299  32.956  11.833  11.622
15906W        W84300   1.124  14.543  10.072
15907W        W84301  32.895  43.415   4.069
15908W        W84302  30.548   8.380   2.638
15909W        W84303  30.551  29.425  12.253
15910W        W84304  11.651  19.478   4.149
15911W        W84305   1.748   5.802   3.253
15912W        W84306  33.960   6.489  11.891
15913W        W84307  15.813  20.806  13.510
15914W        W84308  15.620  32.370  13.414
15915W        W84309  40.594  10.234   5.088
15916W        W84310  16.678  11.318   1.057
15917W        W84311   0.376  21.332   4.954
15918W        W84312  27.905  20.136  10.407
15919W        W84313  21.630  31.832   1.737
15920W        W84314  29.233   8.804  10.717
15921W        W84315  24.165  17.317  14.364
15922W        W84316  16.675  24.351  11.141
15923W        W84317  37.913   0.003  14.209
15924W        W84318   8.309  26.479  10.487
15925W        W84319   7.464  11.357   3.182
15926W        W84320  16.438   1.126   0.265
15927W        W84321  22.468  32.363   0.263
15928W        W84322  37.297  23.617   2.777
15929W        W84323  29.996  21.508  12.523
15930W        W84324  32.051  41.459   4.528
15931W        W84325  17.016  20.701   0.497
15932W        W84326   3.864  31.486  10.467
15933W        W84327  30.357   6.960   2.718
15934W        W84328  38.024  26.983   1.158
15935W        W84329  27.800  22.579   1.739
15936W        W84330  29.416   6.580   3.145
15937W        W84331   2.841  29.215   3.776
15938W        W84332  14.761   0.704  10.716
15939W        W84333  20.813  42.919   0.206
15940W        W84334  36.796  23.716  14.712
15941W        W84335  14.670  38.501   0.508
15942W        W84336  19.736  24.407  11.463
15943W        W84337  30.357  34.584   4.101
15944W        W84338  22.104  28.606   0.472
15945W        W84339  33.057   7.555  11.466
15946W        W84340  19.311  36.047   3.680
15947W        W84341  19.578  12.777   1.750
15948W        W84342  10.777  34.521   5.028
15949W        W84343  31.118  34.833   3.863
15950W        W84344  22.043  13.270  11.771
15951W        W84345  10.927  14.769  10.988
15952W        W84346  21.846   6.237   2.756
15953W        W84347  23.470  16.870   2.383
15954W        W84348  15.563  33.131   2.312
15955W        W84349  28.152  24.686   4.172
15956W        W84350  24.572  38.916  11.112
15957W        W84351  43.816  13.342  11.152
15958W        W84352  28.705  10.194  11.077
15959W        W84353  10.943  33.945  10.522
15960W        W84354  23.489  23.834   0.870
15961W        W84355  24.092  34.378  11.907
15962W        W84356   4.994  14.266   1.248
15963W        W84357   0.624   1.006  10.676
15964W        W84358   8.921  20.978   0.462
15965W        W84359  34.470  22.624   0.690
15966W        W84360  36.957   1.471  14.874
15967W        W84361  40.756  26.896   1.345
15968W        W84362  32.899  13.402   0.914
15969W        W84363   1.720  28.254  13.661
15970W        W84364  15.190  30.783   0.134
15971W        W84365   2.431   7.231  13.073
15972W        W84366  14.800  38.287   2.712
15973W        W84367   2.506   4.331   4.741
15974W        W84368  24.210  32.901   4.194
15975W        W84369   0.266   9.090  12.099
15976W        W84370   2.671  20.629  14.852
15977W        W84371  18.052  38.787  11.200
15978W        W84372  11.810   8.806   3.179
15979W        W84373  38.665  42.012   2.702
15980W        W84374  37.502   7.426  14.844
15981W        W84375  36.643  13.887   2.783
15982W        W84376  36.023  34.364  10.369
15983W        W84377  31.420  40.243   3.610
15984W        W84378  45.000  23.045  14.787
15985W        W84379  10.103  17.604  14.214
15986W        W84380  19.231  24.971   4.802
15987W        W84381  26.009  29.154   0.710
15988W        W84382  44.294  24.157   4.521
15989W        W84383  29.343  31.395   1.667
15990W        W84384   9.845  33.652  11.686
15991W        W84385  43.149  43.730  13.541
15992W        W84386  29.034  40.855  13.965
15993W        W84387  38.504   6.407   4.496
15994W        W84388  27.058  29.198   3.931
15995W        W84389  17.245  39.864  13.918
15996W        W84390  11.360   4.723  10.764
15997W        W84391   1.090  28.060   2.857
15998W        W84392  39.035  29.060   1.285
15999W        W84393  20.749  20.568  12.913
16000W        W84394   2.268   3.221  11.584
16001W        W84395   0.957  11.132   0.286
16002W        W84396  30.772  10.235   4.684
16003W        W84397  24.179  34.591  14.403
16004W        W84398  12.486  36.897   4.178
16005W        W84399  15.556  41.811   2.755
16006W        W84400  43.934  23.954   0.381
16007W        W84401   0.024  19.503  12.895
16008W        W84402  36.572  36.059  14.099
16009W        W84403  43.975  30.885   3.122
16010W        W84404   9.174  21.479   0.249
16011W        W84405  23.152  35.821   3.167
16012W        W84406  30.495  28.883  10.926
16013W        W84407  41.090  15.734  13.041
16014W        W84408  29.701  20.752   3.899
16015W        W84409  29.952  23.123  13.826
16016W        W84410   4.376   4.875  14.051
16017W        W84411  23.731  39.887   2.747
16018W        W84412   7.807   9.208   1.864
16019W        W84413  24.763  17.496  13.907
16020W        W84414  34.919  23.426   1.388
16021W        W84415  10.642  23.479   0.811
16022W        W84416  31.954  20.624  13.010
16023W        W84417  39.508  24.971  12.327
16024W        W84418   3.906  16.162   5.372
16025W        W84419   0.857  22.598   2.442
16026W        W84420  31.849  43.744   2.699
16027W        W84421  30.627   0.292  14.706
16028W        W84422  41.935   5.154  13.425
16029W        W84423  36.426  12.229  14.705
16030W        W84424   5.386  18.762  12.076
16031W        W84425  35.286   2.881   2.689
16032W        W84426  38.931  35.005   0.972
16033W        W84427  21.343   6.252   2.824
16034W        W84428  29.610  32.894   1.191
16035W        W84429  12.441  16.019  12.296
16036W        W84430   0.962  44.840  14.902
16037W        W84431  15.334  12.904  12.485
16038W        W84432  37.743  22.781  11.725
16039W        W84433  23.578  38.397   3.779
16040W        W84434  31.593   8.790  12.922
16041W        W84435  38.067  12.203  13.068
16042W        W84436   7.570   7.857  13.009
16043W        W84437  31.366  12.358   4.685
16044W        W84438  26.387   2.920   3.826
16045W        W84439  25.666  19.124  12.352
16046W        W84440   9.752  21.547  12.438
16047W        W84441  39.561  19.868  14.598
16048W        W84442   0.442  36.243   0.859
16049W        W84443  16.079  14.863  12.578
16050W        W84444  26.681   5.235  10.750
16051W        W84445  18.563  19.880   2.828
16052W        W84446  31.561  31.849  11.196
16053W        W84447  10.668  21.888  11.282
16054W        W84448   1.535   7.253  11.171
16055W        W84449  28.343  26.133  14.467
16056W        W84450   4.658  29.179  13.093
16057W        W84451  25.090  15.013  14.944
16058W        W84452  29.604  35.553   3.379
16059W        W84453  15.611  14.432  13.088
16060W        W84454  34.431  14.314  13.978
16061W        W84455  32.089  29.218   1.330
16062W        W84456  43.341  29.026   1.333
16063W        W84457  34.894  42.792   2.199
16064W        W84458  38.072  37.579  12.452
16065W        W84459  42.543  19.328   1.222
16066W        W84460  29.566  19.736   1.110
16067W        W84461  40.531   9.886   4.389
16068W        W84462   6.354   4.242  10.904
16069W        W84463  42.874  12.780   1.777
16070W        W84464  21.192  42.551   0.192
16071W        W84465  42.243  11.068   0.533
16072W        W84466  34.890  28.583   2.756
16073W        W84467  20.223  36.267  12.805
16074W        W84468  40.279  44.485  11.443
16075W        W84469  13.227   5.926   0.537
16076W        W84470  36.412  31.654   1.698
16077W        W84471  37.407  39.797   3.112
16078W        W84472   6.104  23.127   0.871
16079W        W84473   4.512  44.911   1.214
16080W        W84474  11.366  21.543   0.181
16081W        W84475  15.259   0.599  11.714
16082W        W84476  25.799  17.128  11.459
16083W        W84477  16.773   5.345  14.968
16084W        W84478  30.190   6.693  13.440
16085W        W84479  22.726  40.882   0.450
16086W        W84480  40.580  17.561  12.856
16087W        W84481  15.329  36.287   3.660
16088W        W84482  33.230  32.170   4.118
16089W        W84483  38.974  12.873   2.167
16090W        W84484  18.878  17.898  12.043
16091W        W84485  12.084  33.360   0.752
16092W        W84486  37.207  44.472   1.581
16093W        W84487   4.483  44.765  11.511
16094W        W84488  15.651  20.492   3.217
16095W        W84489  38.095   1.778   3.768
16096W        W84490  35.176  21.060   4.584
16097W        W84491  15.296  39.360   2.104
16098W        W84492  27.098  36.450  13.487
16099W        W84493  19.275   7.949   4.136
16100W        W84494  33.640  16.601   1.369
16101W        W84495   6.202  19.294  14.897
16102W        W84496  24.662  39.559   3.748
16103W        W84497  18.407  34.570   0.955
16104W        W84498  27.272  12.694  11.145
16105W        W84499  36.064  11.141   1.408
16106W        W84500  20.035   5.289  10.557
16107W        W84501  12.369   7.690   3.616
16108W        W84502  20.303  26.893   3.623
16109W        W84503   6.430  36.915  11.924
16110W        W84504  24.883   4.863  11.114
16111W        W84505  13.819   9.593   2.766
16112W        W84506  43.460  10.177   4.746
16113W        W84507  32.375  42.739  13.294
16114W        W84508   2.913   8.980  14.327
16115W        W84509  13.332  38.212   3.752
16116W        W84510  27.565  17.051  11.637
16117W        W84511  19.140  16.171   1.866
16118W        W84512  31.864   6.249  14.916
16119W        W84513   8.799  34.037  14.784
16120W        W84514  28.691  40.139   2.382
16121W        W84515  13.425   5.325  10.630
16122W        W84516  12.712  11.469   0.818
16123W        W84517  40.509  41.956   2.293
16124W        W84518  20.144  19.770  14.059
16125W        W84519  42.916  25.499  13.029
16126W        W84520  38.948  10.223   1.726
16127W        W84521  37.253   4.832  13.890
16128W        W84522  32.682  29.927  11.170
16129W        W84523   5.115  16.102   2.486
16130W        W84524  43.058  30.418   3.136
16131W        W84525  23.025  15.811  12.504
16132W        W84526  25.510  42.575  12.052
16133W        W84527  31.194  16.013   1.423
16134W        W84528  19.457  21.601  10.668
16135W        W84529  40.052  18.451   2.843
16136W        W84530   7.293  39.092   2.746
16137W        W84531  24.171  23.975   1.955
16138W        W84532   6.767   7.352   0.473
16139W        W84533  25.073  29.907  14.391
16140W        W84534   3.246  11.995   4.143
16141W        W84535  24.636  40.213  11.586
16142W        W84536  12.165  27.708  10.641
16143W        W84537  33.423  12.605  14.365
16144W        W84538   5.468  35.027   2.515
16145W        W84539  13.651  43.506   1.398
16146W        W84540  19.136  37.745   3.331
16147W        W84541   3.948   7.909  10.746
16148W        W84542  31.242  39.730   4.372
16149W        W84543  16.793  28.970  14.244
16150W        W84544   7.938  29.151  11.599
16151W        W84545  25.172  24.730  14.231
16152W        W84546  31.140  12.237   4.016
16153W        W84547   1.295  12.849  14.200
16154W        W84548  36.285  11.716   4.148
16155W        W84549  23.070  42.227   2.304
16156W        W84550   6.971   0.095  11.885
16157W        W84551   1.031  40.537   1.976
16158W        W84552  19.129  20.888  10.074
16159W        W84553  13.042  15.198   4.120
16160W        W84554   4.938  41.047  11.861
16161W        W84555  12.713  42.412  10.952
16162W        W84556  30.799  22.738   1.885
16163W        W84557   0.242  36.948  13.336
16164W        W84558   4.757   2.446   1.856
16165W        W84559   5.671  17.394  14.046
16166W        W84560  29.886  26.986   1.887
16167W        W84561  43.489   6.190   4.577
16168W        W84562  20.845  18.034   1.370
16169W        W84563  34.030  29.890  12.824
16170W        W84564   0.309  19.735   0.352
16171W        W84565  27.036  19.037  10.712
16172W        W84566  17.155  31.487   4.317
16173W        W84567   7.238  44.823  13.115
16174W        W84568  18.483   3.237  12.584
16175W        W84569  15.851  37.989  13.424
16176W        W84570  15.306  18.090  13.733
16177W        W84571  22.740  21.565  11.664
16178W        W84572  41.781  10.107   0.989
16179W        W84573  25.704  17.811  12.541
16180W        W84574  33.134  12.689   0.438
16181W        W84575  30.420  17.145   4.596
16182W        W84576  19.788  35.434  13.123
16183W        W84577  11.028   3.450  10.660
16184W        W84578  22.310  41.876  10.653
16185W        W84579   1.366  37.057  10.379
16186W        W84580  20.013  34.381   1.864
16187W        W84581   2.859   0.519   2.620
16188W        W84582  39.552  32.157   0.997
16189W        W84583  37.501   3.384  14.002
16190W        W84584  15.229  21.693   3.651
16191W        W84585  16.597   3.023  10.723
16192W        W84586  27.988  16.664  11.648
16193W        W84587  14.979  20.504   2.299
16194W        W84588  27.708  40.988  14.396
16195W        W84589  17.735  32.059  14.405
16196W        W84590  28.216  42.883   1.924
16197W        W84591  13.087  20.235  11.435
16198W        W84592  31.068  41.298   3.380
16199W        W84593  44.905   5.186   3.844
16200W        W84594  37.678  29.171  11.610
16201W        W84595   8.962   5.988   3.599
16202W        W84596   5.871  14.584  13.074
16203W        W84597  20.999  12.867  14.799
16204W        W84598   0.810  24.785  11.850
16205W        W84599  36.346  13.197  14.519
16206W        W84600  24.233  22.006   4.388
16207W        W84601  26.112   0.352  14.820
16208W        W84602  41.385  27.459   4.624
16209W        W84603  17.480  39.897  12.457
16210W        W84604  23.275  27.524  13.725
16211W        W84605  27.655  44.026  12.980
16212W        W84606  31.050  13.681   3.412
16213W        W84607  17.543  41.084   4.100
16214W        W84608  32.698  15.706   1.476
16215W        W84609  41.444  39.156  12.597
16216W        W84610  40.806  12.818  12.614
16217W        W84611  28.912   7.362  10.793
16218W        W84612  28.437   7.363   1.822
16219W        W84613  21.056  11.947   3.951
16220W        W84614  12.564  29.016  14.959
16221W        W84615  32.642  40.669   2.739
16222W        W84616   2.292  42.757   1.252
16223W        W84617  43.950  28.390   3.593
16224W        W84618   5.243  22.749   1.338
16225W        W84619  35.410  34.084  10.484
16226W        W84620   4.573  35.296  14.228
16227W        W84621  15.259   2.467  14.530
16228W        W84622  36.893  34.197   1.159
16229W        W84623   0.469   8.279   3.616
16230W        W84624   4.133   9.065  13.993
16231W        W84625   0.558  31.220  14.712
16232W        W84626  42.764   8.796  11.158
16233W        W84627  41.616  39.287   2.915
16234W        W84628  21.905  10.588  12.862
16235W        W84629   3.469  33.921   4.468
16236W        W84630  25.372  43.933   2.150
16237W        W84631  28.178  38.374   0.285
16238W        W84632  11.541  35.571   0.851
16239W        W84633  28.023  28.999  13.959
16240W        W84634   6.085  12.412  10.676
16241W        W84635  32.993  10.598   2.344
16242W        W84636  12.780  22.963  14.408
16243W        W84637  42.870  33.613  10.415
16244W        W84638   4.445  35.481  14.701
16245W        W84639  15.594  27.107   0.879
16246W        W84640  35.165   2.864  11.580
16247W        W84641  20.892   4.618  11.690
16248W        W84642   3.351   1.374   2.442
16249W        W84643  42.232  44.818  14.341
16250W        W84644  27.064  40.968   0.848
16251W        W84645  13.784  24.078  11.744
16252W        W84646  12.772  25.458  14.936
16253W        W84647   4.849   6.045   4.670
16254W        W84648  24.563  34.195   0.998
16255W        W84649  35.008   2.018   4.316
16256W        W84650  42.828  16.102  13.328
16257W        W84651  28.988  29.487   3.398
16258W        W84652  31.144   7.816   1.047
16259W        W84653  36.764  15.799   0.957
16260W        W84654   1.410  40.174  11.952
16261W        W84655  41.459  44.945   3.884
16262W        W84656  22.283   4.052  12.081
16263W        W84657   8.084   2.339   4.985
16264W        W84658  27.946  38.414   4.844
16265W        W84659   3.024   8.308  14.884
16266W        W84660  39.088  18.702   4.651
16267W        W84661  32.317  23.061  14.016
16268W        W84662   8.723  15.106   3.790
16269W        W84663  21.402   6.960   1.483
16270W        W84664  36.897  25.985   2.721
16271W        W84665   8.700  26.632  10.807
16272W        W84666  25.087  43.495   1.207
16273W        W84667  28.700  31.480   0.379
16274W        W84668  25.513  35.075   1.325
16275W        W84669  23.774  21.666  11.595
16276W        W84670  30.085  35.869  12.505
16277W        W84671  36.340   7.351   0.912
16278W        W84672  35.093  38.455  14.529
16279W        W84673  13.130  40.545  14.274
16280W        W84674  26.000  31.452  11.144
16281W        W84675  44.718  31.050  14.444
16282W        W84676   6.776  38.934   1.972
16283W        W84677   0.761  11.070  12.361
16284W        W84678  29.147  33.732   4.564
16285W        W84679  35.223  23.520  14.374
16286W        W84680   9.272  41.824  11.697
16287W        W84681  35.447  25.069   1.697
16288W        W84682  39.089  28.651   3.803
16289W        W84683   9.620  27.970  12.076
16290W        W84684  32.109  14.783  14.667
16291W        W84685  36.951  35.490  12.441
16292W        W84686  32.090  34.999   3.890
16293W        W84687  11.886  18.471   1.734
16294W        W84688  18.326   2.459   4.229
16295W        W84689  31.582  27.230  10.777
16296W        W84690  44.229  39.469   3.256
16297W        W84691   2.927  21.041  11.201
16298W        W84692  33.057  36.641  13.491
16299W        W84693   8.106  31.083   2.998
16300W        W84694   8.383  25.257   2.695
16301W        W84695  33.861  20.474  12.463
16302W        W84696  11.681   9.231   4.078
16303W        W84697  35.469  37.642   0.770
16304W        W84698  36.456  43.262   0.447
16305W        W84699   5.822  24.600  12.793
16306W        W84700  31.552  31.031   2.892
16307W        W84701  15.606  39.350   4.545
16308W        W84702  10.590  42.098   1.946
16309W        W84703  21.951  26.071  13.948
16310W        W84704  32.073   9.696   2.677
16311W        W84705  12.609   8.356  11.028
16312W        W84706  17.443   6.256   9.857
16313W        W84707  26.233  43.769   3.640
16314W        W84708  16.145  20.195   1.957
16315W        W84709  38.492  35.611  14.975
16316W        W84710  32.113  10.964  12.771
16317W        W84711  23.601  20.762   0.683
16318W        W84712  39.325   2.741  14.332
16319W        W84713  34.887  14.967  11.475
16320W        W84714   4.736  26.715  11.996
16321W        W84715  18.725  29.396  10.336
16322W        W84716  34.889   0.391  14.327
16323W        W84717  15.058   1.530   3.384
16324W        W84718  34.920   9.228  14.958
16325W        W84719  34.033  40.520   4.357
16326W        W84720  17.484  40.137   1.379
16327W        W84721  23.276  16.643  13.819
16328W        W84722  15.020  19.997  11.174
16329W        W84723   0.996  32.124   4.801
16330W        W84724  29.268  43.168   3.647
16331W        W84725  29.084   1.807  12.061
16332W        W84726  18.965   3.450  14.308
16333W        W84727  33.483  37.193   3.801
16334W        W84728  31.363  32.157   2.798
16335W        W84729  28.068  21.650  10.969
16336W        W84730  31.830  19.785   1.368
16337W        W84731  29.399  18.507  13.997
16338W        W84732  44.078   1.425   1.732
16339W        W84733  21.578  16.176  11.594
16340W        W84734  42.553  31.035   0.784
16341W        W84735   7.266  34.415  13.376
16342W        W84736   3.790  39.480  13.443
16343W        W84737   2.793  12.342  12.591
16344W        W84738  39.308  42.830   1.704
16345W        W84739  14.391  18.114  12.023
16346W        W84740  31.370  27.450   1.009
16347W        W84741  27.683  29.437  14.863
16348W        W84742  15.109  17.246   2.173
16349W        W84743  17.239  10.376   2.435
16350W        W84744  21.206   3.413  12.694
16351W        W84745  34.535  21.262   1.384
16352W        W84746  12.919  19.772  12.653
16353W        W84747  21.230  18.856  11.986
16354W        W84748  29.413   3.519  12.042
16355W        W84749  37.418   5.035  12.874
16356W        W84750   4.581  29.033  14.380
16357W        W84751  44.798  22.789  12.112
16358W        W84752  20.107  20.954   1.008
16359W        W84753  44.813  25.647   1.401
16360W        W84754  25.556   1.376  12.141
16361W        W84755  21.048  40.860   1.319
16362W        W84756  34.460  39.138  13.820
16363W        W84757  29.389   1.370  11.011
16364W        W84758  20.011  36.056   1.366
16365W        W84759  43.444  25.785   4.957
16366W        W84760   5.491  39.409   1.751
16367W        W84761  26.750  29.042  14.965
16368W        W84762  42.347  19.704  14.324
16369W        W84763  40.958  42.487   0.453
16370W        W84764  44.869   6.764  13.071
16371W        W84765  24.120   5.842  14.003
16372W        W84766  26.006   5.612  12.577
16373W        W84767  37.087  11.171  11.980
16374W        W84768   6.553  32.941   0.932
16375W        W84769  18.126   8.145   0.314
16376W        W84770  13.077  26.888   3.261
16377W        W84771  16.575  10.375  11.324
16378W        W84772  15.786  43.434   3.134
16379W        W84773  16.347  11.343   2.256
16380W        W84774  22.811   2.866   4.218
16381W        W84775  44.733  43.772   0.200
16382W        W84776  26.592  42.350   1.817
16383W        W84777  20.008  33.898  12.902
16384W        W84778  28.919  25.689  12.069
16385W        W84779  44.498  43.846  12.032
16386W        W84780  24.656  11.706   3.098
16387W        W84781  26.908  27.991   1.428
16388W        W84782   9.384  17.277  12.915
16389W        W84783  15.157  19.642   2.144
16390W        W84784   3.346  42.103   4.356
16391W        W84785  29.513   5.124  11.203
16392W        W84786  34.624  38.477  14.286
16393W        W84787   4.817  10.533   2.285
16394W        W84788  38.926  27.128   4.600
16395W        W84789  31.682  25.042  13.045
16396W        W84790  38.137  31.931  14.237
16397W        W84791  39.923  11.004   0.621
16398W        W84792   1.664  22.048  11.657
16399W        W84793  27.173  21.715   4.039
16400W        W84794   1.794   0.111  14.622
16401W        W84795  16.958  40.475  11.123
16402W        W84796  16.799   0.372   1.715
16403W        W84797   5.716  23.691  13.442
16404W        W84798  16.729  37.360   2.701
16405W        W84799  17.489  17.089   2.746
16406W        W84800   5.822  37.210   3.362
16407W        W84801   8.209  16.347  11.248
16408W        W84802  15.832  31.420  12.178
16409W        W84803   4.993  33.378   4.909
16410W        W84804  22.027  35.922   4.093
16411W        W84805   1.995  12.267   4.571
16412W        W84806   0.224  22.064   1.802
16413W        W84807  25.679  27.566  14.384
16414W        W84808  24.958  13.237   4.710
16415W        W84809  17.753  31.822  13.910
16416W        W84810  42.933  32.636  10.733
16417W        W84811  40.383   1.993   3.724
16418W        W84812  30.977  18.533  11.549
16419W        W84813  30.898  37.325  13.404
16420W        W84814   1.392  43.853  11.385
16421W        W84815  44.979  18.751  12.531
16422W        W84816  31.458  25.116   3.591
16423W        W84817  10.894   7.705   4.005
16424W        W84818  31.544  16.372   4.253
16425W        W84819  38.862  34.612   2.303
16426W        W84820  28.663  28.688  13.848
16427W        W84821  36.546  10.345   4.134
16428W        W84822  17.608   7.694   4.048
16429W        W84823   8.113  16.463  12.320
16430W        W84824  36.820  42.507  14.280
16431W        W84825  26.308   2.433  11.657
16432W        W84826   1.418  26.110   2.233
16433W        W84827  29.996  13.955   0.518
16434W        W84828  27.463  36.504   4.281
16435W        W84829  11.714  41.803  14.907
16436W        W84830   8.240  29.392  13.578
16437W        W84831  41.951  35.401   0.857
16438W        W84832  15.831  17.223   0.763
16439W        W84833  18.816  20.625  13.041
16440W        W84834  28.648  32.601  14.855
16441W        W84835  10.074  32.117   0.887
16442W        W84836  34.441  36.293  13.449
16443W        W84837  20.028  33.347   2.707
16444W        W84838  34.428  35.383   2.140
16445W        W84839  32.649  13.040  12.823
16446W        W84840  20.656  34.863   4.768
16447W        W84841  25.909  43.384   3.572
16448W        W84842  39.031  31.261   2.186
16449W        W84843  33.789  43.568  13.334
16450W        W84844   9.829  37.444   1.933
16451W        W84845   7.750  27.803   4.506
16452W        W84846  18.387   0.102  11.061
16453W        W84847  42.219   5.912   2.642
16454W        W84848  41.091  22.522  13.107
16455W        W84849  12.930  28.096   3.285
16456W        W84850  37.119  15.861  14.047
16457W        W84851  17.283   2.289  13.760
16458W        W84852  18.677  30.686   0.461
16459W        W84853  33.848  24.643  13.326
16460W        W84854   6.372  22.106   1.432
16461W        W84855  38.002   5.672   1.624
16462W        W84856  25.104  20.192   0.963
16463W        W84857   3.115  43.429  10.490
16464W        W84858   3.296  19.291   3.851
16465W        W84859  27.179  41.098   1.740
16466W        W84860  44.193  25.822  14.813
16467W        W84861  28.614   4.794   1.880
16468W        W84862  18.490   7.860  13.414
16469W        W84863  15.678   4.247  11.158
16470W        W84864   6.314  34.408   4.208
16471W        W84865  36.656  25.786  11.508
16472W        W84866   2.437  38.086  11.898
16473W        W84867  30.000  27.613   3.228
16474W        W84868   3.434  11.220   2.006
16475W        W84869  28.171  16.753   4.876
16476W        W84870   8.413  41.605   4.541
16477W        W84871  11.649   0.385  13.938
16478W        W84872   4.293  21.759  13.982
16479W        W84873  43.985  28.142   4.482
16480W        W84874  15.182  15.224   4.471
16481W        W84875   8.117  41.335   0.019
16482W        W84876  17.170  36.064  13.558
16483W        W84877  19.650   3.695   3.399
16484W        W84878  15.602  30.383   3.687
16485W        W84879  22.756   3.323   4.538
16486W        W84880   6.207  11.252  14.011
16487W        W84881  34.463   9.187   0.241
16488W        W84882  33.482  22.924  12.163
16489W        W84883   8.190  28.090  14.761
16490W        W84884   0.128  41.844  11.160
16491W        W84885  25.338  34.008   3.589
16492W        W84886  17.014  37.593   1.426
16493W        W84887  41.442   4.897   3.209
16494W        W84888  17.260   6.951  11.506
16495W        W84889  44.958  28.129   4.355
16496W        W84890  44.880  28.721   2.232
16497W        W84891   8.341  20.267   2.693
16498W        W84892   4.946  39.063  12.193
16499W        W84893   3.770   8.239  11.613
16500W        W84894  27.315  22.590   2.063
16501W        W84895  41.924  12.898  14.814
16502W        W84896  15.645  31.435  14.140
16503W        W84897  16.472  15.262  10.730
16504W        W84898  38.086  29.105   1.866
16505W        W84899  12.059   7.855   1.793
16506W        W84900  17.333  42.934  13.068
16507W        W84901  36.095  44.014   4.162
16508W        W84902  23.721  42.247  12.254
16509W        W84903   9.709  21.075   1.423
16510W        W84904  39.875  29.545  13.798
16511W        W84905   1.987  17.601   0.174
16512W        W84906  41.945  30.122   0.087
16513W        W84907   0.897   3.392   1.478
16514W        W84908  29.470  40.051   0.813
16515W        W84909   7.908  26.717   3.208
16516W        W84910   5.384  18.268   4.579
16517W        W84911  13.028  19.146   1.708
16518W        W84912  32.015  14.311   4.292
16519W        W84913  26.676  18.756   2.725
16520W        W84914  33.877  32.082  10.931
16521W        W84915   4.979  31.876  10.117
16522W        W84916  20.072  44.894   2.982
16523W        W84917  39.799  43.186  11.194
16524W        W84918   2.950  32.370  14.858
16525W        W84919  25.223  20.079  11.231
16526W        W84920  11.937  23.577   1.192
16527W        W84921  27.744  26.119  10.617
16528W        W84922  15.559  14.680   3.103
16529W        W84923  37.491  12.702   4.423
16530W        W84924   4.930  37.987  12.471
16531W        W84925  18.102   8.252   2.667
16532W        W84926  10.326  29.849   2.054
16533W        W84927   5.422  14.876  12.955
16534W        W84928   0.865  33.775   4.238
16535W        W84929   3.891   0.250  12.119
16536W        W84930  19.695  18.637   4.308
16537W        W84931  34.321  26.193  12.450
16538W        W84932  13.834  39.454   0.478
16539W        W84933  37.132   5.447  13.211
16540W        W84934  27.531   2.230  10.235
16541W        W84935  12.747  41.579   3.035
16542W        W84936  20.643  14.168   3.225
16543W        W84937  43.400   5.360   3.386
16544W        W84938   9.605  36.896  14.789
16545W        W84939  31.021  20.805  11.108
16546W        W84940  40.549  31.437   3.028
16547W        W84941  23.677   9.723  12.862
16548W        W84942   0.805  17.509  13.535
16549W        W84943  38.918   3.503  14.051
16550W        W84944  13.940   4.936   3.630
16551W        W84945  44.995  30.739  10.711
16552W        W84946  23.443  22.140   4.623
16553W        W84947  10.320  14.581  11.656
16554W        W84948   9.647  37.236  12.493
16555W        W84949  15.031  37.940   3.611
16556W        W84950  27.007  20.070  11.635
16557W        W84951  15.571   0.680  13.182
16558W        W84952   5.893  25.527   0.045
16559W        W84953   5.950  33.176  11.534
16560W        W84954  20.060   9.310   0.963
16561W        W84955  28.627  23.491  11.994
16562W        W84956   5.740  12.183   1.334
16563W        W84957   9.731  42.975   3.692
16564W        W84958   1.623  32.974  11.459
16565W        W84959   0.219  36.882   4.011
16566W        W84960  25.609   1.962  11.835
16567W        W84961  37.402  35.009  13.062
16568W        W84962  36.358  38.518   3.223
16569W        W84963  15.559  24.513  13.860
16570W        W84964  24.062  31.028   0.800
16571W        W84965  24.478  11.111   2.383
16572W        W84966   6.762  24.151  12.684
16573W        W84967  37.093   3.902   0.545
16574W        W84968  38.375  23.035   1.371
16575W        W84969  11.143   5.153   2.760
16576W        W84970  44.951  22.778  13.940
16577W        W84971  31.839   5.453   1.818
16578W        W84972  17.754  35.999   3.692
16579W        W84973  18.002  19.164  12.422
16580W        W84974  33.396  23.138   3.833
16581W        W84975   0.080   0.768  11.503
16582W        W84976  18.127  44.892  13.918
16583W        W84977  16.899   0.894  13.047
16584W        W84978  11.111   0.323   3.233
16585W        W84979  40.120   7.310   2.265
16586W        W84980   7.462  39.034  11.149
16587W        W84981   9.433   8.197   1.435
16588W        W84982  42.122  27.151   1.316
16589W        W84983  11.350  43.737   3.528
16590W        W84984   5.627  30.057   3.136
16591W        W84985  38.472   6.581   3.142
16592W        W84986  32.169  14.280  11.094
16593W        W84987  12.602  22.524  14.159
16594W        W84988  23.441  32.889   4.504
16595W        W84989  24.091  13.148   1.395
16596W        W84990  40.065   5.171  14.000
16597W        W84991  34.956   2.999  14.900
16598W        W84992  26.598   3.725  13.118
16599W        W84993   6.655  33.831  11.140
16600W        W84994  17.776  11.822   1.856
16601W        W84995  30.513   2.958   1.489
16602W        W84996  36.021  35.278   4.183
16603W        W84997  36.679  36.608   2.222
16604W        W84998  26.650  29.468   3.707
16605W        W84999  21.265  25.843   0.367
16606W        W85000  13.268  29.020  13.811
16607W        W85001  15.733  44.769   2.208
16608W        W85002   3.225   5.519   4.151
16609W        W85003  23.802  43.459   2.888
16610W        W85004  44.308   0.628  13.557
16611W        W85005  18.655   5.503   0.337
16612W        W85006  21.587   9.141  12.813
16613W        W85007   8.767   6.234   1.803
16614W        W85008  42.804  30.522   0.903
16615W        W85009  44.744  41.507  11.201
16616W        W85010  10.457  24.649  13.986
16617W        W85011  43.897  28.313  12.868
16618W        W85012  26.487  14.312  11.542
16619W        W85013  10.803   1.793  11.279
16620W        W85014  24.743  20.233   3.229
16621W        W85015   7.965  22.642  10.847
16622W        W85016  23.537  37.410  13.932
16623W        W85017  37.379   6.366   2.941
16624W        W85018  41.371  33.122   4.352
16625W        W85019   3.634  19.989  14.008
16626W        W85020  31.160  37.174  12.960
16627W        W85021   3.406   4.838  13.169
16628W        W85022  36.473  40.683  11.999
16629W        W85023  13.164  20.966   4.569
16630W        W85024  28.470  14.611   2.022
16631W        W85025  40.855   9.939   2.673
16632W        W85026  44.624  44.605   5.115
16633W        W85027  44.533  38.514   3.206
16634W        W85028  35.169   4.257  13.020
16635W        W85029  21.647  40.520   3.690
16636W        W85030   7.619  23.192   4.595
16637W        W85031  42.444  19.521   4.629
16638W        W85032   4.198  19.125   2.360
16639W        W85033   4.438   8.070  12.368
16640W        W85034  41.795  16.734  11.543
16641W        W85035  35.000  22.427   3.990
16642W        W85036  43.860  12.303  12.511
16643W        W85037  27.280  20.617  13.867
16644W        W85038  17.947  16.038  14.006
16645W        W85039  24.026  29.736  13.802
16646W        W85040  41.560  36.355   1.292
16647W        W85041   5.544  36.172  11.675
16648W        W85042  15.590  32.892  11.953
16649W        W85043  33.065  35.838   3.648
16650W        W85044  18.187   6.279   3.790
16651W        W85045  14.440  24.349  11.958
16652W        W85046  40.020  10.789   3.273
16653W        W85047  38.913   2.233   2.262
16654W        W85048   2.903  43.905  12.492
16655W        W85049  10.632   6.844   3.210
16656W        W85050   6.041  33.032   0.811
16657W        W85051   7.677   6.209  11.939
16658W        W85052  20.570  37.067  10.648
16659W        W85053  21.706  16.646   4.335
16660W        W85054  34.544  41.826   4.186
16661W        W85055  30.682  36.589  10.755
16662W        W85056   8.814  19.711  13.481
16663W        W85057  28.204   5.278   0.281
16664W        W85058  37.342   8.968  14.677
16665W        W85059   7.350  43.976  14.339
16666W        W85060  38.253  21.013  12.396
16667W        W85061  16.769  44.288   0.218
16668W        W85062  16.259  27.795   2.744
16669W        W85063   0.522  19.686  14.892
16670W        W85064  14.353   5.216  13.572
16671W        W85065   8.482   6.822   0.731
16672W        W85066  28.640   9.265  11.138
16673W        W85067  42.005  26.932   0.836
16674W        W85068   3.046  10.415  10.681
16675W        W85069  40.387   4.772  13.835
16676W        W85070  15.596   7.408   1.481
16677W        W85071   1.771  15.026  14.008
16678W        W85072  10.602  10.711  14.565
16679W        W85073  44.257  19.570   1.531
16680W        W85074   7.288  38.825   0.084
16681W        W85075  17.655  11.960  13.899
16682W        W85076  39.037  39.759  11.591
16683W        W85077  20.180  20.715   3.359
16684W        W85078  42.102  19.305   2.159
16685W        W85079  14.731  10.177  14.809
16686W        W85080  44.021  20.929   0.463
16687W        W85081  43.804   7.526  13.958
16688W        W85082  11.193  36.316  11.405
16689W        W85083  11.126  42.264   3.270
16690W        W85084  28.157  42.430   4.224
16691W        W85085  24.486   5.153  14.773
16692W        W85086  27.262   8.863   2.337
16693W        W85087  38.016   2.539   1.449
16694W        W85088  18.117  17.588   5.006
16695W        W85089   4.025   7.185   2.451
16696W        W85090  22.477  23.085   1.230
16697W        W85091  21.774  17.678  13.032
16698W        W85092  20.756  11.513  14.507
16699W        W85093  32.081  20.704  13.503
16700W        W85094  29.196  33.066  12.017
16701W        W85095  31.212  30.555   1.556
16702W        W85096  24.573   3.267  14.712
16703W        W85097   4.998  32.943  11.123
16704W        W85098  10.897   2.296  10.736
16705W        W85099  41.917  16.285  14.850
16706W        W85100   2.536  19.589   5.155
16707W        W85101  25.417   4.522   4.242
16708W        W85102   3.869   4.182  14.499
16709W        W85103  35.575  33.002  13.543
16710W        W85104   4.465  33.928   2.816
16711W        W85105  10.630  34.109   4.723
16712W        W85106  19.737  39.789   0.399
16713W        W85107   3.950  22.568   1.812
16714W        W85108  25.192   5.435  10.656
16715W        W85109  17.120  36.468   2.587
16716W        W85110  39.374  34.607   2.211
16717W        W85111  39.373  14.076   3.524
16718W        W85112   5.954  33.642   3.283
16719W        W85113  15.811  17.096   5.086
16720W        W85114  18.666  38.769  11.606
16721W        W85115  19.650  14.879   1.724
16722W        W85116  13.727  44.348  11.093
16723W        W85117  30.265  37.115  14.240
16724W        W85118  32.040  13.242  11.583
16725W        W85119  44.243  19.183  13.515
16726W        W85120  14.197   4.935  10.257
16727W        W85121  37.377  31.405   0.725
16728W        W85122  28.122  27.406  13.893
16729W        W85123  17.508  23.727  11.736
16730W        W85124   9.921   6.941   2.172
16731W        W85125  13.677  40.364   3.590
16732W        W85126  28.646  14.778   3.116
16733W        W85127  11.863  41.027   1.198
16734W        W85128  22.124  39.834   4.109
16735W        W85129  20.179  23.274  10.659
16736W        W85130  18.647  25.991   0.949
16737W        W85131  31.398  44.275  14.836
16738W        W85132  38.909  28.864  12.909
16739W        W85133  28.066   6.963   1.781
16740W        W85134  39.792   5.466  14.308
16741W        W85135  18.110  29.034  10.621
16742W        W85136   5.676  33.686   1.377
16743W        W85137   6.807   0.202  14.582
16744W        W85138  41.144   5.078  11.453
16745W        W85139   9.289  18.783  12.904
16746W        W85140   5.642  20.207  12.290
16747W        W85141  17.073   4.465   4.136
16748W        W85142  42.938  34.738  12.410
16749W        W85143  38.079  23.858   0.238
16750W        W85144  43.397   2.611   4.609
16751W        W85145  16.546  14.652   1.407
16752W        W85146   9.672  42.917  13.100
16753W        W85147  44.298  44.724  12.282
16754W        W85148  35.651   5.755  11.214
16755W        W85149  13.677  30.104   2.999
16756W        W85150   5.239  13.704  13.505
16757W        W85151  43.273  24.213   1.120
16758W        W85152  25.920  31.953  14.335
16759W        W85153   5.223  19.648  12.952
16760W        W85154   1.821  28.411   2.383
16761W        W85155  13.244  24.999  14.830
16762W        W85156  17.549  11.411  14.009
16763W        W85157  29.601   3.979   3.850
16764W        W85158  25.377  22.136   0.473
16765W        W85159  25.801  34.078  14.828
16766W        W85160  32.072  25.593   3.618
16767W        W85161  25.007   6.845  11.705
16768W        W85162  30.053  34.081   1.370
16769W        W85163  14.621  16.079  14.290
16770W        W85164   4.864  26.082  13.820
16771W        W85165  38.461  15.702   3.900
16772W        W85166   4.892  39.911  10.627
16773W        W85167   1.238  33.435  13.387
16774W        W85168   8.314  36.557   4.151
16775W        W85169  24.249  17.609   3.143
16776W        W85170   9.652  19.310  13.839
16777W        W85171  22.683  28.600  10.523
16778W        W85172  18.375  34.500  10.653
16779W        W85173   3.638  11.390   5.452
16780W        W85174  37.464   0.918   2.975
16781W        W85175  10.955   6.701   2.215
16782W        W85176  15.379   8.440   0.793
16783W        W85177  24.053  17.640   1.202
16784W        W85178  25.013  35.067   1.370
16785W        W85179  42.945   8.460  13.033
16786W        W85180  41.610  43.173  13.991
16787W        W85181  17.314  19.976  13.603
16788W        W85182  36.098   1.957  11.545
16789W        W85183   7.968  19.021  11.737
16790W        W85184   2.477  21.137   0.469
16791W        W85185  36.013  12.430  11.199
16792W        W85186  12.990   9.541  11.407
16793W        W85187  15.599   9.643  12.423
16794W        W85188  14.080  40.900   4.569
16795W        W85189  16.110   1.992   0.492
16796W        W85190  13.183  44.208  13.345
16797W        W85191  41.094  34.920   2.297
16798W        W85192   8.405  14.192   3.496
16799W        W85193  24.114  40.308   0.783
16800W        W85194  29.587   2.886   3.093
16801W        W85195  26.207  23.959   2.649
16802W        W85196  22.470  12.224  11.745
16803W        W85197  29.882  38.620  11.208
16804W        W85198  36.410  41.179   4.974
16805W        W85199   6.316   3.628   2.720
16806W        W85200  20.539  33.015   0.671
16807W        W85201   5.847  41.729   4.220
16808W        W85202   3.489  26.598  13.906
16809W        W85203  27.477  21.913   0.254
16810W        W85204  31.155  36.331   2.806
16811W        W85205   6.239  39.058   4.194
16812W        W85206   0.058  39.847  14.851
16813W        W85207  17.469  32.699   0.560
16814W        W85208  43.541  29.570   2.144
16815W        W85209  26.726   5.193   4.227
16816W        W85210  38.612  16.724  12.452
16817W        W85211  10.951  24.297  12.375
16818W        W85212   3.755  17.172   0.972
16819W        W85213  41.858  28.235  11.532
16820W        W85214  14.774   0.011   1.399
16821W        W85215   9.828  17.588   0.489
16822W        W85216  30.765  23.182  10.706
16823W        W85217  28.211  12.885   4.107
16824W        W85218  22.044  29.717   1.248
16825W        W85219  43.894  35.408   1.596
16826W        W85220  15.188  38.117  12.028
16827W        W85221  27.493   0.593  13.987
16828W        W85222   1.761  26.261  13.517
16829W        W85223  20.157  39.315  11.053
16830W        W85224   8.003  44.705   2.756
16831W        W85225  15.169  26.950   0.257
16832W        W85226  16.935  40.844   2.411
16833W        W85227  10.402  35.475  14.779
16834W        W85228  15.126  37.442   4.984
16835W        W85229  39.372   1.941  12.609
16836W        W85230   6.606  42.004   3.788
16837W        W85231   9.526  36.966   2.364
16838W        W85232  14.766  35.427   3.822
16839W        W85233  37.800  20.672  13.514
16840W        W85234  20.004   6.577  12.971
16841W        W85235  17.454  13.093   3.212
16842W        W85236  12.912  44.786  13.826
16843W        W85237   8.036  23.273   4.891
16844W        W85238  11.824  33.509   0.332
16845W        W85239  25.874  41.464   0.444
16846W        W85240  25.953  25.316   5.150
16847W        W85241  14.073  40.155  12.418
16848W        W85242  13.177  10.220   3.458
16849W        W85243   9.382  12.496  11.427
16850W        W85244  23.136  22.841  13.755
16851W        W85245  13.719   6.113   4.277
16852W        W85246  34.061  11.897  14.967
16853W        W85247  34.358  30.211  10.707
16854W        W85248  41.418  39.106   3.724
16855W        W85249   4.678  38.974  11.586
16856W        W85250   4.448  42.838   1.619
16857W        W85251  24.797   6.337  14.931
16858W        W85252  43.992   0.666   2.172
16859W        W85253  17.972  29.695   0.889
16860W        W85254  37.311  25.923  13.331
16861W        W85255  34.933  17.265   5.186
16862W        W85256  39.930  29.013   3.620
16863W        W85257  43.005  13.615   4.318
16864W        W85258   7.974  15.541   2.820
16865W        W85259  10.355  30.077   0.322
16866W        W85260  15.866  23.765   2.610
16867W        W85261   9.741   5.412   1.244
16868W        W85262  26.179  21.289   4.116
16869W        W85263   4.720   9.866  12.432
16870W        W85264  30.488  43.972   2.836
16871W        W85265  40.464  34.673   4.105
16872W        W85266  31.449  12.491   1.836
16873W        W85267  31.672  29.056   2.165
16874W        W85268  42.270  44.252  11.883
16875W        W85269   5.334   1.253   3.937
16876W        W85270   5.096  22.457  11.655
16877W        W85271   8.833  11.098  10.757
16878W        W85272   1.982  27.025   3.710
16879W        W85273  27.527  37.525   0.394
16880W        W85274  14.026  21.175  12.546
16881W        W85275  15.828  35.977   4.617
16882W        W85276  27.114   2.884   1.780
16883W        W85277  26.837   0.180   2.801
16884W        W85278  44.775  36.635  12.097
16885W        W85279   1.171   2.184  11.107
16886W        W85280  23.996   0.479   1.707
16887W        W85281  27.955  17.666  13.961
16888W        W85282  34.162  27.011  10.461
16889W        W85283  19.552   7.304  14.722
16890W        W85284  37.015  18.755  12.405
16891W        W85285  37.110  44.836  13.080
16892W        W85286  42.776  20.473   4.401
16893W        W85287  20.453   7.295   2.933
16894W        W85288  22.274  15.560   2.627
16895W        W85289  40.605   8.632   0.797
16896W        W85290  39.842  32.557   4.592
16897W        W85291  19.211  20.803  14.910
16898W        W85292  12.290   9.401   4.165
16899W        W85293   3.349   4.896  14.562
16900W        W85294  12.725  36.216   1.980
16901W        W85295  12.782   3.231  14.443
16902W        W85296   3.040   8.834  11.540
16903W        W85297  40.488  18.386   3.143
16904W        W85298  41.434  36.703  13.220
16905W        W85299  27.183  18.116   4.661
16906W        W85300  16.933  37.470  11.171
16907W        W85301   9.555  15.811  12.914
16908W        W85302  16.688  32.878  13.826
16909W        W85303  40.050  20.130   1.585
16910W        W85304  34.600  40.535   4.122
16911W        W85305  29.472   7.309  11.594
16912W        W85306   2.102  14.525  12.853
16913W        W85307  11.960  38.608   3.114
16914W        W85308   7.703   7.117   5.004
16915W        W85309  26.565  12.080   3.650
16916W        W85310  10.259  23.324  11.413
16917W        W85311  27.394  16.472   2.759
16918W        W85312  39.005  34.902  10.501
16919W        W85313  12.282  18.714   3.375
16920W        W85314  19.143   6.089   2.848
16921W        W85315  40.465  24.939   4.884
16922W        W85316  18.222  21.932  12.591
16923W        W85317  36.610  35.039   0.477
16924W        W85318   0.188  40.019   1.833
16925W        W85319  16.248  18.009   2.240
16926W        W85320  43.093  21.538  14.512
16927W        W85321  20.657  36.693  12.086
16928W        W85322  34.751  14.535   1.219
16929W        W85323  35.370  30.981  14.857
16930W        W85324  20.044  11.435   4.134
16931W        W85325  18.334  41.822  10.683
16932W        W85326  15.882  17.967   4.990
16933W        W85327  18.865  44.278   4.539
16934W        W85328  27.971  22.133   0.258
16935W        W85329  34.384  22.688   3.122
16936W        W85330  13.700  19.054   3.807
16937W        W85331  43.567   0.798  12.487
16938W        W85332   2.701  27.963  11.771
16939W        W85333  27.254   3.734  11.892
16940W        W85334  23.916  35.426   3.462
16941W        W85335  14.106  31.989  13.449
16942W        W85336  27.435  22.542  12.660
16943W        W85337  23.561  11.159  11.596
16944W        W85338   3.034  17.193   2.854
16945W        W85339  38.688  15.909   0.550
16946W        W85340   4.713  10.261  11.975
16947W        W85341  28.859   6.321  11.191
16948W        W85342  13.291  21.520   0.450
16949W        W85343  41.803   6.009   1.796
16950W        W85344  43.425  10.208  13.119
16951W        W85345  33.002  37.107   2.487
16952W        W85346   7.297  14.357  13.804
16953W        W85347   7.423  30.592   1.929
16954W        W85348  15.523  25.110  14.670
16955W        W85349  18.593  21.511   3.689
16956W        W85350  25.785  13.703  12.449
16957W        W85351  14.992  30.247   2.883
16958W        W85352  42.722   9.660   0.348
16959W        W85353  10.947   2.668  11.106
16960W        W85354   2.417  10.105  12.537
16961W        W85355   5.392  34.881   0.504
16962W        W85356  40.468   2.713  11.603
16963W        W85357  11.229  43.873   2.521
16964W        W85358  32.351  31.280   4.117
16965W        W85359   6.964  20.194  11.759
16966W        W85360  32.098  38.599   0.669
16967W        W85361  18.069  18.364   2.242
16968W        W85362  34.926   4.917   0.527
16969W        W85363  42.900  11.970   2.160
16970W        W85364  27.558   8.666  10.726
16971W        W85365  22.291  31.931   3.623
16972W        W85366  38.469  39.444   1.716
16973W        W85367  44.252  30.768  13.549
16974W        W85368  27.371  25.160   1.835
16975W        W85369   6.742   9.344   0.875
16976W        W85370   4.437   3.947   9.870
16977W        W85371  19.289  26.252   2.837
16978W        W85372  13.317  22.607  13.447
16979W        W85373   4.788  18.350   4.094
16980W        W85374  26.108  32.803   2.148
16981W        W85375  10.636  39.129  11.082
16982W        W85376   5.853  38.649   3.138
16983W        W85377  33.754  40.584   0.368
16984W        W85378  25.194  32.768  13.120
16985W        W85379  24.531   2.767  14.899
16986W        W85380  32.019  20.538   1.697
16987W        W85381   1.029  31.564  13.981
16988W        W85382  29.538   7.852  14.286
16989W        W85383  12.850  22.751  14.955
16990W        W85384  12.548   5.393   2.795
16991W        W85385  21.288  18.518   0.418
16992W        W85386  36.793   8.301   0.881
16993W        W85387  22.777  37.003   4.281
16994W        W85388   6.460  44.745   4.658
16995W        W85389   2.441  12.177  12.933
16996W        W85390  40.913   3.433   2.448
16997W        W85391   9.149  22.809  14.125
16998W        W85392   5.908  36.045   3.707
16999W        W85393   8.112  43.362   2.781
17000W        W85394  20.850  30.311  10.105
17001W        W85395  35.041  18.659  11.668
17002W        W85396  23.627   5.157   2.845
17003W        W85397   4.366  43.720  10.599
17004W        W85398  37.034   2.875  11.632
17005W        W85399   0.840   2.530   4.826
17006W        W85400  33.364  37.494   4.214
17007W        W85401  34.111  39.142   0.958
17008W        W85402  11.210  38.202  13.974
17009W        W85403   9.486  44.492  13.081
17010W        W85404  26.332  36.446  13.132
17011W        W85405  41.472  17.356  13.477
17012W        W85406  36.154  26.323  12.111
17013W        W85407  28.701  38.306   0.259
17014W        W85408   3.142  26.658  14.888
17015W        W85409  16.534  39.429  13.370
17016W        W85410  17.059  19.282   3.164
17017W        W85411  27.968   3.035  13.948
17018W        W85412  10.884  37.035  11.327
17019W        W85413  22.630  17.600  11.614
17020W        W85414   7.823  28.388   1.981
17021W        W85415  44.566  10.307   0.379
17022W        W85416  24.331   6.757  13.994
17023W        W85417  19.511  21.512  11.182
17024W        W85418  34.396  44.901   2.236
17025W        W85419  17.313  17.649   0.809
17026W        W85420  41.860  17.494  11.040
17027W        W85421  27.114  11.617   4.162
17028W        W85422  26.070  32.489  12.058
17029W        W85423  38.898  44.856   9.746
17030W        W85424   9.182  22.642   1.436
17031W        W85425  12.783  11.542  13.495
17032W        W85426  34.526  20.762   3.963
17033W        W85427  16.267  15.710  12.900
17034W        W85428  12.666  33.907  13.729
17035W        W85429  19.181  17.858  14.304
17036W        W85430  34.337  27.235  11.754
17037W        W85431  26.927   4.306  12.617
17038W        W85432   9.281  17.008  11.281
17039W        W85433  16.469   6.301   2.546
17040W        W85434  26.486  13.783   2.272
17041W        W85435  20.000  31.962   2.411
17042W        W85436   4.263  26.829   3.782
17043W        W85437   1.992  20.017  14.830
17044W        W85438   9.899  28.022  11.631
17045W        W85439  22.588  22.955  13.510
17046W        W85440  42.996   3.214   2.237
17047W        W85441   4.914  24.533   2.391
17048W        W85442  32.689  38.428  14.368
17049W        W85443   0.229  40.437   0.979
17050W        W85444  29.390   7.405  11.080
17051W        W85445  32.454  20.491  12.458
17052W        W85446  38.349   2.040   2.749
17053W        W85447  10.768  25.070  11.012
17054W        W85448   1.926  27.856  13.928
17055W        W85449  14.113  10.877  13.857
17056W        W85450  18.275   5.921   3.396
17057W        W85451  20.891  38.535  14.441
17058W        W85452  28.491   4.824  11.126
17059W        W85453  23.074  12.417  11.089
17060W        W85454  21.941  34.385  13.499
17061W        W85455   0.769  27.437   1.686
17062W        W85456   5.959  30.498   0.206
17063W        W85457  42.290  12.211  13.795
17064W        W85458  14.878  28.444   1.227
17065W        W85459  40.367  38.648  14.409
17066W        W85460   7.669   8.783  14.422
17067W        W85461  25.947  38.901  13.369
17068W        W85462  16.204  38.219   1.649
17069W        W85463  14.271  28.967  10.833
17070W        W85464  15.100  40.831   0.370
17071W        W85465  39.068  18.472   5.108
17072W        W85466   5.165  31.534   2.378
17073W        W85467  19.266  42.443  12.025
17074W        W85468  32.461  37.086   4.554
17075W        W85469  21.122  13.743   3.734
17076W        W85470  44.308  20.224   3.690
17077W        W85471   0.947  31.943   0.752
17078W        W85472  38.692  29.410   1.164
17079W        W85473  28.587  28.956   0.725
17080W        W85474  37.486  37.984  13.833
17081W        W85475   7.111   3.835   1.705
17082W        W85476   1.499  24.633  11.515
17083W        W85477  13.201  20.829  14.876
17084W        W85478  23.210  42.565  13.976
17085W        W85479  36.934  37.509  13.309
17086W        W85480  15.325  15.668  13.987
17087W        W85481  37.002  36.308   2.852
17088W        W85482  39.888  12.620   1.887
17089W        W85483  18.603  10.293  13.098
17090W        W85484   8.434   9.048  11.414
17091W        W85485  44.909  25.725  14.285
17092W        W85486  42.396  12.408   2.770
17093W        W85487  26.704   2.293  13.541
17094W        W85488  21.774  29.125  11.502
17095W        W85489  36.259  16.867   2.248
17096W        W85490  27.480  37.089  10.705
17097W        W85491  39.853   9.656   1.371
17098W        W85492  11.693  16.942   2.629
17099W        W85493  19.676  25.320   1.390
17100W        W85494  22.695   7.646  14.019
17101W        W85495  42.260   5.141  14.769
17102W        W85496  34.930  39.948  11.971
17103W        W85497  15.271   5.892  14.251
17104W        W85498   9.878  35.945   2.839
17105W        W85499  43.815  25.516  12.934
17106W        W85500  13.353   8.981  13.450
17107W        W85501   7.383  19.046  10.529
17108W        W85502  37.990  44.359  13.021
17109W        W85503  25.022  28.150  14.912
17110W        W85504   1.210  37.253   1.435
17111W        W85505  10.769  19.669  11.642
17112W        W85506   8.442   9.677  10.595
17113W        W85507  31.985  26.866   1.883
17114W        W85508  37.601   2.497   4.122
17115W        W85509   1.945   2.428  14.076
17116W        W85510   9.662  32.997  13.873
17117W        W85511  44.344   2.441  10.494
17118W        W85512  28.702  24.725  12.421
17119W        W85513  29.988  11.667  12.011
17120W        W85514  40.298  42.914  14.738
17121W        W85515  19.131  22.235  10.719
17122W        W85516   0.885   0.279  12.112
17123W        W85517  15.173  18.785   0.871
17124W        W85518  32.628  17.953   0.562
17125W        W85519  37.046  33.052  14.317
17126W        W85520  35.854  35.123  13.796
17127W        W85521   2.477   4.269   2.322
17128W        W85522  11.258  42.737   4.172
17129W        W85523  19.554  41.845  14.113
17130W        W85524  42.264   2.084  11.517
17131W        W85525   6.316  41.113   3.686
17132W        W85526  28.985  31.446   0.849
17133W        W85527  30.436  12.321   2.318
17134W        W85528  41.372  13.186   3.149
17135W        W85529  12.057  10.214   3.681
17136W        W85530  16.106   6.457   1.253
17137W        W85531  28.023  43.933   1.314
17138W        W85532  19.655  35.696  13.897
17139W        W85533  44.539  24.868  11.110
17140W        W85534  22.520   0.252   2.350
17141W        W85535   8.627   4.551  14.329
17142W        W85536  24.191  28.474  10.790
17143W        W85537  25.416  32.941   1.798
17144W        W85538   0.574   9.674   0.006
17145W        W85539  42.249  37.273  13.358
17146W        W85540  23.093  28.509  14.969
17147W        W85541  18.180   1.436  13.461
17148W        W85542  12.949  22.480  10.958
17149W        W85543  41.003  14.539  10.488
17150W        W85544  27.584  27.599  10.858
17151W        W85545  21.122  39.296  11.527
17152W        W85546   1.653   6.680   4.159
17153W        W85547  26.430  27.506   3.188
17154W        W85548  19.194   3.007  11.588
17155W        W85549  30.992  29.707   2.560
17156W        W85550  22.167  40.554  11.643
17157W        W85551  43.850  29.182   4.700
17158W        W85552  18.887   4.088   1.206
17159W        W85553  15.255  33.020   2.736
17160W        W85554  31.840  27.710   4.312
17161W        W85555  29.171  40.855   1.781
17162W        W85556  27.935  26.488  13.006
17163W        W85557  32.893  37.484   2.838
17164W        W85558  21.279  41.467  11.218
17165W        W85559   8.319   0.288  11.772
17166W        W85560  13.700  28.805  14.257
17167W        W85561  13.292  28.284  11.791
17168W        W85562  23.013   4.960  12.045
17169W        W85563  25.389  29.441   3.778
17170W        W85564  29.463   0.722  13.996
17171W        W85565  24.083   0.209   2.891
17172W        W85566  40.406  28.537  13.930
17173W        W85567   0.544  34.805  12.567
17174W        W85568   2.303  10.193  10.307
17175W        W85569  19.748  44.494   3.043
17176W        W85570  29.431  27.627   4.222
17177W        W85571  43.775  27.062  14.999
17178W        W85572  26.618  25.619   1.715
17179W        W85573  12.287  18.082  11.038
17180W        W85574  44.201  38.237  12.895
17181W        W85575  24.547   4.491   2.335
17182W        W85576  15.339  27.477   1.500
17183W        W85577  30.001   1.729  12.492
17184W        W85578  23.679   8.149  14.929
17185W        W85579  19.554   2.730  13.495
17186W        W85580  40.566  27.180  12.350
17187W        W85581  16.242  25.215   3.788
17188W        W85582  39.219  22.576  13.774
17189W        W85583  23.561  14.891   2.187
17190W        W85584  23.136  32.397   2.414
17191W        W85585  11.399  20.511   0.380
17192W        W85586  34.494  19.725  13.010
17193W        W85587  41.196  28.926   4.854
17194W        W85588  12.578  25.981  11.980
17195W        W85589  13.383   0.435  12.624
17196W        W85590  24.688  26.058  14.265
17197W        W85591   9.355  20.158  10.671
17198W        W85592  31.139   6.882  14.371
17199W        W85593  28.538  36.206   4.176
17200W        W85594  35.894  15.520  12.955
17201W        W85595  26.082  16.808  10.700
17202W        W85596  19.536   5.826   2.282
17203W        W85597  42.736  31.387  11.715
17204W        W85598  11.370   6.147   2.537
17205W        W85599  41.042  27.984   2.404
17206W        W85600   3.875  28.104  13.960
17207W        W85601  13.617  28.244  13.895
17208W        W85602  44.693   4.421  11.926
17209W        W85603  41.253  24.302  11.642
17210W        W85604  27.047  30.230  10.837
17211W        W85605   0.992  41.066  13.928
17212W        W85606  26.002  16.276   1.468
17213W        W85607  29.668  34.105   1.923
17214W        W85608  32.704  42.499   4.889
17215W        W85609  37.042  14.157  12.151
17216W        W85610   2.165  22.407   1.142
17217W        W85611  26.140  18.302   3.755
17218W        W85612   5.294  40.911   4.071
17219W        W85613  24.547  40.905  14.042
17220W        W85614  18.367  29.462  11.557
17221W        W85615   4.646  15.153   2.374
17222W        W85616  23.109  19.030  14.060
17223W        W85617  36.655  23.162   3.507
17224W        W85618  36.953   8.685  12.910
17225W        W85619  15.664  10.736   1.190
17226W        W85620  22.528  40.450   1.737
17227W        W85621   6.822  16.845  14.545
17228W        W85622  31.018  34.100  10.790
17229W        W85623   3.695   9.158   0.755
17230W        W85624  14.365  14.360  13.536
17231W        W85625  19.081   9.282   2.666
17232W        W85626  12.265  19.093   0.216
17233W        W85627  39.506  35.214  12.521
17234W        W85628  37.031  41.826   2.918
17235W        W85629  40.320  36.412   2.992
17236W        W85630  33.382  18.238  10.832
17237W        W85631  25.616  36.790   0.811
17238W        W85632  26.581  44.404   1.321
17239W        W85633  14.195  16.154  14.002
17240W        W85634   4.868  14.597   1.676
17241W        W85635   4.573  41.005   2.903
17242W        W85636  19.789  15.336  10.275
17243W        W85637   7.873  24.184   0.977
17244W        W85638   3.905   8.466   4.342
17245W        W85639  17.104  29.420  12.481
17246W        W85640  36.932  38.398   0.979
17247W        W85641  25.764  41.356   2.820
17248W        W85642  26.518  38.238  14.795
17249W        W85643  27.142  27.717  10.601
17250W        W85644  24.517  24.699   3.315
17251W        W85645   4.353  35.569  12.355
17252W        W85646  44.355  10.746   4.719
17253W        W85647  26.526   7.786  13.611
17254W        W85648  30.515  36.616   3.281
17255W        W85649  24.452  26.680  12.068
17256W        W85650   4.199   1.295   3.204
17257W        W85651  37.888   5.803  10.856
17258W        W85652   1.024  38.893  13.572
17259W        W85653   3.730  24.007  14.325
17260W        W85654   4.455  30.165   3.797
17261W        W85655  43.235  20.255   4.530
17262W        W85656  24.874  30.026   2.779
17263W        W85657   6.238  18.800   1.743
17264W        W85658  37.337   4.698   5.113
17265W        W85659   9.164  43.807   4.499
17266W        W85660  23.461  10.468   3.597
17267W        W85661  18.293  38.457   3.669
17268W        W85662   2.527  27.496   1.316
17269W        W85663  19.874  14.519   3.076
17270W        W85664  26.235  34.222  11.058
17271W        W85665  34.775  14.183  13.223
17272W        W85666   7.320   8.642   3.181
17273W        W85667  17.478   2.284   3.965
17274W        W85668   4.724  44.648   2.798
17275W        W85669  15.585   5.201  12.926
17276W        W85670  24.520  12.835   5.042
17277W        W85671  10.689   8.518   0.270
17278W        W85672  12.231  40.008  11.805
17279W        W85673  16.292   5.052  10.753
17280W        W85674  33.580  15.388  14.402
17281W        W85675  39.788  32.045  12.421
17282W        W85676   7.624  28.521   0.370
17283W        W85677  16.383  38.746  12.847
17284W        W85678  32.903   2.441  11.522
17285W        W85679   6.794  11.394  10.447
17286W        W85680  43.396  12.347  14.529
17287W        W85681  13.651  25.746   0.012
17288W        W85682  34.598   3.808  14.036
17289W        W85683  26.713  28.964   3.601
17290W        W85684  44.802  37.354  13.845
17291W        W85685  14.595  10.346   2.616
17292W        W85686  20.979  35.845  11.642
17293W        W85687   4.954  17.698  13.393
17294W        W85688   7.152  27.442  12.025
17295W        W85689   9.325  20.741  12.419
17296W        W85690  10.384  44.533  12.822
17297W        W85691  17.237  40.983  10.994
17298W        W85692  32.986  25.921   3.837
17299W        W85693  30.622  34.855  13.807
17300W        W85694  23.259  35.027   4.227
17301W        W85695  14.269  28.287  11.769
17302W        W85696  29.233   3.737   3.150
17303W        W85697  35.593  34.217  10.937
17304W        W85698  16.832  30.951   3.586
17305W        W85699  44.865  17.811   0.848
17306W        W85700  21.754  20.644   2.574
17307W        W85701  34.032  29.119  10.529
17308W        W85702   7.714   0.796   0.812
17309W        W85703  40.831   6.654   1.253
17310W        W85704  31.184  26.927   4.237
17311W        W85705  19.519  41.919  11.240
17312W        W85706  27.999  41.968  14.350
17313W        W85707  25.121   6.678  12.997
17314W        W85708   4.460  32.775  14.699
17315W        W85709  12.794  14.023  12.237
17316W        W85710  42.290  21.689   4.819
17317W        W85711  23.028   8.326  12.149
17318W        W85712  27.669  36.355  13.020
17319W        W85713  41.890  22.533   1.792
17320W        W85714  19.006  26.769  14.680
17321W        W85715  15.092  38.387  13.354
17322W        W85716  29.086  24.195   4.016
17323W        W85717  10.327  24.135  11.097
17324W        W85718  16.921  27.410  13.989
17325W        W85719  18.216   9.816   0.926
17326W        W85720  31.991   3.125   1.458
17327W        W85721  42.067  33.691  11.463
17328W        W85722   4.631   6.920   0.893
17329W        W85723  21.977   2.962  11.432
17330W        W85724  41.509  27.690  12.876
17331W        W85725   0.804   0.556   2.204
17332W        W85726  43.791  35.303  13.636
17333W        W85727  37.618   7.777   0.785
17334W        W85728  25.113  27.062   0.501
17335W        W85729  44.509  27.113  14.766
17336W        W85730  10.332   9.561  11.213
17337W        W85731   2.383  42.251  11.057
17338W        W85732  37.042  36.085   0.430
17339W        W85733   8.111  30.568  14.077
17340W        W85734  34.483   4.954  11.197
17341W        W85735  17.704  11.056   0.804
17342W        W85736  24.744  16.484   0.768
17343W        W85737  30.522  15.100  11.584
17344W        W85738   3.391   6.048   4.981
17345W        W85739  30.595   5.315  10.772
17346W        W85740  35.401  35.241   0.232
17347W        W85741   0.582  10.304   1.205
17348W        W85742  30.407  37.968  11.896
17349W        W85743  40.520  38.933  14.914
17350W        W85744  26.282  34.683  14.437
17351W        W85745   8.767  19.106   0.140
17352W        W85746   0.757   7.392   9.757
17353W        W85747   3.902  17.783  13.268
17354W        W85748   3.847  18.064   2.234
17355W        W85749  29.212  31.770   4.534
17356W        W85750  25.674  37.995  14.348
17357W        W85751  35.046  20.285   2.577
17358W        W85752  31.375  23.620  14.957
17359W        W85753  10.297  14.589   4.133
17360W        W85754   8.511  29.027   3.553
17361W        W85755  40.284   9.876   3.005
17362W        W85756  10.401  10.352  12.472
17363W        W85757   4.326  31.810  13.867
17364W        W85758  43.127   7.050   2.121
17365W        W85759  43.086  15.823  14.851
17366W        W85760  17.964  32.533   0.501
17367W        W85761  20.367  43.941  11.203
17368W        W85762  44.295  39.495  12.606
17369W        W85763  35.561  10.750  13.338
17370W        W85764  12.542  34.860  10.728
17371W        W85765  28.248  42.781   3.667
17372W        W85766  12.065  44.342   3.194
17373W        W85767  15.376   2.019  14.294
17374W        W85768  19.358  26.288   1.260
17375W        W85769  28.450  29.909   4.569
17376W        W85770  17.142   6.317  11.089
17377W        W85771  18.075  39.366   3.153
17378W        W85772  32.099   9.945   1.760
17379W        W85773  36.499  34.383   2.903
17380W        W85774  30.550  10.657  11.430
17381W        W85775   4.472  28.940  13.511
17382W        W85776  43.731  13.219   4.905
17383W        W85777  24.096  34.315   1.746
17384W        W85778  14.119  26.318  12.425
17385W        W85779  21.989   0.538  13.385
17386W        W85780  10.669  28.541  11.471
17387W        W85781  22.984  10.041   4.919
17388W        W85782  21.854   7.689  12.494
17389W        W85783  28.418  15.015  14.020
17390W        W85784  42.771  40.038  14.314
17391W        W85785  26.923  42.102  14.442
17392W        W85786  22.105   1.497  14.751
17393W        W85787   2.894  30.447  14.450
17394W        W85788  27.231  16.386   3.364
17395W        W85789   2.382  12.316   3.648
17396W        W85790  34.353   6.737  13.025
17397W        W85791  21.962  33.542   0.486
17398W        W85792  35.661  34.528   1.749
17399W        W85793  30.400  10.980   4.367
17400W        W85794  22.763  42.781   2.776
17401W        W85795   2.277   6.480   3.564
17402W        W85796  11.750  27.126  11.169
17403W        W85797   2.811   6.768   1.431
17404W        W85798  39.936  12.225  14.928
17405W        W85799   8.238  20.031   0.765
17406W        W85800  32.684  32.692   0.557
17407W        W85801   7.279  27.026   4.592
17408W        W85802  28.169   2.087  11.108
17409W        W85803  44.999   9.460   1.711
17410W        W85804  24.263  13.827   1.780
17411W        W85805   7.180  33.222   4.472
17412W        W85806  18.583  24.521   3.811
17413W        W85807  14.265  26.844  14.656
17414W        W85808  12.025  15.158  12.361
17415W        W85809  37.410  28.008   0.925
17416W        W85810  24.142  36.552  12.494
17417W        W85811   7.515   3.116   4.107
17418W        W85812   9.308  21.850  12.434
17419W        W85813   3.230  12.570   0.770
17420W        W85814   0.849   0.456  13.896
17421W        W85815  18.806  43.323   4.176
17422W        W85816  36.827  28.009  12.453
17423W        W85817  26.948  13.517   2.287
17424W        W85818  36.031  22.371   3.717
17425W        W85819  23.003   2.527  12.049
17426W        W85820  41.999  14.933   3.169
17427W        W85821  16.986   6.749   1.861
17428W        W85822  37.491  17.099   0.764
17429W        W85823  12.370  18.113  12.004
17430W        W85824  29.261  28.721   2.814
17431W        W85825  23.747   1.230   0.324
17432W        W85826  11.818  19.446   1.036
17433W        W85827   7.654  16.655   4.121
17434W        W85828  44.709  26.870  10.959
17435W        W85829  15.802   9.366   3.217
17436W        W85830  11.551  25.646  11.093
17437W        W85831  29.591  30.092   3.109
17438W        W85832  13.336  33.879  11.241
17439W        W85833   7.932  27.244   5.446
17440W        W85834  11.526  18.136   0.780
17441W        W85835  44.523  28.044   1.806
17442W        W85836   8.252   6.046  14.915
17443W        W85837  23.586   7.769   3.139
17444W        W85838   8.336  40.671   4.399
17445W        W85839  33.409  34.880  13.164
17446W        W85840  13.580   1.905   3.586
17447W        W85841  30.218   8.345   0.211
17448W        W85842  21.249   1.043  14.774
17449W        W85843  29.674   0.004  14.538
17450W        W85844  18.842  23.848  14.254
17451W        W85845  43.020   3.785   0.885
17452W        W85846  39.951  31.746   2.225
17453W        W85847  39.579  37.022   0.073
17454W        W85848  31.154  14.610  12.179
17455W        W85849   6.357   0.141   2.207
17456W        W85850  39.839  12.000  14.445
17457W        W85851  41.970   2.406  11.938
17458W        W85852  33.116  19.780  13.398
17459W        W85853  17.202  33.530  12.829
17460W        W85854  28.926  38.325  14.794
17461W        W85855  10.690   5.330   3.906
17462W        W85856   2.944  20.755   4.361
17463W        W85857  36.130   3.824  11.986
17464W        W85858  27.974  34.141   3.251
17465W        W85859  40.030   6.191  14.933
17466W        W85860  12.389  11.142   2.162
17467W        W85861  37.114  28.717  13.750
17468W        W85862   8.271  22.473   4.568
17469W        W85863   1.006   4.615  11.061
17470W        W85864  27.621  28.147  12.859
17471W        W85865  40.819  25.168   1.766
17472W        W85866  42.347  16.816   1.327
17473W        W85867  29.892  26.359  12.959
17474W        W85868  33.696  31.597  13.471
17475W        W85869  21.988  19.694  14.121
17476W        W85870  21.679  13.306   2.814
17477W        W85871  16.665  18.750  12.874
17478W        W85872  38.104  27.252  11.628
17479W        W85873  20.202  15.414  10.582
17480W        W85874  24.541  23.183  13.356
17481W        W85875  19.580  12.559  14.524
17482W        W85876  22.509  25.711  11.016
17483W        W85877  26.350  37.662  11.156
17484W        W85878  41.841  10.085  13.083
17485W        W85879   8.718  38.151   3.689
17486W        W85880  38.314  27.938  14.046
17487W        W85881   8.273  16.590   1.906
17488W        W85882  33.633  10.654  13.807
17489W        W85883  14.177  39.558  11.022
17490W        W85884   4.955  20.004   2.543
17491W        W85885  42.026  37.425  14.831
17492W        W85886   4.841  12.356   2.709
17493W        W85887  36.967   6.958  13.332
17494W        W85888  38.140  37.603   1.316
17495W        W85889  34.639  37.460   9.808
17496W        W85890  13.045   0.962  12.990
17497W        W85891  32.855  15.276  11.609
17498W        W85892   4.384  28.378   2.733
17499W        W85893  10.614  28.535   2.846
17500W        W85894  12.367  17.127  13.620
17501W        W85895  25.055  44.912   3.018
17502W        W85896   3.835  16.528  14.366
17503W        W85897  21.538   1.926   3.734
17504W        W85898   5.665  10.711   1.837
17505W        W85899   3.188  21.475  12.598
17506W        W85900   9.314   1.226  13.412
17507W        W85901  12.623   0.410  12.498
17508W        W85902  44.100  12.633   1.193
17509W        W85903  13.165  22.530  12.961
17510W        W85904  39.444  37.509   4.574
17511W        W85905  20.884  40.257   4.116
17512W        W85906  25.921  26.651  12.616
17513W        W85907  39.613   2.040  11.551
17514W        W85908  42.815   0.834   0.987
17515W        W85909  20.536  24.098  12.471
17516W        W85910  19.635   4.292   4.119
17517W        W85911   0.137  31.383   3.549
17518W        W85912   4.432   1.204  12.469
17519W        W85913  11.625  13.682  12.537
17520W        W85914  24.779  15.860  11.642
17521W        W85915  41.802  17.528  13.941
17522W        W85916  10.544   9.364   4.232
17523W        W85917  30.031  32.399   0.016
17524W        W85918  34.667   0.005   1.305
17525W        W85919   8.662  30.931   2.212
17526W        W85920   3.924   6.737   2.736
17527W        W85921   5.421  12.568  12.010
17528W        W85922  10.786  15.877  11.829
17529W        W85923  43.744  27.627  12.391
17530W        W85924  21.821  22.136  12.809
17531W        W85925  27.716   1.666   1.458
17532W        W85926  36.188  13.704  13.866
17533W        W85927   7.356   3.881   3.529
17534W        W85928  22.881   1.989   1.764
17535W        W85929  29.394  11.602  13.138
17536W        W85930   4.020  36.324  12.807
17537W        W85931  38.305  37.579   2.669
17538W        W85932  12.696  11.999   1.416
17539W        W85933   8.228  41.105   4.675
17540W        W85934  21.560  19.716  13.801
17541W        W85935  12.175  25.144   2.809
17542W        W85936  30.001   7.626  12.890
17543W        W85937  38.132  19.124   2.249
17544W        W85938  35.885  18.051   0.454
17545W        W85939  37.066   1.042   3.280
17546W        W85940   1.693  17.085   4.200
17547W        W85941  25.762  29.454   4.277
17548W        W85942  35.455  20.567  14.401
17549W        W85943  10.879  16.039  14.927
17550W        W85944  10.901  19.168  14.385
17551W        W85945  41.654  20.696   0.171
17552W        W85946  43.317  38.677   5.075
17553W        W85947   6.722  12.768  10.123
17554W        W85948  29.955  41.558   1.891
17555W        W85949  22.542  38.554  14.510
17556W        W85950   3.285  30.461   3.069
17557W        W85951  17.643  30.425  10.620
17558W        W85952  31.978  42.844  12.408
17559W        W85953  26.886  36.681   0.217
17560W        W85954  20.058  43.181  12.338
17561W        W85955  41.395   8.736  11.021
17562W        W85956  37.544   4.769  12.029
17563W        W85957  27.041  12.903  14.328
17564W        W85958  30.042  25.288  12.964
17565W        W85959  19.555   0.784  13.390
17566W        W85960  28.234   6.980   4.171
17567W        W85961  43.739   9.151  14.927
17568W        W85962  29.916  10.672  14.633
17569W        W85963  36.569  12.375  14.172
17570W        W85964  42.479  19.809  14.821
17571W        W85965  36.832  37.435   2.805
17572W        W85966  17.341  26.988   4.485
17573W        W85967  15.642   6.231  13.062
17574W        W85968  14.877  34.584   3.289
17575W        W85969  23.630   3.738   0.866
17576W        W85970  32.515   8.944  12.614
17577W        W85971  11.190   1.458   1.263
17578W        W85972   3.148  26.592  10.086
17579W        W85973  10.430  41.841   1.518
17580W        W85974  34.000  27.057   2.414
17581W        W85975  32.410  24.635  14.902
17582W        W85976   3.967  24.125   1.716
17583W        W85977  19.974   5.704  12.937
17584W        W85978  13.543  39.548   2.262
17585W        W85979  12.082   4.167   0.804
17586W        W85980  15.109  30.950   4.708
17587W        W85981   0.958   9.124  12.522
17588W        W85982  42.085   6.846  14.423
17589W        W85983  34.382   9.116  12.456
17590W        W85984  26.963  23.737  13.897
17591W        W85985  40.831  40.110  12.136
17592W        W85986  31.554  17.649   1.293
17593W        W85987  17.554  15.368   0.387
17594W        W85988  25.983  15.504   3.212
17595W        W85989  31.046  17.738  10.521
17596W        W85990  36.747  17.285  13.059
17597W        W85991  32.135  30.661   3.679
17598W        W85992  29.432  19.259   3.287
17599W        W85993  39.466  21.490  11.248
17600W        W85994  40.974   9.087  12.035
17601W        W85995   4.886  21.279   2.788
17602W        W85996   9.211   8.690   1.765
17603W        W85997  43.368  41.292   0.291
17604W        W85998  17.079  20.562  10.179
17605W        W85999  36.749  22.845  14.811
17606W        W86000  18.327  36.659   4.165
17607W        W86001  26.624  39.644   0.381
17608W        W86002  27.852  24.909   1.932
17609W        W86003   7.457  13.309   3.135
17610W        W86004  19.363  29.453   1.117
17611W        W86005  34.551  21.718   3.090
17612W        W86006  27.486   9.674  14.432
17613W        W86007   8.243  36.820  14.057
17614W        W86008  22.543  29.906   1.942
17615W        W86009  13.173  28.087  14.844
17616W        W86010  11.251  30.897  10.768
17617W        W86011  27.050   0.392   2.348
17618W        W86012   8.329  43.680   2.115
17619W        W86013  12.182   1.290   1.489
17620W        W86014  23.532  27.384  12.822
17621W        W86015  43.606  14.358  12.035
17622W        W86016   2.668  32.950  13.933
17623W        W86017  15.648  10.233   2.828
17624W        W86018  34.543  23.697  14.734
17625W        W86019  24.066  13.328   0.912
17626W        W86020  12.184  42.868  13.661
17627W        W86021  31.068  35.425   2.075
17628W        W86022   6.201  43.369  12.500
17629W        W86023  39.407  44.956  12.986
17630W        W86024   1.373  25.762   2.653
17631W        W86025  17.306  23.309  14.067
17632W        W86026  19.166  15.975   0.352
17633W        W86027  36.519  26.030  10.644
17634W        W86028  12.222   0.460   1.746
17635W        W86029  27.505  36.332   3.179
17636W        W86030  29.849   4.166   3.414
17637W        W86031   0.968   2.231  11.703
17638W        W86032  17.058  26.233  10.461
17639W        W86033  21.024   5.520   4.834
17640W        W86034  38.636   1.028  14.963
17641W        W86035  17.953   9.075  13.504
17642W        W86036  36.401  37.561   3.806
17643W        W86037  26.263  38.858   0.571
17644W        W86038  18.135   6.324  10.889
17645W        W86039  21.572  29.985   3.354
17646W        W86040  31.657  13.086  14.422
17647W        W86041  29.092   6.815  14.934
17648W        W86042   4.543   1.555  13.385
17649W        W86043  30.958  30.575   3.148
17650W        W86044  10.123  44.939  12.620
17651W        W86045  27.996   2.426   2.339
17652W        W86046  38.835  38.515  14.589
17653W        W86047  17.819   6.322   0.776
17654W        W86048  43.044  11.435  11.444
17655W        W86049   4.566  10.652   4.051
17656W        W86050  25.988   8.202   0.221
17657W        W86051  25.212  37.847   4.171
17658W        W86052   6.226  19.498   2.263
17659W        W86053   1.694  17.427  14.748
17660W        W86054  41.281  42.547  12.145
17661W        W86055   9.183   9.142   0.977
17662W        W86056  40.862   9.692  10.913
17663W        W86057  32.385  29.494  11.029
17664W        W86058  19.137  43.125   0.291
17665W        W86059  24.072  36.031  14.539
17666W        W86060  28.154  29.612   4.967
17667W        W86061  19.060  19.616  14.315
17668W        W86062   9.388  31.407  11.962
17669W        W86063  16.452  33.675   0.351
17670W        W86064   2.531  17.116  14.689
17671W        W86065  20.754  35.401  11.502
17672W        W86066   9.969   1.772  10.209
17673W        W86067  39.286  32.606   4.255
17674W        W86068  38.109   6.889   3.890
17675W        W86069   2.280   6.860   0.392
17676W        W86070   0.918  24.930   2.707
17677W        W86071  30.068  10.040   1.196
17678W        W86072  13.776  17.264   1.607
17679W        W86073  19.639  15.609   4.630
17680W        W86074   7.166  28.979   3.188
17681W        W86075   2.168  24.472   0.364
17682W        W86076  22.449  41.032  13.085
17683W        W86077  14.185  12.040  12.573
17684W        W86078  32.200   3.752  11.606
17685W        W86079  30.134  30.578  12.165
17686W        W86080  32.524  44.386  13.878
17687W        W86081  11.635   5.238  14.062
17688W        W86082  32.605  26.007  13.074
17689W        W86083  42.003  35.427  13.649
17690W        W86084   0.460   2.532   2.381
17691W        W86085  22.411  42.021   4.751
17692W        W86086  41.357  20.721   4.123
17693W        W86087  40.934  16.568   2.260
17694W        W86088   1.965  38.051   3.860
17695W        W86089   8.367  33.395  11.421
17696W        W86090   6.220  14.713   0.735
17697W        W86091  39.847  30.404  12.975
17698W        W86092  15.003   8.186  10.945
17699W        W86093   7.431  43.747  11.046
17700W        W86094  22.113  31.979   0.998
17701W        W86095  40.289  24.181  10.912
17702W        W86096  15.567  32.928  10.659
17703W        W86097  30.518   7.419   2.911
17704W        W86098  28.891  21.218   4.252
17705W        W86099  35.454   4.926  11.390
17706W        W86100   9.294  36.099  14.326
17707W        W86101  10.337  33.051  12.372
17708W        W86102  15.036  41.826   2.677
17709W        W86103   9.473  27.009   5.085
17710W        W86104   8.125  27.666  12.117
17711W        W86105  20.209  15.535   2.006
17712W        W86106  18.517  26.008   1.781
17713W        W86107  18.515  10.309   1.370
17714W        W86108   7.272  35.532   3.792
17715W        W86109  14.533  17.665   1.807
17716W        W86110  35.486  36.828  11.716
17717W        W86111  36.639   7.693   2.530
17718W        W86112  38.391   7.405   4.677
17719W        W86113  36.083   3.437  10.524
17720W        W86114  41.066  28.551   0.731
17721W        W86115  24.973  12.617   2.725
17722W        W86116   2.427   2.318   2.195
17723W        W86117   2.921   5.352   1.710
17724W        W86118  31.937  30.518  14.970
17725W        W86119   1.888  17.128  13.951
17726W        W86120  11.285  33.201   3.277
17727W        W86121  34.435  33.092  11.474
17728W        W86122  25.983  12.775   2.762
17729W        W86123  37.507  21.671   1.464
17730W        W86124   8.622  38.448   2.778
17731W        W86125  22.065   2.098   4.048
17732W        W86126  41.962   5.237  11.206
17733W        W86127   8.956  25.818  10.308
17734W        W86128   5.970  13.808  14.637
17735W        W86129  23.120  37.327   3.164
17736W        W86130  43.845  10.311   4.429
17737W        W86131  33.978  32.884  13.230
17738W        W86132  39.417  16.556   3.426
17739W        W86133  29.200  15.625   2.626
17740W        W86134  19.852  41.574   1.656
17741W        W86135  16.855   8.769  14.133
17742W        W86136  13.849   3.277   3.715
17743W        W86137  44.853  44.546   1.958
17744W        W86138  15.807  39.461   1.340
17745W        W86139  18.218  25.025  10.261
17746W        W86140  11.186   3.787   0.864
17747W        W86141  12.774  29.591  14.021
17748W        W86142  25.024  23.704   3.963
17749W        W86143   5.873  44.025  11.627
17750W        W86144  44.244  10.785   3.345
17751W        W86145   6.141   5.405   5.549
17752W        W86146  18.359  19.008  12.742
17753W        W86147   1.373  35.135  11.639
17754W        W86148  22.648   3.250   2.773
17755W        W86149  40.839  34.997  11.866
17756W        W86150  35.325  33.613  12.935
17757W        W86151  10.519  23.652  11.119
17758W        W86152   0.481  30.708  10.936
17759W        W86153  29.974   8.403  10.359
17760W        W86154  23.968  16.632  14.732
17761W        W86155  42.002  41.290  12.117
17762W        W86156  30.597  28.400   4.152
17763W        W86157  42.353  16.299  10.686
17764W        W86158  35.207  32.580   1.544
17765W        W86159  42.888  15.183   1.283
17766W        W86160   3.474  44.712  13.245
17767W        W86161  27.050  41.871   0.987
17768W        W86162   7.641  39.076   2.331
17769W        W86163  33.968   8.432   3.276
17770W        W86164  18.609  43.488  11.419
17771W        W86165  25.525  15.743  11.075
17772W        W86166  34.234  15.230   1.799
17773W        W86167   1.623  11.029   0.732
17774W        W86168  44.304  23.542   0.311
17775W        W86169  39.619  44.863  11.986
17776W        W86170  33.712  18.757  13.310
17777W        W86171   1.239  12.419   1.004
17778W        W86172   1.201  12.720   0.149
17779W        W86173  17.015  16.100   1.670
17780W        W86174  32.130   6.019  13.904
17781W        W86175  10.492  32.407  14.730
17782W        W86176   5.355  34.897  14.067
17783W        W86177   4.440   6.216   3.675
17784W        W86178  39.886  25.543  11.607
17785W        W86179  24.317  28.875   2.725
17786W        W86180  25.123  32.530   4.253
17787W        W86181  19.317   2.258   4.148
17788W        W86182  29.949   7.290  14.601
17789W        W86183   0.296   7.353   3.381
17790W        W86184  33.377   2.889   3.107
17791W        W86185  13.175   0.292   4.704
17792W        W86186  44.634   2.302  12.934
17793W        W86187  16.141  21.325   1.462
17794W        W86188  32.001   5.887  10.258
17795W        W86189  12.349  31.554   0.285
17796W        W86190  44.531  29.498  12.416
17797W        W86191  37.968  42.304  12.186
17798W        W86192  40.355   4.367  12.948
17799W        W86193   7.378  37.909   3.925
17800W        W86194  15.637   9.884   0.073
17801W        W86195  13.356  36.101   0.896
17802W        W86196   3.972   4.510  13.393
17803W        W86197   4.272  29.474  11.938
17804W        W86198   0.337   3.530   0.540
17805W        W86199  39.028  24.091   5.247
17806W        W86200  21.513  39.088  12.115
17807W        W86201  43.763  32.999  12.224
17808W        W86202  30.302   4.936  13.302
17809W        W86203  24.725  41.707   3.263
17810W        W86204  18.760  42.055   4.620
17811W        W86205   3.309  28.410   4.239
17812W        W86206   3.122   6.235  12.465
17813W        W86207  10.671  22.898  13.830
17814W        W86208  18.220  35.001   0.715
17815W        W86209   9.910  22.264  11.820
17816W        W86210  44.893  42.517   3.637
17817W        W86211  32.226  38.776   9.558
17818W        W86212  22.699  11.243  14.498
17819W        W86213  11.849   4.715  10.959
17820W        W86214  17.124  20.551   0.998
17821W        W86215  40.125  28.545   3.155
17822W        W86216   8.624  14.343   0.538
17823W        W86217  18.756  44.421  10.377
17824W        W86218   8.835  18.720  12.019
17825W        W86219  35.387   9.846   3.702
17826W        W86220   2.035  37.315  13.436
17827W        W86221  13.247  15.841  11.669
17828W        W86222  25.013   4.196   1.268
17829W        W86223  25.995  37.557   3.298
17830W        W86224   8.446  16.657  10.504
17831W        W86225   7.309  41.981  10.713
17832W        W86226  19.575  40.868   4.449
17833W        W86227   7.955   9.189   2.828
17834W        W86228  16.816  31.093   1.814
17835W        W86229  16.198  41.143   4.643
17836W        W86230  35.828  33.003  14.975
17837W        W86231  30.713  21.220  11.245
17838W        W86232  36.420   9.917  14.341
17839W        W86233   8.312   1.216  14.330
17840W        W86234   8.857  20.371   1.193
17841W        W86235  27.289  11.847  10.126
17842W        W86236  36.608  41.749  13.785
17843W        W86237  11.711  17.104  13.841
17844W        W86238   0.475  17.986   2.942
17845W        W86239  17.311  14.120   1.264
17846W        W86240   0.225  37.760   0.424
17847W        W86241  39.857  21.096   0.480
17848W        W86242   1.585  15.667  14.865
17849W        W86243  18.308  21.228   1.745
17850W        W86244  13.748  36.133   4.548
17851W        W86245   4.892   3.720   3.649
17852W        W86246  18.252  39.630  13.758
17853W        W86247  34.870  21.586  11.684
17854W        W86248   4.694   2.555  10.542
17855W        W86249  29.007   6.642   1.434
17856W        W86250  43.492  25.536  10.797
17857W        W86251   2.899  26.006  13.803
17858W        W86252   7.909   9.131   3.670
17859W        W86253  37.666  44.422   2.609
17860W        W86254  25.629  35.947  10.705
17861W        W86255   3.916  31.750  11.314
17862W        W86256  33.913  36.372   2.738
17863W        W86257  39.092  29.682   1.370
17864W        W86258  28.174  39.195   1.431
17865W        W86259  19.156  13.714   4.104
17866W        W86260  39.079  44.840  12.017
17867W        W86261  23.403  41.308  12.867
17868W        W86262  32.123  35.940  11.439
17869W        W86263   7.605  32.580  14.939
17870W        W86264  12.386   7.304  12.870
17871W        W86265  25.282  38.976   0.324
17872W        W86266  22.635   5.110   0.985
17873W        W86267  22.727  22.271   2.154
17874W        W86268   1.941  33.892   4.403
17875W        W86269  10.318  11.998  11.589
17876W        W86270  11.216  16.031  13.603
17877W        W86271  42.100  40.455   0.954
17878W        W86272  41.256  24.599  11.209
17879W        W86273  24.760  15.989   1.078
17880W        W86274  30.761  27.278   1.927
17881W        W86275  40.448  12.426   1.314
17882W        W86276   6.247  32.441  14.534
17883W        W86277  29.555  34.182   1.266
17884W        W86278   0.439  10.856   3.787
17885W        W86279  30.680  23.909   4.694
17886W        W86280  31.461  24.199  14.826
17887W        W86281   6.324  25.774  14.755
17888W        W86282   5.496  20.736  11.110
17889W        W86283  24.263   0.771  10.430
17890W        W86284  28.134  14.611   4.403
17891W        W86285   9.531  39.631   2.711
17892W        W86286  13.813  38.586   1.959
17893W        W86287  26.915  29.304  12.544
17894W        W86288  19.779  38.897   5.004
17895W        W86289   0.583  24.637  13.393
17896W        W86290  28.168  18.725  13.461
17897W        W86291  20.550  29.804  13.475
17898W        W86292  29.726  25.047   1.530
17899W        W86293  37.437  37.509   0.133
17900W        W86294  18.752  24.048   3.838
17901W        W86295  31.447  29.731   1.397
17902W        W86296  24.705  10.793   3.243
17903W        W86297  13.289  40.460   0.292
17904W        W86298  40.875  39.847   1.005
17905W        W86299  34.141  39.785  10.849
17906W        W86300  12.577   0.856   4.467
17907W        W86301  34.614  18.838  10.925
17908W        W86302  33.655   3.733  11.796
17909W        W86303  25.635   0.411   4.716
17910W        W86304  18.751  18.592   3.896
17911W        W86305  28.665  22.234   3.517
17912W        W86306  21.625  11.338  11.399
17913W        W86307   4.927   8.631  13.995
17914W        W86308  21.010  25.238   2.701
17915W        W86309  32.402   1.380   0.456
17916W        W86310  10.176  25.985  13.601
17917W        W86311   8.435  13.888  11.115
17918W        W86312  13.489   0.011   3.707
17919W        W86313  15.568   4.733   4.398
17920W        W86314  12.258  22.687  11.984
17921W        W86315   8.541   2.012  11.817
17922W        W86316  30.352   8.847  14.739
17923W        W86317   9.497  38.497   3.104
17924W        W86318  20.068  10.434   0.530
17925W        W86319  31.007  43.959  14.975
17926W        W86320  19.246  21.566   1.819
17927W        W86321  17.782  22.444   3.160
17928W        W86322  29.555  30.830   2.123
17929W        W86323  42.079  23.869   2.620
17930W        W86324   7.671  32.895   2.641
17931W        W86325  33.076  14.690   1.498
17932W        W86326  36.851   2.743  13.640
17933W        W86327   9.250  44.774   4.584
17934W        W86328  36.068  11.886  12.525
17935W        W86329  43.280  20.772  13.484
17936W        W86330   4.456  38.262  11.136
17937W        W86331  19.178  38.606   3.737
17938W        W86332  29.588  33.529   2.678
17939W        W86333  42.321  22.399  10.691
17940W        W86334  15.741  22.101  12.060
17941W        W86335  39.788  20.664  12.149
17942W        W86336  18.289   3.790  10.580
17943W        W86337   9.793  44.886   4.549
17944W        W86338   0.725  29.214   4.963
17945W        W86339  10.456  33.371   2.704
17946W        W86340  26.565  42.295  13.631
17947W        W86341  20.053   2.824  13.353
17948W        W86342  38.602  10.738  12.916
17949W        W86343  13.411  19.152  11.086
17950W        W86344   1.468  20.054   0.055
17951W        W86345  11.307  31.399  13.052
17952W        W86346  44.569  17.130  14.588
17953W        W86347  20.855   4.184  12.894
17954W        W86348   4.480   2.209  10.222
17955W        W86349  15.062  21.941  14.424
17956W        W86350  32.806  34.691  14.897
17957W        W86351  27.184  22.887  11.029
17958W        W86352   0.645  41.912  11.109
17959W        W86353  33.435  22.488   3.106
17960W        W86354  11.679  37.322  12.879
17961W        W86355  24.191  32.564   0.197
17962W        W86356  25.911  25.554  10.695
17963W        W86357  30.530  34.525   3.602
17964W        W86358  42.411   5.901  13.890
17965W        W86359  12.124  40.881   4.527
17966W        W86360  27.142  26.062   1.706
17967W        W86361  22.185  21.324   0.692
17968W        W86362  42.206  10.691  10.786
17969W        W86363  19.005  43.584   1.007
17970W        W86364  35.321  44.508  12.544
17971W        W86365  28.391  20.253  14.235
17972W        W86366  20.730  14.894   2.671
17973W        W86367  39.996  16.170  11.512
17974W        W86368   8.119  30.165  12.579
17975W        W86369  26.965  15.848  13.243
17976W        W86370   7.148  18.590  11.529
17977W        W86371  41.362  18.833  10.752
17978W        W86372  33.458  16.200   4.893
17979W        W86373   5.001  44.437  11.099
17980W        W86374  31.618   1.060  11.740
17981W        W86375  15.399  13.189  14.752
17982W        W86376  38.066  41.370   0.705
17983W        W86377  13.326  39.629   3.499
17984W        W86378  43.734  10.194   2.165
17985W        W86379  35.030  24.628   2.364
17986W        W86380   8.342  34.106   0.019
17987W        W86381  34.938  18.186   3.470
17988W        W86382   7.387  38.475   1.050
17989W        W86383  35.387  10.137  13.778
17990W        W86384  28.616  42.172  13.811
17991W        W86385  11.084  21.352  14.311
17992W        W86386  24.039   8.211   3.760
17993W        W86387  23.118  20.515   1.496
17994W        W86388  12.554  33.084   0.842
17995W        W86389  37.602   4.828   2.715
17996W        W86390  15.123  10.322   4.497
17997W        W86391  17.605  43.366  13.600
17998W        W86392  21.252   2.026   0.005
17999W        W86393   4.128  37.056  10.794
18000W        W86394   0.300  38.364  13.718
18001W        W86395  17.528   7.974   3.605
18002W        W86396  26.139  41.232   3.312
18003W        W86397   2.360   8.846   3.732
18004W        W86398  25.944  43.519  12.109
18005W        W86399  16.988   4.155   2.684
18006W        W86400  16.120   4.870   2.827
18007W        W86401  16.592  13.865  10.768
18008W        W86402  44.775  16.781   4.293
18009W        W86403  36.057  41.415   0.297
18010W        W86404  11.745  17.006  12.927
18011W        W86405  11.370  10.567   1.848
18012W        W86406   6.523  22.604   2.189
18013W        W86407  20.959  11.767   1.696
18014W        W86408  34.360  21.077  12.397
18015W        W86409   4.861  20.578   4.676
18016W        W86410   0.151  28.906  12.862
18017W        W86411  43.320  38.667   2.561
18018W        W86412  30.316   2.489   2.705
18019W        W86413   8.789  35.591   2.349
18020W        W86414  18.957  15.181  12.012
18021W        W86415  38.505  33.857   3.944
18022W        W86416  19.283   5.889  11.433
18023W        W86417  36.556   6.353   9.752
18024W        W86418  35.306  38.617   0.430
18025W        W86419  27.052   7.500  11.755
18026W        W86420  36.066  26.225  13.800
18027W        W86421   0.832   7.208   2.128
18028W        W86422  30.056  34.428  10.731
18029W        W86423  38.965  22.906  13.331
18030W        W86424  40.759   8.106  12.000
18031W        W86425  21.037  27.392   3.771
18032W        W86426   7.090  21.227  11.952
18033W        W86427   8.227  26.649  12.020
18034W        W86428  31.035  29.081   4.246
18035W        W86429  27.951   3.808   1.304
18036W        W86430  11.325  39.445  14.345
18037W        W86431  35.566  42.849  11.896
18038W        W86432  33.831  43.332   1.711
18039W        W86433   2.401  36.519   0.512
18040W        W86434  44.123  32.696  12.427
18041W        W86435  19.192  30.161  10.734
18042W        W86436  40.980  30.450   4.732
18043W        W86437  19.204  38.364  14.252
18044W        W86438   0.013  31.958   0.551
18045W        W86439  28.418  44.693   1.226
18046W        W86440  26.014   9.250  13.012
18047W        W86441   1.686  12.710   4.506
18048W        W86442   5.591  21.300   4.563
18049W        W86443  37.470  11.207   3.171
18050W        W86444  22.232  17.159   1.658
18051W        W86445   0.993  24.596   3.542
18052W        W86446  29.477  43.514   2.382
18053W        W86447  31.859  33.931   4.553
18054W        W86448  33.442  32.660   3.227
18055W        W86449  11.779  37.699   4.635
18056W        W86450   0.678  32.386   2.518
18057W        W86451   2.360   0.262   1.300
18058W        W86452   8.704  31.583  10.733
18059W        W86453  34.388  28.085   3.313
18060W        W86454   6.183   9.564  14.691
18061W        W86455  31.095  10.839   0.041
18062W        W86456  12.830  16.709   3.197
18063W        W86457   1.912  44.050   1.401
18064W        W86458  10.164  17.909  11.623
18065W        W86459  19.418  28.640  10.783
18066W        W86460   7.968  13.320   3.196
18067W        W86461  18.228   6.178  13.138
18068W        W86462   0.369  44.815   1.948
18069W        W86463   7.981  16.873   3.667
18070W        W86464  24.577  30.549  10.379
18071W        W86465  35.288  42.016   4.563
18072W        W86466  19.536   0.229   4.648
18073W        W86467  30.596   5.147   1.747
18074W        W86468   4.216  41.626   3.770
18075W        W86469  32.163  41.789   2.285
18076W        W86470  39.339   3.952  10.543
18077W        W86471  34.176  22.698  11.074
18078W        W86472  34.416  33.860  12.166
18079W        W86473  20.779   7.286   2.477
18080W        W86474  44.021   1.578  10.950
18081W        W86475  43.603  28.127   0.326
18082W        W86476  21.734  38.996  14.430
18083W        W86477  33.961  14.251  14.360
18084W        W86478  33.491  31.948   3.728
18085W        W86479  10.133  22.213  10.740
18086W        W86480  15.518  28.856  11.491
18087W        W86481  36.469  14.900   3.801
18088W        W86482  38.785   1.520   3.274
18089W        W86483  16.156  14.571   3.814
18090W        W86484  35.336  11.094  11.143
18091W        W86485   5.214  41.782  10.717
18092W        W86486  33.007  37.520   2.143
18093W        W86487   4.592   7.957   4.019
18094W        W86488  39.008   4.771  10.927
18095W        W86489  20.655   2.477  14.579
18096W        W86490  10.643  35.008  11.844
18097W        W86491  42.546  19.823  13.445
18098W        W86492  34.511  26.142   0.808
18099W        W86493  13.730  26.858  12.098
18100W        W86494   2.275  11.821   4.582
18101W        W86495   4.947  10.741  11.049
18102W        W86496  25.074  24.936  13.522
18103W        W86497  23.472   6.188   1.685
18104W        W86498  39.496  27.528  14.091
18105W        W86499   5.701  41.061   2.181
18106W        W86500  30.922  21.362  14.767
18107W        W86501  18.129   9.787  12.017
18108W        W86502   1.369   7.465   3.477
18109W        W86503  16.269  44.403   2.477
18110W        W86504  31.039  31.049   2.867
18111W        W86505  30.424  10.312   1.502
18112W        W86506  42.209   9.686   2.404
18113W        W86507   9.760   3.741  13.962
18114W        W86508  33.864  21.755   1.760
18115W        W86509  21.482  35.930   1.403
18116W        W86510  21.256  26.083  11.440
18117W        W86511  20.497  39.702  11.013
18118W        W86512  32.107  31.315   2.173
18119W        W86513   0.029   9.599   3.800
18120W        W86514  10.144  36.156  10.870
18121W        W86515   5.353   7.714   2.312
18122W        W86516  18.595  37.590   3.234
18123W        W86517  15.813  41.948  13.863
18124W        W86518  17.199  35.102  10.470
18125W        W86519  40.369  40.459   2.260
18126W        W86520  38.344  29.618  13.901
18127W        W86521  23.974  39.900  12.857
18128W        W86522  14.196  35.359  12.663
18129W        W86523  29.649  32.624   0.770
18130W        W86524  12.161  20.592  14.773
18131W        W86525  13.581  17.712  14.392
18132W        W86526  12.174  37.598  11.263
18133W        W86527  19.138  12.263   2.743
18134W        W86528   8.176   4.861   2.674
18135W        W86529  34.457  22.576  11.516
18136W        W86530  23.143  16.897   0.366
18137W        W86531  25.549  36.161   9.942
18138W        W86532  19.212  17.733   3.917
18139W        W86533  14.727  31.820   0.165
18140W        W86534  19.105   8.565   0.453
18141W        W86535  10.933  26.536  12.770
18142W        W86536  36.187   6.747   3.663
18143W        W86537  14.127  15.378   2.648
18144W        W86538  16.092   1.489   1.414
18145W        W86539  14.900  16.213   9.851
18146W        W86540  21.138  22.558   3.961
18147W        W86541  43.993   7.751  14.391
18148W        W86542  19.524  19.042   2.620
18149W        W86543  22.170  18.703  12.267
18150W        W86544  34.859   5.664   3.696
18151W        W86545   3.588  15.769  10.270
18152W        W86546  24.219  37.063  13.383
18153W        W86547   4.802  13.583   3.920
18154W        W86548  16.715  13.369  10.736
18155W        W86549  42.606  18.331  13.804
18156W        W86550  30.128   7.316  14.095
18157W        W86551  16.680  18.050   0.461
18158W        W86552  19.242   6.286   3.326
18159W        W86553  24.066  19.851  12.616
18160W        W86554  17.258   2.513   0.836
18161W        W86555  39.791   5.909  13.782
18162W        W86556  14.544  39.781  12.968
18163W        W86557  17.084   3.830   4.352
18164W        W86558   7.397  20.044  14.500
18165W        W86559  22.228  12.585   2.904
18166W        W86560  21.714  32.663   1.357
18167W        W86561  22.042  32.667  11.377
18168W        W86562  41.778  28.517  12.398
18169W        W86563  17.214  38.795   1.791
18170W        W86564  30.095  42.494   3.614
18171W        W86565  14.814  29.989  14.854
18172W        W86566  31.404  43.082   3.171
18173W        W86567   2.346  37.677  13.129
18174W        W86568   1.439  17.304  11.395
18175W        W86569  28.005  22.624   0.381
18176W        W86570  21.517  22.195  11.913
18177W        W86571  20.420  19.320   1.747
18178W        W86572   1.513  43.032  13.488
18179W        W86573  16.333  36.090  10.923
18180W        W86574  18.777   3.125   0.760
18181W        W86575  35.293  30.577  14.360
18182W        W86576  43.288  15.583   2.598
18183W        W86577  27.921  17.117   5.164
18184W        W86578  19.195  21.255   1.381
18185W        W86579  18.669  19.293   1.429
18186W        W86580  15.022  16.419   3.666
18187W        W86581  38.224  12.273   2.888
18188W        W86582   3.693  44.223  11.155
18189W        W86583  39.362  27.096  11.079
18190W        W86584   8.967  21.707  14.310
18191W        W86585  10.169  41.502  10.213
18192W        W86586  36.096  40.737  12.398
18193W        W86587  38.111   0.741  12.751
18194W        W86588  26.971  33.791   2.245
18195W        W86589  44.403  23.499   3.551
18196W        W86590  24.551  36.019   0.324
18197W        W86591   8.878  28.573   2.293
18198W        W86592  33.413  43.076  13.903
18199W        W86593   7.117   8.605  12.967
18200W        W86594   9.365  11.595  11.014
18201W        W86595  27.418   1.442   2.832
18202W        W86596  17.205  37.997  14.858
18203W        W86597  34.326   8.110  12.308
18204W        W86598  42.392  32.575   0.358
18205W        W86599  15.362   9.248   2.277
18206W        W86600   2.720  37.089  11.551
18207W        W86601  43.275   3.043  14.959
18208W        W86602  24.134   7.353   4.821
18209W        W86603   2.595  28.769   3.802
18210W        W86604  41.947  34.869   0.783
18211W        W86605  38.324  10.535  13.935
18212W        W86606  30.012   4.494   0.471
18213W        W86607  31.463  34.083   0.443
18214W        W86608  11.051  34.380  14.460
18215W        W86609  10.301   2.490  12.425
18216W        W86610  20.536  33.573   2.707
18217W        W86611  31.443  20.585  13.029
18218W        W86612  14.265  17.025  10.700
18219W        W86613  32.923  33.375   0.073
18220W        W86614  12.086  30.469   2.871
18221W        W86615   8.283   0.779   4.550
18222W        W86616  17.741   6.142  14.844
18223W        W86617  35.143  42.468   0.289
18224W        W86618  15.778  44.803   4.998
18225W        W86619  12.345   8.811  11.114
18226W        W86620  34.530  25.230   2.487
18227W        W86621  35.965   0.331  12.026
18228W        W86622  30.113  42.588  10.664
18229W        W86623  28.488  43.594  12.144
18230W        W86624  33.889   2.182   4.337
18231W        W86625  15.875  12.253   0.340
18232W        W86626  16.797  10.528   2.204
18233W        W86627  16.266  19.550   3.566
18234W        W86628  34.550   3.049   2.268
18235W        W86629   8.813  43.416   4.530
18236W        W86630  14.365  21.866  12.007
18237W        W86631  32.713   0.464  12.416
18238W        W86632  31.872  13.938   2.810
18239W        W86633  41.244   5.061   4.568
18240W        W86634  36.019  43.055  12.074
18241W        W86635  32.131   1.982  14.433
18242W        W86636  31.784  20.095  11.130
18243W        W86637  21.875  13.258   0.725
18244W        W86638  30.707  11.161  13.082
18245W        W86639   9.653   1.754  10.631
18246W        W86640   8.222   3.718  14.354
18247W        W86641  34.479  38.495   0.203
18248W        W86642  44.243  11.825  14.448
18249W        W86643  42.448  22.541   4.118
18250W        W86644  20.688   7.338   4.818
18251W        W86645  19.011  29.072  10.024
18252W        W86646  16.353   7.760   5.001
18253W        W86647   4.272  38.745  14.918
18254W        W86648   3.526  17.199  11.050
18255W        W86649  28.160  22.019   2.637
18256W        W86650   3.271  28.974  14.239
18257W        W86651  38.056  33.539  13.125
18258W        W86652  25.780  30.141  12.083
18259W        W86653  40.101   7.155   4.036
18260W        W86654   4.460  19.229  14.487
18261W        W86655   8.920  33.155   3.319
18262W        W86656  38.320  15.142  13.964
18263W        W86657  19.610   3.751   3.955
18264W        W86658  23.570   5.084   0.886
18265W        W86659  19.261  25.162  13.196
18266W        W86660  27.575  15.755   4.482
18267W        W86661  24.596  23.087   4.537
18268W        W86662  42.034  20.168   3.342
18269W        W86663  19.498  28.628   3.981
18270W        W86664  24.928   8.096  13.917
18271W        W86665  34.066  29.395  10.974
18272W        W86666  32.726  41.686  11.701
18273W        W86667  39.325  39.958  11.978
18274W        W86668  36.962   9.593   2.884
18275W        W86669   0.867  31.894   5.269
18276W        W86670  24.618  43.747  13.868
18277W        W86671  23.861  26.145   0.239
18278W        W86672  18.843  30.008  13.730
18279W        W86673   0.454  16.987  12.078
18280W        W86674   9.191  15.058   2.680
18281W        W86675   3.199  32.861   3.345
18282W        W86676  20.787   6.634  10.766
18283W        W86677   6.217  18.271   9.955
18284W        W86678  34.455   4.747   0.340
18285W        W86679   3.150  43.005   2.876
18286W        W86680  18.023  34.042   3.181
18287W        W86681  31.981  20.652   2.833
18288W        W86682   7.546  16.444  12.564
18289W        W86683  41.935  40.359  14.089
18290W        W86684  10.763  33.167   4.188
18291W        W86685  11.771  18.793   0.061
18292W        W86686  20.610  12.864   3.066
18293W        W86687  13.546  23.033   1.446
18294W        W86688  19.801  28.955  12.992
18295W        W86689  34.702  35.950  10.754
18296W        W86690  41.177   5.315  13.021
18297W        W86691   8.164   4.808   9.729
18298W        W86692   1.491  10.264   0.268
18299W        W86693  38.367  13.350   1.586
18300W        W86694  27.078  20.519  11.908
18301W        W86695  44.118   9.786  12.430
18302W        W86696  33.995  38.403   1.668
18303W        W86697   6.018  28.868   2.358
18304W        W86698  22.533  33.961   1.661
18305W        W86699  39.341  24.440  14.416
18306W        W86700  16.788  44.358   3.731
18307W        W86701  39.070  20.576  12.582
18308W        W86702  30.236  20.878   4.790
18309W        W86703   6.345  12.235  13.764
18310W        W86704   7.684  18.220   4.597
18311W        W86705  13.866  32.597  13.834
18312W        W86706  27.585  38.549   1.675
18313W        W86707   6.982  39.883   2.445
18314W        W86708   6.335  38.586   3.997
18315W        W86709  39.912  28.446  12.785
18316W        W86710   2.777   7.208   3.665
18317W        W86711  30.005  19.478  11.487
18318W        W86712  22.028  19.484  13.350
18319W        W86713  31.599  35.927  11.379
18320W        W86714  33.418   8.476  11.654
18321W        W86715  15.410  38.401   0.969
18322W        W86716   3.834  24.206  12.573
18323W        W86717  30.520  20.069  12.731
18324W        W86718  13.037  17.694  14.411
18325W        W86719  30.914   7.644   1.494
18326W        W86720  31.673  30.444   1.898
18327W        W86721  33.325  24.996   3.719
18328W        W86722  42.070  23.288   0.445
18329W        W86723  32.782  43.849   2.474
18330W        W86724   2.454  33.649   2.813
18331W        W86725  33.976  12.013  11.387
18332W        W86726  29.117  38.203  14.307
18333W        W86727  23.935   6.269  12.334
18334W        W86728   4.560  16.587  12.597
18335W        W86729  41.480   1.976  12.030
18336W        W86730  10.217  15.822  14.054
18337W        W86731  12.184  38.778   1.329
18338W        W86732  15.308  39.086  13.869
18339W        W86733  21.633   2.198  13.598
18340W        W86734  11.434  16.804   1.573
18341W        W86735  18.733  19.836  13.310
18342W        W86736   1.365  43.314   1.272
18343W        W86737  11.543  12.646   3.112
18344W        W86738  19.299   6.246   1.983
18345W        W86739  31.597  21.168   4.475
18346W        W86740  16.216  34.119   2.287
18347W        W86741  28.261  28.793  11.078
18348W        W86742  23.282  19.552   2.729
18349W        W86743  19.254  33.589  12.790
18350W        W86744  42.601  39.472   2.717
18351W        W86745  34.435  36.472   2.755
18352W        W86746  37.498  36.485  10.793
18353W        W86747  27.638  34.640   3.750
18354W        W86748  38.112  39.291   0.282
18355W        W86749  17.320  44.289   2.943
18356W        W86750   2.036  26.448   0.499
18357W        W86751  19.641  41.295   4.176
18358W        W86752  35.860  40.512  13.544
18359W        W86753  43.307  35.312  12.436
18360W        W86754  44.544  10.206  10.673
18361W        W86755  16.197  28.489   1.744
18362W        W86756  44.367  38.361   0.926
18363W        W86757  24.628  40.428  14.222
18364W        W86758  41.961  26.280  12.921
18365W        W86759  21.044  13.586   1.787
18366W        W86760  38.441   7.891  12.219
18367W        W86761   5.514  25.930  13.326
18368W        W86762  20.238  40.829   1.764
18369W        W86763   6.918  16.400  14.292
18370W        W86764  41.308   6.696   3.397
18371W        W86765  42.095   2.059  12.323
18372W        W86766   1.304  36.425   0.420
18373W        W86767   0.452   2.881   1.665
18374W        W86768  39.982  37.869   3.757
18375W        W86769   1.460  31.722  12.545
18376W        W86770   9.892  35.574   0.403
18377W        W86771  14.679  27.170  14.426
18378W        W86772   6.126  38.415   3.534
18379W        W86773  29.211   5.923  11.378
18380W        W86774  36.028   7.642   1.904
18381W        W86775  23.809  44.098   3.830
18382W        W86776  25.727  35.076   2.139
18383W        W86777  19.219  24.304   0.786
18384W        W86778  23.768   3.885   2.349
18385W        W86779  22.427  32.869   0.229
18386W        W86780   6.075   9.139   3.769
18387W        W86781  27.181  30.125  13.595
18388W        W86782  41.807  39.690   2.513
18389W        W86783  38.489   5.801   0.860
18390W        W86784   3.598  17.571   2.320
18391W        W86785  40.179  24.555  13.435
18392W        W86786  12.915  28.448  11.472
18393W        W86787   6.497   8.388   4.223
18394W        W86788   7.930  15.266  14.369
18395W        W86789  15.198  17.812   3.584
18396W        W86790  36.180   0.719  10.419
18397W        W86791  39.517  37.026  12.184
18398W        W86792  10.171  17.219   0.422
18399W        W86793  26.473   0.245  13.360
18400W        W86794  19.187   7.374  11.179
18401W        W86795  11.735  20.965  13.871
18402W        W86796  25.161   3.093  10.948
18403W        W86797  10.894  15.712   1.743
18404W        W86798  10.720  14.160   1.352
18405W        W86799  21.946  18.582  12.714
18406W        W86800   6.484  16.758   0.828
18407W        W86801  30.909  16.615   3.636
18408W        W86802  12.659  42.558  11.442
18409W        W86803  42.574  18.217  11.981
18410W        W86804  15.949   2.740   3.265
18411W        W86805  40.434  39.471  11.450
18412W        W86806  30.134   8.308  12.377
18413W        W86807  10.152  37.404  14.271
18414W        W86808  19.160  42.983  14.425
18415W        W86809   0.532  24.949   4.602
18416W        W86810  11.408  14.244   0.546
18417W        W86811  12.266   6.283  10.218
18418W        W86812   9.659  24.819   0.726
18419W        W86813  21.145  22.772   1.871
18420W        W86814  13.888  14.767  13.868
18421W        W86815  33.098  31.410   0.282
18422W        W86816  33.355  18.722  10.599
18423W        W86817  41.252  15.484   2.747
18424W        W86818  38.766  23.680  10.703
18425W        W86819  35.829   4.978   0.861
18426W        W86820  39.759   8.917  14.919
18427W        W86821  14.120  25.938  13.725
18428W        W86822  44.806  16.076  11.191
18429W        W86823  23.273  37.736  11.921
18430W        W86824   5.324  30.602   0.974
18431W        W86825  27.978  36.962  13.819
18432W        W86826  13.868  21.805   3.632
18433W        W86827  18.666  29.025   4.434
18434W        W86828   5.723  26.236  10.709
18435W        W86829  35.098   0.505  11.090
18436W        W86830  16.219   2.775   3.847
18437W        W86831  35.772  32.484   4.684
18438W        W86832  34.097  44.026  13.197
18439W        W86833  35.204  15.900  11.575
18440W        W86834  37.579  40.896  13.167
18441W        W86835  30.518  34.502  12.956
18442W        W86836  41.268  27.989   3.348
18443W        W86837  17.953   2.753  14.759
18444W        W86838  44.451   1.262   2.315
18445W        W86839  19.205  20.150   0.330
18446W        W86840   7.622  40.130   1.770
18447W        W86841   4.374   2.469   0.599
18448W        W86842  33.420   5.784   3.601
18449W        W86843  38.277  36.519   1.482
18450W        W86844  15.983  39.093   4.245
18451W        W86845  21.635   0.740   4.239
18452W        W86846  34.080  14.063  11.402
18453W        W86847   6.678  14.845  11.589
18454W        W86848   5.187  41.817   0.591
18455W        W86849  38.873   4.631   4.637
18456W        W86850   3.699  14.257  12.109
18457W        W86851   4.229  22.554   2.270
18458W        W86852  17.150  44.162   0.723
18459W        W86853  32.805  24.540  11.530
18460W        W86854  25.570  42.817  12.527
18461W        W86855  26.105   4.017   4.543
18462W        W86856  26.273  27.657   1.789
18463W        W86857  28.069   5.716   3.771
18464W        W86858  30.884  23.790   4.222
18465W        W86859   3.560   7.228  12.095
18466W        W86860  12.261  37.685   2.092
18467W        W86861  40.000   9.681  13.959
18468W        W86862  29.839  23.571   3.195
18469W        W86863  30.181  44.935  14.535
18470W        W86864  42.373  26.473   3.321
18471W        W86865  15.670  36.645   3.508
18472W        W86866  41.420  14.795   1.293
18473W        W86867  42.224   2.849  14.901
18474W        W86868  37.539  42.736   5.054
18475W        W86869   4.926   5.621  12.987
18476W        W86870  20.220  12.842   0.464
18477W        W86871   8.872  37.257   0.956
18478W        W86872  15.336  30.573  13.819
18479W        W86873  37.405  16.270  11.293
18480W        W86874  12.625  39.015  14.265
18481W        W86875  14.416  29.174   2.845
18482W        W86876  15.165  11.718   3.216
18483W        W86877  21.200  19.043  12.474
18484W        W86878   0.502   7.615   2.335
18485W        W86879  24.296  19.798   1.934
18486W        W86880  40.804  15.544   2.477
18487W        W86881  12.589   7.640  14.916
18488W        W86882  34.658  27.671  12.499
18489W        W86883  26.195  18.744   1.783
18490W        W86884  30.105  25.981   0.397
18491W        W86885   8.742  18.199   3.751
18492W        W86886  23.648  11.234   2.680
18493W        W86887  32.388  37.782   0.848
18494W        W86888  27.503  42.957  14.288
18495W        W86889  18.572   8.079   0.871
18496W        W86890  31.757  24.692  11.060
18497W        W86891  39.645  42.756   4.918
18498W        W86892  36.319  22.488   4.588
18499W        W86893  41.951  10.002  14.568
18500W        W86894  17.348  24.994   4.651
18501W        W86895  44.013  35.139  10.896
18502W        W86896  43.659  37.006  14.833
18503W        W86897  44.978   5.130   3.324
18504W        W86898  30.119  30.377   2.511
18505W        W86899   1.960  36.533  10.519
18506W        W86900  37.225  29.834   2.203
18507W        W86901   5.393  26.133  12.054
18508W        W86902  43.912  30.902  13.928
18509W        W86903  18.675  15.811   1.048
18510W        W86904  35.643   2.442   4.816
18511W        W86905  24.266  11.825   1.398
18512W        W86906   3.713  13.342   3.893
18513W        W86907  36.852   5.376  10.721
18514W        W86908   7.915  17.644   0.408
18515W        W86909  16.761  41.492  11.201
18516W        W86910  35.109  19.154  11.546
18517W        W86911  44.763  34.454  14.981
18518W        W86912   2.761  24.072  11.162
18519W        W86913  20.738   8.625  14.701
18520W        W86914  17.284  23.786  12.447
18521W        W86915  22.594   2.807  12.084
18522W        W86916   7.860  14.589  14.930
18523W        W86917  23.647  42.937  11.679
18524W        W86918  19.501  29.169  10.282
18525W        W86919  16.818   7.776   1.699
18526W        W86920   2.759  44.824  11.940
18527W        W86921   6.370  33.436   0.822
18528W        W86922   2.691   2.190   2.733
18529W        W86923  12.489   1.422  12.497
18530W        W86924  20.595  36.043  10.760
18531W        W86925  22.807  25.248   2.227
18532W        W86926  39.905  17.079   0.785
18533W        W86927  16.116  40.998   2.128
18534W        W86928  11.429  38.468  14.361
18535W        W86929   8.788  39.981   4.924
18536W        W86930  19.114  33.083   0.293
18537W        W86931  21.734  38.332  11.024
18538W        W86932  24.723   7.813  13.485
18539W        W86933  24.014  32.035   0.292
18540W        W86934   9.318  38.890   1.396
18541W        W86935  28.656  44.477   0.823
18542W        W86936  40.138  17.230  13.489
18543W        W86937  20.624  28.590  12.888
18544W        W86938  34.800   2.665  14.518
18545W        W86939   4.901   4.802  14.976
18546W        W86940  18.484   1.833   3.171
18547W        W86941  44.502  27.955   0.840
18548W        W86942  44.461   3.221  13.870
18549W        W86943  18.123  18.222  13.311
18550W        W86944  38.875  37.131   1.297
18551W        W86945  41.033  41.917  11.090
18552W        W86946   8.002  17.268  11.436
18553W        W86947  19.556  35.069   2.734
18554W        W86948  23.471  33.912  11.464
18555W        W86949  18.264   8.265  14.399
18556W        W86950   0.237   5.228   2.740
18557W        W86951  43.767  22.698   0.097
18558W        W86952   1.579   1.812  11.793
18559W        W86953   9.859  18.344  14.716
18560W        W86954  37.795  14.539   3.543
18561W        W86955  14.531  12.009   1.805
18562W        W86956   9.171  17.768  13.783
18563W        W86957  11.674   1.947   0.758
18564W        W86958  29.744   6.518   0.760
18565W        W86959  34.299  27.119  14.002
18566W        W86960  42.501  17.325  12.223
18567W        W86961  19.637  36.973   2.755
18568W        W86962  21.096   9.395   0.878
18569W        W86963  30.460  16.442   1.832
18570W        W86964  42.259  16.137   3.266
18571W        W86965   3.870  15.582  12.490
18572W        W86966   3.632  43.404   0.050
18573W        W86967   0.927  14.644  10.911
18574W        W86968   4.405   0.567   1.730
18575W        W86969  17.788  28.162   2.300
18576W        W86970   5.428  44.462  12.870
18577W        W86971  44.898  24.130   4.581
18578W        W86972   1.252  21.693   1.777
18579W        W86973  29.901  27.911   0.381
18580W        W86974  24.459  13.817  12.513
18581W        W86975  12.575  14.774  10.537
18582W        W86976  28.532  43.985   0.945
18583W        W86977  31.087  22.621   0.509
18584W        W86978   6.928  23.859   4.532
18585W        W86979   9.369  34.490   1.941
18586W        W86980  25.909   1.224  12.971
18587W        W86981  44.750   4.303   0.931
18588W        W86982  37.970  22.053   3.305
18589W        W86983   8.986   9.741   0.841
18590W        W86984   6.684  30.631   5.055
18591W        W86985  16.098   7.456   1.459
18592W        W86986  14.100   6.287   3.002
18593W        W86987  23.839  23.614  11.930
18594W        W86988  28.368   5.831  12.447
18595W        W86989   1.667  23.546   2.751
18596W        W86990  38.870  27.563  12.844
18597W        W86991   7.192  37.770   2.423
18598W        W86992  32.966   8.355  10.387
18599W        W86993  43.059   5.979   2.322
18600W        W86994  32.003  21.071  13.920
18601W        W86995   3.011  12.164   2.476
18602W        W86996  37.612   0.094   4.188
18603W        W86997  13.794  42.881   2.836
18604W        W86998  33.478  19.930  10.204
18605W        W86999   9.444   8.344  13.074
18606W        W87000   3.687  26.971  12.170
18607W        W87001  27.338  16.059   3.771
18608W        W87002  33.892   8.381   0.687
18609W        W87003  20.089   2.676  12.331
18610W        W87004   0.927  15.561  12.627
18611W        W87005  15.842   5.311   1.803
18612W        W87006  21.445  34.231   1.479
18613W        W87007  11.135  33.413   1.303
18614W        W87008  37.154  24.172  14.791
18615W        W87009  44.753  32.503  11.417
18616W        W87010  36.374   9.310   1.687
18617W        W87011   6.905  20.818  10.546
18618W        W87012  12.367  25.125  10.773
18619W        W87013   0.811  29.079   4.451
18620W        W87014   4.425  27.593  11.652
18621W        W87015   4.764  30.926  14.979
18622W        W87016  39.162   1.727  14.010
18623W        W87017  39.026  20.288  13.038
18624W        W87018  34.083  36.560   1.179
18625W        W87019  25.953   7.570   1.284
18626W        W87020   2.085  29.713   1.305
18627W        W87021  28.152   1.781  10.718
18628W        W87022  41.348   8.684   1.481
18629W        W87023  22.861  40.128   4.567
18630W        W87024  11.293  27.203   3.065
18631W        W87025  25.504   9.141   4.085
18632W        W87026  27.459  33.714  14.534
18633W        W87027   2.649  35.923   2.111
18634W        W87028  43.004   8.841  14.748
18635W        W87029   9.053  20.996  11.097
18636W        W87030   1.662   0.473   2.518
18637W        W87031  36.559  33.505   2.696
18638W        W87032  25.667  42.691  10.281
18639W        W87033  38.444   0.545   0.477
18640W        W87034  31.966  42.802  14.936
18641W        W87035  29.920  20.423   3.571
18642W        W87036  37.404  29.657  10.667
18643W        W87037  33.933   5.890  13.670
18644W        W87038  25.812   5.653   0.282
18645W        W87039  35.899  19.037   1.911
18646W        W87040  18.362   9.433  14.965
18647W        W87041  30.436  11.853   3.265
18648W        W87042  36.104  36.860   1.961
18649W        W87043   2.365  33.726   3.664
18650W        W87044  36.982  15.853   4.191
18651W        W87045  14.956  16.123  13.850
18652W        W87046  13.583  34.235   2.896
18653W        W87047  10.048  17.774   3.208
18654W        W87048  30.050  44.526  13.801
18655W        W87049  10.631   7.801   2.450
18656W        W87050  40.563   9.191   3.247
18657W        W87051  11.533  13.262   0.824
18658W        W87052  27.511  14.033  13.862
18659W        W87053  44.925   6.378   1.004
18660W        W87054  13.003  25.739  13.941
18661W        W87055  37.319  32.877   1.776
18662W        W87056   1.791  10.356   2.221
18663W        W87057  24.148  21.865   0.472
18664W        W87058  37.837  10.744  13.851
18665W        W87059   7.732   9.662  11.126
18666W        W87060  20.035  38.835   0.128
18667W        W87061   5.419  44.222   0.731
18668W        W87062  44.934  35.100   3.314
18669W        W87063  21.287   4.874  10.903
18670W        W87064   8.832  35.953  13.303
18671W        W87065  17.522  15.720  14.070
18672W        W87066  29.136  29.982   3.334
18673W        W87067   7.248  38.318  14.851
18674W        W87068  38.021  33.613  12.612
18675W        W87069  15.059  38.141   0.474
18676W        W87070  34.114  37.463   3.613
18677W        W87071  18.005   8.278  12.510
18678W        W87072   7.752   2.960   1.725
18679W        W87073  31.480  17.132   1.068
18680W        W87074  18.796  44.196   3.658
18681W        W87075  30.633  25.151  13.461
18682W        W87076  22.798  40.126   2.187
18683W        W87077   4.722   9.300   0.955
18684W        W87078  44.015   7.138  12.961
18685W        W87079  28.579   3.195   4.509
18686W        W87080  16.664  11.226   0.547
18687W        W87081  27.908  35.030  14.993
18688W        W87082  44.030  42.582  13.488
18689W        W87083  12.185  40.426  13.835
18690W        W87084   2.469   0.053   0.852
18691W        W87085  10.297  42.505  11.839
18692W        W87086  44.839  33.274   2.440
18693W        W87087   9.124   2.854   5.498
18694W        W87088   8.263  13.406  12.460
18695W        W87089  44.009  21.486   2.035
18696W        W87090  32.642   2.496   3.925
18697W        W87091   0.789  19.718  13.970
18698W        W87092  22.015  29.014   0.053
18699W        W87093  33.133  26.559   2.218
18700W        W87094  27.479  35.928  14.740
18701W        W87095  37.997  18.675  14.652
18702W        W87096   7.724  15.106   4.657
18703W        W87097  44.239  11.550  12.554
18704W        W87098  27.067  14.361  13.854
18705W        W87099  22.764   8.363   2.727
18706W        W87100  41.526  11.150  14.831
18707W        W87101   2.623  43.601  10.449
18708W        W87102  16.632  17.285   3.618
18709W        W87103   8.008   9.307  14.512
18710W        W87104  44.846  35.575   9.773
18711W        W87105  25.554  34.169   0.310
18712W        W87106   6.227  26.743   0.113
18713W        W87107  25.911  40.974   0.189
18714W        W87108   7.961   0.399   0.545
18715W        W87109  32.391   2.209  10.757
18716W        W87110  42.644  15.334  11.566
18717W        W87111  32.524   0.135  10.763
18718W        W87112  34.306  29.007   4.626
18719W        W87113  23.208  28.880  11.880
18720W        W87114  23.616  28.106   4.531
18721W        W87115  36.495  15.410   2.906
18722W        W87116  42.439   5.434   1.948
18723W        W87117  10.262  29.883  10.992
18724W        W87118  16.635  35.812  12.738
18725W        W87119  14.155  23.545  12.973
18726W        W87120   3.443  37.541   4.219
18727W        W87121   7.045  12.224  12.928
18728W        W87122  34.382  36.424  12.945
18729W        W87123   0.870  43.815   1.316
18730W        W87124  43.380   9.291   4.132
18731W        W87125   3.018   2.943  11.646
18732W        W87126   9.361  42.498  12.581
18733W        W87127  30.074   9.356  12.908
18734W        W87128  23.678  29.727  14.294
18735W        W87129  12.193  41.881  13.920
18736W        W87130  39.106  43.937  11.968
18737W        W87131  25.131  26.108  14.005
18738W        W87132  20.577  35.568   3.205
18739W        W87133  20.771  41.330   3.344
18740W        W87134  28.687  15.407   0.789
18741W        W87135   8.301  27.461   2.734
18742W        W87136  25.011  21.479  12.909
18743W        W87137   5.047  34.928  12.612
18744W        W87138  17.867  33.988  10.464
18745W        W87139  40.481  20.555  11.236
18746W        W87140  24.459   0.451   2.622
18747W        W87141  25.484  30.934  13.263
18748W        W87142  13.569   8.816   3.163
18749W        W87143  39.489  37.999   3.880
18750W        W87144   6.905  12.947   0.584
18751W        W87145  26.642  34.491  13.004
18752W        W87146  23.171  16.102   4.190
18753W        W87147  24.756  26.066  14.803
18754W        W87148   6.268  23.221  13.527
18755W        W87149  44.878  11.633   1.823
18756W        W87150   3.337  19.818   2.858
18757W        W87151  25.079  43.620  11.703
18758W        W87152  18.099  36.461   2.346
18759W        W87153  44.822   9.280  12.999
18760W        W87154  27.029  21.560  10.288
18761W        W87155  41.466  36.797  12.155
18762W        W87156  15.663  38.820   0.833
18763W        W87157  42.904   5.285   3.555
18764W        W87158  31.084  39.437   4.780
18765W        W87159   0.446   5.194  11.235
18766W        W87160  25.258  14.906  13.914
18767W        W87161   0.008  41.062   3.585
18768W        W87162  27.372  20.115  11.256
18769W        W87163  42.264  27.958   3.158
18770W        W87164   3.796  36.384   3.790
18771W        W87165   9.669  18.831   3.530
18772W        W87166  40.824  30.174  12.124
18773W        W87167  40.993   3.807  13.397
18774W        W87168  42.975  42.671  14.453
18775W        W87169  14.970  38.319   4.298
18776W        W87170   4.387   0.077  14.906
18777W        W87171  14.894  43.427   3.038
18778W        W87172  28.210  26.185   4.313
18779W        W87173  24.212  20.185  13.498
18780W        W87174  33.615  41.196   1.271
18781W        W87175   8.878   5.606   0.293
18782W        W87176  27.271  34.279   1.351
18783W        W87177  31.595  42.353  14.541
18784W        W87178   4.726   4.570   9.772
18785W        W87179  37.845  20.793  12.614
18786W        W87180  12.302  11.342   3.516
18787W        W87181  25.650   0.256  13.786
18788W        W87182   1.520  42.503   4.533
18789W        W87183  24.288  38.603  10.422
18790W        W87184  25.827  41.659  13.524
18791W        W87185  43.277  36.898  11.801
18792W        W87186  22.787  44.286  14.958
18793W        W87187  36.988  18.697  13.560
18794W        W87188  26.783  29.333   1.733
18795W        W87189  40.981  42.382   4.705
18796W        W87190  39.272  37.539   3.211
18797W        W87191  12.087  38.494  13.550
18798W        W87192  37.345  21.408   3.281
18799W        W87193   9.080  18.299  12.971
18800W        W87194  22.561   7.018   2.787
18801W        W87195  10.730   0.468  12.998
18802W        W87196  20.605  25.955  12.967
18803W        W87197  41.897  28.198   4.645
18804W        W87198  13.461   7.872   2.239
18805W        W87199   2.510  23.738  14.868
18806W        W87200  15.154  16.401  10.255
18807W        W87201  22.234  25.411   0.364
18808W        W87202  41.847  11.854  13.507
18809W        W87203  25.097  40.525  13.357
18810W        W87204   0.921  39.162   3.554
18811W        W87205  25.961  37.551   1.786
18812W        W87206  38.419   6.454   3.663
18813W        W87207  24.490  25.685   0.774
18814W        W87208  30.323   4.637   0.860
18815W        W87209  23.730  25.759  13.448
18816W        W87210  11.175  32.989  11.400
18817W        W87211  15.176   1.013  10.673
18818W        W87212  38.325  13.172  14.299
18819W        W87213   9.701  17.789   4.538
18820W        W87214  25.842  35.493   0.529
18821W        W87215  28.580  15.706   4.164
18822W        W87216  24.542  38.748   2.735
18823W        W87217  20.777  15.591  10.573
18824W        W87218  44.484   4.901   4.167
18825W        W87219   9.610   6.900  11.230
18826W        W87220  26.958   6.799  13.582
18827W        W87221  30.194  41.987   4.846
18828W        W87222  40.864  39.321  10.507
18829W        W87223   1.575  33.043  13.283
18830W        W87224  44.460  13.341  11.684
18831W        W87225  15.713  43.255   5.037
18832W        W87226  18.775  36.508  12.152
18833W        W87227  15.166  13.478   0.483
18834W        W87228   0.968  42.821   2.630
18835W        W87229  31.541  38.449  11.626
18836W        W87230  10.687  34.085  12.793
18837W        W87231  30.059  16.558   3.331
18838W        W87232  22.579  27.039   3.346
18839W        W87233  36.334  19.715   4.556
18840W        W87234  38.307  23.676  11.975
18841W        W87235  39.059  16.344   1.281
18842W        W87236   8.667  42.365   3.136
18843W        W87237  30.046  25.191   3.932
18844W        W87238  40.304  43.269  11.093
18845W        W87239  32.618  32.030  12.827
18846W        W87240  15.371  19.456   3.022
18847W        W87241  23.425  44.963   2.191
18848W        W87242   6.525  37.438   4.041
18849W        W87243  34.678   3.808  13.471
18850W        W87244  22.206  37.309   0.268
18851W        W87245   3.775  29.924   1.653
18852W        W87246  22.065  37.960   0.018
18853W        W87247  24.910  34.054   3.281
18854W        W87248  33.099  44.372  14.871
18855W        W87249  18.772   8.320   2.388
18856W        W87250  33.864   8.193  11.448
18857W        W87251  19.974  26.624   2.316
18858W        W87252  44.239  22.763  10.810
18859W        W87253  38.494  38.262  14.253
18860W        W87254  21.792  23.916  12.204
18861W        W87255  35.329   7.607  13.190
18862W        W87256  34.533  33.951  13.973
18863W        W87257  36.461  34.501  12.937
18864W        W87258  40.801  12.304  14.751
18865W        W87259   5.153  27.182   4.521
18866W        W87260  24.221  13.634  11.219
18867W        W87261  39.293  37.907   2.843
18868W        W87262   7.879  28.534   3.264
18869W        W87263  30.662  37.016   0.193
18870W        W87264   3.251  32.556  14.367
18871W        W87265  24.142   8.578   3.167
18872W        W87266  19.672   9.941  11.633
18873W        W87267  34.327  23.082   2.782
18874W        W87268  33.433  37.033   1.189
18875W        W87269  25.619  12.324   4.141
18876W        W87270  26.890   5.852   0.367
18877W        W87271  18.747  21.109  13.287
18878W        W87272  19.067   8.695  14.926
18879W        W87273   5.765  23.648   3.421
18880W        W87274   0.428  35.688   1.779
18881W        W87275  17.096  21.351  14.829
18882W        W87276   0.621  41.806   1.266
18883W        W87277  39.722  27.395   3.648
18884W        W87278  14.224  39.409  10.169
18885W        W87279  41.106   5.303  13.893
18886W        W87280  30.324  33.443   3.237
18887W        W87281  31.384  12.350  12.011
18888W        W87282  44.940  18.508   0.139
18889W        W87283  17.178  26.092  14.832
18890W        W87284  11.817  15.804  13.349
18891W        W87285  36.074  16.283  13.288
18892W        W87286  34.250  35.566  11.923
18893W        W87287  23.044  18.758  12.616
18894W        W87288  41.295   6.885  10.654
18895W        W87289  10.141   1.562  14.970
18896W        W87290  23.817   3.233   1.419
18897W        W87291   2.879  43.299   0.765
18898W        W87292  35.965  14.608   5.215
18899W        W87293  22.136   4.818  11.449
18900W        W87294  28.042  37.539  11.188
18901W        W87295   3.230   9.764   3.363
18902W        W87296  23.983  28.063  12.529
18903W        W87297  28.549  34.772   1.158
18904W        W87298  40.862  15.014  11.669
18905W        W87299  27.173  39.250   1.521
18906W        W87300   0.676  39.300  14.482
18907W        W87301  22.201  38.482   3.208
18908W        W87302  15.904  22.022  11.573
18909W        W87303  41.502  36.791  12.696
18910W        W87304  28.564  11.371   3.315
18911W        W87305   5.334   2.156   0.810
18912W        W87306   9.658  43.030  13.608
18913W        W87307  38.405   8.822   3.581
18914W        W87308  22.043  15.127  13.984
18915W        W87309  31.313  28.198  13.417
18916W        W87310  38.502  34.670   2.723
18917W        W87311  27.119  21.143  13.808
18918W        W87312  39.157  19.072   2.204
18919W        W87313  15.496   8.651   3.922
18920W        W87314  18.771   4.702   4.627
18921W        W87315  34.407  30.967  13.542
18922W        W87316   2.733  15.705  12.080
18923W        W87317  40.293  22.668  14.637
18924W        W87318  28.499  36.038  14.814
18925W        W87319  12.788  28.535  13.855
18926W        W87320  38.666  43.414   1.751
18927W        W87321   1.345  38.854   3.640
18928W        W87322  16.700  26.588  13.430
18929W        W87323  25.984  29.404  11.132
18930W        W87324  34.007  33.455   2.202
18931W        W87325  35.568  24.084   4.423
18932W        W87326  24.882  15.672   4.639
18933W        W87327   8.689  13.928   2.819
18934W        W87328  23.058  41.502   2.841
18935W        W87329   3.198  10.890  12.090
18936W        W87330  36.190   4.666   4.404
18937W        W87331   6.294  36.434   0.994
18938W        W87332   1.275  27.680   2.174
18939W        W87333  44.894  15.846  14.668
18940W        W87334   2.007   8.240  12.420
18941W        W87335  30.411  44.745  13.051
18942W        W87336  44.529   1.078  13.606
18943W        W87337  35.921  44.848  14.076
18944W        W87338  23.403  12.674  10.727
18945W        W87339  10.514  34.167   3.843
18946W        W87340   9.741  10.015  13.242
18947W        W87341  41.528   6.428  11.538
18948W        W87342  39.243  12.289   4.140
18949W        W87343  41.066  35.908   4.233
18950W        W87344  36.555   7.316  10.292
18951W        W87345  43.417  20.182   1.473
18952W        W87346  30.114  24.176  11.289
18953W        W87347   5.793  29.204  13.992
18954W        W87348  20.121   7.719   4.324
18955W        W87349  11.312  36.997  12.647
18956W        W87350   0.306  15.184  11.928
18957W        W87351  29.624  39.494   1.899
18958W        W87352  37.380  13.064  12.918
18959W        W87353  24.959  16.732   1.944
18960W        W87354  40.909  29.637  13.473
18961W        W87355  26.683   1.839   4.935
18962W        W87356  43.806  24.507  14.000
18963W        W87357   3.313   2.438   5.002
18964W        W87358  25.089  36.402   0.988
18965W        W87359   8.160   2.381   3.613
18966W        W87360   5.259  11.634   1.889
18967W        W87361  17.241  31.585  12.339
18968W        W87362  42.929  30.212   4.533
18969W        W87363   7.205   4.245  11.473
18970W        W87364  33.059  11.290  10.660
18971W        W87365   5.225  42.190   0.207
18972W        W87366   0.684   8.896   9.947
18973W        W87367   3.765  23.650   1.882
18974W        W87368   7.313  37.284   2.596
18975W        W87369  39.850  27.988  12.430
18976W        W87370  32.899   5.689   0.388
18977W        W87371  25.994  42.557   4.987
18978W        W87372  13.908   0.139   3.399
18979W        W87373  19.323  33.783  14.605
18980W        W87374  19.149  14.088  13.705
18981W        W87375  43.320   1.718   2.742
18982W        W87376  23.905  12.793  10.718
18983W        W87377   9.752  31.566   3.697
18984W        W87378  20.052  23.956   3.995
18985W        W87379  40.313  18.280   1.400
18986W        W87380   1.371  20.727   2.977
18987W        W87381   1.171  23.718  13.844
18988W        W87382  18.718  15.746   0.519
18989W        W87383  17.174   9.676   1.768
18990W        W87384  16.131   1.058  12.114
18991W        W87385  23.207  27.202  11.542
18992W        W87386  27.670  38.929  13.049
18993W        W87387   0.440   4.251  12.524
18994W        W87388  24.018  24.721   1.360
18995W        W87389   8.356  10.890  13.788
18996W        W87390  34.380  25.669  10.902
18997W        W87391  44.417  26.899   1.246
18998W        W87392  16.709  33.291  13.495
18999W        W87393  22.987   6.843   4.504
19000W        W87394  21.886  24.718   2.739
19001W        W87395  26.491  14.665   1.962
19002W        W87396   1.968  44.488  10.752
19003W        W87397  15.542  15.628  14.455
19004W        W87398  18.951   7.744  14.371
19005W        W87399   3.733  42.325   0.863
19006W        W87400   2.799  35.553  10.707
19007W        W87401   1.745  31.061   1.189
19008W        W87402  24.400  36.332   3.361
19009W        W87403   1.468   5.748  12.968
19010W        W87404  42.854  21.012  12.907
19011W        W87405  36.463  41.230  10.930
19012W        W87406   7.390  27.027   1.410
19013W        W87407  14.370  31.102   4.284
19014W        W87408  44.948  30.077   4.129
19015W        W87409  10.835  32.147  14.442
19016W        W87410  35.610  21.570  12.179
19017W        W87411   1.205  26.167  12.798
19018W        W87412  24.151  41.831   0.852
19019W        W87413   0.875   0.454  14.782
19020W        W87414  25.438  19.126  11.884
19021W        W87415  20.593  34.001  14.877
19022W        W87416   0.240  30.884   2.873
19023W        W87417  40.035  26.272   3.423
19024W        W87418  25.449  28.043   1.936
19025W        W87419  26.507  32.372   2.631
19026W        W87420  41.976  43.740  13.018
19027W        W87421  18.553  43.477   4.643
19028W        W87422  41.187  34.838   1.319
19029W        W87423  31.521  32.722  13.489
19030W        W87424  26.512  28.631  14.774
19031W        W87425  43.354   4.624  14.121
19032W        W87426  27.494   3.796   4.510
19033W        W87427   8.327  43.535   1.615
19034W        W87428  15.627  28.655   1.894
19035W        W87429  30.514  20.221   2.902
19036W        W87430  23.745  17.700  12.330
19037W        W87431  18.308  10.079   0.494
19038W        W87432  28.472  31.364   4.692
19039W        W87433  41.818  30.990   3.126
19040W        W87434   6.725  12.729  11.050
19041W        W87435  27.639  41.064  12.907
19042W        W87436  28.381  34.138  13.101
19043W        W87437  36.936  12.569   2.377
19044W        W87438  28.367   3.884   0.405
19045W        W87439  42.571  28.361   0.963
19046W        W87440  29.075   8.232  11.327
19047W        W87441   4.391  23.120   0.421
19048W        W87442   7.544  15.170  10.564
19049W        W87443   7.853  41.917   2.812
19050W        W87444  21.082  27.578  11.066
19051W        W87445  41.305   2.805  12.318
19052W        W87446  42.715  13.201  12.043
19053W        W87447  16.262   6.757   4.064
19054W        W87448  40.043  10.985   2.804
19055W        W87449  29.953   5.958  12.336
19056W        W87450  36.370  30.808   4.229
19057W        W87451  34.087  24.150   0.753
19058W        W87452  17.249   5.270  14.805
19059W        W87453  13.585  25.001  14.414
19060W        W87454  43.973  15.518  13.088
19061W        W87455  18.645  19.188   3.188
19062W        W87456  15.203  10.678   3.155
19063W        W87457  43.111  12.146   4.886
19064W        W87458  41.502  18.023  14.654
19065W        W87459  30.819  15.222  14.918
19066W        W87460  22.655  15.496   2.172
19067W        W87461   5.301  38.488  11.031
19068W        W87462  24.030  34.015  11.522
19069W        W87463  18.910  18.990   4.619
19070W        W87464  19.732  42.789   0.873
19071W        W87465  16.801  15.739   1.335
19072W        W87466   1.257  16.537   2.257
19073W        W87467   0.739  21.789   1.830
19074W        W87468  44.104  15.275   4.201
19075W        W87469   4.474   8.214  12.867
19076W        W87470  26.786   3.080  12.976
19077W        W87471   6.411   4.638  11.242
19078W        W87472  28.892  41.611   1.265
19079W        W87473   4.782   2.271   1.339
19080W        W87474  25.662   6.307   4.887
19081W        W87475   9.618  44.754  13.826
19082W        W87476  13.596  30.452  14.463
19083W        W87477  36.447  22.365  14.820
19084W        W87478  24.526  24.076   1.318
19085W        W87479  15.082  28.638  13.109
19086W        W87480   6.625  34.417  10.202
19087W        W87481  25.474  23.109   1.401
19088W        W87482  38.823  42.000   9.959
19089W        W87483  17.178  44.771   2.845
19090W        W87484  29.594  19.720  11.750
19091W        W87485  25.526  29.412   2.774
19092W        W87486  27.744  37.004   4.959
19093W        W87487  15.640   1.218   2.295
19094W        W87488  14.258   1.833  10.432
19095W        W87489  44.475   4.901  10.231
19096W        W87490  24.685   8.558   9.681
19097W        W87491  20.790  10.344   3.127
19098W        W87492  44.113  19.069   0.374
19099W        W87493  39.772  21.536  14.065
19100W        W87494  12.307  23.812   0.836
19101W        W87495  42.947   3.995  12.520
19102W        W87496  23.187   1.911   1.262
19103W        W87497   2.885   2.831   4.397
19104W        W87498  22.999  13.860   0.106
19105W        W87499  38.029  35.130   2.187
19106W        W87500  41.290  35.086  12.156
19107W        W87501   4.398  13.630   3.549
19108W        W87502   8.296   0.582  13.894
19109W        W87503  21.275  38.346   9.992
19110W        W87504   4.810  22.222  10.680
19111W        W87505  17.935  36.935  14.330
19112W        W87506  11.800  21.702  11.351
19113W        W87507   0.794  12.575  10.167
19114W        W87508  13.286   6.697   3.173
19115W        W87509  31.131  24.031   2.303
19116W        W87510  13.767  25.516  14.541
19117W        W87511  21.622  21.471  12.598
19118W        W87512  33.062  27.930  13.829
19119W        W87513  22.506  15.029   2.041
19120W        W87514  31.537  37.439   4.149
19121W        W87515  10.875  17.939  12.360
19122W        W87516  29.431   1.714  12.820
19123W        W87517   9.131  29.115   0.973
19124W        W87518  37.433  36.745   1.771
19125W        W87519  19.314   1.407   2.282
19126W        W87520  20.237  38.903   1.782
19127W        W87521   7.104  34.471   3.625
19128W        W87522  39.326   4.290   2.642
19129W        W87523  14.222   8.417   1.273
19130W        W87524   5.818  36.504  11.382
19131W        W87525  24.179  31.506  14.726
19132W        W87526   2.171  25.715   1.893
19133W        W87527  30.463  14.549   2.204
19134W        W87528  19.213  40.287   4.554
19135W        W87529  14.981  44.249  12.877
19136W        W87530  11.551  37.559  14.415
19137W        W87531  25.916  39.524   0.068
19138W        W87532  20.285  20.614   4.341
19139W        W87533  26.968   6.108   1.737
19140W        W87534  19.957  33.550   0.406
19141W        W87535  21.193   9.741  13.618
19142W        W87536  20.748  44.238   1.904
19143W        W87537  38.400  41.037  13.834
19144W        W87538  17.668  32.617   2.966
19145W        W87539  27.155   0.216  13.802
19146W        W87540  41.465  11.669  12.604
19147W        W87541  38.570  34.444   0.764
19148W        W87542   9.666  42.278  10.715
19149W        W87543  14.889  36.993   4.094
19150W        W87544  11.206  32.525  14.760
19151W        W87545   3.273  38.628  10.756
19152W        W87546  14.407  29.526   1.477
19153W        W87547   7.169  11.623  11.937
19154W        W87548  43.323  23.239   0.932
19155W        W87549  39.897  22.187   1.977
19156W        W87550   9.444  40.806   0.910
19157W        W87551  43.748  19.136  10.699
19158W        W87552  20.770  30.878  11.035
19159W        W87553  37.404  18.142   0.780
19160W        W87554  35.484  27.120  13.482
19161W        W87555   8.835  29.552   0.804
19162W        W87556  19.229   2.696  11.181
19163W        W87557  40.280  33.804  11.963
19164W        W87558  41.630  14.427  14.528
19165W        W87559   8.731  23.084  13.896
19166W        W87560  24.228   7.017   0.855
19167W        W87561  19.033   0.506  12.530
19168W        W87562   6.234  43.269   1.672
19169W        W87563  40.293  36.564   3.924
19170W        W87564  30.083  22.009  10.765
19171W        W87565  24.168  18.113   4.083
19172W        W87566  11.316  31.951   4.301
19173W        W87567   3.232  26.175  10.414
19174W        W87568   1.488  41.238  12.483
19175W        W87569  44.463   2.352  11.005
19176W        W87570  21.977  43.205  12.185
19177W        W87571  33.630  37.522   3.425
19178W        W87572  33.108  17.673   1.359
19179W        W87573  21.605  26.474   2.071
19180W        W87574  42.123  32.584   3.229
19181W        W87575  13.920  16.221  14.956
19182W        W87576  37.477   2.419  12.571
19183W        W87577   2.301   5.219   4.606
19184W        W87578   8.830  13.982  12.840
19185W        W87579   8.470  10.405   3.162
19186W        W87580  28.434  15.523  13.932
19187W        W87581  24.253  14.682   1.266
19188W        W87582   1.072  11.923  13.362
19189W        W87583   8.863   0.470   0.296
19190W        W87584  36.964  15.663   3.719
19191W        W87585  11.738  26.903   2.684
19192W        W87586  12.056  24.481   2.273
19193W        W87587  23.998  20.085   4.563
19194W        W87588  19.074  43.555  11.204
19195W        W87589  40.966  29.138  11.104
19196W        W87590   8.658  29.148  14.842
19197W        W87591  38.590  40.814   1.109
19198W        W87592  22.043  38.304  13.948
19199W        W87593  39.048  23.248   3.685
19200W        W87594  20.335  44.388  14.266
19201W        W87595  36.017   8.693  11.943
19202W        W87596  25.699  41.903   0.234
19203W        W87597  32.503  44.256  11.288
19204W        W87598  13.240  29.663  11.502
19205W        W87599  16.817  24.972   3.022
19206W        W87600  20.120  37.832   0.961
19207W        W87601   2.531  41.047  14.755
19208W        W87602  22.036  41.031   4.289
19209W        W87603  13.045  11.751   3.198
19210W        W87604   1.195  15.869  11.090
19211W        W87605   0.535  29.495   1.273
19212W        W87606  19.208  23.573   1.638
19213W        W87607  10.354   7.055   0.886
19214W        W87608  13.895   2.716   1.254
19215W        W87609  15.747  11.650   2.894
19216W        W87610  43.500  21.179   2.899
19217W        W87611  35.435  11.852   4.508
19218W        W87612  19.113  27.941   3.090
19219W        W87613  26.463  23.131   1.097
19220W        W87614  16.626   8.901   0.066
19221W        W87615  15.100  13.417  14.331
19222W        W87616   4.225  11.852   3.273
19223W        W87617  13.729   4.726   1.610
19224W        W87618  41.813  32.243  13.359
19225W        W87619   7.973  29.673   4.557
19226W        W87620  23.957  21.199  12.925
19227W        W87621   4.883  11.111   3.098
19228W        W87622   4.953  42.899   1.746
19229W        W87623  28.167  44.887   4.088
19230W        W87624  42.279  31.415  12.453
19231W        W87625  28.351  33.857  14.082
19232W        W87626  13.203  31.598  14.798
19233W        W87627   7.178  34.006   4.881
19234W        W87628  44.507  28.089  10.072
19235W        W87629  19.272  19.504   2.606
19236W        W87630  14.189   3.463   0.429
19237W        W87631   4.287  26.467   3.393
19238W        W87632  35.624  18.315   0.813
19239W        W87633  11.293   2.130   1.900
19240W        W87634  12.919  20.918  11.042
19241W        W87635   4.136  17.982  14.938
19242W        W87636  20.496  27.192  14.431
19243W        W87637  27.053  17.157  12.553
19244W        W87638   4.020  42.365  10.458
19245W        W87639  19.054   8.338   1.022
19246W        W87640  40.797  26.372  14.144
19247W        W87641   8.226  32.225   0.770
19248W        W87642  13.604  32.459   4.760
19249W        W87643  44.884  38.591   0.418
19250W        W87644  40.276  11.756   4.604
19251W        W87645  25.801   4.424   2.762
19252W        W87646   5.706  43.049  12.990
19253W        W87647  40.358  24.860  12.988
19254W        W87648   0.498  43.125  14.940
19255W        W87649  42.819  38.223   4.994
19256W        W87650  34.991  11.844  13.030
19257W        W87651  26.955   1.402  12.417
19258W        W87652  35.110  13.774   2.650
19259W        W87653   0.133  12.740  13.957
19260W        W87654  11.848  31.720  10.678
19261W        W87655  32.172  18.445  13.447
19262W        W87656  13.719  37.243   2.155
19263W        W87657  25.615  27.195   2.182
19264W        W87658   3.750   5.170   3.509
19265W        W87659  19.329   7.744   1.819
19266W        W87660  16.669   9.204  13.805
19267W        W87661   1.382  10.452   1.864
19268W        W87662  34.361  26.118  11.614
19269W        W87663  19.791  40.989   4.928
19270W        W87664  40.219  40.947   2.406
19271W        W87665  40.354  37.007   3.680
19272W        W87666  33.482  19.201  14.373
19273W        W87667   1.503  32.626  13.617
19274W        W87668  22.615  25.203  13.400
19275W        W87669  13.836  14.914   3.801
19276W        W87670  15.056  33.118   3.209
19277W        W87671  36.473   8.664  13.071
19278W        W87672  36.284  11.751   0.933
19279W        W87673  24.252  23.089   0.751
19280W        W87674  36.976   0.807   2.809
19281W        W87675  13.313  39.524   0.242
19282W        W87676   0.519  14.343   1.945
19283W        W87677  22.166  13.095   2.846
19284W        W87678   9.280  12.619   4.110
19285W        W87679  36.135  30.017  11.135
19286W        W87680   2.042   8.237   0.812
19287W        W87681  39.923  35.480   1.906
19288W        W87682   8.587  41.589  12.756
19289W        W87683   1.533  11.628  13.348
19290W        W87684   3.688  32.141   1.418
19291W        W87685  14.089  25.009   2.186
19292W        W87686  12.266   0.018  13.845
19293W        W87687  33.125  29.863  11.518
19294W        W87688  20.653  23.514   0.681
19295W        W87689   0.131  30.096  12.544
19296W        W87690  29.431  44.358   2.756
19297W        W87691   3.738  43.751   0.797
19298W        W87692  28.443  36.528   0.408
19299W        W87693  24.908  26.920  13.701
19300W        W87694  27.251  25.228  12.423
19301W        W87695   9.294  15.082  10.957
19302W        W87696  44.155   2.109  14.430
19303W        W87697  26.497  20.044  13.505
19304W        W87698  11.657  26.013  11.895
19305W        W87699   3.671  29.959  11.055
19306W        W87700  35.240  32.984  12.392
19307W        W87701  13.315  15.076   3.701
19308W        W87702  15.068   4.396  12.040
19309W        W87703  44.184  28.589  12.532
19310W        W87704  37.815  35.935   5.023
19311W        W87705  31.601  29.685   4.387
19312W        W87706   8.957  22.018  12.052
19313W        W87707   3.862  17.189   0.072
19314W        W87708  17.609  32.567   0.095
19315W        W87709  28.194  35.494   3.141
19316W        W87710  14.313  33.379  12.546
19317W        W87711  14.268  20.846  12.183
19318W        W87712  32.691  35.444   0.733
19319W        W87713   2.619   6.909  14.454
19320W        W87714  32.155  16.186  13.974
19321W        W87715  16.576   0.955   0.761
19322W        W87716  28.394  21.797   2.232
19323W        W87717  12.133  42.922   1.583
19324W        W87718  16.194  35.626   0.232
19325W        W87719  28.039  41.107   2.778
19326W        W87720  38.442   3.643   3.832
19327W        W87721   6.324   2.596   9.674
19328W        W87722  22.726   3.761  12.011
19329W        W87723  23.569  17.042   4.467
19330W        W87724  13.314  38.840  10.218
19331W        W87725  25.461  12.752   2.981
19332W        W87726   1.755  27.985  14.431
19333W        W87727  15.737  36.490   3.985
19334W        W87728  44.231  34.978   3.294
19335W        W87729  32.582  40.844   0.610
19336W        W87730   7.104  23.209  10.100
19337W        W87731  44.953   6.902   2.188
19338W        W87732  10.342  11.669  12.014
19339W        W87733  31.462   7.746  12.074
19340W        W87734  42.258  19.798   0.284
19341W        W87735  13.072  40.470  12.210
19342W        W87736   8.123  18.347   4.383
19343W        W87737   1.938   2.972   0.809
19344W        W87738  16.344  35.178  11.522
19345W        W87739   3.757   9.614  11.532
19346W        W87740  18.273  26.524  11.851
19347W        W87741  21.611  39.897   2.412
19348W        W87742  31.293   1.709  11.236
19349W        W87743   4.639  26.036   4.514
19350W        W87744  35.427   3.152  11.132
19351W        W87745   8.287  37.580   4.062
19352W        W87746  12.241  30.017  13.048
19353W        W87747   8.919   0.363   4.581
19354W        W87748  37.884  33.025  13.012
19355W        W87749  17.991  23.658   3.412
19356W        W87750   3.043  11.984   1.413
19357W        W87751  19.343  20.526   2.802
19358W        W87752  32.106  27.689   3.835
19359W        W87753   8.434  17.122   3.164
19360W        W87754  26.946  14.277   1.425
19361W        W87755  36.026   6.194  13.778
19362W        W87756  11.762   4.585   0.788
19363W        W87757  31.923   0.688  13.976
19364W        W87758  32.745  24.081  12.895
19365W        W87759  26.463  35.100   2.057
19366W        W87760  24.024  40.367   2.623
19367W        W87761  17.700  28.927   1.709
19368W        W87762   3.263  11.405  13.910
19369W        W87763  18.211   8.967  14.813
19370W        W87764  23.128   6.554  11.226
19371W        W87765  20.226   1.790   5.244
19372W        W87766   8.253  36.327  10.412
19373W        W87767  25.733  26.175   2.343
19374W        W87768  24.624   8.230  11.076
19375W        W87769  11.240  39.300  12.552
19376W        W87770  14.194  17.680   2.914
19377W        W87771   6.232  18.131  10.702
19378W        W87772  16.365  40.432   0.457
19379W        W87773  38.590   0.767   4.229
19380W        W87774   5.185  27.481  13.874
19381W        W87775  28.832  11.788  14.734
19382W        W87776  40.861   4.718   4.559
19383W        W87777  44.816  13.620  12.674
19384W        W87778   5.507  38.789  14.341
19385W        W87779  23.268  41.530   3.345
19386W        W87780  15.126  41.125   4.840
19387W        W87781  31.438  22.445   0.903
19388W        W87782   8.308  40.546  13.922
19389W        W87783   3.848   0.927   4.278
19390W        W87784  29.376  38.786  11.659
19391W        W87785  37.458  18.521  13.832
19392W        W87786  39.488  32.487  13.144
19393W        W87787  34.220  17.720  12.095
19394W        W87788  41.350   4.466   3.679
19395W        W87789  28.707  13.797  13.017
19396W        W87790  33.045  13.217   0.441
19397W        W87791  40.548  25.449   1.370
19398W        W87792  17.554  11.264  12.885
19399W        W87793  30.521  16.220   0.323
19400W        W87794  14.670  43.020  10.443
19401W        W87795   5.249  38.139  10.664
19402W        W87796  38.867  44.019  14.427
19403W        W87797  43.969  41.433   0.405
19404W        W87798  33.375  19.620   4.174
19405W        W87799  17.709  27.202   2.161
19406W        W87800  24.482  20.260  12.539
19407W        W87801  41.369  16.216   2.305
19408W        W87802  39.101  44.497  13.959
19409W        W87803  27.019   0.423   3.232
19410W        W87804  16.261   0.025   1.317
19411W        W87805  28.566  25.058   1.467
19412W        W87806  41.806  44.817  11.209
19413W        W87807  15.309  21.237  11.999
19414W        W87808  20.039  11.084  11.870
19415W        W87809   7.526   3.750  11.439
19416W        W87810  28.129  17.809  13.491
19417W        W87811  12.776  27.522  11.267
19418W        W87812  36.474  31.187  13.828
19419W        W87813  24.511  35.437  11.626
19420W        W87814  21.780  18.115   4.750
19421W        W87815   1.744  19.515  11.120
19422W        W87816  41.595  42.419   1.304
19423W        W87817  25.556  13.314  13.463
19424W        W87818   7.444   2.858   3.662
19425W        W87819  18.997   6.210  13.571
19426W        W87820  33.487  17.844  11.146
19427W        W87821  43.879  21.018  12.933
19428W        W87822  31.880  11.075  14.936
19429W        W87823  37.984   9.706  12.918
19430W        W87824  31.753  40.566   0.864
19431W        W87825  32.734  40.435  13.457
19432W        W87826   6.960  34.610  11.895
19433W        W87827  21.633   1.101  14.430
19434W        W87828   9.756  29.110  13.809
19435W        W87829  19.546   4.817   4.134
19436W        W87830   5.230  23.241   3.729
19437W        W87831  17.247  41.298   0.429
19438W        W87832  32.114  33.538   3.671
19439W        W87833  28.759  31.420  13.307
19440W        W87834  21.915   8.386   1.171
19441W        W87835   1.286  37.352  11.919
19442W        W87836  18.356  22.795   0.119
19443W        W87837  12.269  21.762   4.586
19444W        W87838  27.663  39.061   1.458
19445W        W87839  43.989  44.219  12.866
19446W        W87840  26.654  29.907  13.235
19447W        W87841   0.969   2.238  13.435
19448W        W87842   7.582  35.718  10.604
19449W        W87843  38.465  11.336  12.191
19450W        W87844  34.404  16.170   2.865
19451W        W87845  43.326  40.060  13.838
19452W        W87846  27.512  22.093  11.499
19453W        W87847  14.137   7.423   0.253
19454W        W87848   5.574  20.669   0.869
19455W        W87849  41.872  44.294   2.134
19456W        W87850   1.354  27.336  11.805
19457W        W87851  37.396   1.297  12.783
19458W        W87852   6.801  17.556   1.140
19459W        W87853  15.152   8.634  10.738
19460W        W87854  17.010   7.318   4.560
19461W        W87855  31.700  33.474  12.401
19462W        W87856   8.401  14.081  11.581
19463W        W87857   1.458   4.831  11.194
19464W        W87858   9.230  36.443  11.168
19465W        W87859  44.250  28.203   0.293
19466W        W87860  30.189  35.554   0.635
19467W        W87861  17.845   5.887   3.669
19468W        W87862   4.208  26.460  13.416
19469W        W87863  11.118   9.314   3.964
19470W        W87864  26.306  16.243   2.329
19471W        W87865   4.738  19.233  13.536
19472W        W87866  44.692  17.832  11.041
19473W        W87867  17.199   9.718   0.886
19474W        W87868  13.036  31.758  10.347
19475W        W87869  21.446  34.563  11.159
19476W        W87870  42.998  32.576   2.859
19477W        W87871   2.310  34.928   1.970
19478W        W87872  29.968  34.465  15.000
19479W        W87873  44.803  21.095   4.218
19480W        W87874  30.489  23.519   4.026
19481W        W87875   7.325  29.544  10.580
19482W        W87876  40.724  43.828   3.863
19483W        W87877   5.928  43.443   2.330
19484W        W87878  22.954  16.541  14.768
19485W        W87879   1.406   1.522   0.334
19486W        W87880  20.834  26.204  12.011
19487W        W87881  35.809   5.216  11.189
19488W        W87882  22.527  19.718   1.320
19489W        W87883  35.359   3.335  11.596
19490W        W87884  29.422  33.030  12.950
19491W        W87885  11.707   6.769   0.799
19492W        W87886  31.001   4.119   2.904
19493W        W87887  15.615  28.590  13.975
19494W        W87888   3.810   7.604  12.981
19495W        W87889  39.906  12.443  10.701
19496W        W87890   2.704   4.579   1.943
19497W        W87891  34.431  32.860  12.437
19498W        W87892  11.450  24.304  12.466
19499W        W87893  18.768  26.618   0.565
19500W        W87894  26.196  10.608   3.185
19501W        W87895   7.699  22.018   4.196
19502W        W87896  22.562  12.340  11.213
19503W        W87897   2.743  35.712  13.062
19504W        W87898  10.554  31.927   0.909
19505W        W87899   5.026  34.127  13.034
19506W        W87900  20.756   3.271   0.882
19507W        W87901   9.560  34.341   0.737
19508W        W87902  31.040  15.151   2.662
19509W        W87903   8.267  14.216  12.044
19510W        W87904  44.610  30.022  12.532
19511W        W87905  16.018  22.182  14.442
19512W        W87906  27.056  18.264  14.876
19513W        W87907  44.344  20.423  13.986
19514W        W87908  19.672   4.727   1.760
19515W        W87909  10.315  26.554  13.452
19516W        W87910  27.928   6.103   2.819
19517W        W87911  20.538   3.878   3.626
19518W        W87912  13.291  39.061  12.039
19519W        W87913   8.571   2.978   9.818
19520W        W87914   7.836  10.693   3.663
19521W        W87915  28.874   2.509  12.329
19522W        W87916   7.447  16.675   3.219
19523W        W87917  43.743  13.927  13.858
19524W        W87918  19.149  20.505  11.474
19525W        W87919  35.949  40.137   3.163
19526W        W87920  31.611  21.351  12.116
19527W        W87921  16.843  29.654  12.062
19528W        W87922  20.568   8.221   4.859
19529W        W87923  36.344  17.310   9.889
19530W        W87924   3.777  27.337   1.943
19531W        W87925  17.634  33.452   4.746
19532W        W87926  19.103   0.971  13.548
19533W        W87927  20.128  32.538  13.565
19534W        W87928  36.427  24.742   2.060
19535W        W87929  27.589  26.440  11.475
19536W        W87930  36.098   1.760  10.744
19537W        W87931  22.200  16.717   1.399
19538W        W87932  13.827   8.221   0.726
19539W        W87933  18.771  36.714  13.194
19540W        W87934  16.024  18.743  12.508
19541W        W87935  34.317  19.979  12.601
19542W        W87936  38.410  23.654   4.709
19543W        W87937  43.392  19.724  11.702
19544W        W87938  27.655  36.755   3.407
19545W        W87939  30.779  17.430   4.894
19546W        W87940  10.765  37.999  14.136
19547W        W87941  37.888  43.077  10.651
19548W        W87942  36.964  15.884  13.529
19549W        W87943  18.865  37.144   3.136
19550W        W87944  10.162  26.421   2.694
19551W        W87945  44.437  18.785   0.868
19552W        W87946  34.155  17.672  13.936
19553W        W87947  44.281  13.119   3.336
19554W        W87948  22.784  36.800  12.065
19555W        W87949  43.839  11.560  10.448
19556W        W87950  35.574  12.661   0.248
19557W        W87951  44.790  32.072  14.582
19558W        W87952  33.839   7.143   0.824
19559W        W87953   8.360  39.924   1.498
19560W        W87954  42.774  42.172  11.655
19561W        W87955  44.766  12.417   4.138
19562W        W87956  38.907   7.699  12.106
19563W        W87957   4.433  29.173  14.877
19564W        W87958  40.127   4.344   0.485
19565W        W87959  24.239  44.853  13.005
19566W        W87960  20.253  10.169   3.749
19567W        W87961  23.589  12.696   3.733
19568W        W87962  11.414  30.094   2.834
19569W        W87963  26.926  12.581   0.642
19570W        W87964  26.702   0.502   1.919
19571W        W87965  37.036  42.973   4.112
19572W        W87966   9.234  14.882  13.853
19573W        W87967  41.854  11.380  11.745
19574W        W87968  25.777  17.307  11.942
19575W        W87969  31.127  25.648  14.042
19576W        W87970  33.441  25.030   4.649
19577W        W87971  15.159  27.455   4.920
19578W        W87972  26.627  39.148  12.836
19579W        W87973  33.661  13.444  10.690
19580W        W87974  42.803   6.379  13.353
19581W        W87975  23.655  27.962  14.828
19582W        W87976  28.816  41.205  13.642
19583W        W87977   9.196  15.220  12.935
19584W        W87978  38.080   0.061   1.318
19585W        W87979  10.750  18.451   3.522
19586W        W87980  14.791  17.678   3.184
19587W        W87981  40.911  37.912   1.806
19588W        W87982  39.198   2.201   5.089
19589W        W87983   8.484  29.561   3.208
19590W        W87984  28.494  10.711   2.705
19591W        W87985   4.446   6.760   0.424
19592W        W87986  25.799  27.175  11.951
19593W        W87987   2.766   7.725   3.743
19594W        W87988  24.210   5.787  12.485
19595W        W87989  34.390   6.181  12.358
19596W        W87990  29.167  24.987   3.634
19597W        W87991  31.677  33.094  14.995
19598W        W87992  34.729  44.722  11.242
19599W        W87993  14.410  44.327   1.001
19600W        W87994   9.346  25.944   3.941
19601W        W87995  20.768  28.521   4.601
19602W        W87996   1.790  36.482   2.135
19603W        W87997  11.634  41.873   0.807
19604W        W87998  27.006  15.843  14.181
19605W        W87999  35.944   1.736  12.088
19606W        W88000   9.833  27.706   3.472
19607W        W88001  18.453  24.634   4.285
19608W        W88002   0.901  38.673   4.279
19609W        W88003   9.098  44.056   2.044
19610W        W88004  34.624  40.713  11.941
19611W        W88005  30.046   2.618  14.403
19612W        W88006  18.081  16.202  14.483
19613W        W88007  25.046  23.173   4.244
19614W        W88008  43.238   9.199   5.143
19615W        W88009  43.898  35.738  14.400
19616W        W88010  17.734   3.725   0.802
19617W        W88011  34.358  10.474  14.364
19618W        W88012  23.238  19.882  13.546
19619W        W88013  11.467  18.705  13.098
19620W        W88014   7.787  42.380  14.499
19621W        W88015   9.053  15.617   5.091
19622W        W88016  38.572  22.312  12.087
19623W        W88017   9.265  41.333   3.695
19624W        W88018  35.342  38.999  12.023
19625W        W88019   9.620  39.322   1.516
19626W        W88020  34.473  39.254   3.748
19627W        W88021  24.840  43.310   9.858
19628W        W88022  35.999   0.739  10.901
19629W        W88023   1.467  14.874  14.412
19630W        W88024  33.077  42.971   0.407
19631W        W88025   2.588  12.368   2.270
19632W        W88026  11.350  40.478  14.955
19633W        W88027   5.143  32.943  14.933
19634W        W88028  28.459  27.941   4.602
19635W        W88029  37.813  19.602   1.726
19636W        W88030  17.378  27.664   0.723
19637W        W88031  14.884  27.014  12.519
19638W        W88032  42.358  22.202   4.560
19639W        W88033  28.463  20.848   3.246
19640W        W88034  21.438  42.419   1.250
19641W        W88035  26.391  38.084  13.796
19642W        W88036   1.801  29.970   4.829
19643W        W88037  17.447  24.800   2.750
19644W        W88038  30.063  33.867  12.437
19645W        W88039  13.354  12.648   0.861
19646W        W88040  35.789  43.263   2.632
19647W        W88041   9.850  11.598  11.145
19648W        W88042  42.826   1.881   2.614
19649W        W88043  22.636   9.876   1.884
19650W        W88044   5.254  15.759  13.483
19651W        W88045   9.939  12.565  12.142
19652W        W88046  21.711  26.086  11.162
19653W        W88047  16.289  39.606  12.230
19654W        W88048  33.079   1.920   1.322
19655W        W88049  30.245  38.243  11.273
19656W        W88050   6.379  18.093  12.547
19657W        W88051  39.521  24.120  11.926
19658W        W88052  16.130  14.546   3.301
19659W        W88053  23.184  29.141   2.123
19660W        W88054  39.991  31.467  13.836
19661W        W88055  30.215   7.573  13.367
19662W        W88056  23.223  23.609   1.405
19663W        W88057  10.320  37.554  12.029
19664W        W88058  20.114  43.783  13.460
19665W        W88059  30.595  43.817  12.681
19666W        W88060  30.438  17.079  14.982
19667W        W88061   5.746  44.154   1.648
19668W        W88062   2.292  36.020  11.136
19669W        W88063  26.991  39.883   0.907
19670W        W88064  32.158  20.907  12.424
19671W        W88065  40.262  13.148   3.148
19672W        W88066   1.052  33.457  12.514
19673W        W88067  17.980  18.194   0.815
19674W        W88068  34.579  31.183  14.474
19675W        W88069  10.801  16.983  12.663
19676W        W88070  12.577   4.457   0.802
19677W        W88071   1.149  38.416  13.494
19678W        W88072  35.891   4.743  14.488
19679W        W88073  29.916  16.961   0.478
19680W        W88074  36.627  32.842   2.338
19681W        W88075  20.074   0.937  13.141
19682W        W88076  33.178   7.781  14.597
19683W        W88077  23.481   9.985   3.176
19684W        W88078  20.718  24.205   2.636
19685W        W88079  27.998  27.428   1.672
19686W        W88080  44.223  10.854  11.469
19687W        W88081  41.932  43.693   3.366
19688W        W88082  30.492  29.544   2.817
19689W        W88083   0.033   5.671   1.216
19690W        W88084  35.902  43.851  12.843
19691W        W88085  28.172  44.016  12.090
19692W        W88086  29.074  35.543  14.765
19693W        W88087  44.976  13.408  14.455
19694W        W88088  42.990  20.663   3.589
19695W        W88089  21.638  41.295   2.011
19696W        W88090  38.232  19.577   3.329
19697W        W88091  35.733  18.042  11.465
19698W        W88092  24.717  38.376  11.189
19699W        W88093  30.708  25.600  13.689
19700W        W88094   8.649  14.553   3.831
19701W        W88095   4.988   5.409  11.085
19702W        W88096   7.145  31.826   2.005
19703W        W88097  27.119   9.729   0.000
19704W        W88098   3.865  35.036  10.834
19705W        W88099  19.338   8.302  11.236
19706W        W88100   2.661  22.195   2.802
19707W        W88101   3.964   3.761  12.940
19708W        W88102  39.307   2.203  13.867
19709W        W88103  40.961   4.815  14.541
19710W        W88104  32.149   2.838  14.950
19711W        W88105  10.723  43.746   4.851
19712W        W88106  41.374  32.613   3.620
19713W        W88107  43.701  40.912  12.780
19714W        W88108  41.325  13.460  12.115
19715W        W88109  41.664  32.910  11.155
19716W        W88110  15.391  38.624   3.406
19717W        W88111  14.744  21.278   3.754
19718W        W88112  22.190  31.189   1.189
19719W        W88113  37.045  33.055  13.348
19720W        W88114  26.152  14.367  13.811
19721W        W88115  16.159   7.217   3.783
19722W        W88116   6.839  25.469   1.735
19723W        W88117  11.288  15.766  11.429
19724W        W88118  29.970   0.627   2.655
19725W        W88119   5.434  27.952   2.700
19726W        W88120  29.999  10.355   3.257
19727W        W88121  37.620   6.407  14.890
19728W        W88122  21.530   0.217   3.255
19729W        W88123  22.400  36.567  14.468
19730W        W88124  12.308  33.664   0.341
19731W        W88125  44.789  35.458   2.790
19732W        W88126  15.042   2.496   1.511
19733W        W88127  43.232   7.069  13.490
19734W        W88128   5.816   7.115  12.686
19735W        W88129  23.964  28.913   1.455
19736W        W88130  19.690  22.049   3.256
19737W        W88131  44.237  34.894  13.031
19738W        W88132   8.222  39.383   3.413
19739W        W88133  34.537  41.387   0.110
19740W        W88134  39.425  22.614  10.531
19741W        W88135  38.480   5.883  11.606
19742W        W88136  41.524  12.995   1.051
19743W        W88137  12.736  33.181   2.952
19744W        W88138  29.948  41.485  12.036
19745W        W88139  40.475   6.294  11.725
19746W        W88140   3.815   7.578  13.933
19747W        W88141  33.347  17.067   1.258
19748W        W88142  18.154  21.946  13.147
19749W        W88143   1.633   1.021   3.675
19750W        W88144  13.404  21.269  13.487
19751W        W88145  33.392  24.596  11.072
19752W        W88146   6.274  11.232   1.220
19753W        W88147   0.311  35.023  10.803
19754W        W88148  22.041   4.980   1.158
19755W        W88149  11.368  24.063   1.888
19756W        W88150  24.216   1.744  11.742
19757W        W88151   2.417  36.474   4.665
19758W        W88152  38.915  22.965   1.291
19759W        W88153  36.341   9.463  11.004
19760W        W88154  16.740  14.567  12.010
19761W        W88155  11.839  36.028   1.314
19762W        W88156  40.787  35.848  12.403
19763W        W88157  43.207  36.203  14.849
19764W        W88158  27.001  12.769   1.135
19765W        W88159  24.070  21.522   3.113
19766W        W88160  22.011   3.952   4.180
19767W        W88161  35.342   0.549   1.588
19768W        W88162   4.207  15.844   0.730
19769W        W88163  42.427  33.080   1.733
19770W        W88164  23.162  31.875  10.662
19771W        W88165  24.471  35.982   1.467
19772W        W88166   1.432   4.270  11.190
19773W        W88167  33.248   8.183  13.915
19774W        W88168  30.774  28.350   0.163
19775W        W88169  28.098  21.338   2.074
19776W        W88170  11.696   9.615   0.699
19777W        W88171   7.674  17.037  10.469
19778W        W88172  29.509  19.309  11.043
19779W        W88173  33.373  21.781  11.533
19780W        W88174  15.740  37.993   4.597
19781W        W88175  11.576  36.366   4.612
19782W        W88176  24.281  12.079  11.675
19783W        W88177  16.762  28.376  13.555
19784W        W88178   0.480  30.094   4.129
19785W        W88179  26.402  39.660  12.914
19786W        W88180   7.897  39.863   0.781
19787W        W88181  30.647  38.570  13.908
19788W        W88182  17.761  26.002   1.232
19789W        W88183   5.697  43.928  13.834
19790W        W88184   0.390   0.172  10.695
19791W        W88185  24.510   0.419  11.923
19792W        W88186  42.351  34.627   1.045
19793W        W88187  31.666  36.539  14.914
19794W        W88188  16.230  16.539   2.524
19795W        W88189   3.325   5.593  13.775
19796W        W88190  20.535  38.414   2.675
19797W        W88191  32.616  25.767   2.394
19798W        W88192  37.897  30.328   1.812
19799W        W88193  10.535  36.525   1.268
19800W        W88194  26.168   1.795   2.716
19801W        W88195  11.217  33.983   2.743
19802W        W88196  40.922  38.184  14.366
19803W        W88197  21.838  18.097   1.857
19804W        W88198  38.554  15.219   2.181
19805W        W88199  32.294  35.473  11.468
19806W        W88200  25.690  13.678  14.780
19807W        W88201  11.390  13.405   1.828
19808W        W88202  23.110  26.202   3.271
19809W        W88203  38.608  11.588   4.526
19810W        W88204  12.226  24.637  10.815
19811W        W88205  37.427   0.783   4.812
19812W        W88206  15.120  34.414   4.187
19813W        W88207  39.922  11.286   3.724
19814W        W88208  30.164  44.428  12.420
19815W        W88209   7.802   7.815   4.313
19816W        W88210  28.206  19.442   1.417
19817W        W88211  27.545   9.884  11.096
19818W        W88212  19.746  38.114   0.030
19819W        W88213  36.528  14.673   2.746
19820W        W88214  10.077  40.586  11.161
19821W        W88215  28.446  39.028   0.386
19822W        W88216  10.608  15.767   4.649
19823W        W88217  43.908  19.718  11.374
19824W        W88218  34.561  31.025   4.725
19825W        W88219  33.554  26.489   3.590
19826W        W88220  38.741  32.038  12.412
19827W        W88221  41.295   4.223  14.492
19828W        W88222   8.626  33.332   0.385
19829W        W88223  28.974   6.144   1.214
19830W        W88224  12.206  43.351   2.392
19831W        W88225  35.709  27.641   0.335
19832W        W88226  24.818  12.452   5.193
19833W        W88227  28.423  26.582  12.881
19834W        W88228  11.149  40.803   1.414
19835W        W88229   5.426  12.889  10.695
19836W        W88230  11.090  25.006   2.708
19837W        W88231   5.469   6.153  12.474
19838W        W88232  13.034  44.931  14.475
19839W        W88233  41.827   1.355  11.796
19840W        W88234  15.063  33.950   1.878
19841W        W88235  20.083  14.590   1.736
19842W        W88236  42.390  13.066   0.838
19843W        W88237  24.571  24.541  14.319
19844W        W88238  10.657   2.042   4.954
19845W        W88239  37.890  29.624   4.164
19846W        W88240  35.913  14.112   2.287
19847W        W88241  39.292  17.504  13.630
19848W        W88242  16.074  10.256   3.125
19849W        W88243  18.664  33.867   2.364
19850W        W88244   0.849  16.168   2.539
19851W        W88245  29.216   1.448   1.415
19852W        W88246  28.386   0.417   2.750
19853W        W88247  27.664  35.111  11.455
19854W        W88248  24.497   1.930   3.181
19855W        W88249  42.534  23.473  11.349
19856W        W88250  33.027  30.384  14.375
19857W        W88251   0.539  28.638  14.572
19858W        W88252  44.524  25.898  10.956
19859W        W88253  36.392  14.230   4.978
19860W        W88254   3.480  28.897  13.703
19861W        W88255   0.929  26.830   2.504
19862W        W88256  14.687  39.542  13.423
19863W        W88257   9.776  28.336   0.774
19864W        W88258  11.879  13.179   3.669
19865W        W88259   2.407   9.277  10.686
19866W        W88260  44.254  20.249   0.921
19867W        W88261  42.518  25.651   0.507
19868W        W88262  20.778  14.168  10.349
19869W        W88263   2.216  16.909   2.241
19870W        W88264   9.927  34.963  13.237
19871W        W88265  30.839  30.459   3.688
19872W        W88266  37.415  17.863   3.881
19873W        W88267  14.520  16.969   0.339
19874W        W88268  17.304  19.482  14.872
19875W        W88269  33.414   9.940   2.732
19876W        W88270  16.767  43.731   3.414
19877W        W88271  16.604  38.531  13.266
19878W        W88272  17.139   8.478   1.302
19879W        W88273   3.766   7.831  13.468
19880W        W88274   7.316  30.482  11.478
19881W        W88275   5.274  39.489   2.200
19882W        W88276  40.793  40.440  11.183
19883W        W88277  40.374  18.056   2.710
19884W        W88278  39.601  24.123   4.424
19885W        W88279  12.940  12.288  12.007
19886W        W88280  32.648   3.774  13.866
19887W        W88281  32.696  18.063   5.218
19888W        W88282  36.948  24.239   3.318
19889W        W88283   5.516  36.805  12.036
19890W        W88284  41.537   6.877  14.470
19891W        W88285  13.615  41.284  12.869
19892W        W88286  29.577  20.010  14.825
19893W        W88287   2.364  13.599   5.318
19894W        W88288  38.236  12.596  14.778
19895W        W88289  28.052  40.860  12.567
19896W        W88290  22.292  42.392  12.092
19897W        W88291  20.745  22.446   1.834
19898W        W88292  32.380   5.096  11.685
19899W        W88293   1.395  17.227   3.594
19900W        W88294  42.729  20.129   4.772
19901W        W88295   2.400  23.085   3.013
19902W        W88296   2.939  35.801  13.954
19903W        W88297  37.487  40.955  12.657
19904W        W88298  16.749  13.703   3.199
19905W        W88299  12.143  40.851  11.425
19906W        W88300  21.208  44.312  14.477
19907W        W88301   9.288  41.002   0.399
19908W        W88302   6.896   6.933   0.185
19909W        W88303  27.035   1.575   2.512
19910W        W88304  33.703  44.030  10.769
19911W        W88305  29.573   9.062   4.479
19912W        W88306  14.514   3.029   0.641
19913W        W88307   1.355  32.071   4.027
19914W        W88308   7.769  19.736  13.767
19915W        W88309  36.898   5.115   3.029
19916W        W88310  22.755  26.926  11.521
19917W        W88311  29.572  38.024  14.508
19918W        W88312  17.878  34.481   2.953
19919W        W88313  43.845  21.542  12.995
19920W        W88314  43.791  31.407   4.136
19921W        W88315  11.764  18.730   3.602
19922W        W88316  37.766  26.083   3.731
19923W        W88317  15.998  18.990   1.423
19924W        W88318  29.596  17.886  11.955
19925W        W88319  13.153  15.800  14.460
19926W        W88320  10.186   8.608   2.890
19927W        W88321  32.771  27.488  12.035
19928W        W88322  33.994  15.561  11.963
19929W        W88323  21.497  26.936   9.459
19930W        W88324  19.565  20.884  13.407
19931W        W88325  21.044  33.067  11.064
19932W        W88326   0.195  36.147   3.291
19933W        W88327  44.741  13.270   2.284
19934W        W88328  13.837  29.971  14.890
19935W        W88329  39.881  28.957  12.659
19936W        W88330  16.701  35.336  14.516
19937W        W88331  43.288  29.974   4.850
19938W        W88332  37.526  26.676  14.869
19939W        W88333  24.092  43.591  12.415
19940W        W88334  27.132  40.397  14.928
19941W        W88335  10.134  23.918   2.288
19942W        W88336   7.041  30.771  14.871
19943W        W88337  31.645  11.304  14.525
19944W        W88338  30.840  17.730  14.411
19945W        W88339   7.401  25.592   0.007
19946W        W88340  11.382   5.528   1.718
19947W        W88341  20.050  12.029  12.269
19948W        W88342  14.763  29.086  11.056
19949W        W88343  13.397   8.787  11.171
19950W        W88344  26.680  34.996  12.152
19951W        W88345  12.546  11.830  14.875
19952W        W88346   7.336  18.355  13.806
19953W        W88347  11.433   7.740  11.094
19954W        W88348  11.938  22.149   3.761
19955W        W88349  39.054  28.088   1.859
19956W        W88350  18.032  40.306  12.802
19957W        W88351   4.663  38.856  12.581
19958W        W88352  29.224  33.047  13.413
19959W        W88353   4.971  25.041   1.691
19960W        W88354  42.815  26.677   1.872
19961W        W88355  40.541  15.535  13.925
19962W        W88356  36.972   6.307  12.598
19963W        W88357  14.300  39.242  12.472
19964W        W88358  11.548  31.547   0.728
19965W        W88359  44.530  11.099  12.117
19966W        W88360  20.841  37.462   2.641
19967W        W88361  20.230   1.758  13.015
19968W        W88362  28.112  43.765   0.280
19969W        W88363   8.670  17.694   3.598
19970W        W88364  24.735  29.193   2.582
19971W        W88365  18.739   3.221  14.725
19972W        W88366  42.290  43.755  14.457
19973W        W88367  39.666   6.061  11.641
19974W        W88368  25.904   7.834  12.086
19975W        W88369  29.553  31.825   1.422
19976W        W88370   3.442  12.094   2.776
19977W        W88371   9.184   1.232  12.066
19978W        W88372   6.876  16.121  13.530
19979W        W88373   8.658  22.237   4.338
19980W        W88374  39.021  41.081   0.851
19981W        W88375  17.578  29.990  13.128
19982W        W88376   9.364  24.671   0.319
19983W        W88377  26.992  20.810  11.504
19984W        W88378  24.293  13.174   4.753
19985W        W88379  29.098  34.453  10.896
19986W        W88380  11.146   4.275  12.944
19987W        W88381  29.624   8.840   3.811
19988W        W88382  11.212  18.814  10.727
19989W        W88383  44.914   5.923  12.678
19990W        W88384  17.169  41.905   9.851
19991W        W88385  31.037   2.468  14.526
19992W        W88386  14.120  27.572   2.173
19993W        W88387  16.456  41.138   4.140
19994W        W88388   3.305  14.281   2.362
19995W        W88389   2.549  39.004  10.674
19996W        W88390  27.969  31.427   4.679
19997W        W88391   5.819   3.711   2.651
19998W        W88392  21.316  15.514  10.631
19999W        W88393  28.438  12.303  12.593
20000W        W88394  33.556  35.976   4.526
20001W        W88395  38.584  27.728   0.423
20002W        W88396  36.141   0.854  12.092
20003W        W88397  40.114  39.247  12.311
20004W        W88398   8.453   8.720  10.685
20005W        W88399   4.807  20.448  14.883
20006W        W88400  25.938   7.268   0.473
20007W        W88401   7.079  29.475   5.085
20008W        W88402   1.693  18.655   0.839
20009W        W88403  29.501  42.408  10.100
20010W        W88404  11.347  29.409   4.671
20011W        W88405   4.422  17.336  11.359
20012W        W88406  26.043   6.914  14.895
20013W        W88407  37.008  32.021   4.253
20014W        W88408  15.979  40.916   4.153
20015W        W88409  15.290   6.563   1.961
20016W        W88410  34.088  18.184   0.884
20017W        W88411   4.699  40.810  13.291
20018W        W88412   8.302  35.309   2.279
20019W        W88413  34.447  28.567  11.649
20020W        W88414  12.407  35.134   3.677
20021W        W88415  26.852   4.225   4.160
20022W        W88416  14.605   5.483  11.540
20023W        W88417   9.979  24.224  12.319
20024W        W88418  11.140  22.654   3.649
20025W        W88419  26.272  16.447  12.343
20026W        W88420   6.736   1.313  10.664
20027W        W88421  34.815  17.773   3.175
20028W        W88422   3.384  21.096   0.511
20029W        W88423  42.390  23.780   0.940
20030W        W88424  10.715  26.791   1.424
20031W        W88425  38.799  10.268   1.226
20032W        W88426  12.393   6.800   5.025
20033W        W88427  18.295   4.470  11.092
20034W        W88428  33.981  32.404  13.019
20035W        W88429   7.640  39.976  13.577
20036W        W88430  17.825  36.946  12.897
20037W        W88431   0.708  21.724   0.260
20038W        W88432  36.658  29.343  11.069
20039W        W88433  29.562  22.639  12.448
20040W        W88434  28.112  19.780   1.953
20041W        W88435  20.231  43.069   4.062
20042W        W88436  14.130  20.856   2.191
20043W        W88437   1.470  37.963   0.901
20044W        W88438  42.349  43.805   1.368
20045W        W88439  44.064  41.220  12.588
20046W        W88440  35.360  40.372   1.531
20047W        W88441  15.417   5.388  13.377
20048W        W88442  17.832  40.450  13.469
20049W        W88443  27.539  33.787  11.076
20050W        W88444   0.950  30.383   3.235
20051W        W88445  22.246  44.034   3.709
20052W        W88446   0.860  10.840   4.110
20053W        W88447  38.615  16.265   3.139
20054W        W88448  38.889  12.685   4.964
20055W        W88449  39.126  14.157   3.061
20056W        W88450   5.279  37.801   0.714
20057W        W88451  37.048  10.724  14.403
20058W        W88452  28.682  39.534  11.564
20059W        W88453   7.359  11.582   0.851
20060W        W88454  34.896  26.055   1.728
20061W        W88455  28.455   7.861   1.282
20062W        W88456  21.236  25.497   3.119
20063W        W88457   8.113  27.716   0.936
20064W        W88458  37.979  13.070  14.678
20065W        W88459   3.316  25.012   4.010
20066W        W88460  14.284   3.704   0.999
20067W        W88461  21.687  25.580   2.590
20068W        W88462   7.408  19.150   3.713
20069W        W88463  20.746  18.896  14.802
20070W        W88464  25.684   2.700  12.511
20071W        W88465   1.804  21.676   1.867
20072W        W88466  35.876  40.751  11.563
20073W        W88467   3.317  15.621  14.505
20074W        W88468  10.339  21.557   1.984
20075W        W88469  43.938  33.450  12.928
20076W        W88470  16.302  26.580   0.845
20077W        W88471  16.394  44.001  14.937
20078W        W88472  32.751   1.464   3.631
20079W        W88473  42.497  15.749  14.809
20080W        W88474   2.631  14.425  12.141
20081W        W88475   9.459  13.633  11.191
20082W        W88476  32.950   5.415  13.132
20083W        W88477   8.853  42.731   5.309
20084W        W88478  25.695  13.570  13.897
20085W        W88479  16.047  14.739   1.468
20086W        W88480  15.702  18.936   1.007
20087W        W88481  17.549   7.829  12.476
20088W        W88482   5.891  35.895  12.537
20089W        W88483   1.329  38.571  14.780
20090W        W88484  11.154  14.328  13.115
20091W        W88485  19.819  41.504  13.790
20092W        W88486   8.245  34.856  11.326
20093W        W88487  14.656  40.089   0.381
20094W        W88488  35.530  41.438   2.384
20095W        W88489   0.677  11.438  14.965
20096W        W88490  18.245  13.582  10.686
20097W        W88491  34.892   4.450   1.698
20098W        W88492  23.566  38.401  10.768
20099W        W88493  15.906  20.021   0.813
20100W        W88494  26.104  15.848  13.863
20101W        W88495  27.694  33.589   2.472
20102W        W88496  36.479  38.135   5.010
20103W        W88497   0.617  11.928   2.494
20104W        W88498   9.862  28.269   4.100
20105W        W88499  42.731   0.913   3.707
20106W        W88500  22.180  40.253  12.467
20107W        W88501  25.531  13.878   3.079
20108W        W88502  21.697  36.935  13.525
20109W        W88503   8.607  20.031   0.250
20110W        W88504  31.099  44.796   3.107
20111W        W88505  18.553  17.276   1.831
20112W        W88506   8.808  27.998  13.107
20113W        W88507  22.933  18.499  13.053
20114W        W88508   9.813   4.515   1.495
20115W        W88509  30.662  38.313  11.583
20116W        W88510  41.492   8.897  12.826
20117W        W88511  17.772  33.887  12.373
20118W        W88512  25.567  24.957  13.341
20119W        W88513  17.985  21.221  13.524
20120W        W88514  41.929  24.953   3.787
20121W        W88515  25.740  31.518   4.540
20122W        W88516  22.307   6.208   4.302
20123W        W88517   2.280   5.321  12.964
20124W        W88518  26.693   0.932   5.426
20125W        W88519  22.187  11.329   0.872
20126W        W88520  40.474  17.830  12.416
20127W        W88521  23.664  13.088   1.729
20128W        W88522  26.690  22.760  14.822
20129W        W88523  43.730  42.509  11.101
20130W        W88524   0.956  11.969  12.157
20131W        W88525  22.813  19.214   3.246
20132W        W88526  19.967  13.797  14.560
20133W        W88527   6.152  17.605  11.006
20134W        W88528  39.301  18.569   0.503
20135W        W88529   0.204  17.780  11.740
20136W        W88530  29.628  10.803   1.291
20137W        W88531  20.131  18.754   4.582
20138W        W88532   6.926  13.286  10.142
20139W        W88533  44.896   9.913  14.490
20140W        W88534  15.877  18.546   3.917
20141W        W88535   3.772  19.029   3.683
20142W        W88536  23.072  43.115   4.255
20143W        W88537   9.107  35.123  14.352
20144W        W88538   5.329  27.459  12.554
20145W        W88539  31.645  11.135   1.490
20146W        W88540  35.652  41.896  13.808
20147W        W88541  10.929  24.339   1.030
20148W        W88542  21.051  42.445  13.429
20149W        W88543   7.238   1.386  14.743
20150W        W88544  35.891  13.244   0.755
20151W        W88545   6.662  27.998   0.219
20152W        W88546  37.917  14.809  14.035
20153W        W88547  16.015  30.008   3.690
20154W        W88548  34.531  12.937  10.709
20155W        W88549  30.758  44.478  13.321
20156W        W88550   5.888  36.120   4.306
20157W        W88551  15.467  21.422  12.936
20158W        W88552  35.948   8.133   1.707
20159W        W88553   2.635  20.817  13.411
20160W        W88554   3.680  22.299   5.026
20161W        W88555   8.853   2.045  11.026
20162W        W88556   8.740   1.360  14.080
20163W        W88557  28.900  43.825  13.566
20164W        W88558  38.393  12.650   3.276
20165W        W88559   5.820  35.419   4.854
20166W        W88560   0.179   1.525  12.768
20167W        W88561  17.496  38.304  12.951
20168W        W88562  21.753  24.636  10.924
20169W        W88563   1.254   6.476  13.334
20170W        W88564  13.621   8.655  12.030
20171W        W88565  19.278  40.318  13.503
20172W        W88566  12.309  30.075   4.131
20173W        W88567  37.808  36.514  11.572
20174W        W88568  17.787  33.446  13.563
20175W        W88569  17.145  30.570  12.528
20176W        W88570  17.601  36.490   5.542
20177W        W88571  22.501  26.470  11.511
20178W        W88572  11.859  24.486  12.977
20179W        W88573  12.665  33.868  12.337
20180W        W88574  27.067  21.077   2.838
20181W        W88575   2.780  23.789  13.560
20182W        W88576  28.362  13.978  13.870
20183W        W88577  20.233  16.640  11.880
20184W        W88578   1.968  13.154   2.338
20185W        W88579  37.494  35.093   2.856
20186W        W88580   6.001  29.914  13.390
20187W        W88581   3.765  19.582  11.156
20188W        W88582  39.844   3.327  14.046
20189W        W88583   4.323  36.829  14.853
20190W        W88584  35.874  10.693  10.744
20191W        W88585  27.550   6.469  13.868
20192W        W88586  40.372  31.235  10.638
20193W        W88587   1.824  42.900  10.738
20194W        W88588  36.563  18.104  12.023
20195W        W88589  19.469  27.024  14.435
20196W        W88590  34.396   6.342  10.990
20197W        W88591  15.850  25.789  14.258
20198W        W88592  31.063  16.427  14.258
20199W        W88593  21.471   6.029  14.768
20200W        W88594   6.131   2.237   3.719
20201W        W88595  34.425  38.654  12.392
20202W        W88596  19.317  25.657  12.511
20203W        W88597  43.831  26.204   0.519
20204W        W88598  36.784  34.001   4.037
20205W        W88599   5.854   1.101   4.995
20206W        W88600  36.493  15.904   2.776
20207W        W88601  11.930  39.368  11.248
20208W        W88602   1.400  24.454   3.822
20209W        W88603   0.233  23.196  14.350
20210W        W88604  16.730  33.502   3.371
20211W        W88605  26.583  34.828   5.005
20212W        W88606  33.492  43.258  11.323
20213W        W88607  23.172   9.866  12.673
20214W        W88608   8.385  20.828  10.751
20215W        W88609  20.220   3.408   3.343
20216W        W88610  35.618  37.751   1.282
20217W        W88611  43.549  37.444  11.614
20218W        W88612  11.986  21.464   1.204
20219W        W88613  13.157  34.069   1.423
20220W        W88614  32.050  25.946  12.200
20221W        W88615  16.812  38.924   0.847
20222W        W88616  36.023  33.334   2.480
20223W        W88617  39.891  19.045  12.813
20224W        W88618  44.437  15.596  14.570
20225W        W88619  33.816  26.218  12.365
20226W        W88620  35.419  44.800   2.342
20227W        W88621  27.686  32.759  13.400
20228W        W88622  37.594  11.788  12.502
20229W        W88623   1.635  31.140  13.000
20230W        W88624   7.797  42.817   1.171
20231W        W88625  20.677  44.546   4.340
20232W        W88626  14.794   0.219  10.533
20233W        W88627   6.123   2.781   3.093
20234W        W88628   2.387  15.596  14.470
20235W        W88629   6.508  30.056   0.722
20236W        W88630  32.367  35.748  13.081
20237W        W88631   7.798  35.640  14.751
20238W        W88632  33.528  30.953  14.039
20239W        W88633  22.706   9.383   1.706
20240W        W88634  30.929   1.183   4.100
20241W        W88635  24.300  44.488  14.951
20242W        W88636  18.341  30.968   1.927
20243W        W88637  31.173   1.069  12.028
20244W        W88638  35.453  38.102   1.658
20245W        W88639  11.070  10.205   4.543
20246W        W88640  17.625  44.695   3.133
20247W        W88641  31.488  42.471   0.473
20248W        W88642  30.982  36.189  14.880
20249W        W88643  19.827  15.756   1.726
20250W        W88644  40.542   1.183  10.762
20251W        W88645  31.434  39.898  12.272
20252W        W88646   1.000   9.048   0.573
20253W        W88647   8.338   6.943  12.237
20254W        W88648  41.533  17.150  11.697
20255W        W88649  14.806  44.502  13.519
20256W        W88650  16.906  23.616  14.269
20257W        W88651  13.431  35.949  12.170
20258W        W88652   4.909  35.047   0.136
20259W        W88653  35.448  21.715   3.600
20260W        W88654  23.866   1.451  13.042
20261W        W88655  35.033  23.669  13.122
20262W        W88656  36.021  36.942   0.960
20263W        W88657  30.698  35.661   4.878
20264W        W88658   7.271  23.074   1.164
20265W        W88659  40.928  13.580  11.415
20266W        W88660  11.111  36.682  14.090
20267W        W88661   1.001   0.103   1.167
20268W        W88662  13.759  35.724  12.538
20269W        W88663  38.484   6.944   3.526
20270W        W88664  32.494   6.319  13.570
20271W        W88665  39.539  10.880  13.438
20272W        W88666  34.539  36.857   4.592
20273W        W88667  41.293  23.676   1.725
20274W        W88668  13.257  39.592  12.039
20275W        W88669  26.269   8.873   2.218
20276W        W88670  33.601  18.143   3.296
20277W        W88671   2.405  37.821   2.322
20278W        W88672  25.350  18.426   3.302
20279W        W88673   6.048  27.691   2.949
20280W        W88674   8.200   4.945  13.881
20281W        W88675  32.008  30.369   3.257
20282W        W88676   2.116   0.831   3.679
20283W        W88677  10.843  30.695  12.331
20284W        W88678  41.049   1.019  14.080
20285W        W88679  11.613   1.823  14.771
20286W        W88680  40.818  30.952  10.697
20287W        W88681  42.213   6.564   1.348
20288W        W88682  36.958   5.319  11.589
20289W        W88683  18.104  28.046  14.468
20290W        W88684  37.557   7.340   3.414
20291W        W88685  15.923  27.471  12.123
20292W        W88686  36.272  13.662  12.424
20293W        W88687  35.873  40.332  10.669
20294W        W88688  21.223   3.760   4.659
20295W        W88689  23.498  29.964   2.713
20296W        W88690  27.268  30.887   1.263
20297W        W88691  19.450  23.507  12.085
20298W        W88692  24.656  41.144   4.579
20299W        W88693  17.694   2.205   0.920
20300W        W88694   8.678  29.192  13.839
20301W        W88695  28.979  23.110  12.130
20302W        W88696  32.566   9.375   4.554
20303W        W88697  43.430  32.085  14.472
20304W        W88698   7.834   0.445   2.193
20305W        W88699  32.626  18.496  12.100
20306W        W88700  17.520  34.432   1.476
20307W        W88701  22.239  12.246  14.801
20308W        W88702  10.964   7.958  11.098
20309W        W88703   1.781  42.954  14.481
20310W        W88704   7.765   6.817  12.483
20311W        W88705  16.208  20.450  13.417
20312W        W88706  13.739  21.507   2.252
20313W        W88707  40.499  11.334  12.584
20314W        W88708  43.668   6.691  14.887
20315W        W88709  35.661  37.939  14.309
20316W        W88710  31.625  32.550   1.882
20317W        W88711  37.543  15.619   1.848
20318W        W88712  40.928  34.382   3.192
20319W        W88713  25.904   0.398   4.253
20320W        W88714   1.105  23.851  12.983
20321W        W88715   9.233  14.597  11.175
20322W        W88716  38.838  29.819   3.442
20323W        W88717  41.799   0.011   1.333
20324W        W88718  29.879   9.108  11.538
20325W        W88719  35.891   2.087   4.074
20326W        W88720  16.697  37.387   5.384
20327W        W88721  20.104  15.906   4.485
20328W        W88722  13.552   1.177   1.552
20329W        W88723  33.452  18.156  12.629
20330W        W88724  43.767  41.928   2.652
20331W        W88725   6.777  11.344  12.841
20332W        W88726  36.888  36.949  11.798
20333W        W88727   3.367  23.121  13.374
20334W        W88728  33.429  14.359  11.688
20335W        W88729  16.342   4.340   0.423
20336W        W88730  17.568  25.667  12.943
20337W        W88731  44.912  36.923   2.088
20338W        W88732  41.851  31.279  14.502
20339W        W88733  25.132  43.772   2.810
20340W        W88734  37.026   2.941   4.183
20341W        W88735  13.221  33.910   4.690
20342W        W88736  19.206   3.030  12.532
20343W        W88737  33.250  39.512  13.219
20344W        W88738  11.160  33.893  12.832
20345W        W88739   8.243  28.898  14.625
20346W        W88740  34.252  31.646  11.665
20347W        W88741  27.243  11.375  13.435
20348W        W88742  39.036  40.575   0.978
20349W        W88743  39.911  30.670   2.228
20350W        W88744  39.495  25.472   3.584
20351W        W88745  38.935  28.070   1.287
20352W        W88746  26.238  16.804   3.737
20353W        W88747  29.244  25.199   1.486
20354W        W88748  12.381   1.933  11.840
20355W        W88749  21.666  31.851  14.865
20356W        W88750  15.992  37.253  13.094
20357W        W88751  26.497  14.829   2.954
20358W        W88752  22.630   1.259  14.552
20359W        W88753   3.954  36.845  12.930
20360W        W88754  27.474  14.549   3.640
20361W        W88755  36.030  42.985   0.544
20362W        W88756  15.460   7.947  10.286
20363W        W88757  40.029  39.852  13.169
20364W        W88758  37.941  21.198   5.079
20365W        W88759   6.237  18.608  12.456
20366W        W88760  39.902  28.163  11.913
20367W        W88761   6.723  23.016  13.303
20368W        W88762  41.740   0.635   3.782
20369W        W88763  28.482  38.060   3.579
20370W        W88764  19.127  14.071   0.741
20371W        W88765  13.766   2.336  11.177
20372W        W88766  32.610  40.096  14.827
20373W        W88767  19.781  43.276   2.400
20374W        W88768  15.328  44.585  11.986
20375W        W88769  27.422  20.105   2.822
20376W        W88770   6.629  11.088   0.735
20377W        W88771  19.525  43.350  12.976
20378W        W88772   6.431  39.961   1.050
20379W        W88773  22.753  39.133  14.519
20380W        W88774  25.377  38.625  11.939
20381W        W88775  32.414  33.919   2.808
20382W        W88776  25.670  16.112  14.007
20383W        W88777  21.725   4.207   1.833
20384W        W88778  23.539  43.523  13.510
20385W        W88779  18.987  38.403   2.822
20386W        W88780  26.184  14.282  12.920
20387W        W88781  36.561   7.704  11.982
20388W        W88782  27.297   1.098  14.074
20389W        W88783  40.835  12.396  10.433
20390W        W88784  31.518  42.837  12.629
20391W        W88785   7.667  21.694   2.161
20392W        W88786  40.516  42.934  12.855
20393W        W88787  17.074  39.527   0.304
20394W        W88788  25.767  35.480   3.234
20395W        W88789  27.817  20.640   0.893
20396W        W88790   1.443   9.765   2.616
20397W        W88791  39.464  35.915  11.241
20398W        W88792  44.887  28.086   3.842
20399W        W88793   8.827  29.017  10.185
20400W        W88794  44.802  13.541   0.823
20401W        W88795  24.787  35.660  14.489
20402W        W88796  32.468  34.461   3.099
20403W        W88797   8.765   1.986   1.803
20404W        W88798  40.458  37.048   9.713
20405W        W88799   6.084   9.891   0.906
20406W        W88800   2.818  11.719  10.940
20407W        W88801  40.872  20.658   3.886
20408W        W88802  36.844  44.282   1.926
20409W        W88803  31.637  37.484   3.315
20410W        W88804  12.709  37.953   3.589
20411W        W88805  29.189  20.756   2.489
20412W        W88806  39.815   8.195  11.180
20413W        W88807  28.237  34.584   3.159
20414W        W88808  43.843   3.395   2.651
20415W        W88809  13.171  37.109  11.451
20416W        W88810  35.099  36.793   0.902
20417W        W88811  25.616   5.271  10.891
20418W        W88812  43.689  42.873   4.524
20419W        W88813  13.268  34.539  12.141
20420W        W88814  40.701  34.780  13.917
20421W        W88815  16.400  23.127   1.226
20422W        W88816   7.896   8.909   0.769
20423W        W88817  20.037  26.758  11.654
20424W        W88818  20.613  39.078  12.921
20425W        W88819  11.322  38.494  10.548
20426W        W88820  31.579  25.500   4.931
20427W        W88821  11.131   5.171  10.733
20428W        W88822  15.377   9.200   3.993
20429W        W88823  39.922  26.944   3.773
20430W        W88824  17.383  35.498   2.894
20431W        W88825  25.027  40.923  14.866
20432W        W88826   6.323  29.892  11.079
20433W        W88827  25.493  23.583  14.806
20434W        W88828  39.972   0.796  11.344
20435W        W88829  16.609  44.858   1.693
20436W        W88830  38.280  37.061   0.176
20437W        W88831   1.617  35.975   4.567
20438W        W88832  42.900  39.273   9.838
20439W        W88833   9.112   4.414  14.250
20440W        W88834  12.728  43.906   3.379
20441W        W88835  38.549  29.981   2.187
20442W        W88836  41.819  25.935  14.999
20443W        W88837  13.482   4.773   3.810
20444W        W88838  33.169  29.369  11.394
20445W        W88839  33.331  38.102   4.231
20446W        W88840  39.914  24.607  12.946
20447W        W88841  17.808  11.844   4.486
20448W        W88842  38.332   7.749   2.325
20449W        W88843   8.780  32.187  12.676
20450W        W88844  10.215   8.419   3.567
20451W        W88845  23.561   8.795  14.267
20452W        W88846   6.738  31.460   0.279
20453W        W88847   0.257  13.218   2.280
20454W        W88848  21.096  40.994  11.114
20455W        W88849  41.891  14.075  10.109
20456W        W88850  31.374  34.915   1.804
20457W        W88851  15.266  13.625   2.377
20458W        W88852  24.669  14.152   3.837
20459W        W88853  32.994   6.480   3.038
20460W        W88854  38.617  38.740  13.885
20461W        W88855   3.371  33.139   1.733
20462W        W88856  33.040   9.373   1.824
20463W        W88857   7.090  10.231  12.928
20464W        W88858  10.849  20.017   3.676
20465W        W88859   9.428   7.865   5.038
20466W        W88860  28.156  19.676   3.705
20467W        W88861   8.757   2.310  13.890
20468W        W88862  14.689  26.957  14.968
20469W        W88863  18.307  16.513   0.460
20470W        W88864  37.476  43.173   2.287
20471W        W88865  11.324   3.870  13.852
20472W        W88866   7.675  25.184  11.534
20473W        W88867  11.241  10.392  10.855
20474W        W88868   0.281  15.556  14.506
20475W        W88869  25.650   8.965  11.244
20476W        W88870  41.382  26.930   4.615
20477W        W88871  21.902  17.481   2.568
20478W        W88872  37.386  39.990   4.472
20479W        W88873  32.891  19.690   4.355
20480W        W88874  18.211  30.988  11.110
20481W        W88875   6.636  36.923   2.289
20482W        W88876  28.951  26.664   2.310
20483W        W88877  40.276   3.442  14.327
20484W        W88878  18.050  15.369  10.213
20485W        W88879  36.355  17.803  10.764
20486W        W88880   6.711  13.495   4.049
20487W        W88881   1.550  32.579   1.300
20488W        W88882  19.207  21.148  11.882
20489W        W88883  12.125   7.893   4.564
20490W        W88884  42.669  31.232  13.457
20491W        W88885   5.476  39.021   1.182
20492W        W88886  31.447  20.787   3.259
20493W        W88887  11.673  25.607   4.406
20494W        W88888   8.632  30.737   1.345
20495W        W88889   6.469  42.999  14.356
20496W        W88890   3.206  13.182  14.400
20497W        W88891  18.047  23.136   2.679
20498W        W88892   1.200  34.888   3.667
20499W        W88893  39.211  14.115  12.639
20500W        W88894  40.201  34.097  11.536
20501W        W88895  38.364  26.960  11.296
20502W        W88896   8.575  15.576  14.855
20503W        W88897  25.290  41.107  10.799
20504W        W88898  25.973  12.446   0.780
20505W        W88899  25.105  29.617  13.967
20506W        W88900   9.432  17.475  11.153
20507W        W88901   5.729   7.646   0.280
20508W        W88902  30.357  25.228  13.886
20509W        W88903  22.116  12.824  12.498
20510W        W88904  22.234  35.014  10.915
20511W        W88905  32.085  14.133  12.904
20512W        W88906  41.319   0.067  13.944
20513W        W88907  15.031   1.631  11.677
20514W        W88908   9.262  23.528   4.609
20515W        W88909   0.182  26.649   3.709
20516W        W88910  35.856   6.789  11.960
20517W        W88911  39.710  20.120   0.027
20518W        W88912  42.976   9.392  10.383
20519W        W88913  36.573   8.964  14.924
20520W        W88914  36.624  40.534   0.413
20521W        W88915  29.567  38.468   1.633
20522W        W88916  31.389  18.846  11.559
20523W        W88917  26.706  11.214  12.043
20524W        W88918  38.363   3.503  12.888
20525W        W88919   4.818  35.731  14.448
20526W        W88920   9.006  15.260  13.504
20527W        W88921   3.039  22.954  11.652
20528W        W88922  29.475  38.006   1.890
20529W        W88923  34.901  11.006  12.706
20530W        W88924  32.026  32.900  14.306
20531W        W88925  31.966   6.282  12.148
20532W        W88926   4.315   6.840   1.304
20533W        W88927  34.129   2.509   1.032
20534W        W88928   3.947  19.088  11.171
20535W        W88929  15.214   0.402  11.195
20536W        W88930  41.960  39.964   2.926
20537W        W88931  14.184  39.706  13.349
20538W        W88932  24.088  10.318  12.167
20539W        W88933  11.716  17.986  11.596
20540W        W88934  40.992  20.578  14.948
20541W        W88935  19.088  35.921   5.431
20542W        W88936  32.696   7.559   1.655
20543W        W88937  26.035  40.948   4.687
20544W        W88938  10.372  10.247  10.640
20545W        W88939   8.699   5.478  13.546
20546W        W88940  42.740  20.778   2.644
20547W        W88941  33.556  28.729  14.661
20548W        W88942  29.233  15.346   0.884
20549W        W88943  24.477   7.082  11.089
20550W        W88944   0.193   6.365   2.786
20551W        W88945  26.523  15.520   0.838
20552W        W88946  36.849   2.971   4.687
20553W        W88947  24.684  44.842   4.674
20554W        W88948  24.743  30.851   4.369
20555W        W88949  40.935  27.369  11.139
20556W        W88950   2.273  16.135  12.477
20557W        W88951  29.011  19.153  10.881
20558W        W88952  37.566  41.295   4.562
20559W        W88953  20.215  23.808   0.706
20560W        W88954   5.327   2.390  12.067
20561W        W88955  31.864  23.233   1.815
20562W        W88956  27.946  24.625  13.948
20563W        W88957  26.600  28.355  11.498
20564W        W88958  20.624  29.482  12.040
20565W        W88959  30.566  40.054  11.263
20566W        W88960  24.633   5.784   1.032
20567W        W88961   0.468   2.008   0.752
20568W        W88962   3.907  34.143   0.293
20569W        W88963   4.359   3.191  14.879
20570W        W88964  35.036   5.092  10.655
20571W        W88965  21.976  23.020   1.370
20572W        W88966  20.487  19.865  14.466
20573W        W88967  42.294  19.598   2.820
20574W        W88968  36.879   5.849  12.914
20575W        W88969  34.676  25.985   3.244
20576W        W88970  44.503  18.231   0.021
20577W        W88971  10.976  42.428   0.242
20578W        W88972  23.227  19.113   2.433
20579W        W88973  38.857  25.385   1.461
20580W        W88974  35.123   6.966  11.229
20581W        W88975  15.246  40.100  12.958
20582W        W88976  15.808  21.718   2.838
20583W        W88977  43.608   4.518  12.065
20584W        W88978  16.610   9.818   0.857
20585W        W88979  39.756   0.395   3.402
20586W        W88980  23.750   7.330   3.439
20587W        W88981   6.219   4.455   1.910
20588W        W88982  32.532  30.733   2.227
20589W        W88983  40.740   9.323  12.476
20590W        W88984  10.755  10.234   0.890
20591W        W88985   0.329  41.388  11.647
20592W        W88986   4.450  11.873   4.175
20593W        W88987  18.309  27.168   1.443
20594W        W88988  21.297  14.171  13.041
20595W        W88989   5.687   1.934   2.951
20596W        W88990  35.470  13.610   3.187
20597W        W88991  33.179  35.613  13.597
20598W        W88992  31.859  39.253   3.254
20599W        W88993   6.883  25.488   4.115
20600W        W88994  23.808  28.780   3.555
20601W        W88995   4.198   8.495  10.902
20602W        W88996  18.603  34.055  14.380
20603W        W88997  39.529  31.962  11.972
20604W        W88998  28.175  31.060   3.399
20605W        W88999  31.042  24.541   4.750
20606W        W89000  40.355  12.243  10.533
20607W        W89001  23.815  21.173   1.684
20608W        W89002  29.629  31.028   4.080
20609W        W89003   5.728  17.589   2.808
20610W        W89004  14.247  21.709  10.657
20611W        W89005  21.152  26.673   0.781
20612W        W89006   4.813  37.472  13.350
20613W        W89007   3.922  29.283  10.438
20614W        W89008   6.834   8.223  13.773
20615W        W89009  44.470  16.561  14.387
20616W        W89010  29.533  28.400   1.638
20617W        W89011  39.381  39.812   0.766
20618W        W89012  42.960  36.934  13.786
20619W        W89013  11.652  39.084   4.667
20620W        W89014  29.083  25.375  14.162
20621W        W89015  28.651  43.349   4.109
20622W        W89016  43.243  28.255   0.676
20623W        W89017  38.388  21.118   2.187
20624W        W89018  42.827  18.878  11.647
20625W        W89019  21.300   3.933   1.775
20626W        W89020  21.883  24.090   0.348
20627W        W89021   7.527   2.018   0.336
20628W        W89022  14.311  11.191   3.187
20629W        W89023   9.143  27.293   0.006
20630W        W89024  38.237   0.268  10.602
20631W        W89025  32.876  22.093  12.597
20632W        W89026  15.491  17.810   4.624
20633W        W89027  23.610  13.153  12.992
20634W        W89028  16.762  43.758   1.440
20635W        W89029  23.431  38.509  14.311
20636W        W89030   2.732   1.574   0.719
20637W        W89031   3.097  21.049  13.507
20638W        W89032  36.370  11.175   2.719
20639W        W89033  14.970   7.630  11.612
20640W        W89034  44.826  38.921   3.419
20641W        W89035   5.367  18.369   3.147
20642W        W89036  22.505  13.656  10.623
20643W        W89037   8.620  16.187  12.105
20644W        W89038  25.699  20.820   2.385
20645W        W89039  39.658   3.371  11.403
20646W        W89040   0.450  26.916  11.607
20647W        W89041  35.426  24.640   3.267
20648W        W89042   3.616  24.865  13.112
20649W        W89043  35.890  38.871   1.815
20650W        W89044  10.956  15.672  11.009
20651W        W89045   7.842  38.343   2.810
20652W        W89046  27.394  28.162   1.380
20653W        W89047  19.271  11.646   0.408
20654W        W89048  20.059  24.769   5.000
20655W        W89049  18.623   9.037   4.259
20656W        W89050   9.767  25.193  13.849
20657W        W89051  14.599   8.318  12.315
20658W        W89052   6.345  14.045   9.921
20659W        W89053  26.439  40.388  14.478
20660W        W89054  21.937  36.963  14.937
20661W        W89055  37.876   4.429  12.245
20662W        W89056  24.091  13.386  13.002
20663W        W89057  41.035  42.878  11.163
20664W        W89058  29.430  36.742   2.424
20665W        W89059  37.562  20.423  13.913
20666W        W89060  33.064   9.275   0.343
20667W        W89061  23.073  20.694  12.507
20668W        W89062  22.215  44.919   1.704
20669W        W89063  30.599  43.373  13.913
20670W        W89064  21.173  34.413  14.571
20671W        W89065   5.455  21.489   0.870
20672W        W89066  34.362  32.673  14.800
20673W        W89067  14.573  16.075   0.295
20674W        W89068  44.390  41.243   2.938
20675W        W89069  31.871  38.838  12.667
20676W        W89070  17.243  28.095   1.839
20677W        W89071   9.061  30.742   4.583
20678W        W89072  19.128  13.401  11.577
20679W        W89073  11.394  20.636   3.842
20680W        W89074  32.734   3.821  11.542
20681W        W89075  25.062  43.517   3.697
20682W        W89076  23.634   3.509   4.062
20683W        W89077   8.531  28.985   2.308
20684W        W89078  34.679  30.457   5.041
20685W        W89079  40.833  17.669  13.346
20686W        W89080   7.283  30.659   2.609
20687W        W89081  15.661   0.766  13.727
20688W        W89082  19.692  22.247  14.288
20689W        W89083   0.836   7.721   1.950
20690W        W89084  17.850  36.892   2.229
20691W        W89085  30.588  35.009  12.769
20692W        W89086   0.337  34.113   0.324
20693W        W89087   3.517  10.265   0.234
20694W        W89088  14.781  25.118  12.829
20695W        W89089  40.466  13.587  11.206
20696W        W89090  22.771  38.922   2.562
20697W        W89091  19.742  16.694  14.024
20698W        W89092   0.048  25.572  12.504
20699W        W89093  35.850   9.313  11.121
20700W        W89094  14.786   8.732  12.555
20701W        W89095  24.532  28.460   2.406
20702W        W89096   2.837  24.643  12.563
20703W        W89097  17.932   6.270   5.432
20704W        W89098  38.364  33.039   2.396
20705W        W89099   8.951   8.997  14.354
20706W        W89100  40.314  17.721  13.320
20707W        W89101  28.427   9.636   4.428
20708W        W89102  15.969  17.300   2.737
20709W        W89103   8.231  25.273   0.743
20710W        W89104   0.238  40.988  12.966
20711W        W89105  37.602  20.079  10.737
20712W        W89106  38.299  12.595  13.886
20713W        W89107  21.742   2.781   1.728
20714W        W89108  23.024  13.220  12.453
20715W        W89109  21.116  16.603  14.219
20716W        W89110   7.209   9.252  13.385
20717W        W89111  26.956   2.715   0.255
20718W        W89112  35.512  23.837   2.622
20719W        W89113  40.896  18.019  10.579
20720W        W89114  12.554  28.643   1.183
20721W        W89115  35.285  43.294   2.783
20722W        W89116  23.268  21.182  11.097
20723W        W89117  43.936  21.991   3.182
20724W        W89118  10.855  37.015  12.353
20725W        W89119  44.017  37.651  11.533
20726W        W89120  22.437  41.160   2.228
20727W        W89121  43.836  19.292   4.879
20728W        W89122  40.638  24.029   4.642
20729W        W89123  19.825  41.993   0.112
20730W        W89124  19.210  32.622   1.160
20731W        W89125  40.867  21.210   0.703
20732W        W89126  24.512  24.669  11.181
20733W        W89127  13.158   3.144  13.616
20734W        W89128   2.039  20.096  11.050
20735W        W89129  37.151  26.599  13.618
20736W        W89130  33.486  28.020   1.832
20737W        W89131  34.850  29.726  12.520
20738W        W89132  23.732  20.112   3.403
20739W        W89133   0.058   9.953  12.427
20740W        W89134  34.437  44.897  11.626
20741W        W89135  30.544  15.801  13.036
20742W        W89136  30.154   7.668  11.568
20743W        W89137   3.748  14.119  14.321
20744W        W89138   5.234  32.660  12.396
20745W        W89139   2.373   5.679  11.493
20746W        W89140  31.393  11.253  14.970
20747W        W89141  14.594   7.342  10.929
20748W        W89142  35.857   9.692   0.252
20749W        W89143  25.049   7.910   2.206
20750W        W89144   0.528  42.747  14.042
20751W        W89145   8.700   7.784   1.896
20752W        W89146  31.933   6.795   0.399
20753W        W89147  40.403  27.555   2.733
20754W        W89148  34.077   0.338   4.261
20755W        W89149  22.456  33.456  10.272
20756W        W89150  11.244  29.991   1.836
20757W        W89151  23.067   6.156   0.260
20758W        W89152  38.825   2.650  14.343
20759W        W89153  25.489  12.471   2.006
20760W        W89154   8.729  22.762   1.766
20761W        W89155  41.036  35.097   0.376
20762W        W89156  15.436  30.434  12.069
20763W        W89157  14.573  13.281  14.319
20764W        W89158  34.507   4.345  14.913
20765W        W89159  17.303  34.945   0.481
20766W        W89160  21.662  38.022   4.703
20767W        W89161  21.477  20.936  13.385
20768W        W89162   5.979  34.634  13.874
20769W        W89163  32.026  29.438   4.503
20770W        W89164  20.346   9.631  14.660
20771W        W89165  27.870  21.550  13.625
20772W        W89166   2.181  14.074   3.291
20773W        W89167   8.358  37.233   1.018
20774W        W89168  33.104  16.742  10.711
20775W        W89169  21.238  42.997  10.743
20776W        W89170  19.568  32.957  10.632
20777W        W89171  36.414  43.956   2.808
20778W        W89172  23.217  34.691  11.476
20779W        W89173  20.804  30.002  13.054
20780W        W89174   9.769  31.277   4.125
20781W        W89175  24.697  18.616   5.015
20782W        W89176  12.908  23.686   1.465
20783W        W89177  31.364  40.410  12.989
20784W        W89178  34.005  32.590  12.287
20785W        W89179   5.694  30.908   0.043
20786W        W89180   4.294   4.511   1.225
20787W        W89181   8.216  24.105  14.339
20788W        W89182  35.508  37.111   3.649
20789W        W89183  44.708  37.936  11.430
20790W        W89184   3.808   4.678   1.367
20791W        W89185  25.052  34.824   4.587
20792W        W89186  13.172   9.235  11.021
20793W        W89187  16.941  34.632  11.192
20794W        W89188  37.268   6.580   0.270
20795W        W89189  31.960  21.197  13.425
20796W        W89190   3.686  24.206   4.850
20797W        W89191  20.565  17.262  12.503
20798W        W89192   3.857  25.119   9.928
20799W        W89193  19.181  42.786  14.911
20800W        W89194  24.594  28.595   1.118
20801W        W89195  27.636  44.520  14.507
20802W        W89196  39.915  27.650  12.024
20803W        W89197   6.375  30.924   0.694
20804W        W89198  31.309  18.809  14.285
20805W        W89199  42.539  12.325   0.461
20806W        W89200   9.400  11.228   4.520
20807W        W89201  14.579  42.469  13.017
20808W        W89202   1.950  19.105   0.850
20809W        W89203  37.908  10.429   0.186
20810W        W89204  28.744   3.215  12.762
20811W        W89205  11.092  25.199  13.534
20812W        W89206  43.944  36.353  13.832
20813W        W89207   9.250  21.978  11.035
20814W        W89208  15.186   2.233   2.770
20815W        W89209  18.081  11.422   4.570
20816W        W89210  29.594  28.657  13.793
20817W        W89211   2.011  24.801   3.245
20818W        W89212   2.540  21.312  14.950
20819W        W89213   5.244  34.123  11.662
20820W        W89214   6.984  24.440   1.642
20821W        W89215  18.332   8.272   2.113
20822W        W89216   1.348  11.643  12.027
20823W        W89217  12.860  42.979   0.807
20824W        W89218  21.754  31.446   1.034
20825W        W89219  28.204   5.652   9.993
20826W        W89220  22.826  10.872   1.090
20827W        W89221   6.795   9.845   1.694
20828W        W89222  38.618  21.245  11.139
20829W        W89223  16.612   5.223   4.572
20830W        W89224  41.136   2.340  14.460
20831W        W89225  11.073  23.029  14.774
20832W        W89226  39.657  22.877   2.834
20833W        W89227  36.597  37.403  11.991
20834W        W89228  26.907  11.149   2.672
20835W        W89229  32.966  37.161  13.981
20836W        W89230   7.843  30.571   3.319
20837W        W89231  10.688  25.387   0.758
20838W        W89232  41.323  34.622   0.355
20839W        W89233  36.103   7.365  14.704
20840W        W89234   8.797   2.270   0.498
20841W        W89235  18.079   7.761  12.558
20842W        W89236  37.710  36.435   5.253
20843W        W89237  21.039  33.395   1.773
20844W        W89238  43.232  39.844  11.029
20845W        W89239  12.492  43.841  11.428
20846W        W89240   8.435   2.436   1.933
20847W        W89241  19.497  30.955  13.915
20848W        W89242  26.275  42.494   5.410
20849W        W89243  44.555  32.006   2.258
20850W        W89244  24.031  22.845   0.349
20851W        W89245  37.790  31.006  13.868
20852W        W89246  26.643  28.021   4.574
20853W        W89247   0.354  42.372  12.928
20854W        W89248  14.307   9.286   2.162
20855W        W89249  22.213  13.998  11.513
20856W        W89250   0.310  13.040  14.393
20857W        W89251  22.712   4.161  12.402
20858W        W89252  23.015  36.152  12.646
20859W        W89253  41.261  19.946   4.509
20860W        W89254   9.213  42.654   0.068
20861W        W89255   0.754   6.293  10.108
20862W        W89256  25.255  14.384  13.902
20863W        W89257  12.716  24.099   1.226
20864W        W89258   1.576  16.225   3.742
20865W        W89259  30.922  26.161   0.838
20866W        W89260  22.716  11.379   1.777
20867W        W89261   7.844  31.072  10.967
20868W        W89262  38.543   6.834  11.159
20869W        W89263   1.438   6.974  12.450
20870W        W89264  10.239  39.557   3.902
20871W        W89265  19.476  10.849   2.241
20872W        W89266  13.718   3.497  10.418
20873W        W89267  37.831  13.689   0.793
20874W        W89268  27.125  28.112  10.256
20875W        W89269  16.561  10.290   3.546
20876W        W89270  19.366  16.383  12.428
20877W        W89271   5.434  32.551   3.570
20878W        W89272  42.751  20.240  11.726
20879W        W89273  20.913  12.876   3.568
20880W        W89274  40.149  36.855   5.542
20881W        W89275  14.770  22.186  13.975
20882W        W89276  15.355  24.441   1.692
20883W        W89277  29.197   1.740   2.371
20884W        W89278  26.343  28.116   2.034
20885W        W89279   9.727  16.369   4.344
20886W        W89280  43.252  37.110  11.302
20887W        W89281   7.088  16.051   2.273
20888W        W89282   9.363  44.479  12.568
20889W        W89283  15.508  10.311  10.251
20890W        W89284  35.555  37.073  10.758
20891W        W89285   4.716  40.413  10.685
20892W        W89286  10.257  18.612  14.994
20893W        W89287   1.759  42.529   0.396
20894W        W89288  19.656  35.301  13.587
20895W        W89289   8.394   4.383   2.782
20896W        W89290   7.234   6.627   2.444
20897W        W89291  34.673   2.004  11.695
20898W        W89292  26.527  30.728  12.167
20899W        W89293  28.752  13.825  11.726
20900W        W89294  34.011  19.158  14.534
20901W        W89295   1.976  41.703  12.983
20902W        W89296  25.547  34.638   4.390
20903W        W89297  15.501  25.441   4.657
20904W        W89298  29.404  43.899   1.259
20905W        W89299  19.043  35.836   3.284
20906W        W89300  26.021  18.617  14.283
20907W        W89301   3.242   4.306  13.195
20908W        W89302   9.469  14.729   2.963
20909W        W89303  18.183   6.909  13.610
20910W        W89304   8.468  34.918   3.358
20911W        W89305   9.276  41.099   2.748
20912W        W89306  15.747   8.242  12.932
20913W        W89307  28.160   2.475   0.482
20914W        W89308  11.448   4.535  11.228
20915W        W89309   7.127  33.535   0.313
20916W        W89310  43.140  36.449  13.735
20917W        W89311   0.431  21.586   3.198
20918W        W89312  42.556  14.798   4.669
20919W        W89313  25.062  21.185   2.639
20920W        W89314  19.777  14.839  13.343
20921W        W89315   0.986  24.449   3.048
20922W        W89316  43.968   5.455   4.620
20923W        W89317  16.698  35.519   4.627
20924W        W89318  19.831  15.655  12.103
20925W        W89319  31.418  16.443   0.508
20926W        W89320  39.505   0.534  12.804
20927W        W89321  39.452  10.672  13.896
20928W        W89322  38.976  30.527  12.964
20929W        W89323  29.869   6.598  13.061
20930W        W89324  42.932  12.973   3.130
20931W        W89325  13.502   5.736   1.648
20932W        W89326  12.217  15.781   1.413
20933W        W89327  32.345  18.273   2.181
20934W        W89328   6.975  19.120  10.827
20935W        W89329  12.675  35.362  14.424
20936W        W89330  40.550  16.127  10.597
20937W        W89331   2.337  15.306   3.921
20938W        W89332  18.280  26.556  12.866
20939W        W89333  14.612   2.787   4.579
20940W        W89334  12.698  22.616   1.499
20941W        W89335  40.325  36.024  11.144
20942W        W89336  32.445  37.070  11.126
20943W        W89337   8.581  23.835  10.762
20944W        W89338  43.949  41.386  11.643
20945W        W89339  14.639  26.589   2.891
20946W        W89340   1.223  33.812   2.344
20947W        W89341  32.181  14.101   0.948
20948W        W89342  28.664  20.182  13.819
20949W        W89343   9.667  18.689   4.725
20950W        W89344  34.982  17.573  14.327
20951W        W89345  12.356  28.972  14.461
20952W        W89346  43.797  42.094  14.340
20953W        W89347  38.585  39.959  13.473
20954W        W89348  18.271  17.792   0.324
20955W        W89349  16.958   1.937   2.450
20956W        W89350  40.426  36.177  12.956
20957W        W89351  25.299   1.858   1.250
20958W        W89352  31.159  33.554  14.342
20959W        W89353  36.073  18.097   1.903
20960W        W89354  22.289  20.227   1.352
20961W        W89355   8.753  38.039  10.719
20962W        W89356  23.094   1.843  10.687
20963W        W89357  39.687  14.570  13.763
20964W        W89358   9.232  26.893  13.041
20965W        W89359  25.635  26.589  13.051
20966W        W89360  28.165  10.641  12.688
20967W        W89361   4.124  13.174   3.635
20968W        W89362   1.971  26.695   4.647
20969W        W89363   3.352  12.552  11.553
20970W        W89364  34.504  14.647   4.694
20971W        W89365   7.928  38.138   0.422
20972W        W89366  24.981   8.850   1.923
20973W        W89367  24.433  23.975   2.723
20974W        W89368  39.321  20.710  13.036
20975W        W89369   0.460  33.416  12.859
20976W        W89370  41.592   3.296   0.664
20977W        W89371  43.472  21.662   0.711
20978W        W89372  37.435  39.492   3.873
20979W        W89373   9.714  39.514   3.236
20980W        W89374  27.128  41.831  14.051
20981W        W89375  30.970   0.077  11.958
20982W        W89376  36.889   1.980  12.695
20983W        W89377   2.459  42.577   0.785
20984W        W89378   3.903  29.148   0.418
20985W        W89379  21.293  33.377   1.269
20986W        W89380   8.741   4.877  12.194
20987W        W89381   4.075   2.319   0.115
20988W        W89382  32.024  35.348   4.714
20989W        W89383  24.213  25.016   0.444
20990W        W89384  16.472   6.863  12.112
20991W        W89385  25.293   3.263   2.662
20992W        W89386   9.852  44.441   4.827
20993W        W89387   2.700   8.431  11.528
20994W        W89388  25.077  44.356  13.084
20995W        W89389  40.453  43.685   4.343
20996W        W89390  38.315  40.893   3.612
20997W        W89391  21.705  10.736   1.331
20998W        W89392  10.343   9.083   2.283
20999W        W89393   8.845  19.624   1.907
21000W        W89394  16.616  22.737  13.003
21001W        W89395  20.688  16.141  12.662
21002W        W89396  34.974  10.322   1.458
21003W        W89397  23.722  43.865  12.149
21004W        W89398  29.003  44.395  14.102
21005W        W89399  34.438  12.762   0.991
21006W        W89400  27.167  21.029  11.945
21007W        W89401  37.978  44.217   4.164
21008W        W89402   7.903  28.164  11.524
21009W        W89403  37.619  15.698  11.580
21010W        W89404   9.221   0.547   4.177
21011W        W89405  35.610  35.347  12.575
21012W        W89406  36.820  40.958  12.865
21013W        W89407   1.603  27.235   2.855
21014W        W89408   9.094  14.220   2.658
21015W        W89409  16.661  34.397   0.969
21016W        W89410  42.244  42.062  14.714
21017W        W89411  20.165   7.745   0.776
21018W        W89412   9.585   4.891   0.204
21019W        W89413   1.432  36.657   3.194
21020W        W89414  41.535  20.322   3.325
21021W        W89415   4.841  32.343  12.622
21022W        W89416  31.928  35.102   3.409
21023W        W89417   4.409   5.718  13.057
21024W        W89418   4.297  16.664  13.135
21025W        W89419  10.114  36.427  14.377
21026W        W89420  34.586   1.161   4.079
21027W        W89421  34.088  22.204  14.786
21028W        W89422  21.897   1.755  13.709
21029W        W89423  35.254   1.685  10.445
21030W        W89424  18.636   9.433   3.885
21031W        W89425  24.104   3.388  14.437
21032W        W89426   8.748  34.341   0.309
21033W        W89427  42.992  21.165   2.862
21034W        W89428  32.893  34.067  13.416
21035W        W89429  26.484   8.745  11.957
21036W        W89430  14.242  26.084  12.864
21037W        W89431  22.882  41.290  12.932
21038W        W89432  28.118  12.773   2.189
21039W        W89433  36.078   1.426  11.584
21040W        W89434   3.276   4.452   3.672
21041W        W89435   3.456  29.697  12.543
21042W        W89436   7.348   3.540   2.796
21043W        W89437  34.440  18.127  13.693
21044W        W89438  19.262  11.355   3.717
21045W        W89439  43.409   1.732   5.282
21046W        W89440  20.241   9.712  13.315
21047W        W89441   6.951  34.539   4.455
21048W        W89442  37.327  39.939  12.905
21049W        W89443  25.183   3.702  10.760
21050W        W89444  13.689  40.898   0.859
21051W        W89445  32.454  16.115  11.479
21052W        W89446   3.747   8.802  13.766
21053W        W89447  18.237  33.100   2.335
21054W        W89448   8.729  14.254   1.431
21055W        W89449  32.628  17.124   4.755
21056W        W89450  25.942  15.064  14.995
21057W        W89451  20.969  32.161   3.195
21058W        W89452  16.708  18.415  10.652
21059W        W89453  18.994  37.835   4.160
21060W        W89454   5.725  15.413  14.446
21061W        W89455  11.644  20.744  12.143
21062W        W89456  11.357  20.131  11.607
21063W        W89457  16.661  27.912  10.649
21064W        W89458  14.707   6.427  14.936
21065W        W89459   9.679  37.267  10.753
21066W        W89460   9.730  28.092  10.725
21067W        W89461  11.725  19.306  14.987
21068W        W89462  27.895  28.956  13.347
21069W        W89463  40.495  26.426   1.202
21070W        W89464  40.550  42.592   1.408
21071W        W89465  23.813  21.520   2.653
21072W        W89466  14.649   8.019  11.507
21073W        W89467  20.696  31.444  14.886
21074W        W89468  13.148  21.495   1.811
21075W        W89469  19.618  33.697   2.295
21076W        W89470  27.778  16.059  12.188
21077W        W89471  26.068  24.783   2.710
21078W        W89472   2.034  25.995   0.250
21079W        W89473  33.337  40.286   1.652
21080W        W89474  29.620  15.562  13.354
21081W        W89475  43.391  30.732   1.015
21082W        W89476  15.932   3.852  12.040
21083W        W89477  29.889  18.934   4.117
21084W        W89478  44.157  43.458  11.071
21085W        W89479  14.646  34.792  14.916
21086W        W89480  32.990  42.928   2.363
21087W        W89481  33.505  23.476   3.135
21088W        W89482   8.937  26.626   2.312
21089W        W89483  27.952  10.674  11.382
21090W        W89484   0.434   7.754   1.367
21091W        W89485   9.284  35.346  14.783
21092W        W89486  30.470  12.339   0.906
21093W        W89487   1.898  11.941  14.867
21094W        W89488  17.250  14.600   4.683
21095W        W89489  39.637  12.108  12.128
21096W        W89490  33.154   0.480  12.169
21097W        W89491   0.711   9.600   2.865
21098W        W89492  35.800  41.497   4.233
21099W        W89493  24.721  26.985  13.018
21100W        W89494  31.163  30.127  12.661
21101W        W89495  32.385  29.597   0.432
21102W        W89496   7.218   4.771  12.391
21103W        W89497  36.528  39.879  12.441
21104W        W89498  36.071  26.018  12.913
21105W        W89499  44.772  25.026  13.110
21106W        W89500  41.480  13.127  14.634
21107W        W89501  15.162   8.280   5.372
21108W        W89502   4.270  30.716  14.822
21109W        W89503  31.025  29.463   0.419
21110W        W89504  14.714  37.481  12.452
21111W        W89505  17.661   0.524  14.459
21112W        W89506  38.020  40.361   1.836
21113W        W89507  33.385  44.751   0.948
21114W        W89508  41.768  42.692  12.126
21115W        W89509  29.113   6.487   0.356
21116W        W89510  17.946  11.253   1.287
21117W        W89511  14.752  21.042  14.932
21118W        W89512  11.617  11.087  14.308
21119W        W89513  11.039  38.827   3.903
21120W        W89514  25.038  26.286   1.407
21121W        W89515  23.894   9.401   0.508
21122W        W89516  34.846  17.174  12.138
21123W        W89517  19.884   5.199  14.888
21124W        W89518  12.773  30.604   1.524
21125W        W89519  31.134  20.324  14.771
21126W        W89520  13.868  22.734   3.659
21127W        W89521  23.791  26.593   1.831
21128W        W89522  11.320   1.685  11.252
21129W        W89523  11.324  12.317   0.403
21130W        W89524   8.811  39.480   2.777
21131W        W89525  16.563  17.964   1.820
21132W        W89526  26.738  39.979  14.466
21133W        W89527  26.110  10.352  12.095
21134W        W89528  11.895  27.928   0.299
21135W        W89529  36.500  41.862  12.569
21136W        W89530  23.065  23.026   4.303
21137W        W89531   4.978  29.903   4.463
21138W        W89532  21.097  15.847   3.502
21139W        W89533  15.341   6.813   9.947
21140W        W89534  33.150  32.807  14.031
21141W        W89535  18.781   4.369  13.905
21142W        W89536  36.168  44.698   1.455
21143W        W89537  26.160   8.651   3.652
21144W        W89538  11.152   8.136   0.017
21145W        W89539  32.415  29.595   1.446
21146W        W89540   7.466  41.543  14.343
21147W        W89541   5.926  10.272   4.347
21148W        W89542  17.850  35.902   4.609
21149W        W89543  27.701   9.637  12.456
21150W        W89544  36.346  38.607   4.832
21151W        W89545  21.242  27.144  14.845
21152W        W89546  37.387  24.154   2.739
21153W        W89547  36.088  19.786   2.921
21154W        W89548  20.135  44.797   2.296
21155W        W89549  11.185  32.874   2.886
21156W        W89550  41.173   7.936  12.703
21157W        W89551  44.856  40.318   1.359
21158W        W89552   9.112  32.707  10.594
21159W        W89553   7.431  18.175   3.306
21160W        W89554  14.901  42.157   0.519
21161W        W89555  34.080   5.379   4.639
21162W        W89556  37.330   7.270   3.898
21163W        W89557  21.756  38.307   1.287
21164W        W89558  27.020  10.904   0.825
21165W        W89559  18.210   0.280   2.903
21166W        W89560   8.767  40.468   0.041
21167W        W89561  28.683  21.273  11.969
21168W        W89562  30.299  24.267   4.687
21169W        W89563  14.811  41.904  11.111
21170W        W89564  21.717  17.943   3.469
21171W        W89565  18.274  19.967  10.779
21172W        W89566  11.586  21.277   1.499
21173W        W89567  20.425  26.505  14.503
21174W        W89568   9.432  31.086   2.851
21175W        W89569   5.394  15.158   2.697
21176W        W89570  44.185  34.916  13.845
21177W        W89571  36.512  23.990   4.260
21178W        W89572  40.672   9.154  10.446
21179W        W89573  21.226  12.650   1.676
21180W        W89574  19.662  35.421   3.135
21181W        W89575   5.293  30.592  12.386
21182W        W89576  35.095  28.395   2.313
21183W        W89577  33.262  25.408  14.590
21184W        W89578  20.117  27.915  14.841
21185W        W89579  21.622  39.567  11.977
21186W        W89580  36.595  15.754  11.492
21187W        W89581  19.788  10.637   3.306
21188W        W89582  42.616  40.550   1.036
21189W        W89583  40.408  38.394   1.411
21190W        W89584   1.991   5.797  12.990
21191W        W89585   7.264  14.988  13.103
21192W        W89586  44.327  17.627   3.921
21193W        W89587  13.875  21.041  13.446
21194W        W89588  18.544   3.796  11.027
21195W        W89589   1.142  35.963   1.320
21196W        W89590   5.968   3.734  12.846
21197W        W89591  17.607  13.116  11.069
21198W        W89592  26.617  15.615   2.627
21199W        W89593  26.129  33.331   0.227
21200W        W89594   4.529   5.165  14.860
21201W        W89595  21.629   1.366  14.968
21202W        W89596   6.716  29.905  11.426
21203W        W89597   8.971   0.463  12.374
21204W        W89598   2.932  31.055   0.060
21205W        W89599  15.296   5.710  12.486
21206W        W89600  32.403  36.455   1.837
21207W        W89601  26.280  14.182   4.531
21208W        W89602  27.881  35.551  11.962
21209W        W89603  33.406  41.543  10.790
21210W        W89604  37.435   2.386   2.112
21211W        W89605  43.944   2.684   3.117
21212W        W89606  43.343  43.682  12.430
21213W        W89607  19.706  25.937   2.842
21214W        W89608  30.859   8.703   3.375
21215W        W89609  29.731  31.885   4.586
21216W        W89610  29.798   9.468   1.688
21217W        W89611  18.109  39.015   3.889
21218W        W89612   5.616   9.036   5.019
21219W        W89613  29.299   3.858   1.982
21220W        W89614  22.818  14.645  14.894
21221W        W89615   5.658  17.150   0.371
21222W        W89616  26.605  40.552  10.682
21223W        W89617  42.206  25.194  14.321
21224W        W89618   3.307  30.171   0.760
21225W        W89619  34.029  27.023   1.427
21226W        W89620   6.287  17.942   0.403
21227W        W89621  10.632   3.214  13.477
21228W        W89622  33.883   8.233  14.857
21229W        W89623  27.033   2.322  13.957
21230W        W89624  38.439  12.907   2.271
21231W        W89625   9.423  32.892   1.190
21232W        W89626   3.144  12.680  12.398
21233W        W89627  12.532  24.479  14.281
21234W        W89628  17.700   4.305  14.780
21235W        W89629  35.109  23.211   0.936
21236W        W89630  15.621  41.716   4.220
21237W        W89631   0.116  25.136   3.325
21238W        W89632   3.691   3.793  12.090
21239W        W89633  21.719  13.135   3.634
21240W        W89634  28.918  34.864   4.180
21241W        W89635  23.029  41.043  10.782
21242W        W89636  11.302  27.500  13.732
21243W        W89637  12.295  34.483   4.072
21244W        W89638   5.832  17.659  11.385
21245W        W89639  20.015  30.680  11.558
21246W        W89640  12.744  40.290   3.325
21247W        W89641  13.267  19.882   2.806
21248W        W89642  11.358  10.513  13.602
21249W        W89643   4.278  39.863   0.357
21250W        W89644  24.049  40.955  12.658
21251W        W89645  29.915  30.110  13.510
21252W        W89646   6.128  16.661  14.863
21253W        W89647   8.444  43.450  12.862
21254W        W89648  20.296   1.438  14.791
21255W        W89649  15.528   8.779  12.083
21256W        W89650  10.594  34.068  10.901
21257W        W89651  33.649  29.372  12.156
21258W        W89652  18.803  37.952  13.992
21259W        W89653  29.947   1.311   2.821
21260W        W89654  41.439  40.486   2.209
21261W        W89655   0.580  32.337   4.573
21262W        W89656  13.891  21.071   4.328
21263W        W89657   9.724  34.968  11.991
21264W        W89658   5.633   3.158   3.798
21265W        W89659  28.316   9.370   2.369
21266W        W89660  35.516  30.056   3.162
21267W        W89661  22.137  18.024  12.523
21268W        W89662  22.609   1.981   4.208
21269W        W89663   8.976  25.259  10.989
21270W        W89664  35.770  27.154   0.521
21271W        W89665  39.731  32.408   0.492
21272W        W89666  31.507  43.792   4.361
21273W        W89667   3.719  24.701  12.601
21274W        W89668  14.059  22.784   4.151
21275W        W89669  11.065  16.784  14.536
21276W        W89670  39.945  10.764  14.623
21277W        W89671  40.313   9.112   3.728
21278W        W89672  21.683  23.765  11.381
21279W        W89673  38.262   0.645   1.248
21280W        W89674  31.148  28.468   4.899
21281W        W89675  16.176  14.788  13.084
21282W        W89676   4.298  43.841  14.472
21283W        W89677   0.491  29.476   3.723
21284W        W89678  21.577   2.397  14.519
21285W        W89679  16.161  21.471   0.836
21286W        W89680  12.248  12.302   3.701
21287W        W89681   0.758  34.898   1.426
21288W        W89682  10.556  23.680   0.317
21289W        W89683  20.007  35.136   4.111
21290W        W89684  37.868  38.405  14.867
21291W        W89685  19.493  21.810  14.977
21292W        W89686   5.650  40.884   3.691
21293W        W89687  33.401  31.671   1.308
21294W        W89688   7.647  30.093  14.668
21295W        W89689  39.916  40.468   0.930
21296W        W89690  42.775  18.176   0.781
21297W        W89691  25.720  42.943  14.393
21298W        W89692  24.608  15.181   4.658
21299W        W89693  14.263   5.766   3.286
21300W        W89694  21.477  37.470   0.749
21301W        W89695  11.962  28.152  12.347
21302W        W89696  35.402  29.901  11.648
21303W        W89697   5.378  30.341   2.781
21304W        W89698  24.777  40.870  13.130
21305W        W89699  31.512  30.486   0.707
21306W        W89700  37.296  39.686   0.471
21307W        W89701  31.927  24.687  12.765
21308W        W89702  12.091  16.712   0.064
21309W        W89703   3.880  42.807  10.750
21310W        W89704  21.157  40.874  13.053
21311W        W89705  14.963  24.033  11.192
21312W        W89706   0.094  12.096  13.386
21313W        W89707   2.736  24.125   1.726
21314W        W89708  36.601  12.876   4.447
21315W        W89709   0.783  20.098  12.541
21316W        W89710   6.258  17.490   1.369
21317W        W89711   3.414  19.566  13.815
21318W        W89712  29.021  39.123   1.276
21319W        W89713   8.170  21.578  13.368
21320W        W89714  42.768  43.134  12.726
21321W        W89715  17.352  34.861  12.531
21322W        W89716  22.629  30.910   0.308
21323W        W89717  24.047  34.745   4.530
21324W        W89718  13.613  12.511   3.680
21325W        W89719   2.306  26.838   0.280
21326W        W89720  30.105  40.401   2.795
21327W        W89721  30.871   0.873   1.015
21328W        W89722  23.988   7.642  10.728
21329W        W89723  27.642  31.619  14.486
21330W        W89724  42.480   1.963  12.851
21331W        W89725  14.417  42.935   0.060
21332W        W89726   8.268   4.674  13.426
21333W        W89727  43.354  39.470  12.182
21334W        W89728  44.983  22.458   4.680
21335W        W89729  43.111   4.304  10.240
21336W        W89730  19.650   2.923   0.398
21337W        W89731  17.673  15.330   1.738
21338W        W89732  30.325  37.518  11.644
21339W        W89733  18.776  42.222   2.698
21340W        W89734  26.475  19.974  12.458
21341W        W89735   3.900  14.499  11.686
21342W        W89736  27.705  15.900   1.265
21343W        W89737  30.880   1.186  12.444
21344W        W89738  32.561  37.313   1.925
21345W        W89739  37.021   9.466  12.628
21346W        W89740  26.333  37.326  11.550
21347W        W89741   9.117  21.506  10.510
21348W        W89742  26.623  12.379   4.686
21349W        W89743  16.749   8.425   4.507
21350W        W89744  42.122   6.988   1.885
21351W        W89745   8.655  26.991   3.442
21352W        W89746  40.965  36.905   3.338
21353W        W89747  17.124  20.333   0.074
21354W        W89748  21.507  15.657  14.381
21355W        W89749   4.769  32.885  13.496
21356W        W89750   8.692   3.949   1.308
21357W        W89751  26.739  34.943   0.685
21358W        W89752  36.023  25.916  10.842
21359W        W89753  36.428  20.613   1.190
21360W        W89754  19.032  18.875   2.468
21361W        W89755  27.667  31.277   3.363
21362W        W89756  15.698  43.196  11.400
21363W        W89757   8.807   3.986  10.826
21364W        W89758   5.490  25.004   0.814
21365W        W89759  44.939  35.607  14.550
21366W        W89760   7.069  32.944   0.991
21367W        W89761  17.261   4.027   0.895
21368W        W89762  19.599  27.644   4.041
21369W        W89763   9.801  17.241   4.670
21370W        W89764  11.081  10.788   4.157
21371W        W89765  17.625   9.319   3.106
21372W        W89766   1.844  36.556  13.020
21373W        W89767  11.767   8.899  12.661
21374W        W89768  38.664  35.939   5.023
21375W        W89769  20.298   7.656   3.362
21376W        W89770  32.046  16.303   1.482
21377W        W89771  24.886  35.962   3.849
21378W        W89772   5.425  38.041  13.946
21379W        W89773  20.968  31.046  10.560
21380W        W89774  44.521   0.209  11.762
21381W        W89775  16.545   3.805  12.578
21382W        W89776  29.275   9.276   3.487
21383W        W89777  43.672  39.978  10.640
21384W        W89778   0.093  21.124  13.844
21385W        W89779   5.453  21.912  12.889
21386W        W89780  19.103   0.504   2.250
21387W        W89781  25.030  32.042   4.140
21388W        W89782  28.109   1.362   4.522
21389W        W89783   9.886  15.119   1.222
21390W        W89784  10.137  20.594   2.264
21391W        W89785  33.462  36.490  10.597
21392W        W89786  41.712  43.989   0.098
21393W        W89787  13.123  36.000  12.578
21394W        W89788  38.295  32.617  14.981
21395W        W89789  18.171  14.791   2.459
21396W        W89790   3.648  23.708   0.966
21397W        W89791  37.696   0.301   2.828
21398W        W89792  13.681  14.276  13.827
21399W        W89793  34.595  41.567  10.434
21400W        W89794   7.170   6.231   4.616
21401W        W89795  18.484  40.940   4.602
21402W        W89796  21.168  30.166   2.645
21403W        W89797   2.183   1.327   2.852
21404W        W89798   5.438  15.638   1.351
21405W        W89799  37.418  21.634  13.329
21406W        W89800  30.224  16.620   4.195
21407W        W89801  41.941  32.011  12.899
21408W        W89802  19.255  32.572   3.377
21409W        W89803  41.894  22.091   4.823
21410W        W89804  24.526   5.919   3.232
21411W        W89805  18.294   4.357   1.853
21412W        W89806  13.684  10.148  12.216
21413W        W89807  27.589  42.977   0.200
21414W        W89808  37.517  43.765   3.778
21415W        W89809  27.639   6.162   3.396
21416W        W89810   0.385   7.851   4.961
21417W        W89811  44.686  26.743   3.546
21418W        W89812  20.559   7.968   4.169
21419W        W89813   9.997  35.057  12.598
21420W        W89814  43.903  44.760  13.784
21421W        W89815  34.151  20.115  14.914
21422W        W89816  31.715   8.403   0.460
21423W        W89817  33.944  32.828   3.284
21424W        W89818  14.162  19.739   0.884
21425W        W89819  23.025  38.032  11.518
21426W        W89820  12.358  23.057   3.456
21427W        W89821  14.675  17.697  12.689
21428W        W89822   4.768  43.937   4.020
21429W        W89823  40.761  15.579  13.451
21430W        W89824  36.615  38.507  12.361
21431W        W89825  35.508  24.220  10.680
21432W        W89826  44.605  31.559  13.905
21433W        W89827  41.880  12.359   3.142
21434W        W89828  33.606  32.449   3.683
21435W        W89829  30.939  17.088   2.408
21436W        W89830  23.659  44.406   4.925
21437W        W89831   6.243  21.330   2.699
21438W        W89832  20.139  15.120   1.702
21439W        W89833   4.256  10.028  11.012
21440W        W89834  32.612  44.993   1.405
21441W        W89835  32.731  21.474   0.298
21442W        W89836   7.786  18.100  10.842
21443W        W89837   0.244  13.777   2.733
21444W        W89838  40.683   6.842  13.847
21445W        W89839  28.684   4.236   1.191
21446W        W89840   4.974  13.229   1.654
21447W        W89841  34.080  18.666  12.072
21448W        W89842  19.799   6.664  12.469
21449W        W89843   2.560  11.331  13.141
21450W        W89844  10.603  30.687  14.401
21451W        W89845  10.691  24.252  14.690
21452W        W89846  20.954  28.713   0.834
21453W        W89847  34.599  42.537  14.584
21454W        W89848  14.173  12.567  10.671
21455W        W89849  31.441  23.906  11.893
21456W        W89850   4.542  29.619  13.875
21457W        W89851   4.782  16.554  14.375
21458W        W89852   8.246  39.275  12.630
21459W        W89853  19.595  23.720   0.349
21460W        W89854  36.677  29.907  14.315
21461W        W89855  31.964  29.410   3.128
21462W        W89856  16.278  19.097  12.894
21463W        W89857  14.992  27.369   2.460
21464W        W89858  20.308  36.875   3.621
21465W        W89859  40.100  18.827  13.340
21466W        W89860  13.628  43.549   2.403
21467W        W89861  17.256  17.204   2.263
21468W        W89862   8.695  28.950  13.339
21469W        W89863  12.630   1.957  11.167
21470W        W89864  36.971   2.843  13.169
21471W        W89865  38.504  24.132  11.833
21472W        W89866  42.555   3.938   2.239
21473W        W89867  25.728  34.943  14.955
21474W        W89868  22.179  37.087  12.823
21475W        W89869  44.945  30.355   3.693
21476W        W89870  44.689  20.250   3.164
21477W        W89871   8.338  23.146  10.446
21478W        W89872   6.196  32.896  13.374
21479W        W89873  42.474  30.336   0.023
21480W        W89874   8.415  23.680  14.107
21481W        W89875  15.530  15.062  12.199
21482W        W89876  20.861  38.719   1.385
21483W        W89877  10.920  39.684  12.671
21484W        W89878  21.742  36.712  12.029
21485W        W89879  32.768   6.700   0.482
21486W        W89880  23.580  18.646   3.664
21487W        W89881  26.146  10.886  13.865
21488W        W89882  15.428  33.528  11.229
21489W        W89883  26.750   6.830   1.206
21490W        W89884  12.914   7.912   1.225
21491W        W89885  14.396  17.342  12.421
21492W        W89886   3.272   9.300   2.609
21493W        W89887  32.588  26.610  14.972
21494W        W89888  16.525  28.574   2.245
21495W        W89889  21.721  15.712   2.793
21496W        W89890   1.690  24.640   4.710
21497W        W89891  42.808  42.598   4.609
21498W        W89892  11.926  36.959   1.295
21499W        W89893   8.488  10.358  12.901
21500W        W89894  24.017  27.943   2.723
21501W        W89895  14.663  26.534   5.063
21502W        W89896  20.622  20.986   3.291
21503W        W89897  36.650  43.211  12.991
21504W        W89898  28.701   7.243   2.265
21505W        W89899  43.029   1.411  11.185
21506W        W89900  17.017   4.869   0.012
21507W        W89901  39.961  32.014   4.104
21508W        W89902   2.420  38.810  11.124
21509W        W89903  23.715  40.359  11.603
21510W        W89904  29.247  26.697   1.423
21511W        W89905  15.638  20.527  13.107
21512W        W89906  44.347  37.669  13.757
21513W        W89907  41.373  27.577  11.943
21514W        W89908   4.920  18.404  13.915
21515W        W89909  14.776  24.802   0.936
21516W        W89910  41.277  38.178   4.107
21517W        W89911  29.522  19.139   1.847
21518W        W89912   8.857  31.823   3.192
21519W        W89913   4.376  25.971   9.745
21520W        W89914  39.490  10.122   1.700
21521W        W89915  38.731  38.267   0.038
21522W        W89916  14.223   3.259   2.444
21523W        W89917  15.302   5.794   1.221
21524W        W89918  44.900  33.524   1.426
21525W        W89919  27.845   6.569  14.444
21526W        W89920  41.097   8.462   3.640
21527W        W89921  38.602  37.870   2.263
21528W        W89922  44.729   9.837   4.158
21529W        W89923  27.138  37.479  12.500
21530W        W89924  28.770  35.111  14.734
21531W        W89925  25.013  31.396  12.116
21532W        W89926  22.935  18.220   0.209
21533W        W89927   3.538  37.968   2.304
21534W        W89928  22.053   9.960   5.063
21535W        W89929   2.775  43.508   3.687
21536W        W89930  13.051  42.910   3.674
21537W        W89931  17.091  14.622  11.106
21538W        W89932  22.469  14.327  11.155
21539W        W89933  21.247  19.769   0.836
21540W        W89934  38.635   1.947  12.077
21541W        W89935  43.225  42.477  11.196
21542W        W89936   8.475  35.961   3.207
21543W        W89937   8.491  24.598   1.892
21544W        W89938  42.008   7.860   4.457
21545W        W89939   9.842  33.671   3.362
21546W        W89940  14.054  22.486  12.948
21547W        W89941  23.256   5.702   2.955
21548W        W89942  21.699  32.321   0.962
21549W        W89943  22.512  17.706   4.260
21550W        W89944  32.975  32.133   4.578
21551W        W89945  17.766  22.049   0.742
21552W        W89946  29.063  19.469   4.946
21553W        W89947  23.989  44.460  10.401
21554W        W89948  35.572  15.256   3.134
21555W        W89949   9.191  43.003   2.818
21556W        W89950   1.849  27.964  11.538
21557W        W89951  22.172   2.030   2.338
21558W        W89952  44.124   2.708   0.253
21559W        W89953  36.579   3.256   3.218
21560W        W89954  15.270  20.062   2.415
21561W        W89955  16.542  18.208   3.312
21562W        W89956   5.453  12.891   2.374
21563W        W89957  22.495  25.291   0.890
21564W        W89958   6.233   6.810  14.798
21565W        W89959   8.554  38.279  14.498
21566W        W89960   7.431  20.740  13.840
21567W        W89961   4.368  41.153   1.946
21568W        W89962  17.242  31.236  13.283
21569W        W89963   0.919  15.413   3.440
21570W        W89964  37.836  44.856  10.609
21571W        W89965  42.814  24.397  14.805
21572W        W89966  19.617  22.770   3.781
21573W        W89967  26.448   1.908   4.043
21574W        W89968   5.818   3.389  13.772
21575W        W89969  38.076   6.750   4.392
21576W        W89970  38.712   4.108  12.121
21577W        W89971  35.996  10.398   3.254
21578W        W89972  32.905  14.284  11.602
21579W        W89973  12.824  13.766   0.764
21580W        W89974   7.146  18.088  12.845
21581W        W89975  26.437  42.205  14.576
21582W        W89976   6.737  17.375   3.567
21583W        W89977  15.628   3.376   2.657
21584W        W89978  16.709   5.721  12.486
21585W        W89979  14.543  18.113  13.415
21586W        W89980  36.790   2.033   9.835
21587W        W89981  13.538  27.934   4.162
21588W        W89982  34.042  30.123  13.297
21589W        W89983  38.235  32.048  11.079
21590W        W89984  35.133   9.338   4.774
21591W        W89985  17.632  10.333   9.973
21592W        W89986  20.614  34.626   0.744
21593W        W89987  36.543   8.170   2.738
21594W        W89988   1.329  36.277   2.257
21595W        W89989  19.008  23.036  13.382
21596W        W89990  42.566  37.309   1.308
21597W        W89991  27.873  30.519  12.648
21598W        W89992  24.446  11.163  12.537
21599W        W89993  36.045  35.084   1.482
21600W        W89994  18.532  28.200  11.992
21601W        W89995  21.803  28.508  10.199
21602W        W89996  33.507  30.587   0.504
21603W        W89997   9.274  18.372  14.918
21604W        W89998  15.553  43.993  14.317
21605W        W89999  32.859  18.261  10.729
21606W        W90000  12.270  19.990   0.407
21607W        W90001  17.168  40.993   3.705
21608W        W90002  11.345  14.656   0.859
21609W        W90003  27.688   4.960  12.530
21610W        W90004   6.283  35.524   3.343
21611W        W90005  34.929  36.675   2.129
21612W        W90006   5.286  37.249   0.697
21613W        W90007   3.250  42.056  11.564
21614W        W90008  36.617  18.214  10.630
21615W        W90009  25.697  14.797  10.566
21616W        W90010  21.735  26.517   5.408
21617W        W90011  19.641   7.585   4.193
21618W        W90012  11.304  44.465  11.778
21619W        W90013  15.792  41.645   3.292
21620W        W90014  44.387  24.066   5.018
21621W        W90015  15.550  17.649  14.452
21622W        W90016  16.370   0.958  13.010
21623W        W90017  36.401   1.375   4.140
21624W        W90018  23.098   7.802   3.381
21625W        W90019  40.308  29.344   0.030
21626W        W90020  33.164   1.378   2.732
21627W        W90021  21.448  33.512  11.080
21628W        W90022  34.458  11.661  10.473
21629W        W90023   5.969  42.231   0.813
21630W        W90024  30.973   6.708   2.261
21631W        W90025  19.122  41.718  11.598
21632W        W90026  41.562  30.660  11.585
21633W        W90027  17.712   1.415   1.232
21634W        W90028   8.661  38.893  12.593
21635W        W90029  20.670  23.529  13.826
21636W        W90030   5.425  37.641   0.258
21637W        W90031  14.719   6.127   4.137
21638W        W90032  16.629   8.634  10.654
21639W        W90033  43.706  13.523  12.760
21640W        W90034  37.102  17.766   4.810
21641W        W90035   5.231  37.033  14.712
21642W        W90036  16.066  20.446   3.867
21643W        W90037  40.386  31.421  14.921
21644W        W90038  18.243  10.015  13.357
21645W        W90039  24.181  21.731  14.518
21646W        W90040  14.795  32.419  12.962
21647W        W90041  33.464  22.583  12.561
21648W        W90042  33.555   9.245   1.794
21649W        W90043  14.740   6.924   3.023
21650W        W90044  34.463  19.242   2.145
21651W        W90045  28.048  18.740   1.948
21652W        W90046  28.512  43.082  10.624
21653W        W90047  31.818  25.953  14.889
21654W        W90048   6.119  17.156   1.754
21655W        W90049  38.071   5.792  11.325
21656W        W90050  44.334   9.852   1.479
21657W        W90051  40.018  42.025   2.783
21658W        W90052  42.393  30.938   2.296
21659W        W90053  33.199  16.157  13.808
21660W        W90054  11.825  14.745   3.284
21661W        W90055  37.998  38.292  11.169
21662W        W90056  27.172  35.616   0.966
21663W        W90057  40.351  12.140   2.322
21664W        W90058   7.332  18.961   2.180
21665W        W90059  24.759  30.378   4.069
21666W        W90060  28.137  38.100  14.349
21667W        W90061  43.327  43.784  11.547
21668W        W90062   2.650  27.701   3.812
21669W        W90063  30.377  17.746  12.261
21670W        W90064  16.577  21.560  12.656
21671W        W90065   9.771  12.951   3.390
21672W        W90066   7.473  36.021   0.996
21673W        W90067   7.933   8.930   4.706
21674W        W90068  22.346  44.990  11.512
21675W        W90069  20.852   7.818   1.031
21676W        W90070  30.077   5.189   2.436
21677W        W90071  14.083  23.008  12.989
21678W        W90072   7.808  17.098  13.574
21679W        W90073  40.540  22.002   2.338
21680W        W90074  18.151  11.096   0.408
21681W        W90075  42.378  12.156   2.293
21682W        W90076   5.827  26.845  14.185
21683W        W90077   3.112   3.790  14.657
21684W        W90078  41.045  18.756   0.693
21685W        W90079  23.033  23.568   0.924
21686W        W90080   7.725   8.649   3.735
21687W        W90081   8.127  42.845  12.197
21688W        W90082  33.114  41.828  13.396
21689W        W90083  32.598  12.199   1.336
21690W        W90084  38.435  39.234   0.814
21691W        W90085  10.343   6.267  11.084
21692W        W90086  18.556  20.988   4.572
21693W        W90087  18.250  33.682  13.542
21694W        W90088  16.190  20.766   2.885
21695W        W90089  40.556   6.972   4.268
21696W        W90090  29.758   0.732   1.334
21697W        W90091  14.631  18.474   1.219
21698W        W90092  11.804   6.495  10.265
21699W        W90093  26.403   8.864   3.221
21700W        W90094  33.436  13.644   5.068
21701W        W90095   8.524  31.425   3.360
21702W        W90096  36.871  38.755  14.512
21703W        W90097  33.737  33.843   3.337
21704W        W90098  35.935  25.450   0.977
21705W        W90099  16.673  44.778   2.609
21706W        W90100  35.616  14.251   3.625
21707W        W90101  42.328  40.328  14.413
21708W        W90102  19.243   2.963  14.805
21709W        W90103  39.246   0.984   1.383
21710W        W90104  20.052  11.582  11.987
21711W        W90105  32.942  27.300   2.852
21712W        W90106  40.372  38.323  11.183
21713W        W90107  40.507  13.202   0.001
21714W        W90108  33.863  28.971  12.417
21715W        W90109  12.508   9.169   3.765
21716W        W90110   1.876  39.616  11.834
21717W        W90111  40.458  10.863  11.724
21718W        W90112  43.642  29.660  14.926
21719W        W90113  23.305   1.196  13.765
21720W        W90114  27.412  12.379  11.516
21721W        W90115  38.159  27.458  13.905
21722W        W90116  15.591   8.414   1.284
21723W        W90117  35.786  18.030   4.289
21724W        W90118  13.738   1.782   4.068
21725W        W90119  14.793   5.027   0.746
21726W        W90120  14.654  27.147   3.357
21727W        W90121  41.298  42.887   0.377
21728W        W90122  21.678  40.027   3.894
21729W        W90123  17.238   5.845   5.055
21730W        W90124  33.442  33.609  12.882
21731W        W90125  28.221   3.387  11.114
21732W        W90126   9.378  19.537   1.914
21733W        W90127   0.510   6.339   3.762
21734W        W90128   0.809  35.344  14.749
21735W        W90129  33.352  17.910   2.248
21736W        W90130  21.251  27.681   2.608
21737W        W90131  32.301  13.809   0.372
21738W        W90132   5.070   8.962  11.031
21739W        W90133   6.781   7.107  11.678
21740W        W90134  14.084   9.387  14.312
21741W        W90135  12.841  30.672  14.902
21742W        W90136  39.411  23.923   3.290
21743W        W90137  29.081  18.168   1.846
21744W        W90138  36.477  44.307   2.380
21745W        W90139  36.099  37.203   2.377
21746W        W90140  27.672  37.625   1.373
21747W        W90141  10.097  40.928   4.960
21748W        W90142  43.347  28.450  12.860
21749W        W90143  31.347  11.428   2.932
21750W        W90144  26.893   8.216   3.878
21751W        W90145  42.099   1.932  13.822
21752W        W90146   6.820  40.046  12.861
21753W        W90147  35.803  39.298  14.367
21754W        W90148   7.143  33.463   3.704
21755W        W90149  38.626  19.984   3.699
21756W        W90150  26.588   3.652   3.262
21757W        W90151  12.039  23.586   2.195
21758W        W90152  21.544  18.541   4.540
21759W        W90153   0.001   1.698   4.225
21760W        W90154  36.061  26.553  11.222
21761W        W90155   5.368   6.220   2.830
21762W        W90156  39.186   7.928   1.778
21763W        W90157  21.039  18.504   1.394
21764W        W90158  30.686  24.590  14.479
21765W        W90159  15.129   9.329   4.462
21766W        W90160  38.888  21.260  13.099
21767W        W90161  23.262  11.719  13.440
21768W        W90162  41.245  16.611   2.692
21769W        W90163  32.393  30.609  12.510
21770W        W90164  27.676  20.354  12.898
21771W        W90165  24.805  30.429  11.847
21772W        W90166  34.595  39.949  10.668
21773W        W90167  22.085  26.528   2.708
21774W        W90168  26.252  20.807  14.016
21775W        W90169  32.347  23.439   1.873
21776W        W90170  27.927   0.256  13.392
21777W        W90171  41.413   7.036   0.885
21778W        W90172   7.230   6.452  11.101
21779W        W90173  37.579  22.957  12.201
21780W        W90174  40.002  40.889   1.922
21781W        W90175  26.346  13.993  12.496
21782W        W90176  22.793  32.866  12.815
21783W        W90177  21.274   6.638  13.770
21784W        W90178  26.121   6.237  14.261
21785W        W90179  43.411  36.957  12.833
21786W        W90180  33.862  27.009  13.739
21787W        W90181  18.289  36.019  13.865
21788W        W90182  12.756   8.197  13.851
21789W        W90183  17.041  20.326   9.727
21790W        W90184  34.468  42.337   4.170
21791W        W90185  33.245  10.606  12.016
21792W        W90186  30.590   3.435  11.786
21793W        W90187  38.591  38.652  12.949
21794W        W90188  21.199  26.273   2.843
21795W        W90189  40.097  25.071   0.256
21796W        W90190  32.100  37.066  13.986
21797W        W90191  31.418  15.431  11.599
21798W        W90192  25.646   9.950  11.102
21799W        W90193  15.043  34.167  11.997
21800W        W90194  42.041   5.706   2.175
21801W        W90195  10.353  36.930  14.398
21802W        W90196   9.605  20.984  14.572
21803W        W90197  15.172  29.948   4.347
21804W        W90198  36.000  35.325   1.954
21805W        W90199  39.283  25.648   4.340
21806W        W90200  26.413   9.656  10.608
21807W        W90201  12.809  39.500   3.695
21808W        W90202  20.782   9.786  11.169
21809W        W90203  22.017  10.832  13.317
21810W        W90204  29.475  14.563  11.596
21811W        W90205  41.935  12.626   2.648
21812W        W90206  37.039  16.886  13.227
21813W        W90207  40.863  25.295   3.217
21814W        W90208  29.321  39.022  12.130
21815W        W90209  14.737   3.408   2.263
21816W        W90210   4.352  44.069   0.963
21817W        W90211   9.728  29.481   3.761
21818W        W90212  18.205   6.316   4.914
21819W        W90213  44.852  20.647  11.908
21820W        W90214  18.196  23.824  10.711
21821W        W90215  19.025  22.705  11.972
21822W        W90216   2.683  12.523   2.793
21823W        W90217  19.093  32.738   3.842
21824W        W90218  15.987  40.887  14.416
21825W        W90219  40.031  33.518  13.005
21826W        W90220  20.314  41.414  12.862
21827W        W90221   9.873   4.884  13.973
21828W        W90222  13.337  29.879   0.650
21829W        W90223  35.231  25.514  13.877
21830W        W90224  30.225   3.427   2.281
21831W        W90225  29.346  42.596   0.064
21832W        W90226  32.608  24.092  11.681
21833W        W90227  29.074  36.381   2.574
21834W        W90228  27.207  43.924  11.047
21835W        W90229   3.326  24.918   2.780
21836W        W90230  33.957   1.702  14.058
21837W        W90231  19.723   3.297   4.670
21838W        W90232  41.810   4.369  10.700
21839W        W90233  33.446  32.272   5.065
21840W        W90234   8.125   9.238  13.362
21841W        W90235  21.465  17.521  14.421
21842W        W90236  10.140  34.210  12.069
21843W        W90237   6.268  24.287  13.411
21844W        W90238   9.332  39.886   3.115
21845W        W90239  31.147  22.524  14.115
21846W        W90240  36.555   9.791   3.105
21847W        W90241  35.762   1.876   4.528
21848W        W90242  22.201  36.013  13.931
21849W        W90243  28.018  41.436   4.741
21850W        W90244  20.702  20.862  12.063
21851W        W90245  25.738  25.717   1.950
21852W        W90246  39.033  14.415  10.585
21853W        W90247  38.669  23.865   3.461
21854W        W90248   9.316   0.825  12.360
21855W        W90249  29.332  44.840  14.889
21856W        W90250  18.578  13.322   0.741
21857W        W90251   5.878  26.022   2.801
21858W        W90252  25.246   4.009  11.195
21859W        W90253  28.040   5.877  13.877
21860W        W90254   5.776  12.290  14.830
21861W        W90255  11.877   3.827   4.302
21862W        W90256  25.038   3.368  14.964
21863W        W90257  37.824  33.550   5.104
21864W        W90258  26.332  34.597   0.467
21865W        W90259  33.113  37.094  10.669
21866W        W90260  22.920  39.575  12.419
21867W        W90261  17.126   9.356   2.832
21868W        W90262  19.899  26.092   2.387
21869W        W90263   0.942  23.700  10.692
21870W        W90264  24.278  35.547  14.474
21871W        W90265  13.410  10.277  14.500
21872W        W90266  17.334  14.844  14.719
21873W        W90267  17.344  20.200   3.257
21874W        W90268  32.212   4.394  13.631
21875W        W90269   7.135  44.309   2.872
21876W        W90270  35.998  16.766   3.279
21877W        W90271  19.036  37.224  13.065
21878W        W90272  10.245  41.625   3.691
21879W        W90273  37.873  13.120  11.187
21880W        W90274  31.006  16.127   0.487
21881W        W90275   7.229  22.967  14.280
21882W        W90276  17.625  13.926  14.462
21883W        W90277  22.585   6.395  10.433
21884W        W90278   8.576   5.795   2.652
21885W        W90279   7.870  21.748  12.059
21886W        W90280   5.457   5.250  13.902
21887W        W90281   2.351  34.569  13.287
21888W        W90282   3.314  32.528   2.131
21889W        W90283   6.343  28.517  13.857
21890W        W90284  28.795  43.624   4.968
21891W        W90285  32.507  20.500  14.456
21892W        W90286  29.368  28.642   0.149
21893W        W90287  15.627  22.961   0.524
21894W        W90288  19.824  26.003  10.261
21895W        W90289  43.431  18.700  13.370
21896W        W90290  39.841  42.018  13.925
21897W        W90291   4.406   4.504   5.150
21898W        W90292  23.095  27.033  14.035
21899W        W90293  34.432  18.067   3.584
21900W        W90294  19.531  25.729  13.874
21901W        W90295  20.067  21.142   0.299
21902W        W90296  40.290  42.291  12.112
21903W        W90297  25.218   6.357   4.533
21904W        W90298  11.903   8.922   0.045
21905W        W90299  43.913  10.492   4.905
21906W        W90300  16.785  18.154  11.998
21907W        W90301  13.847  22.752  10.528
21908W        W90302  17.795  26.395  11.670
21909W        W90303  40.919  22.990  12.545
21910W        W90304   0.196  25.193  12.206
21911W        W90305   2.442  17.606  11.439
21912W        W90306  28.090  38.372  10.661
21913W        W90307  24.077  22.061   1.694
21914W        W90308  26.257  28.944   2.788
21915W        W90309  40.495   7.697   2.310
21916W        W90310  16.345   1.776  11.436
21917W        W90311   6.156   0.695   3.720
21918W        W90312  30.655   6.042   9.750
21919W        W90313  14.269  17.246   4.224
21920W        W90314   4.770   7.284   2.966
21921W        W90315  39.039  22.108  12.958
21922W        W90316  42.856  32.596  14.956
21923W        W90317  27.632  17.617   1.234
21924W        W90318   0.718  39.124   3.103
21925W        W90319   0.827  12.914  13.514
21926W        W90320  19.281  40.727  11.659
21927W        W90321  28.150  30.031   0.129
21928W        W90322  42.266  12.870   4.657
21929W        W90323  16.676   5.954   1.774
21930W        W90324   9.684  40.543   1.888
21931W        W90325  37.047  32.747   1.259
21932W        W90326  28.450   6.458  10.899
21933W        W90327  17.155  32.640   3.794
21934W        W90328  40.419  16.069   4.396
21935W        W90329   3.050   7.975  12.450
21936W        W90330  21.006   8.203   4.334
21937W        W90331  28.644  16.175  11.687
21938W        W90332   8.080  33.937   1.327
21939W        W90333   4.966   1.270  13.336
21940W        W90334  14.663   7.905   1.727
21941W        W90335  13.266   2.322   0.336
21942W        W90336  19.716  35.362   5.047
21943W        W90337  33.593  18.580   3.568
21944W        W90338  29.628  17.066   0.955
21945W        W90339  21.580  18.308   0.808
21946W        W90340  34.114  29.134  14.572
21947W        W90341   8.914  33.667   3.158
21948W        W90342  17.523  19.226   4.998
21949W        W90343  16.178  33.366  11.864
21950W        W90344   1.447   8.869   2.626
21951W        W90345  41.494  10.603  11.464
21952W        W90346  41.523  17.569   2.720
21953W        W90347  19.047  12.102  12.918
21954W        W90348  24.143  18.060   2.746
21955W        W90349  38.926  31.483   0.820
21956W        W90350  20.430   4.731  11.416
21957W        W90351  14.568  44.340   2.736
21958W        W90352  38.251  37.106   2.861
21959W        W90353   7.790  39.669  10.309
21960W        W90354  30.438  22.127   4.797
21961W        W90355  18.787  40.344  10.612
21962W        W90356  13.962  35.868  14.418
21963W        W90357  39.532  29.967   1.294
21964W        W90358   6.419   9.106  14.493
21965W        W90359  21.507  42.035   0.863
21966W        W90360  27.032  14.435  12.496
21967W        W90361  35.990   6.644  14.169
21968W        W90362   4.407   0.004   2.566
21969W        W90363  24.621   8.867  10.445
21970W        W90364  28.574  24.610  14.739
21971W        W90365   0.475  44.872  14.750
21972W        W90366  33.350  36.428   9.978
21973W        W90367  11.860   5.223   0.002
21974W        W90368   2.678  33.360  11.740
21975W        W90369  37.511   9.292  11.602
21976W        W90370  31.151  35.981   2.394
21977W        W90371  44.504  24.984   4.552
21978W        W90372  42.726  20.861  11.503
21979W        W90373   7.573   9.072   4.047
21980W        W90374  32.540  13.820   4.764
21981W        W90375  40.256  21.207  11.161
21982W        W90376   8.188   4.027  12.139
21983W        W90377  20.328   2.376   3.243
21984W        W90378  42.411  24.702  14.159
21985W        W90379  15.324   4.323   4.160
21986W        W90380  24.862  29.919  12.416
21987W        W90381  23.103   0.618   1.871
21988W        W90382  24.470   4.798  14.354
21989W        W90383  30.185  33.068   2.814
21990W        W90384  39.814  35.879  12.466
21991W        W90385   6.120   7.231  13.097
21992W        W90386   1.455  36.602   1.781
21993W        W90387  22.272  30.642   0.909
21994W        W90388  16.036  41.430   4.259
21995W        W90389   7.887  43.816  14.389
21996W        W90390   3.516  13.346  12.671
21997W        W90391  26.529  26.013  14.024
21998W        W90392  11.300   2.655   2.058
21999W        W90393  37.871  42.919  11.807
22000W        W90394  37.498  34.810  10.564
22001W        W90395  13.617   6.305   2.819
22002W        W90396  14.244  30.520   1.922
22003W        W90397  25.105  36.357   4.581
22004W        W90398   9.942  10.992  13.119
22005W        W90399  14.622  34.525  13.567
22006W        W90400  12.639  17.535  12.820
22007W        W90401   4.670   2.215   4.589
22008W        W90402  12.844  16.153  11.520
22009W        W90403  35.329  36.401  13.612
22010W        W90404  24.182  28.262  12.961
22011W        W90405  13.594   6.777  12.115
22012W        W90406  40.796  37.870  14.776
22013W        W90407   3.680  10.714  13.871
22014W        W90408  21.528  10.431  12.506
22015W        W90409  39.607  41.459  13.094
22016W        W90410  21.468  42.876  11.194
22017W        W90411   1.239  10.330  12.908
22018W        W90412  37.045  38.494  12.076
22019W        W90413  40.124  16.007  14.479
22020W        W90414  41.906   2.451  13.840
22021W        W90415  30.536   4.168   0.774
22022W        W90416   1.935  42.335  11.393
22023W        W90417   5.383  43.366   0.914
22024W        W90418  12.551   4.221   3.298
22025W        W90419  18.575  40.321  14.844
22026W        W90420   9.659   3.664   2.851
22027W        W90421  31.597  19.764  14.242
22028W        W90422  36.310  39.267   2.926
22029W        W90423  32.089  19.858   2.281
22030W        W90424  35.042  20.636  14.122
22031W        W90425  31.072   6.938   0.863
22032W        W90426  33.436   8.643  10.237
22033W        W90427  24.160  12.672  12.592
22034W        W90428  27.143  14.113   5.056
22035W        W90429  26.592  10.397  13.390
22036W        W90430  30.616   0.454   3.300
22037W        W90431  13.255   6.147   1.886
22038W        W90432  28.940  40.947   3.416
22039W        W90433  37.576  38.648  12.974
22040W        W90434  31.149  38.638   1.422
22041W        W90435   0.838  21.650  12.965
22042W        W90436  43.097  25.700   0.598
22043W        W90437  38.198  16.567   1.187
22044W        W90438  20.620   3.127   3.184
22045W        W90439  37.046  41.003  12.403
22046W        W90440   6.537  28.259   1.069
22047W        W90441   7.207  35.395   1.438
22048W        W90442  35.633  27.596  13.714
22049W        W90443  10.881  24.123   4.198
22050W        W90444   4.020   4.816  11.545
22051W        W90445  26.566  27.341  11.422
22052W        W90446  24.927  20.498  11.151
22053W        W90447   2.252  35.705  11.641
22054W        W90448  34.831  26.008   1.199
22055W        W90449   3.926  13.165  12.903
22056W        W90450  26.039  41.026  14.695
22057W        W90451   9.555  10.417   4.255
22058W        W90452  41.045  24.677  13.674
22059W        W90453  13.212  17.195   1.396
22060W        W90454  19.522   8.919  10.771
22061W        W90455  34.315  44.020  14.479
22062W        W90456  41.922   7.831  14.322
22063W        W90457  36.672  19.905   3.614
22064W        W90458   6.269  38.603   0.430
22065W        W90459   4.681  29.029   2.733
22066W        W90460  36.274   6.517  10.766
22067W        W90461  15.141  10.730  10.739
22068W        W90462  43.977  40.211  12.216
22069W        W90463   4.898  22.988   0.091
22070W        W90464  34.863  41.338   3.554
22071W        W90465  21.375  17.087   3.601
22072W        W90466  13.634  13.301   2.589
22073W        W90467   0.657  38.558  13.409
22074W        W90468  31.896   7.429  13.014
22075W        W90469  23.014  18.709  14.462
22076W        W90470  41.239   1.140   2.622
22077W        W90471   3.691   8.555  12.893
22078W        W90472  11.143  34.162  12.379
22079W        W90473  44.726   3.639   4.099
22080W        W90474   0.795  25.866  12.961
22081W        W90475  28.943  23.688   0.903
22082W        W90476  43.995  14.700   1.731
22083W        W90477  42.846  17.075   4.618
22084W        W90478  21.659  28.112  12.268
22085W        W90479  39.554  33.319   0.393
22086W        W90480  42.809  19.522   3.111
22087W        W90481  43.547   7.203  10.703
22088W        W90482   2.732  16.237   2.779
22089W        W90483   1.778  38.659   0.937
22090W        W90484   9.678  10.321   0.916
22091W        W90485  20.829  35.011  13.518
22092W        W90486  39.166  20.879   4.860
22093W        W90487  27.107  35.590  11.510
22094W        W90488  32.657  27.428  14.601
22095W        W90489   0.553  17.658   0.277
22096W        W90490  16.139  12.031   1.324
22097W        W90491  43.505  43.645   4.928
22098W        W90492  17.971  35.157  10.558
22099W        W90493  36.601  37.173  12.456
22100W        W90494  43.852  28.149  13.936
22101W        W90495  32.518  12.390   3.832
22102W        W90496  18.702  23.707   0.276
22103W        W90497  35.125  38.651  13.329
22104W        W90498  34.039  14.561  11.247
22105W        W90499  43.836  18.592   0.192
22106W        W90500  28.903  29.659   2.075
22107W        W90501  26.135  34.129   0.244
22108W        W90502  36.539  14.167  14.858
22109W        W90503  24.820  15.285  10.793
22110W        W90504  22.661  36.908  13.871
22111W        W90505   1.372  32.474  12.179
22112W        W90506  31.158   2.871  11.391
22113W        W90507  19.490   3.450   0.709
22114W        W90508  12.303  10.333   3.217
22115W        W90509   8.857  35.594  10.881
22116W        W90510  39.552  33.466  11.565
22117W        W90511   1.163  11.375  12.474
22118W        W90512  21.256  30.404  11.625
22119W        W90513  10.514  32.894   3.805
22120W        W90514  22.983  18.233  12.581
22121W        W90515   6.347  23.220   9.615
22122W        W90516   2.873  18.164  14.785
22123W        W90517  26.358  25.646  13.232
22124W        W90518  31.153  23.542  12.162
22125W        W90519  43.446  32.517  10.622
22126W        W90520   4.839  21.160   3.377
22127W        W90521  21.752  38.852  11.097
22128W        W90522  36.538  12.631   4.963
22129W        W90523  26.485   8.920  11.180
22130W        W90524  31.422  23.131   4.597
22131W        W90525  14.763  10.688  14.919
22132W        W90526   4.967  19.051  11.231
22133W        W90527   8.597  18.753   1.987
22134W        W90528  39.470   4.854  10.703
22135W        W90529   2.433   9.088  11.168
22136W        W90530  25.114  35.842  10.671
22137W        W90531  32.432   3.754   2.955
22138W        W90532  11.831  38.705   0.777
22139W        W90533   6.223  15.381   2.363
22140W        W90534   3.576  44.398   2.702
22141W        W90535  19.412   6.366  11.276
22142W        W90536   2.993   8.963  12.485
22143W        W90537  23.413  19.930  13.037
22144W        W90538  44.412  38.748   1.272
22145W        W90539  20.595  18.695   4.344
22146W        W90540  37.632  19.664   4.896
22147W        W90541  33.384  27.017   0.060
22148W        W90542  29.836   2.693   2.648
22149W        W90543  18.588   1.917  10.630
22150W        W90544  23.531  25.062  10.696
22151W        W90545  20.975  22.538   3.480
22152W        W90546  17.311  13.324   2.275
22153W        W90547  35.320  27.664   3.766
22154W        W90548  23.184  24.091  12.906
22155W        W90549   6.433  37.731  12.441
22156W        W90550  29.869  26.025   1.759
22157W        W90551   8.648  12.382  14.736
22158W        W90552  36.811  44.319   0.852
22159W        W90553  21.752  30.138  14.116
22160W        W90554   6.630  18.747   0.587
22161W        W90555  19.851  20.066  13.420
22162W        W90556   0.719  24.098  11.292
22163W        W90557   7.359   2.419   3.339
22164W        W90558  29.100  19.710   3.593
22165W        W90559  25.096  13.394  12.993
22166W        W90560  20.326   2.953   0.740
22167W        W90561   9.245  26.668   4.614
22168W        W90562  12.705  23.269  11.365
22169W        W90563  11.316  18.531  13.578
22170W        W90564  19.151  15.025   4.060
22171W        W90565  24.636  25.657   3.676
22172W        W90566  43.599  25.758   0.688
22173W        W90567   2.030  33.726  13.828
22174W        W90568  29.135  12.398  12.908
22175W        W90569  20.792  40.311   3.187
22176W        W90570  11.851  20.763   3.669
22177W        W90571  29.035   7.832  10.608
22178W        W90572   3.884  35.820  14.511
22179W        W90573  36.271  25.751   2.726
22180W        W90574  15.446  43.327  10.938
22181W        W90575   6.121  42.231   0.274
22182W        W90576  17.074   0.386  12.424
22183W        W90577  19.639  20.611  10.532
22184W        W90578   3.283  17.682   0.399
22185W        W90579  33.965  41.047   4.989
22186W        W90580  16.996  33.149  13.107
22187W        W90581   2.517   3.906  12.328
22188W        W90582   8.080  27.829  10.551
22189W        W90583   1.199  19.297   3.401
22190W        W90584  21.631   1.189  11.126
22191W        W90585  22.177   5.575   0.331
22192W        W90586   8.513  40.295   3.130
22193W        W90587  22.001  38.301  11.627
22194W        W90588   5.418  19.099  12.925
22195W        W90589   0.703   6.322   2.782
22196W        W90590  15.883  37.041  13.553
22197W        W90591  28.209   6.226  13.495
22198W        W90592  39.388  35.989  10.720
22199W        W90593  43.465  37.620  12.502
22200W        W90594  44.555  38.557   4.072
22201W        W90595   1.436  21.483   3.565
22202W        W90596  25.506  29.610  14.422
22203W        W90597  12.377  18.344   2.919
22204W        W90598   3.452  16.283  10.983
22205W        W90599  34.349  12.439  10.708
22206W        W90600  29.212  18.571   4.497
22207W        W90601  44.036  12.506   1.686
22208W        W90602  44.339   7.120   2.689
22209W        W90603  27.142  19.584   2.245
22210W        W90604  29.687   6.909   2.285
22211W        W90605  38.262  16.282   2.165
22212W        W90606  43.729  28.086  11.244
22213W        W90607  24.730   5.152  13.028
22214W        W90608  35.016  33.793  14.830
22215W        W90609   4.919  16.906  10.797
22216W        W90610  16.574  31.588   0.337
22217W        W90611  18.273   8.084  13.864
22218W        W90612  18.200  20.775  11.724
22219W        W90613  33.389  42.423   0.858
22220W        W90614  37.474  37.541   9.947
22221W        W90615  41.872  28.833  12.001
22222W        W90616  42.778  18.134  12.472
22223W        W90617   3.906   2.465   2.518
22224W        W90618  15.347  16.040  13.049
22225W        W90619   6.026  19.033  14.486
22226W        W90620  37.384  38.294  14.795
22227W        W90621  34.515  22.659  12.986
22228W        W90622  19.020   8.190  12.501
22229W        W90623  27.061  13.199   2.678
22230W        W90624  42.444   0.861  11.798
22231W        W90625  30.449   6.705   3.552
22232W        W90626   5.209  26.116  10.699
22233W        W90627  29.128  43.894  14.026
22234W        W90628  38.623   3.975  10.791
22235W        W90629  22.235  12.800   5.177
22236W        W90630   2.262  26.022  14.779
22237W        W90631  23.047  33.587  13.562
22238W        W90632  31.929  19.037   1.990
22239W        W90633   6.368   5.126  12.510
22240W        W90634   9.154  39.961   4.573
22241W        W90635  38.241  17.491  10.555
22242W        W90636  31.097  31.030   3.401
22243W        W90637  24.050  18.844   3.570
22244W        W90638  44.314  26.081   3.749
22245W        W90639  43.807   1.790  11.948
22246W        W90640  23.253   9.231  11.464
22247W        W90641  37.797  16.224   3.458
22248W        W90642  35.937  27.605  14.852
22249W        W90643   1.734  31.704   1.694
22250W        W90644  22.129  44.352  12.168
22251W        W90645   1.531  15.168  12.310
22252W        W90646  22.333   2.933   0.739
22253W        W90647  26.431   2.925  12.121
22254W        W90648  21.156  41.520  14.853
22255W        W90649  43.387  31.895  11.995
22256W        W90650   4.853  38.477   4.270
22257W        W90651  34.334  23.212   0.438
22258W        W90652  16.870  32.488   3.371
22259W        W90653  31.634   8.670   2.284
22260W        W90654  20.251  44.343   0.694
22261W        W90655   2.257   0.746   0.384
22262W        W90656  32.492   6.192   1.372
22263W        W90657   9.333  17.983  13.316
22264W        W90658   8.353   4.153  13.419
22265W        W90659   2.956  35.449   2.764
22266W        W90660   8.612  40.437   5.087
22267W        W90661  29.667  21.706   0.828
22268W        W90662  40.317  43.606   2.464
22269W        W90663  21.285  34.552  11.669
22270W        W90664  16.629  31.383  14.410
22271W        W90665  29.010  25.079   2.378
22272W        W90666  34.639  24.405   2.928
22273W        W90667  21.172  10.768  10.277
22274W        W90668  24.728  38.598  10.721
22275W        W90669  39.534  13.189  12.671
22276W        W90670  33.827  10.762   0.255
22277W        W90671  29.683  11.023  11.913
22278W        W90672   8.922  23.539  14.026
22279W        W90673  20.635   7.814   0.557
22280W        W90674  23.573  37.518  11.024
22281W        W90675   4.313  30.726  13.868
22282W        W90676   5.509  31.402   1.996
22283W        W90677  43.901  17.295  14.460
22284W        W90678  34.923   2.236   3.409
22285W        W90679   8.780   2.362   2.400
22286W        W90680  19.110   0.381   3.718
22287W        W90681   9.718  24.227   3.602
22288W        W90682  22.759   4.751   2.324
22289W        W90683  15.575  17.982   3.246
22290W        W90684  23.229  25.724  13.510
22291W        W90685  17.835  39.338  12.944
22292W        W90686  17.795  42.064  12.437
22293W        W90687   0.518   1.394  12.354
22294W        W90688  11.694  44.317  12.114
22295W        W90689  42.635  24.551   1.252
22296W        W90690  43.226   0.587   4.450
22297W        W90691  15.116  21.062   5.155
22298W        W90692  29.060  16.616  12.064
22299W        W90693  42.346  37.866  11.935
22300W        W90694  16.156  29.692  13.101
22301W        W90695  37.002   0.495   4.994
22302W        W90696   7.211  13.019   3.746
22303W        W90697  26.967  40.067   0.430
22304W        W90698  37.321   4.533  13.045
22305W        W90699   5.778  21.321   3.992
22306W        W90700  31.659   6.894  14.249
22307W        W90701  38.955   3.736  14.513
22308W        W90702  20.847  42.946  11.096
22309W        W90703  27.091  28.871   2.205
22310W        W90704  12.370  16.752  11.654
22311W        W90705  24.584  16.819   2.825
22312W        W90706   7.903  22.908   2.562
22313W        W90707  30.919  29.172  14.149
22314W        W90708  44.577  41.929   0.385
22315W        W90709  13.909  44.024   4.890
22316W        W90710  18.183  42.532   4.017
22317W        W90711   6.709   6.936   4.927
22318W        W90712   8.707  44.474   0.366
22319W        W90713  35.305  28.575   4.123
22320W        W90714  44.896  11.874  12.095
22321W        W90715  12.327  40.001   4.139
22322W        W90716  19.090  23.020   4.337
22323W        W90717  15.722   5.777  14.469
22324W        W90718   5.603  39.590   3.618
22325W        W90719  11.043  44.894  13.259
22326W        W90720   3.402  38.894   0.466
22327W        W90721  29.128  32.565   0.059
22328W        W90722  23.552  44.569   3.990
22329W        W90723  14.805  22.818  14.552
22330W        W90724   4.181  31.102   3.801
22331W        W90725  17.322   1.211  11.546
22332W        W90726  29.146  11.298   2.663
22333W        W90727  37.021  36.476  11.043
22334W        W90728  36.957  25.329   0.830
22335W        W90729  32.600  22.380   4.235
22336W        W90730   0.056   1.623  12.297
22337W        W90731  29.061  33.581   2.747
22338W        W90732   5.858  36.503   2.379
22339W        W90733  13.277  28.555   0.054
22340W        W90734  26.481   6.416   3.530
22341W        W90735  18.225  43.830  11.503
22342W        W90736  23.829  39.906   1.738
22343W        W90737  26.119  38.932  14.004
22344W        W90738  34.672  29.637   0.269
22345W        W90739  20.044   7.757   2.176
22346W        W90740  11.214  22.309   1.404
22347W        W90741   1.331  15.021   4.540
22348W        W90742   6.895  31.055  10.518
22349W        W90743   3.747  27.035  11.661
22350W        W90744  12.902  13.111  11.240
22351W        W90745  17.549  19.799   4.157
22352W        W90746  42.339  22.271   0.729
22353W        W90747  22.274  37.094   4.263
22354W        W90748  35.035  10.071  11.687
22355W        W90749  27.508  25.899   0.051
22356W        W90750  32.970  26.254  11.546
22357W        W90751  16.065  37.456   0.387
22358W        W90752  20.610   5.963   0.778
22359W        W90753   5.786  33.845   1.863
22360W        W90754  40.798   4.186   1.280
22361W        W90755  28.864  16.014   2.787
22362W        W90756   2.985  39.841  11.150
22363W        W90757  11.312  26.545   2.008
22364W        W90758  36.706  42.585   4.126
22365W        W90759  18.014  21.056  14.547
22366W        W90760  23.005   6.965  12.997
22367W        W90761   7.302  25.886   5.433
22368W        W90762  38.784  34.541   4.786
22369W        W90763  25.084  26.355   2.012
22370W        W90764  11.168  16.061  12.101
22371W        W90765  41.528  21.820  13.574
22372W        W90766  18.303  23.101  11.544
22373W        W90767  44.431   9.465  13.289
22374W        W90768   6.164  21.122  12.823
22375W        W90769   8.041   2.839   0.711
22376W        W90770  33.839  34.899  10.866
22377W        W90771  39.907  12.853   0.483
22378W        W90772   8.202  23.261  12.960
22379W        W90773  44.436  37.924   2.201
22380W        W90774  15.582  16.320   2.623
22381W        W90775  14.299  36.659  14.744
22382W        W90776  32.086   5.658  12.462
22383W        W90777  16.717  11.769  13.725
22384W        W90778  19.521  27.205   1.633
22385W        W90779  39.399  33.913   3.160
22386W        W90780   6.450   8.244   0.063
22387W        W90781  16.663  41.585   3.263
22388W        W90782  41.234  42.924  14.836
22389W        W90783  14.315   2.334  12.882
22390W        W90784  14.635  20.815  13.918
22391W        W90785  17.097   1.658  10.672
22392W        W90786  40.295  31.932  11.580
22393W        W90787  37.097  33.341   3.438
22394W        W90788   8.750   9.259  10.657
22395W        W90789  41.781  18.224   1.020
22396W        W90790  29.080  41.326   2.280
22397W        W90791   8.776  30.321   0.412
22398W        W90792  13.944   2.798  14.007
22399W        W90793  29.206  30.209  10.708
22400W        W90794   7.800  40.940  13.435
22401W        W90795  24.490  10.741  13.395
22402W        W90796  38.507  34.372   3.169
22403W        W90797  29.957  26.929  11.603
22404W        W90798   8.567  42.782  14.438
22405W        W90799  13.725  44.604   3.445
22406W        W90800   1.859  42.085   3.634
22407W        W90801   9.323   2.227   4.905
22408W        W90802  16.803  34.464  13.036
22409W        W90803   2.908  27.027   1.613
22410W        W90804   5.758  35.424  14.781
22411W        W90805  32.000  26.477   2.239
22412W        W90806  25.213  27.025  14.964
22413W        W90807  37.014  13.610   3.700
22414W        W90808  36.333  39.519  11.390
22415W        W90809  24.152  16.228   0.013
22416W        W90810   5.023  43.932  11.209
22417W        W90811  28.462   7.826  14.944
22418W        W90812  33.482   7.491  11.202
22419W        W90813  13.673   5.268  11.132
22420W        W90814   9.306   4.869   3.216
22421W        W90815   6.240  11.085   0.274
22422W        W90816   5.632  28.000   1.289
22423W        W90817  31.345  13.722   4.553
22424W        W90818  35.813   7.601   2.375
22425W        W90819   0.046  35.993   2.657
22426W        W90820  14.745  22.055  12.609
22427W        W90821  35.626   7.185  13.031
22428W        W90822  35.296  17.714  14.709
22429W        W90823  39.027   4.647   1.712
22430W        W90824  11.214  44.210  10.806
22431W        W90825  13.346  13.533   4.525
22432W        W90826  19.043  22.658   3.115
22433W        W90827  32.944  35.098   3.216
22434W        W90828  32.317  35.418   3.617
22435W        W90829  30.620  44.880   4.536
22436W        W90830   0.871   8.618   1.954
22437W        W90831  32.284  25.314   4.702
22438W        W90832   9.810   2.219  13.066
22439W        W90833  33.952  25.984  10.688
22440W        W90834   1.371   4.419   2.298
22441W        W90835  41.307  25.065   3.096
22442W        W90836  21.818   9.423   0.374
22443W        W90837  10.740  15.226   1.893
22444W        W90838  32.680  31.629  13.501
22445W        W90839   2.888  38.367  13.907
22446W        W90840  13.524   6.538  11.654
22447W        W90841  13.638  27.009  11.074
22448W        W90842  37.108  39.346   3.220
22449W        W90843  11.394  43.530  13.068
22450W        W90844  33.367   6.577   3.385
22451W        W90845  18.818   6.138  12.130
22452W        W90846  11.722   7.482   1.421
22453W        W90847  43.486  44.530  13.960
22454W        W90848  12.793  34.541   4.210
22455W        W90849  35.317  39.263   3.543
22456W        W90850   8.186  14.626   3.585
22457W        W90851  19.325  26.277  13.854
22458W        W90852  37.874   7.393   1.020
22459W        W90853  31.857  10.903  13.215
22460W        W90854  28.894  32.082  14.356
22461W        W90855  38.847  27.687   0.896
22462W        W90856   2.793  17.311   0.997
22463W        W90857   2.214  31.255   3.574
22464W        W90858  27.084  22.547  10.668
22465W        W90859  29.215  29.477   2.455
22466W        W90860  24.306   2.890  14.398
22467W        W90861  40.493   5.685   4.828
22468W        W90862   8.811  22.981  14.500
22469W        W90863  37.854  27.421   4.010
22470W        W90864  20.561  26.010  14.410
22471W        W90865  44.344  36.944  13.205
22472W        W90866  15.337   9.517  14.824
22473W        W90867  20.528  30.970  14.708
22474W        W90868  28.426  38.376  13.056
22475W        W90869   5.209   1.325  12.136
22476W        W90870  13.293   7.831  11.058
22477W        W90871  43.541  35.298   4.147
22478W        W90872  32.308  30.067   4.645
22479W        W90873  27.593   6.325   4.340
22480W        W90874  41.235   7.799   1.613
22481W        W90875   1.404  34.277  12.370
22482W        W90876   1.674  20.916   5.071
22483W        W90877  12.651   7.228   9.726
22484W        W90878  22.330  43.345   2.232
22485W        W90879  34.175  27.994  11.089
22486W        W90880  11.461  42.181   2.444
22487W        W90881  36.110  30.931   2.937
22488W        W90882  22.507  13.740   0.290
22489W        W90883  31.363  21.240  12.552
22490W        W90884   9.637  39.235  14.422
22491W        W90885  31.201  11.374   3.670
22492W        W90886  27.662  17.791  12.144
22493W        W90887   9.860  33.082  10.807
22494W        W90888  19.934  19.966   9.822
22495W        W90889  42.843  26.222   3.443
22496W        W90890  44.502   7.695  14.445
22497W        W90891   8.031  29.482   4.093
22498W        W90892   8.634  39.519  12.398
22499W        W90893   4.661   6.469   3.283
22500W        W90894  39.473  14.127   1.727
22501W        W90895  13.233   9.832   3.123
22502W        W90896  44.420   1.793   3.005
22503W        W90897   9.380  10.401  12.337
22504W        W90898  16.781  36.304  13.818
22505W        W90899  30.941  21.865  11.864
22506W        W90900  36.522  14.739  13.657
22507W        W90901   7.365  44.714  12.075
22508W        W90902  14.849  13.411   3.169
22509W        W90903  21.726  36.358   2.873
22510W        W90904  31.909  43.690   4.672
22511W        W90905  37.852  28.206  14.207
22512W        W90906  38.472   2.068  11.601
22513W        W90907   4.729  35.709  13.943
22514W        W90908   4.744  10.678  13.253
22515W        W90909  26.392   5.884  13.447
22516W        W90910  32.250  21.232  14.365
22517W        W90911  21.299   7.841  11.668
22518W        W90912  35.502  20.511  10.798
22519W        W90913  19.187  40.523   2.249
22520W        W90914   9.698  37.732  14.827
22521W        W90915  17.547  18.711  14.670
22522W        W90916  31.030  40.459   4.729
22523W        W90917   4.424  35.409   4.559
22524W        W90918  35.500  40.722   3.689
22525W        W90919  20.723   9.877  13.445
22526W        W90920  13.240  27.690   2.185
22527W        W90921  17.182   6.920   4.083
22528W        W90922  15.658  16.044   0.383
22529W        W90923  30.111  18.034   3.980
22530W        W90924  25.146  38.266   2.425
22531W        W90925  40.898  36.998   1.458
22532W        W90926  40.852   4.219  12.185
22533W        W90927  21.613  44.869   3.622
22534W        W90928  13.367  29.463   0.941
22535W        W90929   3.265   4.130  13.727
22536W        W90930   3.729   9.256   2.310
22537W        W90931   8.645  21.467   2.750
22538W        W90932  25.193  25.729   2.743
22539W        W90933  10.829  21.553   1.773
22540W        W90934  28.749  34.660   3.292
22541W        W90935  33.997  34.943  11.398
22542W        W90936  29.839  33.916  13.930
22543W        W90937  40.902  11.770  11.048
22544W        W90938  37.037   9.760  13.082
22545W        W90939  16.664  29.594   4.215
22546W        W90940  43.197  25.033  14.411
22547W        W90941  43.454  10.542   1.869
22548W        W90942  20.996  32.011  13.502
22549W        W90943   3.957  16.168  13.382
22550W        W90944  34.053  38.551  13.334
22551W        W90945  26.475  36.387  12.643
22552W        W90946  34.995  36.624  14.390
22553W        W90947   3.314  33.920   3.553
22554W        W90948  35.170  23.097  14.992
22555W        W90949  11.579  32.267   3.301
22556W        W90950  40.290   0.935   0.215
22557W        W90951  33.983   2.063   3.468
22558W        W90952  12.019  11.511  14.272
22559W        W90953   7.168   2.429  14.394
22560W        W90954  40.986  19.125   0.198
22561W        W90955  42.150  32.269   2.820
22562W        W90956  44.958  19.551  14.964
22563W        W90957  35.948  23.175  10.731
22564W        W90958   3.410  26.626  11.662
22565W        W90959   1.331  44.966   0.227
22566W        W90960  35.565  20.657  13.895
22567W        W90961  29.111  22.749   2.448
22568W        W90962  37.335  38.916   0.399
22569W        W90963  15.686   9.026   1.894
22570W        W90964   5.237   7.653  11.766
22571W        W90965   0.197   8.605  10.667
22572W        W90966  28.065   6.290  11.640
22573W        W90967  27.941  34.291  12.475
22574W        W90968   9.071  17.156  12.073
22575W        W90969  20.150  22.637   2.686
22576W        W90970  32.723   1.322   4.197
22577W        W90971  14.660  12.666   4.546
22578W        W90972  38.038  24.867   0.248
22579W        W90973  11.222   8.776   3.852
22580W        W90974  33.133  19.760   3.010
22581W        W90975   5.379  41.576  14.572
22582W        W90976   1.705   0.065   1.970
22583W        W90977  27.717   4.474  12.363
22584W        W90978  26.210   8.616  11.508
22585W        W90979  33.768  21.159   2.751
22586W        W90980  44.027  38.148   1.898
22587W        W90981  26.685  35.119  10.690
22588W        W90982  25.397  35.621  12.875
22589W        W90983  10.937   6.292  14.268
22590W        W90984  43.731   5.889   2.900
22591W        W90985  19.064   6.133  10.991
22592W        W90986  38.827  36.346  10.108
22593W        W90987   5.745  41.534  12.856
22594W        W90988  33.123  30.085   0.697
22595W        W90989   7.951  18.159   3.279
22596W        W90990  30.866  14.863  12.509
22597W        W90991  40.812  25.905   1.394
22598W        W90992  23.101  37.555  13.682
22599W        W90993  34.884   5.891   1.019
22600W        W90994  33.875   7.316  14.917
22601W        W90995   6.197  21.000   3.136
22602W        W90996  33.151  25.231   3.066
22603W        W90997   5.715   8.239   0.263
22604W        W90998   5.278  15.815  12.141
22605W        W90999  21.989  11.750  11.120
22606W        W91000  32.436  17.644  12.436
22607W        W91001  39.590  19.253   3.176
22608W        W91002  32.217   4.882  13.782
22609W        W91003  32.975  41.715   1.841
22610W        W91004  25.283  36.270   0.124
22611W        W91005  39.776   0.943   2.771
22612W        W91006  16.608   0.256   0.294
22613W        W91007   3.458   8.691  13.335
22614W        W91008  27.611  25.539   2.144
22615W        W91009  38.916  21.678   3.113
22616W        W91010  12.563  41.306  13.425
22617W        W91011  28.459  28.435   2.387
22618W        W91012  17.062   6.465  14.324
22619W        W91013   6.726  43.423   4.947
22620W        W91014  17.336  31.098   3.584
22621W        W91015  21.770  34.143   4.173
22622W        W91016  14.924   1.404  13.989
22623W        W91017  33.495  38.403   0.451
22624W        W91018  22.521   1.273  12.676
22625W        W91019  44.375   9.720  14.531
22626W        W91020  23.507   3.858  10.662
22627W        W91021  33.406  12.916  11.552
22628W        W91022  12.909  21.237   1.232
22629W        W91023   0.428   0.758   0.956
22630W        W91024  22.794   0.712   4.644
22631W        W91025  32.580  13.709  14.945
22632W        W91026  44.758  33.281  13.510
22633W        W91027   5.810  36.522   0.813
22634W        W91028  31.019  32.558  13.551
22635W        W91029  16.086  19.024   3.323
22636W        W91030  25.469  14.877   0.856
22637W        W91031   5.890  43.225   3.179
22638W        W91032  40.248  33.531  11.121
22639W        W91033  28.471  15.896   0.666
22640W        W91034   8.278   2.950   1.831
22641W        W91035  22.913  19.058  10.654
22642W        W91036   4.375  11.271   2.404
22643W        W91037  19.814  38.503   1.440
22644W        W91038  43.490  14.766  13.229
22645W        W91039   5.795  20.239   3.813
22646W        W91040  12.099  29.412  10.739
22647W        W91041  16.532  15.242  12.112
22648W        W91042  15.643  24.548  14.732
22649W        W91043  13.885  11.528   2.823
22650W        W91044  22.423  16.265  12.325
22651W        W91045   6.896  25.948   1.933
22652W        W91046  26.760  26.960  13.704
22653W        W91047  26.981   0.841  14.375
22654W        W91048  44.116  39.321   2.407
22655W        W91049   2.950  17.238  13.756
22656W        W91050  10.162  40.594   3.666
22657W        W91051   7.721  25.228   0.738
22658W        W91052  40.888  40.513  14.951
22659W        W91053  25.602  14.420  12.067
22660W        W91054  34.773  29.169  11.977
22661W        W91055   6.956  10.824   3.710
22662W        W91056   2.830  29.592   4.168
22663W        W91057  24.958  41.981   3.632
22664W        W91058   8.315  29.084  10.613
22665W        W91059   9.258  39.210   2.842
22666W        W91060  14.626  25.077  10.466
22667W        W91061  29.136  43.519   0.421
22668W        W91062  31.623  28.464   4.701
22669W        W91063  10.151  38.984   4.574
22670W        W91064  37.051  27.502   1.227
22671W        W91065  23.043  18.229  11.230
22672W        W91066  29.353  27.645  12.663
22673W        W91067  35.353  35.753   2.288
22674W        W91068   7.458  32.850   3.119
22675W        W91069   8.190  39.900   3.088
22676W        W91070  43.901  26.863  12.558
22677W        W91071   6.641  17.140   1.392
22678W        W91072  32.452  31.836  11.452
22679W        W91073  40.920  39.719  13.062
22680W        W91074  37.892  41.911  11.594
22681W        W91075  29.160  42.428  11.973
22682W        W91076  23.691  25.526   1.422
22683W        W91077  41.994  31.422  10.594
22684W        W91078  15.810  14.367  14.942
22685W        W91079  16.811  17.158   0.743
22686W        W91080  18.690   7.205  11.112
22687W        W91081   3.762   2.455  14.340
22688W        W91082  32.623  23.661  11.020
22689W        W91083  33.429   2.499   4.347
22690W        W91084  29.886  35.850   5.212
22691W        W91085  37.315  30.914  14.062
22692W        W91086  36.161  27.481   1.285
22693W        W91087  28.053  39.509   0.968
22694W        W91088  31.631   8.797  11.169
22695W        W91089  27.877  28.456   4.121
22696W        W91090  25.515  20.505  12.470
22697W        W91091  38.316  16.830  12.864
22698W        W91092   2.257  35.284  11.355
22699W        W91093  30.683  33.991  13.517
22700W        W91094  17.095  28.586   0.991
22701W        W91095  33.340  35.850   3.206
22702W        W91096  23.133  21.535  10.735
22703W        W91097  19.966   9.197   3.612
22704W        W91098   3.782  34.464   1.811
22705W        W91099  18.633  30.411  11.599
22706W        W91100  25.053  26.869  10.352
22707W        W91101  13.400  23.728   1.285
22708W        W91102  18.038  12.628   4.215
22709W        W91103  27.230  40.270  14.047
22710W        W91104  22.471  41.351   0.480
22711W        W91105  28.011   1.926  11.561
22712W        W91106  31.877  27.035  13.888
22713W        W91107  35.476  38.454  10.605
22714W        W91108   0.018  18.296  11.146
22715W        W91109  31.529  39.199  14.405
22716W        W91110  42.944   4.891   0.028
22717W        W91111  41.902   1.277   4.661
22718W        W91112   6.161  11.320   0.730
22719W        W91113  12.245   7.390   0.699
22720W        W91114  10.863  44.974   3.584
22721W        W91115  35.360  33.417  14.730
22722W        W91116   3.780  23.408   4.869
22723W        W91117  34.778  42.546   4.874
22724W        W91118  26.735  37.870   1.811
22725W        W91119  38.447  21.568  11.555
22726W        W91120   9.946   7.064  14.360
22727W        W91121  10.606   9.301   3.228
22728W        W91122  17.274  37.851  13.007
22729W        W91123   8.898   1.979  14.270
22730W        W91124  23.891   5.626  11.132
22731W        W91125  18.780  17.892  10.873
22732W        W91126   6.663  24.386  10.776
22733W        W91127   9.016   0.602  14.439
22734W        W91128   7.212  26.174   2.439
22735W        W91129  22.083   3.419   0.716
22736W        W91130  32.083  39.736   3.179
22737W        W91131   8.233  29.028  14.120
22738W        W91132  28.675   3.968  11.691
22739W        W91133   0.256  15.902   1.798
22740W        W91134   5.374   6.307   4.627
22741W        W91135  18.740   1.647   0.332
22742W        W91136  12.745   1.274   2.249
22743W        W91137   0.390   8.876   1.944
22744W        W91138  44.219  32.629  13.319
22745W        W91139  10.901  43.519   3.634
22746W        W91140  14.646  27.180   0.979
22747W        W91141  41.727  20.150   1.334
22748W        W91142   8.157  25.027   3.115
22749W        W91143  37.503   1.357   1.627
22750W        W91144  13.145   2.607  13.690
22751W        W91145  19.755   8.931   1.247
22752W        W91146  25.448  11.982   4.946
22753W        W91147  40.427  25.401   0.001
22754W        W91148  10.261  37.818  12.494
22755W        W91149   9.191   0.777   9.908
22756W        W91150   0.038  39.429   5.037
22757W        W91151  13.200  15.376  13.069
22758W        W91152   1.094  23.527   9.997
22759W        W91153  27.932  30.501   5.103
22760W        W91154  27.994  20.533  14.384
22761W        W91155  33.649  22.144   0.683
22762W        W91156  42.530  11.810  14.016
22763W        W91157   3.261  42.868  11.893
22764W        W91158  16.235  37.337  14.888
22765W        W91159  23.150  37.240  11.182
22766W        W91160  42.772  19.010  14.887
22767W        W91161  32.371  39.345   1.341
22768W        W91162   1.803   2.750  13.097
22769W        W91163  18.748   6.243  13.092
22770W        W91164  17.718  42.034  14.176
22771W        W91165  35.618  15.447   0.321
22772W        W91166  11.599   6.455   1.237
22773W        W91167  27.555   3.717   0.907
22774W        W91168   9.180  23.157   0.911
22775W        W91169  20.127   3.752   0.351
22776W        W91170  26.436  17.267  14.393
22777W        W91171  31.367   8.769   0.750
22778W        W91172  14.844  44.121   1.210
22779W        W91173  26.453  37.120  12.048
22780W        W91174  14.319  22.301  14.791
22781W        W91175  32.369  43.776   2.783
22782W        W91176  29.607  34.051   4.754
22783W        W91177  33.149  35.129  11.390
22784W        W91178  36.951  26.722   0.506
22785W        W91179  11.870   8.408   1.804
22786W        W91180  12.111  21.629   2.608
22787W        W91181  30.969  12.608   4.915
22788W        W91182   2.494  31.714   3.683
22789W        W91183  16.688  40.273  12.873
22790W        W91184   7.239  36.160  12.967
22791W        W91185   5.063  13.002   4.547
22792W        W91186  39.320  42.011  14.932
22793W        W91187   9.658  12.502   3.617
22794W        W91188  34.239   1.209  14.390
22795W        W91189  44.547  35.806  12.641
22796W        W91190  21.441   1.221   4.163
22797W        W91191  24.507   0.701   0.033
22798W        W91192  13.330  24.148  12.574
22799W        W91193  18.297   2.724   1.870
22800W        W91194  32.467  35.007  13.610
22801W        W91195  34.629  20.166   4.198
22802W        W91196  14.742  22.847   3.637
22803W        W91197  10.263  27.399   3.363
22804W        W91198   0.039  38.831  13.817
22805W        W91199   7.582   2.243  12.677
22806W        W91200  41.420  16.348   1.412
22807W        W91201  14.315  21.392   0.026
22808W        W91202  36.140  39.888  10.773
22809W        W91203   5.708   5.938   0.762
22810W        W91204  38.648  19.814  11.227
22811W        W91205  37.307  31.812   3.136
22812W        W91206  18.474  20.470   3.786
22813W        W91207  15.179  29.613   3.642
22814W        W91208  11.983  42.395  13.778
22815W        W91209   6.675   6.734   2.617
22816W        W91210  15.066   2.166  13.893
22817W        W91211  19.544  33.730   0.892
22818W        W91212   3.929  28.527  12.810
22819W        W91213  29.972  44.934   2.323
22820W        W91214  11.242   2.760   3.085
22821W        W91215  19.133   2.759   3.292
22822W        W91216  33.582   9.216   3.610
22823W        W91217  41.365  17.776  10.748
22824W        W91218  33.128  44.477   3.699
22825W        W91219   6.384  37.347   3.259
22826W        W91220   0.764  40.104   1.816
22827W        W91221  38.076  13.929   2.223
22828W        W91222  31.187  13.229   4.340
22829W        W91223  32.512  41.976   3.376
22830W        W91224  29.051  40.879   0.819
22831W        W91225  20.085  41.896  12.918
22832W        W91226  20.449  19.313  11.061
22833W        W91227  22.572  19.017  12.754
22834W        W91228  38.996   7.950  10.685
22835W        W91229  44.272   3.127   2.463
22836W        W91230  39.613  32.824  14.005
22837W        W91231  12.537   4.657   3.670
22838W        W91232  18.090  29.069   0.113
22839W        W91233  31.971  12.154  13.492
22840W        W91234  18.464  33.702   0.346
22841W        W91235  19.613  30.387   3.700
22842W        W91236   8.114   1.738   1.135
22843W        W91237  43.682  33.522   3.786
22844W        W91238  22.519  33.653   3.756
22845W        W91239  36.080   5.368   4.946
22846W        W91240  44.995   4.741   4.130
22847W        W91241  39.768  27.163   1.080
22848W        W91242  10.144   6.824   4.894
22849W        W91243  37.945  11.071   0.851
22850W        W91244  42.817  42.333  10.788
22851W        W91245   2.184   3.647  10.458
22852W        W91246  33.328   4.207   3.295
22853W        W91247  10.343  14.548   2.460
22854W        W91248  17.547   7.916  11.651
22855W        W91249   7.577   2.549   4.078
22856W        W91250  20.676  16.474  14.960
22857W        W91251  40.519  39.995  11.509
22858W        W91252  17.228   1.998   1.007
22859W        W91253  44.045  20.005  12.934
22860W        W91254  32.258   1.578   3.511
22861W        W91255   6.891  22.211   0.306
22862W        W91256  15.090  28.946   1.355
22863W        W91257  23.473  42.983   3.588
22864W        W91258  32.462  23.175   4.922
22865W        W91259  10.064   9.147   4.204
22866W        W91260  29.061  18.310  14.867
22867W        W91261   2.291  11.868  11.694
22868W        W91262  10.397  17.421  11.566
22869W        W91263  43.005  28.798   4.539
22870W        W91264  26.193  35.505   2.960
22871W        W91265  17.614  37.577  14.941
22872W        W91266  25.523   3.512   3.364
22873W        W91267  11.338  28.533   0.890
22874W        W91268  38.950  20.625   4.101
22875W        W91269  43.284   4.930  12.041
22876W        W91270  37.609  23.509   1.482
22877W        W91271  31.417  21.763  12.403
22878W        W91272  29.095  17.169  12.113
22879W        W91273  40.353   8.415   2.763
22880W        W91274  11.346  44.887   3.340
22881W        W91275   4.927   2.399  13.418
22882W        W91276  10.228   8.122   1.435
22883W        W91277  35.048  44.470   3.717
22884W        W91278  11.280  13.357   2.763
22885W        W91279  19.830  12.010  10.598
22886W        W91280   6.201   4.698   0.328
22887W        W91281   2.384  34.155   2.707
22888W        W91282   3.802   9.595  13.050
22889W        W91283  17.133   4.382   3.117
22890W        W91284   3.976  15.264   4.525
22891W        W91285  25.253  36.095   1.902
22892W        W91286   9.544   4.471  10.255
22893W        W91287  20.981  13.753  14.505
22894W        W91288  16.074  25.094   5.078
22895W        W91289  26.215  26.694  11.644
22896W        W91290  22.012  40.836   1.236
22897W        W91291  22.135  16.760   2.377
22898W        W91292   4.237  44.696   4.228
22899W        W91293  18.662  21.037  12.771
22900W        W91294  13.307   2.420   0.898
22901W        W91295  29.379  25.881   2.393
22902W        W91296  11.846  30.413   2.430
22903W        W91297  43.042  36.378  11.667
22904W        W91298  35.352  44.398   3.294
22905W        W91299   3.686  28.992   1.358
22906W        W91300  12.902   0.935   3.703
22907W        W91301   4.788   2.534  12.485
22908W        W91302   1.986  19.116   4.084
22909W        W91303  29.381  36.460  12.410
22910W        W91304  36.178  35.845  14.342
22911W        W91305  17.736  41.349  11.921
22912W        W91306  16.150  24.163   0.431
22913W        W91307  35.982  12.378  14.945
22914W        W91308  41.081  42.526   1.341
22915W        W91309  17.120  10.279  14.432
22916W        W91310  15.184  38.967   1.737
22917W        W91311  18.883  11.248   1.154
22918W        W91312  10.702  23.834   3.738
22919W        W91313  37.545  15.275   0.858
22920W        W91314  27.627  25.157  14.402
22921W        W91315  42.844   6.135   3.722
22922W        W91316   3.307  14.578   1.935
22923W        W91317  37.456  35.869   1.222
22924W        W91318   2.235  11.712  13.107
22925W        W91319  28.317   0.726   3.154
22926W        W91320  41.417  26.079  11.928
22927W        W91321  28.206  11.398  12.127
22928W        W91322  32.869  27.477   4.608
22929W        W91323  20.286  42.936  11.944
22930W        W91324  26.687   6.513  11.077
22931W        W91325  31.976  24.890  10.622
22932W        W91326  25.918  27.487  13.546
22933W        W91327  32.018   3.488  13.530
22934W        W91328  43.336  29.376  13.060
22935W        W91329   2.354   0.386   2.770
22936W        W91330   6.014  14.315  10.993
22937W        W91331   6.037   5.802  11.581
22938W        W91332  34.085  44.394  13.832
22939W        W91333  13.234  27.337   3.573
22940W        W91334  24.108   9.390   9.529
22941W        W91335  31.776  22.024   2.412
22942W        W91336  12.154  36.310   0.298
22943W        W91337  24.456  24.077  10.425
22944W        W91338  22.500   0.602  13.345
22945W        W91339   2.148   7.730  12.494
22946W        W91340  41.063  21.522   2.875
22947W        W91341  15.129  13.275   2.736
22948W        W91342  11.565  11.683   9.997
22949W        W91343  37.622  26.081   2.166
22950W        W91344  19.101  31.084  14.870
22951W        W91345  43.342  31.063  14.759
22952W        W91346  40.007   4.239  14.983
22953W        W91347   5.508   2.992   0.965
22954W        W91348  13.748   2.310   4.585
22955W        W91349   9.429   6.320  12.086
22956W        W91350  22.750  41.735  14.337
22957W        W91351  14.883   7.783  14.257
22958W        W91352   8.639   3.418   3.400
22959W        W91353  36.556   5.795   3.110
22960W        W91354   2.328  12.292  11.001
22961W        W91355  18.676  35.236   1.701
22962W        W91356   9.629  21.787   3.140
22963W        W91357  29.424  29.124  14.290
22964W        W91358  40.276   8.110  12.123
22965W        W91359   5.342  36.608   2.254
22966W        W91360  38.498  20.144   3.223
22967W        W91361  14.820  23.802   0.685
22968W        W91362   8.648  22.207  10.659
22969W        W91363  18.811   2.742  14.978
22970W        W91364  15.761  22.411  13.034
22971W        W91365   2.767  40.836   3.212
22972W        W91366  30.729   0.411   2.318
22973W        W91367  24.978  33.605  12.452
22974W        W91368   2.030  25.725  13.569
22975W        W91369  40.334   5.910  13.805
22976W        W91370  42.036  44.557   1.263
22977W        W91371  18.810  23.537   3.765
22978W        W91372  32.066  39.710   4.030
22979W        W91373  22.846  27.480  13.426
22980W        W91374  31.371  25.726   0.023
22981W        W91375   6.261  22.552  10.791
22982W        W91376  40.874  45.000   2.224
22983W        W91377   8.274  25.752  13.908
22984W        W91378  24.238  36.299  12.954
22985W        W91379   4.324   0.953  10.625
22986W        W91380  12.693  29.956   2.332
22987W        W91381  24.930  12.175  14.851
22988W        W91382   5.178  14.127  14.353
22989W        W91383   3.377  21.743  13.885
22990W        W91384  25.223  35.466  13.370
22991W        W91385  41.291  38.356  13.514
22992W        W91386  20.369  29.138   2.848
22993W        W91387  20.601  16.689   5.164
22994W        W91388  23.717  30.619   1.011
22995W        W91389  43.251  28.670   3.546
22996W        W91390  25.661  40.486   3.805
22997W        W91391  26.573  41.327   1.863
22998W        W91392  38.607  42.351  14.431
22999W        W91393  35.144  10.887  14.118
23000W        W91394  10.293  10.696   0.395
23001W        W91395   9.791  12.521  14.932
23002W        W91396  20.992   6.733   3.225
23003W        W91397  35.418  24.496   4.119
23004W        W91398   0.906  38.590   1.440
23005W        W91399  40.065   5.500  13.580
23006W        W91400  17.580  12.998   4.468
23007W        W91401  41.011  19.939   1.867
23008W        W91402  18.348  36.551   1.908
23009W        W91403  13.216  43.295  13.007
23010W        W91404   4.700  29.849   3.215
23011W        W91405  37.513  39.419  10.971
23012W        W91406   2.980  20.258   2.264
23013W        W91407  43.705   8.736   4.881
23014W        W91408  34.474   8.651   3.094
23015W        W91409  22.598   0.754  11.228
23016W        W91410  24.054   0.177  12.566
23017W        W91411  23.042  34.462  12.822
23018W        W91412  37.861  38.211  12.889
23019W        W91413   3.910  43.545   2.916
23020W        W91414  26.164  25.632   4.770
23021W        W91415  29.249   1.870   2.882
23022W        W91416  38.573   6.355  13.791
23023W        W91417  37.379   3.704  13.590
23024W        W91418  13.281  28.053   1.775
23025W        W91419  35.638  23.765  13.892
23026W        W91420  28.418  37.554  12.965
23027W        W91421  42.059  32.323  11.079
23028W        W91422  16.601  40.852   1.178
23029W        W91423  17.711  25.262  10.936
23030W        W91424  36.703   3.325   4.314
23031W        W91425  35.958  18.562   2.118
23032W        W91426  21.685   6.980  13.708
23033W        W91427  10.292  22.758   1.278
23034W        W91428  39.087  28.560   3.290
23035W        W91429  18.741   6.224  14.010
23036W        W91430  38.116  17.331  12.929
23037W        W91431  21.263  43.770   3.823
23038W        W91432  32.637  26.722  10.488
23039W        W91433  16.254  18.807   0.523
23040W        W91434  41.258  30.215  13.089
23041W        W91435   0.740  17.047   2.257
23042W        W91436   9.582   5.772   0.876
23043W        W91437  32.483  35.074  13.101
23044W        W91438   4.391  27.702  11.152
23045W        W91439  44.105  33.983  13.975
23046W        W91440  12.445  40.288   0.217
23047W        W91441  32.458  12.271  14.914
23048W        W91442   7.399  24.497  13.937
23049W        W91443   5.791  23.501   2.415
23050W        W91444  27.424  29.851  13.960
23051W        W91445  36.323  18.114  13.919
23052W        W91446  37.286  14.341   0.313
23053W        W91447  31.660  12.247   4.048
23054W        W91448  28.696   5.896   1.794
23055W        W91449   2.940  40.702  11.641
23056W        W91450  13.222  33.933  13.980
23057W        W91451   5.743  40.533  13.070
23058W        W91452  23.565  33.921  10.953
23059W        W91453  23.564  17.046  11.088
23060W        W91454   7.739   0.983  10.705
23061W        W91455  20.639  14.617   3.566
23062W        W91456   4.408   7.726   1.427
23063W        W91457  14.261   7.182  12.700
23064W        W91458  12.222  41.374  11.600
23065W        W91459  17.210  39.622   1.372
23066W        W91460   3.936  27.581  12.536
23067W        W91461  30.242   4.462  13.485
23068W        W91462  29.446  36.802   0.830
23069W        W91463  10.392  14.903   3.321
23070W        W91464  19.068  39.388  11.879
23071W        W91465  37.598   8.130  12.902
23072W        W91466   8.312  35.355  11.209
23073W        W91467  13.294  14.576   1.772
23074W        W91468  37.977  12.203   4.279
23075W        W91469  12.486   5.703  11.240
23076W        W91470  13.115   7.118  10.471
23077W        W91471  29.761  30.357   2.142
23078W        W91472   5.820  38.713   4.109
23079W        W91473  30.448  20.994   3.976
23080W        W91474  16.792  30.480  11.576
23081W        W91475  35.459  10.366  11.587
23082W        W91476  10.601  41.447   0.255
23083W        W91477  36.996  40.995   3.895
23084W        W91478  25.978  34.674  10.962
23085W        W91479  42.391  29.903   0.305
23086W        W91480  21.497  26.513   1.135
23087W        W91481  44.294   4.088   1.662
23088W        W91482  14.843  42.348   1.879
23089W        W91483  44.063   4.173  13.805
23090W        W91484  43.324   3.737   3.212
23091W        W91485   8.855  26.523  13.016
23092W        W91486  37.785  37.042  11.578
23093W        W91487  29.589  42.524   3.222
23094W        W91488  26.887  30.890  12.511
23095W        W91489   4.842  35.630   3.981
23096W        W91490  30.337  28.069   3.282
23097W        W91491   5.102  27.291   3.711
23098W        W91492  37.238  23.698  12.888
23099W        W91493  43.339  26.036  13.654
23100W        W91494  12.195   2.409  13.941
23101W        W91495  10.191  42.844   0.371
23102W        W91496  20.649  11.114  10.686
23103W        W91497  32.993   9.964   1.503
23104W        W91498  36.541  38.903  10.258
23105W        W91499  42.757   6.427   0.045
23106W        W91500  36.077  25.416  10.984
23107W        W91501  39.290  15.051  14.976
23108W        W91502   9.131  10.357   1.671
23109W        W91503  20.288   3.367   1.138
23110W        W91504  43.416  44.263   3.869
23111W        W91505  30.671   7.429   0.009
23112W        W91506  13.383  27.247  13.705
23113W        W91507  34.132   1.921  12.537
23114W        W91508  42.571   8.360  12.219
23115W        W91509   4.823  15.235   4.143
23116W        W91510  20.937  39.309  11.040
23117W        W91511  23.522  31.169   3.297
23118W        W91512  34.032  32.326  10.512
23119W        W91513  19.202  35.974  10.132
23120W        W91514  15.231  25.035  10.083
23121W        W91515  37.278  39.069  12.877
23122W        W91516   8.287   5.015  11.553
23123W        W91517   7.138  27.588   3.856
23124W        W91518  20.723   5.679  14.471
23125W        W91519  37.128  22.417   4.156
23126W        W91520   6.834  30.517   4.564
23127W        W91521   3.453  44.928   4.832
23128W        W91522  28.894  44.838   2.129
23129W        W91523  33.650  44.332   3.651
23130W        W91524   6.868  35.447  11.850
23131W        W91525   7.307  24.125   4.255
23132W        W91526   2.356  35.343  12.326
23133W        W91527  37.295  13.102  13.445
23134W        W91528  18.157  34.343  11.086
23135W        W91529  28.318   0.056   0.025
23136W        W91530   1.157  35.639  11.544
23137W        W91531  41.290  34.049   1.757
23138W        W91532  36.906   0.480   2.297
23139W        W91533  32.347  38.211  13.092
23140W        W91534  16.597   3.860  13.086
23141W        W91535   2.806  26.643  11.879
23142W        W91536  40.128   0.627   3.753
23143W        W91537   0.732  17.654   0.799
23144W        W91538   5.982   9.249  11.674
23145W        W91539   7.313  17.500   2.411
23146W        W91540  14.801  11.897   4.021
23147W        W91541   9.814   6.883   1.644
23148W        W91542  21.658  20.887  10.321
23149W        W91543  23.994  21.682  13.092
23150W        W91544  44.522  21.533   4.318
23151W        W91545  12.225   6.824  10.347
23152W        W91546  37.974  39.835   1.139
23153W        W91547  35.108  37.586  12.028
23154W        W91548  34.575  37.101  11.512
23155W        W91549  30.583  18.256  12.572
23156W        W91550   0.909  35.900  10.232
23157W        W91551  31.904  28.473  11.142
23158W        W91552  35.628  13.365  11.685
23159W        W91553  31.349   5.352   1.614
23160W        W91554  23.866   6.631   2.693
23161W        W91555  37.677  19.082  13.974
23162W        W91556  37.074  14.163  14.859
23163W        W91557  14.359  21.306   4.495
23164W        W91558   7.589  34.327  14.486
23165W        W91559  27.439  25.979   3.828
23166W        W91560  30.135  38.611  12.251
23167W        W91561  32.397  39.965   4.363
23168W        W91562  24.509   8.092   2.311
23169W        W91563  17.616  19.564   0.288
23170W        W91564  41.277  43.811  14.534
23171W        W91565  13.041  38.094   1.885
23172W        W91566  23.560   6.416  13.402
23173W        W91567  22.539  43.977   3.283
23174W        W91568  18.562   2.842   2.312
23175W        W91569  37.125  10.223   4.100
23176W        W91570  26.637  26.996   4.849
23177W        W91571  29.670  26.792  12.485
23178W        W91572  11.689   6.625   3.288
23179W        W91573  25.718  10.713   3.365
23180W        W91574  18.538   4.254  10.697
23181W        W91575  40.844  11.221   1.219
23182W        W91576  36.678   9.843  13.478
23183W        W91577   4.832  43.925  14.292
23184W        W91578   6.534   2.428   4.945
23185W        W91579  19.896  35.600   1.140
23186W        W91580  14.304  24.927  10.851
23187W        W91581  11.311   0.943   1.447
23188W        W91582  19.320  31.575  11.010
23189W        W91583  23.528   2.134   0.357
23190W        W91584  39.410  35.646   4.259
23191W        W91585  33.029  24.071   1.647
23192W        W91586  24.476   7.968  12.053
23193W        W91587  38.090  18.676  11.615
23194W        W91588  28.172   0.353  10.736
23195W        W91589  10.624  30.973  13.944
23196W        W91590  27.430  43.681  14.812
23197W        W91591  20.135  21.228   3.122
23198W        W91592  29.699   3.501   2.348
23199W        W91593   1.660   7.922  14.113
23200W        W91594  35.277  41.323   4.355
23201W        W91595  43.871  35.318  13.122
23202W        W91596  10.934  41.306  11.372
23203W        W91597  15.612  15.306   2.842
23204W        W91598  22.406  33.164   0.657
23205W        W91599  42.572  34.267  14.471
23206W        W91600  10.172  18.217  12.086
23207W        W91601  16.949  17.642  13.475
23208W        W91602  29.589   1.861   3.269
23209W        W91603  22.647  40.594   4.560
23210W        W91604  19.079  22.662  10.405
23211W        W91605  21.205  18.322  13.509
23212W        W91606  43.350  29.422  11.485
23213W        W91607  40.520   2.649   2.136
23214W        W91608  43.001  20.786   1.477
23215W        W91609   7.374  26.476   1.506
23216W        W91610  33.378  33.371  13.330
23217W        W91611  19.642  11.881   3.661
23218W        W91612  13.090   2.184   2.202
23219W        W91613  38.465  26.678  13.116
23220W        W91614  39.564  14.465  12.456
23221W        W91615  42.054  23.975   3.409
23222W        W91616  12.730  18.310  13.352
23223W        W91617  12.234  16.678   0.546
23224W        W91618  27.767   7.214  14.908
23225W        W91619  12.508  28.075  11.574
23226W        W91620  37.997  35.567  14.778
23227W        W91621  39.051  29.610  13.470
23228W        W91622  30.085  31.823   1.256
23229W        W91623  15.113   0.782  14.789
23230W        W91624  33.071  16.851   4.712
23231W        W91625  12.880  24.720  13.837
23232W        W91626  15.475  17.220   2.579
23233W        W91627  35.007  12.795   0.956
23234W        W91628  15.033  31.070   2.702
23235W        W91629  13.773  25.744  14.068
23236W        W91630  11.438   2.298  14.565
23237W        W91631   6.441   6.837  12.959
23238W        W91632  18.956   6.494   0.547
23239W        W91633  40.570  24.207  14.344
23240W        W91634   9.818  44.644  11.430
23241W        W91635  39.598  41.764  12.670
23242W        W91636  26.541   5.726  10.725
23243W        W91637  31.858  26.848   0.980
23244W        W91638  41.285  17.564  14.868
23245W        W91639  32.522  19.291   0.791
23246W        W91640  20.099   3.519  11.917
23247W        W91641  22.536  25.145   1.797
23248W        W91642  13.295  11.701  12.413
23249W        W91643  14.865   6.917  11.102
23250W        W91644  41.427   1.374   3.499
23251W        W91645  42.321  37.370   0.828
23252W        W91646  30.004   5.375  13.360
23253W        W91647  22.563  32.391  12.406
23254W        W91648  17.682  40.315   4.644
23255W        W91649  17.460  10.367   0.220
23256W        W91650  16.225  38.427  11.338
23257W        W91651   3.652  35.824  10.647
23258W        W91652  38.796   2.401  10.655
23259W        W91653  10.758   9.240   1.749
23260W        W91654   8.349  34.332  11.906
23261W        W91655   0.736  18.374   1.319
23262W        W91656  13.352  44.822   0.426
23263W        W91657  25.185   5.315  11.163
23264W        W91658   7.619  30.354  10.515
23265W        W91659   7.291   3.364  12.042
23266W        W91660  40.573  43.683  11.186
23267W        W91661  15.049  25.240  14.870
23268W        W91662  21.174  25.462   0.009
23269W        W91663  28.443  33.279  10.765
23270W        W91664  32.943  31.385   2.386
23271W        W91665  15.760  23.231   2.697
23272W        W91666  24.974  29.459  13.484
23273W        W91667  41.282  35.873  12.602
23274W        W91668   9.928   0.421  11.756
23275W        W91669  25.099  24.123   0.551
23276W        W91670   4.038  14.534  10.816
23277W        W91671   1.429   4.932   2.370
23278W        W91672  38.921  41.615  12.004
23279W        W91673  17.177  36.072   1.034
23280W        W91674  21.649  33.456   9.856
23281W        W91675  43.758  34.369  14.100
23282W        W91676  44.316  13.176  11.191
23283W        W91677  37.802  28.631  11.593
23284W        W91678  34.235   7.401  11.657
23285W        W91679   5.360   4.280  11.644
23286W        W91680  22.595  29.659  10.913
23287W        W91681  31.863  25.976  12.689
23288W        W91682  21.157  10.234   3.952
23289W        W91683  10.840  34.483  14.922
23290W        W91684  35.694  41.478   3.407
23291W        W91685   6.065  13.690   3.262
23292W        W91686  12.067  13.643  14.857
23293W        W91687   7.362  42.462   0.451
23294W        W91688  21.827   7.772  11.621
23295W        W91689  29.865  35.311  11.218
23296W        W91690  37.046  17.032   0.474
23297W        W91691  17.535  31.244   2.321
23298W        W91692  33.449  16.508  11.949
23299W        W91693  24.190  42.210  12.612
23300W        W91694   0.487  36.490  11.420
23301W        W91695  38.050  28.139  11.886
23302W        W91696  37.040  41.944   1.583
23303W        W91697   1.011   8.898  14.457
23304W        W91698  10.963  21.194   0.310
23305W        W91699  25.771   1.598  12.632
23306W        W91700   3.236  30.007   3.286
23307W        W91701  32.866  16.912   1.599
23308W        W91702  16.031  26.577   2.546
23309W        W91703  37.161  14.576   4.509
23310W        W91704  20.111   5.700  11.421
23311W        W91705   5.787  28.695  13.986
23312W        W91706   3.984  12.587   4.979
23313W        W91707  16.377  33.173  10.861
23314W        W91708  25.620  39.191  13.846
23315W        W91709  42.236   7.462  11.192
23316W        W91710   1.519  18.826   2.149
23317W        W91711  30.618  34.424  10.730
23318W        W91712  37.506  30.202   3.585
23319W        W91713  42.420  40.433  10.121
23320W        W91714  41.281   3.736   4.135
23321W        W91715   0.587  36.879  10.624
23322W        W91716  34.941  14.925   4.551
23323W        W91717  37.050  28.749  12.010
23324W        W91718  43.416  23.006  11.689
23325W        W91719   5.677  21.020  12.906
23326W        W91720  16.875  14.520   2.053
23327W        W91721  27.712  28.492   2.766
23328W        W91722   8.335  16.247   3.249
23329W        W91723  31.020   6.878  13.836
23330W        W91724  41.312   6.423  14.321
23331W        W91725   3.884  14.052   2.585
23332W        W91726   7.714  16.784  12.189
23333W        W91727  43.385   2.674   1.386
23334W        W91728   9.221  43.746  12.034
23335W        W91729  29.669  32.990  14.968
23336W        W91730  16.807  18.026  14.551
23337W        W91731  37.448  36.120  13.851
23338W        W91732  36.286  14.225   2.646
23339W        W91733  44.543   9.558  14.997
23340W        W91734  19.953   8.611  11.633
23341W        W91735  16.117  29.604   2.443
23342W        W91736  21.478  30.598   4.747
23343W        W91737  32.619  29.176   1.177
23344W        W91738  18.237  30.169   0.905
23345W        W91739   5.259   9.458   1.737
23346W        W91740  17.233  39.590   2.843
23347W        W91741  24.378  38.754   3.243
23348W        W91742   0.274  39.400   3.266
23349W        W91743   4.856  43.084  13.357
23350W        W91744  43.904   5.717  12.369
23351W        W91745  13.517   7.817  12.362
23352W        W91746  31.456  12.197  13.347
23353W        W91747  28.224   3.980  14.011
23354W        W91748   1.708  24.977   1.688
23355W        W91749  34.484  32.022   3.632
23356W        W91750  35.882  44.385  10.643
23357W        W91751  13.348  12.034   3.580
23358W        W91752   2.462  11.334   1.615
23359W        W91753  28.628  42.403  10.223
23360W        W91754   4.995  32.178   2.865
23361W        W91755  15.908  35.162   2.140
23362W        W91756  38.352  29.401   3.242
23363W        W91757  37.794  12.483   2.701
23364W        W91758   7.242   6.774  12.471
23365W        W91759  26.138  38.378   1.235
23366W        W91760  25.691   0.862  14.383
23367W        W91761  22.189   6.199  10.763
23368W        W91762  18.349  10.404  11.053
23369W        W91763   7.209  40.111  12.556
23370W        W91764  16.242  26.407   1.338
23371W        W91765  36.267   9.983  10.043
23372W        W91766  34.522   7.208  12.025
23373W        W91767   8.082  15.630  12.600
23374W        W91768  25.603  13.183   4.084
23375W        W91769   4.402  17.103  13.853
23376W        W91770  20.195  14.532  13.142
23377W        W91771  42.397  41.599  14.850
23378W        W91772   4.756  17.238   2.318
23379W        W91773   1.053  16.756   0.862
23380W        W91774  42.588  25.959  10.757
23381W        W91775  31.126  42.821   0.746
23382W        W91776  22.119   3.037  14.005
23383W        W91777  27.776   5.479   1.595
23384W        W91778  29.111  44.827  13.859
23385W        W91779   6.195  40.049   3.829
23386W        W91780  19.246  22.556   4.100
23387W        W91781  35.032  13.158   1.340
23388W        W91782   2.952  16.155   2.306
23389W        W91783  36.406  34.561   0.432
23390W        W91784  39.359  38.004  12.198
23391W        W91785  39.345  41.980   2.204
23392W        W91786  41.120  39.093   4.155
23393W        W91787  37.481  11.417  10.194
23394W        W91788   7.404   0.040   1.252
23395W        W91789  38.912  21.254  14.987
23396W        W91790   9.950  44.296  11.055
23397W        W91791   7.271  19.030   4.558
23398W        W91792  43.034  24.971  11.151
23399W        W91793   4.575   9.048   3.299
23400W        W91794  17.411  34.518  12.967
23401W        W91795   2.332   8.361   1.776
23402W        W91796  36.002  17.598  11.629
23403W        W91797  12.090  23.537   1.693
23404W        W91798  41.806  10.712   0.397
23405W        W91799   1.524  36.918   1.213
23406W        W91800  40.525  16.705  13.365
23407W        W91801  22.247  13.230   4.565
23408W        W91802  36.889  10.875  11.623
23409W        W91803   7.267  22.850  12.535
23410W        W91804   1.300  23.509  10.996
23411W        W91805   6.826  44.533   3.863
23412W        W91806   6.577  42.263   0.036
23413W        W91807  23.609   1.542  10.553
23414W        W91808  31.920   3.691   3.590
23415W        W91809  33.652   1.382   1.812
23416W        W91810   3.665  35.934  11.741
23417W        W91811  22.850  37.333   0.843
23418W        W91812  15.866  22.856   2.321
23419W        W91813   0.003  29.484   2.792
23420W        W91814  25.530  44.563   0.276
23421W        W91815  18.756  25.860  11.578
23422W        W91816  28.013  35.829  10.921
23423W        W91817   0.700  12.653  13.078
23424W        W91818  17.537  15.760   3.712
23425W        W91819  37.637   8.008  11.357
23426W        W91820  28.427  27.519  11.944
23427W        W91821  22.144  13.265  12.250
23428W        W91822  17.549  44.637   0.712
23429W        W91823  31.966  30.371  13.295
23430W        W91824  10.592   4.150  10.789
23431W        W91825  26.920  21.793  13.047
23432W        W91826  26.480  30.647   0.284
23433W        W91827  10.687  17.857  11.565
23434W        W91828  29.578   8.452   4.562
23435W        W91829  24.098  15.405   1.900
23436W        W91830  33.371  12.445   2.223
23437W        W91831  24.034  39.978  11.425
23438W        W91832  38.499   5.303   0.559
23439W        W91833  20.231  21.610   1.756
23440W        W91834   6.064   1.886   0.050
23441W        W91835  23.780  39.760   4.688
23442W        W91836  12.836   6.497   5.035
23443W        W91837  24.158   8.661   5.103
23444W        W91838  44.089  17.142  11.905
23445W        W91839  27.445   2.085  12.885
23446W        W91840  18.253  41.495  13.021
23447W        W91841  40.772  13.200  11.003
23448W        W91842  39.101  18.341   3.231
23449W        W91843   0.375  23.074  13.867
23450W        W91844  22.454  10.464  10.628
23451W        W91845  21.119  37.559  14.799
23452W        W91846   5.620   1.645  12.056
23453W        W91847  24.579  43.005  12.481
23454W        W91848  34.514  42.029  14.543
23455W        W91849   4.424  12.106   2.410
23456W        W91850  30.462  37.601  10.913
23457W        W91851  22.453  26.224  13.840
23458W        W91852  35.615  20.592  12.217
23459W        W91853  14.208  44.254  14.418
23460W        W91854  41.249  19.230  14.023
23461W        W91855  18.790  11.099  10.721
23462W        W91856  31.949  20.065  10.614
23463W        W91857   6.586   2.741  11.401
23464W        W91858  29.150  17.675   4.324
23465W        W91859  22.264  42.366  14.118
23466W        W91860  37.488  18.030  13.596
23467W        W91861  12.296  14.133  12.435
23468W        W91862  22.778  30.069   4.698
23469W        W91863   3.279  10.366  13.045
23470W        W91864   1.230  20.071  11.602
23471W        W91865   3.743  34.476   3.722
23472W        W91866  24.156  40.005   1.337
23473W        W91867  23.827  12.083   0.770
23474W        W91868  15.113   5.730  11.611
23475W        W91869  30.427  35.983   2.700
23476W        W91870  23.055  25.413  13.150
23477W        W91871  27.752  15.173   0.935
23478W        W91872  33.985   7.246   2.353
23479W        W91873  14.497  30.828  13.010
23480W        W91874  44.794  19.933  14.543
23481W        W91875  24.589  22.813   4.082
23482W        W91876  22.768  19.988  11.967
23483W        W91877  44.647  29.486   0.091
23484W        W91878   6.992   9.403   2.867
23485W        W91879  18.539  24.639  10.703
23486W        W91880  40.821   2.789   0.374
23487W        W91881  39.858  37.534  11.026
23488W        W91882  16.709  32.592   2.887
23489W        W91883  34.152   2.922   4.663
23490W        W91884  10.309   3.331   3.988
23491W        W91885  40.623  44.901   2.655
23492W        W91886  34.524  40.636   1.412
23493W        W91887   4.680  19.043   3.720
23494W        W91888  41.988  31.363   2.014
23495W        W91889   9.220  41.028  11.633
23496W        W91890  42.090  31.286   0.791
23497W        W91891  22.616  36.096   3.015
23498W        W91892  26.624  18.132  12.494
23499W        W91893  14.358  35.105  11.803
23500W        W91894  13.974   8.698  14.901
23501W        W91895   9.773  33.582  12.495
23502W        W91896  15.549  14.859   1.294
23503W        W91897  27.259   8.805   0.416
23504W        W91898  25.716  20.416   4.693
23505W        W91899  38.458   6.266  11.945
23506W        W91900  14.800  18.316   0.225
23507W        W91901  19.854  27.409  11.645
23508W        W91902   3.940   0.000  14.302
23509W        W91903  40.119  30.294   0.375
23510W        W91904  29.124  28.435  11.125
23511W        W91905  29.288   0.348  10.208
23512W        W91906  22.210  43.972  12.501
23513W        W91907  44.855   9.327   3.394
23514W        W91908  30.384  26.560   2.283
23515W        W91909   2.309  18.313  14.546
23516W        W91910   1.460  40.879  13.951
23517W        W91911  18.142  16.304   3.699
23518W        W91912  25.098  17.041   0.111
23519W        W91913  31.200  32.908  13.124
23520W        W91914  19.734  23.013  10.383
23521W        W91915  21.823   4.378  10.374
23522W        W91916   1.761  24.176   4.998
23523W        W91917  37.124  35.388   4.191
23524W        W91918  12.764  35.022   1.186
23525W        W91919  40.298  40.915   1.507
23526W        W91920  29.687   6.358   2.340
23527W        W91921   1.246   9.557  11.088
23528W        W91922  20.426  30.984   3.331
23529W        W91923  44.343  33.174  11.382
23530W        W91924  16.308  33.932  10.716
23531W        W91925  26.539  27.454   4.579
23532W        W91926  12.423  29.027  10.783
23533W        W91927  44.775  22.011  10.673
23534W        W91928   5.372   2.710  11.104
23535W        W91929   1.218  43.848  13.824
23536W        W91930  32.025   8.466  12.973
23537W        W91931   3.882  39.355  10.389
23538W        W91932  34.105   1.766  13.545
23539W        W91933  29.217  25.720  14.928
23540W        W91934   9.112  13.336  13.969
23541W        W91935  30.566   4.950  11.120
23542W        W91936  37.476  28.527   3.350
23543W        W91937   2.487  42.101   4.349
23544W        W91938  33.474  35.228  14.991
23545W        W91939  20.362   2.744   2.661
23546W        W91940  25.226  28.173   4.238
23547W        W91941  17.098   2.332  11.460
23548W        W91942  14.145  44.332   1.482
23549W        W91943  13.866  27.042  11.562
23550W        W91944  26.443  25.549  10.696
23551W        W91945  27.508  42.526   1.495
23552W        W91946  12.430  29.932   0.354
23553W        W91947   4.969   7.314  11.478
23554W        W91948  24.906  27.642   3.294
23555W        W91949  12.906   5.182  14.590
23556W        W91950  16.424  37.535   4.588
23557W        W91951  20.020  13.477   3.254
23558W        W91952  29.669  31.008   4.590
23559W        W91953  36.400   4.961   2.160
23560W        W91954  20.441  43.042  10.769
23561W        W91955  39.967  29.101  13.545
23562W        W91956   8.563  24.965  14.411
23563W        W91957  39.845  11.270   3.182
23564W        W91958   0.937  20.868   0.803
23565W        W91959  42.348  21.483   4.322
23566W        W91960  11.409  22.681   4.123
23567W        W91961   5.863   1.758  13.590
23568W        W91962  11.707  39.946  11.573
23569W        W91963  30.024   0.014  12.888
23570W        W91964  40.983  29.129   3.885
23571W        W91965   5.902  14.780  10.259
23572W        W91966  35.838  39.326  12.529
23573W        W91967  18.022  38.886   2.274
23574W        W91968  36.439  24.777  13.365
23575W        W91969  35.475  23.974  14.359
23576W        W91970  33.117  11.829   1.677
23577W        W91971  31.449  34.548   0.194
23578W        W91972  20.637  12.851  11.198
23579W        W91973  19.365   8.879   1.807
23580W        W91974  31.632  44.066   1.446
23581W        W91975  11.135  28.410  12.680
23582W        W91976  20.628  23.117  14.781
23583W        W91977  34.434  24.786   0.337
23584W        W91978  19.255  44.369  10.191
23585W        W91979  32.677  17.977  12.107
23586W        W91980  13.827   0.767   1.710
23587W        W91981  27.202  39.035   2.410
23588W        W91982  27.069   5.962   1.094
23589W        W91983   3.899  41.997   0.473
23590W        W91984  25.147  37.723   0.955
23591W        W91985  21.581  30.063   1.973
23592W        W91986  28.054  19.591   0.928
23593W        W91987  41.245   6.160  11.188
23594W        W91988   8.610  27.700   0.022
23595W        W91989  31.441   7.107   3.843
23596W        W91990  20.939  24.226  14.010
23597W        W91991  29.086  25.191   4.276
23598W        W91992  11.375   3.275   4.570
23599W        W91993  34.452  12.384   2.699
23600W        W91994  11.700  12.967   1.801
23601W        W91995  40.025   6.465  11.526
23602W        W91996   7.871  37.635  14.899
23603W        W91997  22.761   5.306   3.537
23604W        W91998  41.160  14.541   0.116
23605W        W91999   3.706  11.667  11.506
23606W        W92000  16.761  37.878   2.693
23607W        W92001   9.816  39.769   1.728
23608W        W92002  13.802   4.098   2.644
23609W        W92003  41.960  36.501   3.844
23610W        W92004   0.926  35.477   0.230
23611W        W92005  21.633  12.214   0.446
23612W        W92006   7.881  40.516   0.325
23613W        W92007  17.632   0.523   0.416
23614W        W92008   9.630  37.520   2.408
23615W        W92009  18.855   3.840  10.617
23616W        W92010   5.793  39.644  12.087
23617W        W92011  24.657  12.316  13.484
23618W        W92012   6.494   9.276   2.976
23619W        W92013   2.697  21.174   4.522
23620W        W92014   5.971  39.809   2.457
23621W        W92015  37.059  43.933   3.973
23622W        W92016  15.332  42.768   2.769
23623W        W92017  37.155   9.944  12.577
23624W        W92018  39.900  17.799   0.172
23625W        W92019   6.431   5.842  12.535
23626W        W92020   2.177   8.813  10.795
23627W        W92021  20.251  14.795  13.608
23628W        W92022  38.089  25.675  13.738
23629W        W92023  21.042  20.560   2.262
23630W        W92024  38.366  12.534   4.344
23631W        W92025  38.288  31.467   4.615
23632W        W92026   5.240  11.896   0.510
23633W        W92027   0.286  27.493   4.549
23634W        W92028  19.004  26.929  14.199
23635W        W92029  32.300   8.727  13.475
23636W        W92030  25.029  17.391   3.272
23637W        W92031  24.526  42.195   3.191
23638W        W92032   1.948  36.584   1.202
23639W        W92033   2.181  32.535   4.225
23640W        W92034  41.043   0.216   0.928
23641W        W92035  17.471  16.398   4.539
23642W        W92036  15.048  37.394   1.337
23643W        W92037  14.688   1.960  13.567
23644W        W92038   8.843  29.686  13.925
23645W        W92039   1.777  32.544   1.908
23646W        W92040  10.914  21.522  12.098
23647W        W92041  11.920   9.643  10.636
23648W        W92042  30.047  12.731   3.362
23649W        W92043  30.522  18.728   3.579
23650W        W92044   8.092  27.652   0.042
23651W        W92045  15.147  12.303  13.477
23652W        W92046   3.938  44.738   2.599
23653W        W92047   8.176  12.263  10.746
23654W        W92048  40.976   4.726  12.196
23655W        W92049  35.074   8.800   2.346
23656W        W92050  26.000  19.733   4.181
23657W        W92051   1.759  10.885   3.375
23658W        W92052  11.898  35.976   4.737
23659W        W92053  29.449  27.026   2.732
23660W        W92054  26.983  28.072  11.758
23661W        W92055   1.447  15.571   2.324
23662W        W92056  24.456  43.433   4.930
23663W        W92057   9.323  37.906  14.509
23664W        W92058  12.801  21.386  11.996
23665W        W92059  20.930  35.853   1.425
23666W        W92060  17.585   3.923  12.919
23667W        W92061  40.975  20.569  13.938
23668W        W92062  21.489   7.094  10.801
23669W        W92063  38.181   1.889  12.988
23670W        W92064  39.824  31.227   4.132
23671W        W92065   0.224  19.209  12.511
23672W        W92066   3.869  35.500   3.883
23673W        W92067  31.185  41.009   1.721
23674W        W92068  17.997   6.275   0.291
23675W        W92069  35.443   1.030   4.493
23676W        W92070   2.201  25.534  14.028
23677W        W92071  38.106  21.487   2.824
23678W        W92072  11.694  17.052   3.615
23679W        W92073  13.601  17.427  12.790
23680W        W92074  19.350  37.144  10.203
23681W        W92075  31.805  15.144  14.869
23682W        W92076  21.699  26.974  10.640
23683W        W92077  18.407  27.777  11.211
23684W        W92078   3.965   5.244  11.183
23685W        W92079  10.766   9.031   0.292
23686W        W92080  27.238  22.040  13.393
23687W        W92081  30.169  40.061  10.480
23688W        W92082  24.738  34.982   3.340
23689W        W92083  23.380  21.135   0.402
23690W        W92084  34.299  26.901   2.824
23691W        W92085  39.010  36.039  11.426
23692W        W92086   5.904   0.419   1.979
23693W        W92087  42.305  10.603   0.303
23694W        W92088  40.134  23.179  10.988
23695W        W92089   3.708  16.154  13.867
23696W        W92090   3.178  17.539  12.101
23697W        W92091  15.162  21.700  10.645
23698W        W92092   4.460  40.465   4.145
23699W        W92093   9.893  30.743   4.119
23700W        W92094  38.911  27.706   0.005
23701W        W92095  11.289  12.440   0.973
23702W        W92096   4.508   7.158  13.479
23703W        W92097  19.633  41.497   4.789
23704W        W92098  15.222  38.634  12.921
23705W        W92099   5.717  16.412  14.062
23706W        W92100  25.159   4.908  10.655
23707W        W92101   7.256  19.564  10.588
23708W        W92102  33.488  34.137  11.954
23709W        W92103  42.822  10.140   3.124
23710W        W92104   3.354   8.174  10.801
23711W        W92105   0.953   5.779   4.886
23712W        W92106  22.607  36.416   1.703
23713W        W92107   2.278  35.939  13.019
23714W        W92108  22.283  13.258   3.653
23715W        W92109  21.160  38.293   3.499
23716W        W92110  14.325  25.619   4.287
23717W        W92111  40.052  33.465   4.397
23718W        W92112  10.949  36.931  10.810
23719W        W92113  31.071  25.730  14.575
23720W        W92114  42.657  42.972  13.203
23721W        W92115  13.502  16.545  13.349
23722W        W92116  17.359   1.452  11.094
23723W        W92117  33.320  11.765   4.634
23724W        W92118  32.888  28.111  10.520
23725W        W92119  20.784   9.839  12.568
23726W        W92120   4.362   6.999   2.826
23727W        W92121  19.878   5.335   0.885
23728W        W92122  20.079  14.685   0.865
23729W        W92123  43.889  31.623  12.824
23730W        W92124   0.683   2.988   1.225
23731W        W92125   3.703  41.444   1.841
23732W        W92126   4.163  28.241   0.081
23733W        W92127   5.115  19.320  12.568
23734W        W92128  15.311  20.054  10.738
23735W        W92129  33.856   4.468  11.039
23736W        W92130  14.870   4.649   0.391
23737W        W92131  19.548  27.560   2.472
23738W        W92132  37.880  26.990  12.607
23739W        W92133  31.381  31.508   3.125
23740W        W92134  12.672  26.691  13.332
23741W        W92135  11.876   4.322   4.172
23742W        W92136   1.457  24.037   0.521
23743W        W92137   1.227   8.108  14.323
23744W        W92138  32.970  22.669   3.408
23745W        W92139  13.613  38.548   1.493
23746W        W92140  38.030  26.076   3.299
23747W        W92141  37.332  30.524   0.905
23748W        W92142   2.750  25.966   1.354
23749W        W92143  42.956  14.048  12.545
23750W        W92144  42.045  20.720  10.754
23751W        W92145   3.406  42.491   4.732
23752W        W92146  21.538   1.888   4.619
23753W        W92147  33.106  41.972  12.464
23754W        W92148  42.991   8.395  13.540
23755W        W92149  23.864  18.848  11.298
23756W        W92150  34.843  22.705  14.255
23757W        W92151   6.916  19.046   3.711
23758W        W92152  31.944  32.594   3.549
23759W        W92153  23.603  20.917   1.185
23760W        W92154  13.222  18.936  10.663
23761W        W92155  42.383  35.393  12.376
23762W        W92156  23.416  10.171  13.001
23763W        W92157  36.173  40.369   4.921
23764W        W92158  31.317  29.029  11.597
23765W        W92159  18.835   5.294  14.907
23766W        W92160  25.181  33.352   2.027
23767W        W92161  24.616  29.909   4.312
23768W        W92162  44.294  36.454  12.093
23769W        W92163   9.725  32.324   1.712
23770W        W92164  24.480   3.197   0.198
23771W        W92165   7.238   2.375   0.799
23772W        W92166   9.774   3.157   1.764
23773W        W92167  13.848   8.376   1.648
23774W        W92168   9.173  22.278  14.014
23775W        W92169  25.441   9.678   4.101
23776W        W92170   9.335  16.331   3.685
23777W        W92171  33.158  22.158   3.368
23778W        W92172  15.589  27.462   4.516
23779W        W92173   2.766  23.510   4.573
23780W        W92174  13.825   8.809  13.604
23781W        W92175   2.737   9.132  12.900
23782W        W92176  23.048  43.898   5.019
23783W        W92177  37.947  20.582  10.685
23784W        W92178  34.734  43.712   0.774
23785W        W92179  21.050   5.856  11.387
23786W        W92180  41.114  37.324   3.646
23787W        W92181  35.625  32.571  14.767
23788W        W92182   1.120   0.141   0.661
23789W        W92183  27.569  21.379   4.146
23790W        W92184  22.778  10.753  12.640
23791W        W92185  35.621  18.600   1.258
23792W        W92186  41.264  29.397   0.904
23793W        W92187  29.846  44.652   2.757
23794W        W92188  37.857  26.127   1.654
23795W        W92189  10.533  14.119   4.195
23796W        W92190  19.315   4.715   2.746
23797W        W92191  17.120  22.692   0.772
23798W        W92192  13.841  13.024  12.727
23799W        W92193  37.107  32.496   3.037
23800W        W92194  35.060  10.156   4.201
23801W        W92195  17.857   7.300  12.411
23802W        W92196  40.841   2.935  10.806
23803W        W92197  41.596  25.692  12.502
23804W        W92198  31.055  16.395  12.561
23805W        W92199  19.140  33.655  13.274
23806W        W92200  19.562  31.811   1.135
23807W        W92201  12.231  26.175   1.848
23808W        W92202  43.358  21.679  11.553
23809W        W92203  30.805  39.619   1.202
23810W        W92204  17.569  12.572   3.173
23811W        W92205  41.790   7.978   3.992
23812W        W92206  29.998  42.847  13.392
23813W        W92207   9.171  19.973   3.174
23814W        W92208  13.295  28.300  11.142
23815W        W92209  11.758   5.306  13.173
23816W        W92210  12.697  36.819  11.567
23817W        W92211  21.305  12.831   4.417
23818W        W92212  20.837  31.676   2.229
23819W        W92213  27.986  38.576   2.323
23820W        W92214  43.053  40.510  10.323
23821W        W92215   1.177  10.861   4.868
23822W        W92216  23.102  25.452  12.140
23823W        W92217  29.223  34.804  10.531
23824W        W92218   2.968   4.181   3.999
23825W        W92219   6.348  29.103   4.812
23826W        W92220  23.700  41.079   2.306
23827W        W92221  41.349  30.426  12.644
23828W        W92222  27.177  30.648   0.807
23829W        W92223  10.398  29.065   4.534
23830W        W92224   1.408  28.216   4.417
23831W        W92225  28.524   5.405   1.249
23832W        W92226   3.380  29.687   1.882
23833W        W92227  30.532   3.338  12.825
23834W        W92228  40.705  14.759  12.974
23835W        W92229  13.298   3.490  13.978
23836W        W92230  39.462  27.071  13.836
23837W        W92231   3.925  16.831  10.247
23838W        W92232  40.447  25.639  12.470
23839W        W92233  39.284  31.602   2.972
23840W        W92234  19.756   2.924  14.361
23841W        W92235  29.654  34.815  13.057
23842W        W92236  30.462  21.978  12.090
23843W        W92237  28.541  24.715   0.442
23844W        W92238  40.454   1.274   1.994
23845W        W92239  22.561  23.459  13.484
23846W        W92240  32.839  42.454  12.425
23847W        W92241  25.812  28.420  12.889
23848W        W92242  20.307  44.346  10.822
23849W        W92243  11.704  12.884  12.880
23850W        W92244  11.157  19.544   2.800
23851W        W92245  39.353  20.072   0.395
23852W        W92246  43.023  23.445   3.698
23853W        W92247  17.248  26.683   2.685
23854W        W92248  12.768  19.863   2.746
23855W        W92249   3.840  19.751   0.937
23856W        W92250  19.434  24.743   2.879
23857W        W92251  26.889   3.306  10.768
23858W        W92252  42.484  30.347  12.490
23859W        W92253  11.702  28.491  13.992
23860W        W92254  40.262  15.609  12.944
23861W        W92255  17.139  21.960   1.942
23862W        W92256  30.691  21.664  14.072
23863W        W92257  17.643  10.329   3.637
23864W        W92258  12.802  33.759   1.247
23865W        W92259   5.277  42.583  14.778
23866W        W92260  39.642  37.583  10.456
23867W        W92261  44.023  27.531  13.236
23868W        W92262  30.707  35.151   4.678
23869W        W92263   1.852   9.793   4.451
23870W        W92264  34.997  41.777   3.271
23871W        W92265  32.058  25.064   2.225
23872W        W92266  29.939  20.970  11.609
23873W        W92267  27.767  39.351   4.653
23874W        W92268   1.279  29.923   0.983
23875W        W92269  23.527  25.473   0.825
23876W        W92270  18.362  30.003   2.756
23877W        W92271  15.852  10.606  14.182
23878W        W92272  12.886   0.469  11.660
23879W        W92273  32.950  26.715   5.090
23880W        W92274  14.375  14.368   3.060
23881W        W92275  22.947  26.744  12.447
23882W        W92276  17.746  41.365   0.391
23883W        W92277  26.459  15.276   0.396
23884W        W92278  15.557  14.719  12.653
23885W        W92279  35.469  40.789  14.437
23886W        W92280  28.642  40.351   1.022
23887W        W92281   4.409   8.290   3.236
23888W        W92282  33.575  18.910  13.809
23889W        W92283   5.742  31.401  12.578
23890W        W92284  10.374  12.792   0.754
23891W        W92285   2.284   6.327  10.801
23892W        W92286  10.878  35.498   0.121
23893W        W92287  13.337  43.953   4.601
23894W        W92288   9.229  34.880   2.242
23895W        W92289  42.082   0.071  12.442
23896W        W92290  15.202  43.404   0.223
23897W        W92291   1.761  19.584   4.281
23898W        W92292   9.925  21.688   4.173
23899W        W92293   2.648  21.818  14.359
23900W        W92294  25.947  43.151   2.576
23901W        W92295  27.267  23.326  11.320
23902W        W92296  14.378   9.544  10.970
23903W        W92297  28.983  12.069   3.190
23904W        W92298  30.633  14.069  13.404
23905W        W92299  26.458  15.208  12.781
23906W        W92300  12.206  26.857  11.094
23907W        W92301  28.921  17.369   2.286
23908W        W92302  12.522  21.207  12.445
23909W        W92303   5.220   2.501  14.235
23910W        W92304   3.685  36.071   0.327
23911W        W92305  22.556   3.814   1.247
23912W        W92306  39.908  38.587   1.304
23913W        W92307  34.548   1.857  13.801
23914W        W92308  12.749  39.529  10.533
23915W        W92309   3.494  32.141   2.878
23916W        W92310   7.728   2.579  14.545
23917W        W92311  17.674  26.023  13.546
23918W        W92312  12.299  36.196   4.413
23919W        W92313  32.984  17.291   2.601
23920W        W92314  29.093  39.821   2.311
23921W        W92315  44.043  35.838  12.041
23922W        W92316   9.391  16.633   9.931
23923W        W92317  31.821  11.593   1.310
23924W        W92318  16.663  29.409   3.716
23925W        W92319  20.907  10.859  11.945
23926W        W92320  38.268  39.750   0.088
23927W        W92321  19.319   2.271   3.219
23928W        W92322  37.254   1.042   4.226
23929W        W92323  26.561  33.164   0.457
23930W        W92324  16.792  14.189   1.256
23931W        W92325  21.382  22.812  11.653
23932W        W92326  25.670  13.073  13.005
23933W        W92327  42.296  38.086  10.862
23934W        W92328  24.474  23.219   1.176
23935W        W92329  10.403  33.998  11.682
23936W        W92330  11.833  22.756   1.274
23937W        W92331   0.983  10.166  13.766
23938W        W92332  44.905  13.143  12.472
23939W        W92333  42.355  32.014   1.785
23940W        W92334   8.794  30.572  14.917
23941W        W92335  40.511  21.948  12.978
23942W        W92336  31.149   8.661   2.429
23943W        W92337  15.727  35.075  12.069
23944W        W92338  23.213  18.195   4.136
23945W        W92339  14.744  15.551  12.011
23946W        W92340   7.133   4.419  14.438
23947W        W92341  40.307  32.439  11.524
23948W        W92342   7.291  11.122   4.717
23949W        W92343   7.287  21.542  14.986
23950W        W92344   2.121   3.037   4.314
23951W        W92345  35.621  17.787   3.618
23952W        W92346   7.893  20.681  10.812
23953W        W92347  34.114  41.555   0.405
23954W        W92348  28.759  20.664   0.876
23955W        W92349  33.015   0.258  14.972
23956W        W92350   4.575  29.628  12.893
23957W        W92351  27.370   5.897  13.273
23958W        W92352  33.383  30.396  12.281
23959W        W92353  33.979  28.122   4.173
23960W        W92354  13.629  41.838  11.711
23961W        W92355  32.613  24.666  14.042
23962W        W92356   2.584  44.963   2.306
23963W        W92357  19.638  13.877  11.916
23964W        W92358  31.782  16.698   0.240
23965W        W92359  13.849  20.161   4.407
23966W        W92360  13.773  26.715  10.660
23967W        W92361  16.310  28.849   2.632
23968W        W92362  14.868  32.122  12.519
23969W        W92363  24.509  34.651   1.706
23970W        W92364   6.287  18.981   0.311
23971W        W92365  23.948   4.702  14.255
23972W        W92366   3.485  29.661   2.398
23973W        W92367   0.001  36.411  10.273
23974W        W92368   5.828  12.771   2.793
23975W        W92369  32.242  35.352  14.293
23976W        W92370   9.110  23.556  13.506
23977W        W92371  11.451  35.375  13.913
23978W        W92372  27.395  32.032  10.629
23979W        W92373  34.804   6.073  11.533
23980W        W92374  26.761  40.522   3.180
23981W        W92375  40.718  37.741  11.608
23982W        W92376  21.247  41.436   2.356
23983W        W92377  15.094  44.295   2.874
23984W        W92378  22.802   7.698   4.322
23985W        W92379  15.912  41.315  12.183
23986W        W92380  14.626   2.701  14.328
23987W        W92381   6.391  17.671  14.782
23988W        W92382  35.585  33.507  11.625
23989W        W92383  11.200   6.914   1.761
23990W        W92384  18.660  23.608  14.741
23991W        W92385  20.725   9.403   2.890
23992W        W92386  14.599  29.949   3.082
23993W        W92387  33.757   1.147  12.487
23994W        W92388  30.849  43.337   0.757
23995W        W92389   4.444  19.724   1.827
23996W        W92390  10.856  14.744  13.368
23997W        W92391  11.777   3.869   1.967
23998W        W92392  36.041   4.224   2.390
23999W        W92393  36.109  18.695   4.892
24000W        W92394  12.714  41.773   0.781
24001W        W92395  25.174  23.230  12.979
24002W        W92396  30.698   5.694  13.881
24003W        W92397  18.067  10.055   1.381
24004W        W92398   5.403  31.742   0.620
24005W        W92399  28.200  11.395   2.325
24006W        W92400  12.106  43.274   0.268
24007W        W92401  38.392  17.520   4.602
24008W        W92402   5.954  44.437  12.903
24009W        W92403  28.588  29.551   3.068
24010W        W92404  29.348  23.494  14.301
24011W        W92405   4.900  16.035  11.649
24012W        W92406   4.878  44.827   0.711
24013W        W92407   3.468  23.270   2.185
24014W        W92408  41.961  20.677   1.313
24015W        W92409  14.781  10.353  13.865
24016W        W92410  36.674   3.478  14.348
24017W        W92411   7.731   8.642  11.297
24018W        W92412  32.000   1.045   2.589
24019W        W92413   8.411  12.738   4.561
24020W        W92414  28.548  11.719   4.277
24021W        W92415   0.275  17.494   0.980
24022W        W92416  44.476  40.421  13.094
24023W        W92417  41.461   7.972   2.542
24024W        W92418   8.329   9.605   1.440
24025W        W92419  39.020  36.286   2.275
24026W        W92420  10.631   5.740  13.542
24027W        W92421  35.513  17.331   0.032
24028W        W92422  15.837   2.913  14.193
24029W        W92423  14.195  30.956   4.750
24030W        W92424  41.460   1.844  11.103
24031W        W92425  43.737  38.586  11.624
24032W        W92426  15.594  26.183   4.125
24033W        W92427  28.296   3.396  12.891
24034W        W92428   1.486  28.492   1.730
24035W        W92429  26.743  28.820   2.634
24036W        W92430  43.640  32.588   0.312
24037W        W92431  31.166  42.797   1.265
24038W        W92432  28.627  16.164   0.262
24039W        W92433  18.720  43.465  10.865
24040W        W92434   4.168  19.757  11.432
24041W        W92435  25.515  36.282  12.449
24042W        W92436  27.045  27.538   4.541
24043W        W92437  17.854  43.835  13.019
24044W        W92438  11.134  13.592  12.497
24045W        W92439  26.977  29.908   1.123
24046W        W92440  12.261   7.333   3.241
24047W        W92441  31.157  25.276  13.491
24048W        W92442  27.739  29.563   1.355
24049W        W92443  40.523   1.744   2.232
24050W        W92444  35.352  31.219  12.975
24051W        W92445   0.362  16.395  12.377
24052W        W92446  26.260   9.947   0.807
24053W        W92447  41.979  13.546  10.969
24054W        W92448  38.863  44.320   3.074
24055W        W92449  40.573   2.932  12.954
24056W        W92450  43.050  19.823  13.539
24057W        W92451   0.904  43.881  11.580
24058W        W92452   6.859  22.513   3.767
24059W        W92453   4.065   3.162   0.511
24060W        W92454   8.857   0.283  11.908
24061W        W92455  29.625  44.961  12.120
24062W        W92456  38.650  35.459   3.365
24063W        W92457  13.152  41.892   5.036
24064W        W92458  18.722  24.706   2.229
24065W        W92459  42.571  43.905  12.140
24066W        W92460   5.398  15.404  13.106
24067W        W92461  29.734  12.543  13.008
24068W        W92462   1.766  43.990   0.884
24069W        W92463  44.257   8.813   0.529
24070W        W92464  33.567  26.251   2.213
24071W        W92465  42.527  38.535  10.268
24072W        W92466  30.384  20.406  13.668
24073W        W92467  36.023  29.982   1.920
24074W        W92468  40.206  36.083  10.639
24075W        W92469  23.762   4.790   3.222
24076W        W92470  18.442   6.571   1.824
24077W        W92471  17.766  42.215  11.022
24078W        W92472  32.205  37.187  14.480
24079W        W92473  28.879   2.070  14.897
24080W        W92474   7.145  33.002   2.700
24081W        W92475  26.448  43.316   1.858
24082W        W92476   5.159  29.200   3.181
24083W        W92477  30.401  31.009  14.137
24084W        W92478  11.233  15.325   0.735
24085W        W92479  30.685   7.654   3.833
24086W        W92480  34.836  24.494  13.491
24087W        W92481  39.265  33.650   1.418
24088W        W92482   9.271  43.225   3.705
24089W        W92483  22.550  19.917  10.608
24090W        W92484  22.671   5.441   4.059
24091W        W92485   0.797  30.669   1.988
24092W        W92486  34.858  20.143   1.712
24093W        W92487  38.318   2.290   0.034
24094W        W92488  38.472  41.543   2.562
24095W        W92489  20.718  26.610  14.079
24096W        W92490   3.289  37.936  14.244
24097W        W92491   1.005  29.121  13.326
24098W        W92492  22.085  24.993   0.846
24099W        W92493  21.977  38.271  13.383
24100W        W92494  32.472  36.591   3.684
24101W        W92495  35.521  23.930   1.610
24102W        W92496  11.252   1.466  14.112
24103W        W92497  42.018  18.815  12.510
24104W        W92498  29.444  10.647  13.895
24105W        W92499  17.194  33.132   1.950
24106W        W92500  30.922  44.540  12.027
24107W        W92501  23.640   5.444   2.380
24108W        W92502   3.000  23.052   0.427
24109W        W92503  37.413   7.719  13.857
24110W        W92504  24.752  21.130  12.132
24111W        W92505  44.887  20.023   1.105
24112W        W92506  41.206  33.425   3.583
24113W        W92507   6.702  44.068  12.067
24114W        W92508  41.144   1.350  11.167
24115W        W92509  32.151  35.018   0.470
24116W        W92510  29.717   2.155   4.182
24117W        W92511  42.097  28.991  11.210
24118W        W92512  24.153  30.928  14.282
24119W        W92513  44.515  18.770  14.977
24120W        W92514   8.895   7.475   3.756
24121W        W92515  33.381  23.657  10.567
24122W        W92516  18.861  35.434  12.831
24123W        W92517  31.046  34.942   2.321
24124W        W92518  12.772  36.441   3.343
24125W        W92519  29.026  30.031  11.173
24126W        W92520  14.549  32.546  11.610
24127W        W92521  30.500   6.198   3.659
24128W        W92522   2.228  12.343  11.489
24129W        W92523  36.281  17.733  14.714
24130W        W92524  18.562   2.725   1.007
24131W        W92525   5.144  10.941   1.813
24132W        W92526  16.087  11.833   2.324
24133W        W92527   8.940  35.065   0.738
24134W        W92528  32.401  20.610   0.463
24135W        W92529   9.118  12.811  12.410
24136W        W92530  40.870  23.626   0.414
24137W        W92531  10.302  42.620   2.244
24138W        W92532  21.736  14.731   2.373
24139W        W92533  42.960  41.370   2.837
24140W        W92534  34.134   1.260   0.454
24141W        W92535  39.472  31.843  10.622
24142W        W92536   3.872  31.095   0.503
24143W        W92537  21.765  18.580  10.449
24144W        W92538  38.416  18.471   4.749
24145W        W92539  41.249  22.200   3.432
24146W        W92540  44.247  39.530  13.902
24147W        W92541  11.625  41.528  10.777
24148W        W92542  24.058  20.705  11.624
24149W        W92543   1.420  39.621   1.602
24150W        W92544  33.589  17.272  14.505
24151W        W92545   8.612  33.872  11.235
24152W        W92546   0.357   1.258  14.209
24153W        W92547  20.234  19.580  10.663
24154W        W92548  13.537  18.356   1.951
24155W        W92549  37.404  12.784  11.221
24156W        W92550  24.826  42.692   1.714
24157W        W92551  31.015  33.573   1.926
24158W        W92552  31.415  42.475  13.570
24159W        W92553  14.366  19.768  12.473
24160W        W92554  10.742  34.782   2.641
24161W        W92555  34.956  21.704  10.810
24162W        W92556  40.547   1.738  11.659
24163W        W92557   5.140   9.769   3.238
24164W        W92558   4.428   3.107   4.587
24165W        W92559   3.036   6.241   0.969
24166W        W92560  14.932  36.190  12.970
24167W        W92561  11.104   1.969   1.379
24168W        W92562   9.730  20.152  14.288
24169W        W92563  15.807  29.539   4.219
24170W        W92564  13.896   9.577  14.884
24171W        W92565   8.235  13.559   2.781
24172W        W92566  40.376  35.893  13.553
24173W        W92567   0.368  23.791   1.287
24174W        W92568   7.239  22.338  12.477
24175W        W92569  43.046  18.857   2.789
24176W        W92570  22.736  33.499   0.304
24177W        W92571  12.345   5.861   2.812
24178W        W92572  34.087   1.512   0.894
24179W        W92573  29.491  22.414  14.031
24180W        W92574  21.804  40.343  14.450
24181W        W92575  10.165  28.184  14.280
24182W        W92576   2.112  31.433   0.407
24183W        W92577  11.852  17.165  14.340
24184W        W92578   9.250  14.060   1.715
24185W        W92579  29.304  30.658   4.313
24186W        W92580  28.982   5.459  14.978
24187W        W92581  44.877  41.155  11.613
24188W        W92582   4.939  42.224  13.122
24189W        W92583  11.252  21.169  14.818
24190W        W92584  22.669   4.433  12.850
24191W        W92585  13.341  28.904  10.321
24192W        W92586  29.184   4.393   0.347
24193W        W92587   7.954  16.583   0.214
24194W        W92588   1.328   8.357   1.907
24195W        W92589  35.838   5.664  12.884
24196W        W92590  12.387  44.102   4.597
24197W        W92591  30.250  25.596  11.529
24198W        W92592  20.538  23.260   4.372
24199W        W92593  38.536  12.695  14.339
24200W        W92594   7.857  25.433  14.828
24201W        W92595  26.558  13.703  11.246
24202W        W92596  23.254  14.126  10.750
24203W        W92597  44.583  24.948  10.232
24204W        W92598  39.837  35.113  12.906
24205W        W92599  36.374  35.165   3.275
24206W        W92600  18.885  28.587  14.890
24207W        W92601  25.856  33.762  14.403
24208W        W92602  15.116  16.758   0.797
24209W        W92603   9.999  38.325   1.359
24210W        W92604  27.188  19.225   4.459
24211W        W92605  35.826  15.343  12.093
24212W        W92606  34.397  19.125   1.193
24213W        W92607  34.075  29.741   4.102
24214W        W92608  40.880   5.824  13.027
24215W        W92609  11.746   0.861   0.104
24216W        W92610  27.007  30.839  11.482
24217W        W92611  24.111  15.845   0.643
24218W        W92612  44.329  34.272   9.970
24219W        W92613   3.354  37.488  14.556
24220W        W92614   2.285  25.767   2.887
24221W        W92615  33.118  31.641  12.040
24222W        W92616  35.364  27.985  13.963
24223W        W92617   7.611  34.044  11.208
24224W        W92618  14.629  39.903  13.972
24225W        W92619  35.886  17.252   3.521
24226W        W92620   9.690  41.516  11.854
24227W        W92621  40.274  37.377  14.278
24228W        W92622   1.699   1.967   4.666
24229W        W92623  25.622   9.427  14.740
24230W        W92624  38.610  17.856  11.251
24231W        W92625  12.214  24.968   2.303
24232W        W92626  39.548  23.028   4.451
24233W        W92627   4.790  44.776   1.635
24234W        W92628  27.893   4.395  13.892
24235W        W92629   2.263  40.485   1.930
24236W        W92630  44.430  17.003  12.573
24237W        W92631  11.671  33.160  12.955
24238W        W92632  30.622   7.095   0.411
24239W        W92633  11.213  30.112  14.927
24240W        W92634  17.647   3.986  14.371
24241W        W92635   4.866  25.479  11.824
24242W        W92636  30.382  36.331  12.523
24243W        W92637  14.401  30.103  11.016
24244W        W92638  28.353   7.228   5.031
24245W        W92639  35.007  18.606  10.679
24246W        W92640   3.435  31.579  14.476
24247W        W92641  44.820  23.309   4.274
24248W        W92642  12.813   3.662  10.324
24249W        W92643  28.913  44.441  12.150
24250W        W92644  25.223  35.624  11.452
24251W        W92645  29.924  34.113   4.161
24252W        W92646  43.067   5.960  13.537
24253W        W92647  25.043  22.096  13.041
24254W        W92648  42.978  31.264  12.482
24255W        W92649  26.020   0.023   1.374
24256W        W92650  28.559  37.477   1.824
24257W        W92651  15.649  32.062   3.241
24258W        W92652  22.601  16.574  13.056
24259W        W92653  31.121  36.173  13.963
24260W        W92654  37.890  40.763   3.977
24261W        W92655  31.316  32.550   1.285
24262W        W92656  34.891  27.576  10.665
24263W        W92657  13.075  32.875   0.795
24264W        W92658  14.705  23.711  13.795
24265W        W92659   3.467   8.362  12.019
24266W        W92660  29.004  11.067   0.786
24267W        W92661   0.280  37.595  10.085
24268W        W92662   5.801   3.420   2.204
24269W        W92663  17.789   2.718   1.840
24270W        W92664  12.393  40.433   3.830
24271W        W92665  20.438   8.815  11.623
24272W        W92666   8.773  13.534  11.037
24273W        W92667  11.186  23.467   2.588
24274W        W92668   6.676  34.115   2.756
24275W        W92669  34.092  17.224  14.580
24276W        W92670  10.904  27.538   0.799
24277W        W92671   4.760  15.808   1.212
24278W        W92672  21.192  36.469   0.807
24279W        W92673  16.504  28.235  11.925
24280W        W92674  15.562  21.472   3.223
24281W        W92675  35.323  17.813   4.069
24282W        W92676   3.970  24.103   0.798
24283W        W92677  30.524  17.236   3.599
24284W        W92678  44.381  44.552  12.818
24285W        W92679  27.976  43.266   2.712
24286W        W92680  13.795  35.021  13.118
24287W        W92681   6.759  19.771   0.260
24288W        W92682  13.589   5.334   2.841
24289W        W92683  34.198   0.391  12.956
24290W        W92684  12.866  41.117   3.214
24291W        W92685  19.659   2.341   4.527
24292W        W92686   9.270  42.983  10.790
24293W        W92687  14.209  39.788  11.481
24294W        W92688  14.909  21.043  13.494
24295W        W92689  19.791   6.952   3.564
24296W        W92690   2.012  42.845   4.632
24297W        W92691  38.859   6.497   0.430
24298W        W92692   9.191  11.274   3.535
24299W        W92693  39.960  23.409   2.199
24300W        W92694   5.306  38.531   2.861
24301W        W92695  35.471   9.520  12.894
24302W        W92696   0.018  15.768   4.086
24303W        W92697  17.540  20.656   1.301
24304W        W92698  29.020  15.813   0.833
24305W        W92699  11.907  33.863   0.726
24306W        W92700  31.568  37.264  11.079
24307W        W92701  26.669  18.728  12.049
24308W        W92702  31.137   2.826   3.557
24309W        W92703  15.362   1.347  14.274
24310W        W92704   7.485  12.617   3.588
24311W        W92705   4.384  16.612   1.411
24312W        W92706  14.786  13.699  12.084
24313W        W92707  36.075  26.997  10.653
24314W        W92708   2.419  40.083  14.351
24315W        W92709  25.960  17.089  14.434
24316W        W92710   1.206  23.631   2.544
24317W        W92711  13.710  40.576   4.230
24318W        W92712  43.876  30.083   1.450
24319W        W92713  42.684  20.644   0.228
24320W        W92714  21.318  16.231   3.219
24321W        W92715  40.212   9.809  14.445
24322W        W92716  29.279   4.745  13.508
24323W        W92717  34.086   0.358   2.730
24324W        W92718  22.534  37.353   3.915
24325W        W92719  15.306  30.613  12.922
24326W        W92720  31.530  13.204  13.898
24327W        W92721   4.975  29.695   1.407
24328W        W92722  41.851  32.529  12.911
24329W        W92723  44.333  21.453  13.824
24330W        W92724  28.993  32.549  14.045
24331W        W92725   7.794  23.071   3.055
24332W        W92726  32.148   8.584   4.729
24333W        W92727  27.829  37.550  11.647
24334W        W92728  42.879  33.273   1.912
24335W        W92729  24.305  25.224  14.061
24336W        W92730  19.545   7.197   1.092
24337W        W92731   6.912  30.649   1.768
24338W        W92732  35.455  17.348   3.809
24339W        W92733  38.407  24.044  10.841
24340W        W92734   7.467   5.099  13.165
24341W        W92735  12.376  14.430   2.175
24342W        W92736  30.070  16.648   0.032
24343W        W92737  32.898  40.027  13.068
24344W        W92738  21.622  41.041  11.299
24345W        W92739  24.468  25.372  10.665
24346W        W92740  31.449  21.725   0.374
24347W        W92741  28.539  15.696   3.634
24348W        W92742   9.314   3.384   0.485
24349W        W92743  10.874  40.041  11.816
24350W        W92744   0.615  20.554   4.104
24351W        W92745  43.449  27.608  11.928
24352W        W92746  30.283  16.856  12.198
24353W        W92747  25.668  24.759   4.773
24354W        W92748  29.572  37.745   2.802
24355W        W92749  14.157  32.724   1.080
24356W        W92750  11.877  11.747  13.287
24357W        W92751   8.724   9.905  15.000
24358W        W92752  43.026  10.082   0.422
24359W        W92753  29.047   7.926  13.844
24360W        W92754  11.865  24.023   4.477
24361W        W92755   0.962  39.581  12.618
24362W        W92756  38.641  34.349   1.290
24363W        W92757  13.248  10.893  13.923
24364W        W92758  17.771  11.525   2.325
24365W        W92759  31.192  13.296  14.482
24366W        W92760  37.036  21.584   2.265
24367W        W92761  12.917  26.484   0.716
24368W        W92762   3.955  35.028  12.941
24369W        W92763  37.297  19.163   2.760
24370W        W92764  26.157  17.510   1.198
24371W        W92765  14.290  36.017   0.803
24372W        W92766  20.687   4.267  11.403
24373W        W92767  23.663  19.213   3.709
24374W        W92768   9.040  16.426  12.273
24375W        W92769  42.049   6.837   2.728
24376W        W92770  28.945  38.346   4.576
24377W        W92771  17.787  27.892   1.512
24378W        W92772  33.871  15.895  10.080
24379W        W92773  13.360  14.133  13.451
24380W        W92774   6.706  23.394   4.513
24381W        W92775  25.947  42.406  14.521
24382W        W92776  27.053  35.091   4.886
24383W        W92777   5.669  24.448   3.745
24384W        W92778   4.386  21.229  14.875
24385W        W92779   2.504  23.232  13.971
24386W        W92780  27.176  15.673  10.597
24387W        W92781  20.911  15.021   3.757
24388W        W92782   9.733  33.586  14.597
24389W        W92783  26.226  41.259  11.854
24390W        W92784  10.564  36.042   1.857
24391W        W92785  20.213   7.356   2.458
24392W        W92786  41.323   4.656   0.745
24393W        W92787  39.251   0.330  10.689
24394W        W92788  44.504   4.845   2.155
24395W        W92789   8.660  42.681  14.931
24396W        W92790  13.811  21.028  14.910
24397W        W92791  23.166  14.661  13.416
24398W        W92792   8.098  35.103   4.215
24399W        W92793  17.578   9.332  14.063
24400W        W92794   4.139  41.525  13.949
24401W        W92795  23.029  42.578   0.513
24402W        W92796  19.582  10.183   0.692
24403W        W92797  23.504   1.292   2.661
24404W        W92798  18.259  15.534  12.483
24405W        W92799  36.894  11.133   2.810
24406W        W92800  28.883  23.010   4.552
24407W        W92801  37.555   7.705  12.304
24408W        W92802  17.120  43.397  11.933
24409W        W92803  35.809  19.438  12.622
24410W        W92804  13.601  39.915   1.902
24411W        W92805  13.328  29.049   1.706
24412W        W92806  13.701  35.382  13.921
24413W        W92807  30.680   3.093  11.413
24414W        W92808  19.568   3.275  13.502
24415W        W92809  39.358  38.877   1.035
24416W        W92810  13.293   1.462   4.048
24417W        W92811   8.327   9.299   1.855
24418W        W92812  17.057  20.791  13.907
24419W        W92813  32.887  38.574   3.713
24420W        W92814  34.352   4.456   2.318
24421W        W92815  14.152  27.253  14.363
24422W        W92816  11.733  12.163  10.078
24423W        W92817  43.373  14.313  13.046
24424W        W92818  44.737  41.532   2.663
24425W        W92819  18.840   5.050   1.382
24426W        W92820   9.237  37.354  11.074
24427W        W92821  18.627   1.630  13.273
24428W        W92822   0.492  23.447  12.264
24429W        W92823  38.542  22.919  10.287
24430W        W92824   0.018  19.320  13.837
24431W        W92825  30.134  24.151  14.691
24432W        W92826  10.818  22.746   4.584
24433W        W92827   2.659  27.136  12.650
24434W        W92828  34.623  42.538  12.863
24435W        W92829  33.103  39.430   3.296
24436W        W92830  20.284  28.085   1.342
24437W        W92831  42.291  15.055   3.856
24438W        W92832  24.902  12.435  10.297
24439W        W92833  18.719  32.810   4.759
24440W        W92834  36.804  38.455   1.835
24441W        W92835  43.444  18.904   4.945
24442W        W92836  26.580  23.760   2.273
24443W        W92837  14.013  11.783  14.505
24444W        W92838  24.184  24.844  12.051
24445W        W92839  34.829  40.879  12.407
24446W        W92840  15.282  10.858  12.530
24447W        W92841  15.315  34.640  14.288
24448W        W92842  33.763   6.887   3.301
24449W        W92843  18.050   8.467  14.822
24450W        W92844   0.929   6.697   3.756
24451W        W92845  40.368  31.811  13.969
24452W        W92846  34.391  41.120   2.316
24453W        W92847  40.636   3.352   0.692
24454W        W92848  14.224  20.619  11.224
24455W        W92849   9.470   3.556   4.163
24456W        W92850   8.384  27.988  13.384
24457W        W92851  14.549  27.159  12.157
24458W        W92852  25.265   2.675  14.271
24459W        W92853   6.718   0.575  11.719
24460W        W92854   6.709  39.285   4.238
24461W        W92855  36.519  24.457  11.637
24462W        W92856  15.713   9.839   5.017
24463W        W92857  26.071  34.862   1.812
24464W        W92858  34.067  44.294   2.119
24465W        W92859   6.261  36.352   4.652
24466W        W92860  40.563  43.218   4.821
24467W        W92861   4.443   6.359   2.030
24468W        W92862   1.906  29.211   2.388
24469W        W92863  22.333  17.382  13.360
24470W        W92864  16.205  24.163   2.358
24471W        W92865   4.821  42.362  11.588
24472W        W92866  25.254  17.000   3.752
24473W        W92867  33.823   6.351   4.698
24474W        W92868   0.679  35.992  10.691
24475W        W92869  40.259  16.052  11.032
24476W        W92870  21.477   8.772  11.442
24477W        W92871   8.914  36.866  12.925
24478W        W92872  34.959  20.252   3.106
24479W        W92873  33.354   1.789  12.105
24480W        W92874  25.681  12.283  10.913
24481W        W92875   4.698  25.069  11.531
24482W        W92876  10.582  43.013   1.785
24483W        W92877   2.989  24.405   1.362
24484W        W92878   5.919  14.286   2.933
24485W        W92879  39.525   8.968  12.956
24486W        W92880  41.701  36.669  11.116
24487W        W92881   3.191  30.497  12.157
24488W        W92882  30.541  18.461   0.869
24489W        W92883  18.241  10.607  12.127
24490W        W92884  12.829   6.443   3.273
24491W        W92885   4.710  35.576   2.932
24492W        W92886  26.559  27.399  14.516
24493W        W92887   1.790  18.206   4.221
24494W        W92888  20.238  16.634  14.757
24495W        W92889   1.956  40.503   1.482
24496W        W92890   6.265  27.537   4.882
24497W        W92891  26.879   8.662   4.142
24498W        W92892  16.619  13.813  11.634
24499W        W92893  11.630  26.505  11.679
24500W        W92894  32.579  28.669  12.561
24501W        W92895  24.593  23.607  10.647
24502W        W92896  17.100  39.334   0.952
24503W        W92897   2.347  31.375   2.634
24504W        W92898  42.800   0.991  14.024
24505W        W92899  13.985  38.969  14.783
24506W        W92900  30.177  13.769   2.448
24507W        W92901  32.618  40.850  10.762
24508W        W92902  42.254   4.540   1.804
24509W        W92903  21.600  23.765   2.685
24510W        W92904  32.361  20.108   3.215
24511W        W92905  41.223  24.478   4.156
24512W        W92906  37.283  14.175   2.263
24513W        W92907  14.003  17.027   1.166
24514W        W92908  18.199  38.132  11.990
24515W        W92909  13.041  41.274  10.652
24516W        W92910  19.096  21.287   2.237
24517W        W92911  15.934  33.685  11.093
24518W        W92912  32.863  10.843  13.339
24519W        W92913  11.141   4.177  12.429
24520W        W92914   1.715  30.592  13.566
24521W        W92915  37.634  44.558  13.961
24522W        W92916  25.179  26.940   1.936
24523W        W92917  23.318  18.019  13.890
24524W        W92918   4.549  15.223   3.248
24525W        W92919  30.668  35.847  14.084
24526W        W92920   1.932  29.013  11.120
24527W        W92921   9.718  39.558  14.837
24528W        W92922  40.873  16.813   4.042
24529W        W92923  40.666  35.933   0.873
24530W        W92924  32.565  37.404   2.424
24531W        W92925  32.904   6.589  12.369
24532W        W92926  25.285  10.318  10.945
24533W        W92927  33.909  34.871  14.014
24534W        W92928  14.313   3.691  12.620
24535W        W92929  20.913   7.219   4.052
24536W        W92930  26.743  22.738   4.680
24537W        W92931  35.546  20.025   1.113
24538W        W92932  40.410   4.684  13.334
24539W        W92933  12.876  22.654   5.185
24540W        W92934  20.649  34.885   1.212
24541W        W92935  39.546  28.647  11.872
24542W        W92936  17.853  30.057   0.481
24543W        W92937   4.047  31.000   0.994
24544W        W92938  11.601   0.273   3.000
24545W        W92939  20.572  19.123  10.607
24546W        W92940  10.724  28.875  13.379
24547W        W92941  12.206   1.644  12.967
24548W        W92942  26.937  33.234  13.334
24549W        W92943   7.423   2.291  10.489
24550W        W92944  22.465  38.026  11.591
24551W        W92945  16.666  26.488  10.180
24552W        W92946  31.314  11.767   0.712
24553W        W92947  25.659  44.322   1.862
24554W        W92948  12.321  30.512   0.556
24555W        W92949  18.068  38.084   2.639
24556W        W92950  43.481  40.139   0.175
24557W        W92951  30.300  18.801   5.019
24558W        W92952  17.101  43.389   2.966
24559W        W92953   5.124  37.443   3.806
24560W        W92954  38.542   5.302   4.563
24561W        W92955   6.101  31.107   2.786
24562W        W92956  37.861  10.215  10.188
24563W        W92957  29.364   6.574  10.718
24564W        W92958  24.290  32.004   5.054
24565W        W92959   1.646  42.612  13.027
24566W        W92960  18.889   9.742  13.395
24567W        W92961  37.964  30.048   3.382
24568W        W92962  12.822   7.989   0.353
24569W        W92963  10.643  27.096   0.979
24570W        W92964  36.042  19.463   4.183
24571W        W92965   5.399  21.205  11.263
24572W        W92966  15.601  40.338   1.099
24573W        W92967  17.493  33.341   3.414
24574W        W92968  20.032   3.951  12.880
24575W        W92969  24.045  24.133   2.446
24576W        W92970  27.092  33.949  13.630
24577W        W92971  17.746  42.363  11.940
24578W        W92972  21.463  14.649   4.658
24579W        W92973   7.367   5.130   2.222
24580W        W92974  16.311  10.713   2.361
24581W        W92975  18.094  43.245   4.585
24582W        W92976  11.110  44.952  11.730
24583W        W92977  40.230  15.984  13.953
24584W        W92978   5.821  41.099  12.025
24585W        W92979   2.710  20.673   0.393
24586W        W92980  34.383  11.331  12.597
24587W        W92981  36.442   8.735  11.507
24588W        W92982  15.208  15.929  12.419
24589W        W92983  10.139  35.870   0.036
24590W        W92984  44.447   8.488  10.534
24591W        W92985  24.091  26.653   1.223
24592W        W92986  40.686  11.054   1.679
24593W        W92987  26.639  18.357  11.129
24594W        W92988  19.285  11.226   4.678
24595W        W92989  37.119   4.871  10.071
24596W        W92990  10.948   5.887  13.155
24597W        W92991  43.346  28.895  14.901
24598W        W92992  16.647  42.544   5.024
24599W        W92993  31.545  10.702   0.848
24600W        W92994  34.157   0.002   1.372
24601W        W92995   9.368  16.136  14.416
24602W        W92996  25.494  25.693  13.978
24603W        W92997  13.081  40.066  11.884
24604W        W92998  38.329  19.085   4.563
24605W        W92999   4.142  38.590  12.544
24606W        W93000  10.240   2.107  12.775
24607W        W93001  36.483  19.878  12.970
24608W        W93002  29.135  38.052   2.753
24609W        W93003   9.295  28.960  12.394
24610W        W93004  19.228  20.281   4.384
24611W        W93005  20.662  39.880  14.829
24612W        W93006  14.716  37.626  10.202
24613W        W93007   7.095  27.431   3.292
24614W        W93008  21.170   2.112  11.600
24615W        W93009  36.379  43.830  14.252
24616W        W93010   4.385   6.460   2.807
24617W        W93011  18.746  15.056   1.326
24618W        W93012  16.660  27.937   3.707
24619W        W93013  15.046  16.664   3.218
24620W        W93014  38.385  31.618  11.533
24621W        W93015  13.560  32.538  11.610
24622W        W93016  15.270  19.682   3.477
24623W        W93017   5.461  22.443  10.291
24624W        W93018  21.954  27.408  10.642
24625W        W93019  42.706  40.616  13.044
24626W        W93020  39.836   1.895   1.477
24627W        W93021  15.791  17.476  14.028
24628W        W93022  22.416  18.597  12.993
24629W        W93023  24.608  36.798  12.595
24630W        W93024  44.868  20.232   2.130
24631W        W93025  20.309  43.468   1.291
24632W        W93026  39.391  10.564   4.819
24633W        W93027  21.208  40.010   1.826
24634W        W93028  31.385  31.714  13.385
24635W        W93029  16.303  26.690   4.122
24636W        W93030  19.679  12.125   2.413
24637W        W93031  39.215  41.671   9.855
24638W        W93032  32.739  35.812  10.646
24639W        W93033  38.068   3.381  11.988
24640W        W93034  39.939  33.478  10.660
24641W        W93035  30.491  28.733   2.918
24642W        W93036  26.553  34.263  13.450
24643W        W93037  36.523  23.471  11.542
24644W        W93038   0.272  11.139  14.888
24645W        W93039  27.935  18.632  12.516
24646W        W93040  28.004  34.041   2.374
24647W        W93041  35.959   8.388  10.946
24648W        W93042  36.878  29.199  14.421
24649W        W93043   5.045  42.976  14.485
24650W        W93044  44.546  10.772   3.757
24651W        W93045  40.949   5.004   4.129
24652W        W93046  41.030  14.981  10.763
24653W        W93047  41.409   5.813  13.026
24654W        W93048   6.349   9.160   2.099
24655W        W93049  36.068  31.890   2.345
24656W        W93050  19.789  29.858   3.710
24657W        W93051  11.010  23.785  11.140
24658W        W93052  11.809  21.211  12.958
24659W        W93053  12.722  36.006   3.052
24660W        W93054  44.872  39.800   3.590
24661W        W93055  18.344  23.235  13.893
24662W        W93056  37.839   6.292  12.034
24663W        W93057  40.221  43.785   3.784
24664W        W93058  32.512  26.013  11.528
24665W        W93059  41.498  28.446   3.194
24666W        W93060  31.124  18.587   4.552
24667W        W93061  21.449  13.154  11.011
24668W        W93062  18.575  44.795  10.694
24669W        W93063   3.537   7.321  11.177
24670W        W93064  11.528   7.325  11.605
24671W        W93065  32.114  18.585  11.118
24672W        W93066  43.053  15.842  13.847
24673W        W93067  13.073  25.043  14.359
24674W        W93068   0.763  24.024   2.719
24675W        W93069  34.511  30.513   1.533
24676W        W93070  15.562  33.580  13.905
24677W        W93071   2.716  42.006  10.705
24678W        W93072  38.862   5.522  13.543
24679W        W93073  44.481   4.376  14.556
24680W        W93074  39.552  26.958  12.424
24681W        W93075  24.223  23.082   2.092
24682W        W93076  32.930  25.756  11.645
24683W        W93077  17.623  19.215  13.849
24684W        W93078  29.963  34.717  12.040
24685W        W93079  14.106   8.496  12.181
24686W        W93080  38.995  11.322  12.099
24687W        W93081  12.458  33.046   2.051
24688W        W93082   0.923  38.737   0.515
24689W        W93083  15.803  39.880  11.653
24690W        W93084   6.532  27.062   5.017
24691W        W93085  37.098   5.106   1.332
24692W        W93086  41.847  15.982  12.481
24693W        W93087  18.941  40.809  12.015
24694W        W93088  17.555  28.387   0.822
24695W        W93089  20.019  19.394   5.162
24696W        W93090   2.252  15.667  10.420
24697W        W93091  23.509  33.456   1.363
24698W        W93092  33.901  14.095   2.421
24699W        W93093  42.882  29.035  13.998
24700W        W93094  12.044  10.696   0.272
24701W        W93095   3.355  40.417   0.519
24702W        W93096   2.345  16.613  14.860
24703W        W93097  11.436  26.065   1.074
24704W        W93098  36.125  36.654   5.122
24705W        W93099  42.278  10.987  13.027
24706W        W93100   3.343  40.957   2.300
24707W        W93101  43.295  30.066  12.050
24708W        W93102  24.919  20.444   1.970
24709W        W93103  11.869  23.183  13.794
24710W        W93104  40.845  14.679   0.500
24711W        W93105  38.584  31.531  13.529
24712W        W93106  28.326  21.655   1.730
24713W        W93107  28.915  14.655  13.365
24714W        W93108   9.063  19.511  14.013
24715W        W93109  22.596  24.131   2.944
24716W        W93110  19.356  15.646  13.252
24717W        W93111   4.833  41.370   3.706
24718W        W93112  28.941   2.359   3.685
24719W        W93113  10.156  28.093  13.779
24720W        W93114  43.009  30.221  12.458
24721W        W93115  22.613  14.807  14.352
24722W        W93116  32.297  22.386   1.823
24723W        W93117  21.712  30.195   3.801
24724W        W93118  44.052  10.244   0.348
24725W        W93119  20.096   9.638  11.530
24726W        W93120  40.367  11.669  13.652
24727W        W93121  32.039  14.388  14.986
24728W        W93122   8.059  41.103   3.137
24729W        W93123  35.385   4.517   2.248
24730W        W93124  23.358  43.224  12.129
24731W        W93125  11.624  27.657  10.657
24732W        W93126   6.619  10.120  12.031
24733W        W93127   8.930   5.910  10.784
24734W        W93128  43.920  23.427  11.016
24735W        W93129   4.316  17.105   1.241
24736W        W93130   4.735  29.127  13.898
24737W        W93131  28.936   6.773  13.109
24738W        W93132  38.096  40.200   0.468
24739W        W93133  34.449  23.946   2.107
24740W        W93134   1.398  19.359   4.770
24741W        W93135  26.733   1.744   4.439
24742W        W93136  11.757  35.263   2.778
24743W        W93137  31.912   0.914  10.904
24744W        W93138  32.826  21.653   1.634
24745W        W93139  41.943  17.117   4.627
24746W        W93140  28.691  34.022   4.519
24747W        W93141   2.352  12.174   0.231
24748W        W93142  17.725  26.566   2.867
24749W        W93143   8.936  39.510   4.732
24750W        W93144  44.451   2.394  13.418
24751W        W93145  30.096  10.681   0.584
24752W        W93146  34.460   2.564  13.287
24753W        W93147  28.986  44.945  10.762
24754W        W93148   7.801  31.005   4.768
24755W        W93149  25.110  14.239  12.090
24756W        W93150  11.164  26.713   1.188
24757W        W93151   3.978   2.807  14.011
24758W        W93152   3.747  27.100  11.145
24759W        W93153  25.520  37.787  12.563
24760W        W93154  16.259  10.096  11.612
24761W        W93155  11.575  41.779   4.610
24762W        W93156  16.020   3.223   3.007
24763W        W93157   4.666  21.646  12.506
24764W        W93158  27.764  38.561   4.129
24765W        W93159  39.979  28.327  11.080
24766W        W93160  35.560   0.229  14.896
24767W        W93161   4.291  39.628   1.206
24768W        W93162   8.662  34.841   0.298
24769W        W93163  26.371   3.260   1.757
24770W        W93164  29.895  43.802  13.491
24771W        W93165  31.943  36.873  11.117
24772W        W93166  26.607  35.390   4.886
24773W        W93167  15.318   2.872   3.325
24774W        W93168   3.502   0.305  14.507
24775W        W93169   4.680  39.497   3.354
24776W        W93170  17.274   2.862   4.499
24777W        W93171  32.950   3.844  14.737
24778W        W93172  31.181  30.960  14.853
24779W        W93173   1.892   6.309   3.870
24780W        W93174  34.444  43.787   3.814
24781W        W93175   3.715  25.737  12.903
24782W        W93176  30.597  44.684  12.560
24783W        W93177  35.976  40.941  14.287
24784W        W93178  31.075  42.371  11.458
24785W        W93179  39.334  41.559  13.514
24786W        W93180  10.286   3.144   2.223
24787W        W93181  43.121  29.766   9.939
24788W        W93182  32.939  36.045  14.830
24789W        W93183  18.349  44.308   4.580
24790W        W93184  44.141  24.545   2.578
24791W        W93185  36.927  24.440  14.394
24792W        W93186  25.041  14.900   0.579
24793W        W93187  28.632  36.972   4.478
24794W        W93188  38.980   1.442   2.810
24795W        W93189  31.304  12.523  12.968
24796W        W93190  15.350  23.770   0.083
24797W        W93191  40.902  40.749   3.314
24798W        W93192  32.677  21.172  13.094
24799W        W93193  27.685  25.519   1.632
24800W        W93194  33.126  32.128  14.049
24801W        W93195   9.754  41.334  10.485
24802W        W93196  20.466   0.740   3.740
24803W        W93197  16.667  16.811  14.993
24804W        W93198  43.466  40.600   0.424
24805W        W93199  20.069  22.740  11.834
24806W        W93200  16.424  43.297   2.161
24807W        W93201  41.471  43.659  14.087
24808W        W93202  15.829  36.983  14.820
24809W        W93203  15.808  32.576  12.922
24810W        W93204  20.649   7.874  11.505
24811W        W93205  15.270  15.666  11.958
24812W        W93206   7.189  18.415  12.017
24813W        W93207  29.852  23.289  14.846
24814W        W93208  13.818  41.383   4.566
24815W        W93209  39.825  40.940   2.742
24816W        W93210  10.171  16.602  14.782
24817W        W93211  23.133  27.970  14.040
24818W        W93212  11.214  43.201  10.717
24819W        W93213  33.115  41.423  13.002
24820W        W93214  21.794  41.354  12.497
24821W        W93215  22.204  29.199   2.583
24822W        W93216  25.648  12.167   0.240
24823W        W93217  32.053  44.605  13.021
24824W        W93218   5.041   9.262   3.211
24825W        W93219  32.618  31.607   1.710
24826W        W93220  36.469   4.228   2.647
24827W        W93221  41.274  12.729   2.896
24828W        W93222  38.995  23.775   0.112
24829W        W93223  15.606  39.756   0.527
24830W        W93224   4.968  21.520   1.019
24831W        W93225  39.150  43.675   1.875
24832W        W93226   3.273  39.469   2.258
24833W        W93227  41.311  24.137   2.034
24834W        W93228  27.385   0.898   0.851
24835W        W93229  10.166  37.501  10.775
24836W        W93230   3.432  40.995  12.379
24837W        W93231  33.425  13.433   0.940
24838W        W93232  15.723  10.354  14.828
24839W        W93233  37.554  14.239   4.696
24840W        W93234  38.820  37.491  14.570
24841W        W93235  34.345   3.900  10.666
24842W        W93236  21.942  15.770   2.262
24843W        W93237  30.115  30.952   3.891
24844W        W93238   3.825   2.692  14.828
24845W        W93239  18.157   8.786   4.799
24846W        W93240  39.780  25.523   1.134
24847W        W93241   5.759   3.156  14.736
24848W        W93242  26.635  21.184  14.053
24849W        W93243  37.265  10.364   2.625
24850W        W93244  23.197  27.185   1.274
24851W        W93245  20.106  21.531  12.048
24852W        W93246  24.972   1.486  10.132
24853W        W93247  33.609  28.423  10.696
24854W        W93248   7.916  30.413   2.031
24855W        W93249  27.195  14.170   4.543
24856W        W93250  22.529   1.748  14.499
24857W        W93251   0.942  27.575  11.575
24858W        W93252  28.526   9.142   2.794
24859W        W93253  20.119  35.938   4.508
24860W        W93254  32.104  41.982   0.531
24861W        W93255  33.941  15.852  14.363
24862W        W93256   6.805  22.328  14.633
24863W        W93257  12.827  30.713  12.985
24864W        W93258  16.223  11.333   4.582
24865W        W93259  28.901  41.514   2.792
24866W        W93260   3.802  15.466  10.717
24867W        W93261  21.431  27.836  11.376
24868W        W93262   4.558  35.825  12.766
24869W        W93263  40.417  10.842   1.302
24870W        W93264  23.089  43.806   2.665
24871W        W93265  15.158  39.617   4.612
24872W        W93266  26.651  17.522   1.222
24873W        W93267  30.565  15.638  12.428
24874W        W93268  19.288  33.416  14.956
24875W        W93269  14.876  10.586  12.336
24876W        W93270  23.333  34.434   2.275
24877W        W93271  42.924  32.060  11.139
24878W        W93272  27.858  33.831  14.874
24879W        W93273  10.269  37.609   3.193
24880W        W93274   6.660   7.935  10.694
24881W        W93275   3.708  33.561   1.894
24882W        W93276  38.472   0.169  14.863
24883W        W93277  17.135  39.917   2.455
24884W        W93278  13.957   4.212  11.797
24885W        W93279  21.997  11.169   1.343
24886W        W93280  22.887  19.936  13.155
24887W        W93281  22.741   6.869  10.617
24888W        W93282   8.416   6.526  14.858
24889W        W93283   3.432  19.605   4.253
24890W        W93284  22.115  25.566  12.756
24891W        W93285  42.114  29.744   2.685
24892W        W93286  27.313  44.188  14.803
24893W        W93287  27.049  35.555  10.727
24894W        W93288   9.335  37.452   0.999
24895W        W93289  11.897  34.926   3.231
24896W        W93290  33.127  15.706  13.508
24897W        W93291  42.794  36.685   3.537
24898W        W93292   0.918  38.126   4.201
24899W        W93293   5.543   8.613   0.955
24900W        W93294  41.833  11.159  10.317
24901W        W93295   2.526  35.962  13.494
24902W        W93296  44.323  11.560   5.049
24903W        W93297  18.334   9.079   1.450
24904W        W93298  41.916   1.463   2.741
24905W        W93299  28.476   9.645   1.944
24906W        W93300  31.528  41.873  14.779
24907W        W93301  17.581  44.749   1.797
24908W        W93302  40.922  15.622   0.448
24909W        W93303  38.441  21.266   5.207
24910W        W93304  40.165  44.030  13.558
24911W        W93305  27.213  33.324  12.176
24912W        W93306  17.648  40.401  12.441
24913W        W93307  30.349  43.448   0.789
24914W        W93308  14.883  10.683   1.703
24915W        W93309  23.375   1.600   0.364
24916W        W93310  26.626  10.318   2.721
24917W        W93311  28.244   5.902   0.818
24918W        W93312   7.569   3.273   2.361
24919W        W93313   6.868  20.582   1.746
24920W        W93314  36.179  11.657   1.447
24921W        W93315  31.412   4.440   0.219
24922W        W93316  34.604  44.860   3.283
24923W        W93317  32.426  31.902   3.697
24924W        W93318   1.411   3.348  12.428
24925W        W93319  13.108  17.175   3.685
24926W        W93320  15.169  18.531   2.909
24927W        W93321  42.059  17.695   0.441
24928W        W93322  10.723   9.699  12.438
24929W        W93323  16.168  44.561  12.900
24930W        W93324  30.023  25.947  13.504
24931W        W93325  28.737   6.888   3.768
24932W        W93326   7.772  12.504   1.759
24933W        W93327  15.262  30.900  12.482
24934W        W93328  20.627  10.207  10.777
24935W        W93329  31.397  15.272   0.872
24936W        W93330  35.866  34.395   3.712
24937W        W93331  13.444  22.268  11.138
24938W        W93332  13.136   0.438   3.697
24939W        W93333  33.119  30.171  11.117
24940W        W93334  26.315  11.490   5.337
24941W        W93335  43.412  12.093  14.050
24942W        W93336  40.000   8.629  13.963
24943W        W93337   1.976  10.136   4.031
24944W        W93338   8.678  38.069   3.172
24945W        W93339  42.982   9.568   4.900
24946W        W93340   0.708  18.772   3.733
24947W        W93341  18.704  24.728   3.369
24948W        W93342   7.517  42.024  14.794
24949W        W93343  39.461  24.261   3.941
24950W        W93344  44.280  16.790   4.480
24951W        W93345  39.959  39.507   4.169
24952W        W93346  17.144  32.576  11.198
24953W        W93347  35.288  13.441   2.277
24954W        W93348   3.183  34.948   2.266
24955W        W93349  39.403  20.060   3.028
24956W        W93350  24.911  26.479   3.385
24957W        W93351   3.778   4.026  12.544
24958W        W93352  19.010  24.464  12.086
24959W        W93353  20.752  36.007   1.881
24960W        W93354  42.642   5.217  11.520
24961W        W93355  41.071   7.195   3.118
24962W        W93356  34.386   0.321  13.439
24963W        W93357  13.826   4.466   3.345
24964W        W93358  23.062  20.478  14.919
24965W        W93359  40.337  38.702  10.277
24966W        W93360  12.424   7.917   2.573
24967W        W93361  42.905   3.803  11.928
24968W        W93362  24.243   1.501  14.760
24969W        W93363  27.485   5.831   3.015
24970W        W93364  21.542  37.368  13.940
24971W        W93365  32.599  21.385  14.808
24972W        W93366  21.066  19.759  14.806
24973W        W93367  34.708  42.288   0.528
24974W        W93368  33.985  38.331   0.296
24975W        W93369  30.674   9.409   0.170
24976W        W93370  34.472  15.258  10.787
24977W        W93371  14.246  43.348  14.791
24978W        W93372  20.087  15.877   2.404
24979W        W93373  37.339  19.650  11.616
24980W        W93374   6.129  16.124  14.223
24981W        W93375  43.455  39.692   5.085
24982W        W93376  44.840  32.331   2.836
24983W        W93377  38.461  19.675  12.935
24984W        W93378   1.730  18.302   1.516
24985W        W93379  14.191  11.243  12.152
24986W        W93380  39.296   6.958  10.665
24987W        W93381  29.314   1.481   0.410
24988W        W93382  15.561  18.186   3.725
24989W        W93383  10.108  30.972  12.390
24990W        W93384   3.939   5.977   1.448
24991W        W93385  37.010  13.848  13.097
24992W        W93386   1.645  16.727   3.210
24993W        W93387  13.354  14.109   1.311
24994W        W93388  39.390  36.562   3.604
24995W        W93389  21.188  44.980  10.980
24996W        W93390  34.459  37.726  12.833
24997W        W93391  33.589  38.626  14.491
24998W        W93392  19.596  40.891  10.734
24999W        W93393  41.908  31.615   2.466
25000W        W93394   0.533  44.011   0.314
25001W        W93395  35.914  10.416   2.350
25002W        W93396  32.571  23.287   0.183
25003W        W93397   2.852  23.058   3.794
25004W        W93398  39.411  17.640   0.053
25005W        W93399  30.005  15.088   4.155
25006W        W93400  21.121  36.330   3.706
25007W        W93401  32.580  10.423   4.417
25008W        W93402  31.822  35.478   3.787
25009W        W93403   9.803   7.703  12.017
25010W        W93404  33.412  20.057   3.342
25011W        W93405   4.425  21.784  14.917
25012W        W93406   0.399  24.843  11.144
25013W        W93407  41.617  41.099   0.397
25014W        W93408  39.258  35.834   2.192
25015W        W93409  42.534  23.675   2.746
25016W        W93410  39.685  27.561   2.200
25017W        W93411   4.230  42.578  14.850
25018W        W93412  25.655   5.678  10.580
25019W        W93413   1.645  34.600   3.662
25020W        W93414  35.855  13.215   1.913
25021W        W93415  15.103  40.322  12.533
25022W        W93416   3.889  44.726   4.619
25023W        W93417  36.257  12.253   0.844
25024W        W93418  42.959  12.139  14.305
25025W        W93419  18.662  36.570   2.315
25026W        W93420  42.221  26.099  14.243
25027W        W93421   9.925  14.174   2.292
25028W        W93422  15.864  40.604   3.292
25029W        W93423  32.670  26.990  13.608
25030W        W93424  22.536   6.744   3.308
25031W        W93425  19.812   5.582  14.482
25032W        W93426  41.303  15.279   0.366
25033W        W93427  26.119  31.701  13.153
25034W        W93428  41.598  29.710  14.444
25035W        W93429  42.995  15.168   0.294
25036W        W93430   1.970  36.981  12.693
25037W        W93431  37.097  36.016  14.915
25038W        W93432  31.511  13.860   3.184
25039W        W93433  13.900  29.557  12.149
25040W        W93434  41.577  33.423   0.029
25041W        W93435  21.750  20.811  12.969
25042W        W93436  16.609   2.993  13.472
25043W        W93437  38.351  28.708   2.327
25044W        W93438   2.787  15.599   0.767
25045W        W93439  31.173  21.792  11.392
25046W        W93440  18.719  17.539  11.246
25047W        W93441   6.687  18.117   4.041
25048W        W93442  43.105  18.974  14.470
25049W        W93443  30.347  39.585  11.200
25050W        W93444  39.257   4.245   4.757
25051W        W93445   0.458  30.426   4.537
25052W        W93446  19.022   9.774  13.929
25053W        W93447  17.824  39.647  14.718
25054W        W93448  18.753  14.769  13.026
25055W        W93449  12.296  14.091   0.036
25056W        W93450  42.322  18.597   1.696
25057W        W93451  15.852  10.159   1.265
25058W        W93452  32.627  29.163   1.697
25059W        W93453  16.425   2.155   3.777
25060W        W93454   1.526  28.473  14.330
25061W        W93455  37.814  17.544  11.050
25062W        W93456  25.195   1.472   3.208
25063W        W93457  41.493   2.915  14.246
25064W        W93458  31.380  36.935   0.738
25065W        W93459  30.978   2.223   4.163
25066W        W93460  28.187  10.337   0.983
25067W        W93461  17.241  42.880   2.183
25068W        W93462  38.722   3.745   1.684
25069W        W93463   1.164  12.674   9.801
25070W        W93464  40.862  17.553   3.230
25071W        W93465   7.394  16.276   2.859
25072W        W93466  44.598  22.285  12.835
25073W        W93467  19.909  12.109   3.295
25074W        W93468  33.105  11.441   2.006
25075W        W93469  24.070  27.173   1.188
25076W        W93470  33.526  28.114  13.972
25077W        W93471  28.034   7.369   0.921
25078W        W93472   5.916  11.559  13.659
25079W        W93473  35.694  27.954   2.945
25080W        W93474  28.048  20.064  14.596
25081W        W93475   3.523  31.071   0.897
25082W        W93476   5.439  40.865  11.102
25083W        W93477  12.722  32.018  13.444
25084W        W93478  32.049  30.276  12.777
25085W        W93479   3.154  27.885  11.493
25086W        W93480   5.884  19.697   0.577
25087W        W93481  44.336  24.987  14.440
25088W        W93482   4.350   4.003   0.339
25089W        W93483  42.394  17.737  11.923
25090W        W93484  42.256  43.295  11.577
25091W        W93485  14.132   7.835   4.310
25092W        W93486  25.695  13.100   1.261
25093W        W93487  27.924  17.586   0.823
25094W        W93488  28.162  32.909   1.850
25095W        W93489  17.792   6.199  10.540
25096W        W93490  22.271   6.243  12.920
25097W        W93491   7.889  11.953  11.033
25098W        W93492  19.170   8.835   0.908
25099W        W93493  37.962  33.463   2.438
25100W        W93494  13.147  42.954  13.397
25101W        W93495  34.429   4.700   3.685
25102W        W93496  14.930   1.831  11.216
25103W        W93497  38.682  17.751  13.737
25104W        W93498   6.177   2.908  14.945
25105W        W93499   2.646  16.567   2.309
25106W        W93500   6.827  16.183   4.985
25107W        W93501  29.082  21.978  12.585
25108W        W93502  19.124  29.230   1.670
25109W        W93503  36.493  42.721   1.405
25110W        W93504  24.067  15.340  14.008
25111W        W93505  27.469  30.574  12.945
25112W        W93506  41.760  11.238   0.344
25113W        W93507   3.477  11.884  12.050
25114W        W93508   5.802  16.859  12.066
25115W        W93509  22.555  38.488   0.895
25116W        W93510   3.364   6.894   4.578
25117W        W93511  35.301  17.246  12.971
25118W        W93512  21.692  32.370  14.821
25119W        W93513  22.125  41.850   3.384
25120W        W93514  25.123  12.386  12.332
25121W        W93515  27.844  25.011   2.876
25122W        W93516  16.259   3.161  14.970
25123W        W93517  30.835  34.791   4.309
25124W        W93518  29.667   9.233  14.786
25125W        W93519  36.469  44.721  10.186
25126W        W93520  10.461  43.506   0.847
25127W        W93521  20.772  43.259  13.025
25128W        W93522   4.825   2.772   1.456
25129W        W93523  24.548  40.854   0.053
25130W        W93524  14.840  20.665   1.816
25131W        W93525  44.533   9.761  10.042
25132W        W93526  28.550   8.173  12.558
25133W        W93527   3.828   3.856   2.570
25134W        W93528   8.831   9.887   1.310
25135W        W93529  19.805   9.660  12.462
25136W        W93530  44.304  20.715   3.147
25137W        W93531  19.387  17.248   4.040
25138W        W93532  33.317  22.383  14.434
25139W        W93533  35.268  10.847   0.241
25140W        W93534  36.836   2.755   2.607
25141W        W93535   4.927  30.484  10.201
25142W        W93536   3.746  39.210   2.338
25143W        W93537  10.442  32.693  13.317
25144W        W93538  20.032   0.920   4.289
25145W        W93539  28.738   7.711   3.615
25146W        W93540   2.875  37.330   1.116
25147W        W93541   6.309  36.943  10.733
25148W        W93542  44.055  26.570  13.013
25149W        W93543  24.689  25.195   3.420
25150W        W93544  27.132   7.473   4.514
25151W        W93545  42.838  22.707  11.341
25152W        W93546  14.761   9.277  12.969
25153W        W93547  24.662  17.753  14.903
25154W        W93548  29.503  22.010   1.302
25155W        W93549  35.645  28.058  12.465
25156W        W93550  44.911   0.632  12.392
25157W        W93551  24.739  13.626  11.230
25158W        W93552  41.447   6.240   0.268
25159W        W93553  23.886  10.176  11.511
25160W        W93554  40.381   2.198   4.221
25161W        W93555  37.337  39.807   2.219
25162W        W93556  18.846  10.248  13.547
25163W        W93557  20.772  20.091   2.397
25164W        W93558   1.165   1.334  12.997
25165W        W93559   7.083  30.055  14.928
25166W        W93560  39.171  29.415   3.335
25167W        W93561  35.316   2.004   3.193
25168W        W93562  12.576  14.191   0.960
25169W        W93563  13.125  25.284  11.749
25170W        W93564   6.998   1.852  14.361
25171W        W93565  24.020  33.654  11.141
25172W        W93566   7.753  17.759   2.189
25173W        W93567  24.708  43.515   4.483
25174W        W93568  28.279   1.588   4.934
25175W        W93569  24.258  15.070  11.205
25176W        W93570  40.653  27.625   2.134
25177W        W93571   3.061  44.414  13.974
25178W        W93572  14.196  23.105   1.686
25179W        W93573  44.966  35.864  10.247
25180W        W93574  33.660  25.207   3.228
25181W        W93575   0.322  27.189  14.388
25182W        W93576  38.365  26.089   4.465
25183W        W93577   0.660   4.872  13.826
25184W        W93578  32.167  44.366   2.028
25185W        W93579  14.628  10.923  11.996
25186W        W93580   2.737  32.980  12.574
25187W        W93581   7.928  16.561  14.398
25188W        W93582  14.863   4.273   1.270
25189W        W93583  27.714  25.000  12.401
25190W        W93584  24.545  18.936   3.713
25191W        W93585  17.309   3.387  11.989
25192W        W93586  29.941  18.470   0.430
25193W        W93587  16.829   2.279  14.847
25194W        W93588  11.907  13.501   1.795
25195W        W93589   6.656  29.506   3.708
25196W        W93590  17.430  43.464   1.983
25197W        W93591  16.493  36.790   1.358
25198W        W93592  24.515  20.673  10.220
25199W        W93593  15.406   0.751  14.352
25200W        W93594  33.113  43.774   0.787
25201W        W93595  32.897  36.567   1.758
25202W        W93596  14.065  43.411  12.905
25203W        W93597  13.330  27.154   1.282
25204W        W93598  34.411  41.289   4.935
25205W        W93599   1.467  15.152  14.912
25206W        W93600  23.471  24.995   2.754
25207W        W93601   6.232  33.878   2.630
25208W        W93602   3.683  31.591  13.289
25209W        W93603  41.308   9.897   2.404
25210W        W93604  28.609  14.301   3.348
25211W        W93605  12.876   7.938  14.577
25212W        W93606  40.311   3.653   2.210
25213W        W93607  17.310   8.870   2.893
25214W        W93608  39.924  30.141  14.909
25215W        W93609   1.839   5.464  10.684
25216W        W93610  35.844  18.560   4.146
25217W        W93611  39.031   7.085  11.090
25218W        W93612  31.003   1.333  13.915
25219W        W93613  22.948  21.465   3.570
25220W        W93614  21.666  36.840   3.060
25221W        W93615  10.798   8.296  10.744
25222W        W93616  43.409  31.543   0.506
25223W        W93617  10.944   4.435  11.198
25224W        W93618  25.326  13.222  12.561
25225W        W93619  34.852   4.739   4.611
25226W        W93620   7.069  35.199   1.912
25227W        W93621   5.366  26.486   3.205
25228W        W93622  11.631  36.526   1.223
25229W        W93623  40.808   4.266   2.801
25230W        W93624   2.431  23.752  13.963
25231W        W93625   5.986   8.894   0.860
25232W        W93626  15.385  27.094  12.494
25233W        W93627  44.226  43.161  11.486
25234W        W93628  34.154  20.643   3.601
25235W        W93629   9.499  23.799  10.073
25236W        W93630  35.323  34.676   4.129
25237W        W93631  19.217  38.305   4.201
25238W        W93632  28.582  29.528  13.404
25239W        W93633  24.104  37.085   1.893
25240W        W93634  31.439  35.002  14.885
25241W        W93635  20.538  34.098   2.748
25242W        W93636  12.338  29.609  14.937
25243W        W93637  31.080  43.221  13.799
25244W        W93638  40.110  38.463  11.930
25245W        W93639  21.497  26.560  10.425
25246W        W93640  13.134   8.588  12.948
25247W        W93641  10.193  41.312   2.804
25248W        W93642  17.803   2.350   3.136
25249W        W93643  35.296  30.460  13.573
25250W        W93644   3.101  29.117   0.674
25251W        W93645   4.865  16.997   4.561
25252W        W93646   2.287  24.002  13.534
25253W        W93647  10.341  13.587  10.920
25254W        W93648   6.789  13.562   1.462
25255W        W93649  42.356  39.047  13.823
25256W        W93650   1.015  44.435   3.522
25257W        W93651  21.301  37.147  14.353
25258W        W93652  22.025  23.703  12.636
25259W        W93653  12.874   5.316  10.487
25260W        W93654   5.066  42.498  13.907
25261W        W93655  20.044  20.399  10.123
25262W        W93656   1.222  26.913   1.869
25263W        W93657  23.790   5.909   1.348
25264W        W93658  35.353  40.539  13.547
25265W        W93659  36.366  15.311  12.813
25266W        W93660   9.879  25.170   4.092
25267W        W93661  17.745  43.511  11.201
25268W        W93662  15.836   4.956  13.476
25269W        W93663   1.752  22.933  10.780
25270W        W93664  28.499  18.256   0.467
25271W        W93665  19.235   6.829   0.861
25272W        W93666  29.838  21.558   2.240
25273W        W93667   7.106  30.039  12.593
25274W        W93668  19.312  21.248   3.125
25275W        W93669   1.322  34.609   3.266
25276W        W93670   6.240  36.621  12.296
25277W        W93671   1.746   1.350  11.160
25278W        W93672  32.404  11.884  11.564
25279W        W93673  26.091  35.361  11.590
25280W        W93674  19.183  18.355   0.166
25281W        W93675   4.311  36.582  10.682
25282W        W93676  43.800  43.410  11.683
25283W        W93677  34.474   4.319   4.107
25284W        W93678  28.050  43.468  11.914
25285W        W93679   5.644  32.661   0.757
25286W        W93680  43.755  22.676  10.593
25287W        W93681  32.654  22.549  12.446
25288W        W93682  38.496  24.946  10.317
25289W        W93683  27.040  10.909  11.353
25290W        W93684  31.338  32.602  13.966
25291W        W93685  21.378  14.709  12.339
25292W        W93686  25.054   4.023  14.972
25293W        W93687   5.253  38.579   4.630
25294W        W93688  21.975  34.580   3.105
25295W        W93689   8.984  27.070   4.871
25296W        W93690  35.198   6.678   1.489
25297W        W93691  16.525   3.906  12.047
25298W        W93692  42.357  30.368  14.319
25299W        W93693  44.569  23.064   3.306
25300W        W93694   4.358  44.247  10.506
25301W        W93695  32.514  25.943  14.480
25302W        W93696   5.906  11.375   2.798
25303W        W93697   5.370   5.626   3.931
25304W        W93698  10.694  27.151   1.850
25305W        W93699  31.606  36.510  11.951
25306W        W93700  20.282  18.019  14.427
25307W        W93701   3.654  27.915  11.666
25308W        W93702  18.793   8.824   4.979
25309W        W93703   1.897   4.947   3.405
25310W        W93704  32.320  43.203  14.927
25311W        W93705  35.112  28.058  10.724
25312W        W93706  15.063  38.589  10.234
25313W        W93707  29.591  42.254   2.778
25314W        W93708  36.224  20.318  11.201
25315W        W93709   3.762  38.439   2.232
25316W        W93710  36.126  20.987  14.930
25317W        W93711  16.651  22.286  11.105
25318W        W93712   4.474  40.651   1.775
25319W        W93713  43.828  34.389   2.077
25320W        W93714  15.109  27.143  12.050
25321W        W93715  24.426  24.522  14.828
25322W        W93716  16.765  30.655   4.280
25323W        W93717  43.820  44.940  12.381
25324W        W93718  42.409  42.737   0.387
25325W        W93719   1.197   4.164   1.866
25326W        W93720  16.047  23.666   4.009
25327W        W93721  32.877  20.093   3.303
25328W        W93722  34.619  22.031  11.409
25329W        W93723  42.066  14.191   2.745
25330W        W93724  33.556  20.655  13.414
25331W        W93725  41.369  18.867  11.595
25332W        W93726   9.611  36.143  12.670
25333W        W93727  38.341  19.553  11.584
25334W        W93728  10.114  30.602   3.345
25335W        W93729  20.622  10.825   2.946
25336W        W93730  35.434  18.448  11.134
25337W        W93731  21.507  22.677  12.125
25338W        W93732  33.856  21.275  10.054
25339W        W93733  24.657  16.304  14.676
25340W        W93734   5.721   6.597  12.603
25341W        W93735  17.733  12.970   2.208
25342W        W93736   8.577  16.104   0.739
25343W        W93737  23.646  21.080  14.244
25344W        W93738   5.588  42.222   3.365
25345W        W93739  29.886  33.173  14.527
25346W        W93740  24.504   8.401  12.361
25347W        W93741  32.092  21.606   2.463
25348W        W93742  44.208  40.324   2.168
25349W        W93743   9.303   3.274   3.744
25350W        W93744  44.097   4.494  11.086
25351W        W93745  37.431  22.628   3.676
25352W        W93746  44.740  20.837  14.924
25353W        W93747   2.646  42.193  12.423
25354W        W93748  33.551   5.980  12.105
25355W        W93749   4.169  29.514   5.017
25356W        W93750   2.764  16.309   1.849
25357W        W93751  25.440  16.522  14.245
25358W        W93752   4.902   7.624   0.153
25359W        W93753  40.972  41.274   3.842
25360W        W93754  35.177  22.069  10.453
25361W        W93755  39.873  22.634   3.263
25362W        W93756  42.417   7.816   2.172
25363W        W93757  14.148  26.683  13.322
25364W        W93758  17.792  41.264  12.917
25365W        W93759   8.954   6.470  12.543
25366W        W93760  36.833  26.896   2.941
25367W        W93761  41.413   8.230   4.258
25368W        W93762  20.802   6.790  11.260
25369W        W93763  39.949  31.225   2.231
25370W        W93764  22.115  15.121   2.914
25371W        W93765  24.695  32.435  12.363
25372W        W93766  16.855   3.671   0.846
25373W        W93767  32.242  28.256  12.436
25374W        W93768  43.800  18.675  12.557
25375W        W93769  42.618  39.717   9.837
25376W        W93770  31.678   0.923   0.441
25377W        W93771  42.271  33.197   4.953
25378W        W93772  44.235   7.203   4.651
25379W        W93773   7.774  17.342   3.760
25380W        W93774   5.904  13.404  12.148
25381W        W93775  21.648   1.849   2.310
25382W        W93776  12.617  33.267  12.900
25383W        W93777  41.214  42.043   0.395
25384W        W93778   2.969  21.024  14.724
25385W        W93779   5.568   5.187   4.074
25386W        W93780  36.743  12.899  10.237
25387W        W93781  11.229   4.190   1.344
25388W        W93782  26.445  44.602  12.678
25389W        W93783  32.375   9.200  14.405
25390W        W93784  23.742  35.986   0.894
25391W        W93785  38.964  34.294  11.610
25392W        W93786  14.239  36.552   0.637
25393W        W93787  31.140  39.891  11.608
25394W        W93788  31.182  17.443  12.530
25395W        W93789   2.775   3.763   2.122
25396W        W93790   3.395  18.335  10.758
25397W        W93791   1.771  37.329  13.888
25398W        W93792  44.928   6.632  12.433
25399W        W93793  43.455  30.412  11.648
25400W        W93794  40.857  16.733  14.390
25401W        W93795  13.783  18.091  14.723
25402W        W93796  12.950  29.875   0.286
25403W        W93797  21.260  29.466  10.728
25404W        W93798  36.925  40.485  10.634
25405W        W93799  34.328  44.491  14.288
25406W        W93800   9.879   5.534   2.304
25407W        W93801  22.593  21.118   1.466
25408W        W93802  22.381  42.994   1.364
25409W        W93803  34.401   0.852  14.022
25410W        W93804  30.369   5.699   0.936
25411W        W93805   6.184  22.137   4.341
25412W        W93806  19.517   5.901  12.718
25413W        W93807   1.505   6.749   2.541
25414W        W93808  15.754  13.681  12.573
25415W        W93809  12.423  21.380  13.479
25416W        W93810  25.109  28.933   0.407
25417W        W93811  13.019  19.560  10.221
25418W        W93812  29.821  23.005   2.785
25419W        W93813  14.140   6.502  13.813
25420W        W93814  18.034  16.154   2.768
25421W        W93815  43.236  19.622  13.079
25422W        W93816   2.825   4.811   3.275
25423W        W93817  15.216  30.860   1.150
25424W        W93818  34.645   3.814   0.838
25425W        W93819  20.364  28.865   2.406
25426W        W93820   7.807  34.193   0.254
25427W        W93821  25.464   1.240   3.771
25428W        W93822  18.285  31.512  11.006
25429W        W93823  24.612  10.292  12.055
25430W        W93824  23.783   2.355  13.845
25431W        W93825  35.995  12.520  14.435
25432W        W93826  29.684  14.344   3.353
25433W        W93827  43.600   7.289   1.996
25434W        W93828  23.586   5.819   4.271
25435W        W93829  16.109  26.965  12.931
25436W        W93830  22.570   9.827  11.920
25437W        W93831   2.225  20.631   2.428
25438W        W93832  14.253   1.294  12.019
25439W        W93833   0.809   1.498   2.197
25440W        W93834  10.433  14.357  10.792
25441W        W93835   2.837   5.926   2.626
25442W        W93836  29.910   9.690   0.810
25443W        W93837  35.890  13.307   2.794
25444W        W93838  25.347  36.927  10.560
25445W        W93839  37.736  13.078   1.459
25446W        W93840  42.921  31.840  10.251
25447W        W93841  29.469  27.990   4.595
25448W        W93842  23.641   7.150  11.632
25449W        W93843   7.676  31.503   2.929
25450W        W93844  39.724   2.869   4.165
25451W        W93845  26.396  15.934  12.223
25452W        W93846  33.375  29.128  12.541
25453W        W93847  22.538  11.189  12.842
25454W        W93848   6.135  17.055   0.556
25455W        W93849  12.580  25.646   1.401
25456W        W93850  28.464  13.267   4.479
25457W        W93851  36.065   3.968   0.989
25458W        W93852  20.975  44.096  12.530
25459W        W93853  11.135  34.971  14.060
25460W        W93854   9.139  10.200  10.676
25461W        W93855   6.801  10.612   0.636
25462W        W93856  10.090  32.588  12.476
25463W        W93857   0.199  10.735  13.433
25464W        W93858  43.771  19.651   4.134
25465W        W93859  44.892  42.245   4.584
25466W        W93860  39.406  23.231  13.592
25467W        W93861  16.872  36.909   5.504
25468W        W93862  15.826   0.697  12.345
25469W        W93863   5.861  15.331   1.415
25470W        W93864  33.462  32.955  12.871
25471W        W93865  35.982  42.511  12.016
25472W        W93866  25.439  29.588   3.254
25473W        W93867  26.666   6.972   3.343
25474W        W93868  39.982  19.639   1.881
25475W        W93869  32.114  24.407   3.609
25476W        W93870  41.023  10.865   2.477
25477W        W93871   2.320  12.635  13.836
25478W        W93872  35.850  19.071   2.959
25479W        W93873  13.280  13.676   1.017
25480W        W93874  38.843   2.408  12.000
25481W        W93875   9.827  34.511   4.600
25482W        W93876  25.976  17.733   0.770
25483W        W93877  37.441  23.145   0.496
25484W        W93878  39.919  29.413  12.426
25485W        W93879  25.747   4.854   4.503
25486W        W93880  37.736  12.559   1.498
25487W        W93881  38.059  34.567  12.588
25488W        W93882  31.933  34.924  14.967
25489W        W93883  16.596  44.582  11.346
25490W        W93884  19.355   9.800   4.126
25491W        W93885  30.364  15.760   1.591
25492W        W93886  22.782  19.660   4.630
25493W        W93887  14.219  34.085   0.995
25494W        W93888  16.308  14.023  14.217
25495W        W93889  17.632  28.416   4.158
25496W        W93890   6.311   6.674  13.436
25497W        W93891  10.101  17.012   2.431
25498W        W93892  27.795  10.220   5.052
25499W        W93893  44.125   6.261  12.794
25500W        W93894  23.132   4.646  14.314
25501W        W93895  18.103  25.041   3.163
25502W        W93896  31.442  15.711  13.898
25503W        W93897   0.948  39.654   2.270
25504W        W93898  31.909  35.592   3.257
25505W        W93899  39.564   3.842   4.603
25506W        W93900  22.626  40.320   2.645
25507W        W93901   4.121  24.698  10.102
25508W        W93902  23.009  35.063   1.690
25509W        W93903  38.333  15.296   2.645
25510W        W93904  31.830  29.159  12.904
25511W        W93905  21.289  43.155  12.947
25512W        W93906  11.389  17.081   4.028
25513W        W93907   2.958  35.233   1.439
25514W        W93908  36.076  42.722  12.480
25515W        W93909   7.300  10.134  13.390
25516W        W93910  39.087   8.629  12.099
25517W        W93911  39.511  15.996  13.580
25518W        W93912  19.783  34.456  13.925
25519W        W93913  31.186  11.634  13.976
25520W        W93914   3.676  13.079   2.886
25521W        W93915   4.617  43.242  10.492
25522W        W93916  11.843  43.403  11.977
25523W        W93917  24.180  40.709  14.342
25524W        W93918  41.806   3.857  11.597
25525W        W93919  28.747   5.735   0.894
25526W        W93920  21.532  21.753  13.027
25527W        W93921  12.623  39.835   1.909
25528W        W93922  31.078   3.893  14.040
25529W        W93923  36.837  14.305   3.039
25530W        W93924  30.038  21.709  14.253
25531W        W93925  11.207  18.098  10.729
25532W        W93926  44.875  19.067  10.599
25533W        W93927   0.292  14.639   2.348
25534W        W93928  35.499  38.962   3.133
25535W        W93929  28.051  44.210  13.278
25536W        W93930  29.672  30.457  10.684
25537W        W93931  14.264  37.254  12.431
25538W        W93932  40.540  28.996  10.860
25539W        W93933   1.516   9.322   4.614
25540W        W93934  11.529   0.732   2.484
25541W        W93935  20.891  43.758  11.168
25542W        W93936  42.871  17.633   4.851
25543W        W93937  39.144  40.884  13.504
25544W        W93938   1.465  23.934   1.033
25545W        W93939  29.788  34.389  11.638
25546W        W93940  24.985  15.355   0.355
25547W        W93941   7.799  44.961  11.907
25548W        W93942  13.327  13.292   3.323
25549W        W93943  22.019  44.044   1.281
25550W        W93944  27.939   7.258   0.417
25551W        W93945   5.444  43.972  14.524
25552W        W93946  28.261  38.880   4.871
25553W        W93947  24.250  16.313   2.829
25554W        W93948  42.867  26.107  13.421
25555W        W93949   1.467   3.399  11.400
25556W        W93950  23.057  25.066   4.700
25557W        W93951  32.227   7.764  13.376
25558W        W93952  38.109  31.003   4.397
25559W        W93953  38.449  37.002  12.186
25560W        W93954  17.197  18.233   2.122
25561W        W93955  42.296  43.774  11.710
25562W        W93956  38.147  32.348   1.300
25563W        W93957  15.587  39.695  13.530
25564W        W93958   5.235  13.630  14.022
25565W        W93959   1.681  29.004   0.871
25566W        W93960  15.889   9.796   2.838
25567W        W93961  10.650  18.697   1.842
25568W        W93962  43.891  42.427   2.744
25569W        W93963  17.904  17.365  14.145
25570W        W93964  44.476   4.948   1.126
25571W        W93965  29.621  10.321  14.358
25572W        W93966  44.598   2.912   3.862
25573W        W93967   3.505  34.852   2.696
25574W        W93968   3.644  43.453  10.554
25575W        W93969   4.520  16.573   4.639
25576W        W93970  21.945  37.565  12.966
25577W        W93971  10.731   6.699   4.744
25578W        W93972  35.865  27.875   1.840
25579W        W93973  38.981  24.106   2.755
25580W        W93974   8.122  20.513  12.578
25581W        W93975   2.816  13.365   5.495
25582W        W93976  18.386  41.663   3.494
25583W        W93977   2.630  37.940  13.473
25584W        W93978  31.969  38.190  10.845
25585W        W93979   9.712  39.775  14.371
25586W        W93980  29.655  40.893  11.125
25587W        W93981  33.083   6.936  14.049
25588W        W93982  37.096  16.729  10.692
25589W        W93983  20.644  31.206   2.379
25590W        W93984  36.068  22.933   2.898
25591W        W93985  14.978   6.825  10.338
25592W        W93986  15.333  19.129   0.248
25593W        W93987  27.045   4.449   4.583
25594W        W93988  29.800  43.297  13.592
25595W        W93989   4.823  35.504   0.466
25596W        W93990  16.801   9.911   3.788
25597W        W93991   4.789  40.934  14.437
25598W        W93992  29.759  18.293   3.163
25599W        W93993  38.266  40.269   2.285
25600W        W93994  22.908  31.626  14.934
25601W        W93995  33.667  34.929   1.359
25602W        W93996  39.400  41.267  12.610
25603W        W93997  30.593  15.329  12.034
25604W        W93998  30.914  33.713  12.862
25605W        W93999  21.266  22.670   3.045
25606W        W94000  43.032   1.039   4.243
25607W        W94001   3.452  42.233  12.919
25608W        W94002  19.812   4.121   3.663
25609W        W94003  23.116  19.131   4.920
25610W        W94004  31.560  43.391  12.896
25611W        W94005  23.429  11.066   2.241
25612W        W94006  34.615  30.157   4.655
25613W        W94007  14.885  30.501  14.766
25614W        W94008  42.917  41.358  12.007
25615W        W94009  36.194  20.682   3.608
25616W        W94010  23.856  21.319   3.810
25617W        W94011  42.446  15.474   1.354
25618W        W94012  19.734  30.114  14.862
25619W        W94013  35.587  31.711   1.190
25620W        W94014  38.444  27.689  14.532
25621W        W94015   3.998  34.141  13.802
25622W        W94016  44.707  17.700   4.737
25623W        W94017  13.623  14.997   3.303
25624W        W94018   9.787  44.812  10.453
25625W        W94019   0.960   1.744   0.714
25626W        W94020  36.169  39.532  12.165
25627W        W94021   3.257  39.332  14.437
25628W        W94022  16.355  26.588  14.042
25629W        W94023  23.568  14.190  13.049
25630W        W94024  12.290  37.996  12.421
25631W        W94025  41.118  19.788  11.283
25632W        W94026  16.325  17.073  13.643
25633W        W94027   3.314   1.970   3.139
25634W        W94028  38.933  10.444   2.249
25635W        W94029  18.488  17.890  13.462
25636W        W94030  30.605  31.363  10.653
25637W        W94031   6.702  25.211  10.722
25638W        W94032   5.417  19.587   2.731
25639W        W94033  32.184  29.770  12.322
25640W        W94034   8.274  34.993  13.197
25641W        W94035   3.109  20.024  13.864
25642W        W94036  40.781  16.553  13.867
25643W        W94037  44.467  24.012   3.628
25644W        W94038  30.992  36.611   0.726
25645W        W94039  23.722   5.190   0.015
25646W        W94040  33.004  36.686  14.195
25647W        W94041  19.132   2.255  14.352
25648W        W94042   9.277  20.726  10.146
25649W        W94043  38.503  20.661   0.960
25650W        W94044  10.309  36.862   0.942
25651W        W94045  22.773  15.144  12.218
25652W        W94046   6.972  43.494  12.925
25653W        W94047   6.804  43.390   4.265
25654W        W94048  21.569   5.285  11.862
25655W        W94049   7.693  29.775   2.180
25656W        W94050  28.473  44.937  10.752
25657W        W94051  16.318  41.293   1.077
25658W        W94052   1.673  30.394  12.277
25659W        W94053  11.257   8.230  11.508
25660W        W94054  39.250  42.885  14.718
25661W        W94055  17.665  14.182  10.355
25662W        W94056  30.561  24.633   1.984
25663W        W94057   9.905  29.243   2.193
25664W        W94058  23.761  15.850   1.217
25665W        W94059   5.680  19.105  11.834
25666W        W94060  13.754  25.110  12.643
25667W        W94061   7.664   2.996  13.867
25668W        W94062  24.056   0.968   3.341
25669W        W94063  43.316  15.532  14.484
25670W        W94064  19.330  16.746   4.200
25671W        W94065  16.268   7.933  12.949
25672W        W94066  33.541   4.976   2.263
25673W        W94067  16.214   5.688  12.339
25674W        W94068  39.433  36.484   2.713
25675W        W94069   3.718  31.030   1.774
25676W        W94070  35.018  17.367  12.576
25677W        W94071  34.430   9.602   4.507
25678W        W94072  43.400   2.932  12.825
25679W        W94073  31.042  18.131  13.364
25680W        W94074  42.828   6.795  10.418
25681W        W94075  40.212   7.684   1.845
25682W        W94076  24.592  37.794  11.145
25683W        W94077  33.685  30.222   0.107
25684W        W94078  22.033  41.377  13.171
25685W        W94079  26.783  13.347   3.657
25686W        W94080  15.630  20.976   0.321
25687W        W94081  36.110  11.140  10.544
25688W        W94082  21.731   5.847   0.174
25689W        W94083  24.477  20.998  11.507
25690W        W94084  34.550   8.682  11.030
25691W        W94085  17.642  31.209   1.318
25692W        W94086  25.606  35.519   2.384
25693W        W94087  44.468  40.379  10.597
25694W        W94088  17.536  26.130  10.316
25695W        W94089   2.331  30.862  11.190
25696W        W94090  35.888   4.711   2.271
25697W        W94091  25.740  31.495   1.817
25698W        W94092  42.033  39.115   0.914
25699W        W94093  27.437  42.971  12.069
25700W        W94094  33.662  40.265  13.693
25701W        W94095  22.504  18.968  10.958
25702W        W94096  43.915  11.808   1.739
25703W        W94097  34.482  19.494  12.501
25704W        W94098  34.779  19.731  14.432
25705W        W94099   4.854  24.685  11.201
25706W        W94100   1.335  41.930  13.542
25707W        W94101   7.216   6.615   1.000
25708W        W94102  30.935  10.560   2.283
25709W        W94103  11.791  15.539  11.595
25710W        W94104  30.050  27.417   0.424
25711W        W94105   2.216  31.859   1.684
25712W        W94106   3.278   0.156   3.123
25713W        W94107   8.847  26.252   4.271
25714W        W94108  40.957  10.907  11.578
25715W        W94109  27.263  42.433  12.911
25716W        W94110  30.405   7.092   0.886
25717W        W94111  17.667  41.462   1.354
25718W        W94112  30.147  18.294   1.745
25719W        W94113  17.842  16.113   2.165
25720W        W94114  30.718  40.431  12.713
25721W        W94115   4.922   9.788  14.732
25722W        W94116   5.198  11.240  10.831
25723W        W94117   5.792  31.346   0.313
25724W        W94118  19.357  44.296  14.494
25725W        W94119  16.725   4.801  13.389
25726W        W94120   5.404  24.049  14.808
25727W        W94121  42.513  21.603   2.120
25728W        W94122   4.847   9.304   3.684
25729W        W94123  38.059  32.014  14.761
25730W        W94124  42.453  16.786   3.747
25731W        W94125  35.707  26.168   3.357
25732W        W94126  37.504   5.912  14.938
25733W        W94127  41.617  17.754   1.231
25734W        W94128   4.216  19.240   3.974
25735W        W94129   9.317   9.970   2.827
25736W        W94130  24.694  18.280  14.799
25737W        W94131   7.312  21.972  13.792
25738W        W94132  26.234  28.096  14.119
25739W        W94133   8.741  42.824   1.417
25740W        W94134   8.215  10.305   2.703
25741W        W94135  31.827  11.590   3.048
25742W        W94136   2.954  43.068  11.225
25743W        W94137  25.017  42.358  11.047
25744W        W94138   5.430   6.693   3.059
25745W        W94139  27.143  17.053   3.808
25746W        W94140  11.704   4.432  12.499
25747W        W94141   8.295  35.837   0.565
25748W        W94142  38.057  20.580  11.654
25749W        W94143  44.729  20.043   4.848
25750W        W94144  26.609  15.712   4.008
25751W        W94145   5.885  25.214  11.142
25752W        W94146  24.711  38.389  12.486
25753W        W94147  29.477  23.793   0.996
25754W        W94148  39.504   8.240   0.429
25755W        W94149  22.110  11.294  11.583
25756W        W94150  26.639  10.301   1.668
25757W        W94151  32.094  20.225   3.670
25758W        W94152  29.786  39.939   0.327
25759W        W94153  43.903   9.219   4.233
25760W        W94154  44.415  14.296   0.753
25761W        W94155  29.168  25.479  12.488
25762W        W94156  11.168  24.050  14.854
25763W        W94157  42.298   0.944   4.697
25764W        W94158  29.011   3.354  14.258
25765W        W94159  11.343  31.864  12.854
25766W        W94160  30.021  18.475  11.669
25767W        W94161  15.217  14.366  12.352
25768W        W94162  44.081   7.471   2.114
25769W        W94163  15.583  29.101  12.557
25770W        W94164  23.564  39.931   3.687
25771W        W94165  35.395  37.515  10.471
25772W        W94166  20.546  23.742   3.202
25773W        W94167  16.000  25.683   3.793
25774W        W94168  18.549   8.187   3.337
25775W        W94169  27.017  37.958  11.606
25776W        W94170  33.419  26.495   1.803
25777W        W94171  30.240  19.815  14.890
25778W        W94172  33.758  13.059   0.751
25779W        W94173  21.801  25.066   2.349
25780W        W94174  18.040  42.069  10.199
25781W        W94175  29.940  31.954   2.684
25782W        W94176  17.658   1.703   0.808
25783W        W94177   3.201  16.251  13.820
25784W        W94178  38.240  26.544   3.273
25785W        W94179  17.547  38.028   3.824
25786W        W94180   5.659  17.256   2.351
25787W        W94181   2.490  20.601  12.901
25788W        W94182  19.262   3.205  11.092
25789W        W94183  14.178  31.598   1.835
25790W        W94184  24.363  26.298  12.415
25791W        W94185  23.514  32.204   0.345
25792W        W94186  43.076  40.813   1.333
25793W        W94187  27.237  21.753   1.167
25794W        W94188  35.858  18.947  14.963
25795W        W94189  44.365  16.803   2.171
25796W        W94190   3.273  28.976   3.662
25797W        W94191  28.002   7.285  12.427
25798W        W94192  27.720  41.561  12.847
25799W        W94193   9.005  40.996   4.011
25800W        W94194  11.680  11.831   1.912
25801W        W94195   3.459  26.609   3.186
25802W        W94196  38.536  22.779  11.894
25803W        W94197  31.125  29.787   2.065
25804W        W94198  42.956  36.800   2.275
25805W        W94199   4.615  18.408  11.541
25806W        W94200  21.073  21.712   3.367
25807W        W94201  14.272  42.298   4.524
25808W        W94202  31.847  28.387  13.309
25809W        W94203  39.102   0.133   2.704
25810W        W94204  41.230  27.036  13.071
25811W        W94205  10.064  23.036   4.204
25812W        W94206  17.334  25.643  12.481
25813W        W94207  17.326   9.148   0.058
25814W        W94208  16.147   3.968  12.895
25815W        W94209  17.223   7.967   1.386
25816W        W94210  37.465  34.595   2.714
25817W        W94211   6.950  34.520   2.226
25818W        W94212   4.104  37.367   3.647
25819W        W94213  14.254   3.439   4.590
25820W        W94214   1.120   6.734   4.264
25821W        W94215  39.000  44.248   1.302
25822W        W94216  41.266   9.202  12.455
25823W        W94217  32.006  31.184   3.727
25824W        W94218  27.565  29.517  11.228
25825W        W94219  22.591  33.788  13.432
25826W        W94220  14.181  18.348  14.484
25827W        W94221  15.874  27.461  12.957
25828W        W94222  20.986  26.535   3.704
25829W        W94223  18.729  38.829   2.718
25830W        W94224  22.540  17.232  10.656
25831W        W94225  39.113  21.509  13.514
25832W        W94226   8.227  34.094   4.277
25833W        W94227  28.067  27.459  10.639
25834W        W94228  26.163  44.394   3.278
25835W        W94229   5.843  19.638   0.064
25836W        W94230  36.936   9.227   1.377
25837W        W94231  18.092  20.638   2.889
25838W        W94232  29.005   7.274  13.236
25839W        W94233  32.334   3.046  11.070
25840W        W94234  13.619  42.890  11.242
25841W        W94235  34.958  16.827   4.303
25842W        W94236   1.799   7.260   3.791
25843W        W94237  29.058  21.243   0.341
25844W        W94238   0.579   5.148   2.364
25845W        W94239  16.758  18.671   4.608
25846W        W94240   9.157  16.177  11.313
25847W        W94241  39.683  39.392   0.917
25848W        W94242  37.609  42.318  14.456
25849W        W94243   2.214  44.585   2.377
25850W        W94244  18.151  34.102   3.665
25851W        W94245   1.529  42.262   4.066
25852W        W94246  29.829   4.760   0.919
25853W        W94247   3.963   5.734   9.845
25854W        W94248  10.677  27.632   3.595
25855W        W94249  21.762   9.917  10.152
25856W        W94250  29.478  16.863  14.228
25857W        W94251  20.163  20.521  11.582
25858W        W94252   4.393  36.895   1.784
25859W        W94253  13.211  19.520   3.193
25860W        W94254  42.047  36.529   1.260
25861W        W94255   1.988  19.042   2.888
25862W        W94256   2.256  25.356  12.588
25863W        W94257  31.047  25.245  14.400
25864W        W94258  20.138  33.790   2.409
25865W        W94259  18.422  20.256  13.090
25866W        W94260  32.931   6.973  10.741
25867W        W94261  17.829  21.423   1.828
25868W        W94262  31.082  42.907  10.708
25869W        W94263  42.068  34.865  11.936
25870W        W94264  19.768   3.215   2.118
25871W        W94265   0.462  13.225   4.667
25872W        W94266  14.587  28.020  14.810
25873W        W94267  10.563  11.556  14.522
25874W        W94268   3.904  30.193  11.579
25875W        W94269  16.772  26.983   2.397
25876W        W94270  34.951   1.373   3.768
25877W        W94271  17.473  26.043   1.655
25878W        W94272  40.758  30.416  10.689
25879W        W94273   8.780  17.085  11.169
25880W        W94274  36.775  11.588   0.886
25881W        W94275  29.065  27.527   1.860
25882W        W94276  14.913  36.590  12.618
25883W        W94277   5.888  19.128   1.921
25884W        W94278  10.042  21.256   3.719
25885W        W94279  40.696  22.121   5.017
25886W        W94280  18.165   6.163   2.628
25887W        W94281  36.825  34.861  11.948
25888W        W94282   0.279  12.421   0.852
25889W        W94283   7.457  43.013  11.530
25890W        W94284   8.301   6.756   1.205
25891W        W94285  26.198  21.687   3.600
25892W        W94286  25.493  22.806  12.455
25893W        W94287  23.428  43.466   4.213
25894W        W94288  29.634  12.717  10.653
25895W        W94289   2.790  41.603  14.095
25896W        W94290  22.571  39.654   0.377
25897W        W94291   1.978   8.329   4.781
25898W        W94292  35.164  40.803  10.647
25899W        W94293  35.492  22.251  13.576
25900W        W94294  19.469  26.630   2.407
25901W        W94295   9.982   4.889  11.082
25902W        W94296  26.900  16.339  11.607
25903W        W94297  14.781  24.465  13.234
25904W        W94298  31.641  28.150   0.705
25905W        W94299  11.935  23.123  11.952
25906W        W94300  42.904  19.375  11.951
25907W        W94301  19.613  27.446   0.282
25908W        W94302   2.511  11.820   1.383
25909W        W94303  13.327  28.038   0.360
25910W        W94304  30.471   8.427  11.149
25911W        W94305  36.909  44.054   2.685
25912W        W94306  25.984  13.619  11.975
25913W        W94307  24.299  15.718  11.601
25914W        W94308   7.719  10.126   2.799
25915W        W94309  44.204  16.485   4.913
25916W        W94310   6.630  17.796   1.575
25917W        W94311  28.859  42.879   1.219
25918W        W94312  26.152  10.396  13.640
25919W        W94313  15.369   8.731   9.896
25920W        W94314  24.316  25.317  11.952
25921W        W94315  34.254  38.172  14.079
25922W        W94316  20.445  25.971   1.760
25923W        W94317  13.394  14.151   3.253
25924W        W94318   7.284  37.418   2.064
25925W        W94319  37.057  27.879   2.757
25926W        W94320  14.861   7.002   0.735
25927W        W94321  23.518  30.830   1.969
25928W        W94322  19.129  32.493  11.191
25929W        W94323   3.307  17.845   4.804
25930W        W94324  17.406  32.900  12.938
25931W        W94325  16.110  26.678  10.154
25932W        W94326  34.264   5.447  11.160
25933W        W94327  29.531  20.626  11.281
25934W        W94328  37.303   0.872   0.079
25935W        W94329   6.698   0.540   3.371
25936W        W94330  35.367  19.238  11.094
25937W        W94331  38.015  11.561   0.676
25938W        W94332  21.534  30.958   5.139
25939W        W94333  11.231  15.642  14.864
25940W        W94334  34.539  30.911   1.168
25941W        W94335  44.313   2.254   0.419
25942W        W94336   5.118  25.467   2.755
25943W        W94337  20.535  12.584   0.783
25944W        W94338  36.799   3.333   1.879
25945W        W94339   5.429  29.287  13.336
25946W        W94340  41.636   9.080   1.777
25947W        W94341   8.674  23.128   2.397
25948W        W94342  17.196  10.472   1.395
25949W        W94343  19.591  18.545   1.888
25950W        W94344  12.781  39.799  11.010
25951W        W94345   9.448  10.371   3.226
25952W        W94346  40.988  33.095  14.215
25953W        W94347  20.968  44.780  13.119
25954W        W94348  20.636  15.805   1.947
25955W        W94349  28.608  41.960   2.763
25956W        W94350   3.303  41.178  10.304
25957W        W94351  30.544  36.093   4.565
25958W        W94352  33.098  37.998  12.140
25959W        W94353  11.156  44.403   3.255
25960W        W94354  41.085  11.861  12.078
25961W        W94355  19.108  31.498   1.506
25962W        W94356  25.381  41.521  11.154
25963W        W94357  10.070  11.888  12.952
25964W        W94358  26.153   0.349  12.061
25965W        W94359   4.950   7.261   1.984
25966W        W94360  27.156  31.626  14.568
25967W        W94361  24.950   1.175  14.584
25968W        W94362  25.629  22.920  13.503
25969W        W94363  25.586   5.932   0.681
25970W        W94364  37.618  17.175  14.777
25971W        W94365   7.095  29.507  11.425
25972W        W94366  27.070   9.165  13.149
25973W        W94367  25.364  31.058   3.149
25974W        W94368  14.835  37.404  10.662
25975W        W94369  13.865  36.026   2.181
25976W        W94370   5.327  29.196   5.021
25977W        W94371  12.136   8.446  14.950
25978W        W94372  18.918  33.608  12.400
25979W        W94373   4.731  14.487  14.251
25980W        W94374  24.244   7.480   2.509
25981W        W94375  19.626   0.304   3.716
25982W        W94376  23.732  10.226   1.842
25983W        W94377   1.009  24.025   0.795
25984W        W94378  32.854  37.076   0.983
25985W        W94379  41.617   2.476   0.751
25986W        W94380  35.619  24.927  13.299
25987W        W94381  28.448   0.927   0.684
25988W        W94382   7.852  24.246   2.845
25989W        W94383  19.199  44.985   2.466
25990W        W94384   2.527  22.975  13.490
25991W        W94385   8.048   2.178   0.268
25992W        W94386  32.054  13.498  10.726
25993W        W94387  29.585  33.775   3.927
25994W        W94388  34.268  40.058   3.254
25995W        W94389  10.234  43.096  12.438
25996W        W94390  28.610  14.823   2.578
25997W        W94391   2.473  22.253  11.627
25998W        W94392  24.056  38.862  12.973
25999W        W94393  40.220  16.525   4.953
26000W        W94394  11.546   3.301  10.569
26001W        W94395  12.199  40.334   3.372
26002W        W94396  13.441  16.157  12.407
26003W        W94397   2.028  13.701   0.384
26004W        W94398  31.393   4.195   2.201
26005W        W94399   2.577  38.256   0.402
26006W        W94400   8.303  11.440   4.718
26007W        W94401  44.117  37.093   1.587
26008W        W94402  19.477   7.348  10.591
26009W        W94403  17.619  39.384  12.475
26010W        W94404  16.643  19.609  10.977
26011W        W94405   0.202  21.429  10.675
26012W        W94406   5.768  17.822   1.503
26013W        W94407  27.929  39.174  13.413
26014W        W94408  28.567  22.594  12.184
26015W        W94409  28.670  38.481  11.884
26016W        W94410  38.508   8.449  14.536
26017W        W94411  12.445  25.868   0.861
26018W        W94412  27.765  41.898   0.267
26019W        W94413  12.609  32.383   0.050
26020W        W94414  13.042  25.760   1.723
26021W        W94415  28.596  33.810   2.878
26022W        W94416   4.884  35.107  11.686
26023W        W94417  10.805   8.864  12.383
26024W        W94418  31.474  33.639   4.407
26025W        W94419   8.643  34.343  12.482
26026W        W94420   1.337  43.948   4.076
26027W        W94421  28.408  35.090  13.487
26028W        W94422  26.350   5.773   0.303
26029W        W94423   7.798  29.178  13.856
26030W        W94424  21.648  44.480  12.866
26031W        W94425   8.779  35.465  13.467
26032W        W94426  23.205  19.762  12.138
26033W        W94427  43.334   1.036   4.696
26034W        W94428  18.780  35.604   0.150
26035W        W94429  30.554  42.577  12.794
26036W        W94430  25.655  34.365  11.212
26037W        W94431  13.708  29.075  12.020
26038W        W94432  37.834  25.231   1.657
26039W        W94433   8.646   9.729   3.405
26040W        W94434  34.900  12.306   2.908
26041W        W94435  36.593  23.964  11.595
26042W        W94436  22.252  19.272   1.320
26043W        W94437  25.726  35.102  11.924
26044W        W94438  23.130  25.006  12.382
26045W        W94439   4.370  29.982  12.601
26046W        W94440  41.786  18.515  10.710
26047W        W94441  16.296  18.857   1.816
26048W        W94442  24.952   0.728   1.812
26049W        W94443  36.491  41.795  13.096
26050W        W94444  32.484  22.438  14.726
26051W        W94445  19.944  20.104  11.387
26052W        W94446   8.149  43.775   1.197
26053W        W94447  40.944  27.049  11.534
26054W        W94448  36.535  12.498  13.672
26055W        W94449  17.217   1.830   4.609
26056W        W94450  33.934  34.439  12.600
26057W        W94451  30.376  20.073  14.455
26058W        W94452  18.671  25.022   0.039
26059W        W94453  40.195  21.271   0.146
26060W        W94454  42.876   4.968   3.953
26061W        W94455  25.143  37.581  14.906
26062W        W94456  28.031  19.013   2.367
26063W        W94457   1.736  35.455   4.593
26064W        W94458  33.829  19.051   2.850
26065W        W94459  23.579   1.953  11.780
26066W        W94460  16.539   1.858  14.838
26067W        W94461   9.967  13.433   3.283
26068W        W94462  23.252  37.201  11.693
26069W        W94463  38.086  26.621   1.656
26070W        W94464  13.272  25.518  14.738
26071W        W94465  32.340  44.776  12.132
26072W        W94466  27.146  13.669   4.374
26073W        W94467   9.265  18.135   2.820
26074W        W94468  16.429  42.858  13.195
26075W        W94469  32.865  24.252  12.123
26076W        W94470  24.075   0.777   0.398
26077W        W94471   0.526  42.488   4.390
26078W        W94472   9.433  35.297   3.414
26079W        W94473   6.913  18.572  14.711
26080W        W94474  39.125  15.752  13.868
26081W        W94475   4.910   3.351  13.251
26082W        W94476  38.265  28.166  14.516
26083W        W94477  32.752  21.095  14.377
26084W        W94478  35.506  12.136  14.132
26085W        W94479   0.849  15.189   1.903
26086W        W94480  30.644   8.954   3.759
26087W        W94481   7.578   6.261  10.712
26088W        W94482  28.380  42.221   1.019
26089W        W94483  21.048  28.807  13.513
26090W        W94484  25.485  24.512   3.242
26091W        W94485   6.403  20.988   4.977
26092W        W94486  30.347  24.100  10.459
26093W        W94487  32.062  37.392  11.093
26094W        W94488  19.707  29.900   2.787
26095W        W94489  38.110  39.539   4.431
26096W        W94490   3.857  36.028  13.546
26097W        W94491  13.618   3.461   1.857
26098W        W94492  12.039   6.721   1.438
26099W        W94493  20.835   9.320  14.320
26100W        W94494  12.308  37.394   4.285
26101W        W94495   6.806  14.813   0.961
26102W        W94496  10.449  14.235  14.805
26103W        W94497  32.446   2.143   4.354
26104W        W94498  33.886   5.851   4.541
26105W        W94499  13.197  21.695   4.135
26106W        W94500  42.480  17.866  14.363
26107W        W94501  43.519   5.753   2.457
26108W        W94502  24.294  33.487  11.556
26109W        W94503   9.765  23.111   0.264
26110W        W94504  40.283  17.090  12.866
26111W        W94505  37.811  32.635   0.720
26112W        W94506   8.120  25.997   2.119
26113W        W94507   3.660  24.432   2.657
26114W        W94508  11.843  27.530   3.743
26115W        W94509   7.764  30.530   1.530
26116W        W94510   0.467  21.261  13.034
26117W        W94511   0.040  35.842  12.496
26118W        W94512  33.392   1.737  11.214
26119W        W94513  23.715  35.903  13.809
26120W        W94514  35.360   6.772  14.872
26121W        W94515  17.824   8.200   4.124
26122W        W94516   4.694   6.600  10.555
26123W        W94517   2.705   9.582   1.603
26124W        W94518  34.411  43.415   3.037
26125W        W94519  36.828  22.481  12.362
26126W        W94520   1.965  26.708   2.026
26127W        W94521  38.015  32.589  12.431
26128W        W94522  22.232  40.288   4.385
26129W        W94523  27.998  29.523   3.627
26130W        W94524  30.476  12.966   3.111
26131W        W94525   0.455  36.422   2.443
26132W        W94526  14.169  37.303   2.408
26133W        W94527  24.557  36.782   4.923
26134W        W94528   4.080  26.121   3.795
26135W        W94529  22.920  29.558   4.733
26136W        W94530  15.982   4.856  12.029
26137W        W94531   4.682   0.676  11.579
26138W        W94532  19.145  44.454   2.188
26139W        W94533  39.762   7.174  10.788
26140W        W94534  14.709  23.614   4.619
26141W        W94535  18.846  32.892  14.858
26142W        W94536  21.676   5.862  12.539
26143W        W94537  30.918  30.505  14.820
26144W        W94538  42.259   7.619   3.149
26145W        W94539   8.209   6.992  14.888
26146W        W94540  43.241  24.539   4.282
26147W        W94541   2.825  25.291  13.336
26148W        W94542  43.817  18.170  12.555
26149W        W94543   1.214   8.868   4.713
26150W        W94544  16.308  23.524   1.927
26151W        W94545  17.081  10.326   2.903
26152W        W94546  38.420  20.143   0.827
26153W        W94547  21.745  32.583   2.619
26154W        W94548  19.588   4.761  11.086
26155W        W94549  12.702  12.258  13.930
26156W        W94550  24.288  14.545  11.112
26157W        W94551  15.308   1.710  13.849
26158W        W94552  26.325  24.515   0.002
26159W        W94553  13.839  10.661   4.633
26160W        W94554  22.269  31.929   2.339
26161W        W94555   8.359   2.912   4.186
26162W        W94556  13.603  18.228  13.726
26163W        W94557   6.976   8.342   2.866
26164W        W94558  11.876  17.075   1.657
26165W        W94559  15.426  27.747  13.022
26166W        W94560  29.015  24.710  14.975
26167W        W94561  23.286  38.583   1.431
26168W        W94562   5.390  22.930  10.478
26169W        W94563  43.893  11.330  13.886
26170W        W94564  18.739  42.281   0.945
26171W        W94565  17.478   7.245  10.740
26172W        W94566  39.835   3.034   3.248
26173W        W94567  39.014   3.656  10.840
26174W        W94568  41.486  14.348  11.472
26175W        W94569   5.660   3.882   3.123
26176W        W94570  30.890  11.816   0.420
26177W        W94571  13.907   1.157  12.491
26178W        W94572  15.035   7.986  12.582
26179W        W94573   0.316  38.897  11.036
26180W        W94574  12.474  34.342  12.504
26181W        W94575  24.687  15.427   4.207
26182W        W94576  40.893  16.032   2.347
26183W        W94577  37.053  20.143  10.774
26184W        W94578   3.848  37.466   0.301
26185W        W94579   1.857   5.904   4.651
26186W        W94580  28.648  42.392   4.096
26187W        W94581  21.350  25.656   5.115
26188W        W94582   0.775  17.354   4.617
26189W        W94583  21.693  17.203   1.718
26190W        W94584   5.609   8.247   2.063
26191W        W94585  16.562  44.019   4.356
26192W        W94586  20.817   6.768   2.301
26193W        W94587  42.744   9.784  10.648
26194W        W94588  39.079   7.659   4.682
26195W        W94589  14.745   4.847  14.476
26196W        W94590  41.006  18.499  11.495
26197W        W94591  34.361   0.989  11.585
26198W        W94592  33.301  30.145  13.438
26199W        W94593   2.859  29.952   4.542
26200W        W94594   8.794  34.076   3.497
26201W        W94595  27.990   3.350  11.598
26202W        W94596  42.267  31.922  14.028
26203W        W94597  31.431  24.537   1.877
26204W        W94598  37.506   8.616  10.571
26205W        W94599   4.857  36.395  11.742
26206W        W94600  39.059   4.810  10.406
26207W        W94601  21.246  28.926   2.275
26208W        W94602  39.625  21.482  14.945
26209W        W94603  14.084  31.627  13.080
26210W        W94604   2.496   5.838   3.839
26211W        W94605   5.457  35.713   1.015
26212W        W94606   3.587  11.973   1.846
26213W        W94607   6.798  20.499  12.275
26214W        W94608  37.585  23.079  12.706
26215W        W94609  11.087  39.348   4.000
26216W        W94610  43.266  37.543  12.985
26217W        W94611  37.225  32.435  13.351
26218W        W94612  17.529  22.615  12.202
26219W        W94613  13.613  15.141   2.801
26220W        W94614  25.628  24.282   4.520
26221W        W94615  41.005  16.506  13.342
26222W        W94616  10.971  18.790   3.111
26223W        W94617   9.588  22.146   2.316
26224W        W94618  24.632  17.275   0.087
26225W        W94619  29.010  18.660  10.686
26226W        W94620  39.979  39.079  10.148
26227W        W94621  17.996  32.619   2.411
26228W        W94622  32.277   8.720   4.236
26229W        W94623  14.199   4.688   1.888
26230W        W94624  42.507   7.396  13.944
26231W        W94625   7.640  43.414  10.632
26232W        W94626  23.500  37.910   0.027
26233W        W94627  22.292  38.388   2.197
26234W        W94628   7.116  10.271  10.765
26235W        W94629  23.501   0.012   1.348
26236W        W94630  16.214  13.322   4.756
26237W        W94631  41.836   7.379   4.618
26238W        W94632  32.298  35.516  12.613
26239W        W94633  13.289  13.086  10.638
26240W        W94634  29.614  40.376  13.456
26241W        W94635  42.033  23.526   3.670
26242W        W94636  42.559  16.445   0.538
26243W        W94637  42.024  20.210  10.635
26244W        W94638  44.844  11.145   1.275
26245W        W94639  44.327  36.627  13.639
26246W        W94640  36.071  15.452   5.078
26247W        W94641  39.000  34.548  13.843
26248W        W94642  34.321  44.321  12.503
26249W        W94643   0.807  37.342   3.105
26250W        W94644   4.235  43.542  12.068
26251W        W94645  42.461  11.595  14.899
26252W        W94646  11.434  16.048  13.122
26253W        W94647  30.272  16.503  13.494
26254W        W94648  12.457  22.262   3.804
26255W        W94649  32.129   0.483  10.703
26256W        W94650  14.360  27.154  13.473
26257W        W94651  41.543  43.385   3.713
26258W        W94652  37.949   5.733   3.150
26259W        W94653  12.237  20.771  14.222
26260W        W94654  41.413  19.726   2.617
26261W        W94655  11.124  15.670   4.557
26262W        W94656   6.214  40.342  10.653
26263W        W94657  40.935  36.133  12.860
26264W        W94658  37.952  26.301   4.683
26265W        W94659   5.146  19.350  13.826
26266W        W94660   8.654  42.684  13.880
26267W        W94661  38.526   6.563  12.359
26268W        W94662   6.727   3.524  14.898
26269W        W94663  42.640  40.577   5.072
26270W        W94664  40.901  35.474   0.721
26271W        W94665   8.651  33.509  12.170
26272W        W94666  19.692  18.668   3.297
26273W        W94667   4.986  44.949   2.459
26274W        W94668   2.164  25.244   1.700
26275W        W94669   3.475  31.630   4.998
26276W        W94670  33.991  14.556   3.374
26277W        W94671  30.802  43.214  11.003
26278W        W94672  41.810  12.064  10.647
26279W        W94673   6.325  35.572   2.012
26280W        W94674  19.330  11.217  10.716
26281W        W94675  19.498   0.086  14.029
26282W        W94676  28.691  24.612   1.813
26283W        W94677  26.229  34.656   3.202
26284W        W94678  35.581  26.708  12.826
26285W        W94679   7.722  41.003   4.538
26286W        W94680  10.787  36.579   0.788
26287W        W94681  37.886  14.109  12.149
26288W        W94682   6.166   7.709   3.562
26289W        W94683   4.420  14.246   2.870
26290W        W94684  15.252  23.034  11.118
26291W        W94685  21.219  43.785  11.578
26292W        W94686  20.895  10.880   1.932
26293W        W94687  37.971   9.396  10.714
26294W        W94688  25.476  12.743  12.555
26295W        W94689   3.266  18.778  14.374
26296W        W94690  38.084  34.928   0.387
26297W        W94691  37.748  33.170   0.802
26298W        W94692   9.613  15.291  14.806
26299W        W94693  30.290  19.876  13.583
26300W        W94694  16.201  32.068  13.866
26301W        W94695  16.744   7.443   3.155
26302W        W94696   2.952  18.539  12.055
26303W        W94697  36.799  21.655  14.281
26304W        W94698  24.366  36.851   2.590
26305W        W94699  21.666   2.006  14.097
26306W        W94700  35.468  15.637   4.402
26307W        W94701   8.582   4.246   3.250
26308W        W94702   1.311  44.930   4.559
26309W        W94703   3.872  27.902   3.607
26310W        W94704  40.354  31.181   0.394
26311W        W94705  33.503   1.520  13.849
26312W        W94706  43.138  17.841  11.235
26313W        W94707  11.827  18.280  14.912
26314W        W94708  22.071  31.753  11.103
26315W        W94709  44.086  21.583  12.548
26316W        W94710  41.843  44.303  10.336
26317W        W94711  24.709  40.999   1.518
26318W        W94712  18.833  32.712  12.999
26319W        W94713  28.510  40.894  12.841
26320W        W94714  16.854  23.983   4.163
26321W        W94715  19.064  40.379   3.692
26322W        W94716  23.353  41.060   3.543
26323W        W94717  35.946   2.468  11.589
26324W        W94718  42.898  17.507   1.413
26325W        W94719  36.951  40.645   2.287
26326W        W94720  27.042   9.849   2.352
26327W        W94721  27.163  13.294   3.191
26328W        W94722   9.582  27.166  13.861
26329W        W94723  32.492   2.993   3.440
26330W        W94724  25.512   3.794   3.852
26331W        W94725  22.728  36.276  12.082
26332W        W94726   4.963  25.894  13.326
26333W        W94727   7.292  22.624   1.425
26334W        W94728  15.425  23.968  13.377
26335W        W94729   6.675   2.238   5.396
26336W        W94730  32.371  28.164  10.607
26337W        W94731   9.676  25.936  12.811
26338W        W94732  39.057  25.627   3.275
26339W        W94733  25.692  20.169  12.065
26340W        W94734   2.321  34.411  14.805
26341W        W94735  10.111  24.395   5.411
26342W        W94736  22.983  19.228  12.362
26343W        W94737  44.018   4.213   3.091
26344W        W94738  43.936  13.891  11.168
26345W        W94739  38.060   3.158  11.505
26346W        W94740  42.116  21.038   4.985
26347W        W94741  28.808  39.847   1.887
26348W        W94742  34.472  36.032  12.020
26349W        W94743  23.906  35.219  12.035
26350W        W94744  33.308  36.476  12.156
26351W        W94745  11.304   3.124   0.320
26352W        W94746  44.724  19.498   2.179
26353W        W94747  14.086   7.968  13.933
26354W        W94748  10.770  10.757   0.922
26355W        W94749   6.590   3.545   2.298
26356W        W94750  16.880   5.335   3.261
26357W        W94751  38.734  25.729   4.333
26358W        W94752  43.836  38.585   3.748
26359W        W94753  29.920  41.068  14.484
26360W        W94754  31.422   3.825   2.963
26361W        W94755   2.838   8.760  11.100
26362W        W94756  35.908  35.785   4.105
26363W        W94757  12.935   6.472   1.252
26364W        W94758  37.839  31.334  12.033
26365W        W94759   4.411  43.081   0.730
26366W        W94760   6.976  36.152  10.757
26367W        W94761  41.949  38.994  12.563
26368W        W94762  37.964  37.522   3.637
26369W        W94763  35.272  17.104  11.863
26370W        W94764  21.004   4.928  13.459
26371W        W94765  16.735  27.827   1.875
26372W        W94766   1.403  39.514   3.192
26373W        W94767  25.421  22.651   4.993
26374W        W94768   7.918  42.542   0.490
26375W        W94769  39.371  43.782  11.540
26376W        W94770  24.761  22.951   0.836
26377W        W94771  37.995  21.629  12.635
26378W        W94772   2.377  39.835   0.471
26379W        W94773  41.011  36.416  10.654
26380W        W94774   9.576  32.577  12.483
26381W        W94775  24.407  18.602   4.581
26382W        W94776  25.223  29.900   4.887
26383W        W94777  13.719  30.969  14.475
26384W        W94778  11.395  29.976   1.325
26385W        W94779  21.031  29.819   4.185
26386W        W94780   2.365  13.358   3.745
26387W        W94781  17.495   7.594  13.378
26388W        W94782   4.598   5.820  14.049
26389W        W94783  35.295  32.926  14.977
26390W        W94784   3.175  16.745   2.381
26391W        W94785   8.615   1.997   2.760
26392W        W94786   9.548   1.370   4.536
26393W        W94787  24.053   2.284   0.394
26394W        W94788  34.550  15.343  10.268
26395W        W94789  30.074   4.001  13.780
26396W        W94790  12.919  44.291   3.663
26397W        W94791  21.155   0.121   3.618
26398W        W94792  42.993  39.482  13.293
26399W        W94793  17.729  21.624   4.765
26400W        W94794   7.428  30.833  12.210
26401W        W94795  24.943  27.807   2.202
26402W        W94796  39.445   0.377  12.322
26403W        W94797  22.018  12.845   2.037
26404W        W94798  38.062  13.826  13.989
26405W        W94799  39.964  31.515  10.807
26406W        W94800  15.372  11.871  12.504
26407W        W94801  25.460  28.722   4.926
26408W        W94802  38.572   5.334  13.983
26409W        W94803   7.007  20.826   3.301
26410W        W94804  28.646  23.909   4.143
26411W        W94805  35.915  21.568   3.423
26412W        W94806   5.432  20.490  14.491
26413W        W94807  11.655  27.584   3.277
26414W        W94808  22.606  25.000  10.668
26415W        W94809  17.512   0.948   1.126
26416W        W94810  23.151  12.912  13.048
26417W        W94811  25.063  44.775  10.205
26418W        W94812  22.730  34.875   0.302
26419W        W94813   1.795  15.926  10.234
26420W        W94814   5.646  17.210  10.514
26421W        W94815  27.550  32.121   1.354
26422W        W94816  21.005  43.787   3.343
26423W        W94817  14.967  32.506   0.709
26424W        W94818  25.178  13.714   1.044
26425W        W94819   3.472  30.747  13.465
26426W        W94820  25.992  38.196   2.827
26427W        W94821  19.143  14.295   0.255
26428W        W94822  32.956  21.674   2.131
26429W        W94823  14.254  29.548   3.162
26430W        W94824   5.366  28.594   4.325
26431W        W94825  20.671   4.153  13.513
26432W        W94826  29.700   3.260   5.001
26433W        W94827   7.120  27.880   0.011
26434W        W94828   9.630   1.463   3.143
26435W        W94829  19.191  29.732   2.714
26436W        W94830  32.799  13.671  11.179
26437W        W94831  42.715  28.169  11.129
26438W        W94832  21.337  44.448   2.778
26439W        W94833  16.440  20.149   0.816
26440W        W94834   2.987  38.988   2.755
26441W        W94835  36.829  10.741   4.295
26442W        W94836  37.493  17.640   2.899
26443W        W94837  39.432  29.388  14.990
26444W        W94838  20.626  21.468  10.638
26445W        W94839  30.719  30.620   4.176
26446W        W94840  36.143  41.458   4.636
26447W        W94841  39.334  30.523   4.208
26448W        W94842  44.416  20.174   1.855
26449W        W94843  32.895  26.067  13.535
26450W        W94844  43.752  39.109  11.121
26451W        W94845  26.150  43.460   4.049
26452W        W94846  24.275   0.623  13.804
26453W        W94847  21.599  27.465   0.863
26454W        W94848   1.436  11.977  12.990
26455W        W94849  22.145  20.523  13.993
26456W        W94850  29.844   9.977   2.151
26457W        W94851   1.795   0.634  11.278
26458W        W94852  43.569  29.006  12.710
26459W        W94853   0.108  25.290  11.705
26460W        W94854  29.068  29.694   2.904
26461W        W94855   9.675  10.480  14.164
26462W        W94856  35.457  35.911  13.457
26463W        W94857  18.235  40.586   0.833
26464W        W94858  18.568  43.362  14.003
26465W        W94859  39.973  26.212  12.027
26466W        W94860  26.851  11.597  10.244
26467W        W94861  10.311  44.046   2.170
26468W        W94862  28.026  25.879   1.744
26469W        W94863  35.865  36.995  13.559
26470W        W94864  24.459  40.054  12.986
26471W        W94865  11.096   4.235  10.736
26472W        W94866  13.975  24.487  12.164
26473W        W94867  10.134  21.601  13.414
26474W        W94868  24.578  39.958   0.525
26475W        W94869  33.028  38.441   0.222
26476W        W94870  14.082   9.744   2.329
26477W        W94871  10.302  26.771   1.741
26478W        W94872  11.631  20.550  11.684
26479W        W94873   1.706  27.485   2.402
26480W        W94874  20.630  10.622   1.141
26481W        W94875  37.294  19.236  14.370
26482W        W94876  19.242   4.459   1.963
26483W        W94877  25.242  20.512  12.028
26484W        W94878  39.995  29.904   3.866
26485W        W94879  20.019  43.170  12.855
26486W        W94880   7.316  26.454  10.997
26487W        W94881  22.789  35.117  13.431
26488W        W94882  27.556  39.858  12.344
26489W        W94883  30.903   5.369  12.861
26490W        W94884  42.743  32.105  13.456
26491W        W94885  24.028  21.698  14.997
26492W        W94886  38.437   6.887   4.733
26493W        W94887   7.910  34.425   1.258
26494W        W94888  44.585   7.938  11.177
26495W        W94889   0.425  37.801  12.190
26496W        W94890  38.110  27.634   2.587
26497W        W94891   0.734   7.625  14.946
26498W        W94892  40.739  19.236  12.487
26499W        W94893  24.962  40.628  11.554
26500W        W94894  27.615  40.765  13.497
26501W        W94895  19.225   7.842  13.908
26502W        W94896  20.862  29.127  11.604
26503W        W94897  27.729  24.539  13.319
26504W        W94898  18.047  24.848  12.133
26505W        W94899   7.758  16.821  13.999
26506W        W94900  38.087  28.261   3.801
26507W        W94901  25.212  36.827  11.040
26508W        W94902  38.530  25.618   3.302
26509W        W94903  22.883  17.124   1.380
26510W        W94904   8.086  33.951   1.883
26511W        W94905  27.860  20.496  14.878
26512W        W94906   7.560  42.903   0.677
26513W        W94907   0.459  44.487   4.221
26514W        W94908  35.404  28.633   1.915
26515W        W94909  29.073  22.769  11.372
26516W        W94910  26.165  35.542  14.184
26517W        W94911  11.200  22.177  13.472
26518W        W94912  20.310  24.076  11.985
26519W        W94913   5.930  31.639   0.717
26520W        W94914   4.335  19.405   2.794
26521W        W94915   0.756  38.305   3.760
26522W        W94916  41.951  36.619  14.202
26523W        W94917  38.749  29.029  14.288
26524W        W94918  15.723  37.681  11.504
26525W        W94919  19.808  42.968  13.656
26526W        W94920  23.506  33.359   2.252
26527W        W94921  26.459  38.627  10.341
26528W        W94922  17.554  10.015   2.212
26529W        W94923  12.175   4.824   2.119
26530W        W94924  16.652  19.420  12.474
26531W        W94925  28.368  33.902  14.845
26532W        W94926  28.987  34.532   0.753
26533W        W94927  37.355  28.107  13.016
26534W        W94928   5.648  24.143   0.276
26535W        W94929   9.867  34.203  12.505
26536W        W94930  27.266  35.453   3.570
26537W        W94931  30.567  43.759   3.700
26538W        W94932  28.584  31.801   3.858
26539W        W94933  15.684  15.807  10.545
26540W        W94934  29.019  39.076  14.103
26541W        W94935  20.570   4.252   4.744
26542W        W94936  41.261  37.142  13.040
26543W        W94937  39.833   4.220  13.021
26544W        W94938  12.738   9.921  12.298
26545W        W94939   5.911  28.462  12.963
26546W        W94940   1.589  21.172   1.838
26547W        W94941  40.910  38.808   4.561
26548W        W94942  41.397  24.570   1.216
26549W        W94943  16.585  39.323   0.428
26550W        W94944  37.862  42.154   1.913
26551W        W94945   4.909   5.115  12.894
26552W        W94946  37.834   7.300  12.397
26553W        W94947  43.035  14.114   0.334
26554W        W94948  11.361  40.747  12.909
26555W        W94949  15.075  28.171  11.798
26556W        W94950  42.100  35.530   4.163
26557W        W94951  39.776   6.666  10.725
26558W        W94952  12.209   4.267   3.760
26559W        W94953  30.976  25.076  12.405
26560W        W94954  44.136  16.865  13.742
26561W        W94955  30.398  15.105  14.342
26562W        W94956  10.211  32.469   3.738
26563W        W94957  39.053  12.849  10.230
26564W        W94958  16.164   4.844   0.377
26565W        W94959  11.163  12.297  11.293
26566W        W94960   5.724   0.750  10.976
26567W        W94961  19.242  38.846   2.761
26568W        W94962  35.582  28.252  14.597
26569W        W94963  42.017  14.626   0.477
26570W        W94964   5.570  16.774  13.447
26571W        W94965  37.202  13.786  10.896
26572W        W94966  38.868  31.064  13.030
26573W        W94967   9.577  15.252   3.076
26574W        W94968  29.193  14.566  12.071
26575W        W94969  35.391  25.911   3.740
26576W        W94970  40.576   0.374   4.806
26577W        W94971  34.109  31.870   1.323
26578W        W94972  21.558  13.097   1.772
26579W        W94973  31.070  19.786  14.002
26580W        W94974  28.089  15.655  10.762
26581W        W94975  44.005   6.985   2.294
26582W        W94976  40.534  28.889  14.917
26583W        W94977  41.457  40.065   4.278
26584W        W94978  12.793  43.783  14.734
26585W        W94979  34.961  30.490   1.792
26586W        W94980  14.526   1.967   2.281
26587W        W94981  36.345  37.785   0.963
26588W        W94982  24.596  31.047  10.697
26589W        W94983  32.631  28.426  13.943
26590W        W94984  40.284  11.370  11.105
26591W        W94985  18.135   5.240  13.579
26592W        W94986   8.247  10.858  12.871
26593W        W94987  15.118  41.594   0.818
26594W        W94988  30.945   4.243  11.256
26595W        W94989  29.829  41.156   4.958
26596W        W94990  26.539  36.049   3.562
26597W        W94991  41.268  43.075   4.077
26598W        W94992  30.235  29.966  13.124
26599W        W94993  42.931  19.534   0.783
26600W        W94994  30.373  20.173  11.204
26601W        W94995  18.201  27.886  11.663
26602W        W94996   2.318  43.822   3.600
26603W        W94997   6.035  32.971  11.066
26604W        W94998  39.461  16.923   4.360
26605W        W94999  28.094   8.657  14.661
26606W        W95000  30.026  33.358  12.381
26607W        W95001  11.943  18.019  12.331
26608W        W95002  16.163  29.515   2.952
26609W        W95003   6.654   2.347   1.162
26610W        W95004   4.816  42.745  10.626
26611W        W95005  36.141  26.164   4.387
26612W        W95006  11.945   3.826   4.984
26613W        W95007  42.567  27.100   4.159
26614W        W95008   0.359  36.335  12.855
26615W        W95009  36.808   0.201  10.432
26616W        W95010   4.969  11.749   4.112
26617W        W95011  42.983  36.668  11.196
26618W        W95012  21.526   3.202  11.133
26619W        W95013  10.702   8.407  12.570
26620W        W95014  37.778  21.914   0.924
26621W        W95015  18.170  19.713   3.167
26622W        W95016  30.766   2.745  13.426
26623W        W95017  29.357  21.659   0.412
26624W        W95018  37.109  21.919   4.302
26625W        W95019  22.218  39.831   4.623
26626W        W95020   7.732  18.630   3.272
26627W        W95021  17.066  10.092  14.955
26628W        W95022  12.928  44.373  12.918
26629W        W95023  14.789  38.016  14.455
26630W        W95024   2.446   3.354   4.550
26631W        W95025  17.666  42.382  10.512
26632W        W95026   8.143  12.927  13.996
26633W        W95027  29.053  15.993   3.673
26634W        W95028   6.372   6.318   5.131
26635W        W95029  10.787  26.114  11.418
26636W        W95030  30.243   0.524  12.964
26637W        W95031  42.911   6.926   2.560
26638W        W95032  41.873   4.885  12.891
26639W        W95033  38.288  34.930  13.989
26640W        W95034   1.433  42.533  10.892
26641W        W95035  31.672  28.893   3.805
26642W        W95036  38.055   4.321  13.974
26643W        W95037   6.376  29.169  12.405
26644W        W95038  34.811   8.146  12.566
26645W        W95039  40.474  17.862   3.165
26646W        W95040  27.543  38.834   0.672
26647W        W95041  30.952  29.635   3.065
26648W        W95042  23.654  10.207  13.492
26649W        W95043  10.804  22.637   1.319
26650W        W95044  27.019  26.993   1.261
26651W        W95045  16.844  42.989  12.097
26652W        W95046  13.649   7.704   4.001
26653W        W95047  18.315  30.275   0.381
26654W        W95048  29.947  31.559  11.203
26655W        W95049  36.932  25.224  13.998
26656W        W95050  13.742  24.964   0.417
26657W        W95051  31.411   8.283  12.081
26658W        W95052  40.296  13.869  12.552
26659W        W95053   9.341  17.939  10.988
26660W        W95054  12.766   3.267  12.472
26661W        W95055   0.812  30.106  12.878
26662W        W95056  24.389  10.904   3.687
26663W        W95057  15.342   0.092  11.857
26664W        W95058  39.539  13.815  14.501
26665W        W95059  30.150   4.153   3.010
26666W        W95060  29.999   5.460  12.447
26667W        W95061  39.063  39.076  13.765
26668W        W95062  34.145  13.237   0.270
26669W        W95063  39.841  37.852   4.258
26670W        W95064  11.638   7.038  14.487
26671W        W95065  22.163  15.775   0.235
26672W        W95066   5.661   0.274   4.534
26673W        W95067  42.503  42.898   2.054
26674W        W95068  21.048  38.529   2.678
26675W        W95069   6.685  40.322  10.917
26676W        W95070  20.619  26.839  13.527
26677W        W95071   6.797  24.687   2.233
26678W        W95072  18.120  31.663   3.323
26679W        W95073  40.921  38.079   0.236
26680W        W95074  28.927  30.035   2.422
26681W        W95075  34.648   8.265  14.329
26682W        W95076   0.485  33.073  14.384
26683W        W95077  22.315  11.257  14.866
26684W        W95078  34.045  21.495   1.349
26685W        W95079   6.377   7.709   0.844
26686W        W95080   0.976  17.275  11.197
26687W        W95081   1.900  27.511   4.495
26688W        W95082  40.438   6.782  14.293
26689W        W95083  16.660  20.711   1.692
26690W        W95084  16.685  43.880  12.495
26691W        W95085  36.061  16.045  10.767
26692W        W95086  40.964  33.493   2.390
26693W        W95087   0.990   2.548   2.344
26694W        W95088  13.986  31.513  13.579
26695W        W95089   5.156  20.561  10.766
26696W        W95090  24.098  39.114  13.519
26697W        W95091  18.709  32.520   4.086
26698W        W95092   9.615  17.875   4.030
26699W        W95093  27.895  13.882   3.328
26700W        W95094  35.152  31.457  10.689
26701W        W95095  43.385  30.596  13.997
26702W        W95096  17.092  41.855   3.399
26703W        W95097  36.881  12.524  14.793
26704W        W95098   4.942  40.085   3.278
26705W        W95099  42.439   6.136   4.572
26706W        W95100  34.323   5.459  12.013
26707W        W95101  30.017  36.934  13.823
26708W        W95102  42.477   7.443   3.722
26709W        W95103  11.166   6.002   4.183
26710W        W95104  24.579  26.962   0.386
26711W        W95105  21.580  30.853   0.349
26712W        W95106   8.324   6.259  13.450
26713W        W95107   9.736  40.521  10.743
26714W        W95108  35.385   9.797  12.424
26715W        W95109  25.045  23.204   4.785
26716W        W95110  15.623  32.634   3.291
26717W        W95111  10.882  17.132  13.152
26718W        W95112  12.640   0.686  10.781
26719W        W95113  34.599   3.734   4.345
26720W        W95114  39.937   1.449   0.248
26721W        W95115  29.058  37.552   2.748
26722W        W95116  30.593  28.013  11.351
26723W        W95117  30.647  25.552  14.215
26724W        W95118  43.447  38.706   0.348
26725W        W95119  43.278  39.651   9.882
26726W        W95120  13.740  42.226  12.509
26727W        W95121  29.459  39.554   3.152
26728W        W95122  18.692  38.898  13.612
26729W        W95123   7.747  35.976  14.369
26730W        W95124  23.511  16.331   3.805
26731W        W95125  10.752   0.217   2.427
26732W        W95126  20.508   6.723  13.031
26733W        W95127  17.975  35.030   1.265
26734W        W95128  16.780  26.982   3.656
26735W        W95129  10.699   4.972   4.676
26736W        W95130  33.321  13.660   0.496
26737W        W95131  11.301   8.816  12.477
26738W        W95132  27.540  17.389   3.831
26739W        W95133   4.125  10.790   4.309
26740W        W95134  29.194  33.180   1.350
26741W        W95135  23.808  12.843   0.382
26742W        W95136  40.379   1.490   1.002
26743W        W95137  22.268  14.792   1.249
26744W        W95138  21.661  10.675   0.354
26745W        W95139   2.204  40.547  12.136
26746W        W95140   1.023  15.559  10.702
26747W        W95141  20.957  19.053   3.191
26748W        W95142  14.628  11.851   0.878
26749W        W95143  25.641  14.526  10.993
26750W        W95144  10.700  13.168  13.066
26751W        W95145  22.032   1.220  12.843
26752W        W95146  13.148  36.572  13.425
26753W        W95147  16.434  41.965   1.792
26754W        W95148   9.231  11.450   3.070
26755W        W95149  42.070  34.368   0.712
26756W        W95150   0.041  19.070  14.293
26757W        W95151   6.997   6.191  11.565
26758W        W95152  44.490  40.457   1.753
26759W        W95153   1.469  43.582   0.820
26760W        W95154  16.593  34.835  13.793
26761W        W95155  12.922  31.207   4.468
26762W        W95156  39.473  13.591  10.883
26763W        W95157  20.184   4.770   1.653
26764W        W95158  14.140  28.670  14.528
26765W        W95159  41.841  38.817   2.962
26766W        W95160  22.225   9.427  10.625
26767W        W95161  41.859   1.471   4.158
26768W        W95162   4.798   5.838  13.465
26769W        W95163  14.026   4.542   2.808
26770W        W95164  30.622  42.309   2.835
26771W        W95165  28.008  26.133   0.772
26772W        W95166   0.280  38.968  14.286
26773W        W95167  40.718  10.227  10.816
26774W        W95168  33.421  37.451   5.053
26775W        W95169   8.861  30.981   0.936
26776W        W95170   6.663  40.061  10.477
26777W        W95171   1.756  24.244  11.996
26778W        W95172  43.527  34.158   4.490
26779W        W95173  41.315   8.149  12.123
26780W        W95174   9.939  33.926   2.229
26781W        W95175  36.005  24.697   4.670
26782W        W95176  18.952  29.374   4.143
26783W        W95177  36.840  20.112   0.144
26784W        W95178  25.043  37.846  12.908
26785W        W95179  26.192  12.184   1.411
26786W        W95180  17.830  33.406   3.778
26787W        W95181   7.652  37.058   2.241
26788W        W95182  35.940  31.473   2.874
26789W        W95183  44.961   5.873  14.507
26790W        W95184   2.407  28.032   4.352
26791W        W95185  41.911  33.003   4.146
26792W        W95186  37.418  12.910  12.065
26793W        W95187  10.279  27.903   3.258
26794W        W95188  23.175  10.571   4.284
26795W        W95189  18.256  35.457   0.423
26796W        W95190  18.235  25.139  13.020
26797W        W95191   5.913   4.359   3.157
26798W        W95192  40.589  21.292   2.934
26799W        W95193   2.993  39.758   4.333
26800W        W95194  35.362  11.649   3.175
26801W        W95195  21.670   6.340  10.760
26802W        W95196   1.348   0.004  12.175
26803W        W95197  31.685  20.109  12.984
26804W        W95198  20.308   8.645   1.923
26805W        W95199  25.854  19.428   2.325
26806W        W95200  39.840  44.935  12.634
26807W        W95201   4.642  22.028   2.323
26808W        W95202  29.535   1.858  11.333
26809W        W95203   2.563   8.111   0.812
26810W        W95204   5.934  22.066  12.075
26811W        W95205   4.238  18.800   3.708
26812W        W95206  38.251  15.213   4.048
26813W        W95207  43.367   5.441   0.707
26814W        W95208  29.521  14.810   3.188
26815W        W95209  34.753  31.439  12.469
26816W        W95210  10.543  37.869   0.134
26817W        W95211  34.844  13.737   4.876
26818W        W95212  42.368  39.092   4.622
26819W        W95213  32.449  11.160   0.849
26820W        W95214  23.535  13.723   4.981
26821W        W95215  32.832  14.219  14.752
26822W        W95216  16.825  20.016  13.400
26823W        W95217  43.714  21.199   0.771
26824W        W95218  27.697  10.392  11.018
26825W        W95219   2.873  21.547  12.156
26826W        W95220  39.798  27.120  13.432
26827W        W95221  37.757  35.596   0.648
26828W        W95222   0.583  10.725  13.062
26829W        W95223  10.835  36.531  13.479
26830W        W95224  43.359  17.993  14.411
26831W        W95225  18.076  21.452   1.295
26832W        W95226  31.911  19.593  12.911
26833W        W95227  41.680  20.763  12.199
26834W        W95228  17.737  29.202   2.164
26835W        W95229  36.167  27.892   0.293
26836W        W95230  17.906  43.668   3.244
26837W        W95231   9.421   6.409  11.210
26838W        W95232  31.025  16.830  10.709
26839W        W95233   4.485  25.143  13.039
26840W        W95234  41.731   8.315   0.798
26841W        W95235   5.606   0.253  11.930
26842W        W95236   8.224  40.309   4.784
26843W        W95237  11.133   6.717   1.272
26844W        W95238  28.979   3.460   1.833
26845W        W95239   8.325  35.826   2.256
26846W        W95240   9.204  13.875  14.008
26847W        W95241  15.268  42.245  12.562
26848W        W95242  37.037   5.610   3.136
26849W        W95243   2.876  37.262  13.916
26850W        W95244  12.352  13.819   0.497
26851W        W95245  11.694  30.813  10.468
26852W        W95246  18.678  33.412  13.409
26853W        W95247  34.051  37.142   1.008
26854W        W95248  18.137  28.142  13.502
26855W        W95249  30.221  41.816  13.297
26856W        W95250  42.877  32.864   0.411
26857W        W95251  14.766  44.490  14.033
26858W        W95252   2.436  44.695  10.722
26859W        W95253  32.863  18.782  14.549
26860W        W95254  16.297  27.236  14.826
26861W        W95255  10.418   2.748   0.427
26862W        W95256  23.003  11.312   1.304
26863W        W95257  10.971  39.390  11.728
26864W        W95258  35.053  23.211  11.270
26865W        W95259   7.207  44.459  14.440
26866W        W95260  43.415  14.536   3.251
26867W        W95261  29.444  26.699   3.221
26868W        W95262  38.075   1.105  10.811
26869W        W95263   6.287  24.772  13.146
26870W        W95264   5.934  40.705  11.176
26871W        W95265  44.034  41.322  10.644
26872W        W95266  29.120  37.579  11.918
26873W        W95267  43.279  15.256   4.224
26874W        W95268  33.026  16.115  14.309
26875W        W95269  32.651   9.576   4.062
26876W        W95270  38.967   3.987   1.273
26877W        W95271   3.258  19.569  10.823
26878W        W95272   0.364  37.918   5.501
26879W        W95273  29.897  37.160  13.364
26880W        W95274  34.955  15.934   0.648
26881W        W95275  42.020  35.861  11.148
26882W        W95276  25.637   4.470   3.778
26883W        W95277  17.053   4.756  10.264
26884W        W95278  11.786  24.601   2.713
26885W        W95279  39.358  19.259  12.959
26886W        W95280  26.658  31.050  14.965
26887W        W95281   3.917  30.077  12.884
26888W        W95282  18.982  31.887   3.716
26889W        W95283   7.461  23.171   0.278
26890W        W95284  20.697   1.789   2.735
26891W        W95285  28.741  11.747  10.717
26892W        W95286   5.744  13.923  13.549
26893W        W95287   3.672   9.703  10.494
26894W        W95288  38.971  27.856   2.764
26895W        W95289  14.298   3.814   1.503
26896W        W95290  40.972  25.013  11.203
26897W        W95291  33.150  12.702   2.632
26898W        W95292  25.735  20.748   1.680
26899W        W95293  11.155  19.710   4.877
26900W        W95294  27.471  11.818  13.302
26901W        W95295   9.715  31.990  14.359
26902W        W95296  17.306   9.952   1.348
26903W        W95297  13.667  42.800   3.345
26904W        W95298  11.945  30.183   4.502
26905W        W95299   1.369   6.978   3.851
26906W        W95300  17.312   8.559  13.839
26907W        W95301  33.629  18.563  12.316
26908W        W95302  41.938  41.019  10.755
26909W        W95303  19.706  13.790   3.945
26910W        W95304  42.019  20.106   4.206
26911W        W95305   0.881  44.328   4.505
26912W        W95306  41.802  28.067   3.324
26913W        W95307  29.371  16.824   3.877
26914W        W95308  39.982  30.140   0.862
26915W        W95309  43.052  44.523  12.947
26916W        W95310  26.854  25.268   3.206
26917W        W95311  30.501   1.497   4.129
26918W        W95312  10.971  29.156   4.992
26919W        W95313  37.121  29.259  12.811
26920W        W95314  10.451  32.619  10.136
26921W        W95315   9.933   6.239  12.119
26922W        W95316   0.712  15.597  11.127
26923W        W95317   9.008  42.930   4.407
26924W        W95318   9.679  28.177  14.026
26925W        W95319  33.193  27.066   3.282
26926W        W95320  12.774  25.708  10.695
26927W        W95321  35.982   3.138   2.368
26928W        W95322  42.961   7.590   0.844
26929W        W95323  35.341  39.124   0.358
26930W        W95324  23.110  34.321  12.335
26931W        W95325   0.442  34.435   3.051
26932W        W95326  25.012  11.716  12.184
26933W        W95327   6.344  25.226   2.843
26934W        W95328  13.279   4.701  11.211
26935W        W95329  15.059   5.773  13.361
26936W        W95330   3.096  19.355   1.931
26937W        W95331   7.146  16.402  11.452
26938W        W95332   0.407  28.206   4.047
26939W        W95333  17.083  26.647  11.652
26940W        W95334   6.357  15.613   4.114
26941W        W95335  42.379  18.007  13.460
26942W        W95336  14.277  11.344   3.672
26943W        W95337  14.037   8.655   4.105
26944W        W95338  41.871  23.037   1.767
26945W        W95339  10.154  19.970   1.615
26946W        W95340  16.597  28.545  14.460
26947W        W95341  11.204  22.482  13.060
26948W        W95342  44.433  35.241   1.367
26949W        W95343  32.627  26.461   4.503
26950W        W95344   2.854  44.613   1.191
26951W        W95345  32.050   3.588  12.557
26952W        W95346  36.340  42.947   2.389
26953W        W95347  43.043  43.537   4.694
26954W        W95348  26.402  21.180  11.007
26955W        W95349  33.466  31.936   0.842
26956W        W95350  15.178  41.956   4.178
26957W        W95351  25.098  13.606  13.459
26958W        W95352  44.480  15.655  11.607
26959W        W95353  16.061  31.695   1.470
26960W        W95354   8.216  28.629   1.736
26961W        W95355   6.308  23.867  12.668
26962W        W95356  20.410  23.670   1.322
26963W        W95357  25.157  39.469   0.539
26964W        W95358  17.248   6.282  14.913
26965W        W95359   4.435   5.364  12.125
26966W        W95360  28.144  26.521  10.729
26967W        W95361  21.623   6.652  11.507
26968W        W95362  36.547  34.364  11.059
26969W        W95363  20.497   8.131   0.166
26970W        W95364  14.313  16.137   2.207
26971W        W95365  32.114  32.121  11.983
26972W        W95366  13.134  38.274  12.445
26973W        W95367  37.340  28.863  14.487
26974W        W95368  38.174  31.426   3.140
26975W        W95369  15.502  11.964  13.294
26976W        W95370  36.714  25.675  12.667
26977W        W95371  11.611  29.217  11.016
26978W        W95372  31.632  42.112   1.301
26979W        W95373  44.266   0.418   4.659
26980W        W95374   8.454  20.336  13.933
26981W        W95375  32.197  20.140  13.012
26982W        W95376   9.764  13.759   4.068
26983W        W95377  42.879  37.770   1.389
26984W        W95378  33.870   8.393  12.887
26985W        W95379  39.543   4.916  10.186
26986W        W95380   4.724  41.845  10.868
26987W        W95381  39.095  35.064   3.087
26988W        W95382  36.680  34.480   4.215
26989W        W95383  13.737  28.536   4.610
26990W        W95384  44.927  39.106  12.038
26991W        W95385  10.745   4.359  14.809
26992W        W95386  14.227  15.559  11.989
26993W        W95387  38.185  10.233   4.089
26994W        W95388  12.277  35.070   1.430
26995W        W95389  31.546   2.476  12.942
26996W        W95390  27.987  39.539  12.060
26997W        W95391  36.953   0.765  11.665
26998W        W95392  31.903   2.276  10.932
26999W        W95393   5.439  13.123   2.824
27000W        W95394  29.093   5.941  10.893
27001W        W95395  44.807  10.626  10.836
27002W        W95396  36.477  14.095  10.512
27003W        W95397   4.248  43.484  11.073
27004W        W95398  37.452  13.164   4.175
27005W        W95399  21.103  43.916   1.665
27006W        W95400  39.042  38.358   2.835
27007W        W95401  37.873  16.728  14.785
27008W        W95402  22.405   6.024  11.222
27009W        W95403  20.512  33.992  12.894
27010W        W95404  15.806  42.588   2.904
27011W        W95405  20.646  32.559   3.127
27012W        W95406  12.732  20.217  12.366
27013W        W95407  35.406  16.619   0.753
27014W        W95408  44.810  42.297  13.158
27015W        W95409  38.069  36.065  11.531
27016W        W95410  28.356  29.099  13.576
27017W        W95411  44.934   0.259  11.450
27018W        W95412  13.688  20.048   1.602
27019W        W95413  26.653  40.274   4.593
27020W        W95414  11.285  26.313   1.526
27021W        W95415  24.373  25.031  12.855
27022W        W95416  23.424  28.565  13.989
27023W        W95417  41.778  14.233  12.169
27024W        W95418  16.552  41.369  13.837
27025W        W95419  35.435  36.089   1.878
27026W        W95420  35.966  20.493   4.118
27027W        W95421  38.299  20.155   2.194
27028W        W95422  20.746  10.207   3.622
27029W        W95423  33.896   9.731   2.808
27030W        W95424   9.295  21.486   3.403
27031W        W95425  34.427  14.831   2.118
27032W        W95426  18.290  26.049   0.415
27033W        W95427  12.329  41.425   2.741
27034W        W95428  42.244  20.272   1.973
27035W        W95429  39.085  41.564   0.020
27036W        W95430  38.854  42.067  13.840
27037W        W95431  21.663  30.130   4.654
27038W        W95432  18.567  41.054   1.433
27039W        W95433  41.773  31.015   1.082
27040W        W95434  34.512  27.896   1.276
27041W        W95435   8.417   8.719  12.076
27042W        W95436  36.295  42.281  14.438
27043W        W95437  13.712  28.731  13.749
27044W        W95438  25.493  28.356  14.010
27045W        W95439  19.407   5.066  11.593
27046W        W95440  22.232  20.095   0.380
27047W        W95441   2.380   2.456  14.523
27048W        W95442  34.928  25.214  11.652
27049W        W95443  17.695  26.938  14.839
27050W        W95444  27.957   6.379  10.624
27051W        W95445  34.576  28.140  11.415
27052W        W95446   1.135   2.350   1.642
27053W        W95447  16.200  40.909   3.678
27054W        W95448  29.312  44.560   5.020
27055W        W95449   6.798  36.878  12.558
27056W        W95450  35.924  36.374  11.055
27057W        W95451  42.504  26.383  12.918
27058W        W95452  16.754  32.351   0.090
27059W        W95453  10.768   4.904   1.632
27060W        W95454  24.414  30.050   1.354
27061W        W95455  13.196   1.880   2.616
27062W        W95456  20.426  29.835  11.342
27063W        W95457  44.966   5.782   4.523
27064W        W95458  39.020  23.261  12.399
27065W        W95459   4.457  25.293  12.074
27066W        W95460  11.644  17.073  12.027
27067W        W95461   0.221  26.544  14.885
27068W        W95462  24.751  22.487  12.085
27069W        W95463  18.510  21.736  11.351
27070W        W95464  12.662  38.577   1.279
27071W        W95465  22.858   4.696   4.162
27072W        W95466  22.341  21.277   9.936
27073W        W95467  30.209  16.552   0.935
27074W        W95468  34.592  44.864   4.513
27075W        W95469  26.458  39.472  14.921
27076W        W95470  41.586  29.985  12.550
27077W        W95471  20.133   2.278  12.731
27078W        W95472  10.107  22.721  10.939
27079W        W95473  33.828   9.203   2.255
27080W        W95474  42.348  10.602  12.481
27081W        W95475   2.780  42.398   0.410
27082W        W95476  44.556  22.083  12.002
27083W        W95477  30.661  12.289   0.421
27084W        W95478  29.953  29.552   0.192
27085W        W95479  12.783  42.922  11.104
27086W        W95480   8.682  43.072  13.512
27087W        W95481  29.192   5.462  12.524
27088W        W95482  19.684  11.512   1.218
27089W        W95483   3.563  37.887   0.176
27090W        W95484  34.962  37.682  10.177
27091W        W95485  30.491  39.981  12.824
27092W        W95486   4.270   4.446   4.023
27093W        W95487  16.340   7.388   0.980
27094W        W95488   9.853  44.996  14.611
27095W        W95489   7.105  42.266   0.011
27096W        W95490  43.839  38.591  11.118
27097W        W95491   4.400   8.937   1.238
27098W        W95492  14.598  29.819   0.298
27099W        W95493  25.934  40.332  14.448
27100W        W95494  14.748  34.141  12.588
27101W        W95495  39.989  30.817   0.475
27102W        W95496  23.519  23.278  10.767
27103W        W95497  37.497  42.664  13.583
27104W        W95498  14.502  26.413  10.194
27105W        W95499   4.678  44.300  11.479
27106W        W95500  21.572   7.250  12.390
27107W        W95501  10.281  13.028  11.443
27108W        W95502  32.313   3.447  12.062
27109W        W95503   3.743   0.846  14.035
27110W        W95504  33.592  17.678   1.839
27111W        W95505   1.506   2.722   2.852
27112W        W95506  10.619  39.653  13.294
27113W        W95507  33.029  11.289   2.949
27114W        W95508   1.054  24.461  12.816
27115W        W95509  11.558  33.999  13.949
27116W        W95510  39.318  23.724   2.739
27117W        W95511   8.454  15.350   4.160
27118W        W95512  44.565  15.689   0.057
27119W        W95513  10.706  20.634  14.121
27120W        W95514  42.277  33.372   2.150
27121W        W95515  20.500   3.110  13.429
27122W        W95516  21.146  10.475   1.609
27123W        W95517  17.768  34.467  12.006
27124W        W95518  11.671   7.967  12.463
27125W        W95519  44.013  10.307  12.494
27126W        W95520  21.734  11.614  14.292
27127W        W95521  43.110  20.245   1.872
27128W        W95522   7.155  42.268  13.588
27129W        W95523  11.167  44.128  13.257
27130W        W95524  42.531  16.865   0.847
27131W        W95525  37.313  24.552   4.046
27132W        W95526   1.790  38.063   1.320
27133W        W95527  31.305   2.707   2.663
27134W        W95528   2.626  44.905   1.588
27135W        W95529  37.343  23.707  14.665
27136W        W95530  27.479  44.973  13.345
27137W        W95531  22.951  40.469   1.350
27138W        W95532  37.864   5.150   2.316
27139W        W95533  28.246   0.411  12.072
27140W        W95534  19.304  15.575  10.671
27141W        W95535  43.269  27.379  13.909
27142W        W95536   0.667  20.218  14.796
27143W        W95537  44.399  30.126   1.375
27144W        W95538  10.891   4.916  13.897
27145W        W95539  37.505  17.158   4.329
27146W        W95540  28.006  35.931  14.924
27147W        W95541   6.862  26.110   0.503
27148W        W95542  25.776   6.480   0.011
27149W        W95543  21.125  20.290  14.891
27150W        W95544  27.920  11.771   3.140
27151W        W95545  31.399   1.356   0.366
27152W        W95546  11.703  22.895   3.276
27153W        W95547  34.420  43.892   2.219
27154W        W95548   5.493  44.847  12.296
27155W        W95549  20.242   2.755  10.614
27156W        W95550  29.477  30.569   3.316
27157W        W95551  25.735  29.057   3.698
27158W        W95552  23.116  35.904  14.503
27159W        W95553  36.180  26.616   1.099
27160W        W95554  44.733  11.740  14.540
27161W        W95555  33.880  14.422   4.317
27162W        W95556  34.611   0.458  10.945
27163W        W95557  28.939   6.337  14.857
27164W        W95558  44.828   8.234  10.793
27165W        W95559  26.110  29.365   1.176
27166W        W95560  23.561  12.126  13.017
27167W        W95561  20.271  40.810  13.940
27168W        W95562  18.521  14.358  14.926
27169W        W95563   8.173  27.219  14.781
27170W        W95564  14.329  18.176  10.472
27171W        W95565  25.139  44.214   2.557
27172W        W95566  33.881  29.083   2.855
27173W        W95567  20.190   4.740   2.977
27174W        W95568   9.731   1.909   4.885
27175W        W95569  18.330  15.830  11.509
27176W        W95570   5.352  21.686   3.192
27177W        W95571   2.241  30.603  10.576
27178W        W95572  14.367  39.471   1.861
27179W        W95573  36.051  28.974   0.117
27180W        W95574  39.434  10.094  13.012
27181W        W95575   0.258   6.215  12.441
27182W        W95576  25.696  40.020  12.933
27183W        W95577  39.075  21.932   4.209
27184W        W95578  26.384  17.041   4.186
27185W        W95579  15.596  11.327  11.163
27186W        W95580  31.495  10.759   3.216
27187W        W95581  32.059  12.146   3.696
27188W        W95582  31.568  17.829  10.677
27189W        W95583  24.979   0.351  14.259
27190W        W95584  39.860  38.836  12.795
27191W        W95585  34.975  32.664   2.591
27192W        W95586  40.262  44.267   1.787
27193W        W95587  36.365  39.926  13.898
27194W        W95588  39.501  34.667   3.869
27195W        W95589  24.650   2.754   0.510
27196W        W95590  31.377  23.864  11.381
27197W        W95591  21.492  32.169  14.401
27198W        W95592   7.686   2.227   3.683
27199W        W95593  15.821  13.025   5.000
27200W        W95594   0.412  28.123  12.985
27201W        W95595  14.278  20.801  14.933
27202W        W95596  26.410  41.967   5.417
27203W        W95597  21.942  41.808   3.855
27204W        W95598  24.251  23.181   2.588
27205W        W95599   7.363   5.823   3.907
27206W        W95600  25.362   7.799   0.709
27207W        W95601  17.484  39.506  13.296
27208W        W95602   9.681   2.822  12.967
27209W        W95603   6.423  43.240   3.140
27210W        W95604   4.934  30.037   3.651
27211W        W95605  21.954  11.536  12.034
27212W        W95606  15.174   3.211  10.722
27213W        W95607  40.912  20.716   1.335
27214W        W95608  39.094  20.013  12.005
27215W        W95609  32.997  15.287   0.651
27216W        W95610  25.208  31.492  12.588
27217W        W95611  38.845   9.961   3.238
27218W        W95612  23.027  35.828  11.345
27219W        W95613  17.350   3.797   4.805
27220W        W95614  10.251   1.083   0.122
27221W        W95615  40.011  12.137  12.499
27222W        W95616  30.526  12.642   2.714
27223W        W95617  19.126  10.813  12.571
27224W        W95618  16.295   4.004   0.001
27225W        W95619  11.301  37.001  11.597
27226W        W95620  32.459  41.854  14.796
27227W        W95621  14.765  20.734   2.699
27228W        W95622  37.075  15.097   1.336
27229W        W95623   6.352   1.911   1.223
27230W        W95624  33.621  14.764  10.935
27231W        W95625  30.534  31.863   1.501
27232W        W95626   6.425  27.585  10.643
27233W        W95627  31.645  11.750  14.162
27234W        W95628   3.991  35.338   2.664
27235W        W95629  30.445  40.481   2.141
27236W        W95630   1.604  32.166  14.148
27237W        W95631  35.276  34.242  12.071
27238W        W95632  36.042  33.888   1.608
27239W        W95633  35.355  34.519   0.236
27240W        W95634   9.379  38.951   3.704
27241W        W95635   8.459  29.523   4.562
27242W        W95636  12.089  33.116   1.197
27243W        W95637  35.431   3.683  12.780
27244W        W95638   2.414  44.784   3.725
27245W        W95639  30.090  22.932   2.343
27246W        W95640  41.848   1.978  14.868
27247W        W95641  32.681  16.206   3.786
27248W        W95642   2.859  40.350  14.899
27249W        W95643  37.541  27.650   2.821
27250W        W95644  15.872   8.288   4.108
27251W        W95645  12.910  13.248  11.725
27252W        W95646  13.749  18.242  14.214
27253W        W95647  18.240  30.383  14.072
27254W        W95648   9.658  38.848   1.779
27255W        W95649  14.794   9.255   4.070
27256W        W95650  17.655   5.485  11.231
27257W        W95651   5.881  35.179  11.509
27258W        W95652   0.757  16.344  14.838
27259W        W95653  14.379   4.797   0.454
27260W        W95654  11.357  26.421  13.904
27261W        W95655  21.695  20.638   4.529
27262W        W95656  18.512  30.500   2.836
27263W        W95657  44.549   6.598  13.504
27264W        W95658  41.424  12.105  11.685
27265W        W95659  38.925  28.175  14.752
27266W        W95660   2.902  19.848   4.093
27267W        W95661   2.267  12.735  10.766
27268W        W95662   3.962  23.528   3.720
27269W        W95663  41.888   5.422  14.984
27270W        W95664  34.882  15.834  14.751
27271W        W95665  38.366  44.328  13.383
27272W        W95666   3.807   5.833  14.565
27273W        W95667  35.646  25.649  11.085
27274W        W95668  22.211  33.411  13.439
27275W        W95669   1.239  15.828   4.975
27276W        W95670  17.974   0.199   0.223
27277W        W95671   4.974  39.340   1.801
27278W        W95672  17.613  38.615   2.099
27279W        W95673  16.526  34.839   1.322
27280W        W95674  16.390  10.303  12.417
27281W        W95675  30.356  39.749  12.030
27282W        W95676  32.621  13.676   2.156
27283W        W95677   2.808  38.762   2.304
27284W        W95678   6.107   7.099   4.109
27285W        W95679  34.426   7.342  11.178
27286W        W95680  36.101  37.913  11.064
27287W        W95681  10.742  33.808   2.881
27288W        W95682   2.727   0.394  13.310
27289W        W95683  38.416  17.721   2.877
27290W        W95684  22.255  28.447  14.995
27291W        W95685  40.006   4.716  14.786
27292W        W95686  41.146  13.736  13.496
27293W        W95687  14.788   1.510   2.328
27294W        W95688  25.023  30.077  12.892
27295W        W95689  10.261   3.912  13.956
27296W        W95690  11.169  31.627  13.508
27297W        W95691   7.447   7.243   3.757
27298W        W95692  14.804  17.183   0.784
27299W        W95693   0.902  35.103  14.316
27300W        W95694  16.352  38.121   1.014
27301W        W95695  13.599  23.689   3.222
27302W        W95696   7.117   8.431  10.611
27303W        W95697  13.417  44.878  14.135
27304W        W95698  38.359  14.240  11.973
27305W        W95699  39.645  15.825   3.685
27306W        W95700  26.246  26.921  14.818
27307W        W95701   0.369  22.038  12.399
27308W        W95702  22.795   3.466  11.439
27309W        W95703  43.354  39.895   1.679
27310W        W95704  16.086   0.922   0.664
27311W        W95705  29.482  26.606   4.126
27312W        W95706  36.665  26.989   4.738
27313W        W95707  43.626   6.488  13.941
27314W        W95708  15.401  34.450  13.396
27315W        W95709  36.686  11.827   3.249
27316W        W95710  10.108   9.816  11.614
27317W        W95711  18.094  26.435   2.326
27318W        W95712   4.441  34.292   1.779
27319W        W95713  11.309  10.428   3.204
27320W        W95714  35.259  14.200  12.120
27321W        W95715  36.939  31.519  11.118
27322W        W95716  40.162  36.515  10.908
27323W        W95717   4.651  23.779  11.174
27324W        W95718  20.428   0.038   0.896
27325W        W95719  23.949  16.069  11.625
27326W        W95720  40.802  11.872  10.546
27327W        W95721  39.498  15.188   2.473
27328W        W95722  41.428  12.174  13.494
27329W        W95723  14.183  21.675   1.530
27330W        W95724  22.568   9.452  14.907
27331W        W95725   6.632  33.586   2.205
27332W        W95726  14.340  11.038  10.801
27333W        W95727  40.613  15.590   3.674
27334W        W95728  25.752  35.461  14.996
27335W        W95729   9.114  11.074   1.300
27336W        W95730  44.512  22.504  13.786
27337W        W95731  25.995  13.217  11.169
27338W        W95732   3.438   4.254   4.739
27339W        W95733  10.951  37.506  11.974
27340W        W95734  35.658  25.121  14.479
27341W        W95735   4.491   9.122   1.720
27342W        W95736  30.759  26.069  13.890
27343W        W95737  41.033  32.024  12.074
27344W        W95738  27.195   5.392   0.320
27345W        W95739  15.188  41.081  11.001
27346W        W95740  31.652  20.521   4.553
27347W        W95741  41.573   0.957  12.025
27348W        W95742  16.580   5.157   2.309
27349W        W95743  27.107  44.187   1.273
27350W        W95744   1.806  44.857   3.313
27351W        W95745   7.800  40.665  11.400
27352W        W95746  27.635   3.840  10.532
27353W        W95747   7.994  36.865  10.680
27354W        W95748  13.220   7.156   0.263
27355W        W95749  16.150   4.206   4.080
27356W        W95750  19.608  42.913  10.182
27357W        W95751  40.977   7.456   0.779
27358W        W95752  28.797  23.534  14.374
27359W        W95753  24.122  44.716  11.588
27360W        W95754  38.668  42.727   1.149
27361W        W95755  43.552  44.581   4.412
27362W        W95756  37.769  20.576   4.323
27363W        W95757  18.551  31.327   3.337
27364W        W95758  13.907   5.056  12.819
27365W        W95759  35.172  31.690  13.482
27366W        W95760   4.346  38.274   0.869
27367W        W95761  16.197  11.218   1.731
27368W        W95762  31.451  37.495  11.902
27369W        W95763  15.763  25.645  13.414
27370W        W95764  24.497  12.412   4.698
27371W        W95765   0.883   5.319  12.603
27372W        W95766   1.348  28.009  10.668
27373W        W95767   3.690  41.496   3.781
27374W        W95768  37.490  33.414  10.456
27375W        W95769  31.677  36.082  10.523
27376W        W95770  11.305   8.505  12.878
27377W        W95771  35.402   9.872   1.653
27378W        W95772  16.253  18.859   2.605
27379W        W95773  22.529  38.087   0.259
27380W        W95774  30.504  42.795  13.253
27381W        W95775  25.950  38.944  10.928
27382W        W95776  40.893  37.491  12.019
27383W        W95777  29.193  21.448   1.681
27384W        W95778  31.836  21.122  10.200
27385W        W95779  14.241  10.987  14.823
27386W        W95780  27.671   0.348   0.873
27387W        W95781  16.064  37.283  11.594
27388W        W95782  44.085   9.830  13.327
27389W        W95783  24.145  41.311  11.430
27390W        W95784  10.743  14.197  12.175
27391W        W95785  12.600  27.519   1.411
27392W        W95786  39.782  41.976  11.589
27393W        W95787  32.389  15.364   1.238
27394W        W95788  14.559  33.847  11.470
27395W        W95789  39.903  33.202   2.216
27396W        W95790  35.001   7.365  11.953
27397W        W95791   6.484  23.599   4.096
27398W        W95792   3.400   8.613  12.455
27399W        W95793  43.386  12.699   1.717
27400W        W95794  16.970  31.887   0.186
27401W        W95795  14.175  13.045  10.974
27402W        W95796  38.548  26.143   3.354
27403W        W95797  37.441  12.835  10.707
27404W        W95798  20.508  18.442  14.653
27405W        W95799  28.623  34.829  13.905
27406W        W95800  44.443  25.047   1.295
27407W        W95801  21.213  40.869  11.602
27408W        W95802  39.932   9.901  14.894
27409W        W95803  36.394  27.897  14.435
27410W        W95804  21.312  13.897   4.206
27411W        W95805  36.064  42.321   2.259
27412W        W95806  38.783   8.928  10.568
27413W        W95807  36.552   7.188  12.072
27414W        W95808  37.013   2.231   1.851
27415W        W95809  30.580  14.052   2.322
27416W        W95810   6.666   1.310  12.603
27417W        W95811  19.611  13.330   0.826
27418W        W95812  40.352  22.757  12.016
27419W        W95813  21.228  37.899   0.544
27420W        W95814  42.485  20.705   2.206
27421W        W95815   6.685   5.966  13.828
27422W        W95816  10.873   7.473  11.208
27423W        W95817   8.301  44.304  13.537
27424W        W95818   4.226  25.708  10.518
27425W        W95819  26.456  35.963  14.882
27426W        W95820  12.094  11.792   3.326
27427W        W95821  20.294   8.306   3.550
27428W        W95822  28.253  25.506  13.896
27429W        W95823  38.102  34.183  14.869
27430W        W95824   3.701  32.845   2.376
27431W        W95825  24.832   3.274   0.554
27432W        W95826   5.308  31.117  12.411
27433W        W95827  39.491  10.694  14.877
27434W        W95828  25.039   5.182   0.683
27435W        W95829   3.635  14.695   2.807
27436W        W95830  42.809  29.986   2.994
27437W        W95831  38.276  22.433   4.201
27438W        W95832  36.338  36.571   1.248
27439W        W95833   3.235   9.244   2.098
27440W        W95834  40.601  28.021  12.898
27441W        W95835  21.411  39.131  13.470
27442W        W95836   1.997  20.088   1.299
27443W        W95837  44.489  19.839  14.959
27444W        W95838  25.036  36.123  14.598
27445W        W95839  12.802  18.188  14.364
27446W        W95840  29.493  29.453  14.680
27447W        W95841  20.841   3.161  13.827
27448W        W95842  36.027  38.341  14.090
27449W        W95843   6.368  32.753   0.480
27450W        W95844  28.578   4.994   2.849
27451W        W95845  26.543   0.761  13.531
27452W        W95846  36.516  16.535  12.410
27453W        W95847  37.889  10.262  14.076
27454W        W95848  25.354   8.691  11.552
27455W        W95849  24.666  23.297   1.643
27456W        W95850  12.860  38.961  13.796
27457W        W95851  30.259   0.679  11.214
27458W        W95852  15.317  27.271  10.630
27459W        W95853  27.263  20.680   3.604
27460W        W95854  32.909   6.227   1.820
27461W        W95855  37.459  24.166   4.420
27462W        W95856  22.299  16.315   1.699
27463W        W95857  14.266  22.648   1.960
27464W        W95858  35.133  16.776   1.246
27465W        W95859  42.363   1.973   2.824
27466W        W95860  38.478   7.253   0.442
27467W        W95861  15.617  28.869   1.413
27468W        W95862  32.846  40.344  14.393
27469W        W95863   9.625  31.824  13.443
27470W        W95864  42.285   4.313  11.482
27471W        W95865  16.029   9.254  13.558
27472W        W95866  42.273  26.151  11.717
27473W        W95867  34.566  44.301  12.059
27474W        W95868   0.198   3.662  14.372
27475W        W95869  10.231  30.904   1.756
27476W        W95870  22.103   3.552   1.220
27477W        W95871  38.576  42.258   0.460
27478W        W95872  27.879  41.977   3.337
27479W        W95873   9.819  42.490  12.048
27480W        W95874   8.368  34.313  11.397
27481W        W95875  42.609  29.107  11.147
27482W        W95876   3.800  15.516   2.199
27483W        W95877  19.730  18.546  14.926
27484W        W95878  24.187  34.645   0.343
27485W        W95879   8.853   5.431   4.725
27486W        W95880  12.083   7.890   0.762
27487W        W95881   1.523  20.225   3.226
27488W        W95882  30.265  21.503  13.838
27489W        W95883  22.958  26.489  10.218
27490W        W95884  19.613   7.381   3.356
27491W        W95885  14.605  21.749   2.751
27492W        W95886  40.092  11.685   2.225
27493W        W95887   8.769   7.286   2.067
27494W        W95888  30.386  22.630  12.963
27495W        W95889  10.494   8.237  13.924
27496W        W95890   5.888   9.634  12.004
27497W        W95891   8.735  21.262  14.553
27498W        W95892  36.786  33.476   5.012
27499W        W95893   4.981  40.781   2.645
27500W        W95894  24.439  42.394   4.932
27501W        W95895  20.548  13.217  10.830
27502W        W95896  24.623   9.652   4.769
27503W        W95897   4.427   3.957  14.221
27504W        W95898  24.473   3.527   2.345
27505W        W95899  10.800  36.012  14.379
27506W        W95900  16.299  41.837  14.086
27507W        W95901  20.082   6.745   4.566
27508W        W95902   3.532  36.938   0.356
27509W        W95903  27.587   7.451  14.490
27510W        W95904  38.964  44.596   4.272
27511W        W95905  21.675  31.851   0.714
27512W        W95906   6.287  36.873   4.699
27513W        W95907  20.738  43.767  13.877
27514W        W95908  44.325  30.712  12.440
27515W        W95909  20.531  22.910  10.506
27516W        W95910  20.584   2.128  13.084
27517W        W95911   0.357  34.674  11.175
27518W        W95912  41.273  19.560   0.331
27519W        W95913  41.428  32.271   2.753
27520W        W95914   7.941   1.701  14.285
27521W        W95915  34.053  28.517  11.954
27522W        W95916  22.078   1.021   2.180
27523W        W95917  22.599  15.291   1.132
27524W        W95918  27.636  18.389  11.288
27525W        W95919   2.366  33.054  13.494
27526W        W95920  17.420   6.195   5.429
27527W        W95921  31.143  39.540   0.273
27528W        W95922  40.375  39.726   2.637
27529W        W95923  41.987  18.049   0.037
27530W        W95924  42.544   0.883  10.371
27531W        W95925  30.038  20.689   3.127
27532W        W95926  22.167  29.917  11.669
27533W        W95927  15.570   7.990   1.871
27534W        W95928   1.651  38.301  13.560
27535W        W95929   5.792  24.235  10.723
27536W        W95930  19.996  34.892   1.694
27537W        W95931   9.440   0.333   3.743
27538W        W95932  33.116  34.768   0.460
27539W        W95933   0.445  27.086   0.757
27540W        W95934  27.892   3.816   2.237
27541W        W95935  25.977  20.699  13.503
27542W        W95936  16.832   1.289   2.879
27543W        W95937  24.219  37.087  14.319
27544W        W95938  38.375  30.658  12.612
27545W        W95939  39.790  44.815  14.817
27546W        W95940   0.079  37.515   5.644
27547W        W95941  15.078  20.490  13.029
27548W        W95942  41.084  15.188  14.802
27549W        W95943  12.023   1.597  13.877
27550W        W95944  30.006   1.003  12.942
27551W        W95945  14.493  37.415  11.569
27552W        W95946  42.225  41.248   1.840
27553W        W95947  10.941   3.455  13.854
27554W        W95948  10.976  42.498   2.819
27555W        W95949  16.636  16.692   0.889
27556W        W95950  24.102  35.824  13.044
27557W        W95951  43.547  29.673  13.475
27558W        W95952   3.683  12.166  11.635
27559W        W95953   1.375  20.515   0.414
27560W        W95954   2.825  41.273  12.663
27561W        W95955   0.719   6.539  14.580
27562W        W95956   2.389   4.045   1.866
27563W        W95957  44.380  18.507  10.589
27564W        W95958   4.766  36.776  12.792
27565W        W95959  44.402  22.622   5.079
27566W        W95960  44.785  30.994  11.129
27567W        W95961  39.379  15.552  13.312
27568W        W95962  19.058   8.774  11.561
27569W        W95963  32.735   0.381  11.912
27570W        W95964  27.998  25.963  13.657
27571W        W95965  17.133  39.277   3.781
27572W        W95966  16.680  15.309  13.968
27573W        W95967  36.377  21.670   4.590
27574W        W95968  28.227   0.213  14.293
27575W        W95969  44.885  40.546  11.872
27576W        W95970  34.108  33.862   1.015
27577W        W95971  38.256  41.876   0.713
27578W        W95972   0.948  31.114  12.209
27579W        W95973  41.527  19.275  14.908
27580W        W95974  16.406  27.629   4.092
27581W        W95975  16.154  34.837  11.885
27582W        W95976  34.337   1.916   2.752
27583W        W95977  12.146  34.568   1.272
27584W        W95978  25.744  39.869  14.323
27585W        W95979  11.830  20.287   2.873
27586W        W95980  10.612  36.801   4.299
27587W        W95981  39.827  19.182   4.620
27588W        W95982   8.333  34.965   4.648
27589W        W95983  23.149  21.015  10.619
27590W        W95984  36.846   9.048   2.894
27591W        W95985   1.838  23.964   1.852
27592W        W95986  27.566  38.617   1.150
27593W        W95987  38.129  36.324   4.953
27594W        W95988  37.043  23.021   2.697
27595W        W95989  18.551  11.283  12.642
27596W        W95990  30.686  39.370   3.662
27597W        W95991   7.770  18.788   2.385
27598W        W95992  29.628   8.490   3.104
27599W        W95993   8.050  26.099  14.433
27600W        W95994  43.958  26.170  14.491
27601W        W95995   5.267  21.962  11.538
27602W        W95996  19.125   9.536   3.173
27603W        W95997  37.291  43.346  14.348
27604W        W95998  11.824  44.879   0.051
27605W        W95999   6.453  26.234  10.866
27606W        W96000  26.233  14.187  14.283
27607W        W96001  17.121  41.333   3.321
27608W        W96002  15.642   4.200   3.121
27609W        W96003   5.253  13.825   0.379
27610W        W96004  13.627  17.101   2.573
27611W        W96005  43.797  22.166  11.500
27612W        W96006  11.567  36.147  12.525
27613W        W96007  13.762  20.556  10.918
27614W        W96008  10.630  42.316   1.407
27615W        W96009   5.459  11.132   0.019
27616W        W96010  40.427   7.466   4.334
27617W        W96011   9.197  26.733   3.759
27618W        W96012  31.492  10.146  10.523
27619W        W96013  34.306  28.043  12.430
27620W        W96014  40.204  10.011   0.319
27621W        W96015  36.992  17.816  11.940
27622W        W96016  32.945   0.979   4.558
27623W        W96017   2.378   9.839   3.838
27624W        W96018   0.699   2.439   1.917
27625W        W96019   6.589   6.291  10.618
27626W        W96020   7.426  17.376  14.782
27627W        W96021  26.629  27.431   3.660
27628W        W96022  10.726  42.913  13.536
27629W        W96023  12.846  24.183  13.980
27630W        W96024  27.446   3.369  11.593
27631W        W96025   3.744  15.744   1.440
27632W        W96026  28.595  44.921  12.049
27633W        W96027   1.870  40.134   2.427
27634W        W96028  18.517   1.888   2.238
27635W        W96029  11.011  13.381   0.775
27636W        W96030  22.950  42.840  11.255
27637W        W96031  18.807   2.318   1.218
27638W        W96032  35.997  29.058   1.469
27639W        W96033  28.867  26.029  14.672
27640W        W96034  16.782   2.750  11.566
27641W        W96035  12.654  30.820   0.864
27642W        W96036  44.461   3.879   3.209
27643W        W96037   0.518  28.141   0.780
27644W        W96038  26.087  22.896  13.788
27645W        W96039   6.637  26.012   0.993
27646W        W96040  32.121  18.197   2.912
27647W        W96041   7.422   5.723   1.427
27648W        W96042  16.185  27.834  14.298
27649W        W96043  38.785  15.522   1.833
27650W        W96044   7.618  17.360  13.999
27651W        W96045  38.468  32.661  11.116
27652W        W96046  30.857  30.560  12.622
27653W        W96047  35.868  19.929  13.458
27654W        W96048   9.806   6.229   0.846
27655W        W96049  36.538   6.351   2.423
27656W        W96050  23.961  43.240  13.366
27657W        W96051  31.887  38.725   3.054
27658W        W96052   6.612  29.922  14.687
27659W        W96053   6.333  35.510   4.836
27660W        W96054  39.963  32.281   2.275
27661W        W96055  21.333  40.463  10.597
27662W        W96056   8.725  22.424   1.384
27663W        W96057  37.338   6.927   2.174
27664W        W96058  12.354   1.242   3.378
27665W        W96059  39.934  35.122  11.354
27666W        W96060   6.641   2.208  10.413
27667W        W96061  23.864  41.982   3.784
27668W        W96062  27.058  27.171  11.312
27669W        W96063   1.767  40.864  11.321
27670W        W96064  24.749   5.309  10.852
27671W        W96065   0.306  33.434  10.500
27672W        W96066  43.929   2.469   1.292
27673W        W96067  13.724  25.197  14.943
27674W        W96068  31.974  28.890   3.096
27675W        W96069  18.572   6.736  14.011
27676W        W96070  13.118  41.845   1.448
27677W        W96071  16.186  30.047  14.876
27678W        W96072  30.403  20.544   0.155
27679W        W96073  16.078   5.639  14.116
27680W        W96074  43.724  36.807  12.040
27681W        W96075  35.243  38.054   0.183
27682W        W96076  35.580  35.850   1.343
27683W        W96077   6.896  27.108   5.388
27684W        W96078   7.156  21.590   1.265
27685W        W96079  37.583   3.791   3.675
27686W        W96080   9.665   4.286  12.847
27687W        W96081   5.755  11.964  13.957
27688W        W96082  33.720  42.319  14.958
27689W        W96083  31.682  14.850  13.871
27690W        W96084  27.200   2.750  13.077
27691W        W96085   3.725  26.041  11.413
27692W        W96086  11.693   8.393   1.250
27693W        W96087   1.366  10.416   0.877
27694W        W96088  11.103  34.972  11.585
27695W        W96089   5.347  17.954   2.213
27696W        W96090  43.465  24.498  11.719
27697W        W96091  39.857  29.094  14.985
27698W        W96092   7.489  24.993   1.269
27699W        W96093  26.176   2.854  13.773
27700W        W96094   5.491  38.466   0.980
27701W        W96095  16.310   2.502   0.415
27702W        W96096   5.429   4.744   0.913
27703W        W96097  10.352  26.157  11.185
27704W        W96098  41.892  14.363   2.300
27705W        W96099   9.624  22.645   3.534
27706W        W96100   3.136  18.636   4.571
27707W        W96101  37.803  19.181   2.641
27708W        W96102  39.057  32.509   2.740
27709W        W96103  21.063  36.099   3.212
27710W        W96104  33.706  17.153   1.903
27711W        W96105  36.762  26.303  11.494
27712W        W96106  44.774   6.747   4.453
27713W        W96107   2.349  27.496  14.994
27714W        W96108  27.380   5.844   0.652
27715W        W96109  29.145  28.561   1.947
27716W        W96110   1.710  37.852  13.809
27717W        W96111  44.316  30.326  14.401
27718W        W96112   7.238   6.890  11.598
27719W        W96113  40.998  20.264   4.204
27720W        W96114   0.795  42.260  11.457
27721W        W96115   1.854  24.313   0.796
27722W        W96116   6.100  20.978  12.069
27723W        W96117   8.082  17.755   0.877
27724W        W96118  27.467  41.755  14.863
27725W        W96119  15.289  13.459   4.720
27726W        W96120   5.834  39.745   4.057
27727W        W96121  44.463  19.011  11.282
27728W        W96122  22.590   9.322  12.031
27729W        W96123  36.133  21.756  14.006
27730W        W96124   3.600  25.965   1.847
27731W        W96125  34.637   1.323  13.856
27732W        W96126   7.815  17.745   1.303
27733W        W96127  32.841  39.404  14.496
27734W        W96128  44.692  18.556  12.905
27735W        W96129  42.619  43.576  14.815
27736W        W96130  22.282  27.497  11.566
27737W        W96131  35.026  25.105   2.611
27738W        W96132  12.398  29.168  11.533
27739W        W96133  44.238  40.589  13.979
27740W        W96134   2.855  19.792  10.567
27741W        W96135  16.711  38.341   2.929
27742W        W96136  38.973   6.816   1.731
27743W        W96137  42.758   7.954  12.945
27744W        W96138   2.416  23.782  11.853
27745W        W96139  14.057  24.313  14.729
27746W        W96140   5.481   7.962  14.350
27747W        W96141   2.508  40.886   0.713
27748W        W96142  30.109   7.426   3.699
27749W        W96143  37.471  30.371  11.758
27750W        W96144  14.241  27.717  14.538
27751W        W96145  18.949  18.858  14.363
27752W        W96146  24.550   4.747   5.065
27753W        W96147  36.029  17.137   1.371
27754W        W96148  39.822   5.215  10.660
27755W        W96149  27.069   1.060   2.381
27756W        W96150  24.309  38.471  14.478
27757W        W96151   1.864  12.828   4.968
27758W        W96152   7.032   9.769   4.149
27759W        W96153  16.639  15.824   3.830
27760W        W96154  36.074  11.828   1.949
27761W        W96155  35.432   0.294   2.542
27762W        W96156  22.718  23.548   1.319
27763W        W96157   9.392  34.999  10.770
27764W        W96158  11.257   7.543   0.900
27765W        W96159   6.445  23.000  11.124
27766W        W96160   9.892   5.041   1.594
27767W        W96161   6.766  35.822  14.852
27768W        W96162  41.837   0.600   1.471
27769W        W96163  14.100  42.951  13.161
27770W        W96164  23.573  11.285  13.429
27771W        W96165  42.403  25.000  12.379
27772W        W96166  19.259  36.870   2.250
27773W        W96167  23.758  14.212  10.751
27774W        W96168  26.132   0.203   2.758
27775W        W96169  27.097  43.261   1.051
27776W        W96170   4.338   8.811  14.727
27777W        W96171  14.817  29.447  12.732
27778W        W96172  27.131  21.344   1.919
27779W        W96173  39.608  40.538  13.504
27780W        W96174  10.643  22.727   3.544
27781W        W96175   5.982   5.603  12.452
27782W        W96176   9.355  11.155  10.716
27783W        W96177  23.535  30.584   3.914
27784W        W96178   4.337   6.286  13.982
27785W        W96179   1.410  27.581  14.401
27786W        W96180  25.928  27.565   3.208
27787W        W96181  11.323  38.776   2.327
27788W        W96182   4.864  42.331  11.068
27789W        W96183  33.861   8.401  11.921
27790W        W96184  20.187  26.438   4.314
27791W        W96185  34.592   4.180  12.434
27792W        W96186  34.957   0.261   2.296
27793W        W96187  25.201  17.141  10.696
27794W        W96188   5.194  15.038  13.934
27795W        W96189   9.569  41.500   0.240
27796W        W96190  14.150  36.068  13.995
27797W        W96191   8.005  39.053  14.715
27798W        W96192  20.973  18.080   0.395
27799W        W96193   7.454   8.973   0.257
27800W        W96194  33.525  22.879  14.512
27801W        W96195  31.611  20.077   4.283
27802W        W96196  17.252  26.573   1.751
27803W        W96197  33.360  12.878   3.858
27804W        W96198   9.767   8.745  12.974
27805W        W96199  22.894  27.703   4.050
27806W        W96200  29.000  13.808   0.870
27807W        W96201  28.884  11.707  13.375
27808W        W96202  19.597  24.616   2.424
27809W        W96203  22.044   4.930   1.719
27810W        W96204  21.074   3.407   3.237
27811W        W96205  43.934  18.258   3.556
27812W        W96206   5.265  17.403   0.182
27813W        W96207  39.813  12.677  14.028
27814W        W96208  15.273  22.305  11.958
27815W        W96209  37.997  32.867  14.363
27816W        W96210  39.255  17.747   0.972
27817W        W96211  35.062   2.758   3.469
27818W        W96212  39.913  34.117  12.955
27819W        W96213  43.911  43.676   0.691
27820W        W96214  26.587  23.046  13.885
27821W        W96215  18.348  44.748  10.241
27822W        W96216  43.284  24.538  14.002
27823W        W96217   0.450  33.153   4.635
27824W        W96218  30.834  27.947  10.762
27825W        W96219  32.204  30.812   0.319
27826W        W96220  17.841  21.780  12.101
27827W        W96221   1.346  17.762  14.363
27828W        W96222   1.990  15.185  14.845
27829W        W96223  32.970   9.696   4.784
27830W        W96224   8.025  21.857   4.924
27831W        W96225  26.567  34.486   0.919
27832W        W96226  18.109  28.564  14.378
27833W        W96227  15.514  23.517   1.948
27834W        W96228  22.131   1.717   1.406
27835W        W96229  24.267  41.198  10.543
27836W        W96230  11.843   0.733   2.915
27837W        W96231   2.701  14.610   4.187
27838W        W96232   5.762  10.137   2.656
27839W        W96233   9.703  44.327   2.816
27840W        W96234   3.009  34.937   2.756
27841W        W96235  33.903  41.007   4.484
27842W        W96236   3.281  30.111  14.872
27843W        W96237  22.357  44.564   2.892
27844W        W96238   8.320  24.244  12.078
27845W        W96239  27.027  38.990  12.420
27846W        W96240  38.033  14.827  10.555
27847W        W96241  28.189  35.447   2.640
27848W        W96242  37.440   4.482  10.690
27849W        W96243   9.488   7.721  11.077
27850W        W96244  36.364  14.141   4.136
27851W        W96245  11.017   2.343   0.987
27852W        W96246  12.218  39.828   1.445
27853W        W96247   1.995  31.604   2.921
27854W        W96248  12.846   9.564   2.914
27855W        W96249  38.752   6.150  14.581
27856W        W96250  12.904   1.013   1.557
27857W        W96251  31.208  28.646  12.897
27858W        W96252  43.286  26.429   3.220
27859W        W96253  23.627  35.502   4.515
27860W        W96254   0.360  16.603   3.161
27861W        W96255  43.484  35.952   0.723
27862W        W96256  44.013  43.302   4.548
27863W        W96257  24.470   0.514  12.436
27864W        W96258  33.397  25.892  14.525
27865W        W96259  14.584   5.647  14.511
27866W        W96260   7.484   2.838  11.639
27867W        W96261   2.631  39.887  12.463
27868W        W96262  16.260   7.319  12.291
27869W        W96263  20.548  29.504  14.314
27870W        W96264   5.754  30.351   4.526
27871W        W96265   6.801   7.343  13.563
27872W        W96266  36.909  29.409  14.979
27873W        W96267  15.077  15.172  11.979
27874W        W96268  38.212  18.495   4.235
27875W        W96269  21.157  37.849  12.111
27876W        W96270  20.528   2.271   2.751
27877W        W96271   0.557  15.624   4.133
27878W        W96272  31.625   5.916  12.424
27879W        W96273  36.929  13.842  14.470
27880W        W96274  30.995  12.414   2.706
27881W        W96275   1.881  11.387   2.233
27882W        W96276  15.361  16.619   0.285
27883W        W96277  28.091  15.372   5.068
27884W        W96278  27.157  37.978   4.493
27885W        W96279  39.411  35.389   4.699
27886W        W96280  10.284  28.385  11.836
27887W        W96281   0.507  15.687  14.059
27888W        W96282  13.117  31.472  12.910
27889W        W96283  36.143  10.738  11.220
27890W        W96284  42.766  10.106  12.038
27891W        W96285  27.006  25.747   0.370
27892W        W96286  35.922  10.772  11.708
27893W        W96287   6.511  17.842  12.125
27894W        W96288   8.328  40.433   2.225
27895W        W96289   5.214  32.554   4.549
27896W        W96290   9.018  33.053  12.764
27897W        W96291  25.937  32.470   4.823
27898W        W96292  35.336   8.828  12.352
27899W        W96293  19.047  11.376  11.114
27900W        W96294  37.933  15.524  11.201
27901W        W96295   8.717  27.265  13.691
27902W        W96296  41.727  25.481  14.744
27903W        W96297  27.395  17.268   1.536
27904W        W96298  37.903  22.764   4.418
27905W        W96299  19.772  35.955  14.856
27906W        W96300  35.385  20.051  14.426
27907W        W96301  33.322  30.568   4.780
27908W        W96302  11.706  37.548  11.056
27909W        W96303   2.352   5.396   4.120
27910W        W96304  31.109   7.183  12.505
27911W        W96305  32.120  29.719  13.966
27912W        W96306  32.755   0.469  13.734
27913W        W96307  13.506   8.624   0.763
27914W        W96308  28.170   8.280   0.414
27915W        W96309  10.975  40.804   0.911
27916W        W96310   2.470   9.472   1.123
27917W        W96311  19.772   6.782  10.681
27918W        W96312  41.822  21.753  11.729
27919W        W96313  37.984   3.621  14.764
27920W        W96314   5.434  44.295   2.177
27921W        W96315  44.571  34.502  10.547
27922W        W96316  26.619   6.106   5.087
27923W        W96317   6.030  35.623   2.896
27924W        W96318  10.888  11.600   3.685
27925W        W96319  41.769  41.916   0.337
27926W        W96320  15.776  25.564   4.225
27927W        W96321  30.447   0.366   2.781
27928W        W96322  30.647   7.753  14.249
27929W        W96323  27.827  16.634  10.692
27930W        W96324  25.376  16.106  12.548
27931W        W96325  44.077  38.679   4.235
27932W        W96326  31.201   5.801  11.192
27933W        W96327  31.471   4.198   0.679
27934W        W96328  17.107  27.944   5.128
27935W        W96329  20.044  41.935  12.053
27936W        W96330  28.042   9.259   2.910
27937W        W96331  20.772  42.734  13.937
27938W        W96332  44.192  44.801  14.569
27939W        W96333  39.387  25.302   0.847
27940W        W96334  36.357  19.213   4.766
27941W        W96335  26.687  17.716   3.142
27942W        W96336  27.618  22.761  10.736
27943W        W96337  10.108  10.885   2.896
27944W        W96338  28.487  29.559  14.338
27945W        W96339   5.985  41.980   2.444
27946W        W96340   5.473  36.523   4.281
27947W        W96341   8.936  12.748   4.477
27948W        W96342  13.599  16.147   2.853
27949W        W96343  32.370  43.458   4.099
27950W        W96344   1.932  10.267  12.579
27951W        W96345   4.356  32.329  12.918
27952W        W96346   5.498   5.538  11.135
27953W        W96347  43.900  34.861  13.405
27954W        W96348  31.600  17.830   4.350
27955W        W96349  33.061  37.147   3.415
27956W        W96350   5.020   4.908  10.583
27957W        W96351  34.586  19.861  13.967
27958W        W96352  22.033  25.528  14.013
27959W        W96353   7.098  25.567  10.765
27960W        W96354   0.760  37.819   4.588
27961W        W96355  35.555  40.457  12.245
27962W        W96356  29.077  33.817  11.630
27963W        W96357  18.845  14.638  14.474
27964W        W96358  16.699  30.464   0.961
27965W        W96359  10.882  28.983  10.595
27966W        W96360  25.663  43.040  11.193
27967W        W96361  26.719  22.238  14.878
27968W        W96362  38.474  17.235  12.555
27969W        W96363  17.490  12.266  10.349
27970W        W96364  25.517   5.358   1.748
27971W        W96365  43.032  15.748   2.169
27972W        W96366  27.933  29.512   0.839
27973W        W96367  19.796   3.257   3.082
27974W        W96368   4.284  13.533   4.518
27975W        W96369  35.261  37.452   2.670
27976W        W96370   0.528  24.988   2.360
27977W        W96371   9.544   2.571  10.022
27978W        W96372  17.411   6.109   2.725
27979W        W96373   5.766   7.847   1.702
27980W        W96374  15.009  35.704   4.781
27981W        W96375  42.360  20.277   0.031
27982W        W96376  34.385  41.471   3.390
27983W        W96377  33.103  42.373  12.871
27984W        W96378   2.717  33.890  13.399
27985W        W96379  21.998  26.668  12.502
27986W        W96380   8.663  40.539   3.589
27987W        W96381  42.242   7.185  13.547
27988W        W96382   6.897   2.709   2.808
27989W        W96383  30.258   7.793  12.481
27990W        W96384  18.703  25.701   1.399
27991W        W96385   8.793  10.459  11.634
27992W        W96386  18.985  30.848  12.564
27993W        W96387   2.886  23.177  14.947
27994W        W96388  26.145   6.202   4.751
27995W        W96389  26.912  24.714  11.577
27996W        W96390  32.820  36.289  12.325
27997W        W96391  12.636   7.878  11.868
27998W        W96392   2.697  23.505   0.319
27999W        W96393   2.889  10.860   2.221
28000W        W96394  40.412  20.213  12.769
28001W        W96395  35.369  24.696  14.349
28002W        W96396  39.621   1.431  12.773
28003W        W96397  10.168  37.965  14.774
28004W        W96398  25.912   0.410  11.607
28005W        W96399  19.764  24.109  14.736
28006W        W96400   3.679  37.067   3.293
28007W        W96401   0.496  19.554  13.161
28008W        W96402   7.362  16.120   1.868
28009W        W96403   5.485   0.113   1.811
28010W        W96404   7.804  14.468   1.797
28011W        W96405  18.039  33.774   4.053
28012W        W96406   9.109  13.310   1.133
28013W        W96407   7.242  35.017  11.157
28014W        W96408   5.994   0.947   3.281
28015W        W96409  27.229  13.243   1.256
28016W        W96410  25.878  32.395  11.581
28017W        W96411   0.052  29.332   1.414
28018W        W96412  38.575  33.547   0.716
28019W        W96413  28.561  20.153  14.700
28020W        W96414  18.423  20.712   1.729
28021W        W96415  33.952   3.788   2.716
28022W        W96416  40.455   7.650  11.132
28023W        W96417  13.851  30.099  10.948
28024W        W96418  43.080  37.998   4.242
28025W        W96419  28.097  32.718   3.053
28026W        W96420  21.917  11.721   4.452
28027W        W96421  30.564  29.375  11.701
28028W        W96422  23.265  17.789   0.705
28029W        W96423  40.763  30.502  14.442
28030W        W96424  20.585  43.226   1.820
28031W        W96425  43.969  19.157  11.168
28032W        W96426  28.399  11.474  14.736
28033W        W96427  17.267  24.848  10.686
28034W        W96428  21.627  35.613   4.211
28035W        W96429  34.091  24.069  10.681
28036W        W96430   4.281  28.188  10.449
28037W        W96431   1.294  40.341  10.984
28038W        W96432  35.850   4.869   1.725
28039W        W96433  35.644  26.235  12.124
28040W        W96434   7.326  40.062  14.023
28041W        W96435  10.627   6.175   0.277
28042W        W96436  17.028  35.987   1.545
28043W        W96437  10.918  40.431  14.287
28044W        W96438  14.052  20.430  14.103
28045W        W96439   6.963  24.714  14.741
28046W        W96440   3.785   6.399   0.323
28047W        W96441  13.770  30.328  12.958
28048W        W96442  11.437   8.439   3.300
28049W        W96443  17.107  35.473   3.337
28050W        W96444  34.870  17.513   2.286
28051W        W96445   1.909  15.838  14.455
28052W        W96446  26.730  22.734  11.768
28053W        W96447  40.577  24.907   1.332
28054W        W96448  33.146  16.496  11.181
28055W        W96449  42.394   1.710  10.586
28056W        W96450  14.279  19.989  12.953
28057W        W96451  37.594   6.287  13.296
28058W        W96452  38.460  14.683   4.187
28059W        W96453  43.502  40.432  10.557
28060W        W96454  21.931   4.895  13.994
28061W        W96455  35.215  39.123  13.038
28062W        W96456   0.696  17.809  12.476
28063W        W96457  33.089  25.709   4.299
28064W        W96458  24.707   1.452  12.409
28065W        W96459  19.356  39.520  13.345
28066W        W96460  17.394  21.681  14.484
28067W        W96461  13.131  29.406   0.405
28068W        W96462   7.212   6.991  11.102
28069W        W96463  28.000   7.910  10.671
28070W        W96464  18.981  29.624   0.804
28071W        W96465  15.370   7.368   3.678
28072W        W96466  26.182  29.225  13.177
28073W        W96467  10.608  42.086   2.832
28074W        W96468  36.454   4.937  12.839
28075W        W96469  36.369   3.860  10.610
28076W        W96470  40.579  43.978   2.796
28077W        W96471   3.908  35.443   4.754
28078W        W96472  22.681  25.396   4.505
28079W        W96473  24.660  39.594   2.348
28080W        W96474  42.293  26.394   2.618
28081W        W96475  41.750  35.767   5.003
28082W        W96476  33.152  28.652  10.656
28083W        W96477  20.483  11.702   0.800
28084W        W96478  19.423  28.596   4.903
28085W        W96479  29.654  17.487   4.188
28086W        W96480  26.946  44.000   4.144
28087W        W96481   2.783  39.585   3.779
28088W        W96482   8.754  10.684   0.451
28089W        W96483  36.578   6.263  12.988
28090W        W96484  13.763  20.782   3.882
28091W        W96485  26.378  14.019  10.864
28092W        W96486  15.369  32.438  14.861
28093W        W96487   2.261  39.051  12.489
28094W        W96488  10.945  17.847   2.252
28095W        W96489   3.268  39.758   3.898
28096W        W96490  19.585   4.732  11.937
28097W        W96491   6.940  33.999   2.320
28098W        W96492  37.887   8.903  12.459
28099W        W96493  36.991   2.916   3.649
28100W        W96494  24.308  16.698   1.184
28101W        W96495   6.855  15.193  11.933
28102W        W96496  40.255  41.713   0.480
28103W        W96497  32.536  40.760  14.251
28104W        W96498   2.813  17.461   0.385
28105W        W96499  18.288   1.451  10.600
28106W        W96500  18.618   9.248   2.900
28107W        W96501  39.873  33.705   3.110
28108W        W96502  35.648  35.549   3.313
28109W        W96503  38.328   0.696   4.663
28110W        W96504  28.923  22.081   3.088
28111W        W96505  33.970  31.076   0.714
28112W        W96506   5.093  22.786   2.505
28113W        W96507   0.784   0.269   0.258
28114W        W96508  23.143  23.625  12.682
28115W        W96509  33.396  41.569  14.246
28116W        W96510  15.214  38.320   5.092
28117W        W96511   3.794  22.340  11.404
28118W        W96512   7.355  42.751   1.455
28119W        W96513  20.469  16.880   1.785
28120W        W96514  16.893  38.963  11.927
28121W        W96515  29.305   2.758  12.076
28122W        W96516  20.002   2.219  11.630
28123W        W96517  16.838   6.283   3.878
28124W        W96518  27.574  43.858  12.483
28125W        W96519   0.247  28.016   1.216
28126W        W96520  42.341  18.829  10.921
28127W        W96521  41.770   4.321  12.204
28128W        W96522   2.240  31.015  11.677
28129W        W96523   6.422  13.053   4.179
28130W        W96524  12.438  21.290   3.376
28131W        W96525  43.033  11.757   0.682
28132W        W96526  34.170  22.534   1.683
28133W        W96527  42.428  38.775   1.828
28134W        W96528  35.363  25.256  12.980
28135W        W96529  22.487   2.756   1.220
28136W        W96530  26.761   2.461  14.440
28137W        W96531  20.736  41.501  14.157
28138W        W96532  28.226   9.704  12.920
28139W        W96533   8.343  31.156  12.527
28140W        W96534   1.786  29.467  14.991
28141W        W96535  12.162  32.059   9.646
28142W        W96536   9.914   8.340   2.171
28143W        W96537  38.280  19.416  14.644
28144W        W96538  34.938  39.995  14.999
28145W        W96539  24.208   9.584  13.806
28146W        W96540  18.168  25.990   4.248
28147W        W96541  16.760   5.048   5.026
28148W        W96542  21.098  42.762  11.532
28149W        W96543  23.993  26.945   0.700
28150W        W96544   7.810   7.201  10.168
28151W        W96545  36.924  20.922  11.214
28152W        W96546  28.410  35.755   1.339
28153W        W96547  11.684  24.745   3.838
28154W        W96548  38.577  37.466  12.027
28155W        W96549  19.957  18.783  11.605
28156W        W96550  18.668  31.824   3.316
28157W        W96551   5.635  26.076  12.507
28158W        W96552  27.480  33.453   0.850
28159W        W96553  15.288  31.194  14.806
28160W        W96554  23.512  15.146  11.165
28161W        W96555  42.957   4.534   1.260
28162W        W96556  25.171  27.592   2.718
28163W        W96557  19.661  11.734   2.060
28164W        W96558  44.023  41.917  11.885
28165W        W96559  25.453  37.493   4.487
28166W        W96560   4.378  36.564  11.510
28167W        W96561  38.279  14.198  14.412
28168W        W96562   8.860  36.257  14.051
28169W        W96563  37.068  20.238  13.826
28170W        W96564  15.272  29.530  11.794
28171W        W96565  32.013  15.535   2.127
28172W        W96566  13.413  42.267   2.653
28173W        W96567   3.947   4.354   4.799
28174W        W96568   0.447   0.731   1.482
28175W        W96569  20.540  39.069  13.819
28176W        W96570  44.987  30.724  13.947
28177W        W96571  11.502  17.552   3.424
28178W        W96572  43.907  32.353  10.368
28179W        W96573  31.638  10.509   4.184
28180W        W96574  20.769  32.068   1.879
28181W        W96575  28.864  22.487   0.037
28182W        W96576  44.825   7.058  13.515
28183W        W96577  28.226  37.853   0.218
28184W        W96578  12.206  37.126  10.566
28185W        W96579   0.921  44.069  13.475
28186W        W96580  13.943  41.163  11.670
28187W        W96581  31.973  16.704  14.228
28188W        W96582  39.686  25.781  13.438
28189W        W96583   5.342  34.439   4.168
28190W        W96584  32.693  33.464   2.800
28191W        W96585  17.221  23.642   2.423
28192W        W96586  37.460  37.360   2.251
28193W        W96587  13.669  25.482   1.370
28194W        W96588  14.266  10.412   3.773
28195W        W96589  20.744  25.256   3.176
28196W        W96590  33.914  33.879   4.701
28197W        W96591  20.125   6.442   2.314
28198W        W96592  22.469  10.161   0.405
28199W        W96593  11.203   8.978  13.882
28200W        W96594   5.358  17.859   3.100
28201W        W96595  43.921  12.139   3.684
28202W        W96596   0.833   3.678  13.050
28203W        W96597  34.773  30.182   3.801
28204W        W96598  41.114  41.185   0.521
28205W        W96599  29.031  23.970  14.228
28206W        W96600  28.107  14.272   2.207
28207W        W96601  39.087  16.980  11.572
28208W        W96602  41.303  44.206   4.629
28209W        W96603  37.775   0.424  13.939
28210W        W96604  11.790   7.126   3.357
28211W        W96605  30.492  36.530   1.410
28212W        W96606  33.493  10.468   2.545
28213W        W96607   7.360  31.672   4.447
28214W        W96608  17.253  17.662   1.726
28215W        W96609  14.349  27.713   0.695
28216W        W96610  43.471  10.586  14.921
28217W        W96611  20.227  36.649   4.067
28218W        W96612  23.855  13.558   1.600
28219W        W96613   8.907  39.162   3.718
28220W        W96614  31.063  24.974  11.868
28221W        W96615  16.172  18.294   1.752
28222W        W96616  24.633  15.832  13.425
28223W        W96617  30.887  23.175  13.529
28224W        W96618  40.866   0.262  12.456
28225W        W96619  41.034  31.583  13.293
28226W        W96620  29.001  39.549   2.763
28227W        W96621  26.612   3.782  12.588
28228W        W96622   2.014  29.184   1.837
28229W        W96623  20.181  39.380  14.234
28230W        W96624  28.368  30.649   4.348
28231W        W96625  12.381  24.613   3.224
28232W        W96626  34.594  20.530  13.403
28233W        W96627  20.784  42.250   1.922
28234W        W96628  34.644  12.827   4.340
28235W        W96629  29.951  37.368   2.796
28236W        W96630  14.728  28.478   1.744
28237W        W96631  11.619   8.297  14.357
28238W        W96632   2.194  27.941   3.872
28239W        W96633  44.168   1.575  10.462
28240W        W96634   9.324  39.985  12.547
28241W        W96635  20.952  31.128  13.772
28242W        W96636  39.590  41.547   3.555
28243W        W96637  20.099  44.345   0.178
28244W        W96638  40.389  23.424   0.955
28245W        W96639  35.281  25.753  12.828
28246W        W96640  35.998  31.885   1.445
28247W        W96641  40.319  19.210   4.430
28248W        W96642  34.032  30.867   1.191
28249W        W96643  41.361  30.898  12.490
28250W        W96644   9.005  28.299  13.482
28251W        W96645   5.871  13.736   3.753
28252W        W96646  28.603  43.102   5.426
28253W        W96647  12.312  11.801   3.791
28254W        W96648  22.242  13.418   1.413
28255W        W96649  13.711   7.876  11.434
28256W        W96650  35.464   0.438  10.740
28257W        W96651  25.590  32.321  13.478
28258W        W96652   1.913   2.731   1.661
28259W        W96653  32.135  43.864   1.317
28260W        W96654  26.962  16.357  14.266
28261W        W96655  37.901  18.113   0.934
28262W        W96656  34.025  20.151  10.494
28263W        W96657  43.559   5.245   1.752
28264W        W96658  31.669   8.550  11.632
28265W        W96659   2.849  15.359  11.224
28266W        W96660  21.326  25.510  12.675
28267W        W96661  25.066  39.919   0.805
28268W        W96662  40.932   7.657  11.721
28269W        W96663   6.271  27.708  14.988
28270W        W96664  31.958  20.378  12.524
28271W        W96665  28.649  13.779  11.234
28272W        W96666  42.466  12.754  10.959
28273W        W96667  36.075   5.491   3.333
28274W        W96668   1.819   0.285   4.559
28275W        W96669   1.866   5.482   4.346
28276W        W96670  33.864  42.568   3.854
28277W        W96671  43.273  36.022   3.200
28278W        W96672  14.030  11.116  13.164
28279W        W96673  32.904  28.554  11.101
28280W        W96674   1.182  25.103  12.089
28281W        W96675  21.099  15.935   2.085
28282W        W96676  21.245  37.172  13.430
28283W        W96677  10.763  37.972  12.454
28284W        W96678  30.755  42.619   1.513
28285W        W96679  11.807  20.975  10.165
28286W        W96680  19.810   1.467   2.549
28287W        W96681  31.004  31.996   3.183
28288W        W96682  15.576  38.982  11.404
28289W        W96683   2.234   7.549   2.164
28290W        W96684   8.272  40.324  13.346
28291W        W96685  24.613  33.182   0.399
28292W        W96686  17.709  16.180   4.098
28293W        W96687   2.549  13.110   4.640
28294W        W96688   7.171  21.693  10.916
28295W        W96689   1.416  34.674   1.903
28296W        W96690  40.396  41.735   1.338
28297W        W96691  37.030  26.101  11.892
28298W        W96692  25.672  22.269   1.802
28299W        W96693  32.153  13.167   2.185
28300W        W96694  33.044  42.793  11.143
28301W        W96695  30.384  26.036   1.690
28302W        W96696  10.118  27.195  13.567
28303W        W96697  39.971   1.304   1.778
28304W        W96698  12.849  25.356   0.482
28305W        W96699   7.066  19.525   3.612
28306W        W96700  27.056  11.801   3.681
28307W        W96701  42.874  33.442  12.743
28308W        W96702  19.107  14.907   2.182
28309W        W96703  33.903  18.246  14.435
28310W        W96704  32.413  40.547   1.630
28311W        W96705   6.500  20.036   1.426
28312W        W96706  21.063  44.337   1.371
28313W        W96707  24.043   7.366   4.303
28314W        W96708  19.612  31.945   4.066
28315W        W96709  20.141  19.676  11.580
28316W        W96710  20.964  13.304  11.146
28317W        W96711  19.016  25.550  12.962
28318W        W96712  10.364  29.362  11.611
28319W        W96713  30.634  40.364   2.610
28320W        W96714   2.259   9.575  13.463
28321W        W96715  10.721   0.936  14.378
28322W        W96716  38.637  37.094  12.978
28323W        W96717  37.900  32.398  14.184
28324W        W96718  34.594   2.856  10.706
28325W        W96719   1.373  38.444   2.700
28326W        W96720  22.725   0.092  11.890
28327W        W96721  38.773  39.628   0.859
28328W        W96722  31.456  30.153   4.589
28329W        W96723  30.423   8.457   0.674
28330W        W96724  17.508  42.981   2.898
28331W        W96725  44.973  19.908   4.057
28332W        W96726  29.390  14.822   2.251
28333W        W96727  40.824  15.134   0.242
28334W        W96728  41.369  13.995  14.413
28335W        W96729   4.432  20.955   1.211
28336W        W96730  37.361  14.151  14.433
28337W        W96731  29.662  16.336   3.116
28338W        W96732   3.695  13.161   0.309
28339W        W96733  13.343  14.047   4.648
28340W        W96734  20.630  10.405   2.648
28341W        W96735  27.963  24.008   2.777
28342W        W96736  44.923  28.209   4.891
28343W        W96737  12.306  40.999   0.916
28344W        W96738  44.675  17.152  12.992
28345W        W96739  42.823  22.163  12.501
28346W        W96740  22.581  28.116   1.028
28347W        W96741  11.453  12.575  13.229
28348W        W96742  33.927  39.325  10.712
28349W        W96743  36.213   8.231   3.599
28350W        W96744  17.827   2.331   0.002
28351W        W96745   2.015  24.095  12.814
28352W        W96746  36.343  39.010   4.501
28353W        W96747  35.269  12.334  12.382
28354W        W96748  33.313  44.347   3.243
28355W        W96749  28.663  16.746   4.547
28356W        W96750  38.226  22.099   1.485
28357W        W96751  12.163  37.980   4.825
28358W        W96752  12.100  32.451  12.506
28359W        W96753  18.230  44.310   0.271
28360W        W96754   5.753  22.340  10.743
28361W        W96755  10.125  12.777   3.766
28362W        W96756   0.728  28.663   1.041
28363W        W96757   4.346  34.116  12.395
28364W        W96758  35.995  30.919  11.056
28365W        W96759   1.295  29.922   3.701
28366W        W96760  12.041  14.761  10.581
28367W        W96761  19.170  10.217   4.378
28368W        W96762  13.660  25.003   3.422
28369W        W96763  31.208  14.141  10.875
28370W        W96764  13.182  30.034  11.857
28371W        W96765  21.061  32.468  10.407
28372W        W96766  20.536  43.576   2.620
28373W        W96767  11.558  32.623  11.553
28374W        W96768  39.787  14.753  13.265
28375W        W96769  13.180  34.551  13.136
28376W        W96770  11.337  34.605  14.981
28377W        W96771  34.125   4.333   0.290
28378W        W96772   2.473  37.122  12.526
28379W        W96773  18.567  30.659   4.398
28380W        W96774  13.781   5.213  12.040
28381W        W96775  10.891   4.865  14.788
28382W        W96776  34.616  17.092   3.931
28383W        W96777  44.939   8.814   3.536
28384W        W96778  38.411  42.273   1.910
28385W        W96779   2.674  40.324   3.242
28386W        W96780  33.916   0.302   4.834
28387W        W96781  17.781   2.305  13.964
28388W        W96782  40.751   0.514  12.899
28389W        W96783  42.887  31.611  10.720
28390W        W96784  36.927  17.311  13.553
28391W        W96785  16.252  21.646   1.854
28392W        W96786  33.094   8.812  10.588
28393W        W96787  23.945  26.566  11.192
28394W        W96788  43.309  23.347   4.633
28395W        W96789   8.745   2.366  14.986
28396W        W96790  32.720  20.200   0.370
28397W        W96791  44.012   6.208  10.635
28398W        W96792  18.768  39.880   2.866
28399W        W96793  13.369  15.552   2.348
28400W        W96794   1.014  18.683  13.443
28401W        W96795  21.600  39.101  11.578
28402W        W96796   3.231   7.411   0.256
28403W        W96797  21.926  36.757   1.269
28404W        W96798  21.687  39.900   4.412
28405W        W96799  12.078  32.593  11.593
28406W        W96800  25.639  25.973   2.809
28407W        W96801  13.191  44.834   2.941
28408W        W96802  14.003   8.486  13.988
28409W        W96803  29.313  37.389   4.658
28410W        W96804  23.882  31.721   2.737
28411W        W96805  17.849   2.974  12.876
28412W        W96806  25.523  43.309   1.436
28413W        W96807  40.084  38.338   0.366
28414W        W96808  44.642  24.363  13.175
28415W        W96809  36.901  41.810   3.448
28416W        W96810  30.922  20.084  10.550
28417W        W96811   2.852  27.704  14.813
28418W        W96812  10.842  37.498  13.335
28419W        W96813  21.063  23.528  10.609
28420W        W96814  34.428  23.903  12.844
28421W        W96815  21.826  29.630   4.639
28422W        W96816  14.648  35.003   1.300
28423W        W96817  13.631  24.453  13.452
28424W        W96818  15.054  32.604   1.287
28425W        W96819  19.079   4.397  12.595
28426W        W96820  28.239  35.048   1.960
28427W        W96821  25.765  14.137   4.467
28428W        W96822  34.416  37.417   4.040
28429W        W96823   4.440  13.572  10.772
28430W        W96824  20.689   0.759  10.812
28431W        W96825  22.172   1.311  11.030
28432W        W96826  37.877   3.655   0.694
28433W        W96827  41.293  12.259   2.219
28434W        W96828  20.618  40.291  12.240
28435W        W96829  28.494  44.027  14.999
28436W        W96830  23.988   7.123  14.119
28437W        W96831  14.165  38.687   3.304
28438W        W96832   3.300  12.082   0.947
28439W        W96833  24.606  22.826   1.840
28440W        W96834  24.001  19.519   4.083
28441W        W96835  43.048  12.266  11.999
28442W        W96836  10.244  36.286   3.652
28443W        W96837  41.926  12.066   4.024
28444W        W96838   3.587   8.271   1.251
28445W        W96839  30.482   3.376  12.290
28446W        W96840  18.223  37.294  10.810
28447W        W96841  40.564  16.857  11.113
28448W        W96842   6.292  19.238   4.588
28449W        W96843   5.573   2.795   0.498
28450W        W96844  23.095  29.310  13.555
28451W        W96845   5.826  19.979  13.689
28452W        W96846  39.369  35.062   3.552
28453W        W96847  19.896  15.171   3.716
28454W        W96848  29.225  17.160   3.216
28455W        W96849  14.385   6.004   2.704
28456W        W96850  44.069   7.209  10.669
28457W        W96851  23.607  42.409  11.755
28458W        W96852  37.303   3.890   3.233
28459W        W96853  18.745  13.250   2.715
28460W        W96854  28.693  25.248  12.493
28461W        W96855  42.122   3.883   3.707
28462W        W96856  24.499  24.198   3.171
28463W        W96857   2.894   4.754  11.010
28464W        W96858  34.750   4.904   1.470
28465W        W96859   3.201  10.897  13.967
28466W        W96860  38.566   6.361  13.265
28467W        W96861   4.765  37.775   3.041
28468W        W96862  11.292  14.090  12.456
28469W        W96863   9.849  26.780  11.007
28470W        W96864  33.529  39.100  12.348
28471W        W96865  15.184  44.414  14.305
28472W        W96866  21.078  38.856   0.947
28473W        W96867  43.373  28.060  11.658
28474W        W96868  42.807  36.616  13.387
28475W        W96869  21.564  42.255   0.389
28476W        W96870  13.339  24.935  13.938
28477W        W96871  33.435  41.065   0.257
28478W        W96872  33.112  22.241   4.296
28479W        W96873  19.566  40.544   0.887
28480W        W96874  39.721  31.894  11.061
28481W        W96875   0.988  35.282   3.391
28482W        W96876  36.022  29.501  12.200
28483W        W96877  36.930  32.547   1.728
28484W        W96878  20.114  27.552   1.246
28485W        W96879  41.575  35.638  11.318
28486W        W96880   3.508   4.732  11.605
28487W        W96881  21.551   9.349   4.525
28488W        W96882   3.735  26.575   1.257
28489W        W96883   7.307  41.867   1.251
28490W        W96884  34.033  31.948   3.391
28491W        W96885  21.194  41.332  12.810
28492W        W96886   4.931  34.700  13.046
28493W        W96887  22.532  15.997  14.871
28494W        W96888  28.189   6.864   0.692
28495W        W96889  16.785  42.518   4.368
28496W        W96890   7.739  19.808   2.303
28497W        W96891  27.387  30.677  12.455
28498W        W96892  38.949  44.998   2.226
28499W        W96893   2.804  37.616   5.004
28500W        W96894  27.968  27.591  11.651
28501W        W96895  34.463  21.648   3.603
28502W        W96896  19.543  44.245  13.471
28503W        W96897  36.936  17.734   1.648
28504W        W96898   6.319  11.084  11.129
28505W        W96899   5.884   7.704  13.024
28506W        W96900  18.199   7.562  10.412
28507W        W96901  17.702  15.598   2.191
28508W        W96902  34.369   4.952   4.605
28509W        W96903   3.692  10.128   3.863
28510W        W96904   7.865  16.034   2.763
28511W        W96905  38.700  33.257   5.132
28512W        W96906   3.158   5.226  10.802
28513W        W96907  40.494  10.955   3.198
28514W        W96908  26.862  34.845  11.109
28515W        W96909  29.388  15.919  14.744
28516W        W96910  32.446   0.659   3.831
28517W        W96911  16.936  34.272  11.540
28518W        W96912  41.885  24.581  14.920
28519W        W96913  37.568  35.856   3.394
28520W        W96914   1.800   0.089  14.088
28521W        W96915  20.305  24.994  14.955
28522W        W96916   9.734  16.223  10.930
28523W        W96917  18.152   0.231  14.734
28524W        W96918   7.353  32.827  11.490
28525W        W96919   0.257  39.909  13.855
28526W        W96920  16.535   0.943  11.739
28527W        W96921  27.065  23.386   2.842
28528W        W96922   2.838  17.988   0.278
28529W        W96923  27.945  12.271  11.603
28530W        W96924  18.422   4.239   1.346
28531W        W96925  42.076   9.389   2.898
28532W        W96926  22.972  19.073  14.948
28533W        W96927  19.965  29.688  11.194
28534W        W96928  26.349  33.837  14.332
28535W        W96929  38.652  10.628   3.676
28536W        W96930  13.639  13.625  13.513
28537W        W96931  37.452  29.511   4.417
28538W        W96932  27.513  39.594   1.747
28539W        W96933  43.963  22.858   4.342
28540W        W96934  41.260   0.219  11.616
28541W        W96935   3.976  39.478   1.964
28542W        W96936  11.868   5.249   2.152
28543W        W96937  13.750  15.137   4.612
28544W        W96938  19.690  40.593  11.401
28545W        W96939  34.855  16.131   2.569
28546W        W96940  32.074  41.877  12.502
28547W        W96941  10.499  30.429  10.312
28548W        W96942  19.288   4.825  10.670
28549W        W96943  17.325   8.099  12.973
28550W        W96944   9.769  26.175   4.180
28551W        W96945  27.147   1.932  13.561
28552W        W96946  28.920  27.469  11.188
28553W        W96947  20.542  11.003   1.505
28554W        W96948   2.704  27.464   1.805
28555W        W96949  27.660  28.747   4.505
28556W        W96950  31.039  26.281  13.380
28557W        W96951  17.328   2.544   3.134
28558W        W96952   7.354  21.793   3.683
28559W        W96953  26.826  24.734  12.408
28560W        W96954   6.272  10.777   0.929
28561W        W96955  27.241   7.863   0.661
28562W        W96956  17.447  12.835  10.668
28563W        W96957   6.905  39.750  14.865
28564W        W96958  30.518   2.896   0.982
28565W        W96959  28.472  28.007  10.697
28566W        W96960  30.222  23.594   2.255
28567W        W96961  40.133  31.356  12.947
28568W        W96962  26.269  20.396   0.315
28569W        W96963  19.966   0.333   3.274
28570W        W96964   2.238  44.005  11.189
28571W        W96965  25.262  42.592   1.982
28572W        W96966   6.186  12.174   3.756
28573W        W96967  44.993   8.696   1.640
28574W        W96968  10.641  21.906   3.261
28575W        W96969  14.231  26.494   0.660
28576W        W96970  36.298  30.149   2.351
28577W        W96971  37.461  31.314  12.364
28578W        W96972  23.071  37.912  12.379
28579W        W96973  17.677  25.946  14.868
28580W        W96974  20.044  23.914   2.308
28581W        W96975  20.947  26.059   1.698
28582W        W96976  42.346  21.238  12.952
28583W        W96977  14.098   1.930   3.702
28584W        W96978   1.787  41.957  14.433
28585W        W96979  41.367  15.673   3.636
28586W        W96980  11.740   3.531   3.291
28587W        W96981  44.897  13.712  13.165
28588W        W96982  36.656  34.632   1.280
28589W        W96983  41.229  28.936   1.252
28590W        W96984  37.855  20.478  11.183
28591W        W96985   7.726  43.478  13.487
28592W        W96986   9.210  17.610   4.430
28593W        W96987  10.255  18.695   0.879
28594W        W96988  16.647  36.806   3.624
28595W        W96989  18.768  24.769   1.249
28596W        W96990  33.068   3.258   2.924
28597W        W96991  31.562  41.614   4.393
28598W        W96992  36.382  10.123   2.723
28599W        W96993  41.832  31.551   1.187
28600W        W96994  41.817   3.939  12.640
28601W        W96995  16.283  26.000  13.038
28602W        W96996  15.731  27.081   3.706
28603W        W96997  22.166  28.805  12.428
28604W        W96998  37.579   4.961   4.317
28605W        W96999  36.576  21.785   2.098
28606W        W97000  17.963  32.768  10.632
28607W        W97001  17.687  10.415  12.327
28608W        W97002  17.180  40.039  12.941
28609W        W97003  15.611   7.269  12.888
28610W        W97004  16.625  39.505   3.227
28611W        W97005  40.800  28.175   0.996
28612W        W97006  26.706  27.492   2.737
28613W        W97007   8.381   8.788   0.077
28614W        W97008   6.924  23.585  14.501
28615W        W97009  11.149  12.804  13.657
28616W        W97010  28.274  15.074   0.917
28617W        W97011   1.487  27.196   4.012
28618W        W97012  41.908  29.998   1.114
28619W        W97013  11.101  29.886  10.995
28620W        W97014  39.984  15.947   1.962
28621W        W97015  11.202  26.222   2.403
28622W        W97016   7.441  33.046  11.031
28623W        W97017   4.970  17.598  11.554
28624W        W97018  22.273  32.891  13.518
28625W        W97019  22.051  41.193  14.951
28626W        W97020  25.156  40.313   2.324
28627W        W97021  22.091  36.028  11.157
28628W        W97022  26.423   8.962  12.436
28629W        W97023  16.885  36.966   0.414
28630W        W97024  15.555  29.182   1.883
28631W        W97025   8.419  42.996  12.601
28632W        W97026  19.739  38.423   2.289
28633W        W97027  34.511   2.036  13.327
28634W        W97028  21.014  16.851  13.330
28635W        W97029  20.404  10.925   4.189
28636W        W97030   9.244  21.801   3.826
28637W        W97031  14.150  40.014   3.697
28638W        W97032   4.870  18.027   1.898
28639W        W97033  15.027  41.761  12.444
28640W        W97034  41.701   5.753   1.336
28641W        W97035  37.066  40.073  11.502
28642W        W97036  15.284   0.698   4.328
28643W        W97037  23.980   1.770  10.907
28644W        W97038  23.469   3.525  12.340
28645W        W97039  29.349  18.057   1.407
28646W        W97040  32.448  32.039   4.547
28647W        W97041  23.211  43.502   0.831
28648W        W97042   0.151  15.072  14.343
28649W        W97043  39.769  43.780  14.995
28650W        W97044  17.523  27.435  14.794
28651W        W97045   3.745   4.988   3.008
28652W        W97046   9.423  34.137  13.446
28653W        W97047  21.019   7.698   4.193
28654W        W97048  44.476  20.735   4.943
28655W        W97049  23.096  21.016   1.322
28656W        W97050   2.264  40.518   1.017
28657W        W97051  37.866  11.118   1.693
28658W        W97052  28.064  12.379  14.333
28659W        W97053  27.295  11.317   3.781
28660W        W97054   4.723  37.983   4.587
28661W        W97055  19.766  32.710   2.174
28662W        W97056  17.009  18.620  11.963
28663W        W97057  42.266  44.263  14.341
28664W        W97058  12.879  41.325  11.155
28665W        W97059   9.864  34.581   2.115
28666W        W97060  35.725  43.557  12.426
28667W        W97061   5.278  22.286   3.595
28668W        W97062   8.768  35.598  11.855
28669W        W97063  26.557   4.898   3.823
28670W        W97064  31.010   8.995   4.932
28671W        W97065  42.214  28.068  11.157
28672W        W97066   0.505  17.464   2.930
28673W        W97067  29.409  37.077  11.192
28674W        W97068  33.823  25.699  11.531
28675W        W97069  34.360  14.712   4.205
28676W        W97070   9.001   7.218   2.520
28677W        W97071  39.052  33.645  10.452
28678W        W97072  14.212   0.056  11.072
28679W        W97073  13.156  13.314  13.040
28680W        W97074  34.940  41.507   4.033
28681W        W97075  20.227   8.736   1.412
28682W        W97076  34.141   6.328   0.237
28683W        W97077  33.896  25.206  11.453
28684W        W97078  13.246  44.393   0.156
28685W        W97079  27.949  22.171   3.278
28686W        W97080  11.723   0.313  12.228
28687W        W97081  31.955  13.691  12.506
28688W        W97082  35.106  20.893   1.080
28689W        W97083  36.910  43.799  13.975
28690W        W97084  11.880   7.233  12.908
28691W        W97085  30.835  10.764  10.516
28692W        W97086  34.908   5.395   4.151
28693W        W97087  10.723  41.964  12.246
28694W        W97088  38.570  37.991   1.758
28695W        W97089  28.632  19.173   4.285
28696W        W97090  16.177  20.709   1.972
28697W        W97091  28.957   3.769  13.462
28698W        W97092  21.095   7.305  12.913
28699W        W97093  20.289  40.814   0.773
28700W        W97094   6.695  36.830   0.825
28701W        W97095  42.964  37.575  11.224
28702W        W97096  43.409   0.362  14.954
28703W        W97097   1.068  26.751   4.455
28704W        W97098  14.265  12.161  13.594
28705W        W97099  15.862  29.573  13.528
28706W        W97100  20.556  14.799   1.804
28707W        W97101  44.930  31.127  13.086
28708W        W97102  13.283  15.607   3.683
28709W        W97103  27.942  14.601   3.900
28710W        W97104  21.693   3.324   4.782
28711W        W97105  42.635  29.859  12.581
28712W        W97106  36.450  38.294  14.810
28713W        W97107   5.985   4.213  12.169
28714W        W97108   3.483  27.491  10.747
28715W        W97109  42.993  11.501  13.375
28716W        W97110   2.713  25.136  12.435
28717W        W97111  31.474  17.557   3.430
28718W        W97112   3.039  42.473  10.803
28719W        W97113   0.407   1.871   3.970
28720W        W97114   7.325   6.025  13.322
28721W        W97115  31.909  12.437  10.802
28722W        W97116  24.634  43.471   0.335
28723W        W97117  43.270  22.143   3.239
28724W        W97118   8.731   2.482  11.973
28725W        W97119   5.858  16.110  12.938
28726W        W97120  43.930  42.375  10.648
28727W        W97121   7.325  20.350  12.140
28728W        W97122  12.179  16.070  13.597
28729W        W97123  42.344  19.246  14.116
28730W        W97124  21.490  28.375  12.693
28731W        W97125  18.486  11.740  14.886
28732W        W97126  44.065  12.267  11.030
28733W        W97127  13.569   7.316  12.145
28734W        W97128  29.492   1.218   4.156
28735W        W97129  22.006  20.690  14.456
28736W        W97130  29.308  21.594  13.121
28737W        W97131  23.013  28.086   2.877
28738W        W97132  15.776  26.695   4.076
28739W        W97133  35.969  33.522  10.989
28740W        W97134  28.259  17.593   4.107
28741W        W97135  32.961  10.915   1.888
28742W        W97136  10.272  12.291   3.623
28743W        W97137  36.510  26.190   1.107
28744W        W97138  44.921  22.353   3.895
28745W        W97139  32.985  17.648  11.886
28746W        W97140  19.674  23.797   1.757
28747W        W97141  36.565  14.877   1.325
28748W        W97142  17.071  35.902   0.106
28749W        W97143   7.383  10.141   1.092
28750W        W97144  21.476  33.856  14.261
28751W        W97145  15.071  39.894  14.284
28752W        W97146  26.442  37.354   1.789
28753W        W97147  38.854  13.706  12.503
28754W        W97148  23.046  42.522   1.027
28755W        W97149  11.656   2.642   2.774
28756W        W97150   2.773  30.171  14.016
28757W        W97151  30.399  12.271  12.034
28758W        W97152   6.805   4.091  11.776
28759W        W97153  29.195  24.282   1.299
28760W        W97154  37.980  42.497  12.653
28761W        W97155  35.358  30.709  13.096
28762W        W97156  31.647   9.690   1.849
28763W        W97157  28.174   3.334   1.434
28764W        W97158   3.308  10.727   0.289
28765W        W97159  21.715  27.273  13.450
28766W        W97160  34.156  20.193  13.885
28767W        W97161  32.138  23.143  14.483
28768W        W97162  27.756  18.188   3.350
28769W        W97163  13.330  34.332   3.340
28770W        W97164   0.913   6.241   5.137
28771W        W97165  40.681  24.567  11.219
28772W        W97166  42.634  25.418   3.200
28773W        W97167  34.429  13.353  10.983
28774W        W97168   9.347   7.008  11.652
28775W        W97169  18.145  28.678  11.123
28776W        W97170  30.950  16.956  13.378
28777W        W97171  41.441   2.425  14.044
28778W        W97172  34.870  10.958  10.916
28779W        W97173   9.200  22.932   1.887
28780W        W97174   7.394  22.966  14.784
28781W        W97175   1.863  31.597  14.343
28782W        W97176  40.302  19.254   3.789
28783W        W97177  15.742   3.203   0.022
28784W        W97178  43.728  31.479   2.308
28785W        W97179  14.550  35.996   3.105
28786W        W97180  33.142  44.949   2.774
28787W        W97181  15.568   5.158  12.062
28788W        W97182  14.730  30.910   0.344
28789W        W97183   1.960  31.450  10.455
28790W        W97184  15.600  28.913   2.356
28791W        W97185   3.986  27.000   2.337
28792W        W97186   6.140  14.130   3.538
28793W        W97187   0.034   0.667   3.874
28794W        W97188   0.092  12.338  11.978
28795W        W97189  41.827  43.403  13.431
28796W        W97190  35.510  14.756   2.885
28797W        W97191  15.877   2.478  13.856
28798W        W97192  38.900   0.875   4.630
28799W        W97193   2.790  39.247   2.118
28800W        W97194   5.785   2.791   1.340
28801W        W97195  35.431   8.628   5.191
28802W        W97196  29.505  43.890  14.905
28803W        W97197   4.241  12.083  13.346
28804W        W97198  19.054  11.685   4.114
28805W        W97199  31.048  33.178   2.891
28806W        W97200   3.818   1.631  12.996
28807W        W97201  41.392  21.250  12.850
28808W        W97202  20.528  36.122   0.501
28809W        W97203   1.576  14.219   2.684
28810W        W97204   5.212  21.816  13.886
28811W        W97205  41.986  10.229   0.514
28812W        W97206  35.852   8.079   2.216
28813W        W97207  29.636  33.059  12.485
28814W        W97208  22.054  23.659   2.415
28815W        W97209  34.935  10.318  14.559
28816W        W97210  32.993  39.384  11.173
28817W        W97211   4.103   4.403   1.703
28818W        W97212  33.791   7.090   2.814
28819W        W97213  11.482  35.640   1.417
28820W        W97214  32.073  26.992  11.947
28821W        W97215   1.390  14.657  12.305
28822W        W97216  25.704   0.814  11.352
28823W        W97217   5.752  40.484   0.287
28824W        W97218  11.269   0.446  11.966
28825W        W97219  21.126  24.092   0.835
28826W        W97220  41.327   9.352  14.283
28827W        W97221  29.975  40.363   3.322
28828W        W97222  28.479  16.266   4.360
28829W        W97223  17.813  17.638   0.553
28830W        W97224   3.024   0.082  11.557
28831W        W97225  10.341   8.312   1.894
28832W        W97226  25.721  39.967  14.839
28833W        W97227  19.900  44.308   3.955
28834W        W97228  25.539  31.612   1.314
28835W        W97229   5.806  29.855   4.477
28836W        W97230   1.478  42.075  11.498
28837W        W97231  33.249  18.017  12.138
28838W        W97232  36.254  33.098  10.771
28839W        W97233  44.448  12.721  11.789
28840W        W97234  23.966  43.325  12.840
28841W        W97235   9.604  41.985  12.084
28842W        W97236  42.285  13.044   2.312
28843W        W97237   0.783  22.426   3.330
28844W        W97238  22.980  21.948   0.866
28845W        W97239   7.573  23.281   5.115
28846W        W97240  14.571   1.267  11.604
28847W        W97241  13.303  22.215   4.138
28848W        W97242   3.235   8.832  12.902
28849W        W97243   7.210  13.204   2.100
28850W        W97244  41.908  33.563   4.819
28851W        W97245  33.953  23.457   1.253
28852W        W97246  19.332  23.799   0.805
28853W        W97247  28.596  25.552   1.904
28854W        W97248  23.127   5.017  10.534
28855W        W97249  12.363  41.314   4.376
28856W        W97250  12.430  29.770   3.677
28857W        W97251  41.699  22.816   2.185
28858W        W97252  42.460  31.114  10.630
28859W        W97253   8.356  29.607  10.454
28860W        W97254  44.063  34.906   1.485
28861W        W97255  18.456   0.242   4.561
28862W        W97256  28.914  22.258   2.181
28863W        W97257  40.523  17.016  13.791
28864W        W97258   8.791  23.482   0.427
28865W        W97259  20.486  41.333   2.905
28866W        W97260   9.859  15.743   1.742
28867W        W97261  10.642  16.561   1.737
28868W        W97262  37.321  32.415  11.419
28869W        W97263  29.631  24.912  10.686
28870W        W97264  37.287  36.947   1.329
28871W        W97265  13.337  13.251   2.016
28872W        W97266  27.253  11.510  12.352
28873W        W97267  33.424  34.096   1.849
28874W        W97268  44.257   6.337   3.774
28875W        W97269  23.227   1.569   4.223
28876W        W97270   1.521   5.872   2.781
28877W        W97271  25.606  32.456   4.425
28878W        W97272  28.245  39.422   4.819
28879W        W97273  31.561  20.489   1.935
28880W        W97274  31.487  12.036  12.826
28881W        W97275  16.272  40.502  13.589
28882W        W97276   4.682  43.384   1.691
28883W        W97277  33.629  23.658  11.024
28884W        W97278  10.812   4.949   2.138
28885W        W97279   1.837  17.216   0.530
28886W        W97280  36.821  13.698  10.564
28887W        W97281  11.743   9.883  12.448
28888W        W97282  11.695   4.747   1.916
28889W        W97283  41.011  16.646  12.555
28890W        W97284  12.091  30.414  14.578
28891W        W97285  41.455   5.696  11.341
28892W        W97286   9.702   5.983  11.145
28893W        W97287  22.671  41.057  11.183
28894W        W97288  44.735  28.037   0.272
28895W        W97289  23.436  16.810  11.523
28896W        W97290  19.108  33.147   4.668
28897W        W97291  22.613  38.529  10.802
28898W        W97292  26.238  11.302   3.689
28899W        W97293   0.745  34.023   2.380
28900W        W97294  26.342  22.933   2.368
28901W        W97295  16.301  21.486   4.732
28902W        W97296  21.186  16.005  10.511
28903W        W97297  44.537  33.802   9.839
28904W        W97298  24.466  20.461  11.420
28905W        W97299   3.401  13.963   2.773
28906W        W97300  44.625   6.349  12.725
28907W        W97301  21.749  31.406  10.825
28908W        W97302  28.771  36.666  10.669
28909W        W97303   8.707  44.901  13.256
28910W        W97304  20.053  12.640  14.992
28911W        W97305   7.698  44.310  14.532
28912W        W97306  37.686  41.800  12.374
28913W        W97307  29.538  18.801   0.386
28914W        W97308   7.681  42.547  12.948
28915W        W97309  13.043   1.390   2.661
28916W        W97310  11.606  26.128  13.429
28917W        W97311  20.027  14.351   0.293
28918W        W97312  33.994   6.708   2.353
28919W        W97313  34.401  22.917  12.559
28920W        W97314  39.371  44.889   4.471
28921W        W97315   9.357  25.712   0.386
28922W        W97316   1.837   6.825   0.700
28923W        W97317  28.136  22.409  13.488
28924W        W97318   7.673  27.576  10.316
28925W        W97319  21.467   7.314   1.923
28926W        W97320   7.079  28.139  13.437
28927W        W97321  34.022  33.417   0.319
28928W        W97322   9.883  23.008  10.144
28929W        W97323  39.317  26.137  11.136
28930W        W97324  41.968   6.155   0.432
28931W        W97325  44.826   0.054   1.811
28932W        W97326  16.405  39.128  12.058
28933W        W97327  38.177  20.137  11.932
28934W        W97328  28.145   0.473   4.648
28935W        W97329  22.733  35.500   1.836
28936W        W97330  11.859   9.787   1.486
28937W        W97331  43.229  32.860   3.698
28938W        W97332  24.049  39.897  10.915
28939W        W97333  17.788   0.226  10.646
28940W        W97334  36.874   9.320  10.796
28941W        W97335  16.272   8.770   1.747
28942W        W97336  36.511  42.381   4.571
28943W        W97337  16.201  18.453  10.700
28944W        W97338  27.320  13.014  11.574
28945W        W97339  32.511   4.874   3.255
28946W        W97340   4.598  27.238   3.622
28947W        W97341  22.067   0.011  13.298
28948W        W97342  25.520  40.799   4.643
28949W        W97343  25.423   6.777   4.788
28950W        W97344  12.934  25.953   0.677
28951W        W97345  34.116  42.662  14.417
28952W        W97346   2.761  40.549   1.801
28953W        W97347   2.188  23.558   0.414
28954W        W97348  41.394  16.243  12.506
28955W        W97349  42.264  24.981  10.734
28956W        W97350  18.242  37.473   0.513
28957W        W97351  31.628   9.276  13.957
28958W        W97352  39.017  28.400   2.773
28959W        W97353   1.491   5.895   0.481
28960W        W97354  29.499   6.241  13.052
28961W        W97355  12.726  14.916   4.555
28962W        W97356  12.635  13.832  10.735
28963W        W97357  28.794   2.360  13.610
28964W        W97358  33.956  41.500  12.484
28965W        W97359  24.160  38.761   0.949
28966W        W97360  27.170  25.544   4.421
28967W        W97361   1.783  28.700   4.285
28968W        W97362  35.981  21.901  11.131
28969W        W97363  29.018  11.603   2.241
28970W        W97364  19.521  31.705   0.288
28971W        W97365  39.458  13.557   3.346
28972W        W97366   2.059  41.803   4.480
28973W        W97367  41.860   6.850   4.758
28974W        W97368   7.959  39.042  12.034
28975W        W97369   0.397  29.926  13.841
28976W        W97370   6.361  37.828   4.315
28977W        W97371   7.653  22.153   0.806
28978W        W97372  37.309  25.144  14.822
28979W        W97373  37.896   2.369   4.739
28980W        W97374  18.632  16.832   0.842
28981W        W97375  34.109  39.020   4.632
28982W        W97376  40.461   5.180   4.120
28983W        W97377  16.037   3.130   2.489
28984W        W97378  14.743  24.601   4.690
28985W        W97379  38.902   3.523   3.354
28986W        W97380  16.670  39.872  12.545
28987W        W97381  35.416  38.656  12.903
28988W        W97382  43.617  21.244  13.356
28989W        W97383  29.779  31.350  11.630
28990W        W97384  22.757  30.567   3.196
28991W        W97385   7.852   3.057  14.369
28992W        W97386  41.473  30.204   1.281
28993W        W97387  43.633  35.496   4.995
28994W        W97388  35.158  41.889  12.414
28995W        W97389  25.261  40.560   2.817
28996W        W97390  40.571   4.058   0.602
28997W        W97391  17.224  35.307  11.652
28998W        W97392   2.984   3.795   3.063
28999W        W97393  25.371  42.003  10.827
29000W        W97394  15.100  40.619  12.964
29001W        W97395  30.825  44.975   2.664
29002W        W97396   4.897  44.365   2.199
29003W        W97397  40.514  37.919   3.641
29004W        W97398  34.648   7.999   3.630
29005W        W97399  17.945  33.052  12.363
29006W        W97400  21.570  12.521   4.757
29007W        W97401  27.949  38.050  12.388
29008W        W97402  11.434  41.260  10.353
29009W        W97403  37.002  26.996   1.439
29010W        W97404  41.765   4.882   4.598
29011W        W97405  11.573  24.300   3.078
29012W        W97406  40.743  28.425   2.257
29013W        W97407   2.965  25.201   0.874
29014W        W97408   7.525  38.525  12.822
29015W        W97409   8.477  28.607   0.872
29016W        W97410  43.526  14.320   2.704
29017W        W97411  19.035   3.533  13.403
29018W        W97412  28.954  30.971  11.600
29019W        W97413  22.827  12.698   1.818
29020W        W97414   4.349  24.236   9.946
29021W        W97415   0.559  38.976  12.058
29022W        W97416  38.779  41.910   0.787
29023W        W97417   0.973  31.575   2.182
29024W        W97418  13.078   9.435   4.637
29025W        W97419  35.997   0.756  12.938
29026W        W97420  25.997  36.337   2.364
29027W        W97421   2.052  22.029   4.502
29028W        W97422  12.139  31.047  10.713
29029W        W97423  34.120  35.445  13.189
29030W        W97424  12.677   4.299  13.929
29031W        W97425  38.972  22.110  11.312
29032W        W97426  35.367  39.473   4.356
29033W        W97427   6.257  19.333   4.078
29034W        W97428  31.624   2.286   2.748
29035W        W97429   9.165   8.610   0.775
29036W        W97430  15.363  44.744   2.896
29037W        W97431   4.184   3.680  14.926
29038W        W97432  12.810  13.833  13.883
29039W        W97433  36.518  24.692  14.829
29040W        W97434  18.236  10.118  14.173
29041W        W97435  42.361  33.426   3.614
29042W        W97436  19.274  39.875  11.982
29043W        W97437  24.653   0.168  11.051
29044W        W97438  32.055   9.630   2.170
29045W        W97439   2.642   7.717  13.399
29046W        W97440  26.507  17.292   4.622
29047W        W97441  15.179  40.869   2.845
29048W        W97442  26.144   2.107   1.185
29049W        W97443  13.321  29.022   1.197
29050W        W97444  40.365  32.092   1.349
29051W        W97445   2.360  44.869   2.784
29052W        W97446  21.503   3.615   3.432
29053W        W97447  13.383  19.048  13.403
29054W        W97448  29.166   6.337   4.542
29055W        W97449  44.581   2.858   2.843
29056W        W97450  10.563  18.205   0.708
29057W        W97451  24.162  15.799  11.103
29058W        W97452  28.447   1.107  11.421
29059W        W97453  14.600  16.546  14.531
29060W        W97454  43.311  17.290  13.831
29061W        W97455  13.502  21.157   9.882
29062W        W97456  16.056  38.966  11.192
29063W        W97457  13.397  30.466  10.687
29064W        W97458  32.712  10.353   1.244
29065W        W97459  35.965   8.770   4.788
29066W        W97460  26.942  35.328   2.217
29067W        W97461  42.944  16.526   3.697
29068W        W97462  16.357  33.003   2.758
29069W        W97463  32.655  27.718  13.281
29070W        W97464  28.154  16.773   4.362
29071W        W97465   0.302  38.951  10.158
29072W        W97466  28.388  38.284  14.787
29073W        W97467  27.294  28.334  12.064
29074W        W97468   3.306  13.881   0.607
29075W        W97469  31.111  22.593  10.671
29076W        W97470  16.778  21.579   1.826
29077W        W97471  43.759   6.678  12.983
29078W        W97472   3.004  37.092  14.392
29079W        W97473  23.477   0.831  12.388
29080W        W97474  44.888   8.381  10.282
29081W        W97475  42.840  14.292   3.737
29082W        W97476   8.290  44.030  13.971
29083W        W97477   8.402  34.969  10.345
29084W        W97478  12.919  44.255  12.061
29085W        W97479  11.209  24.675  13.458
29086W        W97480  12.149  22.702   3.094
29087W        W97481   1.415  39.309   1.185
29088W        W97482  38.571  40.470   3.431
29089W        W97483  40.549  41.411   2.315
29090W        W97484  28.405  30.705  11.133
29091W        W97485  30.059  29.405  14.502
29092W        W97486  44.532  41.292  12.417
29093W        W97487  15.255  39.088   0.231
29094W        W97488  28.928   5.020  10.932
29095W        W97489  12.671   2.183   4.362
29096W        W97490  31.400  24.014   0.300
29097W        W97491   8.294  28.511  13.988
29098W        W97492  23.911   4.099   1.865
29099W        W97493  32.681  19.947   2.802
29100W        W97494  33.844   9.493  11.213
29101W        W97495  34.012  44.102   1.166
29102W        W97496   3.006  35.930  12.516
29103W        W97497   5.410  44.814  11.768
29104W        W97498  32.863  35.926  11.959
29105W        W97499  13.071   5.393   2.951
29106W        W97500   9.938  42.970   3.109
29107W        W97501  17.399  15.734  11.062
29108W        W97502   8.923   7.145   0.276
29109W        W97503  22.547   7.520   2.751
29110W        W97504  33.467   0.934   3.284
29111W        W97505  26.459  14.598  14.545
29112W        W97506   8.425  35.925  13.604
29113W        W97507  40.489  12.673   3.227
29114W        W97508  44.743   9.819   3.148
29115W        W97509  32.452  27.196  13.177
29116W        W97510  22.084  37.844   1.316
29117W        W97511  19.897   2.346  10.712
29118W        W97512  35.594  39.872   3.459
29119W        W97513  41.426  43.530  13.126
29120W        W97514  16.208  16.534   3.827
29121W        W97515   3.445  35.626  12.539
29122W        W97516   9.607  35.122   0.261
29123W        W97517  39.522   0.080  11.034
29124W        W97518  25.458   0.125  10.254
29125W        W97519  26.402  41.826  14.925
29126W        W97520  30.600  33.017   3.102
29127W        W97521  37.577   8.889  11.232
29128W        W97522   2.700   6.641   0.952
29129W        W97523  34.153   6.352  14.725
29130W        W97524   2.730   6.208   0.062
29131W        W97525   7.294   9.400  13.885
29132W        W97526  27.909  20.253   2.879
29133W        W97527  21.762  15.070   0.399
29134W        W97528   8.238  38.415   0.770
29135W        W97529  34.292   7.182   2.854
29136W        W97530  31.982  23.289   2.812
29137W        W97531  34.617  43.872  14.871
29138W        W97532  32.030  29.319  14.273
29139W        W97533  19.093  39.868   4.232
29140W        W97534  11.742  23.272   4.155
29141W        W97535  37.248   0.467   1.245
29142W        W97536  12.815  29.767   1.739
29143W        W97537  31.282  28.013   1.638
29144W        W97538  13.623   2.751  14.446
29145W        W97539  17.288  13.238   3.702
29146W        W97540  22.400   1.771  13.530
29147W        W97541  16.519  40.911  14.396
29148W        W97542  30.105  43.541   1.940
29149W        W97543  22.666  20.965  13.306
29150W        W97544   0.489   8.726   3.394
29151W        W97545  33.073  35.384  14.076
29152W        W97546  35.401  32.878   4.660
29153W        W97547  16.672  19.840   2.274
29154W        W97548  35.111   5.370   0.304
29155W        W97549   1.131  21.031  10.354
29156W        W97550  38.461   2.294   1.263
29157W        W97551  32.327  32.065  10.581
29158W        W97552  27.951  16.296  13.923
29159W        W97553  43.859   1.406   4.080
29160W        W97554  15.789  15.203  13.552
29161W        W97555  16.949  27.540  10.360
29162W        W97556  32.906  33.895   3.692
29163W        W97557  43.704  10.342  12.062
29164W        W97558  19.134   3.114   4.579
29165W        W97559  27.862  33.328  12.475
29166W        W97560  14.250  15.090  12.980
29167W        W97561   8.279  41.984   3.099
29168W        W97562  35.672  16.230  12.430
29169W        W97563  39.376  13.656  12.369
29170W        W97564  26.088  34.482  10.493
29171W        W97565   8.821  41.035   1.752
29172W        W97566  10.719  27.550  14.024
29173W        W97567  32.549  37.093  13.253
29174W        W97568   0.325  34.904   2.169
29175W        W97569   0.512   8.850  12.637
29176W        W97570  16.836   6.976   0.470
29177W        W97571  35.090   3.567  10.363
29178W        W97572  38.477   3.748  14.312
29179W        W97573  35.580  18.376  10.604
29180W        W97574  35.066  42.638  11.856
29181W        W97575  31.467  42.170  11.751
29182W        W97576  19.748  37.035  11.061
29183W        W97577  31.395  36.801  11.160
29184W        W97578  35.552   2.258   0.027
29185W        W97579  14.226  31.874   4.994
29186W        W97580  19.575  13.830   1.761
29187W        W97581  31.437  33.995  13.939
29188W        W97582  18.131  34.617   3.716
29189W        W97583  34.995  28.805   1.582
29190W        W97584  31.183  21.128  14.351
29191W        W97585   1.314  37.138  14.848
29192W        W97586  44.491  12.790  13.043
29193W        W97587  20.832  21.276   0.838
29194W        W97588  44.371   6.968   4.204
29195W        W97589   4.856  17.265  13.062
29196W        W97590  33.626   4.781  12.534
29197W        W97591  25.043  43.392   3.168
29198W        W97592  18.704  35.916  12.989
29199W        W97593  19.588  29.656  12.573
29200W        W97594  40.537  25.659   4.649
29201W        W97595  14.380  16.580  11.872
29202W        W97596  16.771  37.601  14.257
29203W        W97597  10.233   5.743  12.435
29204W        W97598  21.726  23.255  11.015
29205W        W97599  25.689  38.217   1.958
29206W        W97600  36.384   1.995   1.926
29207W        W97601  31.624   9.163   0.981
29208W        W97602  42.649  32.179   2.743
29209W        W97603  44.840  12.733   0.116
29210W        W97604  36.296  16.387   2.834
29211W        W97605   5.850  14.285   1.438
29212W        W97606  27.612  25.941   2.496
29213W        W97607  41.497  42.772  10.927
29214W        W97608  39.128  35.469  12.166
29215W        W97609  22.741   6.222   2.284
29216W        W97610  39.878  41.422  11.128
29217W        W97611  34.936  10.846   3.230
29218W        W97612  20.071  13.524  11.173
29219W        W97613  22.840  39.416  11.443
29220W        W97614  12.615  32.544  14.569
29221W        W97615  30.064  21.252  13.439
29222W        W97616   6.726  31.852   2.310
29223W        W97617  31.604  18.089   2.852
29224W        W97618   5.193   4.332   9.832
29225W        W97619  11.647   9.271  13.873
29226W        W97620   9.934   0.491  14.457
29227W        W97621  36.880  32.572  14.244
29228W        W97622  19.842   1.490  13.958
29229W        W97623  13.237  13.170   1.310
29230W        W97624  22.610  25.078   4.999
29231W        W97625  15.406  18.254   9.715
29232W        W97626  29.304   1.779  14.963
29233W        W97627  38.848  35.045   3.594
29234W        W97628  25.435   0.449   1.454
29235W        W97629  38.411  10.319   1.600
29236W        W97630  41.413  14.846  14.316
29237W        W97631   7.388   7.791   3.967
29238W        W97632  32.656  23.759  13.738
29239W        W97633   4.371   4.868   1.789
29240W        W97634   7.165  25.668   2.888
29241W        W97635  18.515  25.630   2.339
29242W        W97636  44.719   5.726   1.685
29243W        W97637  21.296  31.084  14.974
29244W        W97638  24.246  44.371   2.414
29245W        W97639  35.616  33.186  12.762
29246W        W97640  22.516  14.839   3.117
29247W        W97641   5.622  31.853   5.129
29248W        W97642  29.847  17.868  11.017
29249W        W97643  14.675  16.565  14.018
29250W        W97644   9.295  19.841  12.816
29251W        W97645  38.743  13.416  14.486
29252W        W97646  33.851  27.541   2.290
29253W        W97647  25.568  30.726   0.349
29254W        W97648   2.434  24.228  11.546
29255W        W97649   8.218   3.144   4.623
29256W        W97650   8.330  26.432  12.538
29257W        W97651  41.531  28.444  11.903
29258W        W97652  19.528  25.042  10.764
29259W        W97653  27.435  15.155  13.929
29260W        W97654  18.138  23.138   4.119
29261W        W97655  27.193  27.208  10.812
29262W        W97656  31.417  18.551  14.743
29263W        W97657  27.175  18.741   2.731
29264W        W97658  11.738  20.355  14.997
29265W        W97659  18.626  32.989  11.749
29266W        W97660  29.404   7.120   1.872
29267W        W97661  36.410  37.270   1.091
29268W        W97662  43.856  33.468  14.889
29269W        W97663  13.227   7.159  14.739
29270W        W97664  18.324   9.564   0.478
29271W        W97665   2.231  25.427   0.364
29272W        W97666   1.211   3.002   2.454
29273W        W97667  44.490  43.573   4.586
29274W        W97668   7.605  16.347  11.191
29275W        W97669  41.438  27.962   4.559
29276W        W97670   4.273  13.738   3.042
29277W        W97671  40.421   3.445   1.745
29278W        W97672  21.008  14.538  10.626
29279W        W97673   9.440  32.900   4.136
29280W        W97674   6.722  43.868   4.631
29281W        W97675  37.790  43.437   1.125
29282W        W97676  24.646  11.907  10.916
29283W        W97677  35.610  36.151  13.003
29284W        W97678   9.899  26.989  11.483
29285W        W97679   3.666   2.265  11.984
29286W        W97680  38.072   1.988  14.287
29287W        W97681  23.038  28.045  10.129
29288W        W97682  22.151  23.548   0.008
29289W        W97683  43.916  24.230  11.583
29290W        W97684   8.224  21.842  13.837
29291W        W97685  11.845   5.951   4.876
29292W        W97686  21.432  28.843   4.989
29293W        W97687  26.126  14.506  10.714
29294W        W97688   8.390  43.732   3.563
29295W        W97689  33.917  30.624  14.218
29296W        W97690  36.819  35.950   4.073
29297W        W97691  32.465  10.933   4.360
29298W        W97692  17.630   3.526   3.258
29299W        W97693  25.273  43.848  14.507
29300W        W97694   5.173  29.212   1.395
29301W        W97695  28.310  18.876  11.143
29302W        W97696   8.469   7.526  13.047
29303W        W97697   4.249  31.022  10.838
29304W        W97698  24.044   4.895  14.710
29305W        W97699  25.502   8.243   0.019
29306W        W97700   7.114  15.854   2.732
29307W        W97701  21.200  28.397   2.185
29308W        W97702  29.908  39.863   3.155
29309W        W97703  43.839  23.091   1.636
29310W        W97704  25.130  25.102  14.998
29311W        W97705   7.116  20.230  12.676
29312W        W97706  31.325  17.750   0.831
29313W        W97707   3.494  41.176  13.280
29314W        W97708  26.912  13.729   3.334
29315W        W97709  41.259  16.287  11.967
29316W        W97710   4.513  11.731   5.018
29317W        W97711   1.717  25.987   1.730
29318W        W97712   6.936  30.134   1.580
29319W        W97713  28.649  38.363   3.157
29320W        W97714  43.818  26.572   4.170
29321W        W97715   6.261  15.932  13.233
29322W        W97716  21.959  40.466   0.330
29323W        W97717  20.486   4.099   0.482
29324W        W97718  17.650  10.281  14.188
29325W        W97719  13.637   0.473   4.542
29326W        W97720  11.918  23.072   3.720
29327W        W97721  18.999   6.671  12.834
29328W        W97722  39.624  32.830   0.224
29329W        W97723  43.453  29.270   0.849
29330W        W97724  43.760  39.816  13.979
29331W        W97725  42.721  42.497  11.273
29332W        W97726  31.819  31.135  13.175
29333W        W97727   1.691  21.531  13.439
29334W        W97728  29.972  10.946   2.420
29335W        W97729  17.534   5.883   0.830
29336W        W97730  20.686  21.794   2.941
29337W        W97731   2.436  20.354   1.412
29338W        W97732   1.761  17.554   3.053
29339W        W97733  23.594  34.860  11.799
29340W        W97734  23.950  25.367  10.708
29341W        W97735  22.647  34.814  10.706
29342W        W97736   8.981  23.593  11.123
29343W        W97737  32.090  23.006   0.483
29344W        W97738   5.282   3.510   4.033
29345W        W97739  15.057  23.779  11.660
29346W        W97740   7.252  11.357  13.859
29347W        W97741  39.179  37.980   0.823
29348W        W97742   6.006  42.752   0.906
29349W        W97743  18.592  16.844  12.536
29350W        W97744  30.216  30.137  12.617
29351W        W97745  33.956  42.890   2.751
29352W        W97746  25.160  18.561  13.938
29353W        W97747  26.869  28.997   0.652
29354W        W97748  20.500  11.256  12.079
29355W        W97749   8.367  22.627   4.086
29356W        W97750   9.220  19.331  13.024
29357W        W97751  17.026  34.587   1.341
29358W        W97752  29.634   3.234  12.435
29359W        W97753  41.936  26.431   0.865
29360W        W97754  32.130   9.899   0.971
29361W        W97755  44.515  23.743  11.950
29362W        W97756   8.918  12.532  13.366
29363W        W97757  34.462  30.709  13.059
29364W        W97758  12.948  25.623  11.163
29365W        W97759  21.269  13.985   3.296
29366W        W97760  24.261  33.525  14.296
29367W        W97761  12.987  27.052   4.177
29368W        W97762  37.496  22.208  11.168
29369W        W97763  38.327   6.899  13.096
29370W        W97764   0.977  29.601   2.716
29371W        W97765   3.807  41.040  14.982
29372W        W97766  29.797   4.449  11.147
29373W        W97767   1.487  25.182  11.114
29374W        W97768  26.811  22.539  11.128
29375W        W97769  28.910  17.021   4.126
29376W        W97770   8.927  32.177   2.797
29377W        W97771  17.184  19.095   0.795
29378W        W97772  40.775  15.334  12.971
29379W        W97773  12.341  24.643   2.692
29380W        W97774  32.153  20.558  12.049
29381W        W97775   3.391  18.495   5.013
29382W        W97776   8.829  22.594  10.954
29383W        W97777  10.702  38.478   0.795
29384W        W97778  17.663  36.018   9.755
29385W        W97779   7.703   5.876  13.665
29386W        W97780   2.502  37.045   3.631
29387W        W97781  21.236  34.682   5.036
29388W        W97782  32.476  21.347  11.565
29389W        W97783  11.057  35.287   1.462
29390W        W97784   5.735  26.265   0.926
29391W        W97785  35.642  33.466  13.306
29392W        W97786  42.342  19.111   1.707
29393W        W97787  32.048  12.533   1.222
29394W        W97788   3.223  19.343  11.646
29395W        W97789   3.703  12.729   1.134
29396W        W97790  13.013  37.106   3.574
29397W        W97791  19.746  11.934   0.425
29398W        W97792  23.659  26.952  11.722
29399W        W97793   2.537  12.544  14.873
29400W        W97794  44.244  38.129  11.586
29401W        W97795  33.463  19.655  14.769
29402W        W97796  27.206  14.876  11.698
29403W        W97797   6.727  38.316  14.820
29404W        W97798   9.796  26.628  14.710
29405W        W97799  33.722  10.854   0.799
29406W        W97800  32.500  42.288   0.391
29407W        W97801  30.045   8.734  11.144
29408W        W97802   8.885   9.983  14.510
29409W        W97803   3.588  36.113  12.617
29410W        W97804   8.160   5.486   1.799
29411W        W97805   3.475  20.807   3.641
29412W        W97806  41.941   3.501  10.766
29413W        W97807  36.670  44.103   3.230
29414W        W97808  31.332  28.915   4.686
29415W        W97809  38.344  34.320   4.613
29416W        W97810  13.698  43.964  13.156
29417W        W97811  44.657  17.227   1.868
29418W        W97812  14.087  16.600   2.138
29419W        W97813  26.615  42.847   1.888
29420W        W97814  10.795   6.751   0.872
29421W        W97815  30.779   2.706   2.659
29422W        W97816   7.294  29.369   2.855
29423W        W97817  18.523  29.537  13.929
29424W        W97818   0.203  28.401  14.931
29425W        W97819   2.941   4.293  14.702
29426W        W97820  42.959  23.706  12.474
29427W        W97821  39.460  32.148   3.308
29428W        W97822  16.059  10.701   2.837
29429W        W97823  16.035   6.238  14.422
29430W        W97824  31.567  27.453   0.120
29431W        W97825  18.809  21.183   1.042
29432W        W97826  23.437  27.312  11.034
29433W        W97827  18.534  44.154  12.579
29434W        W97828  40.432   8.935   5.247
29435W        W97829  34.591   9.722   2.307
29436W        W97830  41.758   6.278   1.320
29437W        W97831  44.478   3.255  12.946
29438W        W97832  21.254  25.060   1.255
29439W        W97833  37.423  16.083   2.196
29440W        W97834   0.390  43.290  12.576
29441W        W97835  31.665  41.810   2.228
29442W        W97836  44.009  44.437   2.384
29443W        W97837  42.677  29.403  14.677
29444W        W97838  37.438  28.639   4.381
29445W        W97839  10.284  24.830  11.656
29446W        W97840  23.066   8.814  10.597
29447W        W97841  24.530  33.008  10.662
29448W        W97842  41.524   4.228   4.129
29449W        W97843  22.252  41.904  14.358
29450W        W97844  36.016  29.599  10.827
29451W        W97845  39.503   1.438  14.260
29452W        W97846  35.054  29.631  12.068
29453W        W97847  39.795  37.959   2.918
29454W        W97848  21.519   4.749  14.250
29455W        W97849  36.176  26.480  14.864
29456W        W97850  34.342   1.209   1.257
29457W        W97851  23.949  30.486   0.536
29458W        W97852  24.564  33.958  10.703
29459W        W97853  39.038  28.633   0.056
29460W        W97854  16.384   7.266   0.489
29461W        W97855  27.208  44.443  11.144
29462W        W97856  28.619   6.355   4.537
29463W        W97857   9.419  25.111  12.317
29464W        W97858  43.824  15.769  12.369
29465W        W97859  14.253  23.585  10.557
29466W        W97860  35.107   7.595   1.883
29467W        W97861  41.840   7.135  11.070
29468W        W97862   5.829  19.206   0.361
29469W        W97863  40.374  20.212  13.277
29470W        W97864  29.675  43.448   3.308
29471W        W97865  22.053  31.249  11.233
29472W        W97866  33.833   7.332  13.337
29473W        W97867  14.539  36.357   2.755
29474W        W97868  23.500   4.400   3.924
29475W        W97869  35.815   3.430  11.387
29476W        W97870  24.943   6.680   2.667
29477W        W97871  30.855  27.914  13.396
29478W        W97872  37.133   6.793  12.473
29479W        W97873  28.971   9.538   3.057
29480W        W97874  20.996  42.319  14.253
29481W        W97875  29.116  36.382   3.088
29482W        W97876  11.470  37.535  11.998
29483W        W97877  28.475  27.565  10.940
29484W        W97878   0.065  36.185  12.068
29485W        W97879  29.773  35.422   4.636
29486W        W97880  22.765  12.337   2.613
29487W        W97881   3.585  17.171   4.126
29488W        W97882  44.475   6.322   0.046
29489W        W97883  20.468  41.939   2.294
29490W        W97884  12.303  37.568  11.752
29491W        W97885   3.220  21.730  10.435
29492W        W97886  11.145  41.938  11.980
29493W        W97887  35.554  24.371  12.447
29494W        W97888  29.676  31.989  13.989
29495W        W97889  15.145  19.424  14.727
29496W        W97890   5.739   5.446   0.885
29497W        W97891  24.455   6.147  11.025
29498W        W97892  31.405  26.073   3.818
29499W        W97893  32.186  30.495   1.905
29500W        W97894  35.858   5.781  14.685
29501W        W97895  30.606  14.322  12.089
29502W        W97896  33.097  44.530   0.392
29503W        W97897   6.855  34.407   4.950
29504W        W97898  24.732  21.552   0.888
29505W        W97899  16.979  27.999   3.255
29506W        W97900   9.655  27.856  12.995
29507W        W97901   5.169  10.287  10.775
29508W        W97902  20.205  17.080   0.527
29509W        W97903  35.922  27.912  12.970
29510W        W97904  25.196  13.450   5.118
29511W        W97905  30.998  32.631   0.357
29512W        W97906  22.925  31.630   2.774
29513W        W97907  32.635  30.848   4.073
29514W        W97908  44.193  25.085   2.860
29515W        W97909  31.134  18.101   4.933
29516W        W97910   5.623  11.664  12.644
29517W        W97911   6.628  15.538   3.223
29518W        W97912   0.042  21.137  11.091
29519W        W97913  24.452  20.714   1.997
29520W        W97914   7.927  44.747  10.941
29521W        W97915   3.427  41.499  10.725
29522W        W97916  31.596  35.683   2.389
29523W        W97917   2.427  24.629  14.962
29524W        W97918  19.329  38.030  11.140
29525W        W97919  25.003  34.601   4.136
29526W        W97920   2.016   2.775   2.867
29527W        W97921  26.647  27.016   0.497
29528W        W97922  38.843  39.986  12.115
29529W        W97923  22.940   2.428  12.841
29530W        W97924   0.259  22.767   1.254
29531W        W97925  16.193  40.111  13.026
29532W        W97926  42.773  21.971   2.384
29533W        W97927   2.879   6.389   1.804
29534W        W97928  28.534   3.169  11.892
29535W        W97929  15.294   9.892   2.711
29536W        W97930  39.558  30.865  14.827
29537W        W97931  25.166  43.325  10.837
29538W        W97932  21.458  36.099   4.086
29539W        W97933  35.600   3.833   1.245
29540W        W97934  15.113  40.032  11.169
29541W        W97935  15.048   0.932   0.695
29542W        W97936   8.391  13.716  12.050
29543W        W97937   7.669   6.644   5.148
29544W        W97938  40.851  26.262   0.020
29545W        W97939  33.581  20.103  12.860
29546W        W97940   9.326   9.604   3.803
29547W        W97941  21.537  43.428   3.525
29548W        W97942   1.322  38.292   1.287
29549W        W97943  12.777  37.053   2.607
29550W        W97944  31.185  12.241   0.402
29551W        W97945  25.096  35.990  12.615
29552W        W97946  27.496   0.890   2.715
29553W        W97947  19.151  35.598  10.511
29554W        W97948   8.245   1.260   1.302
29555W        W97949  36.241  31.983  14.097
29556W        W97950   1.700  20.451  13.213
29557W        W97951  24.029  12.308   1.207
29558W        W97952  42.930  32.101   4.564
29559W        W97953  15.476  41.322   1.377
29560W        W97954   9.829   4.930   0.672
29561W        W97955  26.789  28.903   4.722
29562W        W97956   3.875   4.081   0.142
29563W        W97957  36.445  31.454   1.217
29564W        W97958  15.811  39.935  14.024
29565W        W97959  24.489  25.032   2.945
29566W        W97960   2.872  23.071   4.328
29567W        W97961  40.396  38.302  14.024
29568W        W97962  10.245  24.188   4.592
29569W        W97963  10.998  33.061   3.738
29570W        W97964   7.754  28.893   1.833
29571W        W97965  34.444  40.122  14.885
29572W        W97966  21.633  36.511  11.559
29573W        W97967  14.172   4.490   4.538
29574W        W97968  43.147  30.601  12.052
29575W        W97969   3.762  29.445  11.191
29576W        W97970  37.301  13.238   1.237
29577W        W97971   7.955  22.032   2.953
29578W        W97972  23.592  43.334   0.430
29579W        W97973  28.536   2.826   4.899
29580W        W97974  44.022  35.896   3.686
29581W        W97975   8.310  31.901   3.270
29582W        W97976  15.309  10.575  12.057
29583W        W97977  26.211  11.286  13.432
29584W        W97978   8.665  22.589  13.346
29585W        W97979  28.123  16.333  12.465
29586W        W97980   5.687  38.874  14.842
29587W        W97981  38.884  31.951   4.971
29588W        W97982  15.841  39.879   0.978
29589W        W97983  10.915   6.596   0.363
29590W        W97984  19.304  30.960  14.401
29591W        W97985   9.701   7.232  14.810
29592W        W97986  42.815  31.507   2.121
29593W        W97987   8.467  25.943  12.582
29594W        W97988  11.864   9.773  13.805
29595W        W97989  17.577  39.340   0.245
29596W        W97990  31.379  21.719  10.911
29597W        W97991  37.166  41.440   2.202
29598W        W97992  36.663  41.707  12.045
29599W        W97993  38.488  25.640  11.236
29600W        W97994  34.651  11.392  11.747
29601W        W97995  18.896   3.316   4.159
29602W        W97996  44.113  29.802  12.512
29603W        W97997  15.453  44.403   3.770
29604W        W97998  11.827   9.614   1.986
29605W        W97999  37.127   7.712  12.599
29606W        W98000  15.542  15.315  10.558
29607W        W98001  24.363  35.833  11.352
29608W        W98002  14.833  36.488  10.876
29609W        W98003  40.333  38.594  13.443
29610W        W98004   8.826   4.615   0.899
29611W        W98005  39.016  21.048   3.835
29612W        W98006  10.088  38.876   0.278
29613W        W98007  40.369  21.145   0.630
29614W        W98008   8.279  35.328   3.644
29615W        W98009  26.446  38.450   4.502
29616W        W98010   7.869  25.035  12.912
29617W        W98011   1.326  23.143   2.405
29618W        W98012  22.264  31.058  13.903
29619W        W98013  17.926  44.282   0.700
29620W        W98014  12.192   1.879   0.629
29621W        W98015  40.855   4.497  10.773
29622W        W98016   3.768   6.791   1.690
29623W        W98017  23.495  20.602   3.506
29624W        W98018  18.499   1.178   0.369
29625W        W98019  37.025  39.337  13.309
29626W        W98020  23.946   3.252   0.298
29627W        W98021  13.104  10.335  13.534
29628W        W98022   4.363  41.933   4.205
29629W        W98023  35.115  14.650  13.472
29630W        W98024  23.248  24.581   5.033
29631W        W98025  24.971  29.736   3.979
29632W        W98026  31.336  27.602  13.521
29633W        W98027  32.432  19.758  13.770
29634W        W98028  15.055  28.073   4.218
29635W        W98029  35.937   7.902   4.559
29636W        W98030  40.414  33.662   1.073
29637W        W98031  30.555  32.081  12.874
29638W        W98032  31.092  22.571   1.493
29639W        W98033  11.096  12.533   1.457
29640W        W98034  15.120  25.214  10.602
29641W        W98035  26.426  11.255   1.737
29642W        W98036   6.758  35.699  10.867
29643W        W98037  12.163  23.522  10.579
29644W        W98038  18.977  29.556  11.492
29645W        W98039  24.723  17.702   0.426
29646W        W98040  43.836   3.768   3.995
29647W        W98041  42.489  29.315  14.199
29648W        W98042  30.996  36.300   3.823
29649W        W98043  19.073  43.506  14.340
29650W        W98044  39.589   6.418   2.146
29651W        W98045  42.973  18.544   1.091
29652W        W98046  29.660  13.067  12.934
29653W        W98047   1.649  37.020  11.724
29654W        W98048  37.961  22.161   2.268
29655W        W98049  28.783  21.460   4.698
29656W        W98050  20.254  15.087   2.884
29657W        W98051   1.954  16.666  11.504
29658W        W98052   1.701   2.461   0.803
29659W        W98053  17.891  21.573  14.485
29660W        W98054  37.827  26.915   4.155
29661W        W98055  39.106   1.445  12.834
29662W        W98056  32.407   4.652   2.781
29663W        W98057   6.129   4.296  14.481
29664W        W98058  34.878  43.223   0.826
29665W        W98059  40.424   9.755   2.394
29666W        W98060  12.341  44.709   1.443
29667W        W98061  21.434  18.502  14.514
29668W        W98062  35.229  34.501  12.530
29669W        W98063  36.759   7.418  13.439
29670W        W98064  39.072  38.742   4.752
29671W        W98065   9.608   0.781  10.712
29672W        W98066  24.361  26.156   0.632
29673W        W98067  26.664   7.244  10.543
29674W        W98068  37.863  10.191  14.586
29675W        W98069  20.529  37.751   1.270
29676W        W98070  17.685  20.010   1.889
29677W        W98071  27.003   9.874  14.475
29678W        W98072   7.452   4.276   3.850
29679W        W98073  15.699   5.556   4.142
29680W        W98074  23.888  25.620   3.291
29681W        W98075  33.724   3.664   5.094
29682W        W98076  31.907  30.945   1.837
29683W        W98077  23.977  14.471  11.520
29684W        W98078  43.965  37.732   2.221
29685W        W98079   1.918  10.812  10.391
29686W        W98080  38.867  36.091   1.219
29687W        W98081   7.766  22.088   2.481
29688W        W98082   1.844  32.846  10.756
29689W        W98083  24.076   9.971  14.144
29690W        W98084  15.159  24.025   3.079
29691W        W98085   2.143  29.647   3.384
29692W        W98086  35.560  36.948  14.063
29693W        W98087   8.092   6.335  10.684
29694W        W98088  25.664  37.298   3.616
29695W        W98089  13.574   9.096   0.057
29696W        W98090  28.575   2.184  12.062
29697W        W98091  42.910  30.015   1.554
29698W        W98092   5.477  18.467   2.264
29699W        W98093  36.109  20.511  14.733
29700W        W98094   2.336   0.092   4.139
29701W        W98095   5.642  10.228   2.136
29702W        W98096  37.500  33.664   2.914
29703W        W98097  34.000   6.877  14.001
29704W        W98098  23.536  41.504   3.801
29705W        W98099  20.987  22.373   2.700
29706W        W98100  42.980  13.790   3.824
29707W        W98101  15.246  35.781  13.135
29708W        W98102  13.492  19.753   0.618
29709W        W98103  24.539   3.442  13.733
29710W        W98104  29.186   7.713  14.745
29711W        W98105   4.420   1.524   0.292
29712W        W98106   5.280  14.918   3.131
29713W        W98107   1.753  41.494   0.499
29714W        W98108  20.006   8.700  10.765
29715W        W98109   3.707  19.526   3.642
29716W        W98110  10.428  43.366   4.225
29717W        W98111  39.291   3.429  10.471
29718W        W98112   1.089  27.473   4.211
29719W        W98113  27.164  36.255  12.965
29720W        W98114  28.048  33.674   2.865
29721W        W98115  32.372  42.614  11.494
29722W        W98116  20.346  31.508  12.085
29723W        W98117  30.552  25.795  14.662
29724W        W98118   4.388  17.045  12.324
29725W        W98119  31.789  10.840   2.769
29726W        W98120  12.207  19.606   4.731
29727W        W98121  41.892  18.259  11.399
29728W        W98122  25.060   1.254  12.077
29729W        W98123  38.565  26.500  11.310
29730W        W98124   1.387  11.903  13.758
29731W        W98125  23.754   4.068  13.910
29732W        W98126  32.512  18.077  11.151
29733W        W98127  33.507  27.471   1.864
29734W        W98128   1.351  38.805   1.237
29735W        W98129   8.865  43.406  13.120
29736W        W98130  15.833  37.909   0.250
29737W        W98131  10.211  36.075   1.487
29738W        W98132  19.028  35.037   1.315
29739W        W98133  10.648  37.001   1.757
29740W        W98134  30.465  35.063  11.742
29741W        W98135  41.252  27.655   1.151
29742W        W98136  43.331  34.480   1.384
29743W        W98137  28.529  44.369  13.394
29744W        W98138   3.310   2.554  14.638
29745W        W98139  22.817  34.522  13.775
29746W        W98140  26.481  31.155   0.438
29747W        W98141   9.773  20.102   3.131
29748W        W98142  21.263  28.908  14.059
29749W        W98143  22.094  21.981  11.082
29750W        W98144  12.868  26.747  10.684
29751W        W98145  37.009   3.371   3.888
29752W        W98146  34.812  36.871  11.951
29753W        W98147  34.564  28.543   4.559
29754W        W98148  20.099  28.614  11.185
29755W        W98149  39.409  38.449  13.472
29756W        W98150  18.288  20.083  12.445
29757W        W98151  34.256  20.666   0.758
29758W        W98152   9.343  38.254  12.937
29759W        W98153   2.504  28.186  12.230
29760W        W98154   6.102  10.302  10.612
29761W        W98155   5.604  22.633  14.889
29762W        W98156  10.572  16.470  14.272
29763W        W98157  25.511  39.510   0.940
29764W        W98158  38.742  43.565  10.254
29765W        W98159  40.698  32.974   2.377
29766W        W98160  39.842   6.804   4.579
29767W        W98161   6.691  23.513  13.519
29768W        W98162  39.204  28.453   2.235
29769W        W98163   0.944  33.158   4.872
29770W        W98164  39.194  43.878   0.893
29771W        W98165   6.526  15.436   0.309
29772W        W98166  11.744  38.131   4.331
29773W        W98167  24.644  36.985   1.154
29774W        W98168  18.193  24.606   0.779
29775W        W98169  28.454  35.936   3.185
29776W        W98170  11.257  27.116   4.601
29777W        W98171  23.221   1.749  13.226
29778W        W98172  31.106  41.071  11.143
29779W        W98173   7.522  35.121  13.912
29780W        W98174   0.998  20.205   0.279
29781W        W98175  36.698  11.600   1.439
29782W        W98176  23.080  11.919  12.993
29783W        W98177  22.411  35.367   4.764
29784W        W98178  13.308   4.997  12.042
29785W        W98179  36.342  35.364   0.791
29786W        W98180  33.098  24.000   3.110
29787W        W98181  33.065   0.425   4.525
29788W        W98182  43.337   7.013  12.138
29789W        W98183  29.529   1.895  12.341
29790W        W98184   9.265  30.567  12.175
29791W        W98185  13.607  16.538   1.780
29792W        W98186  28.196  20.848   3.859
29793W        W98187  30.662  34.355   3.137
29794W        W98188  35.998  10.569   4.636
29795W        W98189  35.907  22.682  10.606
29796W        W98190   9.425  39.656   4.867
29797W        W98191   9.275  30.395   4.976
29798W        W98192   0.461  25.837  14.380
29799W        W98193  37.430  35.101   5.076
29800W        W98194   7.312  22.982   2.798
29801W        W98195  31.149  34.309  13.611
29802W        W98196   4.297  15.305  14.251
29803W        W98197  35.144  11.199   1.487
29804W        W98198  34.453  28.315   2.693
29805W        W98199  10.110  23.108  10.582
29806W        W98200   2.896  25.854   2.200
29807W        W98201   6.533  28.957  14.123
29808W        W98202   1.928   1.432   3.846
29809W        W98203   7.226  17.711   3.478
29810W        W98204  22.489  13.365  14.365
29811W        W98205  35.119  37.743   1.495
29812W        W98206  10.949  41.233   4.056
29813W        W98207  32.126  10.010  13.084
29814W        W98208  39.665  44.240  12.355
29815W        W98209  13.291  19.350   3.721
29816W        W98210  11.293  41.254  12.997
29817W        W98211  32.476  12.669  12.521
29818W        W98212   1.291  27.064   0.337
29819W        W98213  33.429  43.421   4.060
29820W        W98214   3.334   9.301   4.139
29821W        W98215  35.682  44.738   4.144
29822W        W98216  31.103   6.739   4.003
29823W        W98217  13.219  22.657  13.974
29824W        W98218  19.666  24.232   3.767
29825W        W98219  13.769   7.531  13.550
29826W        W98220   3.401   6.230   1.904
29827W        W98221  10.317  33.471  11.646
29828W        W98222  30.127  29.144  12.171
29829W        W98223  31.055  36.695  13.941
29830W        W98224  12.668   7.448  12.160
29831W        W98225  35.354   0.547   2.100
29832W        W98226  12.202   6.877   0.757
29833W        W98227  18.812  27.502  12.425
29834W        W98228  18.676  23.556  10.688
29835W        W98229  20.780  39.818   3.823
29836W        W98230  12.556  43.533   3.065
29837W        W98231  27.879  14.348   0.337
29838W        W98232  32.047  44.655  13.728
29839W        W98233  12.229  42.028   1.970
29840W        W98234  28.615  34.824   1.659
29841W        W98235  21.554  15.014  11.497
29842W        W98236  32.874   8.297   0.851
29843W        W98237  19.275  44.800  14.458
29844W        W98238   7.257  37.994  11.637
29845W        W98239  39.473  35.978   4.659
29846W        W98240  38.016  26.596  11.382
29847W        W98241  20.264  41.836  14.876
29848W        W98242  39.969  29.437  11.914
29849W        W98243   1.963  18.265  11.836
29850W        W98244  14.679   5.209  11.973
29851W        W98245   8.496  31.834   2.335
29852W        W98246  15.251   5.164   1.207
29853W        W98247  35.036  14.102   1.299
29854W        W98248  42.285  15.681  14.320
29855W        W98249   3.245  19.196   0.061
29856W        W98250   7.370   0.246   2.604
29857W        W98251  21.638  41.415   1.507
29858W        W98252  18.561  24.479  11.593
29859W        W98253   9.187   4.176   4.870
29860W        W98254  21.100   7.687   0.334
29861W        W98255   9.802  19.663   2.220
29862W        W98256  26.217  12.269  11.002
29863W        W98257  30.744  24.938  10.927
29864W        W98258  27.661  25.480   4.603
29865W        W98259  30.007  31.898   3.191
29866W        W98260   0.761  44.419  10.351
29867W        W98261   9.346  20.587  10.990
29868W        W98262  17.262  25.084  11.133
29869W        W98263  11.578  23.606   4.502
29870W        W98264  18.874  39.565   1.335
29871W        W98265  12.065  14.119   0.937
29872W        W98266  31.170  13.571  13.107
29873W        W98267  44.527  25.782   4.263
29874W        W98268  38.548  17.090  10.705
29875W        W98269  36.769  11.546  13.998
29876W        W98270  25.153  42.933  13.911
29877W        W98271  43.565  40.545  12.141
29878W        W98272  35.092  42.543  11.053
29879W        W98273  33.234   5.692  11.040
29880W        W98274  18.090  34.602   4.581
29881W        W98275  15.561   6.001   0.388
29882W        W98276  32.523  31.525  12.622
29883W        W98277  19.713   7.894  11.923
29884W        W98278  10.810  34.902   1.768
29885W        W98279  10.856   7.298   3.046
29886W        W98280  34.879  30.103  10.997
29887W        W98281  21.201  24.962  14.729
29888W        W98282  43.446  15.018  14.558
29889W        W98283  30.689  18.575  11.978
29890W        W98284   9.797   6.347  12.620
29891W        W98285  44.099  23.268   3.170
29892W        W98286  43.310  25.140   2.794
29893W        W98287  43.767  27.661  10.583
29894W        W98288   6.446  19.200  13.537
29895W        W98289  11.227  29.634   4.213
29896W        W98290  13.042   4.469   2.776
29897W        W98291   9.345   2.883   1.247
29898W        W98292  24.001  29.667   3.764
29899W        W98293  24.685  42.474  12.555
29900W        W98294  10.116  15.571   1.254
29901W        W98295  14.269  36.799   2.350
29902W        W98296  14.233   6.154   1.540
29903W        W98297  19.306  36.287   0.718
29904W        W98298  44.987  25.526   4.234
29905W        W98299  15.746  27.954  11.476
29906W        W98300  30.408  37.985   0.910
29907W        W98301  44.543  40.988  13.794
29908W        W98302  35.002  34.126   1.417
29909W        W98303  17.591  21.519  14.943
29910W        W98304  20.940   2.961  14.683
29911W        W98305  29.383  37.259   3.492
29912W        W98306   9.276   1.616   4.952
29913W        W98307  34.938  33.095  11.397
29914W        W98308  19.562  14.632   2.224
29915W        W98309   4.980   5.945  11.681
29916W        W98310  20.261  15.345   5.091
29917W        W98311  21.932   4.488   1.384
29918W        W98312  35.599  19.686  11.158
29919W        W98313  33.405  40.256  10.824
29920W        W98314  20.437  31.226  13.906
29921W        W98315  13.255  38.480  13.449
29922W        W98316  13.619  36.820   0.014
29923W        W98317  29.258  22.775   4.872
29924W        W98318   5.742  16.934   3.335
29925W        W98319  41.914  31.069   4.623
29926W        W98320   7.186  21.810  12.345
29927W        W98321  14.712   5.996  11.451
29928W        W98322   5.923  32.214   3.606
29929W        W98323  34.900  27.406   1.961
29930W        W98324  24.209   8.243  13.333
29931W        W98325  20.725   8.593   3.061
29932W        W98326  21.463  35.767  14.606
29933W        W98327  36.359   1.718   0.975
29934W        W98328  28.473  35.153  14.306
29935W        W98329   3.719  25.084   4.342
29936W        W98330  23.568   5.492   4.698
29937W        W98331  10.703  16.065   0.502
29938W        W98332  15.836  20.298  14.846
29939W        W98333  23.251   3.926   0.524
29940W        W98334  34.742  40.335   2.143
29941W        W98335  26.450   9.382   4.081
29942W        W98336  38.855  43.916  12.425
29943W        W98337  23.064   0.518  12.506
29944W        W98338  10.471  40.762   1.696
29945W        W98339  24.641  42.745  12.039
29946W        W98340   0.313  30.188  14.729
29947W        W98341   1.361  25.454   3.069
29948W        W98342   1.662  14.381   4.047
29949W        W98343  23.071  38.937  14.130
29950W        W98344  34.949  22.455  11.383
29951W        W98345  18.551  16.124   2.810
29952W        W98346   3.199  38.853   1.423
29953W        W98347  25.168   6.234  10.999
29954W        W98348  39.688  36.021  13.909
29955W        W98349  34.494   5.392   1.318
29956W        W98350   5.201  22.350  13.969
29957W        W98351   0.790   3.111  11.261
29958W        W98352   7.930  13.229   1.019
29959W        W98353  20.043  14.151   0.904
29960W        W98354  15.750   0.784   3.221
29961W        W98355  21.588   7.847  11.177
29962W        W98356  29.022  15.096   0.470
29963W        W98357  25.939   9.887   9.860
29964W        W98358   2.462  35.831  12.497
29965W        W98359  20.153  13.172  12.920
29966W        W98360  16.772  33.621  13.093
29967W        W98361  24.145  23.678  14.968
29968W        W98362  32.856  40.449   1.932
29969W        W98363  43.323  17.644  14.797
29970W        W98364   0.876  30.068  11.957
29971W        W98365  31.081   4.745  10.204
29972W        W98366   3.942  40.942  12.055
29973W        W98367  16.745   1.580  13.414
29974W        W98368  31.714   7.990   2.685
29975W        W98369  26.057  10.825  11.836
29976W        W98370  44.702   4.020  11.622
29977W        W98371  38.434  26.586   3.756
29978W        W98372  29.099  22.893  12.600
29979W        W98373   6.827   4.332  14.025
29980W        W98374  43.230  29.746   0.817
29981W        W98375  19.103  14.812  11.149
29982W        W98376  20.518  27.234   3.940
29983W        W98377  13.210   6.743   4.070
29984W        W98378  41.301  35.485   4.608
29985W        W98379  22.123  21.658  11.470
29986W        W98380  30.354  28.389   3.694
29987W        W98381  35.486   5.319  10.564
29988W        W98382  18.056  41.031   4.186
29989W        W98383  28.370  12.258   2.424
29990W        W98384   7.241  30.496   0.704
29991W        W98385   8.149  38.628  14.016
29992W        W98386   5.800  16.728   4.300
29993W        W98387   4.408  12.156   0.271
29994W        W98388  24.629  16.780  14.887
29995W        W98389  18.438  37.716   1.378
29996W        W98390  20.658  10.196   4.132
29997W        W98391  29.816   7.340   0.110
29998W        W98392   8.747  22.753   0.014
29999W        W98393   4.411   2.683   3.862
30000W        W98394  33.348   4.900   2.785
30001W        W98395  15.837   5.479  14.926
30002W        W98396   9.889  18.345  11.684
30003W        W98397   4.149  42.319  14.387
30004W        W98398  32.511  16.229   1.201
30005W        W98399  27.509  24.661  14.240
30006W        W98400  30.065  44.209   3.067
30007W        W98401  37.546  20.340  12.033
30008W        W98402  43.022  27.863   4.135
30009W        W98403  43.315  40.981   3.640
30010W        W98404   2.812  10.581   2.659
30011W        W98405   2.105   0.979  11.099
30012W        W98406   6.378  19.721  12.308
30013W        W98407   6.099  16.671   1.596
30014W        W98408  11.658  34.901  14.059
30015W        W98409  10.845  15.149   3.762
30016W        W98410  18.224  41.731  11.633
30017W        W98411  11.676  32.028  11.036
30018W        W98412   9.564  24.001  13.469
30019W        W98413  19.795   8.299   3.671
30020W        W98414   0.955   6.542   3.233
30021W        W98415   8.726  39.629  11.087
30022W        W98416   7.074  21.753  10.408
30023W        W98417   4.943  18.573  11.911
30024W        W98418  34.617  37.977   0.212
30025W        W98419   7.606  18.439  14.258
30026W        W98420  40.276   1.956  13.098
30027W        W98421  41.901  14.554  10.322
30028W        W98422  18.034  18.173  13.802
30029W        W98423  13.748  11.763  12.647
30030W        W98424   1.776  13.313  12.479
30031W        W98425  30.370  28.465  11.188
30032W        W98426  13.409  33.170   4.181
30033W        W98427  17.521  29.416   5.146
30034W        W98428  32.875  20.728  14.761
30035W        W98429  14.533  30.176  10.442
30036W        W98430  14.838  23.539   1.454
30037W        W98431  34.857  32.583  12.464
30038W        W98432  36.466  24.060  13.980
30039W        W98433  18.092   2.963  12.350
30040W        W98434  12.306  31.604   1.783
30041W        W98435  35.034  41.928   1.304
30042W        W98436   0.855  21.834  12.498
30043W        W98437   5.248  14.648   0.847
30044W        W98438  42.809  44.731  11.197
30045W        W98439  39.370  29.232  10.305
30046W        W98440  35.876  43.101  14.061
30047W        W98441  30.676  24.293   2.362
30048W        W98442   5.196  35.280   1.092
30049W        W98443   9.619   4.459  14.330
30050W        W98444  15.662  13.306   1.175
30051W        W98445  33.880  17.701   0.763
30052W        W98446  41.829  35.867   1.757
30053W        W98447   5.442   4.274   3.579
30054W        W98448  21.961  26.552  10.659
30055W        W98449  36.444  34.072   1.360
30056W        W98450  17.290   7.188   4.988
30057W        W98451  35.096  28.132  14.390
30058W        W98452  10.144  24.982   4.544
30059W        W98453  11.892  10.449  12.269
30060W        W98454   0.289  34.472  14.055
30061W        W98455  20.139  39.454   1.373
30062W        W98456  14.825   8.638  13.541
30063W        W98457  35.100   9.788   0.756
30064W        W98458  13.528  44.328   2.989
30065W        W98459  29.432  21.229  12.456
30066W        W98460  35.480   7.579  12.084
30067W        W98461  24.123  21.535   4.206
30068W        W98462  25.447  24.096  10.347
30069W        W98463  30.628  13.193   0.292
30070W        W98464  43.276  33.970  12.087
30071W        W98465  17.061   9.580  14.991
30072W        W98466  28.350  16.760  12.647
30073W        W98467  40.919  40.016   0.497
30074W        W98468  27.208   0.097   1.409
30075W        W98469   6.330   9.040  13.978
30076W        W98470   7.343   9.344  11.940
30077W        W98471  42.521  44.790  12.536
30078W        W98472  17.867  36.598   0.770
30079W        W98473  20.570  10.864  11.558
30080W        W98474  28.757   2.361   1.304
30081W        W98475  35.179  27.462  14.935
30082W        W98476  21.718  29.171  10.635
30083W        W98477  37.230  22.782   3.185
30084W        W98478  35.139  36.281  11.026
30085W        W98479  20.174  43.691  12.528
30086W        W98480   5.675   2.300   0.413
30087W        W98481  17.464  22.131   4.795
30088W        W98482  17.539  27.619  11.547
30089W        W98483   3.168  41.885   2.400
30090W        W98484  43.454  26.214   4.651
30091W        W98485   1.808  43.979  10.733
30092W        W98486  30.773  41.501   2.499
30093W        W98487  39.748  36.428   1.208
30094W        W98488  17.495   6.362  13.397
30095W        W98489  42.882  13.647   2.214
30096W        W98490  38.289  39.736   2.365
30097W        W98491  39.085  34.159   2.240
30098W        W98492   6.026   3.200   2.603
30099W        W98493  32.553   4.701  14.923
30100W        W98494  16.541  28.680   0.350
30101W        W98495  44.566  18.580  14.091
30102W        W98496   9.428  24.941   4.080
30103W        W98497  23.845  33.098  14.124
30104W        W98498  19.628  25.635   2.391
30105W        W98499   2.837  42.765   4.245
30106W        W98500  17.527   8.103   1.829
30107W        W98501  16.308  42.155   0.830
30108W        W98502  35.614   4.228  13.559
30109W        W98503  31.306  14.927  13.495
30110W        W98504   4.862  28.441   0.740
30111W        W98505  10.851   1.452  14.476
30112W        W98506  43.273  16.128   1.836
30113W        W98507   0.076  20.932  14.343
30114W        W98508  29.047  40.087   2.762
30115W        W98509  19.705   5.970   3.302
30116W        W98510  21.085   8.687   0.507
30117W        W98511  15.119  22.195   2.303
30118W        W98512  15.702   2.330   5.098
30119W        W98513  17.058   2.768  14.685
30120W        W98514   1.558  16.893  11.704
30121W        W98515   0.500   5.195  12.289
30122W        W98516  44.753  43.894   3.854
30123W        W98517   0.050  34.562   0.411
30124W        W98518  24.268  30.581   0.918
30125W        W98519   7.621   4.887   3.993
30126W        W98520  42.415  28.817   2.891
30127W        W98521  26.261  42.940   4.769
30128W        W98522  13.247  12.591   2.869
30129W        W98523  20.731   1.232   1.905
30130W        W98524  30.996   4.254   1.869
30131W        W98525  36.093  43.923  11.473
30132W        W98526  39.244   6.299  14.489
30133W        W98527  17.307  30.508   2.345
30134W        W98528  35.024  24.879  10.263
30135W        W98529  39.901  17.929   2.238
30136W        W98530  17.702  38.765  12.876
30137W        W98531  21.015  34.299   1.735
30138W        W98532  30.200  40.463  12.111
30139W        W98533   2.065  21.211   0.167
30140W        W98534  16.727   4.517  14.760
30141W        W98535   8.550  43.496   3.075
30142W        W98536  31.800  37.432  10.638
30143W        W98537  33.958  22.945   1.386
30144W        W98538   3.300  38.354   1.421
30145W        W98539  14.881  30.392  11.887
30146W        W98540  13.742   6.642   4.119
30147W        W98541  39.028  26.214  14.801
30148W        W98542  23.081   3.276  12.659
30149W        W98543  10.456  19.719   4.726
30150W        W98544  33.896  15.918   3.312
30151W        W98545  35.794  41.248   1.138
30152W        W98546  27.426  17.176   1.021
30153W        W98547  29.151  12.551   0.473
30154W        W98548  15.338  18.552   3.402
30155W        W98549  34.406  22.758  14.758
30156W        W98550  38.055  19.128  11.316
30157W        W98551  34.444  16.330  12.082
30158W        W98552  26.499  29.873   0.920
30159W        W98553  43.242  19.627  13.976
30160W        W98554  43.504  19.229   2.664
30161W        W98555  28.979  33.896   3.222
30162W        W98556  30.859  30.932  14.441
30163W        W98557  17.656   6.723   4.348
30164W        W98558  36.725  13.332  11.521
30165W        W98559  27.479  10.097  13.538
30166W        W98560  17.575  42.031   3.308
30167W        W98561  40.570  15.088  13.382
30168W        W98562   3.996  11.567   5.109
30169W        W98563   9.615  11.135  11.150
30170W        W98564  24.170   8.724  13.563
30171W        W98565  33.206   7.041  11.175
30172W        W98566   0.560  37.926   9.802
30173W        W98567  21.625  43.919  10.629
30174W        W98568  29.479  12.819   0.811
30175W        W98569  42.194  31.410  13.583
30176W        W98570   9.987  30.646   2.341
30177W        W98571  20.204   7.985  12.085
30178W        W98572  32.090  34.442  12.537
30179W        W98573  18.844  22.673  14.939
30180W        W98574  39.382  33.417   3.204
30181W        W98575  24.256  38.522  10.941
30182W        W98576  33.029   8.148   3.292
30183W        W98577   6.220  10.803  11.563
30184W        W98578   6.635   3.904   1.921
30185W        W98579  39.445  13.268  13.164
30186W        W98580  43.089  37.270  12.556
30187W        W98581  31.846  22.719   1.799
30188W        W98582  38.992  35.519   4.977
30189W        W98583  37.422  25.956   0.715
30190W        W98584   5.187  36.137  13.341
30191W        W98585  24.768  36.009   0.844
30192W        W98586  22.952  25.557   0.896
30193W        W98587  23.117  40.876  14.410
30194W        W98588  18.694  15.825  13.559
30195W        W98589  29.841  37.347   3.776
30196W        W98590  36.488  10.909  14.395
30197W        W98591  39.807   6.389   3.813
30198W        W98592  43.499  10.625   2.375
30199W        W98593  21.794  28.095  14.698
30200W        W98594  12.473   6.648   4.539
30201W        W98595  34.073  36.769  14.298
30202W        W98596  10.126   1.390   3.312
30203W        W98597  23.463  44.754   2.672
30204W        W98598  17.346  23.266   3.577
30205W        W98599  15.128  17.051  13.039
30206W        W98600  16.797  17.755  14.030
30207W        W98601  37.343  32.619  11.975
30208W        W98602  35.595  25.769   2.337
30209W        W98603  28.879  35.951   1.249
30210W        W98604   8.481  30.056  11.795
30211W        W98605  42.938  23.103  14.796
30212W        W98606  20.082  12.334  14.540
30213W        W98607  34.980  22.308  10.011
30214W        W98608  18.314   5.299  13.073
30215W        W98609   9.857  32.852  11.261
30216W        W98610  39.298  41.538   0.501
30217W        W98611  42.972  33.983  10.749
30218W        W98612  35.977  15.198  11.286
30219W        W98613  42.524  35.957   1.094
30220W        W98614  38.394   8.732   4.095
30221W        W98615  17.077  16.009   0.997
30222W        W98616  38.541  39.362   3.191
30223W        W98617   3.421  21.091  14.992
30224W        W98618  22.142  20.457  13.473
30225W        W98619  38.767  13.069   2.813
30226W        W98620  21.747  43.466  10.432
30227W        W98621   1.323  14.297   4.986
30228W        W98622  11.379  27.258   2.556
30229W        W98623  26.213   6.199  11.980
30230W        W98624  40.424  24.008   1.150
30231W        W98625  19.447  26.390  10.641
30232W        W98626   9.354  11.669  13.330
30233W        W98627  32.480   4.342  12.803
30234W        W98628  28.906  12.194   2.344
30235W        W98629  12.404  36.385   1.612
30236W        W98630  34.309   2.256   0.188
30237W        W98631  21.850  13.230  13.599
30238W        W98632  12.748   5.683  12.188
30239W        W98633  44.696  33.712  12.222
30240W        W98634  14.609  14.835   3.334
30241W        W98635  42.722  20.301  12.252
30242W        W98636  32.820  35.929   4.102
30243W        W98637  19.790   4.840   2.630
30244W        W98638  26.038  11.460   0.744
30245W        W98639  38.347  38.415  14.730
30246W        W98640  38.504   2.810  13.962
30247W        W98641  41.380  22.174   2.925
30248W        W98642  43.170   3.596   3.683
30249W        W98643  44.290  18.920  12.645
30250W        W98644   6.274  36.511  11.050
30251W        W98645  40.310  42.060   0.905
30252W        W98646   8.909  37.501  13.501
30253W        W98647  14.787  27.756   3.908
30254W        W98648   0.377  31.638  11.170
30255W        W98649  38.067  43.620  11.354
30256W        W98650   4.230  20.117   4.524
30257W        W98651   6.445   2.695  10.531
30258W        W98652  43.065  32.583  11.222
30259W        W98653   6.712  41.211   4.283
30260W        W98654  34.876  20.627  11.645
30261W        W98655   8.106  30.819  12.197
30262W        W98656  38.902   0.791  14.548
30263W        W98657  23.709  24.885   2.270
30264W        W98658   4.320  35.944   2.936
30265W        W98659   7.130  11.136  12.030
30266W        W98660  14.878  32.322   2.282
30267W        W98661  23.258  31.368  13.798
30268W        W98662  44.307  33.559   4.247
30269W        W98663  21.210  38.718  10.363
30270W        W98664   5.725  38.536   0.353
30271W        W98665  30.842  36.856   1.596
30272W        W98666   2.768   8.617  12.887
30273W        W98667  36.470   5.715   0.825
30274W        W98668  22.739  18.688   0.821
30275W        W98669  35.633   4.421  10.697
30276W        W98670  23.333  26.157   2.268
30277W        W98671  17.428  27.543  10.578
30278W        W98672  16.526  27.779   3.201
30279W        W98673  19.390  44.597   1.726
30280W        W98674   7.173   7.147  14.566
30281W        W98675  15.938  33.027   1.937
30282W        W98676   9.844  42.758  12.637
30283W        W98677  15.776  28.373   1.464
30284W        W98678  13.348  44.816   1.382
30285W        W98679  25.457  29.057   4.132
30286W        W98680  25.477  36.954  11.905
30287W        W98681  20.437  36.405  11.099
30288W        W98682  38.479   9.266   4.852
30289W        W98683   3.916  23.032   4.493
30290W        W98684  15.902  43.317   2.221
30291W        W98685  13.180  11.866   2.275
30292W        W98686  15.702  35.756   0.377
30293W        W98687   0.386   2.700   4.116
30294W        W98688  20.200  36.445  14.797
30295W        W98689  29.060  24.883  10.926
30296W        W98690  22.056  20.987  13.482
30297W        W98691  42.747  19.673  12.982
30298W        W98692  24.600  33.072  13.582
30299W        W98693  29.980   4.320   1.956
30300W        W98694  36.941  11.263   4.479
30301W        W98695   6.157   3.425  14.938
30302W        W98696  27.973   7.912   3.337
30303W        W98697  16.490  10.860  11.533
30304W        W98698   5.769  12.665  11.009
30305W        W98699  40.401   1.975   0.796
30306W        W98700  37.590  23.762  13.285
30307W        W98701   1.494   8.834   3.652
30308W        W98702  24.260  11.327  12.088
30309W        W98703   1.820  37.405  12.034
30310W        W98704  31.444  38.474  13.182
30311W        W98705  26.498   7.795  13.064
30312W        W98706  41.913  16.629  14.373
30313W        W98707  25.794  26.227   1.822
30314W        W98708  41.835   4.910  14.473
30315W        W98709  18.639  35.144  11.658
30316W        W98710  42.930  43.213   5.082
30317W        W98711   5.167  10.810  12.868
30318W        W98712  13.040   8.750   3.128
30319W        W98713   7.024  25.666  12.474
30320W        W98714   0.176  35.445  10.521
30321W        W98715   2.407   1.948  10.243
30322W        W98716  40.962  39.458  13.709
30323W        W98717  38.896   5.110  14.371
30324W        W98718  30.158  23.228  11.966
30325W        W98719  35.732  33.104  10.715
30326W        W98720  23.699  10.674  11.494
30327W        W98721  16.153  18.616  13.290
30328W        W98722  31.005   2.184   0.542
30329W        W98723  16.606   0.311   3.748
30330W        W98724  30.046  18.315   0.926
30331W        W98725  33.129  18.207  13.425
30332W        W98726  10.240  25.718   3.265
30333W        W98727  27.412  37.882   3.772
30334W        W98728  25.517  20.581   3.366
30335W        W98729  44.299   2.695   4.836
30336W        W98730  37.206   0.509  13.897
30337W        W98731  28.164   4.366   0.329
30338W        W98732  35.150   5.233  14.061
30339W        W98733  29.432   7.720   0.215
30340W        W98734   2.874   6.189  10.553
30341W        W98735  24.690  10.615   2.317
30342W        W98736  18.538  23.551  11.554
30343W        W98737  22.265   5.812   3.235
30344W        W98738  36.082  17.842  11.178
30345W        W98739  10.135  26.218   3.176
30346W        W98740   2.053   8.560  13.547
30347W        W98741  14.650  39.790  12.036
30348W        W98742  21.570  39.443   4.129
30349W        W98743   1.676  42.055  12.086
30350W        W98744  36.314  34.242  13.408
30351W        W98745  35.514  11.328   4.798
30352W        W98746  33.033  37.759  12.582
30353W        W98747  40.400  32.740   4.668
30354W        W98748   8.362  39.929  14.261
30355W        W98749   9.909  26.050  11.870
30356W        W98750  33.130  23.610   3.466
30357W        W98751  11.183   8.438  14.608
30358W        W98752  43.495   1.695  11.535
30359W        W98753  21.224   1.318   1.781
30360W        W98754   2.463  16.652  11.508
30361W        W98755   3.491   2.520  11.135
30362W        W98756  13.316  12.246   1.754
30363W        W98757  23.763  37.461  14.828
30364W        W98758  30.281   7.942   3.716
30365W        W98759   6.188   1.234  12.450
30366W        W98760  28.152  39.839   3.374
30367W        W98761  21.138  43.265  11.632
30368W        W98762  24.215  44.947  12.092
30369W        W98763  15.519  42.703  12.531
30370W        W98764  40.411   6.474   2.833
30371W        W98765   1.082  36.522   0.896
30372W        W98766  35.980  31.883  11.266
30373W        W98767   1.946  21.852   2.351
30374W        W98768   0.666   1.392  12.881
30375W        W98769  12.122  32.654  14.424
30376W        W98770  37.530  11.829   1.437
30377W        W98771   8.779   3.497  12.341
30378W        W98772  14.707   2.945   1.545
30379W        W98773  10.313  40.865   2.621
30380W        W98774  43.309  39.539   0.866
30381W        W98775  42.296  29.853   0.808
30382W        W98776   5.792  23.157   2.019
30383W        W98777  33.552  15.402  13.874
30384W        W98778  20.896  33.030  14.616
30385W        W98779   4.009  12.622  10.396
30386W        W98780  11.400  29.036   1.058
30387W        W98781   2.465  16.959  10.605
30388W        W98782  14.735  16.286  10.492
30389W        W98783  13.787   7.887  10.932
30390W        W98784  12.156   0.483  12.015
30391W        W98785   3.325  11.462  14.847
30392W        W98786  15.991  22.992   0.923
30393W        W98787  23.976  33.676  12.415
30394W        W98788  18.234   0.063   2.444
30395W        W98789  13.414  16.140  14.908
30396W        W98790  35.433  37.372  11.665
30397W        W98791   1.319   1.762   4.410
30398W        W98792  32.990  21.753   3.615
30399W        W98793  11.799  40.776   0.109
30400W        W98794  41.344  22.770  12.345
30401W        W98795   2.645  25.936  13.031
30402W        W98796  11.316  29.816  12.940
30403W        W98797  27.925  40.053  12.006
30404W        W98798   9.477  22.751   1.050
30405W        W98799   4.084  34.472   4.532
30406W        W98800  22.665  39.846   3.078
30407W        W98801  44.798  22.015  11.560
30408W        W98802  26.364   2.800   4.998
30409W        W98803   7.876  20.971  11.540
30410W        W98804  36.300  43.413   2.660
30411W        W98805   7.080  19.729  11.524
30412W        W98806  34.918  13.237  14.628
30413W        W98807  12.164  28.955   0.333
30414W        W98808  37.653  17.123  13.276
30415W        W98809  24.289  20.312   1.261
30416W        W98810  24.458   2.793   3.331
30417W        W98811   5.820  13.975   0.996
30418W        W98812  33.355  44.919  14.132
30419W        W98813  39.376   7.652   3.650
30420W        W98814  38.132  18.912   1.507
30421W        W98815  32.377   9.235  13.481
30422W        W98816  12.101  24.503  12.052
30423W        W98817  38.380  36.641   2.687
30424W        W98818  10.273  11.764  14.940
30425W        W98819  39.638   9.306   2.267
30426W        W98820  10.713  39.543  13.790
30427W        W98821  17.954  34.032  13.836
30428W        W98822  44.854  38.309  14.926
30429W        W98823  26.421  41.332  12.583
30430W        W98824   7.743  38.549   0.692
30431W        W98825  23.306   2.397   3.798
30432W        W98826   6.275   0.648   2.283
30433W        W98827  12.643  13.338  12.987
30434W        W98828   4.647  36.964  10.628
30435W        W98829  29.048  42.881  11.151
30436W        W98830  34.348  27.166  14.983
30437W        W98831  27.903  14.717  13.361
30438W        W98832  36.527   1.731  12.422
30439W        W98833  18.808  11.964   1.140
30440W        W98834  26.594  35.159   0.239
30441W        W98835  35.076  36.770   4.639
30442W        W98836   2.426  31.597   3.186
30443W        W98837  12.634   5.728  14.081
30444W        W98838  12.571  12.338  14.794
30445W        W98839   0.298  40.846  10.849
30446W        W98840  31.530  14.814  10.736
30447W        W98841  41.121  14.270   0.728
30448W        W98842  15.121  19.555   1.258
30449W        W98843  42.163  24.495  12.047
30450W        W98844  31.464  43.874  12.099
30451W        W98845  12.937  43.578   0.186
30452W        W98846  31.821  35.555  11.669
30453W        W98847   4.079  29.975  12.088
30454W        W98848  13.207  33.561   3.897
30455W        W98849  18.682  40.567   1.386
30456W        W98850  36.987  37.906   0.703
30457W        W98851  38.987  24.670   3.631
30458W        W98852  34.579  38.031  10.687
30459W        W98853   4.703  41.116  14.898
30460W        W98854  22.687  42.592  12.444
30461W        W98855  29.916  33.070  10.734
30462W        W98856  20.025  34.888  10.459
30463W        W98857  16.675   9.433  12.033
30464W        W98858  21.341  23.680  12.390
30465W        W98859   7.090  41.509  10.704
30466W        W98860  27.229  11.770  12.784
30467W        W98861   9.776  11.901   2.000
30468W        W98862   7.239  31.472  11.172
30469W        W98863  39.288  42.437  12.928
30470W        W98864   9.203  28.759   3.486
30471W        W98865  10.362   4.923  13.858
30472W        W98866  12.652   4.434  11.486
30473W        W98867  27.396  28.002  14.833
30474W        W98868  36.587  26.173  13.829
30475W        W98869  35.362  29.293   2.462
30476W        W98870  15.241  26.907   2.359
30477W        W98871  32.658  31.734  10.778
30478W        W98872  30.902  11.131  12.605
30479W        W98873  12.205  26.505  13.400
30480W        W98874   1.275  35.523  10.680
30481W        W98875  14.727  23.485  10.390
30482W        W98876   7.634  27.356   2.418
30483W        W98877  30.130   4.310  14.971
30484W        W98878  16.192  32.543   1.835
30485W        W98879  37.946  26.981   2.412
30486W        W98880  31.903  25.345   2.724
30487W        W98881  21.176  42.805   3.058
30488W        W98882   0.345  25.250  10.827
30489W        W98883   3.734  16.629   3.262
30490W        W98884   5.989  42.479   3.643
30491W        W98885   5.680  40.389   4.678
30492W        W98886  25.510  25.111   3.370
30493W        W98887  44.442  15.819   1.752
30494W        W98888  44.979  36.464   1.002
30495W        W98889   8.918  20.571   1.809
30496W        W98890  31.008  17.132   3.412
30497W        W98891  28.283   4.253  12.971
30498W        W98892  19.071  44.429  13.517
30499W        W98893  16.184  42.858   0.261
30500W        W98894  11.888  42.097   2.826
30501W        W98895  30.848   8.184   3.963
30502W        W98896  43.916  10.811  13.942
30503W        W98897  16.877  40.391   0.293
30504W        W98898  43.251  27.601  13.436
30505W        W98899  24.538  31.326   3.306
30506W        W98900  13.617  11.067   2.846
30507W        W98901  32.070  44.330  11.533
30508W        W98902  41.018   9.048  12.881
30509W        W98903   6.711  22.489  13.097
30510W        W98904  15.627  14.606   0.817
30511W        W98905  17.159  25.730  10.312
30512W        W98906  21.147  35.368   2.497
30513W        W98907  34.534  29.565  14.787
30514W        W98908  40.681  15.788   5.044
30515W        W98909  40.857  36.527  13.920
30516W        W98910  14.526   2.378   3.383
30517W        W98911  44.426  27.649   0.404
30518W        W98912   5.305  23.981  13.261
30519W        W98913   5.376  43.615  14.986
30520W        W98914   0.231  10.676   4.604
30521W        W98915  36.136  20.221  13.853
30522W        W98916  15.640  42.219   4.215
30523W        W98917  44.297  22.941  12.181
30524W        W98918  37.046  25.045  12.071
30525W        W98919  23.039  25.289  10.534
30526W        W98920  43.748  27.922   3.484
30527W        W98921  12.864  10.048  11.430
30528W        W98922  28.126   2.856  10.636
30529W        W98923  14.120   9.177   1.692
30530W        W98924  43.408  23.955  12.597
30531W        W98925  26.344   1.276  14.810
30532W        W98926  14.861  13.093  12.504
30533W        W98927  19.457  14.141   3.038
30534W        W98928  20.691   6.265   3.382
30535W        W98929   4.677   4.493   0.388
30536W        W98930   3.509  13.399  13.887
30537W        W98931  12.625  10.634   1.387
30538W        W98932  40.291  35.501   4.641
30539W        W98933  23.896   7.891   2.730
30540W        W98934  16.414  26.422   2.892
30541W        W98935  32.374  27.120  14.019
30542W        W98936  19.458  28.104   2.491
30543W        W98937  15.604  35.035  11.562
30544W        W98938  23.964  34.052   3.538
30545W        W98939  13.109  16.778  11.200
30546W        W98940  32.181  37.427  13.363
30547W        W98941  28.664  40.341   4.148
30548W        W98942   7.390  32.106  14.742
30549W        W98943  15.134  42.606  13.901
30550W        W98944  27.956  18.236  12.171
30551W        W98945  24.537  34.511  12.581
30552W        W98946   2.456  32.887  11.164
30553W        W98947  32.134  38.455  14.786
30554W        W98948   8.965  26.627   3.195
30555W        W98949  17.828  23.948  14.657
30556W        W98950   2.931  30.892  13.468
30557W        W98951  25.175  35.972  12.081
30558W        W98952   8.437  34.989  13.694
30559W        W98953  25.710  40.583  10.615
30560W        W98954  28.039  42.881  13.122
30561W        W98955   2.283  37.066  13.834
30562W        W98956  37.349  24.699   2.762
30563W        W98957  38.791  18.502   0.387
30564W        W98958  16.309  28.632  11.686
30565W        W98959  23.412  23.682  14.530
30566W        W98960  19.792   2.017   4.140
30567W        W98961  27.989  26.390   1.771
30568W        W98962   1.819  13.903   4.123
30569W        W98963   2.763   1.484  11.118
30570W        W98964   3.933   0.016  10.673
30571W        W98965  24.476  18.162  14.319
30572W        W98966  20.683  10.682  11.009
30573W        W98967  10.138   0.318  14.898
30574W        W98968  41.312  44.432  10.475
30575W        W98969   9.419  35.565   3.866
30576W        W98970  42.462  19.601   1.659
30577W        W98971  43.363  22.268  14.319
30578W        W98972  31.115  11.555   2.454
30579W        W98973  23.950  18.994   4.050
30580W        W98974  30.365  23.315  14.761
30581W        W98975   5.308  44.711   1.499
30582W        W98976   5.423  37.942  14.830
30583W        W98977   1.406  36.452  13.896
30584W        W98978  10.615  22.253   4.228
30585W        W98979  10.359  20.932  11.724
30586W        W98980   9.489  23.774  11.045
30587W        W98981  17.905  34.274  12.957
30588W        W98982  27.961  21.719   3.009
30589W        W98983  42.908  19.517  12.464
30590W        W98984  18.058   2.140  10.440
30591W        W98985  16.296  14.659   4.796
30592W        W98986   5.806  42.706   4.068
30593W        W98987   9.045   7.439  11.647
30594W        W98988  18.491  25.466  10.305
30595W        W98989  24.638  39.056   2.300
30596W        W98990  31.415  10.243  13.774
30597W        W98991  15.578  19.322   1.329
30598W        W98992  15.330   4.251  14.939
30599W        W98993   4.471  10.540  14.517
30600W        W98994  19.609  31.762  11.985
30601W        W98995   2.659  15.369  13.844
30602W        W98996  37.811  19.263  13.348
30603W        W98997  35.360  18.776   4.089
30604W        W98998  39.490   6.297  12.075
30605W        W98999  43.659  40.843   1.819
30606W        W99000  11.279  39.616   0.281
30607W        W99001  31.004  26.839   2.815
30608W        W99002   4.764  37.430   5.108
30609W        W99003  17.789  29.661  14.623
30610W        W99004  21.708  11.825   3.093
30611W        W99005   4.207  28.627   2.271
30612W        W99006  10.822  32.076   1.886
30613W        W99007  35.163   0.580  10.346
30614W        W99008  15.464  31.239   0.882
30615W        W99009  41.728   0.680  12.974
30616W        W99010  42.772  10.211   2.578
30617W        W99011  36.084  14.326   1.292
30618W        W99012   4.886  22.820  14.400
30619W        W99013  24.820   4.930  10.134
30620W        W99014  30.168  42.966  12.896
30621W        W99015  43.453  23.678  12.105
30622W        W99016  35.898  25.464  12.221
30623W        W99017  38.875  42.584  11.135
30624W        W99018  23.342  16.465   2.071
30625W        W99019  13.807  40.704   2.671
30626W        W99020  23.433  28.770   2.741
30627W        W99021  14.619  18.213  12.470
30628W        W99022  41.820  37.117  11.340
30629W        W99023  35.021  44.587   1.850
30630W        W99024   1.538  37.944   3.557
30631W        W99025  24.213  21.632   2.204
30632W        W99026   7.239   1.411  13.348
30633W        W99027  44.466  12.326   1.911
30634W        W99028   2.256  42.990   9.855
30635W        W99029  18.605   0.470  12.831
30636W        W99030  15.981  28.261  11.962
30637W        W99031  31.910  21.157   2.692
30638W        W99032  14.332  34.206   1.503
30639W        W99033  13.482  27.090   4.154
30640W        W99034  10.212   2.158   1.085
30641W        W99035  15.674  41.782  10.987
30642W        W99036  13.351   8.718  12.481
30643W        W99037  35.956  12.955  11.324
30644W        W99038   5.244  35.863  14.155
30645W        W99039   1.798   4.146   0.279
30646W        W99040  29.535  16.080  12.888
30647W        W99041   6.802  43.950  10.770
30648W        W99042  24.160   7.426  14.507
30649W        W99043  17.218  43.825  11.246
30650W        W99044  23.585  10.111  12.482
30651W        W99045  15.254  32.393  10.987
30652W        W99046  35.146  43.982  11.721
30653W        W99047   9.142  33.934   4.809
30654W        W99048  20.231  29.137   4.209
30655W        W99049  16.797  31.961  10.726
30656W        W99050  34.484  27.629  14.815
30657W        W99051  24.670  32.067  10.263
30658W        W99052  13.262  36.016  10.775
30659W        W99053  15.767  37.848   0.782
30660W        W99054  44.632  30.585   1.436
30661W        W99055  34.882  31.065  10.466
30662W        W99056  19.164  41.445  11.171
30663W        W99057  10.351  10.789  13.371
30664W        W99058  43.466  41.504  13.895
30665W        W99059   7.999  31.908   4.939
30666W        W99060   3.853   9.866  14.524
30667W        W99061   8.065  39.601  14.005
30668W        W99062  15.259  37.575  11.734
30669W        W99063  15.833  27.961  10.599
30670W        W99064   1.465   9.329  10.628
30671W        W99065  25.554   6.750   2.401
30672W        W99066  26.917  12.822   3.566
30673W        W99067  28.607  41.026  11.949
30674W        W99068  34.063  13.079   1.195
30675W        W99069  26.756   2.744   3.466
30676W        W99070  27.132   9.612   2.830
30677W        W99071  34.390  39.785  13.093
30678W        W99072  34.169  32.993  11.927
30679W        W99073  39.960   1.298   0.758
30680W        W99074  15.676  17.934  12.618
30681W        W99075  42.960   0.762  11.934
30682W        W99076  21.029  16.224   2.775
30683W        W99077   6.164  39.530   1.228
30684W        W99078  38.514  21.306   0.314
30685W        W99079  12.861  30.499   3.275
30686W        W99080  15.067  17.215  11.223
30687W        W99081  16.662  35.853   5.088
30688W        W99082  36.985  36.456   1.783
30689W        W99083  16.731  42.256  14.829
30690W        W99084   4.653  20.188  11.872
30691W        W99085  38.328  33.719  14.770
30692W        W99086   6.987   2.592  10.445
30693W        W99087  20.010  21.909  14.916
30694W        W99088  43.329   3.775  12.241
30695W        W99089   6.452  39.600   4.580
30696W        W99090  18.547  44.849   1.877
30697W        W99091  17.645  37.403   4.091
30698W        W99092   5.337  23.085   2.838
30699W        W99093  14.700  24.210  10.808
30700W        W99094  37.618  18.767   2.873
30701W        W99095  29.136  24.445  12.489
30702W        W99096  44.850  32.035  11.230
30703W        W99097   5.240   2.045   2.136
30704W        W99098  43.448  28.483   1.333
30705W        W99099  24.724  21.106  12.650
30706W        W99100  32.680  10.682   0.777
30707W        W99101   8.420  30.466   2.211
30708W        W99102  43.955   5.743  12.890
30709W        W99103  18.355  18.449   2.665
30710W        W99104   3.759  24.541  13.498
30711W        W99105  23.511  31.660   1.163
30712W        W99106  24.172  26.777   4.968
30713W        W99107  19.473  39.371   0.247
30714W        W99108  26.697  30.266  13.615
30715W        W99109  43.489  43.733  14.901
30716W        W99110  34.192  31.501  10.871
30717W        W99111  28.017  10.699   3.405
30718W        W99112  42.066  12.770   1.150
30719W        W99113  36.110   2.165   2.339
30720W        W99114   3.688  41.969   2.276
30721W        W99115   5.494  34.447  13.801
30722W        W99116  43.530   2.036  12.866
30723W        W99117  17.297  30.077  10.923
30724W        W99118  44.310   7.228   3.215
30725W        W99119  44.759  36.844   4.928
30726W        W99120   8.617   0.437  11.055
30727W        W99121  32.357  19.293   0.271
30728W        W99122   5.277  32.134  13.821
30729W        W99123  13.732  12.318  14.002
30730W        W99124  43.297   2.319   0.434
30731W        W99125  24.252   7.783   4.558
30732W        W99126  37.023  20.066   2.652
30733W        W99127   2.478  36.679   4.197
30734W        W99128  19.910  40.322   2.160
30735W        W99129  17.202  17.010  12.418
30736W        W99130  33.593  11.429   2.219
30737W        W99131  43.365  38.041  12.823
30738W        W99132   2.705  33.222   3.384
30739W        W99133   8.911  37.320   1.913
30740W        W99134  18.228   0.181  13.336
30741W        W99135  15.615  11.846  12.027
30742W        W99136  31.519   8.784  13.822
30743W        W99137  14.645  38.940   3.114
30744W        W99138   2.367  26.912  14.376
30745W        W99139  42.932   3.446   2.707
30746W        W99140  38.538  15.210  14.417
30747W        W99141  25.998  22.017   2.275
30748W        W99142  44.505  32.981   3.601
30749W        W99143  37.822  34.632   3.108
30750W        W99144  13.104  23.646   3.079
30751W        W99145  20.935  13.085   1.684
30752W        W99146  13.235  41.635  10.968
30753W        W99147  30.521   1.164  14.131
30754W        W99148  31.209  18.167   1.826
30755W        W99149  14.653  17.823   2.728
30756W        W99150  11.217   8.278  12.415
30757W        W99151  36.935  25.591  12.115
30758W        W99152  21.850  44.894  13.768
30759W        W99153  21.359   2.354   1.394
30760W        W99154   9.642  16.914  14.224
30761W        W99155  15.709  21.231   1.205
30762W        W99156  30.620  35.135   1.200
30763W        W99157  26.041  24.990   2.221
30764W        W99158  32.103  10.355  11.482
30765W        W99159  37.868  30.842   1.688
30766W        W99160  29.507   3.381   0.445
30767W        W99161  43.828  43.911  12.442
30768W        W99162  28.931   0.590  12.627
30769W        W99163  14.174  18.713   1.241
30770W        W99164  25.411   8.595   3.230
30771W        W99165  31.087  37.077  11.572
30772W        W99166  35.967  32.687  11.641
30773W        W99167  17.791  37.999   3.290
30774W        W99168  11.384  22.567   0.519
30775W        W99169  30.912   6.911  12.914
30776W        W99170  15.906  34.765   0.331
30777W        W99171   7.599  36.847   0.579
30778W        W99172  23.097  23.018  10.916
30779W        W99173  40.044  31.659  13.358
30780W        W99174   2.475  41.743  11.102
30781W        W99175  24.498  32.201   0.393
30782W        W99176  36.939  12.188   4.821
30783W        W99177  20.952  37.060  14.728
30784W        W99178  22.081  36.761  11.610
30785W        W99179   7.184  40.811  13.118
30786W        W99180  17.639  17.541  14.907
30787W        W99181  30.632  37.111  12.948
30788W        W99182  30.837  25.440  13.090
30789W        W99183   1.157  44.988  11.261
30790W        W99184  44.791  17.678   3.720
30791W        W99185  14.602   9.719  12.676
30792W        W99186   9.315  32.328  12.025
30793W        W99187  23.691  18.831  10.820
30794W        W99188  27.126  23.762   0.639
30795W        W99189  11.347  15.685   2.583
30796W        W99190  27.021  33.367   0.319
30797W        W99191  33.868  41.836  12.061
30798W        W99192   5.710  30.339  12.549
30799W        W99193   9.314  16.549   1.129
30800W        W99194   3.805  16.039   0.281
30801W        W99195  33.888  41.800  13.808
30802W        W99196   9.139  35.418  13.022
30803W        W99197   8.250  32.862  10.520
30804W        W99198  36.273  18.283   4.188
30805W        W99199   3.198  44.315  14.474
30806W        W99200  29.978  24.730   4.151
30807W        W99201  14.286  42.217   3.165
30808W        W99202   8.744  30.380  11.427
30809W        W99203  24.764   0.776  10.284
30810W        W99204  33.499  13.864  13.165
30811W        W99205  22.027  27.398  11.147
30812W        W99206   4.261  31.461   1.224
30813W        W99207  10.647  41.454  12.436
30814W        W99208  32.884  39.121   4.592
30815W        W99209  36.810  24.520   0.319
30816W        W99210  17.990  15.541   3.704
30817W        W99211  32.555  23.777   1.478
30818W        W99212  32.860   4.009  12.889
30819W        W99213   6.193  37.399  14.878
30820W        W99214  37.812  29.210   0.865
30821W        W99215  39.327   7.280  14.538
30822W        W99216  11.554  44.872  11.978
30823W        W99217  15.086  24.146   0.348
30824W        W99218  31.538  36.437  14.077
30825W        W99219  42.696  41.091   1.890
30826W        W99220  31.871  36.448  12.702
30827W        W99221  14.715  17.514  13.643
30828W        W99222  30.569  38.424  14.756
30829W        W99223   3.409  40.140  11.191
30830W        W99224  41.542  29.174   4.495
30831W        W99225  16.693  32.464  10.544
30832W        W99226   2.245  23.925  11.186
30833W        W99227  14.165  35.596   3.791
30834W        W99228   3.692  14.220   4.027
30835W        W99229   7.538  40.377  12.266
30836W        W99230   4.222  28.216   4.580
30837W        W99231  43.954  44.775  10.890
30838W        W99232   6.895   3.652   3.674
30839W        W99233  37.971  35.926   0.990
30840W        W99234  16.891  28.326  13.051
30841W        W99235  24.748  25.924   0.357
30842W        W99236  30.397  24.701  11.211
30843W        W99237  39.593  14.641  14.267
30844W        W99238   9.670  19.192   0.286
30845W        W99239  31.237  37.783   3.456
30846W        W99240  12.888  24.540   3.095
30847W        W99241   6.657  19.434  13.949
30848W        W99242  14.414   7.884   3.284
30849W        W99243  28.660  18.392  14.539
30850W        W99244  33.859  10.277   0.036
30851W        W99245  28.742  11.127  11.496
30852W        W99246  10.314   4.895   1.929
30853W        W99247  13.530   4.446   2.909
30854W        W99248  24.282  25.959   2.009
30855W        W99249  36.647  43.046  13.535
30856W        W99250  15.574  26.157  11.374
30857W        W99251  34.732   5.137  11.646
30858W        W99252  37.380   5.876  13.040
30859W        W99253  16.224  16.190   5.065
30860W        W99254   4.862  33.126  12.952
30861W        W99255  43.994   3.757   4.745
30862W        W99256   0.842  34.808   3.262
30863W        W99257   0.738  32.402   0.896
30864W        W99258  35.934  34.296   2.858
30865W        W99259  10.584  12.728  12.333
30866W        W99260  33.035  10.343  13.177
30867W        W99261  10.740  12.070   0.267
30868W        W99262  21.360   1.275  10.656
30869W        W99263  39.180  25.619  13.390
30870W        W99264  30.419  10.416   3.556
30871W        W99265  22.509   1.799   0.344
30872W        W99266  29.889  41.583   4.130
30873W        W99267  30.572  31.943   2.002
30874W        W99268  41.066   2.445  13.067
30875W        W99269   6.168  23.488   1.264
30876W        W99270  43.379  30.116  14.789
30877W        W99271  38.878  35.413  12.636
30878W        W99272   7.140  10.617  13.340
30879W        W99273  35.295   2.069   2.683
30880W        W99274  44.186  25.144   3.368
30881W        W99275  32.097   4.878   0.110
30882W        W99276  30.670  14.850   4.172
30883W        W99277  27.608  23.452  12.834
30884W        W99278   3.831  32.555   1.936
30885W        W99279   8.313  19.262  10.908
30886W        W99280  37.352  34.881   0.802
30887W        W99281  32.555  17.350  10.640
30888W        W99282  17.100  29.920   2.213
30889W        W99283  31.412  39.657  11.223
30890W        W99284  17.081  15.525   3.814
30891W        W99285   1.864  17.080   2.841
30892W        W99286  36.853  10.150   0.967
30893W        W99287  34.708   4.199   4.558
30894W        W99288  16.532   4.698   2.551
30895W        W99289  24.139   4.460   0.056
30896W        W99290   8.680  11.521  14.374
30897W        W99291  18.034  26.463   9.730
30898W        W99292   1.713   7.264  14.440
30899W        W99293  17.816  14.095  12.619
30900W        W99294  10.634  27.324  10.755
30901W        W99295  43.307  32.859  14.988
30902W        W99296  41.912   2.627  12.950
30903W        W99297  40.984   4.482  14.928
30904W        W99298   9.784  35.993  11.233
30905W        W99299  27.678  36.059   0.308
30906W        W99300   8.054  42.438   2.953
30907W        W99301   9.649  11.185  14.501
30908W        W99302  41.924  38.546  11.959
30909W        W99303  16.956  15.300   3.045
30910W        W99304  16.909  12.891  10.809
30911W        W99305  21.893  28.878  11.925
30912W        W99306   6.219  35.975  12.981
30913W        W99307  17.159  43.019   1.116
30914W        W99308   2.273  32.154  13.577
30915W        W99309   9.574  43.964   1.814
30916W        W99310  31.686  35.784   1.459
30917W        W99311  20.074  35.310  13.918
30918W        W99312  12.006  33.230   1.726
30919W        W99313  24.641   2.257  11.195
30920W        W99314   8.305   9.192   0.997
30921W        W99315  13.795  34.581   4.523
30922W        W99316   0.849   3.722  12.028
30923W        W99317  31.035  15.552  12.173
30924W        W99318   7.721  34.878   1.481
30925W        W99319  43.534  11.301  10.804
30926W        W99320   4.409   6.323   4.616
30927W        W99321  20.546  13.552   1.638
30928W        W99322  27.261  15.038   4.557
30929W        W99323   1.749   0.658   0.407
30930W        W99324   9.463  25.244  10.838
30931W        W99325  23.001  12.566   0.833
30932W        W99326  16.651  25.953  10.314
30933W        W99327  18.554   8.033   4.533
30934W        W99328   8.623  32.656  11.899
30935W        W99329  33.304  12.745   3.340
30936W        W99330  32.103  13.160  13.166
30937W        W99331  23.762  34.484   1.389
30938W        W99332  23.543  20.933   3.951
30939W        W99333   9.926  10.329   0.402
30940W        W99334  37.338  25.117  13.321
30941W        W99335  19.809  15.809  11.588
30942W        W99336   8.812  19.845   3.630
30943W        W99337  28.454   5.155  12.975
30944W        W99338  43.299  24.976  11.622
30945W        W99339  11.325  33.818  12.005
30946W        W99340  28.198  29.981  11.537
30947W        W99341  23.723  42.587  13.480
30948W        W99342   6.130  41.225   5.020
30949W        W99343  39.022  34.028  10.804
30950W        W99344  42.790  36.626   2.755
30951W        W99345  10.746  35.901  11.999
30952W        W99346  41.351  12.617  11.698
30953W        W99347  29.622   1.012   5.084
30954W        W99348  15.394  28.861   0.945
30955W        W99349   3.377  33.363  12.071
30956W        W99350   0.915  12.078  13.875
30957W        W99351  26.515   9.107  14.763
30958W        W99352  28.802   7.405   0.002
30959W        W99353  14.298   7.682   2.742
30960W        W99354  23.202  26.734  10.722
30961W        W99355  15.034  25.735   0.798
30962W        W99356   6.281   4.999  10.315
30963W        W99357  27.912  22.323   2.180
30964W        W99358  12.674  32.271  13.020
30965W        W99359   7.155  26.313   5.205
30966W        W99360  35.405  19.094   3.596
30967W        W99361  26.941   1.820   0.337
30968W        W99362  31.180   8.848   3.766
30969W        W99363  27.567  17.197  12.640
30970W        W99364  40.532  31.114  11.130
30971W        W99365  19.383  36.981   1.766
30972W        W99366  10.328  39.780  14.135
30973W        W99367  13.788  38.465   3.766
30974W        W99368  24.816  30.082   3.639
30975W        W99369  13.727   6.480   3.302
30976W        W99370  36.389  44.319  14.493
30977W        W99371  44.444  29.346  14.546
30978W        W99372  43.372  23.706  13.057
30979W        W99373  41.075  42.807   0.875
30980W        W99374  13.403  13.608  10.655
30981W        W99375  22.103   3.846  13.388
30982W        W99376  27.920   1.344   1.835
30983W        W99377   9.095  11.194  11.191
30984W        W99378  36.147  44.198  11.914
30985W        W99379  15.947   2.625  12.391
30986W        W99380   1.821  35.479  14.594
30987W        W99381  21.617  18.473   3.355
30988W        W99382  19.436  21.970  12.745
30989W        W99383  17.745  27.935   1.009
30990W        W99384  32.901   3.112   3.890
30991W        W99385  33.956  30.076  14.208
30992W        W99386  27.113  19.318  13.512
30993W        W99387  41.505  31.936  10.605
30994W        W99388  10.815   1.023  13.372
30995W        W99389  35.433  23.566   3.654
30996W        W99390  41.711  33.497  12.037
30997W        W99391  43.072  24.485   0.694
30998W        W99392   1.262  43.047   1.717
30999W        W99393  42.358  22.337   1.658
31000W        W99394  36.664  34.840   4.872
31001W        W99395   9.283   7.282  11.220
31002W        W99396  12.244  44.245  11.228
31003W        W99397   6.582  21.833   0.469
31004W        W99398  35.305   8.419  13.035
31005W        W99399  16.269   6.935   2.222
31006W        W99400   4.266   8.689  12.893
31007W        W99401  31.386   3.602  13.557
31008W        W99402  37.929  25.785   4.685
31009W        W99403  21.976  28.474   4.169
31010W        W99404   4.203  39.530  14.222
31011W        W99405   1.010  10.919  13.517
31012W        W99406  14.574  28.552   0.803
31013W        W99407  16.617   1.514   2.452
31014W        W99408  44.257   7.307   0.822
31015W        W99409  36.479   1.686  14.891
31016W        W99410  27.674  43.510  12.888
31017W        W99411  30.518  29.610   0.398
31018W        W99412   3.346  21.282  12.137
31019W        W99413  21.510   0.846   2.841
31020W        W99414  41.934  37.102  11.824
31021W        W99415  13.560  24.545   4.794
31022W        W99416  18.054  30.379   2.614
31023W        W99417  35.506  17.290  10.517
31024W        W99418  29.101  35.147  12.102
31025W        W99419   5.361  28.821  11.945
31026W        W99420   8.779   7.632   4.234
31027W        W99421  13.848  23.180   4.368
31028W        W99422  25.813  33.723   0.307
31029W        W99423   9.629  37.169   0.620
31030W        W99424  12.156   0.503  10.939
31031W        W99425  12.842  29.082  12.052
31032W        W99426  36.452   0.462  12.075
31033W        W99427  16.317   1.253  13.452
31034W        W99428  10.708  29.824  12.075
31035W        W99429   2.247  38.320   1.267
31036W        W99430  23.056  40.632   3.400
31037W        W99431  35.500  16.883   3.394
31038W        W99432  38.239  44.480  14.414
31039W        W99433  30.572  31.825   2.902
31040W        W99434  27.814  42.037   4.144
31041W        W99435   2.498  29.960  14.405
31042W        W99436   8.998  27.571  14.599
31043W        W99437  11.115  15.728   0.367
31044W        W99438  36.833  10.344  12.499
31045W        W99439  32.905  38.103  13.952
31046W        W99440  27.184  34.025   2.727
31047W        W99441  44.443  41.610   0.765
31048W        W99442  13.583   8.868  12.980
31049W        W99443  19.093   7.356   1.408
31050W        W99444  10.057   2.873  11.490
31051W        W99445  37.375  16.204   3.157
31052W        W99446   4.860  39.821   1.951
31053W        W99447  34.639  17.249  11.669
31054W        W99448  13.583  29.871   1.774
31055W        W99449  11.943  25.019  13.789
31056W        W99450  33.660  42.527  12.028
31057W        W99451  26.271  29.522   1.661
31058W        W99452  43.536  27.204  12.626
31059W        W99453   6.445   1.432  10.248
31060W        W99454  17.346  15.065   1.404
31061W        W99455  21.981  33.583   1.535
31062W        W99456   6.681  17.146  11.651
31063W        W99457  19.888   9.749  14.864
31064W        W99458  17.274   8.480   3.765
31065W        W99459  18.876  28.039   3.532
31066W        W99460  20.089  13.856   3.605
31067W        W99461  14.978   3.360   1.810
31068W        W99462  37.934   8.735   3.795
31069W        W99463  20.758  31.528  10.680
31070W        W99464  38.789  41.267  14.736
31071W        W99465   2.835  23.796   0.756
31072W        W99466  35.879  34.446   0.378
31073W        W99467  36.295  21.214  11.734
31074W        W99468  37.829  11.291   0.010
31075W        W99469  22.114  30.758  12.952
31076W        W99470  18.966   7.269  10.618
31077W        W99471  11.860  12.874  14.857
31078W        W99472   3.348  36.924  12.626
31079W        W99473  15.782   5.930  12.504
31080W        W99474  23.225  39.614   2.687
31081W        W99475  36.953  11.850  11.577
31082W        W99476  41.534  25.399  12.953
31083W        W99477  32.938   4.801  11.987
31084W        W99478  36.031   1.023   2.734
31085W        W99479   7.243   4.265   1.176
31086W        W99480   6.253  32.485   1.414
31087W        W99481   0.832  41.873   2.719
31088W        W99482  40.293  41.082  11.537
31089W        W99483  29.553  42.259  13.898
31090W        W99484  11.426  11.416  13.874
31091W        W99485  31.931  25.060   3.801
31092W        W99486  23.742  23.747   3.366
31093W        W99487  19.793   3.260   3.621
31094W        W99488   8.243  27.086  13.822
31095W        W99489  10.292  39.542   2.379
31096W        W99490   5.658  13.464  13.742
31097W        W99491  43.811  33.490   0.981
31098W        W99492  21.505  18.730   1.415
31099W        W99493  25.423  18.152   2.821
31100W        W99494  43.806  16.319   2.689
31101W        W99495  37.951  14.527  12.449
31102W        W99496  38.074  26.793   4.600
31103W        W99497  36.772   5.446   3.858
31104W        W99498  32.855  29.016   2.967
31105W        W99499  19.354  16.490  10.301
31106W        W99500   6.422  25.364  11.134
31107W        W99501   7.643  11.764  10.302
31108W        W99502  25.911   0.803  11.957
31109W        W99503  17.877  29.660  12.870
31110W        W99504  26.032  23.969  11.602
31111W        W99505  28.174  16.918   0.316
31112W        W99506   2.825   0.079   4.597
31113W        W99507   4.815  34.165  12.571
31114W        W99508   6.417  39.892  14.992
31115W        W99509  32.908  37.547   5.163
31116W        W99510   3.735  42.239   1.390
31117W        W99511  35.998  21.832  14.515
31118W        W99512  27.132  41.299  12.143
31119W        W99513   0.375  39.869   0.338
31120W        W99514  11.743  29.281   1.809
31121W        W99515  40.578  12.269   0.567
31122W        W99516  36.068  38.594   0.054
31123W        W99517  38.914  19.960   0.678
31124W        W99518  37.967   5.701   2.141
31125W        W99519   4.143   4.266   2.601
31126W        W99520   8.771  36.308   4.097
31127W        W99521  12.229  31.880  13.910
31128W        W99522  22.244  20.183  11.245
31129W        W99523  10.664  16.098  10.865
31130W        W99524  10.178   3.999  10.470
31131W        W99525  32.250  26.210  14.861
31132W        W99526  15.616  23.316  12.690
31133W        W99527  11.679  25.522  12.060
31134W        W99528  14.115  10.656  10.517
31135W        W99529  14.260  17.490   1.268
31136W        W99530   7.203   3.825   4.038
31137W        W99531  18.682   7.444   2.860
31138W        W99532  10.941  33.755   2.388
31139W        W99533  30.956  12.403  11.741
31140W        W99534  35.998  39.075  13.403
31141W        W99535  30.504  38.566   1.755
31142W        W99536  11.703   4.974  11.372
31143W        W99537  21.152   8.332  10.940
31144W        W99538  19.620  15.850  10.204
31145W        W99539  23.589  43.993  11.635
31146W        W99540  19.983   6.727   3.112
31147W        W99541  16.543  38.184   3.881
31148W        W99542  31.163  11.122  12.133
31149W        W99543  32.161   9.780   4.039
31150W        W99544  15.844  44.327   4.807
31151W        W99545  13.199   6.138   5.239
31152W        W99546  20.095  34.470  11.708
31153W        W99547  41.991   1.978   4.027
31154W        W99548  37.339  44.406   0.287
31155W        W99549   2.216   6.124   5.060
31156W        W99550  42.595  30.453   1.388
31157W        W99551  12.145   9.609   0.353
31158W        W99552   1.293  33.524  14.266
31159W        W99553  32.852  37.370  12.938
31160W        W99554  42.070   3.555   1.424
31161W        W99555  28.146  43.360  13.316
31162W        W99556  10.304   0.200  13.041
31163W        W99557  41.987  19.811   1.686
31164W        W99558   4.474  31.055   2.334
31165W        W99559  28.773   8.196   3.160
31166W        W99560  44.424  39.956  12.371
31167W        W99561  36.031   2.908   0.278
31168W        W99562  43.179  34.472  10.645
31169W        W99563   1.006  31.201  13.152
31170W        W99564   9.735   9.288   3.262
31171W        W99565   5.079  41.255  14.023
31172W        W99566  12.562  17.670  10.633
31173W        W99567  29.508  27.967   3.679
31174W        W99568  12.310  33.414  14.873
31175W        W99569  25.304  22.017   4.287
31176W        W99570  35.892  20.945  13.438
31177W        W99571  20.536   1.913   1.118
31178W        W99572  38.277   9.872   1.342
31179W        W99573  31.920  38.047  12.179
31180W        W99574  18.143  23.198   1.178
31181W        W99575   4.462  43.311   2.977
31182W        W99576  22.022  27.692   3.637
31183W        W99577  15.376  41.785  11.978
31184W        W99578   8.169  28.077   1.721
31185W        W99579  24.775  39.218   1.418
31186W        W99580  27.654  30.820  13.773
31187W        W99581   5.191  32.383  11.937
31188W        W99582  12.210  41.088  14.823
31189W        W99583  10.561   3.313  10.492
31190W        W99584  43.037  23.974   2.357
31191W        W99585  22.780  37.862  11.958
31192W        W99586  11.679  20.397  11.205
31193W        W99587  28.505  21.631  10.673
31194W        W99588  15.768  10.303  13.778
31195W        W99589  17.789  17.640   4.451
31196W        W99590  18.544  30.558  12.545
31197W        W99591  38.997   0.578   3.989
31198W        W99592   5.158   9.257  12.821
31199W        W99593   8.228  11.222   1.493
31200W        W99594  10.405  12.971  14.442
31201W        W99595   9.269   1.728  11.024
31202W        W99596   5.136  13.393   3.112
31203W        W99597   3.841  41.037   3.564
31204W        W99598   3.012  13.174  12.553
31205W        W99599  31.980  14.545  10.695
31206W        W99600  29.556  20.617   4.356
31207W        W99601  33.862   4.739   2.596
31208W        W99602  34.052  12.318   0.269
31209W        W99603   2.265  13.824  11.144
31210W        W99604  12.851   7.843   3.784
31211W        W99605  12.339  24.811   0.949
31212W        W99606   1.954  14.223   2.303
31213W        W99607  34.643  33.954   1.753
31214W        W99608  16.443  28.958  14.919
31215W        W99609  31.443  44.348   1.861
31216W        W99610  26.196  42.740   0.303
31217W        W99611  22.033  44.401   4.633
31218W        W99612   1.035  32.506   1.306
31219W        W99613   2.156  15.709   1.897
31220W        W99614  40.989  10.219   1.634
31221W        W99615  41.766   6.175  12.523
31222W        W99616   8.107  20.706   2.241
31223W        W99617  11.121  22.327   4.385
31224W        W99618   2.280   3.484  14.907
31225W        W99619   3.212   2.179  13.413
31226W        W99620  30.367  10.248   2.022
31227W        W99621  18.222  42.571  12.063
31228W        W99622  44.725  38.937  13.360
31229W        W99623  39.991  21.076  13.082
31230W        W99624   1.231  31.394   0.778
31231W        W99625   6.427  14.020  11.114
31232W        W99626  34.441  42.004  10.699
31233W        W99627  17.227  28.634  13.571
31234W        W99628  25.739  10.509   0.852
31235W        W99629   1.361   8.320   2.858
31236W        W99630  14.009  39.879  10.066
31237W        W99631  44.423  37.433   2.383
31238W        W99632   5.390   8.758  14.705
31239W        W99633   1.113  16.850  11.465
31240W        W99634  39.809  13.688  14.937
31241W        W99635  26.423  39.365   2.646
31242W        W99636  11.635   0.237   2.483
31243W        W99637  32.556   3.259   2.779
31244W        W99638  19.205   6.452  11.953
31245W        W99639  19.582  34.630  11.716
31246W        W99640   4.760  14.097   1.676
31247W        W99641   7.922  40.099  14.001
31248W        W99642  35.995   8.604   1.514
31249W        W99643  12.883  34.128  12.712
31250W        W99644  38.302  15.151  14.900
31251W        W99645  22.057  33.893  13.461
31252W        W99646  27.616   2.824  14.770
31253W        W99647   7.853   0.186   2.803
31254W        W99648  34.506  41.882   2.171
31255W        W99649  29.411   7.258  13.563
31256W        W99650  38.800   2.241   0.865
31257W        W99651  23.043  22.346  13.868
31258W        W99652  40.359  35.448  11.350
31259W        W99653  31.581   4.310  10.626
31260W        W99654  41.794   3.414  12.645
31261W        W99655   1.270  36.571  12.543
31262W        W99656  25.221  12.308  13.861
31263W        W99657  32.165  40.325  12.701
31264W        W99658   9.690  19.551  12.587
31265W        W99659   4.472  37.454  10.724
31266W        W99660  14.863   2.418   2.406
31267W        W99661  20.990  29.223   3.041
31268W        W99662   1.114  13.101  11.032
31269W        W99663  40.697  24.696   0.770
31270W        W99664  19.243   6.861  14.850
31271W        W99665  39.254  19.722   0.015
31272W        W99666  38.998  31.010   1.059
31273W        W99667  28.899   1.568  14.706
31274W        W99668   6.186  34.597   3.690
31275W        W99669  36.141  40.784  10.703
31276W        W99670  37.454  10.336  13.767
31277W        W99671   4.570  19.380  14.016
31278W        W99672  20.116  25.175   4.101
31279W        W99673  16.234  20.308  10.421
31280W        W99674   0.620  26.623  10.686
31281W        W99675  10.515  16.120  10.369
31282W        W99676   0.859  36.844  14.842
31283W        W99677   6.851  16.754   0.064
31284W        W99678  41.274  23.658   2.269
31285W        W99679  17.208  44.585   3.928
31286W        W99680  44.041  19.655  13.340
31287W        W99681  44.876  30.133   1.779
31288W        W99682  36.535   2.737   3.460
31289W        W99683   0.128  32.809  13.456
31290W        W99684  31.172  25.436   0.509
31291W        W99685  27.998  28.428   0.398
31292W        W99686   0.348  33.962  10.785
31293W        W99687   4.910  39.086  10.352
31294W        W99688   5.409   7.475   1.834
31295W        W99689  27.219  41.482  12.944
31296W        W99690  29.547   2.353   0.186
31297W        W99691  31.494  26.246  10.938
31298W        W99692  40.774   5.863   1.875
31299W        W99693   7.818  37.144  11.108
31300W        W99694   7.804  10.815  11.878
31301W        W99695  27.042  42.019   9.801
31302W        W99696   0.063  11.620   1.344
31303W        W99697  32.695   7.754   4.871
31304W        W99698   9.678  44.717  10.942
31305W        W99699   7.934  43.971  11.669
31306W        W99700  14.159  13.804   3.319
31307W        W99701  39.489  11.287   0.724
31308W        W99702  13.165  35.518  10.906
31309W        W99703   8.052  43.002   0.721
31310W        W99704  40.064  31.010  14.065
31311W        W99705  14.909  14.738  14.234
31312W        W99706  16.227  38.269  14.809
31313W        W99707   6.655  29.019   3.227
31314W        W99708  22.100  29.628   2.887
31315W        W99709  11.634  20.517   3.284
31316W        W99710  11.784  43.543   1.677
31317W        W99711  41.347  21.301  13.843
31318W        W99712  30.529  30.032   0.985
31319W        W99713  15.706  39.296   0.342
31320W        W99714  10.373  41.423  14.778
31321W        W99715  43.084  23.413  10.162
31322W        W99716   2.230   8.872   1.860
31323W        W99717  40.945  18.781  11.059
31324W        W99718   2.412  42.293  11.967
31325W        W99719  28.198  38.044   0.721
31326W        W99720  14.603   4.164  11.982
31327W        W99721  41.238  21.754  14.059
31328W        W99722  29.043   4.191  10.744
31329W        W99723  14.540  43.342   1.928
31330W        W99724  43.392  40.004   1.153
31331W        W99725   2.805  33.131   2.461
31332W        W99726  40.421  35.270  13.857
31333W        W99727  17.294  41.489  13.219
31334W        W99728  17.839  11.869   3.665
31335W        W99729   6.708  43.973  12.878
31336W        W99730  42.033  32.408  13.800
31337W        W99731  21.523   6.823  14.188
31338W        W99732   4.020  20.689   1.841
31339W        W99733  38.787   6.298   2.602
31340W        W99734   0.867  10.640  12.629
31341W        W99735   2.511  40.363   4.567
31342W        W99736  23.400  23.590   4.866
31343W        W99737  34.081   9.094   3.787
31344W        W99738  29.221  31.431   0.372
31345W        W99739   9.156  43.931   1.507
31346W        W99740  40.550  20.724   2.724
31347W        W99741   5.806  24.004   2.338
31348W        W99742   3.311   7.254   3.652
31349W        W99743  33.548  30.897  13.120
31350W        W99744   2.384   8.585  12.532
31351W        W99745  39.972  18.690   4.666
31352W        W99746  23.022  31.866  13.019
31353W        W99747  10.213  20.821  12.750
31354W        W99748  13.424  37.010  13.486
31355W        W99749  30.012  34.383   4.611
31356W        W99750  15.841  43.567  12.991
31357W        W99751  16.368   4.807   4.763
31358W        W99752  39.112  19.627   1.017
31359W        W99753  27.187  39.952   2.412
31360W        W99754   7.350  12.989  11.068
31361W        W99755  12.490  42.405  13.856
31362W        W99756   8.407  33.121   0.868
31363W        W99757   0.344  18.510   2.919
31364W        W99758   7.780  19.717  14.330
31365W        W99759  23.786  35.261  11.059
31366W        W99760   4.335  11.914  12.844
31367W        W99761  31.486  17.277  11.830
31368W        W99762   1.310  27.426   0.764
31369W        W99763  39.964  37.081  10.027
31370W        W99764   4.171  41.803  13.522
31371W        W99765  32.785  38.489  12.965
31372W        W99766   9.245  14.889  14.875
31373W        W99767  26.102   6.462  11.540
31374W        W99768  27.908  14.757  14.807
31375W        W99769  27.554   8.192  12.433
31376W        W99770  24.452  42.573   2.263
31377W        W99771  19.163  12.223  14.290
31378W        W99772   1.355   4.802   4.152
31379W        W99773  42.394  39.021   5.136
31380W        W99774  41.985  41.816  11.211
31381W        W99775  38.808  17.354   3.301
31382W        W99776  17.121   6.499   1.338
31383W        W99777  12.380  31.967  10.414
31384W        W99778  34.619  36.877  13.004
31385W        W99779  28.473   1.333  14.541
31386W        W99780  26.909  14.675  14.833
31387W        W99781  28.230  14.686   1.442
31388W        W99782  22.190  23.737  14.506
31389W        W99783   0.923   9.194   3.764
31390W        W99784  33.369  42.432   0.321
31391W        W99785  32.432   2.730  10.671
31392W        W99786  26.658  29.488   4.658
31393W        W99787   0.321   2.282  14.843
31394W        W99788  30.891   3.793   0.881
31395W        W99789   8.994  21.160  10.148
31396W        W99790   1.575  21.962   3.593
31397W        W99791  25.548  19.490   0.043
31398W        W99792  14.167  13.207  13.137
31399W        W99793  38.622  42.681  10.657
31400W        W99794  12.230  15.145  12.841
31401W        W99795   3.233  24.986   4.516
31402W        W99796  32.006  27.005   3.635
31403W        W99797  32.848   2.777   4.347
31404W        W99798  31.058  34.926  13.470
31405W        W99799  25.314  18.155  14.419
31406W        W99800  32.481  22.811  10.711
31407W        W99801  33.626  18.268  13.166
31408W        W99802  44.959  38.411   1.794
31409W        W99803   8.319  31.497   4.791
31410W        W99804  22.687   6.550  12.943
31411W        W99805  15.876  13.272   3.239
31412W        W99806   7.870  13.699  12.292
31413W        W99807  35.008   7.001  10.734
31414W        W99808  39.708  38.380   4.916
31415W        W99809   5.334   8.127  13.474
31416W        W99810  26.454   2.970   1.325
31417W        W99811  33.880  17.250   4.951
31418W        W99812  43.176  38.144   2.796
31419W        W99813  24.236  12.399  14.871
31420W        W99814  44.897  32.732   1.714
31421W        W99815  24.914  20.703  14.225
31422W        W99816  32.155  41.479   0.679
31423W        W99817  32.726  24.470   4.208
31424W        W99818  28.953  19.225  14.838
31425W        W99819  30.610  10.161  14.615
31426W        W99820  39.014  42.872   3.861
31427W        W99821  27.557   2.442   2.849
31428W        W99822  20.218  36.444   0.802
31429W        W99823  20.119  12.606  13.574
31430W        W99824  17.545  11.092  13.568
31431W        W99825  30.450  28.737   0.018
31432W        W99826  35.520  15.638   2.799
31433W        W99827  38.473  13.849  11.133
31434W        W99828  29.062   8.186  12.593
31435W        W99829  35.858  20.575   4.609
31436W        W99830  14.244  14.558   0.349
31437W        W99831   0.919  26.457   4.074
31438W        W99832  19.049   5.764  13.882
31439W        W99833   2.506  40.561  14.596
31440W        W99834  11.890  24.552  14.906
31441W        W99835  18.986  12.163  10.724
31442W        W99836   7.096  42.993   0.508
31443W        W99837  39.809  29.210   0.833
31444W        W99838   2.035  12.264  10.154
31445W        W99839   4.669  25.144   0.353
31446W        W99840  18.158  41.215  11.589
31447W        W99841  34.367  35.758   3.330
31448W        W99842  16.598  23.013  12.399
31449W        W99843  15.216  36.931  12.945
31450W        W99844  23.456   8.342  13.092
31451W        W99845  15.572   5.869  13.447
31452W        W99846  38.995  41.975   0.325
31453W        W99847   1.032  12.784   2.393
31454W        W99848   3.240  33.564   2.451
31455W        W99849  40.414  18.262   0.901
31456W        W99850  41.851  13.337   2.294
31457W        W99851  35.334  21.051   0.332
31458W        W99852  25.044   1.340  10.970
31459W        W99853   4.753  10.367   1.738
31460W        W99854  28.163   5.296   4.095
31461W        W99855  38.715  36.255   1.688
31462W        W99856  28.447   3.857  14.495
31463W        W99857  40.913   8.176   4.041
31464W        W99858  16.324   4.221   4.563
31465W        W99859  18.782  36.116  14.826
31466W        W99860  23.247  12.446   5.110
31467W        W99861   3.228  26.635  10.635
31468W        W99862   0.543   9.240  11.582
31469W        W99863  30.241  27.270  13.123
31470W        W99864  27.264  36.570   3.768
31471W        W99865  29.069  25.814   3.295
31472W        W99866  15.030  40.091   3.200
31473W        W99867  14.759  22.568   4.401
31474W        W99868  40.726  23.856  14.718
31475W        W99869  32.992  19.091  11.692
31476W        W99870   3.279   5.004  11.249
31477W        W99871  34.961  40.310   0.708
31478W        W99872   6.369  36.009   5.005
31479W        W99873  37.518  22.102   4.600
31480W        W99874  29.656  36.907  12.555
31481W        W99875  25.370   4.358  12.347
31482W        W99876  42.349   2.429   3.538
31483W        W99877  15.705   5.502   1.342
31484W        W99878  36.343   0.289  11.609
31485W        W99879  39.495  27.153   3.245
31486W        W99880  21.535  20.888   0.249
31487W        W99881  28.854  39.347   2.296
31488W        W99882  24.586  44.455  13.369
31489W        W99883  23.057  20.026   0.901
31490W        W99884  17.097  21.222   0.525
31491W        W99885  38.743  42.924   2.912
31492W        W99886  33.103  39.996   2.055
31493W        W99887  16.881   9.814   2.909
31494W        W99888  42.472  38.824  13.090
31495W        W99889  35.040  42.016   4.108
31496W        W99890   7.850  24.706   0.766
31497W        W99891  30.979  12.710   1.679
31498W        W99892  16.733  39.772  13.040
31499W        W99893  13.805  43.235  12.453
31500W        W99894  26.177  14.849   0.401
31501W        W99895  44.876   7.609   0.473
31502W        W99896  40.810  23.599   2.462
31503W        W99897  24.408   3.988  12.305
31504W        W99898   8.966  30.512   2.281
31505W        W99899  37.583  25.986   5.061
31506W        W99900  38.348  34.581  10.916
31507W        W99901  31.056   5.826   3.268
31508W        W99902   9.189   5.867  11.927
31509W        W99903  20.654  19.562   4.923
31510W        W99904  38.637  41.826  12.459
31511W        W99905  31.946  17.238  13.350
31512W        W99906   1.214   0.340  12.543
31513W        W99907  37.569  31.001   1.008
31514W        W99908  13.752   9.792   1.296
31515W        W99909  31.433  28.425   3.847
31516W        W99910  23.821  29.277   0.237
31517W        W99911  28.480  25.335   2.372
31518W        W99912  32.494  27.712  10.005
31519W        W99913  37.483  36.119   2.933
31520W        W99914  12.234  22.441   1.386
31521W        W99915  34.667  26.985   3.181
31522W        W99916  32.587  33.022   1.574
31523W        W99917  36.325  19.029  13.391
31524W        W99918  30.913  40.395  13.909
31525W        W99919   5.840   2.192  11.833
31526W        W99920  21.070   3.892  13.311
31527W        W99921  17.277  20.253   0.586
31528W        W99922  30.995   1.799  12.534
31529W        W99923  10.214  16.252  11.177
31530W        W99924  17.691  16.804  12.406
31531W        W99925  17.883  39.831   1.527
31532W        W99926   1.065  12.314  13.011
31533W        W99927  15.860  38.578   1.872
31534W        W99928   2.253   5.418  12.454
31535W        W99929  13.765  25.657  10.689
31536W        W99930  13.627  41.798  12.220
31537W        W99931  14.361   6.645   0.771
31538W        W99932  11.462   2.313   1.214
31539W        W99933  43.533  20.128   4.101
31540W        W99934   7.295  41.495  11.590
31541W        W99935  23.269  29.459   3.323
31542W        W99936  18.052  15.282  14.278
31543W        W99937  11.156  13.094   1.500
31544W        W99938  28.698   1.300   1.481
31545W        W99939   1.223  20.277   2.797
31546W        W99940  32.680   2.781   2.507
31547W        W99941  32.164  39.016  14.829
31548W        W99942  29.273   9.340  14.420
31549W        W99943  40.509  28.721  14.411
31550W        W99944  41.037  27.336  14.978
31551W        W99945  10.957  18.577   1.389
31552W        W99946  43.996  20.104   2.179
31553W        W99947   2.278  24.542  13.557
31554W        W99948   2.786   8.450  14.422
31555W        W99949  13.309  17.658   3.674
31556W        W99950  30.243  25.731  13.931
31557W        W99951  12.195   1.239  11.541
31558W        W99952  20.635  15.616  14.748
31559W        W99953  12.297  12.240   2.093
31560W        W99954  24.470  17.089  14.024
31561W        W99955  33.118   7.844   4.543
31562W        W99956  10.146   7.726   3.176
31563W        W99957  21.028  16.206  13.876
31564W        W99958  26.080  39.356  11.993
31565W        W99959  29.377  11.153  14.800
31566W        W99960  21.774   4.528   3.584
31567W        W99961  21.592   3.018  13.856
31568W        W99962  19.857  28.701   1.292
31569W        W99963  31.422   5.985  14.322
31570W        W99964  35.985  26.493  13.065
31571W        W99965  25.979  43.833   3.181
31572W        W99966   8.253  34.438   0.414
31573W        W99967  43.865   4.340  13.370
31574W        W99968  20.014  38.110   3.294
31575W        W99969   9.891  32.100   0.414
31576W        W99970  44.448  12.393  12.646
31577W        W99971  29.951  44.455  12.938
31578W        W99972  19.284   2.210  11.290
31579W        W99973  36.913  20.694  10.748
31580W        W99974  22.519  28.849  13.294
31581W        W99975   8.196  10.782   2.875
31582W        W99976  12.055  26.122  10.602
31583W        W99977   2.490  13.835   3.599
31584W        W99978  44.876  32.840   2.793
31585W        W99979  18.510  40.673   2.307
31586W        W99980  27.037  39.021  14.919
31587W        W99981  32.476  13.026   4.665
31588W        W99982  36.327  10.633   2.822
31589W        W99983  43.362  14.243   3.794
31590W        W99984  11.711  36.282  13.037
31591W        W99985   0.372   5.442   3.180
31592W        W99986  41.960  10.385  11.635
31593W        W99987  26.014  41.544   2.402
31594W        W99988  31.439   0.477  13.990
31595W        W99989   1.980  43.355  13.366
31596W        W99990  28.636  22.658  13.583
31597W        W99991   4.901  30.950   0.891
31598W        W99992  32.905  20.048  13.817
31599W        W99993  12.248  20.357  12.455
31600W        W99994  35.613  41.710   1.382
31601W        W99995  13.658  35.043   2.290
31602W        W99996  22.921   1.367  11.519
31603W        W99997  13.921  10.310  14.463
31604W        W99998  29.686   1.081  13.643
31605W        W99999   0.331  25.301  14.475
31606W        W    0  42.795  24.687   4.591
31607W        W    1   6.851   6.325  10.152
31608W        W    2  26.977  39.265   1.987
31609W        W    3  17.172  25.087   0.522
31610W        W    4  39.182  39.322   0.763
31611W        W    5  21.258   5.666   0.778
31612W        W    6  33.553  13.559  13.592
31613W        W    7   2.398  43.086   0.849
31614W        W    8  19.878  13.895   0.060
31615W        W    9  13.229  40.181   2.194
31616W        W   10  30.490  39.947   2.311
31617W        W   11  16.211   2.748   2.796
31618W        W   12  39.436  10.358  12.549
31619W        W   13  33.485  14.627   0.270
31620W        W   14  18.308  21.048   5.024
31621W        W   15  32.621  26.685  14.025
31622W        W   16  37.530   3.015   4.137
31623W        W   17  23.631  34.123  13.793
31624W        W   18  20.291  27.031   2.306
31625W        W   19  10.237   5.206  12.411
31626W        W   20   8.402  43.772   2.621
31627W        W   21  41.791  15.822   3.924
31628W        W   22  13.096  26.648  12.425
31629W        W   23  38.910  11.241   1.770
31630W        W   24  25.715   4.786  12.394
31631W        W   25  24.486  40.470  13.297
31632W        W   26   7.213  30.465  13.563
31633W        W   27  43.864  11.586   3.835
31634W        W   28   5.280  38.371  14.546
31635W        W   29   2.376   3.370   3.598
31636W        W   30   5.883  32.895   0.319
31637W        W   31  28.032  17.111  11.380
31638W        W   32  18.125  26.169   0.893
31639W        W   33  13.429   4.290  10.700
31640W        W   34   2.258  41.798   1.432
31641W        W   35  20.269  44.457  12.105
31642W        W   36  42.337  36.926   2.807
31643W        W   37  15.347   8.990  10.347
31644W        W   38  43.778  31.587   0.877
31645W        W   39  36.248  26.623   2.345
31646W        W   40   4.948  21.330   3.885
31647W        W   41   8.805  34.611   3.632
31648W        W   42  41.871  21.982  13.198
31649W        W   43   7.612  10.808  11.402
31650W        W   44  33.413  39.360   4.338
31651W        W   45  38.425  11.614   3.442
31652W        W   46  13.962  33.988   0.243
31653W        W   47  43.458  12.864  14.543
31654W        W   48  36.134  43.521  13.880
31655W        W   49  21.946  10.643   2.772
31656W        W   50   1.517   7.272  12.038
31657W        W   51  35.475  33.833   2.419
31658W        W   52   4.132   8.889   4.561
31659W        W   53  18.583  18.748  13.114
31660W        W   54  26.241  14.500   3.228
31661W        W   55  44.910  43.498  11.720
31662W        W   56  23.995  17.642   4.503
31663W        W   57  44.344  23.557   2.617
31664W        W   58  15.904  19.826   1.696
31665W        W   59   7.767  15.302  12.897
31666W        W   60  28.002  25.889   4.697
31667W        W   61  34.939   2.137   0.862
31668W        W   62  27.471  38.624   2.176
31669W        W   63  40.271  43.496  10.635
31670W        W   64  28.200   6.835   3.669
31671W        W   65   4.197  32.772   0.701
31672W        W   66  10.138  26.422   0.340
31673W        W   67   6.373  40.766  10.907
31674W        W   68  40.366  18.175  14.446
31675W        W   69  33.126  21.739   4.177
31676W        W   70  21.294  35.953   0.942
31677W        W   71  19.739  11.628  12.422
31678W        W   72   7.963   4.344   4.060
31679W        W   73  34.212  15.668  11.509
31680W        W   74  36.184  36.069  11.473
31681W        W   75  21.840   0.267   1.922
31682W        W   76  40.142  22.984  11.484
31683W        W   77  39.525  18.656   4.921
31684W        W   78  39.893  22.667  13.263
31685W        W   79   0.956   9.603   1.841
31686W        W   80  31.149  35.417   4.687
31687W        W   81  32.371  43.376   3.143
31688W        W   82  19.857  14.216   2.656
31689W        W   83  28.417  16.030  14.805
31690W        W   84  27.896  24.335  11.686
31691W        W   85   4.640  23.198  14.145
31692W        W   86  10.016  21.322  10.218
31693W        W   87  13.098  31.650  13.404
31694W        W   88  34.824  44.417   4.502
31695W        W   89  38.919  44.432  11.760
31696W        W   90  41.521  29.153   3.951
31697W        W   91  16.313  37.800  14.531
31698W        W   92  20.147  42.193  10.676
31699W        W   93  11.410  15.835   0.790
31700W        W   94  31.004  28.953  13.266
31701W        W   95  25.603  12.622   0.474
31702W        W   96  35.124  44.734   4.198
31703W        W   97   6.755  11.951  11.649
31704W        W   98   4.242  39.467   0.713
31705W        W   99  39.494  30.461  14.079
31706W        W  100   9.879  13.174  12.786
31707W        W  101   0.842   7.689  13.515
31708W        W  102  11.311   7.477  12.041
31709W        W  103  37.392  37.251   1.759
31710W        W  104  22.218  12.196  13.922
31711W        W  105  22.701  23.262  11.187
31712W        W  106  35.102   0.460  12.887
31713W        W  107  27.007  16.150   1.188
31714W        W  108  43.242  33.538  10.781
31715W        W  109  16.426  28.859   3.639
31716W        W  110  17.621  15.059  11.584
31717W        W  111  16.583  14.219   5.092
31718W        W  112   0.731  32.140  14.737
31719W        W  113  28.064  11.934   4.484
31720W        W  114  34.775  26.557   1.197
31721W        W  115  20.684  13.006  10.351
31722W        W  116  44.422  14.809   3.391
31723W        W  117  25.642  38.427   0.069
31724W        W  118  13.173  39.984  12.392
31725W        W  119  21.043  27.596  12.871
31726W        W  120  34.193  15.747   1.975
31727W        W  121  37.073  25.703  11.117
31728W        W  122   7.356  18.551   2.576
31729W        W  123  24.214  40.887   1.421
31730W        W  124  27.661   1.429   3.721
31731W        W  125  32.857  20.000   0.974
31732W        W  126  30.664  36.521   4.797
31733W        W  127   1.531  11.735  10.622
31734W        W  128  41.289  29.056   1.745
31735W        W  129  21.175   8.378  12.934
31736W        W  130   1.992  28.077   0.811
31737W        W  131  36.664  17.212  14.477
31738W        W  132   0.598  22.239   2.111
31739W        W  133   2.368  13.171  12.074
31740W        W  134  14.133  36.860   0.206
31741W        W  135  19.333  40.787   3.536
31742W        W  136  31.786  17.171   5.139
31743W        W  137  31.682  30.982  14.844
31744W        W  138  39.573  20.671  13.988
31745W        W  139  21.822  26.301   3.944
31746W        W  140   4.432  13.239  13.460
31747W        W  141   7.736  22.532   2.893
31748W        W  142  31.998   9.202   0.235
31749W        W  143  22.005   6.957  14.126
31750W        W  144  25.997  10.151   1.283
31751W        W  145  28.166   3.510  14.781
31752W        W  146  20.323  38.917  12.007
31753W        W  147   7.218   7.932   2.651
31754W        W  148  19.768   6.700   4.029
31755W        W  149  38.101  11.680   1.199
31756W        W  150  28.155  12.139   3.496
31757W        W  151  25.926  33.009   1.704
31758W        W  152  35.565   1.358  11.606
31759W        W  153  39.489  37.873   0.083
31760W        W  154   2.802  19.659  14.612
31761W        W  155  22.278   5.684  10.444
31762W        W  156   4.470  22.489   4.584
31763W        W  157  30.677  31.181  11.162
31764W        W  158   4.445  34.349   0.516
31765W        W  159  12.102  14.382   3.083
31766W        W  160   1.089  22.120  12.932
31767W        W  161  19.193  40.931  14.309
31768W        W  162  12.039   3.773   3.813
31769W        W  163  40.818  36.538   2.990
31770W        W  164  26.000   3.444   0.968
31771W        W  165  18.543  18.793   1.298
31772W        W  166  14.446  28.173   3.235
31773W        W  167   3.100  11.817  14.357
31774W        W  168  37.769  28.108  14.704
31775W        W  169  12.722  14.155  14.285
31776W        W  170  39.982  33.974  10.392
31777W        W  171   8.174  33.521  12.933
31778W        W  172   0.733  16.514   2.176
31779W        W  173  11.356  29.615  11.664
31780W        W  174   5.210   8.559  11.794
31781W        W  175  18.350  26.268   1.349
31782W        W  176  20.162  28.949   1.628
31783W        W  177  23.537  10.380   1.293
31784W        W  178  43.881   6.215  12.332
31785W        W  179  14.811   8.981  10.538
31786W        W  180  24.694  39.403  12.298
31787W        W  181  38.259  19.727  12.459
31788W        W  182   2.958   5.224   4.919
31789W        W  183  40.550  29.094   4.251
31790W        W  184  36.212  29.085   2.455
31791W        W  185  30.535   1.459   3.221
31792W        W  186   6.066  36.072  11.194
31793W        W  187  28.193  26.951  13.167
31794W        W  188  29.053  18.184   4.140
31795W        W  189   3.435   7.611   1.714
31796W        W  190  12.721   2.411  14.013
31797W        W  191  15.043   3.879  11.955
31798W        W  192   3.699   3.332   3.831
31799W        W  193  30.535  10.703  10.936
31800W        W  194   0.376   7.915  13.568
31801W        W  195  44.889  38.341  11.669
31802W        W  196  33.846  43.758  11.877
31803W        W  197   8.797   0.391   2.672
31804W        W  198   1.387  36.145  13.483
31805W        W  199  23.066   3.356   4.966
31806W        W  200  13.521  21.615   2.719
31807W        W  201  23.579  30.587  12.832
31808W        W  202  42.830  44.004   4.869
31809W        W  203  29.488  36.459   0.415
31810W        W  204   9.688  38.963   4.277
31811W        W  205  14.742  35.452   0.264
31812W        W  206  34.758   9.785  10.542
31813W        W  207  38.933  15.035   2.582
31814W        W  208  29.468  32.604  13.260
31815W        W  209  17.143  13.684   3.538
31816W        W  210  39.096  25.677   3.864
31817W        W  211  42.856  42.886   4.125
31818W        W  212  14.019  37.788   5.496
31819W        W  213  41.311  37.981   1.260
31820W        W  214  19.543  11.856   1.580
31821W        W  215  30.587  44.981   3.125
31822W        W  216  35.522  43.737  11.077
31823W        W  217  13.860  16.073  13.103
31824W        W  218  28.599  13.436  10.837
31825W        W  219  44.273  32.839   1.640
31826W        W  220   6.547  18.549   2.100
31827W        W  221  28.896  35.833   2.386
31828W        W  222   2.610   0.974  11.199
31829W        W  223  44.806  23.430   0.593
31830W        W  224  26.531  37.723  14.955
31831W        W  225  44.041  29.044  14.526
31832W        W  226   9.165   5.861   4.066
31833W        W  227   8.367   7.819  13.453
31834W        W  228  44.468  19.985   2.384
31835W        W  229   1.494  21.649   0.806
31836W        W  230  23.722  38.612   1.170
31837W        W  231  16.015  33.909   0.186
31838W        W  232  27.041  18.727   4.592
31839W        W  233   7.767  32.954   1.812
31840W        W  234  38.707  24.946  13.364
31841W        W  235  16.289  43.559   1.278
31842W        W  236   0.902   1.952   9.974
31843W        W  237  25.141  36.855   1.234
31844W        W  238  24.943  31.232   1.965
31845W        W  239  14.242  14.667   1.289
31846W        W  240  21.072   5.892  12.884
31847W        W  241  21.208  12.475   0.232
31848W        W  242  35.964  11.091   4.630
31849W        W  243  33.726  43.326   4.477
31850W        W  244  32.426  31.148  14.377
31851W        W  245   5.354  44.691   0.926
31852W        W  246  14.756  21.261   2.665
31853W        W  247  17.881  27.159  12.293
31854W        W  248  42.057  34.051   4.724
31855W        W  249  34.092  14.355   1.244
31856W        W  250  31.502  21.023   1.973
31857W        W  251  24.092  11.840   5.627
31858W        W  252   3.647  25.037  14.212
31859W        W  253   4.079  12.684   5.465
31860W        W  254  17.289   0.560  14.030
31861W        W  255  26.210  25.031   0.780
31862W        W  256  10.088  44.916  13.638
31863W        W  257   2.432  10.341   3.793
31864W        W  258  34.065  34.859   3.741
31865W        W  259  23.683  24.708  12.018
31866W        W  260  30.933  22.048  12.359
31867W        W  261   1.513  43.590   2.668
31868W        W  262   6.697  18.677  10.628
31869W        W  263  34.433  15.397  12.336
31870W        W  264   2.405   1.376   4.637
31871W        W  265  14.883  29.954  12.585
31872W        W  266  22.073  41.004  14.296
31873W        W  267   6.630  19.710   3.982
31874W        W  268  30.177  32.908  14.910
31875W        W  269  16.146  19.333   4.629
31876W        W  270  18.635  34.835   2.725
31877W        W  271   1.920  39.159   0.929
31878W        W  272  18.941  16.226  11.399
31879W        W  273  11.534  19.211  12.979
31880W        W  274  40.295  29.130   2.760
31881W        W  275  20.927  35.998  10.359
31882W        W  276  15.538   6.198   0.947
31883W        W  277  38.857  31.508  11.799
31884W        W  278  30.321  11.264   3.952
31885W        W  279  13.839  15.329   0.283
31886W        W  280  36.934  33.479   4.067
31887W        W  281   6.997  26.458  14.808
31888W        W  282  19.245  16.751  11.616
31889W        W  283  22.530  29.571  10.411
31890W        W  284   7.798  42.093   3.279
31891W        W  285  37.679  40.148   0.868
31892W        W  286  24.319  39.152  11.519
31893W        W  287  27.336   1.732  11.000
31894W        W  288  21.234  29.170   0.875
31895W        W  289  17.552   7.815   2.263
31896W        W  290  10.731   6.296  12.921
31897W        W  291  11.545  20.294  13.125
31898W        W  292  35.118  13.357   0.101
31899W        W  293   9.623  21.479   1.009
31900W        W  294   1.722  18.233  11.397
31901W        W  295  16.314  17.472  14.017
31902W        W  296  31.037   1.408  12.876
31903W        W  297  26.186  23.619   4.373
31904W        W  298  22.789  26.166   2.317
31905W        W  299  15.373  10.597  14.394
31906W        W  300   6.780   1.966  13.866
31907W        W  301  34.175  24.199  12.497
31908W        W  302   0.741  19.760  10.406
31909W        W  303  13.213   1.961   1.185
31910W        W  304  22.165  22.193   3.226
31911W        W  305   7.425   5.624  13.004
31912W        W  306  44.845  26.411  11.126
31913W        W  307   5.174  16.188   0.674
31914W        W  308  15.206  14.911  14.710
31915W        W  309  31.704  20.354  13.448
31916W        W  310  21.609  34.379   0.973
31917W        W  311  29.945  14.332  12.471
31918W        W  312  37.547  16.228  10.807
31919W        W  313  28.599  28.985   4.139
31920W        W  314  35.621  30.646  13.978
31921W        W  315   8.514  14.692   2.648
31922W        W  316   0.849  26.644  14.064
31923W        W  317   3.629  28.150  13.516
31924W        W  318  14.630  12.626  13.779
31925W        W  319   3.886   4.547  14.886
31926W        W  320  22.799  16.266   2.712
31927W        W  321  33.368  11.825   3.752
31928W        W  322   2.197   6.554  14.849
31929W        W  323  36.108  28.989  11.509
31930W        W  324   4.072   5.833  12.280
31931W        W  325  15.545  19.286  13.557
31932W        W  326  42.714   4.458  11.229
31933W        W  327   4.978   3.172   2.363
31934W        W  328   9.029  33.297   2.379
31935W        W  329   1.285   9.246  12.132
31936W        W  330  31.140  20.098   0.461
31937W        W  331  18.259  15.667   0.777
31938W        W  332  12.348  33.424  13.989
31939W        W  333  35.005  40.544   3.779
31940W        W  334  36.897   8.781   1.682
31941W        W  335  26.556  41.837   9.850
31942W        W  336  34.633   5.414   4.635
31943W        W  337   3.955  16.964  10.746
31944W        W  338  38.963   4.720  11.454
31945W        W  339   0.426  31.405  13.054
31946W        W  340   1.308  10.746   4.373
31947W        W  341  15.381  24.266   5.059
31948W        W  342  29.611  27.050  14.317
31949W        W  343  39.852  43.998  11.532
31950W        W  344  15.918  23.358   2.226
31951W        W  345  40.536  15.157  14.742
31952W        W  346  20.709  43.702  12.298
31953W        W  347  31.359  38.199   3.799
31954W        W  348  25.804  25.812   1.427
31955W        W  349  17.613  39.424   1.672
31956W        W  350  44.551   3.500  13.411
31957W        W  351  27.881  44.819  11.367
31958W        W  352  27.160   5.401  13.897
31959W        W  353   4.789  15.311   1.884
31960W        W  354   3.862  41.883   4.079
31961W        W  355   7.290  14.035  11.194
31962W        W  356   2.979  18.141   4.551
31963W        W  357  23.616   2.711   4.561
31964W        W  358  44.413  18.198  13.758
31965W        W  359   5.811  35.132   0.338
31966W        W  360  28.616  27.949   0.813
31967W        W  361  12.794   0.022   2.664
31968W        W  362  26.262  31.018   1.438
31969W        W  363  31.584  20.354  15.000
31970W        W  364  38.961   8.819  13.896
31971W        W  365   5.156  33.173   2.311
31972W        W  366   3.682  38.974  13.446
31973W        W  367   2.789  35.862   4.141
31974W        W  368  28.003  18.495  13.018
31975W        W  369   2.193   5.874   4.251
31976W        W  370  28.257  37.383  13.846
31977W        W  371  13.985   6.893  11.672
31978W        W  372  41.807  30.506   1.048
31979W        W  373  28.046   5.031  11.668
31980W        W  374   7.644  41.298   4.113
31981W        W  375  28.696  29.151   0.258
31982W        W  376  18.825  41.090  10.989
31983W        W  377   4.794  19.517  12.235
31984W        W  378  28.070  26.921  10.403
31985W        W  379  20.810   8.067   1.951
31986W        W  380  39.771  21.566   3.684
31987W        W  381  35.009  20.244  12.060
31988W        W  382  18.144  13.768   0.946
31989W        W  383  19.307  27.853   0.450
31990W        W  384  15.093  22.711   2.153
31991W        W  385  31.908   4.006  14.392
31992W        W  386  35.954  12.266  10.681
31993W        W  387  43.058  13.850   4.770
31994W        W  388  35.014  11.761   2.311
31995W        W  389   1.922   7.232  13.597
31996W        W  390  10.857  27.179  12.458
31997W        W  391   4.413  17.593   0.754
31998W        W  392  36.537  20.284  10.780
31999W        W  393   5.748  25.747  11.883
32000W        W  394  28.424  19.798   0.440
32001W        W  395  41.898  14.457  14.999
32002W        W  396  14.370  19.298   0.728
32003W        W  397  21.208  16.729  11.958
32004W        W  398  22.234  11.297   4.533
32005W        W  399  19.769  10.662  11.129
32006W        W  400  30.513  44.233   1.836
32007W        W  401  35.700   7.072  14.631
32008W        W  402  34.900   7.195   2.201
32009W        W  403  27.086   2.406  11.580
32010W        W  404  20.462   4.938  13.523
32011W        W  405  20.621  18.021  11.140
32012W        W  406  26.440  35.418   0.637
32013W        W  407  10.507  39.279   1.090
32014W        W  408  35.661  36.509   4.229
32015W        W  409  36.960  34.517  10.663
32016W        W  410   6.673   5.762   2.863
32017W        W  411  31.548  27.433  13.998
32018W        W  412  43.895   5.453   0.921
32019W        W  413  14.092  41.926   3.609
32020W        W  414  12.553  14.666  14.075
32021W        W  415  22.139  19.026  13.086
32022W        W  416  44.907  34.902   2.829
32023W        W  417   0.400   0.266   1.194
32024W        W  418  33.242   3.918  11.535
32025W        W  419   2.521  18.109   3.690
32026W        W  420   3.679   0.981   3.770
32027W        W  421  12.902   3.842  13.970
32028W        W  422   3.455  14.667  14.355
32029W        W  423   9.933  13.132   2.426
32030W        W  424  40.469  27.523  13.829
32031W        W  425  33.913  19.809   4.123
32032W        W  426  19.555  16.915   0.858
32033W        W  427  37.563  25.597   2.381
32034W        W  428  11.049  28.085   4.504
32035W        W  429  27.581  25.020  11.040
32036W        W  430  22.067  30.857   2.225
32037W        W  431  34.146   5.904  12.753
32038W        W  432   4.238  20.212   1.851
32039W        W  433  34.875  34.114  10.506
32040W        W  434  20.563  21.930  14.762
32041W        W  435   1.211  24.959   3.128
32042W        W  436  43.720  20.190  14.760
32043W        W  437  36.660  40.488  13.049
32044W        W  438   6.548  30.118   5.061
32045W        W  439   8.782   5.585   3.336
32046W        W  440  27.560  12.756  13.170
32047W        W  441  31.792  16.259  14.946
32048W        W  442  44.898  13.904  13.631
32049W        W  443  12.848  27.300  10.704
32050W        W  444  15.658  28.639   0.493
32051W        W  445  31.333  33.161   4.570
32052W        W  446  24.207  44.332   2.923
32053W        W  447  15.272  23.609   3.406
32054W        W  448  34.990  41.303  11.620
32055W        W  449  35.500  21.298  13.459
32056W        W  450  39.376  26.070   1.662
32057W        W  451  37.478  28.185   2.846
32058W        W  452   7.737  12.651   0.167
32059W        W  453  24.354  28.094  11.671
32060W        W  454   0.832   4.952   2.782
32061W        W  455   6.911  17.997  13.858
32062W        W  456   9.775  38.281  11.044
32063W        W  457  12.733   0.523   1.605
32064W        W  458  33.943  14.690   3.877
32065W        W  459  31.545  31.993   3.271
32066W        W  460   9.917  21.150  13.585
32067W        W  461  22.979   2.431   2.953
32068W        W  462  23.057  39.470  14.285
32069W        W  463  16.853  18.651   1.356
32070W        W  464  27.122  17.742  14.273
32071W        W  465   2.347  14.085   2.005
32072W        W  466  20.997  17.508   0.638
32073W        W  467  28.395  15.207   4.310
32074W        W  468  19.191  26.430  11.946
32075W        W  469   8.281  20.083  12.274
32076W        W  470  43.132  13.587  13.318
32077W        W  471  40.079   2.960   3.791
32078W        W  472  20.515   8.339   0.649
32079W        W  473  17.020  18.148   1.642
32080W        W  474  12.981   2.908   1.712
32081W        W  475  43.487  25.209   0.703
32082W        W  476  37.511  31.859   4.498
32083W        W  477   9.741  20.053   1.150
32084W        W  478   5.841  21.652   3.449
32085W        W  479  28.287  15.265   2.794
32086W        W  480  23.141  19.997  14.777
32087W        W  481  16.080  25.252   2.408
32088W        W  482   1.388   9.071  11.052
32089W        W  483  42.732  21.155   2.285
32090W        W  484  40.211   5.195   3.264
32091W        W  485   2.238   8.623  11.286
32092W        W  486  12.321   4.946  10.454
32093W        W  487  20.078  30.023  10.823
32094W        W  488  33.124  23.532   2.304
32095W        W  489  26.754   3.786  14.980
32096W        W  490  24.105  12.363  13.945
32097W        W  491  21.265  17.686  10.702
32098W        W  492  13.549   9.593   9.890
32099W        W  493  43.984  34.816  14.314
32100W        W  494   3.949   0.190   2.827
32101W        W  495  24.012  24.972  13.472
32102W        W  496   0.923  23.189  10.620
32103W        W  497  41.993  32.917   0.726
32104W        W  498  31.820   9.160   2.348
32105W        W  499  19.310  11.730  10.757
32106W        W  500   0.109   1.832   0.365
32107W        W  501  20.682  31.993  14.845
32108W        W  502  12.328  26.594  13.895
32109W        W  503  21.038  18.151  13.976
32110W        W  504   4.900   6.566   4.703
32111W        W  505   6.383   8.056  12.553
32112W        W  506  13.270  10.299   1.321
32113W        W  507  44.961  25.064   4.015
32114W        W  508  34.990   7.135   1.669
32115W        W  509  25.474  44.058  12.403
32116W        W  510   7.649  33.094  11.890
32117W        W  511  10.717  42.199   0.705
32118W        W  512  21.907  35.406   0.287
32119W        W  513   9.488   0.398  13.142
32120W        W  514  15.093  12.752  11.542
32121W        W  515  17.403  34.953   4.165
32122W        W  516  31.347  10.868  14.591
32123W        W  517  36.658  26.283   4.349
32124W        W  518   1.729   3.995  14.137
32125W        W  519  41.959  19.000  14.852
32126W        W  520  22.437  15.954   2.283
32127W        W  521  28.702  38.813   4.591
32128W        W  522   3.142  10.685  11.557
32129W        W  523  36.306  25.236   2.703
32130W        W  524   9.569   7.342   0.836
32131W        W  525  19.951  14.869   0.286
32132W        W  526  28.986   9.613   1.842
32133W        W  527  39.410  36.169   3.148
32134W        W  528  37.536  42.806  12.640
32135W        W  529  26.631  10.803   4.434
32136W        W  530   6.158  30.098  12.840
32137W        W  531   3.961  14.788  11.265
32138W        W  532  11.548   3.629   3.772
32139W        W  533   9.409   0.318  12.096
32140W        W  534  22.093  41.011  10.876
32141W        W  535  36.279  31.849  10.661
32142W        W  536  35.198  28.901  10.304
32143W        W  537  34.086  26.035  11.190
32144W        W  538   8.140  34.936   0.276
32145W        W  539  19.552  33.932  11.666
32146W        W  540  16.033   5.374  11.981
32147W        W  541  11.134  13.416  12.985
32148W        W  542  21.284  39.445   3.112
32149W        W  543   5.918  27.465  13.415
32150W        W  544  44.080  35.435  11.681
32151W        W  545  17.795  11.679  13.062
32152W        W  546  19.689  11.550  14.520
32153W        W  547  10.903  30.093  13.120
32154W        W  548  25.667   0.378   3.781
32155W        W  549   5.300  12.597  11.168
32156W        W  550  39.079  42.831   3.324
32157W        W  551  20.286  43.046  13.387
32158W        W  552  27.443  20.271   0.922
32159W        W  553  26.356  35.097  11.101
32160W        W  554  30.439  34.176   1.031
32161W        W  555  16.521   3.993  14.104
32162W        W  556  16.149  23.678  14.722
32163W        W  557  11.271  24.460   3.992
32164W        W  558  20.917  17.173   4.582
32165W        W  559  39.019  36.315  11.859
32166W        W  560   1.276  43.984   3.508
32167W        W  561  29.014  14.053  12.212
32168W        W  562  27.202   5.189  14.376
32169W        W  563  27.661  37.005   4.351
32170W        W  564  15.803  44.559   2.670
32171W        W  565  42.977  29.840  14.588
32172W        W  566  37.662  16.175  11.734
32173W        W  567   4.995  22.710   4.540
32174W        W  568  21.773  22.519   3.141
32175W        W  569  29.081  11.368   1.192
32176W        W  570  12.771  29.956  10.402
32177W        W  571  33.400   8.154  12.071
32178W        W  572   0.114   7.966   2.350
32179W        W  573   2.466  33.002   1.001
32180W        W  574  21.661  44.165   1.677
32181W        W  575  30.107  12.298  13.383
32182W        W  576  32.503   9.069  11.728
32183W        W  577  39.270   6.773  14.102
32184W        W  578  12.528  36.512   2.871
32185W        W  579  19.785   0.313  10.532
32186W        W  580   2.416  15.464  10.954
32187W        W  581   2.276   1.479   1.012
32188W        W  582  22.164   3.957   1.606
32189W        W  583  20.230  16.169  14.499
32190W        W  584  27.643  18.526  14.915
32191W        W  585  42.545  40.036   1.247
32192W        W  586  29.497   8.346   0.987
32193W        W  587  19.074  12.048   1.665
32194W        W  588  24.121   7.076   2.803
32195W        W  589  42.732  40.765  10.661
32196W        W  590  44.828  36.402  13.954
32197W        W  591   2.914   9.516  14.458
32198W        W  592  42.117  16.598  11.918
32199W        W  593  34.954  24.914  14.735
32200W        W  594  17.616   0.367   3.654
32201W        W  595  12.377  19.629   1.899
32202W        W  596  10.238   5.585   1.229
32203W        W  597  37.987  13.511   1.288
32204W        W  598  24.034   5.363   3.620
32205W        W  599  29.633  33.208   1.657
32206W        W  600   3.756  44.208  12.197
32207W        W  601  43.419  40.846  13.199
32208W        W  602  26.243   0.548   4.673
32209W        W  603  30.014  15.873  11.556
32210W        W  604  24.169  19.299   4.937
32211W        W  605  18.817   7.282   2.375
32212W        W  606  17.737  22.619   3.676
32213W        W  607  18.109   5.330  14.505
32214W        W  608  41.355  29.109   2.693
32215W        W  609  42.517  31.892   3.730
32216W        W  610  34.355  26.923  13.538
32217W        W  611  27.814  35.807   1.852
32218W        W  612  21.344  11.781   3.544
32219W        W  613  17.921   8.380  10.208
32220W        W  614  18.183  14.099   1.777
32221W        W  615  11.760  12.110   0.122
32222W        W  616  34.901  11.436   1.879
32223W        W  617   1.579  34.345   1.491
32224W        W  618   8.433   1.718   3.147
32225W        W  619  12.725   7.624  10.424
32226W        W  620  37.394  19.866   1.585
32227W        W  621  10.295   8.852  14.477
32228W        W  622  24.050   4.765   2.785
32229W        W  623   3.706  24.992  11.745
32230W        W  624  38.527   5.468  13.026
32231W        W  625  12.377   8.307   1.805
32232W        W  626  44.502   3.967   2.146
32233W        W  627  35.889  35.620  13.627
32234W        W  628  34.887   8.827  12.031
32235W        W  629  36.859  10.357  14.922
32236W        W  630  24.650   9.865   0.123
32237W        W  631  43.780  34.353   0.687
32238W        W  632  21.237  21.541   1.702
32239W        W  633  37.880  43.293  14.040
32240W        W  634  14.314   2.041   0.523
32241W        W  635  17.818  11.287   3.762
32242W        W  636  13.860  23.711  11.380
32243W        W  637  16.082   1.061  13.870
32244W        W  638  25.990  23.548   1.929
32245W        W  639  31.754   8.948  10.656
32246W        W  640  28.114   4.844   2.152
32247W        W  641  11.179  30.174  13.550
32248W        W  642   5.971  37.028  12.126
32249W        W  643   9.146   9.385   1.994
32250W        W  644   4.544  30.792  10.450
32251W        W  645  26.291  35.339   3.883
32252W        W  646   3.740  33.164   1.394
32253W        W  647  36.989  38.914   0.910
32254W        W  648  34.894  34.524   4.365
32255W        W  649  15.535  31.928  14.788
32256W        W  650   2.556  22.121   4.485
32257W        W  651  33.523  25.474  10.726
32258W        W  652  34.430  16.142   3.927
32259W        W  653  29.656  38.535  12.082
32260W        W  654  41.000  31.674   0.923
32261W        W  655  22.485   3.705  12.462
32262W        W  656  33.081  28.439  12.934
32263W        W  657  16.460  28.248  11.098
32264W        W  658  18.306  22.467  12.495
32265W        W  659  24.669  29.292  11.646
32266W        W  660  33.124   4.718  13.968
32267W        W  661   5.613  40.277  11.249
32268W        W  662  33.673   6.867  11.186
32269W        W  663   2.812  29.084   2.472
32270W        W  664  30.236   1.480   3.678
32271W        W  665  18.011  22.054   2.082
32272W        W  666  35.567  23.126  11.986
32273W        W  667  44.654   3.420  14.733
32274W        W  668  30.506  33.474   1.888
32275W        W  669  24.930  36.840  13.905
32276W        W  670  13.045   2.410   3.882
32277W        W  671  30.982  44.204  11.128
32278W        W  672  13.086   7.703   0.793
32279W        W  673  31.994  44.430   3.274
32280W        W  674   7.091  25.235  13.572
32281W        W  675  44.853   0.576  11.069
32282W        W  676  29.730  17.592   2.706
32283W        W  677   5.921  26.547   4.538
32284W        W  678   2.396  43.912  14.626
32285W        W  679   3.093   7.220   2.298
32286W        W  680  44.838  11.087  11.113
32287W        W  681  32.420   3.926   1.002
32288W        W  682  27.420   1.553   4.984
32289W        W  683  22.585  23.466  14.317
32290W        W  684   2.759  18.535  11.575
32291W        W  685  15.686  35.621   2.199
32292W        W  686   6.909  30.423   3.686
32293W        W  687   8.410  25.664   3.716
32294W        W  688  17.927  23.174   3.638
32295W        W  689   8.627   3.433   1.384
32296W        W  690  35.494  44.401   1.951
32297W        W  691  20.332   9.908  12.839
32298W        W  692  32.833  13.035  13.302
32299W        W  693  43.777  10.149   3.952
32300W        W  694  37.629  30.115   0.971
32301W        W  695  22.189   1.881  11.656
32302W        W  696   4.136  42.315  12.667
32303W        W  697  42.745  16.213  14.878
32304W        W  698  15.394  36.017  11.013
32305W        W  699  44.904   4.868   4.661
32306W        W  700   7.667  22.530  14.927
32307W        W  701  12.272  44.230   0.341
32308W        W  702  14.268  32.068  14.428
32309W        W  703   6.251  17.462  11.565
32310W        W  704  25.494  22.056   2.455
32311W        W  705  15.961  20.228  12.582
32312W        W  706  32.897   0.175  14.138
32313W        W  707  35.335   7.355   2.452
32314W        W  708  43.591  37.571   3.514
32315W        W  709  36.039  13.805   1.867
32316W        W  710  12.703  43.058   3.298
32317W        W  711  42.359  19.299   3.266
32318W        W  712  23.433   8.640   1.818
32319W        W  713  21.000  23.459   4.173
32320W        W  714  24.824  24.550  11.575
32321W        W  715  12.474   3.948  10.660
32322W        W  716  34.184  10.239   1.018
32323W        W  717  14.086  28.596   3.278
32324W        W  718  14.658  23.655  11.381
32325W        W  719   8.677  32.561  13.465
32326W        W  720  16.216  43.225  11.418
32327W        W  721  15.381  14.419  10.664
32328W        W  722  12.186  10.460   4.150
32329W        W  723  30.431  41.826   2.744
32330W        W  724  20.090  25.027  10.734
32331W        W  725  26.027   3.182   0.442
32332W        W  726  29.931  15.859   1.911
32333W        W  727  26.904  44.281  11.956
32334W        W  728   7.398  28.425   0.859
32335W        W  729  33.377  10.853  10.353
32336W        W  730  30.911  11.072   4.269
32337W        W  731  23.602   7.316   3.944
32338W        W  732  25.696  20.670   2.882
32339W        W  733  43.427   7.550  12.246
32340W        W  734  39.966  23.964  12.823
32341W        W  735   6.415  28.403   2.830
32342W        W  736  44.823  21.638  13.824
32343W        W  737  39.816  12.748  14.949
32344W        W  738   8.892   9.160   2.675
32345W        W  739  41.534   3.286  13.055
32346W        W  740  26.109   9.647   3.636
32347W        W  741  29.697  39.109  12.968
32348W        W  742  21.528  29.203   1.546
32349W        W  743  29.968   0.740  13.375
32350W        W  744  21.530  16.776  13.297
32351W        W  745  13.593  37.364  11.666
32352W        W  746   6.425  42.113   2.206
32353W        W  747   1.844  16.616  14.706
32354W        W  748  43.011  16.135  14.297
32355W        W  749   0.681   1.269   2.835
32356W        W  750   2.905  19.039   0.420
32357W        W  751  32.921  40.328   2.425
32358W        W  752  21.518   6.354  12.494
32359W        W  753   5.931  36.006   3.198
32360W        W  754  26.117  42.094   0.879
32361W        W  755  21.176   6.801   4.142
32362W        W  756  26.997  21.981   3.342
32363W        W  757   6.204   7.942   1.359
32364W        W  758  19.682  38.519  13.009
32365W        W  759  30.719   8.006  12.543
32366W        W  760  30.043  25.475  12.480
32367W        W  761  30.044   0.333  10.892
32368W        W  762  16.651  18.492   1.792
32369W        W  763  23.730   8.309  11.544
32370W        W  764  25.240  41.102  11.449
32371W        W  765  33.191  40.941  14.803
32372W        W  766  21.241  38.170   2.983
32373W        W  767  23.993  44.087   4.684
32374W        W  768  37.972  15.786   3.723
32375W        W  769  36.945   2.886   3.122
32376W        W  770  20.941  27.973   2.326
32377W        W  771  14.185  25.662   0.249
32378W        W  772  39.619  31.212   3.088
32379W        W  773  34.849  16.795  14.844
32380W        W  774  19.138  11.285   2.618
32381W        W  775  33.268  15.622  11.823
32382W        W  776  21.125  37.404  11.598
32383W        W  777  35.886  38.792  11.569
32384W        W  778  30.708  37.820  13.543
32385W        W  779   3.941  44.372   2.184
32386W        W  780   5.630  25.598   2.635
32387W        W  781  24.678  35.060  13.328
32388W        W  782  44.978  33.996   1.736
32389W        W  783  34.487  10.410   2.613
32390W        W  784  37.843  25.483  10.644
32391W        W  785   2.736  10.933   1.399
32392W        W  786  24.622  35.481   4.535
32393W        W  787  27.439   2.867   2.593
32394W        W  788   3.953   5.747  10.514
32395W        W  789   6.186  28.125  13.548
32396W        W  790  23.399  40.609  13.003
32397W        W  791  39.015  17.303  10.646
32398W        W  792  24.597  25.500  12.936
32399W        W  793  35.411  40.543  11.751
32400W        W  794   3.245  25.243   2.355
32401W        W  795  23.175  12.431  12.820
32402W        W  796  13.183  20.516  13.978
32403W        W  797  18.649  22.667  11.590
32404W        W  798  43.014  29.532   2.370
32405W        W  799  26.967  15.348   4.156
32406W        W  800   4.530  26.844   9.422
32407W        W  801  40.304  25.144   1.719
32408W        W  802  34.883  40.368  10.658
32409W        W  803  16.691   6.491   3.434
32410W        W  804   0.448  28.453   0.380
32411W        W  805  42.957  17.099  10.469
32412W        W  806  13.584  34.559  14.483
32413W        W  807  11.321  29.567  14.804
32414W        W  808  15.034  23.038   3.218
32415W        W  809  37.131  31.644  10.632
32416W        W  810  41.360  34.438   2.087
32417W        W  811   1.860  26.075  10.714
32418W        W  812  32.686  27.959   0.870
32419W        W  813   7.407   3.967  14.398
32420W        W  814  42.219  29.950  11.224
32421W        W  815  31.042  31.140  12.428
32422W        W  816  42.254  11.339  13.855
32423W        W  817  32.524  32.973  13.336
32424W        W  818  23.791  22.483  14.418
32425W        W  819   2.548  40.066   1.890
32426W        W  820   2.970  21.554   4.742
32427W        W  821  11.353  14.716   3.049
32428W        W  822   6.613   7.783   0.269
32429W        W  823  28.072   6.061  12.992
32430W        W  824  20.463  15.036  11.261
32431W        W  825   1.372   7.499   3.983
32432W        W  826  12.881  11.285   2.225
32433W        W  827  10.220  27.618  11.754
32434W        W  828  10.888  10.197  12.429
32435W        W  829  26.494  20.749   2.071
32436W        W  830  26.142   7.708   3.781
32437W        W  831  11.352   7.482   4.679
32438W        W  832  39.114  39.944  13.573
32439W        W  833  32.019  14.602  12.179
32440W        W  834  15.181  22.157   3.359
32441W        W  835   6.639  25.664   2.888
32442W        W  836  18.128  19.175   5.259
32443W        W  837  16.752   1.376  14.846
32444W        W  838   9.360   0.038   4.142
32445W        W  839  42.261  27.203  11.694
32446W        W  840  33.644  13.057   1.776
32447W        W  841   4.476  26.929  13.485
32448W        W  842  16.673  14.772  10.678
32449W        W  843  27.637   1.352   0.205
32450W        W  844  26.016  17.055   3.314
32451W        W  845  34.839  34.519   0.121
32452W        W  846  31.294  31.637  11.610
32453W        W  847  31.002  19.840   1.783
32454W        W  848  32.874  13.293  14.964
32455W        W  849   4.017  11.368   3.179
32456W        W  850  25.091  28.588   3.266
32457W        W  851   6.086   0.410  12.023
32458W        W  852  20.774  19.144  11.592
32459W        W  853  25.267  14.308   2.939
32460W        W  854  43.855  39.504   3.624
32461W        W  855   1.919  44.316  14.837
32462W        W  856  31.913  26.184   3.866
32463W        W  857  18.144  30.655   1.163
32464W        W  858   1.539  16.686  10.566
32465W        W  859   1.743   2.152  12.775
32466W        W  860  25.576  24.751  13.844
32467W        W  861   5.335  14.366   0.350
32468W        W  862  34.675   4.740  10.751
32469W        W  863  15.683  38.272  13.947
32470W        W  864  24.563  42.225  14.400
32471W        W  865  32.991  41.930   4.215
32472W        W  866  40.013   5.891   4.504
32473W        W  867  34.106   6.689   2.857
32474W        W  868  15.605  29.451   2.343
32475W        W  869   2.591  34.610  11.372
32476W        W  870  31.864   0.776   3.007
32477W        W  871  27.274   7.740  12.483
32478W        W  872  31.527   1.995  13.867
32479W        W  873  16.053  40.488  14.077
32480W        W  874   6.295  18.099   2.212
32481W        W  875  24.240  42.619  12.335
32482W        W  876   1.396   8.881  12.463
32483W        W  877   2.351  33.651  11.504
32484W        W  878  36.785  23.634  11.957
32485W        W  879  10.603  38.749   2.477
32486W        W  880  22.319   6.202   2.576
32487W        W  881   5.809  16.455   1.947
32488W        W  882  36.409   8.052  10.786
32489W        W  883  19.145  13.864  11.162
32490W        W  884  23.102  12.378   3.204
32491W        W  885  33.698  38.243   4.604
32492W        W  886  40.532  31.629  13.508
32493W        W  887   1.782  33.371  14.144
32494W        W  888  34.843  24.321   4.139
32495W        W  889  26.294   8.198  14.793
32496W        W  890   0.524   0.345  14.383
32497W        W  891  27.204   6.297  13.542
32498W        W  892  20.686  37.554  11.368
32499W        W  893  22.752  30.554  14.982
32500W        W  894   9.026  31.873   2.394
32501W        W  895   6.386  43.854  11.684
32502W        W  896  24.101  43.474   0.705
32503W        W  897   9.475  18.461  13.270
32504W        W  898  28.217  18.024  11.793
32505W        W  899  10.354  41.784   4.198
32506W        W  900   1.843   1.803   4.190
32507W        W  901   3.852  32.477   0.397
32508W        W  902   1.930  13.401   4.114
32509W        W  903  24.679  32.136  14.908
32510W        W  904  11.529  14.618  10.507
32511W        W  905  37.527   8.510   3.335
32512W        W  906   4.539  35.472  13.391
32513W        W  907  24.523  36.425  12.072
32514W        W  908  43.991  17.331   4.628
32515W        W  909   7.109  42.703   4.489
32516W        W  910   0.960  38.674  11.995
32517W        W  911  28.719  32.386   0.850
32518W        W  912   6.086  31.718  14.723
32519W        W  913  26.214  31.683   0.950
32520W        W  914  24.735  19.459   1.169
32521W        W  915  34.483  39.248  12.138
32522W        W  916  43.865   8.036  12.806
32523W        W  917  37.916   3.223  12.915
32524W        W  918  22.544  28.614   2.461
32525W        W  919   4.359   9.682  14.576
32526W        W  920  34.557  30.429  11.642
32527W        W  921  32.637  23.628   3.663
32528W        W  922  39.342  34.290   3.514
32529W        W  923  41.816  43.792   1.300
32530W        W  924  24.168  28.729   9.902
32531W        W  925  16.358   2.456   3.318
32532W        W  926  33.922  13.935  12.511
32533W        W  927  37.336   2.010   4.143
32534W        W  928  39.023  29.932   0.903
32535W        W  929  36.539  12.829   3.915
32536W        W  930  27.620  22.565  11.679
32537W        W  931  39.143  40.087  10.310
32538W        W  932  26.225  40.033   3.056
32539W        W  933  40.908  22.162  10.584
32540W        W  934  24.436   7.376  10.682
32541W        W  935  17.594  18.577   2.172
32542W        W  936   1.454  23.912  10.724
32543W        W  937  14.897  29.565  12.228
32544W        W  938  28.267  39.147  14.304
32545W        W  939  13.805  42.308   3.473
32546W        W  940  35.282  43.829   2.634
32547W        W  941  28.706  40.764  14.359
32548W        W  942  29.198  29.456  12.042
32549W        W  943   8.516  22.296  12.066
32550W        W  944  36.145  39.335   1.705
32551W        W  945  29.738  36.866   2.879
32552W        W  946  36.165  39.874   1.750
32553W        W  947  19.892  27.467   0.731
32554W        W  948  41.293  24.465  12.919
32555W        W  949  23.215  13.874   0.568
32556W        W  950   3.328   3.748  12.477
32557W        W  951  11.987  10.732   3.089
32558W        W  952   7.568  10.071  12.933
32559W        W  953  30.990  14.701  14.761
32560W        W  954  21.805  42.310   4.139
32561W        W  955  38.455  17.920   1.683
32562W        W  956  43.884   2.983   3.566
32563W        W  957  28.440  24.123   2.971
32564W        W  958  30.653  36.419   4.179
32565W        W  959  16.718  37.512   1.824
32566W        W  960  15.772  39.634   3.584
32567W        W  961  18.877  29.625  11.989
32568W        W  962  25.679   3.582   0.410
32569W        W  963   8.551  44.382   4.195
32570W        W  964  25.070  38.210   0.752
32571W        W  965  39.627   0.773   3.748
32572W        W  966  19.065  35.138   4.012
32573W        W  967  15.105   9.360   1.393
32574W        W  968   1.642  29.916  12.501
32575W        W  969   0.246  19.644  12.192
32576W        W  970  43.746  13.238   0.998
32577W        W  971   0.218  24.811  11.839
32578W        W  972  25.005  34.781  11.284
32579W        W  973  31.643  38.817   1.281
32580W        W  974  10.860  13.753   4.339
32581W        W  975  20.131   5.749   3.071
32582W        W  976  39.467   7.168  13.061
32583W        W  977  33.428  10.917  11.641
32584W        W  978  27.006  26.875  14.204
32585W        W  979  30.591  16.762  14.030
32586W        W  980  22.731  31.692   2.301
32587W        W  981  31.360  17.116  13.817
32588W        W  982  42.700  24.952   2.941
32589W        W  983  33.146  12.152   0.422
32590W        W  984  29.308   8.100   3.224
32591W        W  985  39.171  32.551   3.311
32592W        W  986  44.218  17.297   2.173
32593W        W  987  22.652  41.957   2.152
32594W        W  988  16.756  44.727   3.147
32595W        W  989  25.151  43.561   0.285
32596W        W  990  30.580  32.381   4.465
32597W        W  991  30.551  13.201   1.227
32598W        W  992   9.335  39.909   3.633
32599W        W  993   7.414  26.923  12.871
32600W        W  994  39.031  18.707  12.294
32601W        W  995   9.697  27.464   1.758
32602W        W  996  26.961   4.916   0.089
32603W        W  997  20.272  11.721  10.650
32604W        W  998  41.520  38.468   2.355
32605W        W  999  35.130  18.223   0.918
32606W        W 1000  26.208  21.981   2.792
32607W        W 1001  28.684  32.078  14.860
32608W        W 1002   3.984  20.034   2.738
32609W        W 1003  43.776  12.327  11.463
32610W        W 1004  22.077  10.579  11.997
32611W        W 1005  26.445   2.907   3.015
32612W        W 1006  25.736  24.477   1.422
32613W        W 1007   0.821  40.292   5.007
32614W        W 1008   9.257  39.409   2.315
32615W        W 1009  19.533  39.826   3.321
32616W        W 1010  32.027   0.837   4.585
32617W        W 1011  27.630  21.271  10.298
32618W        W 1012   3.486  25.596  11.970
32619W        W 1013  20.731   4.276   0.899
32620W        W 1014   3.901  17.491   0.592
32621W        W 1015  17.122  21.820  14.049
32622W        W 1016  40.642  11.618  12.207
32623W        W 1017  29.189  27.216   2.288
32624W        W 1018  39.392  35.106   0.769
32625W        W 1019  30.122  33.923  10.621
32626W        W 1020  34.613  37.596   3.577
32627W        W 1021  28.593  41.933  14.271
32628W        W 1022  15.846  23.220  13.566
32629W        W 1023  19.551  10.665   0.897
32630W        W 1024  31.603  42.796  11.112
32631W        W 1025  39.926  38.067  14.761
32632W        W 1026  14.910   8.202  14.903
32633W        W 1027   8.277   0.906  12.932
32634W        W 1028   2.667  43.388  11.689
32635W        W 1029  34.124   3.978  12.541
32636W        W 1030  18.686  29.488   1.797
32637W        W 1031   6.515  17.937  13.454
32638W        W 1032  13.765  44.007   1.650
32639W        W 1033  38.618   0.837   3.658
32640W        W 1034  38.851  27.606   3.854
32641W        W 1035  29.065  18.844   3.122
32642W        W 1036  23.649   5.634  13.987
32643W        W 1037  23.677  13.714  12.122
32644W        W 1038  13.961  43.399   2.745
32645W        W 1039  32.552  36.057   4.530
32646W        W 1040  40.757  22.668  11.674
32647W        W 1041   9.866  30.990   4.566
32648W        W 1042  38.564  10.589  14.825
32649W        W 1043  33.250  21.879  14.323
32650W        W 1044  25.826  42.544  13.089
32651W        W 1045  28.510  43.346   2.792
32652W        W 1046  36.006  30.113   3.353
32653W        W 1047  21.799  35.352  11.669
32654W        W 1048   5.741  28.910  13.495
32655W        W 1049   5.231  38.442  12.563
32656W        W 1050  43.044  25.629   4.644
32657W        W 1051  19.587  41.523   3.728
32658W        W 1052  15.283  30.268   0.004
32659W        W 1053  29.631  25.592   1.973
32660W        W 1054  23.547  25.692  10.677
32661W        W 1055  42.469  33.985  14.887
32662W        W 1056  28.861  33.869  13.957
32663W        W 1057   8.576   7.504   1.218
32664W        W 1058  25.116  27.687   0.822
32665W        W 1059  29.030  12.595   3.222
32666W        W 1060  24.623  40.867  14.543
32667W        W 1061  16.152  15.158   4.099
32668W        W 1062  14.497  37.218   3.849
32669W        W 1063  34.947   2.193  13.595
32670W        W 1064  30.453   5.250  12.608
32671W        W 1065  15.434  40.727   4.153
32672W        W 1066  37.275  42.533   4.064
32673W        W 1067  34.390  19.813  10.704
32674W        W 1068  26.346   9.077  10.218
32675W        W 1069  39.718  26.740  11.848
32676W        W 1070  34.877  13.984  11.426
32677W        W 1071  18.603  22.227  11.140
32678W        W 1072  37.856  21.156   1.394
32679W        W 1073   7.331  18.123  11.570
32680W        W 1074  38.852  17.669  14.490
32681W        W 1075  26.216  15.104   0.846
32682W        W 1076  14.665   9.713   3.845
32683W        W 1077  39.610  16.172   1.683
32684W        W 1078  19.034   4.335  10.596
32685W        W 1079  17.377  34.434   0.394
32686W        W 1080  23.246  32.935   2.409
32687W        W 1081  18.092  39.160  13.869
32688W        W 1082  37.888  41.804  14.778
32689W        W 1083  31.003  24.304   3.568
32690W        W 1084   3.751  33.913  13.407
32691W        W 1085  18.006  12.145  10.412
32692W        W 1086  22.084  10.915  10.691
32693W        W 1087  19.510  34.932   3.232
32694W        W 1088  37.732   3.793  12.021
32695W        W 1089   1.805  31.330  12.408
32696W        W 1090  33.399  32.984   3.663
32697W        W 1091  36.074  11.913  11.091
32698W        W 1092  15.839   6.866   0.317
32699W        W 1093  23.701  28.132   0.789
32700W        W 1094  32.560  23.173   1.250
32701W        W 1095  19.106  14.189   3.429
32702W        W 1096  44.060  33.546  11.045
32703W        W 1097  19.303  17.213   2.225
32704W        W 1098  14.753  10.708  12.819
32705W        W 1099  27.983  30.835  11.742
32706W        W 1100   4.752  14.186  11.076
32707W        W 1101  30.436   9.904  13.905
32708W        W 1102  31.617  12.189  14.467
32709W        W 1103  13.124  25.732   0.206
32710W        W 1104  35.824   6.626   2.200
32711W        W 1105   2.739  40.552  12.108
32712W        W 1106  27.440  37.428   3.069
32713W        W 1107  24.718  22.971  12.909
32714W        W 1108  14.563  44.479  12.639
32715W        W 1109  22.302  32.059   4.192
32716W        W 1110  16.260   6.101  12.653
32717W        W 1111  18.530  27.479  12.842
32718W        W 1112  43.378  39.048  12.441
32719W        W 1113  27.639  36.147   2.196
32720W        W 1114   1.800  22.295   3.262
32721W        W 1115  26.310  21.615  11.529
32722W        W 1116  15.364  14.760   4.375
32723W        W 1117  26.409   0.353  12.499
32724W        W 1118  37.277   0.522  12.623
32725W        W 1119  19.481  34.995  10.630
32726W        W 1120  30.543  27.274   1.455
32727W        W 1121  14.470  40.096   2.812
32728W        W 1122  27.437   2.446  10.694
32729W        W 1123  39.911  30.575  11.004
32730W        W 1124   0.805  23.069   2.213
32731W        W 1125  37.656   3.256   0.985
32732W        W 1126  17.546   9.567   5.079
32733W        W 1127  16.925  28.048  11.094
32734W        W 1128  44.832   1.592  11.156
32735W        W 1129   6.198   4.789   3.372
32736W        W 1130   5.602  16.207   2.358
32737W        W 1131  20.707  42.392   2.427
32738W        W 1132  35.544  12.756  13.032
32739W        W 1133  33.406  36.996  12.329
32740W        W 1134  11.206  16.648   0.017
32741W        W 1135  43.706  27.630  11.489
32742W        W 1136  41.527  38.806  10.356
32743W        W 1137  20.404  19.139  13.645
32744W        W 1138  37.980  13.055   2.010
32745W        W 1139  44.327  21.143  12.377
32746W        W 1140  28.656  22.579   2.602
32747W        W 1141   2.775  38.530  10.696
32748W        W 1142  10.059   0.857  11.498
32749W        W 1143   3.204  28.657  12.113
32750W        W 1144  22.560  40.428   0.707
32751W        W 1145  14.020  15.186  11.666
32752W        W 1146  30.425   5.194   3.696
32753W        W 1147  27.513   0.486  14.844
32754W        W 1148  23.053  31.021  14.296
32755W        W 1149   0.979  31.706  12.305
32756W        W 1150   3.205   6.579   3.748
32757W        W 1151  39.427  36.040   0.395
32758W        W 1152  15.282  18.768   1.877
32759W        W 1153  32.962   8.843  11.566
32760W        W 1154  43.274  16.768  14.017
32761W        W 1155  24.125  11.567  11.638
32762W        W 1156  14.242  11.130  11.297
32763W        W 1157  10.143  12.022   3.198
32764W        W 1158  36.053  42.078   2.761
32765W        W 1159  41.423  41.496   1.349
32766W        W 1160  42.492  27.701   0.213
32767W        W 1161  42.017   2.934  12.554
32768W        W 1162  41.967   5.778  13.014
32769W        W 1163  42.260  26.657  12.539
32770W        W 1164  21.705  17.899   2.337
32771W        W 1165  14.745  35.039  13.601
32772W        W 1166  26.781  31.054   1.340
32773W        W 1167  29.690  22.244   0.875
32774W        W 1168  26.522  43.372  13.893
32775W        W 1169  42.602   8.343  11.671
32776W        W 1170  35.303   9.093   4.328
32777W        W 1171  21.710  24.384  13.374
32778W        W 1172   0.324  44.880  14.261
32779W        W 1173  41.971  42.407  14.428
32780W        W 1174  24.264   7.777   4.033
32781W        W 1175  30.358   7.817   3.238
32782W        W 1176   4.058  20.199  14.419
32783W        W 1177  21.562  39.922   4.961
32784W        W 1178  36.303  41.125   1.762
32785W        W 1179  30.111  31.506   4.243
32786W        W 1180  28.049  40.923   3.252
32787W        W 1181  20.510   7.213  11.513
32788W        W 1182  17.473   5.801   2.281
32789W        W 1183  27.984  13.270  14.881
32790W        W 1184  35.636  32.947   3.751
32791W        W 1185  18.372  17.087   4.096
32792W        W 1186  16.177  22.528   0.805
32793W        W 1187   7.746   3.289  11.623
32794W        W 1188  15.200  43.782   1.070
32795W        W 1189  38.523  13.289  11.878
32796W        W 1190   8.678  39.849   4.405
32797W        W 1191  43.760  18.071   0.582
32798W        W 1192  35.004  21.169   3.136
32799W        W 1193  12.578  21.811  10.837
32800W        W 1194  22.640  37.966   1.237
32801W        W 1195  34.093  25.127   4.154
32802W        W 1196  32.095  36.005  13.541
32803W        W 1197  27.631  30.970  13.250
32804W        W 1198   8.949  15.067  14.479
32805W        W 1199  36.169  17.291   4.303
32806W        W 1200  39.018   2.082  11.614
32807W        W 1201  18.138  16.658   0.921
32808W        W 1202  16.274  28.613  12.214
32809W        W 1203  43.386  44.717  14.627
32810W        W 1204  20.603  20.064   3.819
32811W        W 1205   7.022  27.070   4.117
32812W        W 1206  11.254   8.897   4.400
32813W        W 1207  36.493  18.255   3.739
32814W        W 1208  42.935   6.970  12.982
32815W        W 1209  43.823   3.710   3.081
32816W        W 1210  41.535  24.738  11.620
32817W        W 1211  16.308  17.502   2.397
32818W        W 1212  39.429  42.983   4.172
32819W        W 1213  27.723  22.192   2.821
32820W        W 1214  19.099   2.462   3.721
32821W        W 1215   6.057  16.846  13.462
32822W        W 1216   9.228  41.413  12.593
32823W        W 1217  12.977  13.192   4.121
32824W        W 1218  38.107  38.833  13.973
32825W        W 1219  25.881  32.622   3.188
32826W        W 1220  43.801   1.856   2.859
32827W        W 1221   4.241   6.799   1.853
32828W        W 1222  37.465  23.879   0.147
32829W        W 1223  33.386  35.480   4.628
32830W        W 1224  32.505  32.151  14.393
32831W        W 1225   1.813  35.532  10.723
32832W        W 1226  22.026  23.187  12.688
32833W        W 1227  42.788   2.094   4.285
32834W        W 1228  40.557  38.362   4.558
32835W        W 1229  34.706   2.379  12.023
32836W        W 1230  19.803   9.098   4.097
32837W        W 1231  10.410  13.793  12.097
32838W        W 1232  29.482  42.997   4.110
32839W        W 1233  38.818  41.953  11.397
32840W        W 1234   4.316   4.904  10.488
32841W        W 1235  26.602  18.129  13.884
32842W        W 1236  15.292  33.540   4.076
32843W        W 1237  40.347  31.101   1.731
32844W        W 1238  42.584   4.918   2.621
32845W        W 1239  31.549  23.659   0.933
32846W        W 1240   6.872  19.598  13.484
32847W        W 1241  20.060  32.707   3.781
32848W        W 1242  12.199  18.403   4.696
32849W        W 1243  13.218  24.222   3.875
32850W        W 1244  14.207  21.404  13.733
32851W        W 1245   1.417   0.022   2.601
32852W        W 1246  29.215  35.470   4.791
32853W        W 1247  28.093  22.933  10.557
32854W        W 1248   9.897  41.833  10.534
32855W        W 1249  33.287  40.563   0.142
32856W        W 1250  20.540  40.673   2.890
32857W        W 1251   1.888  32.035   2.083
32858W        W 1252  22.091  17.256  12.920
32859W        W 1253  20.852  37.665   5.012
32860W        W 1254  22.474  35.593  14.820
32861W        W 1255  27.470  40.124   1.991
32862W        W 1256  33.198  13.866   3.306
32863W        W 1257  39.418  25.439   2.700
32864W        W 1258  44.005  22.301  13.865
32865W        W 1259  41.983  18.646   2.392
32866W        W 1260   8.152   9.854   3.356
32867W        W 1261  34.426  32.504  12.005
32868W        W 1262  43.570  14.697   4.674
32869W        W 1263  40.461  20.021   4.955
32870W        W 1264  30.013  11.125  11.112
32871W        W 1265   9.745  15.145  10.628
32872W        W 1266   6.230   4.355   4.568
32873W        W 1267  35.987  29.276   3.967
32874W        W 1268  32.938  13.840   2.837
32875W        W 1269  30.940  35.865   2.876
32876W        W 1270  35.257  32.088   0.428
32877W        W 1271  36.917   5.257   2.223
32878W        W 1272  44.823  44.597  13.186
32879W        W 1273  38.078  35.432   0.272
32880W        W 1274   6.292  35.621  14.961
32881W        W 1275  35.378  27.196   1.962
32882W        W 1276   6.802  15.606  10.087
32883W        W 1277   5.182  41.913  13.460
32884W        W 1278  34.746  17.887  10.940
32885W        W 1279  23.782   9.839  11.008
32886W        W 1280  23.343  21.929  13.958
32887W        W 1281  24.975  13.168  11.263
32888W        W 1282  32.152  12.230   4.181
32889W        W 1283  12.973   4.801   0.866
32890W        W 1284  36.213  19.575   0.674
32891W        W 1285  38.104   0.346   0.847
32892W        W 1286  25.119   3.362  14.458
32893W        W 1287   5.307   9.252   2.222
32894W        W 1288  32.614  27.904   2.157
32895W        W 1289  19.394  25.255  13.698
32896W        W 1290  43.439  33.858   3.498
32897W        W 1291  11.900  30.750  14.239
32898W        W 1292  43.098  40.522  13.437
32899W        W 1293  33.597   3.270  14.662
32900W        W 1294  21.190  14.264   0.305
32901W        W 1295  15.692  34.876   3.922
32902W        W 1296  38.577  10.172   4.428
32903W        W 1297  20.724  38.048  12.845
32904W        W 1298  15.241   7.669   4.082
32905W        W 1299  10.064  11.776  10.715
32906W        W 1300  25.626   2.174   2.199
32907W        W 1301  41.565  40.081  13.896
32908W        W 1302  43.401  16.591   2.849
32909W        W 1303  38.555  31.020   3.168
32910W        W 1304  36.325   6.720  12.873
32911W        W 1305  37.512  27.633  10.570
32912W        W 1306   8.315  40.823   1.684
32913W        W 1307  30.910  35.346   3.645
32914W        W 1308  14.360   4.674   1.348
32915W        W 1309  39.327  16.782   3.872
32916W        W 1310  32.216  32.984  12.882
32917W        W 1311  27.929  42.944  11.207
32918W        W 1312  26.174  25.629  11.145
32919W        W 1313  35.555   2.397  10.771
32920W        W 1314   5.928  26.627  11.391
32921W        W 1315  36.924  41.539   3.913
32922W        W 1316   9.469  20.288  13.803
32923W        W 1317  25.457  42.052  12.081
32924W        W 1318  11.700   0.465   3.467
32925W        W 1319   6.914  40.406  13.853
32926W        W 1320  30.177  13.732  12.914
32927W        W 1321  12.527  30.701  12.545
32928W        W 1322   3.742   4.812   0.394
32929W        W 1323  37.018  22.041   3.799
32930W        W 1324  37.354  34.861  11.065
32931W        W 1325  13.329  24.169  11.051
32932W        W 1326  11.149  14.597   4.644
32933W        W 1327   2.760  27.098   4.606
32934W        W 1328  13.823   1.071   2.897
32935W        W 1329  22.268   2.945   3.331
32936W        W 1330  28.811  27.851  11.601
32937W        W 1331   6.680   1.925   4.981
32938W        W 1332  39.822  35.654   0.565
32939W        W 1333  29.485  37.802  14.055
32940W        W 1334   6.709  38.753   0.758
32941W        W 1335  44.256   2.839   0.901
32942W        W 1336   6.768  39.858  13.777
32943W        W 1337  42.335   3.631  14.268
32944W        W 1338  27.074  27.847  13.990
32945W        W 1339  32.374  21.735  10.658
32946W        W 1340  32.265  36.569  14.019
32947W        W 1341  21.033  17.845  12.032
32948W        W 1342  37.435  11.827   1.970
32949W        W 1343  41.261  16.692  13.744
32950W        W 1344  40.778  15.225   4.931
32951W        W 1345  10.366   3.144   1.320
32952W        W 1346   5.929  21.540   1.001
32953W        W 1347  21.181   5.970   1.980
32954W        W 1348  40.340  40.720   0.484
32955W        W 1349  25.080  27.311   2.262
32956W        W 1350  25.482   7.203  10.744
32957W        W 1351  20.053  24.315  13.842
32958W        W 1352  29.153  43.119   1.606
32959W        W 1353  23.724  42.897   4.578
32960W        W 1354  23.067  44.668   0.283
32961W        W 1355  35.871  26.404  11.699
32962W        W 1356  25.190  24.799  10.803
32963W        W 1357   1.923   5.943  11.629
32964W        W 1358  23.633  32.099  11.936
32965W        W 1359  26.643  26.918  10.657
32966W        W 1360  27.962   4.275  10.640
32967W        W 1361  21.549  36.568   2.025
32968W        W 1362  29.676  31.075  14.873
32969W        W 1363  36.024  12.878  14.808
32970W        W 1364  11.374  37.559  14.978
32971W        W 1365  36.254   7.451  13.458
32972W        W 1366  34.539  42.998  14.336
32973W        W 1367  24.163  35.785  13.559
32974W        W 1368  43.515  10.272   0.378
32975W        W 1369   5.784  32.139  13.979
32976W        W 1370  20.330  15.567  11.982
32977W        W 1371   7.819  33.119  11.406
32978W        W 1372   2.053  29.480   4.674
32979W        W 1373   4.001  30.616  10.639
32980W        W 1374   6.251   3.375  11.107
32981W        W 1375  36.425  21.763  12.388
32982W        W 1376  30.558  16.665  11.414
32983W        W 1377   7.474  42.676  13.414
32984W        W 1378   3.537   6.823   3.098
32985W        W 1379  35.873  27.992   0.737
32986W        W 1380  38.299   6.636   0.403
32987W        W 1381   6.837  10.579  12.162
32988W        W 1382  38.765  18.366   1.205
32989W        W 1383  33.032  37.117  14.494
32990W        W 1384  28.531  12.357  13.992
32991W        W 1385  30.706  11.232   3.587
32992W        W 1386  23.932  31.025  12.533
32993W        W 1387   4.707  40.840   2.207
32994W        W 1388  23.826  23.651  10.559
32995W        W 1389  27.225  32.031   3.674
32996W        W 1390  23.074  24.428   2.048
32997W        W 1391  22.474  15.887   2.977
32998W        W 1392  28.047  41.055  12.059
32999W        W 1393  28.820  44.991  14.927
33000W        W 1394  11.159  32.691   2.150
33001W        W 1395  25.943  20.843   0.785
33002W        W 1396  31.987  32.951  12.422
33003W        W 1397  13.711  15.709   0.786
33004W        W 1398  22.726   7.935  14.940
33005W        W 1399  14.818  17.157   1.691
33006W        W 1400   3.379  29.506   3.367
33007W        W 1401  10.267  29.822   3.846
33008W        W 1402  17.283  15.185   3.442
33009W        W 1403  17.566  32.478  10.479
33010W        W 1404  44.883  44.658   0.510
33011W        W 1405  17.122  19.770  14.072
33012W        W 1406  23.408   3.955   4.179
33013W        W 1407  24.742  17.958   1.265
33014W        W 1408  15.204  26.243  10.692
33015W        W 1409  43.719   4.605   4.279
33016W        W 1410  16.584  22.178   2.682
33017W        W 1411  29.172   5.818  12.914
33018W        W 1412  36.920  19.127   1.659
33019W        W 1413  28.476  20.563   1.880
33020W        W 1414  26.721  35.547   3.252
33021W        W 1415  38.487  35.755  12.587
33022W        W 1416   1.362  22.609   0.402
33023W        W 1417  38.672  40.566   2.384
33024W        W 1418  25.215  14.720  10.726
33025W        W 1419  23.273  23.160  12.998
33026W        W 1420   8.968  44.214  11.187
33027W        W 1421   0.037  34.532  10.785
33028W        W 1422  42.256  24.244  13.439
33029W        W 1423  12.245  37.200   3.752
33030W        W 1424   8.436  15.294  10.328
33031W        W 1425  17.661  22.632   4.733
33032W        W 1426  15.668   3.356  14.431
33033W        W 1427  26.659   4.719  11.638
33034W        W 1428  34.658  15.724   3.589
33035W        W 1429   6.389  37.127  14.235
33036W        W 1430  28.436   7.130   0.281
33037W        W 1431  42.123  16.854   2.476
33038W        W 1432  37.959  36.341  11.099
33039W        W 1433  41.774  38.333   4.232
33040W        W 1434   2.988  30.888   2.192
33041W        W 1435  41.770   1.938   0.884
33042W        W 1436  20.668  34.283  13.327
33043W        W 1437  41.232   5.376   3.356
33044W        W 1438  41.524  23.979  11.923
33045W        W 1439  33.152  40.782   1.680
33046W        W 1440   9.071  33.398  10.267
33047W        W 1441   6.739  11.048  12.357
33048W        W 1442  17.194  27.261  13.581
33049W        W 1443  31.366  16.112  11.142
33050W        W 1444  37.341  11.499   4.188
33051W        W 1445  30.599  21.012   0.012
33052W        W 1446   5.755  36.362  12.192
33053W        W 1447   5.862  12.358  14.293
33054W        W 1448  23.228  38.979  11.369
33055W        W 1449  40.674   4.786  11.184
33056W        W 1450  40.335  32.969   2.840
33057W        W 1451   4.978  21.699   1.522
33058W        W 1452  35.045   0.900   0.088
33059W        W 1453  39.503  37.271   2.315
33060W        W 1454  23.542  42.096  13.488
33061W        W 1455   8.637  19.216   2.197
33062W        W 1456  31.616  25.350   0.285
33063W        W 1457  32.248  11.806  14.996
33064W        W 1458  36.549   0.338   4.149
33065W        W 1459   2.674  14.683  12.584
33066W        W 1460  11.087  29.575   1.520
33067W        W 1461  25.115  38.911  13.043
33068W        W 1462   9.351   9.150  11.307
33069W        W 1463  40.232  14.686   4.344
33070W        W 1464  40.419   6.417   0.188
33071W        W 1465   5.284   3.694   0.257
33072W        W 1466  16.733  36.204  14.317
33073W        W 1467  17.947   5.948   2.180
33074W        W 1468   1.009  42.422   3.382
33075W        W 1469   3.929  22.021   1.266
33076W        W 1470   4.482  40.627   0.937
33077W        W 1471   4.614  11.870  11.099
33078W        W 1472  13.319  41.008   1.847
33079W        W 1473  28.602  17.319  12.130
33080W        W 1474   6.280   3.190   2.131
33081W        W 1475  35.785  26.103  11.288
33082W        W 1476  17.274  39.181   4.981
33083W        W 1477  42.533  26.742  10.291
33084W        W 1478  41.257  21.120  11.463
33085W        W 1479  34.502  31.723   0.971
33086W        W 1480  24.252  13.906   4.045
33087W        W 1481   5.189  41.987   3.096
33088W        W 1482  22.535  20.126   4.554
33089W        W 1483  18.708   3.479  10.250
33090W        W 1484   8.195  31.211   1.689
33091W        W 1485  40.347  35.888  11.676
33092W        W 1486  14.711  30.818  11.652
33093W        W 1487  39.581  14.645  14.788
33094W        W 1488  15.327  13.703  11.223
33095W        W 1489  33.827  36.594  10.956
33096W        W 1490  10.398  30.076   2.888
33097W        W 1491  25.606  20.038   0.982
33098W        W 1492   2.069  30.697   3.728
33099W        W 1493  32.881  26.577   0.868
33100W        W 1494  37.136  44.627  13.940
33101W        W 1495  23.266   8.097   4.759
33102W        W 1496   0.782  36.538  12.378
33103W        W 1497  11.232  20.183   3.118
33104W        W 1498  40.550  41.909  14.465
33105W        W 1499   2.158  41.355   1.885
33106W        W 1500  30.797  27.936   4.246
33107W        W 1501  18.314  18.227   3.143
33108W        W 1502  14.052  42.689   0.335
33109W        W 1503   0.215  34.894  13.021
33110W        W 1504   1.737   6.331   2.840
33111W        W 1505  27.966   4.842   3.153
33112W        W 1506  10.726  12.265  14.245
33113W        W 1507  33.539   2.826  12.352
33114W        W 1508   9.408  13.744  12.003
33115W        W 1509   5.882  19.699  11.550
33116W        W 1510  18.370  13.812  14.801
33117W        W 1511  38.906  35.815  11.867
33118W        W 1512  14.624  31.937  13.834
33119W        W 1513   3.413  31.326  12.031
33120W        W 1514  39.034  12.361   2.184
33121W        W 1515  23.536  24.993   4.900
33122W        W 1516  25.216  39.039  11.578
33123W        W 1517  13.653   3.817  11.974
33124W        W 1518  41.457  26.719   2.124
33125W        W 1519  17.126  41.520   1.241
33126W        W 1520  39.049  42.051  14.342
33127W        W 1521  43.862   7.644  12.492
33128W        W 1522  26.666  37.062   1.383
33129W        W 1523  36.473  27.687  14.925
33130W        W 1524  24.169   9.755  11.505
33131W        W 1525  18.635   8.345  13.553
33132W        W 1526  18.058  19.668   4.098
33133W        W 1527  23.613  44.078  13.420
33134W        W 1528  14.523  29.123  14.368
33135W        W 1529   2.068  20.755  11.449
33136W        W 1530  16.261  40.941  13.939
33137W        W 1531  12.854  20.160   4.204
33138W        W 1532  15.274  22.522  12.433
33139W        W 1533  32.402   4.930  14.482
33140W        W 1534   0.863  40.160   3.243
33141W        W 1535  17.206   9.058  13.802
33142W        W 1536   3.994  24.137  10.307
33143W        W 1537  35.144  33.586  13.427
33144W        W 1538  44.861  18.554  11.667
33145W        W 1539  28.693  30.563   1.268
33146W        W 1540  26.188  15.073  14.523
33147W        W 1541  20.105  37.423  13.302
33148W        W 1542   6.614  43.476  10.620
33149W        W 1543   3.047  38.277   4.111
33150W        W 1544  10.390  37.185   5.027
33151W        W 1545  38.261  42.348   1.429
33152W        W 1546  17.264  33.079   4.774
33153W        W 1547  16.803  16.367  13.858
33154W        W 1548  17.158  19.739   3.443
33155W        W 1549   3.205  18.622   0.808
33156W        W 1550  27.865  29.487  12.468
33157W        W 1551  12.823  40.595   0.052
33158W        W 1552  19.608  42.988  12.613
33159W        W 1553   7.320   9.371   1.708
33160W        W 1554  22.739   7.497  10.056
33161W        W 1555  22.106   4.734   4.854
33162W        W 1556  13.781  25.615   2.801
33163W        W 1557  41.996  26.073   1.823
33164W        W 1558  32.563  41.492   4.362
33165W        W 1559  37.043  18.458   0.529
33166W        W 1560   7.688  19.986   4.264
33167W        W 1561   9.408  27.571   3.237
33168W        W 1562  32.635  15.998   4.663
33169W        W 1563  14.073  33.551   2.647
33170W        W 1564  34.415  25.693  12.796
33171W        W 1565  27.693  12.178  11.137
33172W        W 1566   2.186  30.332   5.058
33173W        W 1567  26.156   3.677   0.529
33174W        W 1568  27.956  23.739  13.908
33175W        W 1569  12.680  27.367   0.519
33176W        W 1570  35.114   0.378  13.816
33177W        W 1571  25.550  34.753   1.764
33178W        W 1572  16.854   1.399   0.781
33179W        W 1573   8.247  10.003  11.522
33180W        W 1574  27.904  10.249   4.109
33181W        W 1575   5.175  20.813   0.453
33182W        W 1576   7.119   8.107  13.065
33183W        W 1577  34.470  44.522   4.924
33184W        W 1578  42.382   6.739  14.861
33185W        W 1579  15.978  26.641   3.571
33186W        W 1580  23.676  17.491  14.297
33187W        W 1581  43.661  35.741  13.366
33188W        W 1582  39.954   4.951   0.674
33189W        W 1583  19.777  36.977   2.234
33190W        W 1584  24.162   7.549  12.096
33191W        W 1585  19.769   1.971  12.990
33192W        W 1586  33.092  17.903   1.809
33193W        W 1587  27.432  12.598   0.544
33194W        W 1588  20.040  21.147  10.727
33195W        W 1589   7.394  29.924  11.192
33196W        W 1590  10.828  23.985  12.871
33197W        W 1591   5.288  18.524  10.461
33198W        W 1592  38.639   8.416  13.020
33199W        W 1593  13.761  27.946  13.024
33200W        W 1594  27.883  26.978  14.641
33201W        W 1595  21.539  12.155   3.854
33202W        W 1596  23.181  39.329   3.116
33203W        W 1597  21.234  36.416  11.861
33204W        W 1598  37.925  43.239   0.137
33205W        W 1599  21.455   2.281  11.972
33206W        W 1600  10.359  17.761  11.176
33207W        W 1601   7.471  32.952  14.582
33208W        W 1602  22.101  35.392   4.165
33209W        W 1603   6.601   0.959  12.194
33210W        W 1604  31.352  31.573  12.356
33211W        W 1605   1.338  30.218   1.412
33212W        W 1606  19.736   6.252   4.296
33213W        W 1607  24.894  43.502  12.973
33214W        W 1608  44.839  21.968   2.946
33215W        W 1609  16.486  18.933  12.422
33216W        W 1610  36.349  31.311  12.068
33217W        W 1611  38.437  30.017   4.594
33218W        W 1612  13.415  40.348  13.864
33219W        W 1613  28.404  43.537  14.891
33220W        W 1614  10.245  25.094  12.117
33221W        W 1615  33.080  24.198   4.597
33222W        W 1616   9.472  44.546   4.143
33223W        W 1617   7.424  29.888   2.769
33224W        W 1618  30.184  36.537   3.981
33225W        W 1619  14.657  43.965  14.827
33226W        W 1620  33.987  39.009  14.598
33227W        W 1621  31.053   3.964  14.577
33228W        W 1622   7.506  23.084   1.623
33229W        W 1623  32.390  12.826  13.439
33230W        W 1624  43.065  33.188  10.146
33231W        W 1625  20.060   6.657   1.810
33232W        W 1626  30.481  24.990  13.004
33233W        W 1627  31.217   0.883  14.390
33234W        W 1628  41.108  39.578  10.889
33235W        W 1629   3.766  35.501  11.029
33236W        W 1630  38.058  37.361  11.988
33237W        W 1631  31.371   4.234  11.557
33238W        W 1632  40.394   5.439   2.830
33239W        W 1633   6.844  37.444  12.521
33240W        W 1634   9.393   8.726  14.823
33241W        W 1635  19.762  16.647   3.269
33242W        W 1636  39.026  13.042  14.934
33243W        W 1637  16.864  35.520   2.879
33244W        W 1638   6.488  25.688   2.169
33245W        W 1639  14.560   3.877   2.144
33246W        W 1640  42.302  37.276  12.836
33247W        W 1641  28.049  37.330   1.090
33248W        W 1642  33.112  38.865  12.595
33249W        W 1643  44.007  15.880   4.360
33250W        W 1644  37.296  23.665  11.968
33251W        W 1645  42.567  20.736   5.031
33252W        W 1646   9.432  33.683  14.206
33253W        W 1647  43.372  27.480   4.158
33254W        W 1648  15.051  15.341  10.747
33255W        W 1649  22.602  22.751  11.094
33256W        W 1650  38.383  32.592   2.642
33257W        W 1651  11.090  28.714   4.052
33258W        W 1652   4.741  30.784  14.491
33259W        W 1653  18.080  27.690   2.880
33260W        W 1654  13.639  26.523  12.483
33261W        W 1655  12.348   4.399   2.372
33262W        W 1656   0.196  33.018   1.369
33263W        W 1657   2.039  10.421  11.632
33264W        W 1658  31.123  18.685   3.148
33265W        W 1659  14.304  44.797   1.219
33266W        W 1660  28.118   9.337  12.551
33267W        W 1661   1.316  36.983  13.951
33268W        W 1662  31.507  32.309  10.578
33269W        W 1663  34.005  10.043  14.480
33270W        W 1664   9.195  17.780  12.875
33271W        W 1665   1.494  21.752  11.233
33272W        W 1666  27.161   9.191   0.834
33273W        W 1667  38.508   1.350   1.164
33274W        W 1668  21.542  10.616   2.394
33275W        W 1669  22.574  21.711   3.287
33276W        W 1670  19.151   0.783  11.658
33277W        W 1671  16.955  40.418  11.994
33278W        W 1672  29.445  21.330  10.205
33279W        W 1673   1.922  12.063   2.749
33280W        W 1674  20.415  10.592  13.914
33281W        W 1675  32.451  21.179  11.047
33282W        W 1676  18.142  31.876   2.844
33283W        W 1677  37.072  30.519  13.500
33284W        W 1678  17.342   3.487  13.042
33285W        W 1679   9.902  35.583  11.538
33286W        W 1680  23.758  38.162   1.479
33287W        W 1681  16.672  36.942   9.728
33288W        W 1682  33.173  29.514  12.277
33289W        W 1683  29.653  29.475  13.342
33290W        W 1684  39.699   1.898  13.981
33291W        W 1685  30.256  44.310  13.344
33292W        W 1686  40.172   7.555   2.716
33293W        W 1687   7.819   0.977   1.460
33294W        W 1688  32.753  10.226   4.855
33295W        W 1689  34.519  20.446   4.648
33296W        W 1690  34.162  39.977  11.828
33297W        W 1691  23.126  37.516  12.807
33298W        W 1692   3.006  33.337  13.806
33299W        W 1693  41.660  28.718  11.444
33300W        W 1694  30.652  38.416  10.565
33301W        W 1695  24.003   0.767  14.220
33302W        W 1696  36.852  34.087  11.441
33303W        W 1697  28.404   8.285   1.818
33304W        W 1698  18.181  41.397  11.068
33305W        W 1699  40.799  15.451  10.701
33306W        W 1700  26.092   5.664   3.348
33307W        W 1701  39.086  38.021  11.544
33308W        W 1702  10.663  25.565   2.935
33309W        W 1703  10.749  33.169  11.635
33310W        W 1704  16.959   1.192  10.859
33311W        W 1705  35.967  43.706   2.925
33312W        W 1706  11.674   3.413  13.391
33313W        W 1707   8.069  39.211   0.224
33314W        W 1708  23.706  11.919  12.552
33315W        W 1709  19.368  27.430   0.757
33316W        W 1710  11.846  39.919  12.622
33317W        W 1711  41.957  38.197   1.279
33318W        W 1712  38.476  17.937  14.708
33319W        W 1713  32.124  14.244  13.965
33320W        W 1714  44.665  39.342  14.440
33321W        W 1715  27.195   7.815   3.791
33322W        W 1716  24.489  24.027  10.929
33323W        W 1717   3.700  33.472  14.363
33324W        W 1718  33.633  10.394  10.305
33325W        W 1719  32.607  32.338   0.954
33326W        W 1720  27.627   7.425   2.935
33327W        W 1721  19.291  39.917   3.765
33328W        W 1722  31.139  40.386   2.740
33329W        W 1723  43.808   4.626   0.338
33330W        W 1724  12.148  30.185  11.728
33331W        W 1725  19.609   2.213  12.577
33332W        W 1726  19.769  26.109   0.994
33333W        W 1727  43.537   5.395  11.940
33334W        W 1728  24.668  35.028  10.946
33335W        W 1729  41.834  44.078  13.994
33336W        W 1730  18.131   5.704  13.368
33337W        W 1731  13.806  12.101   4.580
33338W        W 1732  30.256  20.459  12.493
33339W        W 1733  10.225  13.126   4.177
33340W        W 1734   7.589  40.420  10.970
33341W        W 1735   3.792  36.525   0.613
33342W        W 1736   8.253  15.281   0.515
33343W        W 1737  38.885  37.756   4.502
33344W        W 1738   7.447  34.618  13.832
33345W        W 1739  40.025  39.581   1.292
33346W        W 1740  30.982   7.793   0.209
33347W        W 1741  18.781  43.494   0.360
33348W        W 1742  33.980   7.866  14.015
33349W        W 1743   5.464  35.567  10.712
33350W        W 1744  11.178  23.685  14.488
33351W        W 1745   8.158   9.677  14.185
33352W        W 1746   5.550  15.456   3.083
33353W        W 1747   2.323  39.804   3.895
33354W        W 1748  29.485  39.334   1.430
33355W        W 1749   6.827  29.696  10.495
33356W        W 1750   3.395  41.795  12.021
33357W        W 1751  23.209  41.579  11.663
33358W        W 1752  39.522  15.893  11.414
33359W        W 1753  25.437  21.288  11.546
33360W        W 1754  33.235  28.142  11.156
33361W        W 1755  13.845  39.303  13.285
33362W        W 1756  34.040  33.182  12.396
33363W        W 1757  40.996   9.149   4.826
33364W        W 1758  41.333   7.893  14.344
33365W        W 1759   2.894  26.848   4.117
33366W        W 1760  11.431  18.770   4.010
33367W        W 1761  40.426  19.091   0.302
33368W        W 1762  15.824   8.813  10.229
33369W        W 1763  17.115  32.414  10.218
33370W        W 1764  29.331  17.793   3.841
33371W        W 1765  17.086  38.555   0.532
33372W        W 1766  33.105  29.049  11.002
33373W        W 1767  30.959  44.112  13.629
33374W        W 1768   3.719  42.398   1.880
33375W        W 1769   2.935  33.442   2.872
33376W        W 1770  31.443  12.394  11.075
33377W        W 1771   5.977  41.345  13.291
33378W        W 1772  36.822  12.417  12.573
33379W        W 1773  44.813  30.526  14.415
33380W        W 1774  16.363  29.744   3.379
33381W        W 1775  38.877  14.865  12.748
33382W        W 1776  12.851  10.859   2.940
33383W        W 1777  10.842  33.114  12.557
33384W        W 1778   3.877  32.068  13.091
33385W        W 1779   6.614  35.144   3.757
33386W        W 1780  30.559  26.664  11.252
33387W        W 1781  17.000  38.456  14.080
33388W        W 1782  16.848  22.986  10.760
33389W        W 1783   3.769  21.633  12.081
33390W        W 1784  23.196  32.024  14.783
33391W        W 1785  44.469  34.856  10.172
33392W        W 1786  31.361  35.486  14.419
33393W        W 1787   0.087  32.150   4.567
33394W        W 1788  12.223   8.662  12.565
33395W        W 1789   6.192  30.495   3.761
33396W        W 1790   6.961  42.590  11.053
33397W        W 1791  44.223  32.805   1.113
33398W        W 1792  20.696   8.521   2.299
33399W        W 1793  44.856  11.744  14.032
33400W        W 1794  22.716  22.800   4.630
33401W        W 1795  32.614  36.309  10.573
33402W        W 1796  16.917  41.829   4.603
33403W        W 1797  29.920  11.628  11.157
33404W        W 1798  18.999  32.479  12.029
33405W        W 1799  35.595  43.758  14.662
33406W        W 1800  41.322   4.849  12.780
33407W        W 1801  28.718  36.492  14.965
33408W        W 1802   2.456   8.064   2.182
33409W        W 1803   5.446  25.589   3.136
33410W        W 1804  21.803  39.327   3.054
33411W        W 1805  36.545  24.594  12.530
33412W        W 1806  29.268  40.587   2.769
33413W        W 1807  24.501  25.166   4.480
33414W        W 1808  22.575  41.804  12.101
33415W        W 1809  41.110  16.640   1.760
33416W        W 1810   5.841  27.541  14.733
33417W        W 1811  25.457  42.771  13.428
33418W        W 1812   4.278  25.132   5.161
33419W        W 1813   9.090  43.144   0.183
33420W        W 1814   2.789  26.660  12.415
33421W        W 1815  28.158  17.720   2.659
33422W        W 1816  23.793  22.670   0.833
33423W        W 1817  44.527  24.377  10.217
33424W        W 1818   8.935  19.503   3.259
33425W        W 1819   0.751  18.338   4.226
33426W        W 1820   8.204  29.982   2.222
33427W        W 1821  43.691  29.655  13.983
33428W        W 1822  32.344   5.588   1.887
33429W        W 1823  27.477  38.725  14.855
33430W        W 1824  18.670   1.549   5.017
33431W        W 1825  42.388   6.388   2.760
33432W        W 1826  24.548  34.305   3.880
33433W        W 1827   9.158   6.583   0.379
33434W        W 1828  37.403   2.448  11.618
33435W        W 1829  42.500  41.507   3.759
33436W        W 1830   6.215  20.856  11.577
33437W        W 1831  31.962  21.188  14.825
33438W        W 1832  36.050  32.625   3.205
33439W        W 1833   8.321  13.770  14.455
33440W        W 1834  31.735   3.947   4.433
33441W        W 1835  30.779  12.548  12.877
33442W        W 1836   9.980  25.845  11.384
33443W        W 1837  21.523  25.454  14.047
33444W        W 1838  29.951  36.980  14.656
33445W        W 1839  40.463   2.628  13.840
33446W        W 1840  41.429  32.231  12.863
33447W        W 1841  21.746  24.910  13.433
33448W        W 1842  38.075  36.933  14.638
33449W        W 1843  44.612   2.844  10.725
33450W        W 1844   4.144  44.536  14.460
33451W        W 1845  18.705   1.912   3.627
33452W        W 1846  22.399  33.302  12.594
33453W        W 1847  35.185  28.132  10.224
33454W        W 1848  27.172  19.083   2.357
33455W        W 1849   9.123  42.933  13.725
33456W        W 1850   5.292  18.310   1.810
33457W        W 1851  38.997  25.240  13.734
33458W        W 1852  36.403  24.608   5.004
33459W        W 1853  37.358  17.207  10.920
33460W        W 1854   3.742   8.350   2.452
33461W        W 1855  29.480  11.879  11.183
33462W        W 1856  17.732   9.182   4.128
33463W        W 1857  18.931  20.595   0.324
33464W        W 1858  21.949  14.659  11.524
33465W        W 1859  14.287  18.034  12.937
33466W        W 1860  12.709  44.824  12.820
33467W        W 1861  29.663  24.541   1.445
33468W        W 1862   0.487  29.130  14.794
33469W        W 1863   4.349   6.447   4.123
33470W        W 1864   9.141  30.410  11.087
33471W        W 1865  13.647   7.439  10.674
33472W        W 1866  24.614  34.480   3.376
33473W        W 1867  15.139  27.841   0.246
33474W        W 1868   9.785  17.882  14.527
33475W        W 1869  32.927  25.178  11.942
33476W        W 1870  26.945  12.355   2.863
33477W        W 1871  12.952  44.554  11.577
33478W        W 1872   4.604  17.246   4.141
33479W        W 1873  35.390  43.528  11.523
33480W        W 1874  39.506  10.848   3.200
33481W        W 1875  26.938  32.158  13.265
33482W        W 1876  26.879  43.588   1.859
33483W        W 1877   9.385  32.398   1.313
33484W        W 1878   6.989  31.160   3.857
33485W        W 1879  16.054  22.267  10.690
33486W        W 1880   6.321  32.399  13.916
33487W        W 1881  34.432  37.215  12.649
33488W        W 1882  10.294  36.367  11.326
33489W        W 1883  17.656  26.447   4.976
33490W        W 1884  20.218  12.654  14.098
33491W        W 1885  34.592   4.830   4.157
33492W        W 1886  20.696  12.138   0.976
33493W        W 1887  40.762   2.425   2.852
33494W        W 1888  23.747  34.896   0.050
33495W        W 1889  42.833  28.725  12.793
33496W        W 1890  39.823  19.554  12.857
33497W        W 1891  14.772  28.710   4.869
33498W        W 1892   8.132  18.770   4.671
33499W        W 1893   7.229  40.041  14.588
33500W        W 1894   4.875  36.859  14.378
33501W        W 1895   0.657  15.510   0.295
33502W        W 1896  21.120  29.175  10.303
33503W        W 1897  42.363  18.362   2.197
33504W        W 1898  15.129  36.620   1.862
33505W        W 1899  39.942  11.819  11.120
33506W        W 1900  15.539  12.939   4.145
33507W        W 1901  28.008   5.545  11.770
33508W        W 1902  12.254  15.309  14.248
33509W        W 1903   7.143  33.512   2.290
33510W        W 1904  21.077   3.981  14.983
33511W        W 1905   9.222   3.632  12.642
33512W        W 1906   9.735  14.488  12.762
33513W        W 1907  11.691  10.438  14.987
33514W        W 1908  42.627  36.949  12.511
33515W        W 1909  30.549  27.900   3.768
33516W        W 1910  24.269  15.354  13.338
33517W        W 1911  37.447  19.905  13.860
33518W        W 1912  33.914  37.891  11.621
33519W        W 1913  24.032  37.523   2.852
33520W        W 1914  24.478  31.035   2.852
33521W        W 1915  27.912  31.226   3.831
33522W        W 1916  21.979   9.255  11.034
33523W        W 1917  32.574  38.934  14.474
33524W        W 1918  20.008   5.233   3.041
33525W        W 1919  25.342  24.576   2.738
33526W        W 1920  40.588  24.068  12.586
33527W        W 1921  24.453  14.847  14.234
33528W        W 1922  33.466  34.392  13.377
33529W        W 1923  37.037  20.638  11.632
33530W        W 1924   3.462  43.718   1.251
33531W        W 1925  28.972  35.366   4.249
33532W        W 1926  23.279  10.383  14.421
33533W        W 1927   2.752   0.438  10.343
33534W        W 1928  26.917  19.836   3.221
33535W        W 1929  29.878  15.603  11.133
33536W        W 1930  24.047   6.814   1.278
33537W        W 1931  33.633  37.803  13.538
33538W        W 1932  30.474  19.704  11.456
33539W        W 1933  36.078  31.009   2.426
33540W        W 1934  19.691  20.271  14.084
33541W        W 1935  32.607   0.799   9.983
33542W        W 1936  30.379   9.386   1.658
33543W        W 1937  24.507  23.822   0.381
33544W        W 1938  17.905  23.455  11.589
33545W        W 1939   7.556  41.241   3.209
33546W        W 1940  20.949  10.819   0.723
33547W        W 1941   8.733  25.714  14.773
33548W        W 1942  28.754  40.523   2.756
33549W        W 1943  27.013  26.069   4.741
33550W        W 1944   3.246  11.923  11.187
33551W        W 1945  37.911  24.462  14.361
33552W        W 1946  35.472   8.567   3.641
33553W        W 1947   0.150  14.728  14.861
33554W        W 1948   6.128   6.488  14.337
33555W        W 1949  33.469  34.545  13.892
33556W        W 1950  26.710   5.254   2.196
33557W        W 1951  29.152  23.706   4.531
33558W        W 1952  20.039  13.611  12.606
33559W        W 1953  10.273  43.815  13.386
33560W        W 1954  20.151   7.441  11.201
33561W        W 1955  38.089  38.671  12.926
33562W        W 1956   2.793  20.203   0.168
33563W        W 1957  15.214  41.501  13.274
33564W        W 1958  17.082  22.554  12.955
33565W        W 1959  29.713   0.985   4.564
33566W        W 1960   7.699  39.509  11.952
33567W        W 1961  27.502  34.871  13.770
33568W        W 1962  15.106  20.488  11.103
33569W        W 1963  11.255   9.127  12.902
33570W        W 1964  13.202  10.481  12.992
33571W        W 1965  26.758  34.909   1.192
33572W        W 1966  15.309  21.101  10.734
33573W        W 1967  20.142  20.492  13.341
33574W        W 1968  18.186   7.145  14.943
33575W        W 1969  14.821   6.654  13.158
33576W        W 1970  16.313   6.659  11.038
33577W        W 1971  24.198  23.569   3.199
33578W        W 1972  18.237  39.348  14.866
33579W        W 1973  40.441  33.926  13.764
33580W        W 1974   6.003  14.837  14.951
33581W        W 1975  42.865  16.184  11.434
33582W        W 1976  42.417  39.471   0.975
33583W        W 1977  38.930  17.538  11.545
33584W        W 1978  19.723  21.815   1.729
33585W        W 1979  17.751  23.652   4.544
33586W        W 1980  28.213   5.219  14.440
33587W        W 1981  18.009  37.402   2.274
33588W        W 1982  35.589   8.070  14.785
33589W        W 1983  37.699  35.841   1.770
33590W        W 1984  28.879  16.854   2.306
33591W        W 1985  38.889   0.401   1.881
33592W        W 1986  33.128  25.805   0.148
33593W        W 1987  13.641  20.293   3.682
33594W        W 1988  42.444  14.659   3.280
33595W        W 1989  35.107  16.009  10.687
33596W        W 1990  28.403  10.389   3.233
33597W        W 1991  40.520  25.604   0.469
33598W        W 1992  25.418  31.306   2.696
33599W        W 1993   8.466  15.524   2.939
33600W        W 1994  28.642  20.543   4.614
33601W        W 1995  34.470  43.417  11.698
33602W        W 1996   7.847  43.524   4.369
33603W        W 1997  18.072   2.548  12.638
33604W        W 1998  29.113  17.717  12.005
33605W        W 1999  35.608  33.246  12.069
33606W        W 2000  16.183  42.902  11.988
33607W        W 2001  34.037  25.586   1.365
33608W        W 2002   7.917  30.309   0.057
33609W        W 2003  11.407   3.267  12.916
33610W        W 2004  24.157  18.020  11.586
33611W        W 2005   9.177  25.696  10.746
33612W        W 2006  30.133  36.207  12.081
33613W        W 2007  25.091   1.132  10.510
33614W        W 2008  30.402   2.958   0.259
33615W        W 2009   3.518  44.297   3.217
33616W        W 2010   4.452  24.724   2.348
33617W        W 2011  22.820   0.502   3.697
33618W        W 2012  16.195  12.328   4.867
33619W        W 2013  37.388  10.305   1.742
33620W        W 2014  20.248  24.162  10.586
33621W        W 2015  31.918  17.261   1.330
33622W        W 2016  28.650   6.220   2.294
33623W        W 2017   1.832  27.328  11.537
33624W        W 2018  16.781  25.340   1.297
33625W        W 2019  16.746  32.389   3.979
33626W        W 2020  43.414  18.466   2.872
33627W        W 2021  43.752  41.366   2.451
33628W        W 2022  29.385  16.931   2.179
33629W        W 2023  30.374  25.522   4.227
33630W        W 2024  43.867  41.889  12.382
33631W        W 2025  39.062  15.545   3.647
33632W        W 2026  30.969  13.420   0.994
33633W        W 2027   9.593   7.187  13.575
33634W        W 2028  27.027  18.589   2.243
33635W        W 2029  44.980  34.590   3.246
33636W        W 2030  22.563  12.563   3.292
33637W        W 2031  39.138  12.717  12.569
33638W        W 2032  34.213   4.242  11.436
33639W        W 2033  26.043   6.897   4.119
33640W        W 2034  33.536  17.644   4.938
33641W        W 2035  12.346  29.852  10.922
33642W        W 2036  34.428  38.103  12.442
33643W        W 2037  12.149  43.371   1.326
33644W        W 2038   3.900  26.380   1.706
33645W        W 2039  44.665  33.048   1.314
33646W        W 2040   5.055  14.617   3.514
33647W        W 2041  42.272  20.640  13.431
33648W        W 2042  12.691  26.939  12.030
33649W        W 2043  32.940  16.662  12.018
33650W        W 2044   9.190  16.019   3.298
33651W        W 2045  35.832  20.282   5.027
33652W        W 2046  16.612  43.247  11.732
33653W        W 2047  15.843  12.149   3.775
33654W        W 2048  24.807  14.094  10.682
33655W        W 2049  18.220  35.406  11.495
33656W        W 2050  20.776  32.945   3.909
33657W        W 2051  25.994  14.796   2.714
33658W        W 2052   5.627  19.753   3.632
33659W        W 2053   6.413   6.663   0.889
33660W        W 2054   8.716  18.214  12.159
33661W        W 2055  43.480  11.660   2.724
33662W        W 2056   0.898   3.049  10.290
33663W        W 2057  30.432  33.901  12.043
33664W        W 2058  18.288  42.926   4.964
33665W        W 2059   3.871  17.676   3.285
33666W        W 2060  21.617  19.414  11.451
33667W        W 2061  36.341  16.332  12.850
33668W        W 2062  40.914   9.590   4.563
33669W        W 2063  29.624  16.780  14.725
33670W        W 2064  34.339   6.302   1.575
33671W        W 2065  32.611  10.831  12.875
33672W        W 2066  44.452   3.392   9.998
33673W        W 2067  29.917   3.722   1.178
33674W        W 2068   1.542  12.476  12.959
33675W        W 2069  29.274  14.907  13.027
33676W        W 2070   2.397  34.040   1.030
33677W        W 2071  15.753   1.954  13.752
33678W        W 2072  29.918  34.615  14.463
33679W        W 2073  32.500  25.101   0.961
33680W        W 2074   3.414  39.933   3.422
33681W        W 2075  33.105   3.403  10.745
33682W        W 2076  30.394   1.941   0.805
33683W        W 2077   0.423  19.767   3.738
33684W        W 2078   0.979   8.140   2.226
33685W        W 2079  34.054  13.996   3.351
33686W        W 2080   7.114  36.424  13.917
33687W        W 2081  39.852  39.365   5.074
33688W        W 2082  40.851   7.311   4.610
33689W        W 2083  42.195   5.979   1.292
33690W        W 2084  15.092  35.775  12.630
33691W        W 2085   0.222  32.585  11.166
33692W        W 2086   9.454  18.932   4.325
33693W        W 2087  42.246   5.066   1.598
33694W        W 2088  40.621   7.216  14.513
33695W        W 2089  17.491   1.954   2.409
33696W        W 2090  10.846  44.383   1.861
33697W        W 2091  18.159  30.585  11.444
33698W        W 2092  39.217  26.587  11.935
33699W        W 2093  12.776  31.622   1.279
33700W        W 2094  36.626  43.383   4.581
33701W        W 2095  33.219  22.024   1.705
33702W        W 2096  18.799  14.694   0.252
33703W        W 2097  32.321  37.513  11.565
33704W        W 2098  34.236  42.067   0.508
33705W        W 2099   8.289   3.035   2.770
33706W        W 2100  21.500  14.129  12.521
33707W        W 2101   6.146  27.227   3.171
33708W        W 2102   4.973  10.716  10.132
33709W        W 2103  12.287  20.089   1.322
33710W        W 2104  38.910  39.021   3.313
33711W        W 2105  24.080  44.300  14.500
33712W        W 2106  19.757  28.346   3.606
33713W        W 2107  32.048  17.971  10.949
33714W        W 2108   5.805  44.867  13.135
33715W        W 2109  14.444   1.892   4.632
33716W        W 2110  35.394  16.092   1.427
33717W        W 2111  33.540   5.356   1.286
33718W        W 2112   8.385  20.641   4.932
33719W        W 2113  22.127  23.513   0.544
33720W        W 2114  43.373  23.528   0.499
33721W        W 2115  23.749  27.504  14.540
33722W        W 2116  42.916  21.639  14.993
33723W        W 2117   9.483  35.138   0.775
33724W        W 2118  36.434  16.674  14.129
33725W        W 2119   7.589  19.650  11.568
33726W        W 2120  30.387  16.748   3.689
33727W        W 2121   6.336  40.446   0.734
33728W        W 2122   2.924  41.358  14.605
33729W        W 2123   2.233  20.319   4.664
33730W        W 2124  25.207  37.045  13.511
33731W        W 2125   8.096   2.405   4.135
33732W        W 2126  36.474  41.259   3.706
33733W        W 2127  11.429  28.908   4.849
33734W        W 2128  27.437  12.592  14.166
33735W        W 2129  32.333  39.039  12.524
33736W        W 2130  16.020  26.318  14.340
33737W        W 2131  18.964  10.680  13.985
33738W        W 2132  21.332  21.639  13.851
33739W        W 2133  18.994  10.139   1.311
33740W        W 2134  10.720  37.058  14.766
33741W        W 2135  28.997  13.395  12.132
33742W        W 2136  18.546  21.470  14.005
33743W        W 2137  27.134  19.614  14.521
33744W        W 2138  42.450  37.572  11.191
33745W        W 2139  10.329  39.358   0.585
33746W        W 2140  12.845  41.296   4.083
33747W        W 2141  26.323  10.327   3.717
33748W        W 2142  20.987  19.511   0.446
33749W        W 2143  24.520  22.114  12.381
33750W        W 2144  13.135   3.297  14.867
33751W        W 2145  29.780   2.948  11.971
33752W        W 2146  31.426  13.234  14.954
33753W        W 2147  40.975  27.217  10.654
33754W        W 2148  14.808   9.274   0.692
33755W        W 2149  28.941  32.136   4.259
33756W        W 2150  24.010  38.037   2.845
33757W        W 2151  37.088  16.583  11.578
33758W        W 2152   5.707  21.012  14.756
33759W        W 2153   4.834   4.887  11.073
33760W        W 2154  17.202  21.685   4.694
33761W        W 2155   7.215  35.390   4.910
33762W        W 2156  29.338  14.258  14.581
33763W        W 2157   6.300  22.205  14.560
33764W        W 2158  42.104   2.343   3.087
33765W        W 2159  17.658  14.364   4.083
33766W        W 2160  39.362   6.885   3.220
33767W        W 2161   6.911  43.243  14.397
33768W        W 2162  44.835   8.873   4.539
33769W        W 2163  42.229  26.671  11.609
33770W        W 2164  40.203  24.517   0.975
33771W        W 2165   3.966  31.612  11.797
33772W        W 2166  17.103  16.883  14.495
33773W        W 2167  23.237  42.374  12.112
33774W        W 2168   9.412  25.815   3.442
33775W        W 2169  25.575   2.371  12.136
33776W        W 2170  38.632  21.022   3.092
33777W        W 2171   8.390  25.983   4.153
33778W        W 2172  38.086   2.996   2.506
33779W        W 2173  44.122   7.696   3.344
33780W        W 2174  33.564   3.382   2.953
33781W        W 2175  36.926   7.021   2.993
33782W        W 2176   7.515  15.443   5.000
33783W        W 2177  15.360  39.050   2.617
33784W        W 2178   1.940  20.391  12.345
33785W        W 2179  16.654  19.532   2.722
33786W        W 2180  10.748  20.299  13.413
33787W        W 2181  13.199   1.320  12.140
33788W        W 2182  40.075   8.370  13.477
33789W        W 2183  37.423  38.875   2.687
33790W        W 2184  42.997  15.084  12.540
33791W        W 2185  34.831  44.279  12.515
33792W        W 2186  41.756  44.846   4.632
33793W        W 2187  42.630   0.278   1.656
33794W        W 2188  20.009  39.757   0.850
33795W        W 2189  30.244  23.326  11.425
33796W        W 2190  39.337  28.647   1.345
33797W        W 2191  15.992  36.594   0.477
33798W        W 2192  18.067   7.333  12.891
33799W        W 2193   6.185  22.178   2.080
33800W        W 2194  16.803  42.735  10.628
33801W        W 2195  22.572  13.647   4.735
33802W        W 2196   7.439   6.282   3.679
33803W        W 2197   1.661  22.276   2.297
33804W        W 2198  39.264  39.531  14.407
33805W        W 2199  27.077  42.408  12.439
33806W        W 2200  31.623  23.733  13.634
33807W        W 2201  20.822  29.083   2.575
33808W        W 2202  30.476  39.809   3.826
33809W        W 2203  21.237  33.526   3.885
33810W        W 2204  14.045  28.453  14.082
33811W        W 2205   3.227  33.331  14.708
33812W        W 2206  12.859  27.847   0.524
33813W        W 2207  22.678  13.583   3.347
33814W        W 2208  17.181  37.609   4.197
33815W        W 2209   2.022  43.822   2.638
33816W        W 2210  40.129  14.441  10.836
33817W        W 2211  24.492  34.198  14.480
33818W        W 2212   8.295   6.255   1.265
33819W        W 2213  11.490  16.791  14.255
33820W        W 2214   3.894  34.129  12.128
33821W        W 2215  16.069  17.755   1.834
33822W        W 2216  35.026  21.411   1.212
33823W        W 2217  10.785   2.426   2.360
33824W        W 2218  36.313   5.418   2.871
33825W        W 2219  39.811  24.069  13.760
33826W        W 2220  25.137   2.853  11.475
33827W        W 2221  25.936  23.975   2.212
33828W        W 2222  32.452   7.036   0.219
33829W        W 2223  37.652  16.755   2.726
33830W        W 2224  29.105  29.526  13.464
33831W        W 2225  12.767  12.560   0.233
33832W        W 2226  37.117   8.324   0.463
33833W        W 2227  43.010  12.578   0.357
33834W        W 2228   9.256   9.285  10.784
33835W        W 2229  25.242  37.953  13.502
33836W        W 2230   6.380  28.182   3.658
33837W        W 2231  10.193  14.240   1.465
33838W        W 2232  32.815  22.178  14.354
33839W        W 2233  44.452  38.525  12.511
33840W        W 2234  42.409   0.754   1.887
33841W        W 2235  27.287   8.410   0.019
33842W        W 2236   1.200   1.865   4.926
33843W        W 2237   6.299   5.378  14.410
33844W        W 2238  27.209  30.566  14.270
33845W        W 2239   3.985  41.765  11.183
33846W        W 2240  36.738  25.505   2.739
33847W        W 2241  27.467   6.777  13.452
33848W        W 2242   1.829  11.688  11.852
33849W        W 2243  21.680   4.467  12.441
33850W        W 2244  20.640  37.848  12.347
33851W        W 2245   5.192  34.989   1.557
33852W        W 2246   3.305  27.899  12.579
33853W        W 2247  32.394  22.761   0.985
33854W        W 2248   9.233  27.982  10.590
33855W        W 2249   6.458  27.429  13.529
33856W        W 2250  31.498  16.635  14.004
33857W        W 2251   8.167  23.643   1.780
33858W        W 2252  18.689  37.516  10.807
33859W        W 2253  40.619  20.494   3.189
33860W        W 2254  29.981   7.813   1.313
33861W        W 2255  29.456  18.347  13.418
33862W        W 2256  35.428  11.777   0.336
33863W        W 2257  28.923  13.724  14.991
33864W        W 2258   9.446  38.636  11.423
33865W        W 2259  10.439  40.501   0.384
33866W        W 2260  20.804  37.904  13.854
33867W        W 2261  39.762   7.929  12.211
33868W        W 2262  15.138  38.411   3.823
33869W        W 2263  35.852  44.474   3.276
33870W        W 2264  40.836  23.973   1.470
33871W        W 2265  22.079  23.549  14.030
33872W        W 2266  14.274  23.508  12.102
33873W        W 2267  25.988  43.742   4.439
33874W        W 2268  14.287  44.365  12.126
33875W        W 2269  10.661  22.951  11.517
33876W        W 2270  13.876  17.520  12.349
33877W        W 2271   9.732  40.620  14.950
33878W        W 2272  38.522  14.676   0.192
33879W        W 2273  44.466  39.328   2.796
33880W        W 2274  22.252   9.294   3.257
33881W        W 2275   9.641  12.765   1.855
33882W        W 2276  44.846   4.260  12.805
33883W        W 2277  42.268  39.796  14.332
33884W        W 2278  14.687  40.294  11.108
33885W        W 2279   6.329   1.830   1.910
33886W        W 2280  22.527  19.426  10.766
33887W        W 2281  27.565  20.456   3.227
33888W        W 2282  41.007   6.452  10.832
33889W        W 2283  27.616   1.756  13.779
33890W        W 2284  31.760   2.305   3.751
33891W        W 2285  41.270  44.944  12.069
33892W        W 2286  43.461  18.698   0.937
33893W        W 2287  28.140   9.413  13.430
33894W        W 2288   8.407  29.873  12.278
33895W        W 2289  13.691   1.769  11.668
33896W        W 2290  14.682  40.858  12.072
33897W        W 2291  12.841  24.180  10.929
33898W        W 2292  20.034  38.936   1.211
33899W        W 2293   7.387  13.521  12.927
33900W        W 2294  38.881  42.928  13.404
33901W        W 2295  23.604  29.947   2.189
33902W        W 2296  27.982  16.570   0.647
33903W        W 2297  10.727  17.543   0.460
33904W        W 2298  29.184  18.280   3.633
33905W        W 2299  27.670  36.119  10.665
33906W        W 2300  30.843  38.026   0.018
33907W        W 2301  24.548   0.514  13.344
33908W        W 2302  40.967  39.449  11.365
33909W        W 2303  44.521  32.299   3.678
33910W        W 2304  39.366  17.316  13.152
33911W        W 2305  39.324  26.863   0.944
33912W        W 2306  20.022   1.760  11.916
33913W        W 2307   0.354   9.768  11.590
33914W        W 2308  34.656  24.437   2.040
33915W        W 2309  14.787  33.094   0.016
33916W        W 2310  36.003  42.121  14.962
33917W        W 2311  13.808   0.148   4.126
33918W        W 2312  17.356  36.688  10.202
33919W        W 2313  22.216  22.631  13.756
33920W        W 2314  20.248  18.980   1.338
33921W        W 2315   4.453  19.058  11.099
33922W        W 2316  13.049  22.462  11.459
33923W        W 2317  29.573  11.666   3.606
33924W        W 2318  43.576  30.965  12.140
33925W        W 2319   9.819  32.433  12.047
33926W        W 2320  27.075   9.206  11.244
33927W        W 2321  43.529  20.696  10.826
33928W        W 2322  29.133   2.076   0.373
33929W        W 2323  23.535  43.933   2.389
33930W        W 2324  28.513  21.099  13.330
33931W        W 2325  10.674   2.900  11.523
33932W        W 2326  10.245  15.335   0.812
33933W        W 2327  42.917  12.752  11.892
33934W        W 2328  30.654  19.684  13.282
33935W        W 2329   8.446  15.648   2.449
33936W        W 2330  19.246  16.895   0.401
33937W        W 2331  40.653  22.599   4.195
33938W        W 2332  21.003  26.437  13.646
33939W        W 2333   2.942  11.292  10.676
33940W        W 2334  37.923   2.821   5.036
33941W        W 2335   3.367  10.712   1.946
33942W        W 2336   6.599   4.937   2.566
33943W        W 2337  15.307   2.004   3.259
33944W        W 2338  41.325  41.555   3.205
33945W        W 2339  20.237   4.492  13.388
33946W        W 2340  42.731   0.266   2.163
33947W        W 2341  40.399  36.366   1.009
33948W        W 2342   1.017  29.511   4.608
33949W        W 2343  21.048  29.026   3.542
33950W        W 2344  17.655  26.711   2.357
33951W        W 2345   9.563  27.614  12.518
33952W        W 2346  33.502  28.217   3.905
33953W        W 2347  16.078  11.339   3.597
33954W        W 2348  34.958  20.578   1.460
33955W        W 2349   1.850   9.803   2.283
33956W        W 2350  15.119  16.152   0.277
33957W        W 2351  36.054   9.605   1.948
33958W        W 2352  20.220  11.764   0.345
33959W        W 2353  23.095  22.242  13.357
33960W        W 2354  39.336  26.690   2.324
33961W        W 2355  39.733   7.796  14.415
33962W        W 2356   6.783  35.579   1.196
33963W        W 2357  43.941   0.801  12.059
33964W        W 2358  15.800  40.809  11.552
33965W        W 2359  19.750  23.663  12.555
33966W        W 2360  28.067  42.807  12.618
33967W        W 2361  44.777  44.539  11.082
33968W        W 2362  44.429  28.321  10.742
33969W        W 2363  20.195  15.043   4.225
33970W        W 2364   2.375  20.887   1.546
33971W        W 2365  35.401  29.889   4.225
33972W        W 2366  14.669  20.042   4.573
33973W        W 2367  30.475  17.170   1.321
33974W        W 2368  42.968   3.939  14.504
33975W        W 2369  28.362   6.290   1.842
33976W        W 2370   7.737   1.246   3.800
33977W        W 2371  43.443  35.483  14.280
33978W        W 2372   3.308  18.796   3.716
33979W        W 2373  26.587  27.004   2.380
33980W        W 2374  37.240  13.356  11.500
33981W        W 2375   2.895  26.598   1.889
33982W        W 2376   1.952   0.877   2.693
33983W        W 2377   1.999  32.711  11.246
33984W        W 2378  31.429  13.619  13.572
33985W        W 2379  11.720  43.246   2.132
33986W        W 2380  30.492  44.405   4.377
33987W        W 2381  22.249  30.956  11.619
33988W        W 2382   1.874   5.394  13.949
33989W        W 2383  12.145   3.207   3.264
33990W        W 2384   9.999  15.685  14.906
33991W        W 2385  30.095   1.217  12.482
33992W        W 2386  24.065  12.910  14.023
33993W        W 2387  36.957  19.221   2.291
33994W        W 2388  22.466  28.640   4.118
33995W        W 2389  33.197  20.578  13.767
33996W        W 2390   3.402  30.596  12.622
33997W        W 2391  25.683  21.314  12.039
33998W        W 2392  13.058  31.413  11.033
33999W        W 2393   1.668  19.278  11.580
34000W        W 2394  22.325  32.474   2.437
34001W        W 2395  25.943  38.761  10.446
34002W        W 2396  26.961  17.614  13.806
34003W        W 2397   6.344  21.837   2.821
34004W        W 2398  38.888  39.079  12.972
34005W        W 2399  41.389  33.996  12.782
34006W        W 2400  42.271  24.499   0.860
34007W        W 2401  17.494   8.620   1.782
34008W        W 2402  12.082  13.558  13.421
34009W        W 2403  39.387  15.591  10.501
34010W        W 2404  30.640  17.879   4.106
34011W        W 2405   4.006  34.376   3.253
34012W        W 2406  44.896  29.061   4.254
34013W        W 2407  26.545  32.317   0.768
34014W        W 2408  34.591  27.401   4.322
34015W        W 2409  24.067  25.534   1.046
34016W        W 2410  28.636  18.521   3.751
34017W        W 2411  25.476   5.320   3.561
34018W        W 2412  41.309  11.902  10.770
34019W        W 2413  27.498  15.506   0.010
34020W        W 2414  43.805   9.836   1.470
34021W        W 2415  14.709  34.948   3.626
34022W        W 2416  36.347  23.800  14.991
34023W        W 2417  35.712  12.115  14.591
34024W        W 2418  12.722  42.329  12.350
34025W        W 2419  14.109  22.691   2.497
34026W        W 2420  44.799   3.261  10.459
34027W        W 2421  24.481  17.251  12.588
34028W        W 2422  37.490  21.260  14.308
34029W        W 2423  35.582  13.712  12.107
34030W        W 2424  15.757  31.157  11.170
34031W        W 2425   3.250  26.438  12.630
34032W        W 2426  28.938  20.114  11.270
34033W        W 2427   4.377  28.599   3.371
34034W        W 2428   8.595  36.584  12.126
34035W        W 2429   0.785  42.288   1.893
34036W        W 2430  31.925  42.373  11.566
34037W        W 2431  31.398  29.745  12.100
34038W        W 2432   1.283  32.343   0.862
34039W        W 2433  39.547  31.631  13.557
34040W        W 2434  43.234  11.524   2.280
34041W        W 2435  19.523   6.678   1.812
34042W        W 2436  22.589   0.260   4.687
34043W        W 2437   8.761  37.874  14.755
34044W        W 2438   2.758  34.968   1.050
34045W        W 2439  29.731  18.759  13.534
34046W        W 2440  34.591  43.199   0.172
34047W        W 2441  36.135   3.338  11.765
34048W        W 2442  14.758  22.532  12.366
34049W        W 2443  18.384  32.677   3.242
34050W        W 2444   2.120   2.547  14.968
34051W        W 2445  31.466   1.882   3.751
34052W        W 2446  19.547   7.129  11.501
34053W        W 2447  37.605  36.960   0.914
34054W        W 2448  40.755   8.739   4.612
34055W        W 2449  40.327  25.029  13.576
34056W        W 2450  29.629  38.162  13.082
34057W        W 2451  37.375   2.820  14.409
34058W        W 2452  30.433  36.309  11.653
34059W        W 2453  41.068  11.408  12.410
34060W        W 2454  21.222  44.805   3.204
34061W        W 2455  19.562  34.306  11.314
34062W        W 2456  30.046  15.723  14.809
34063W        W 2457  38.363  25.040  11.284
34064W        W 2458   1.637  19.147  13.009
34065W        W 2459  16.070  35.057  12.971
34066W        W 2460   5.342   7.166  11.905
34067W        W 2461  26.965  36.963   3.617
34068W        W 2462   7.629   2.196  12.166
34069W        W 2463  42.507  36.220   3.704
34070W        W 2464  11.904  34.384   3.349
34071W        W 2465  20.105   4.022  11.951
34072W        W 2466  20.255  18.369  11.093
34073W        W 2467  25.573  15.848   1.844
34074W        W 2468  35.271   1.960   1.250
34075W        W 2469  30.979   1.697   4.168
34076W        W 2470   2.265  33.819   9.741
34077W        W 2471  32.130  22.176  12.981
34078W        W 2472   1.701   6.225  13.099
34079W        W 2473  15.251  39.911   1.870
34080W        W 2474   0.307  13.347   0.374
34081W        W 2475  23.956  32.336  14.442
34082W        W 2476  38.484  11.764   0.853
34083W        W 2477  19.071  38.478  11.360
34084W        W 2478  20.935  11.754   2.621
34085W        W 2479  10.625  29.227  10.972
34086W        W 2480  13.381  43.824  11.387
34087W        W 2481   2.503  29.109  14.940
34088W        W 2482  13.395  13.588   3.725
34089W        W 2483  36.148  16.296  14.360
34090W        W 2484  38.547  28.496  14.946
34091W        W 2485  10.297  23.251  13.905
34092W        W 2486   8.923   9.049  11.574
34093W        W 2487  41.786  17.974  12.295
34094W        W 2488  20.094  43.891   2.698
34095W        W 2489  10.255  40.493  10.669
34096W        W 2490   7.749  14.229  13.593
34097W        W 2491  41.504   3.933   4.581
34098W        W 2492  14.618  29.122   4.594
34099W        W 2493  25.973  38.109  11.159
34100W        W 2494  33.410  20.536   3.173
34101W        W 2495  25.506  37.266  12.617
34102W        W 2496  15.645  18.197  11.081
34103W        W 2497  34.630  28.278   0.948
34104W        W 2498  44.668  34.023  12.987
34105W        W 2499  29.473  44.869   3.740
34106W        W 2500  29.987   4.937  11.181
34107W        W 2501  29.582   8.360   3.590
34108W        W 2502  22.793  35.685  12.619
34109W        W 2503  44.377  22.539  11.843
34110W        W 2504  18.715  17.728  12.980
34111W        W 2505  44.003  17.610   0.538
34112W        W 2506   7.835  17.153  10.953
34113W        W 2507  13.667  33.293   2.845
34114W        W 2508  28.659  35.535   3.463
34115W        W 2509  33.007  25.756   1.403
34116W        W 2510  35.515  39.925   2.948
34117W        W 2511   3.808  39.371  10.915
34118W        W 2512  12.392  24.984  12.025
34119W        W 2513  29.787  37.392  12.462
34120W        W 2514  35.124  37.747   4.311
34121W        W 2515   4.229  43.561   0.716
34122W        W 2516  29.496  22.953  14.001
34123W        W 2517  17.673  33.860   3.560
34124W        W 2518   5.810  10.203  11.435
34125W        W 2519   7.483   6.264   2.134
34126W        W 2520  19.825  11.458  11.553
34127W        W 2521   4.248  26.124   1.324
34128W        W 2522  34.167  27.959   2.247
34129W        W 2523  14.187   3.109   1.422
34130W        W 2524  29.203  29.705  10.809
34131W        W 2525  39.794  27.893   3.569
34132W        W 2526  44.477  37.287   2.931
34133W        W 2527  19.061  33.891   0.765
34134W        W 2528  12.151   7.906  11.664
34135W        W 2529  31.423  30.190   1.141
34136W        W 2530  40.733  16.721   3.555
34137W        W 2531  20.133  17.534  14.176
34138W        W 2532  38.364  10.150  10.372
34139W        W 2533  37.064  21.328   1.787
34140W        W 2534  35.916   5.936  13.323
34141W        W 2535  18.880  14.433  12.561
34142W        W 2536   5.237  24.296   3.527
34143W        W 2537  29.607   1.896   0.397
34144W        W 2538   5.191   3.189  11.074
34145W        W 2539  31.353  44.922   2.651
34146W        W 2540  32.187  20.396  10.923
34147W        W 2541  18.249  17.604  11.605
34148W        W 2542  43.736  34.408  13.199
34149W        W 2543  35.056  35.447   1.157
34150W        W 2544  43.756   7.926  12.049
34151W        W 2545  34.514  40.891   1.875
34152W        W 2546  25.670  42.882   4.045
34153W        W 2547  35.029  17.121   0.239
34154W        W 2548  26.260  31.409  14.168
34155W        W 2549  18.261  30.146   1.857
34156W        W 2550  18.535   3.794   4.171
34157W        W 2551  15.725  38.070   1.785
34158W        W 2552  35.479  16.649  14.436
34159W        W 2553  12.688  37.358   2.181
34160W        W 2554   5.496   9.928  12.140
34161W        W 2555  14.374  24.229  13.434
34162W        W 2556  16.638  29.698  14.895
34163W        W 2557  21.172  36.888   2.148
34164W        W 2558  30.528   6.754  12.464
34165W        W 2559  14.876  15.343   1.575
34166W        W 2560  29.316   6.815  14.474
34167W        W 2561  12.751  21.156   3.844
34168W        W 2562  44.441  23.496  11.502
34169W        W 2563  43.064  26.989   4.140
34170W        W 2564  20.025  25.481   5.252
34171W        W 2565  10.116   7.422  11.708
34172W        W 2566  43.839  34.938   0.704
34173W        W 2567  32.911  42.979   3.774
34174W        W 2568  36.299  35.792   1.955
34175W        W 2569  10.132   3.998  10.974
34176W        W 2570  26.694  41.028  12.981
34177W        W 2571  19.819  20.760  11.912
34178W        W 2572  39.861  15.378  10.437
34179W        W 2573  30.044  21.962   2.716
34180W        W 2574   8.364  32.136   1.287
34181W        W 2575   4.418   8.601  12.372
34182W        W 2576   3.996   3.386  12.020
34183W        W 2577  31.465  24.020   2.724
34184W        W 2578  41.491  40.549  11.256
34185W        W 2579  34.051  42.830   0.796
34186W        W 2580  17.594  43.496   2.865
34187W        W 2581  26.434  35.938  13.943
34188W        W 2582   7.734   8.288  13.603
34189W        W 2583  16.392  33.153  14.606
34190W        W 2584  29.670  42.391  11.933
34191W        W 2585   6.269  15.761   0.019
34192W        W 2586  19.717  13.276   2.659
34193W        W 2587  11.933  10.912  12.488
34194W        W 2588   9.102  29.729   0.363
34195W        W 2589  29.614  22.537   2.631
34196W        W 2590   5.989   6.664   0.281
34197W        W 2591  33.184   1.273   0.040
34198W        W 2592   6.206   1.906   2.842
34199W        W 2593  31.479  44.522   3.347
34200W        W 2594  43.803  26.577  14.812
34201W        W 2595  32.077  43.726   0.808
34202W        W 2596   5.421   5.701  14.474
34203W        W 2597  17.417  38.781   3.108
34204W        W 2598  35.765  36.490   3.332
34205W        W 2599   1.751  17.988  13.947
34206W        W 2600  17.992  38.509   1.772
34207W        W 2601  41.640   9.430   3.194
34208W        W 2602  42.972   9.903  11.088
34209W        W 2603   0.224   5.209   1.980
34210W        W 2604   7.579  28.658  11.536
34211W        W 2605  23.644  26.286   3.678
34212W        W 2606  29.324   7.989  12.192
34213W        W 2607   9.324  37.636   1.975
34214W        W 2608  35.001  33.093   4.908
34215W        W 2609   9.149  31.504  11.139
34216W        W 2610  27.903  20.151  12.022
34217W        W 2611  23.954  11.025  12.688
34218W        W 2612  21.151  24.545   4.712
34219W        W 2613   7.050  44.109  11.206
34220W        W 2614  23.629   9.216  14.550
34221W        W 2615  13.578  10.647  10.622
34222W        W 2616  41.435  31.617  13.609
34223W        W 2617  31.908  29.108  10.774
34224W        W 2618   3.508  12.601  10.300
34225W        W 2619  37.823  31.593  11.502
34226W        W 2620  20.565  15.467  10.115
34227W        W 2621  18.004  38.472  13.949
34228W        W 2622  22.876   9.192   2.154
34229W        W 2623  39.123   1.914   0.249
34230W        W 2624  34.837  16.220   3.606
34231W        W 2625  26.244  39.367  12.515
34232W        W 2626  26.394  44.800  14.160
34233W        W 2627   6.858  25.239   2.199
34234W        W 2628  35.920  41.810   2.200
34235W        W 2629   1.910  13.389   1.874
34236W        W 2630  31.206  36.618  10.711
34237W        W 2631  20.766  20.437   4.156
34238W        W 2632  42.493  17.427   0.320
34239W        W 2633  35.526   2.932   3.144
34240W        W 2634  25.543  15.290   1.907
34241W        W 2635  40.614  27.325  13.376
34242W        W 2636  27.628  20.817   2.202
34243W        W 2637   9.859  23.717  14.775
34244W        W 2638  44.949   6.916   3.592
34245W        W 2639  35.571  15.748   1.827
34246W        W 2640  22.447  25.764   0.709
34247W        W 2641  18.005  26.923   0.494
34248W        W 2642  28.654  15.119  10.371
34249W        W 2643  30.957  23.511  10.325
34250W        W 2644  23.115  37.323   0.392
34251W        W 2645  44.475  41.990  13.952
34252W        W 2646  38.762  33.992  13.110
34253W        W 2647   0.058   6.252  11.311
34254W        W 2648  12.182   9.380   1.695
34255W        W 2649   4.415   6.966  14.938
34256W        W 2650  36.438  38.402  11.006
34257W        W 2651  25.614   1.875  14.288
34258W        W 2652   1.207  34.367   2.383
34259W        W 2653   6.073  16.178   3.597
34260W        W 2654  37.862  32.881  12.056
34261W        W 2655  43.705   7.150  12.528
34262W        W 2656  29.415  44.433  12.873
34263W        W 2657  20.064  25.979   4.530
34264W        W 2658  23.740   7.154  14.740
34265W        W 2659  34.258  18.685   0.964
34266W        W 2660  20.598   7.377  10.607
34267W        W 2661  33.811  28.359  11.168
34268W        W 2662  39.405  39.037   3.730
34269W        W 2663   1.481  41.710   2.114
34270W        W 2664  12.103  42.035   3.793
34271W        W 2665   7.783   6.327   5.538
34272W        W 2666  19.798   5.873  13.572
34273W        W 2667  17.267  10.819  14.461
34274W        W 2668  22.639   1.194   4.772
34275W        W 2669   0.722  44.300   0.997
34276W        W 2670  39.668  10.279  10.679
34277W        W 2671  34.341  40.642  12.356
34278W        W 2672   9.833   3.412   0.399
34279W        W 2673  38.822   9.914  10.525
34280W        W 2674   3.418  18.568   2.321
34281W        W 2675   8.956   9.730  10.802
34282W        W 2676  31.983   2.305   4.210
34283W        W 2677  25.681  19.937   2.822
34284W        W 2678  13.705  34.094  13.778
34285W        W 2679  19.992   5.694  14.975
34286W        W 2680  16.685  37.047  14.912
34287W        W 2681  23.533  37.695   1.290
34288W        W 2682  15.985   3.918   2.168
34289W        W 2683  24.032  41.348   1.227
34290W        W 2684  35.190  26.906  13.851
34291W        W 2685  28.383  40.197   0.257
34292W        W 2686   2.386  31.110  13.247
34293W        W 2687  19.744  14.950  14.318
34294W        W 2688  31.537  25.606   2.421
34295W        W 2689  26.434  37.294   0.916
34296W        W 2690  11.534  38.590  13.465
34297W        W 2691  23.062  17.278   0.000
34298W        W 2692   5.314  13.649   0.938
34299W        W 2693   4.721  17.153   0.877
34300W        W 2694  17.529  43.246   3.856
34301W        W 2695   1.481  29.758  10.711
34302W        W 2696  35.446  21.187  12.501
34303W        W 2697  14.690  44.427  14.547
34304W        W 2698  11.200  28.344  13.987
34305W        W 2699  20.874  16.750   9.897
34306W        W 2700  34.639  37.933  14.346
34307W        W 2701  18.394  10.417  13.724
34308W        W 2702  31.832  32.507   1.396
34309W        W 2703   9.891   6.441   3.900
34310W        W 2704  44.429  22.023  13.984
34311W        W 2705  14.171  29.184   1.793
34312W        W 2706  24.478  15.813   1.922
34313W        W 2707  39.118   3.981   3.240
34314W        W 2708  25.060  12.316  14.360
34315W        W 2709  12.698  40.535   1.437
34316W        W 2710  35.875  44.409  11.512
34317W        W 2711  38.969  37.205   0.489
34318W        W 2712  40.527   4.455   1.998
34319W        W 2713  40.283  31.700   0.408
34320W        W 2714   5.272  30.965   1.770
34321W        W 2715  34.893  29.820   3.451
34322W        W 2716  25.181   2.783  10.544
34323W        W 2717  14.590  19.002   1.343
34324W        W 2718   5.020  31.451   0.840
34325W        W 2719   7.537   4.272   0.754
34326W        W 2720  42.934  38.387  13.520
34327W        W 2721  17.583  11.560   0.884
34328W        W 2722  36.382   4.866  14.830
34329W        W 2723  34.577   5.663  12.922
34330W        W 2724  39.569   3.902   2.889
34331W        W 2725  15.620  26.405   3.189
34332W        W 2726  19.080  24.444   3.171
34333W        W 2727  10.220  37.993   4.967
34334W        W 2728  15.285  21.118  14.851
34335W        W 2729  37.323  16.130  13.131
34336W        W 2730   6.509  10.832  13.930
34337W        W 2731  17.983  33.534   3.310
34338W        W 2732  42.483  22.663   3.118
34339W        W 2733  30.375   2.990   4.231
34340W        W 2734  22.627  31.065  10.609
34341W        W 2735   3.694   3.034  13.647
34342W        W 2736   7.720   2.171  14.872
34343W        W 2737  33.972  24.732  11.610
34344W        W 2738   7.983  43.513  13.057
34345W        W 2739   8.000  21.143  11.070
34346W        W 2740  35.706  38.582  12.074
34347W        W 2741   9.664   3.793   3.706
34348W        W 2742  40.718  40.824   2.444
34349W        W 2743  34.699  31.432  11.483
34350W        W 2744  25.006  25.164   4.300
34351W        W 2745  24.038  14.381  13.499
34352W        W 2746  26.589  42.994  12.500
34353W        W 2747  32.791   1.387  12.436
34354W        W 2748   4.008  41.356   4.178
34355W        W 2749   0.771  38.460   0.960
34356W        W 2750  38.830   6.910  13.809
34357W        W 2751  36.462  38.041   3.526
34358W        W 2752  38.569  18.209   3.089
34359W        W 2753   7.152  18.785   0.704
34360W        W 2754  12.900  42.439   3.875
34361W        W 2755  25.153  21.147   4.072
34362W        W 2756  36.863  24.602   4.743
34363W        W 2757   9.971  23.180   2.825
34364W        W 2758   2.939  22.213  10.928
34365W        W 2759  16.845  17.233  12.071
34366W        W 2760   0.833  38.149   2.420
34367W        W 2761  37.371  13.719  12.692
34368W        W 2762  20.772  42.297   0.334
34369W        W 2763  22.916  24.036   1.382
34370W        W 2764  26.478  14.665   4.461
34371W        W 2765  15.014  11.704  13.955
34372W        W 2766  22.634  44.787   0.823
34373W        W 2767  13.198   2.324   4.397
34374W        W 2768  42.511  18.531   4.627
34375W        W 2769  10.179   7.802   0.316
34376W        W 2770  35.903  37.856   1.773
34377W        W 2771  18.654  37.308   1.772
34378W        W 2772  36.589  41.956   4.260
34379W        W 2773  42.153  18.067  10.052
34380W        W 2774  27.571  44.794   1.168
34381W        W 2775  20.699  12.132   1.474
34382W        W 2776  12.991  17.237  10.984
34383W        W 2777  31.504   7.228   4.878
34384W        W 2778  31.608  42.829   3.561
34385W        W 2779   6.943   6.254   2.738
34386W        W 2780  41.305  12.505  14.921
34387W        W 2781  11.679  15.125  10.464
34388W        W 2782  16.789  25.758   4.159
34389W        W 2783  15.519  20.174  11.203
34390W        W 2784   8.618   1.485   1.006
34391W        W 2785  14.795   2.633   1.941
34392W        W 2786  30.589  41.988  13.659
34393W        W 2787  38.114  23.211   4.587
34394W        W 2788  25.073  39.459  14.555
34395W        W 2789  10.117   7.739  12.905
34396W        W 2790  12.360  14.333  10.710
34397W        W 2791  11.466  23.223  13.469
34398W        W 2792  23.725  26.143  14.302
34399W        W 2793  30.423  33.921   2.849
34400W        W 2794  12.254  43.444   4.828
34401W        W 2795  28.120  13.513   0.544
34402W        W 2796  12.268   3.138   0.068
34403W        W 2797  42.958  31.363   4.049
34404W        W 2798   9.076  44.951   3.700
34405W        W 2799  22.687   7.917   0.908
34406W        W 2800  21.657  24.146  10.734
34407W        W 2801  26.020  31.018   2.761
34408W        W 2802   6.961  11.433  14.600
34409W        W 2803   4.301  30.604   4.567
34410W        W 2804  31.135  37.112  10.818
34411W        W 2805  19.220   4.526   4.840
34412W        W 2806  42.682  34.473  14.944
34413W        W 2807  42.448  22.058  14.452
34414W        W 2808  23.126  17.688  12.543
34415W        W 2809  43.939   7.020  13.919
34416W        W 2810  43.350   2.424  14.082
34417W        W 2811  20.814  22.140   2.254
34418W        W 2812  21.294   8.544   3.866
34419W        W 2813  41.520  40.435   3.709
34420W        W 2814  16.499   2.970   0.400
34421W        W 2815  29.426  30.786  12.400
34422W        W 2816  42.943  28.557  14.733
34423W        W 2817  40.289   3.946  11.557
34424W        W 2818  33.545  38.035   2.529
34425W        W 2819  33.454  29.385  13.027
34426W        W 2820   4.702  25.059   1.254
34427W        W 2821  38.149  13.024  11.659
34428W        W 2822  35.135  22.314  14.468
34429W        W 2823  22.017  30.277  13.565
34430W        W 2824  44.943  36.346  13.447
34431W        W 2825   4.922  23.941   4.326
34432W        W 2826  38.053   0.096  11.076
34433W        W 2827  22.690  28.176   4.066
34434W        W 2828  17.116  36.498   5.313
34435W        W 2829   0.452  31.050   0.820
34436W        W 2830  21.822  41.922  13.314
34437W        W 2831  29.556  44.541   1.725
34438W        W 2832  35.358   5.002  13.215
34439W        W 2833  19.215  43.504  10.695
34440W        W 2834  33.650   0.004   1.480
34441W        W 2835   9.028  32.896  10.096
34442W        W 2836   7.855  26.605   1.389
34443W        W 2837  12.573  20.134   1.780
34444W        W 2838   4.818   0.177   2.893
34445W        W 2839  31.643  39.820   2.193
34446W        W 2840  36.293  35.593  13.298
34447W        W 2841  39.373  44.884  12.437
34448W        W 2842   1.913   7.213  13.060
34449W        W 2843  34.414  29.560   1.664
34450W        W 2844  28.165   0.472   0.702
34451W        W 2845  17.409  19.818  12.482
34452W        W 2846  34.338  10.183  14.841
34453W        W 2847  23.063  10.783  13.719
34454W        W 2848  13.249  36.620  11.572
34455W        W 2849   5.252  25.756  12.915
34456W        W 2850   9.290  22.487   3.136
34457W        W 2851   7.358  19.521  12.427
34458W        W 2852  17.621   3.901   1.294
34459W        W 2853  28.507  29.466   0.741
34460W        W 2854  23.325  38.935   1.806
34461W        W 2855   4.831  35.131   4.780
34462W        W 2856  33.078   4.750   2.136
34463W        W 2857  24.740   7.025   1.744
34464W        W 2858  32.834  24.632  14.532
34465W        W 2859  17.581  11.668  11.020
34466W        W 2860  32.978  23.668  14.162
34467W        W 2861  33.023  10.297  14.511
34468W        W 2862  31.108   0.776   2.293
34469W        W 2863  38.328   7.738   4.232
34470W        W 2864  11.940  36.399  14.071
34471W        W 2865   3.968  37.962   0.521
34472W        W 2866  40.362  26.399  14.840
34473W        W 2867   6.009  15.179   0.470
34474W        W 2868  19.068  20.752  13.472
34475W        W 2869   7.963  28.699   2.788
34476W        W 2870  11.846  40.266   1.641
34477W        W 2871  26.101  17.396   1.965
34478W        W 2872  41.754  28.979  14.316
34479W        W 2873   2.907  10.893  14.428
34480W        W 2874  31.611  22.686   4.866
34481W        W 2875  32.989  30.620  14.828
34482W        W 2876  18.695  38.407  14.226
34483W        W 2877   9.800  30.271  14.852
34484W        W 2878   3.823  21.113  12.050
34485W        W 2879  26.440   0.964   4.974
34486W        W 2880  42.957  37.799  12.642
34487W        W 2881  18.751   7.151  12.958
34488W        W 2882  43.859  32.143   2.733
34489W        W 2883  14.232  39.517  13.864
34490W        W 2884  38.464  27.979  14.966
34491W        W 2885  19.931   0.783   3.740
34492W        W 2886  34.422  12.260   4.539
34493W        W 2887   3.931  35.183   4.294
34494W        W 2888  33.882   9.179  14.291
34495W        W 2889   8.452  11.358  11.595
34496W        W 2890  36.674   1.898   5.000
34497W        W 2891   4.337  10.324   4.493
34498W        W 2892  11.000   8.080  12.862
34499W        W 2893  43.877   5.602   1.993
34500W        W 2894   1.584  29.760  14.389
34501W        W 2895  29.689  21.164  12.015
34502W        W 2896  18.641  14.642  10.908
34503W        W 2897  41.409  27.086  11.733
34504W        W 2898  24.734  40.796  11.962
34505W        W 2899   1.401   6.395   0.302
34506W        W 2900  44.045   0.380  11.634
34507W        W 2901  11.787  26.499   3.431
34508W        W 2902   6.608   5.247  13.376
34509W        W 2903  11.218  29.990  11.989
34510W        W 2904  41.489  34.417  13.890
34511W        W 2905  34.285  42.357   3.660
34512W        W 2906  24.881  10.662   3.698
34513W        W 2907  33.984   3.906  13.532
34514W        W 2908  31.192  31.909  14.868
34515W        W 2909  10.250  36.281   2.708
34516W        W 2910   8.743  23.052   3.721
34517W        W 2911   1.870  16.066   4.172
34518W        W 2912  38.697  15.451   0.782
34519W        W 2913  28.415  38.836  12.232
34520W        W 2914   7.784  22.104  13.941
34521W        W 2915  18.316  33.343  12.619
34522W        W 2916   7.886  23.061  14.948
34523W        W 2917  31.011  31.815   1.760
34524W        W 2918  25.137  30.670   1.681
34525W        W 2919  41.424  22.768   1.715
34526W        W 2920  35.017  23.448   4.161
34527W        W 2921   6.381  22.554  13.935
34528W        W 2922   4.430  20.007   1.097
34529W        W 2923   7.875   9.437   0.768
34530W        W 2924  20.853   6.644  13.452
34531W        W 2925  21.553  11.117  14.284
34532W        W 2926  44.244  24.104  14.206
34533W        W 2927  30.064  44.379   3.582
34534W        W 2928  25.353  39.334   1.393
34535W        W 2929   4.219  13.318  11.368
34536W        W 2930   7.589   2.434   1.197
34537W        W 2931  27.744  35.393   3.349
34538W        W 2932   0.533  40.388  13.078
34539W        W 2933  22.116   8.397  11.555
34540W        W 2934  17.409  40.376   0.231
34541W        W 2935  11.140   5.410  14.011
34542W        W 2936  13.208  11.135   0.241
34543W        W 2937   8.872   7.014  10.618
34544W        W 2938  22.131  36.005   0.024
34545W        W 2939  19.636  17.644  11.189
34546W        W 2940   8.749  12.170   3.655
34547W        W 2941   0.447  20.024   4.257
34548W        W 2942  35.888  43.010   4.273
34549W        W 2943   3.924  41.502  10.609
34550W        W 2944  26.058  39.002  14.530
34551W        W 2945  38.510   3.678  13.367
34552W        W 2946   6.653   8.925   5.027
34553W        W 2947  17.882   1.700  12.485
34554W        W 2948  22.597  13.642   3.852
34555W        W 2949  43.912  32.784  13.727
34556W        W 2950   9.404  39.358  12.143
34557W        W 2951   8.758   3.170   5.280
34558W        W 2952  42.427  19.296  12.183
34559W        W 2953   7.418  34.923   1.027
34560W        W 2954  18.715   1.387   3.301
34561W        W 2955   6.664   5.813  10.834
34562W        W 2956  35.527  14.419   2.073
34563W        W 2957  39.359  15.508  12.416
34564W        W 2958   5.022  28.978   3.609
34565W        W 2959  12.645  31.643   2.588
34566W        W 2960  24.147  27.939   4.512
34567W        W 2961  33.062   5.852  11.898
34568W        W 2962  19.176  40.432   1.232
34569W        W 2963   6.925   7.368   3.704
34570W        W 2964  10.346  26.158  10.653
34571W        W 2965  12.345  20.502   4.676
34572W        W 2966  34.337  13.533  12.128
34573W        W 2967  13.807  10.334  11.744
34574W        W 2968   6.729  11.393   2.640
34575W        W 2969  10.728   7.923   1.462
34576W        W 2970  12.711  39.205   4.119
34577W        W 2971  25.657  33.857   4.194
34578W        W 2972  12.073   6.595  11.178
34579W        W 2973  19.054   6.653  13.840
34580W        W 2974  44.006  39.059  10.664
34581W        W 2975  35.854  37.513  10.734
34582W        W 2976  16.707   4.736  10.741
34583W        W 2977  23.653   5.406   1.285
34584W        W 2978  12.204  16.244  14.460
34585W        W 2979  17.801  15.209   4.399
34586W        W 2980  44.412   0.865  11.097
34587W        W 2981   4.477  44.417  10.997
34588W        W 2982   6.214   2.168   5.632
34589W        W 2983   6.515   6.624   1.729
34590W        W 2984   6.193  37.875  13.552
34591W        W 2985   8.698   2.379   1.492
34592W        W 2986  37.320   9.897   1.307
34593W        W 2987  24.083  20.985   0.794
34594W        W 2988  36.363  22.673  12.554
34595W        W 2989  39.452  25.034   1.295
34596W        W 2990  41.048  29.109   4.387
34597W        W 2991  31.839  21.925   4.573
34598W        W 2992  13.298   2.493   1.824
34599W        W 2993   6.506  36.597  14.389
34600W        W 2994  11.677   7.982   4.858
34601W        W 2995  10.911  20.490   4.431
34602W        W 2996   5.326   9.796  10.683
34603W        W 2997   4.469   1.314  14.258
34604W        W 2998  12.485  33.931   3.600
34605W        W 2999   7.392  30.925  11.711
34606W        W 3000  34.514   2.872   0.882
34607W        W 3001  21.022  16.979   0.576
34608W        W 3002  35.615  43.080  11.381
34609W        W 3003  36.529  33.415   2.196
34610W        W 3004  37.610  20.527   0.675
34611W        W 3005  16.757  22.127   0.237
34612W        W 3006   6.709   4.987  12.944
34613W        W 3007  24.680  38.030   2.316
34614W        W 3008  35.567  17.595   1.393
34615W        W 3009  17.034  42.978   2.653
34616W        W 3010   4.742  12.856   2.896
34617W        W 3011  18.663  10.631   0.743
34618W        W 3012  11.234   9.794  12.390
34619W        W 3013   0.331  34.376   3.592
34620W        W 3014   8.074  32.717   0.831
34621W        W 3015  10.362  17.439   2.654
34622W        W 3016  32.760  35.447  12.863
34623W        W 3017  37.416  35.577  12.652
34624W        W 3018  39.775  31.354   1.302
34625W        W 3019  23.935  40.441   1.751
34626W        W 3020   4.119   4.134   5.391
34627W        W 3021  28.430  23.171   4.740
34628W        W 3022  42.965   7.703   4.920
34629W        W 3023  15.315   1.467  11.292
34630W        W 3024  27.988  35.040  10.110
34631W        W 3025   0.477  16.952   2.799
34632W        W 3026  34.836  12.358   4.221
34633W        W 3027  40.498  39.943  14.765
34634W        W 3028   6.615  16.699   4.981
34635W        W 3029  39.947  22.441  12.018
34636W        W 3030  39.069  40.909  14.469
34637W        W 3031  14.687  26.652  12.190
34638W        W 3032  37.975   8.726   1.576
34639W        W 3033  26.891   2.363   3.792
34640W        W 3034  16.186  12.350   2.317
34641W        W 3035  40.466  15.026  12.074
34642W        W 3036   1.185   5.791   4.000
34643W        W 3037   0.994  11.082   2.665
34644W        W 3038  25.481   1.881  12.312
34645W        W 3039  27.416  19.606   0.320
34646W        W 3040   4.488  19.905   2.788
34647W        W 3041  10.085  17.568  13.387
34648W        W 3042   2.025  21.181  10.537
34649W        W 3043  33.651  40.699  10.727
34650W        W 3044   0.856  14.671   1.744
34651W        W 3045  41.024  18.709   4.728
34652W        W 3046  27.015  34.948   3.170
34653W        W 3047  34.546  39.311   4.559
34654W        W 3048  31.256   2.364   3.739
34655W        W 3049  25.808  16.759  13.935
34656W        W 3050   4.374  43.709   4.257
34657W        W 3051  42.513  35.526  10.440
34658W        W 3052  31.582  31.935   0.231
34659W        W 3053  10.458   9.898   1.876
34660W        W 3054  11.199  36.365  14.505
34661W        W 3055   9.692  34.676  11.518
34662W        W 3056  41.960  42.852   4.940
34663W        W 3057  34.892   2.462  12.494
34664W        W 3058  25.423  20.593  11.176
34665W        W 3059  31.006  13.336  12.649
34666W        W 3060  24.117  16.230   3.318
34667W        W 3061  19.630  16.133  13.395
34668W        W 3062   3.281  18.051  12.054
34669W        W 3063   3.709  43.273  12.605
34670W        W 3064  20.407   9.761  10.618
34671W        W 3065  38.501  22.146  13.781
34672W        W 3066  26.189  22.234   1.818
34673W        W 3067  32.634   6.312   2.692
34674W        W 3068  13.904  23.493   0.251
34675W        W 3069  35.474   0.073   1.830
34676W        W 3070  41.767  38.328   3.706
34677W        W 3071   6.696  26.614  12.497
34678W        W 3072   4.057  40.734  11.027
34679W        W 3073   4.743  29.756   4.037
34680W        W 3074   6.590  16.858   1.824
34681W        W 3075  13.824   1.515  13.508
34682W        W 3076  10.379  11.652   0.427
34683W        W 3077   5.952  13.898  12.287
34684W        W 3078  12.763  15.756  11.898
34685W        W 3079  14.322  30.951  11.108
34686W        W 3080  14.646  34.181   4.279
34687W        W 3081  18.721  11.053   2.829
34688W        W 3082  16.724  32.824  14.857
34689W        W 3083   8.151  10.676  12.261
34690W        W 3084  30.506  27.577   3.250
34691W        W 3085  16.532   6.022  12.085
34692W        W 3086  13.905  10.568  14.921
34693W        W 3087   2.461  17.524  14.995
34694W        W 3088  36.077  30.070   2.839
34695W        W 3089  20.040  23.628   3.156
34696W        W 3090  39.929  30.771   3.111
34697W        W 3091   4.439  36.389   1.822
34698W        W 3092   4.841   8.922  13.487
34699W        W 3093   1.248   0.805   2.131
34700W        W 3094   6.494  15.874  12.786
34701W        W 3095   6.193  30.448   4.828
34702W        W 3096  44.823   2.878  14.047
34703W        W 3097  21.581  26.367  12.531
34704W        W 3098  18.216  34.139   2.333
34705W        W 3099  42.521  31.865  12.224
34706W        W 3100  33.620  20.610  12.016
34707W        W 3101  40.477  11.177  13.065
34708W        W 3102  11.441   7.947  14.024
34709W        W 3103   7.352   6.651   4.388
34710W        W 3104  31.019  28.463   2.912
34711W        W 3105  25.640   9.679   4.959
34712W        W 3106   9.869  19.048  12.471
34713W        W 3107  25.715   6.262   4.356
34714W        W 3108  19.331   7.704   0.397
34715W        W 3109  22.722  22.481  11.923
34716W        W 3110   8.889   3.829   3.147
34717W        W 3111  34.887  11.433  10.685
34718W        W 3112   6.379  28.956   1.968
34719W        W 3113  40.701  36.017  10.707
34720W        W 3114  21.299  32.953   4.648
34721W        W 3115  31.001  27.467   3.215
34722W        W 3116  19.825  19.243  12.502
34723W        W 3117  11.609  30.089  11.628
34724W        W 3118  18.087  29.988  14.986
34725W        W 3119  43.034  42.265   1.424
34726W        W 3120  29.208  10.700  13.434
34727W        W 3121  22.336  32.918   4.841
34728W        W 3122  20.241   1.711   0.230
34729W        W 3123   2.145  39.735  14.067
34730W        W 3124  17.342  37.154  13.553
34731W        W 3125  30.619  17.967  11.246
34732W        W 3126  22.898  15.319  12.659
34733W        W 3127  38.209  40.149  13.813
34734W        W 3128   0.760  32.403  13.958
34735W        W 3129  26.907  35.024   1.802
34736W        W 3130  23.531  28.083  12.284
34737W        W 3131  30.082  21.414   0.938
34738W        W 3132  37.314   2.471   0.171
34739W        W 3133   2.893   1.918  11.411
34740W        W 3134   5.212   6.408  12.866
34741W        W 3135  13.615  19.667  11.934
34742W        W 3136  40.225  40.786   3.732
34743W        W 3137   0.380   6.603   2.347
34744W        W 3138  27.841  40.430   1.712
34745W        W 3139  24.057  36.481  14.278
34746W        W 3140  12.728  15.059   2.705
34747W        W 3141  43.681   9.020   1.722
34748W        W 3142  40.048  14.315  12.436
34749W        W 3143   3.643   6.797   0.678
34750W        W 3144   3.182  34.922  12.999
34751W        W 3145  31.027  33.838  11.213
34752W        W 3146  31.632  11.361  12.110
34753W        W 3147  43.521  38.527   3.336
34754W        W 3148  43.919  28.600   0.235
34755W        W 3149   2.940  22.080  11.425
34756W        W 3150  23.807  38.397  14.669
34757W        W 3151  20.034  17.684   2.248
34758W        W 3152   8.786   0.943  12.304
34759W        W 3153  39.607  32.623  11.676
34760W        W 3154   0.862  40.063   0.443
34761W        W 3155  10.279   8.580  11.207
34762W        W 3156  10.175  27.258   1.650
34763W        W 3157  17.652   7.286  13.811
34764W        W 3158  36.935  17.493  11.015
34765W        W 3159  16.684   7.397  10.348
34766W        W 3160  24.792  40.002   1.963
34767W        W 3161  12.138  25.528   0.540
34768W        W 3162  39.391  34.835  14.032
34769W        W 3163   8.380  34.079  13.480
34770W        W 3164  29.532  16.653   1.760
34771W        W 3165  12.856   8.820  13.339
34772W        W 3166  14.711  39.357   4.685
34773W        W 3167   3.226   9.311  14.071
34774W        W 3168  10.758  22.920   2.587
34775W        W 3169  20.600   4.661  14.261
34776W        W 3170   4.417  17.057  12.832
34777W        W 3171  32.283   3.116  12.620
34778W        W 3172   7.754  10.648   2.646
34779W        W 3173   0.902  16.697   2.627
34780W        W 3174  35.351  22.461   2.646
34781W        W 3175  37.342  26.308  10.854
34782W        W 3176  37.872   2.568   2.340
34783W        W 3177  23.468  34.159   1.812
34784W        W 3178   7.950   4.936   1.379
34785W        W 3179  33.088  37.073   0.005
34786W        W 3180  38.374  30.747  14.979
34787W        W 3181   7.872  27.946  13.381
34788W        W 3182  29.588  23.642   2.736
34789W        W 3183   7.387  29.133  11.648
34790W        W 3184  27.145   0.714  12.916
34791W        W 3185  17.582  42.314   0.017
34792W        W 3186  26.386  26.030  10.917
34793W        W 3187  29.014  42.906   2.433
34794W        W 3188   1.460  12.733   1.562
34795W        W 3189  37.955  27.307   4.516
34796W        W 3190  12.594   8.498   3.267
34797W        W 3191  36.938   2.501   4.442
34798W        W 3192  24.235  36.419   1.283
34799W        W 3193  38.106  14.913  14.495
34800W        W 3194  34.536   6.106   2.017
34801W        W 3195  25.344  42.966   4.589
34802W        W 3196   9.713  28.439   4.595
34803W        W 3197  38.540  14.781   1.900
34804W        W 3198  18.269  17.724   0.836
34805W        W 3199  33.389  42.067  12.033
34806W        W 3200  22.131  22.531  13.276
34807W        W 3201  39.287   7.755  11.479
34808W        W 3202  21.763  11.847  13.347
34809W        W 3203  33.797  31.614  12.586
34810W        W 3204   1.380  14.859  11.018
34811W        W 3205  12.572  42.076   1.185
34812W        W 3206   3.209   7.842   4.596
34813W        W 3207  38.887   9.282  13.698
34814W        W 3208   0.565  19.639   4.578
34815W        W 3209  10.777   4.026   0.639
34816W        W 3210  20.669  43.071   1.301
34817W        W 3211  35.578  44.363   3.761
34818W        W 3212   5.797  10.894   0.793
34819W        W 3213  43.539  17.686  13.528
34820W        W 3214  35.315  29.426  12.493
34821W        W 3215  32.570   9.623   1.739
34822W        W 3216  33.567   4.156  14.712
34823W        W 3217  32.126  28.732   2.594
34824W        W 3218  32.098   8.419   3.719
34825W        W 3219  34.468  29.385  14.327
34826W        W 3220  14.280  34.616   1.164
34827W        W 3221  14.146  38.570   0.742
34828W        W 3222   3.994   8.619  11.898
34829W        W 3223  38.556  12.454   2.006
34830W        W 3224  10.478  20.058  12.185
34831W        W 3225   3.266  32.788  12.134
34832W        W 3226  17.190  26.584  10.120
34833W        W 3227   7.503   8.261   1.161
34834W        W 3228   4.333  18.524  12.608
34835W        W 3229  23.984  24.212  14.018
34836W        W 3230  24.839   7.293  13.524
34837W        W 3231   3.351  17.073  10.105
34838W        W 3232   3.484  39.371  11.620
34839W        W 3233   1.684   3.790   4.000
34840W        W 3234  29.406  33.606   0.711
34841W        W 3235  30.883   7.888  13.819
34842W        W 3236   3.428  44.241   2.223
34843W        W 3237  19.752  27.103  13.996
34844W        W 3238  36.472  15.978   2.277
34845W        W 3239  12.700   8.245   2.839
34846W        W 3240   4.407  41.077   0.649
34847W        W 3241  18.595  39.291   3.634
34848W        W 3242   2.950  29.824  11.605
34849W        W 3243  41.340  30.689   1.216
34850W        W 3244  17.425  32.851  13.806
34851W        W 3245  36.428  32.700   1.861
34852W        W 3246   8.216   1.976  13.924
34853W        W 3247   3.927  24.665   3.576
34854W        W 3248  23.621   1.830   1.991
34855W        W 3249  30.917   1.527  12.056
34856W        W 3250  42.322  43.331  10.734
34857W        W 3251  11.673  11.084  10.719
34858W        W 3252  25.474  19.074  13.313
34859W        W 3253  37.040  37.376  11.085
34860W        W 3254  37.494  15.548  14.340
34861W        W 3255  20.971  34.832  10.759
34862W        W 3256  11.586  26.643  14.331
34863W        W 3257   3.318  22.900   4.572
34864W        W 3258  13.770  38.923   0.691
34865W        W 3259  17.961   4.817   2.321
34866W        W 3260  18.946  19.298   2.169
34867W        W 3261  38.612  42.559   3.273
34868W        W 3262  44.635  31.327   3.594
34869W        W 3263  22.206  28.828  11.422
34870W        W 3264  44.187   3.888  13.404
34871W        W 3265  29.577  33.552  12.237
34872W        W 3266  26.270  41.861  11.033
34873W        W 3267  25.331  24.517  11.564
34874W        W 3268  21.676   2.712  11.089
34875W        W 3269  43.086  22.026  14.697
34876W        W 3270  18.872  17.015  14.284
34877W        W 3271   4.854   5.707  14.499
34878W        W 3272  15.535  18.888  11.135
34879W        W 3273  40.494  43.413  14.720
34880W        W 3274  22.705   9.893   4.527
34881W        W 3275   6.951  18.650  11.069
34882W        W 3276  23.560  43.037  12.601
34883W        W 3277  12.800  11.342  14.900
34884W        W 3278   9.748  39.753  11.136
34885W        W 3279  36.237  10.628   0.539
34886W        W 3280  19.758  44.453  12.064
34887W        W 3281  28.613  15.385   1.789
34888W        W 3282   9.695  24.044   1.407
34889W        W 3283  11.332   5.842  12.328
34890W        W 3284  23.120   1.277  14.395
34891W        W 3285  29.727   8.285  12.057
34892W        W 3286  18.731   1.831   2.718
34893W        W 3287  22.460  12.142   3.575
34894W        W 3288  42.934  22.687  12.532
34895W        W 3289  21.394  30.918   0.852
34896W        W 3290  15.843  25.998   1.337
34897W        W 3291  21.778   0.061   1.281
34898W        W 3292  24.460  17.145   2.413
34899W        W 3293   5.377  33.964  13.990
34900W        W 3294  25.897  36.784   2.684
34901W        W 3295   4.273  35.314  10.992
34902W        W 3296  31.934  14.634  11.669
34903W        W 3297  25.938  25.177   4.637
34904W        W 3298  18.500  37.989   4.099
34905W        W 3299  24.060  15.734   0.118
34906W        W 3300  41.384  34.522  14.383
34907W        W 3301   5.214  36.742  12.466
34908W        W 3302  26.873   5.569  14.345
34909W        W 3303   4.938  10.846   0.685
34910W        W 3304  12.145   0.276   3.741
34911W        W 3305   3.852  21.257  13.015
34912W        W 3306  20.581  13.119   0.735
34913W        W 3307  17.926  41.526   1.829
34914W        W 3308  27.621  31.123  10.665
34915W        W 3309  27.528  17.515  14.885
34916W        W 3310  19.715  21.699  11.714
34917W        W 3311  42.202  16.326   1.965
34918W        W 3312  38.610  41.647  12.988
34919W        W 3313  29.589  19.209  11.585
34920W        W 3314  15.095  16.765   1.930
34921W        W 3315   0.446  38.803  11.515
34922W        W 3316   4.582  28.951  12.651
34923W        W 3317  13.214  12.396   2.246
34924W        W 3318   1.262  34.103   4.174
34925W        W 3319  18.255  14.391  11.176
34926W        W 3320  16.819  26.576  12.583
34927W        W 3321  13.819  15.634   1.329
34928W        W 3322  21.143  43.461   0.693
34929W        W 3323  16.689  25.341   2.667
34930W        W 3324  14.211   7.196   1.412
34931W        W 3325  41.414   0.809  10.487
34932W        W 3326  17.226  41.966   2.440
34933W        W 3327  20.762  37.480  10.364
34934W        W 3328  19.322  36.113  13.888
34935W        W 3329  19.818  34.909   3.654
34936W        W 3330  12.392  28.165  12.635
34937W        W 3331  15.704  12.199   2.425
34938W        W 3332  19.431  10.248  14.337
34939W        W 3333  42.911  26.507   3.875
34940W        W 3334  19.396  14.247  10.921
34941W        W 3335  41.365  35.861   1.470
34942W        W 3336  29.284  43.313  10.942
34943W        W 3337   4.738  22.575  13.947
34944W        W 3338   5.894  20.674   0.439
34945W        W 3339  15.294  23.179  13.963
34946W        W 3340  19.072  43.075  10.975
34947W        W 3341   1.335  15.066   2.243
34948W        W 3342   4.655  14.071  13.465
34949W        W 3343  18.349  12.693   1.522
34950W        W 3344   7.772  12.818   3.196
34951W        W 3345  41.874   8.578  11.154
34952W        W 3346  28.923  10.700  13.011
34953W        W 3347  28.109  22.323   4.995
34954W        W 3348  44.534  24.763   3.399
34955W        W 3349  26.639  29.433  13.023
34956W        W 3350   3.830  23.462  13.452
34957W        W 3351  33.478   5.925  14.468
34958W        W 3352  42.464  34.486  11.383
34959W        W 3353  10.769  31.088  10.605
34960W        W 3354  25.602   0.967   1.021
34961W        W 3355  19.324  14.267   2.573
34962W        W 3356   8.272  21.338  13.828
34963W        W 3357  15.538   2.962   2.376
34964W        W 3358  33.726  22.574   5.089
34965W        W 3359  16.217  43.355   4.852
34966W        W 3360   4.458   1.945  14.966
34967W        W 3361  38.514   8.192  10.825
34968W        W 3362   1.997  11.166   1.776
34969W        W 3363   2.933  38.446   1.849
34970W        W 3364  38.595  17.208  13.088
34971W        W 3365   5.843  20.947   4.344
34972W        W 3366   7.393  20.635   2.987
34973W        W 3367  18.893  17.053   4.009
34974W        W 3368  14.415  41.344   2.452
34975W        W 3369  16.248  42.544  14.863
34976W        W 3370  39.878  40.339  14.416
34977W        W 3371  26.028  17.606  13.400
34978W        W 3372  41.930   9.171   0.979
34979W        W 3373  42.084  30.646   3.388
34980W        W 3374  33.049  36.686  10.345
34981W        W 3375  38.910  43.748   3.326
34982W        W 3376  38.880  22.376  13.369
34983W        W 3377   6.858  10.663   4.699
34984W        W 3378  22.631  32.610   1.322
34985W        W 3379  20.897   6.288  11.138
34986W        W 3380  32.507  10.232  14.382
34987W        W 3381  22.214  34.482  10.772
34988W        W 3382  11.763  10.174  11.300
34989W        W 3383  10.852  30.303   4.103
34990W        W 3384  17.763   5.975  13.639
34991W        W 3385  19.636  31.505   1.571
34992W        W 3386  21.413  10.769  12.082
34993W        W 3387  17.965   5.183   2.762
34994W        W 3388  29.079  17.865   2.288
34995W        W 3389  26.661  11.018   4.926
34996W        W 3390  27.686  35.880  14.162
34997W        W 3391  21.991   8.928   0.339
34998W        W 3392  26.522   2.802   2.497
34999W        W 3393   9.838  44.333   3.833
35000W        W 3394  19.042   5.779  14.923
35001W        W 3395  16.642   7.454  11.240
35002W        W 3396  32.468   2.761  13.584
35003W        W 3397  24.700  14.411  14.361
35004W        W 3398  44.003   3.757  12.063
35005W        W 3399   1.564  13.297  10.890
35006W        W 3400  35.158  39.065  11.155
35007W        W 3401  15.089  23.194  12.977
35008W        W 3402  38.495   6.677  14.573
35009W        W 3403  40.009  26.095  13.061
35010W        W 3404  27.666  10.375   1.912
35011W        W 3405  29.846   5.797  10.536
35012W        W 3406  28.656   2.016  10.943
35013W        W 3407   5.627   0.835  13.995
35014W        W 3408  33.798   0.306   0.269
35015W        W 3409  28.063  22.210   4.345
35016W        W 3410   3.012  44.431  10.584
35017W        W 3411  40.430  43.899   1.081
35018W        W 3412  41.827   3.442   3.750
35019W        W 3413  23.308  24.529  10.696
35020W        W 3414   1.368   5.430   4.909
35021W        W 3415  26.641  19.634   0.957
35022W        W 3416   8.330  17.199   1.725
35023W        W 3417   8.300  26.902   1.470
35024W        W 3418  31.561  34.700   2.223
35025W        W 3419  33.027  22.115   4.825
35026W        W 3420  34.807  11.783  14.416
35027W        W 3421  10.445  12.296   1.951
35028W        W 3422  19.265   3.476  13.864
35029W        W 3423   6.665  12.844   3.247
35030W        W 3424   5.224  39.512  13.985
35031W        W 3425   5.683  44.386  13.330
35032W        W 3426  34.016  24.490  12.878
35033W        W 3427  22.764   2.439  11.442
35034W        W 3428  33.513  34.227  14.876
35035W        W 3429  27.494  31.425  12.038
35036W        W 3430  17.092  31.010   3.121
35037W        W 3431   9.487  44.278  11.249
35038W        W 3432  17.021  36.909   5.009
35039W        W 3433   4.118  14.628   2.667
35040W        W 3434  19.577  15.393  14.090
35041W        W 3435   8.682  32.693   1.706
35042W        W 3436  29.873  15.798   2.437
35043W        W 3437  23.967  28.378  10.321
35044W        W 3438  43.332  16.092   2.736
35045W        W 3439  19.583  21.661  14.003
35046W        W 3440   6.654  11.073  14.378
35047W        W 3441  39.813   6.261   1.696
35048W        W 3442   7.763  29.515   2.660
35049W        W 3443  10.684   6.766  12.092
35050W        W 3444   9.481  27.795  10.146
35051W        W 3445  30.071  27.061   1.407
35052W        W 3446  25.034  23.543  11.434
35053W        W 3447   8.882  39.441   4.179
35054W        W 3448   7.864  11.413   0.914
35055W        W 3449   2.823   9.890  13.353
35056W        W 3450  20.790  35.899   3.612
35057W        W 3451  41.696  18.330   4.267
35058W        W 3452   4.549  38.691  10.316
35059W        W 3453  15.108   1.289  12.483
35060W        W 3454  38.863  11.876  13.011
35061W        W 3455  16.327  12.358   3.922
35062W        W 3456  26.752  44.940  12.413
35063W        W 3457  39.230  27.970  13.332
35064W        W 3458  19.771   7.117   4.334
35065W        W 3459  32.135  14.645  13.658
35066W        W 3460  20.036  25.121   9.834
35067W        W 3461  22.574  28.218  14.562
35068W        W 3462  41.506  19.783  14.855
35069W        W 3463  24.923  28.340   2.083
35070W        W 3464  27.605  38.028   4.226
35071W        W 3465  19.092   5.211   0.354
35072W        W 3466  39.331   8.793  11.661
35073W        W 3467  34.903  28.704   0.217
35074W        W 3468  27.594  27.200   0.396
35075W        W 3469   6.521  13.604   4.518
35076W        W 3470   6.748   6.760  14.725
35077W        W 3471  37.928  14.326  13.127
35078W        W 3472  13.441  37.542  13.556
35079W        W 3473  15.055   1.918   3.733
35080W        W 3474  29.401  42.892   1.206
35081W        W 3475  39.549  41.356   0.070
35082W        W 3476  32.849  41.461   3.921
35083W        W 3477  31.961  23.550  12.991
35084W        W 3478  36.120  25.543  12.701
35085W        W 3479  42.296  26.370   5.292
35086W        W 3480  22.301  34.932   4.333
35087W        W 3481  42.402  43.830  13.966
35088W        W 3482  41.695  39.418  14.546
35089W        W 3483  12.978  41.197   2.203
35090W        W 3484  33.482  43.603  13.798
35091W        W 3485  35.027  24.966  11.225
35092W        W 3486   0.046  11.135   3.071
35093W        W 3487   4.659  15.005  12.532
35094W        W 3488  37.125  23.033   3.618
35095W        W 3489   1.661   4.001  10.769
35096W        W 3490   8.944  33.422  14.047
35097W        W 3491  31.632  29.266  13.374
35098W        W 3492   8.848  40.792  12.331
35099W        W 3493  11.630  37.674  12.505
35100W        W 3494  37.877  29.842  12.600
35101W        W 3495  36.367  10.309  14.676
35102W        W 3496  36.332   9.780  10.591
35103W        W 3497  35.398  25.397  12.451
35104W        W 3498  44.239   2.107   2.642
35105W        W 3499  30.038  34.397   3.718
35106W        W 3500  23.506  36.659   1.632
35107W        W 3501  31.720   6.864  13.374
35108W        W 3502   7.213  31.128   3.396
35109W        W 3503  36.583  40.307   4.618
35110W        W 3504   7.162   3.819  12.355
35111W        W 3505  17.570  13.298   1.822
35112W        W 3506  36.409   0.791   4.352
35113W        W 3507  23.932  17.203  13.889
35114W        W 3508  36.567   9.642   3.639
35115W        W 3509  20.811  14.694   0.080
35116W        W 3510  10.681  26.955  12.920
35117W        W 3511  19.029  14.185   4.292
35118W        W 3512   7.213  11.253   2.761
35119W        W 3513  35.589  15.629  13.442
35120W        W 3514   2.674  33.382   3.920
35121W        W 3515  42.349  25.861   2.674
35122W        W 3516   6.004   0.270  13.454
35123W        W 3517  43.249  18.079   5.080
35124W        W 3518  30.066   5.991   3.089
35125W        W 3519  18.208  14.860  13.079
35126W        W 3520   6.859  31.092   0.866
35127W        W 3521  36.857   6.153  13.951
35128W        W 3522  17.099  18.640   2.435
35129W        W 3523  19.657   2.949  11.294
35130W        W 3524   6.626   1.595  11.532
35131W        W 3525   6.936  33.564   4.825
35132W        W 3526  10.416  17.316   0.865
35133W        W 3527  33.407  41.979   2.741
35134W        W 3528  23.041  27.160   3.071
35135W        W 3529  22.554   4.231   4.225
35136W        W 3530  31.123  39.107  11.939
35137W        W 3531  20.687  19.119   4.072
35138W        W 3532   7.407  20.552   1.254
35139W        W 3533  28.303  17.002   0.820
35140W        W 3534   3.220  10.877  10.573
35141W        W 3535  38.959  41.884  13.346
35142W        W 3536  25.270  36.445   1.516
35143W        W 3537  39.585  18.661  14.462
35144W        W 3538   6.437  13.149   0.896
35145W        W 3539   2.490  11.371   2.142
35146W        W 3540  23.553  36.496   0.699
35147W        W 3541  11.817  24.670   0.943
35148W        W 3542   2.398  30.657   3.304
35149W        W 3543  38.762  30.187   0.233
35150W        W 3544   1.637  41.273   1.901
35151W        W 3545  11.339  25.268   2.304
35152W        W 3546   3.285  16.286   4.560
35153W        W 3547  16.141   2.741  13.441
35154W        W 3548  33.578  31.524   1.805
35155W        W 3549  16.248  41.333  14.264
35156W        W 3550  44.984  13.998  12.376
35157W        W 3551  23.244  15.824  14.169
35158W        W 3552  14.360  23.791  12.543
35159W        W 3553  23.573   2.999  14.934
35160W        W 3554  39.430  26.151  12.053
35161W        W 3555  33.975   5.338  10.745
35162W        W 3556  37.948   6.968  13.887
35163W        W 3557  41.219  29.583  10.513
35164W        W 3558  40.864  30.038   3.418
35165W        W 3559   3.784   0.570  13.088
35166W        W 3560  28.630  11.636   0.198
35167W        W 3561   9.751  35.558  14.875
35168W        W 3562  20.736  40.794   3.387
35169W        W 3563  38.975  42.442  12.510
35170W        W 3564  37.534   4.273   1.185
35171W        W 3565  17.370  30.428  12.972
35172W        W 3566  12.439   6.406   1.389
35173W        W 3567  10.220   3.858  14.748
35174W        W 3568  31.807   2.755   2.828
35175W        W 3569   1.418   2.244   1.191
35176W        W 3570  28.695  38.966  14.542
35177W        W 3571  41.477  13.109  13.415
35178W        W 3572  16.329  25.609  14.312
35179W        W 3573   2.168  38.289   2.321
35180W        W 3574   8.868  44.873  14.881
35181W        W 3575   5.219  27.536   4.155
35182W        W 3576  12.312  21.349   4.160
35183W        W 3577  24.597  33.640   0.915
35184W        W 3578  41.013  41.980   1.862
35185W        W 3579  40.105  23.643   1.340
35186W        W 3580  41.012  24.109   0.551
35187W        W 3581  36.604   0.453   0.968
35188W        W 3582   2.514  39.851   3.408
35189W        W 3583  24.585   1.581   9.768
35190W        W 3584  21.076  31.513  13.287
35191W        W 3585  25.512  29.482   2.252
35192W        W 3586  15.004   8.890   2.330
35193W        W 3587   2.852  19.337   4.135
35194W        W 3588  36.887  25.927   3.952
35195W        W 3589  33.001   3.328   1.940
35196W        W 3590  15.061   7.933  12.047
35197W        W 3591  25.885  18.498   3.307
35198W        W 3592   9.348  18.617  12.026
35199W        W 3593   5.979   9.183  12.208
35200W        W 3594   3.843  34.941  10.341
35201W        W 3595  11.942  26.126   0.991
35202W        W 3596   4.153  19.056  14.892
35203W        W 3597   1.811  15.122  11.148
35204W        W 3598  24.968  37.374   3.080
35205W        W 3599   9.253  41.900   2.374
35206W        W 3600  13.094  16.453   0.161
35207W        W 3601  34.318   3.278  11.517
35208W        W 3602   1.831  31.970   0.161
35209W        W 3603  32.114  14.847   0.196
35210W        W 3604  16.635  13.726  14.489
35211W        W 3605  20.148  40.380  12.059
35212W        W 3606  29.308   6.156  10.431
35213W        W 3607  16.557  36.014   0.198
35214W        W 3608  32.560  25.150  14.916
35215W        W 3609  14.059  17.681  10.622
35216W        W 3610  42.889  44.388   2.661
35217W        W 3611   4.867  16.872  13.979
35218W        W 3612  39.948   4.750  13.048
35219W        W 3613  44.893  43.325  14.267
35220W        W 3614  15.911  18.635  10.282
35221W        W 3615  22.045  10.495   4.982
35222W        W 3616  43.856  22.022  10.687
35223W        W 3617  20.544  29.610   2.868
35224W        W 3618  21.235  38.323   1.359
35225W        W 3619   0.372  44.890  13.315
35226W        W 3620  24.879  43.065   3.857
35227W        W 3621  16.144  22.780  12.282
35228W        W 3622  38.772  20.471   3.651
35229W        W 3623   5.493  22.500  13.563
35230W        W 3624  28.522  43.946   3.654
35231W        W 3625   6.032  11.882  14.470
35232W        W 3626  33.441  28.694  11.112
35233W        W 3627  42.079  44.517  13.931
35234W        W 3628  26.656  12.146   1.726
35235W        W 3629   9.679  43.899   3.609
35236W        W 3630  29.290  33.977   9.995
35237W        W 3631   1.900  18.019  10.464
35238W        W 3632   5.435  41.159  12.608
35239W        W 3633  17.580   0.433  11.120
35240W        W 3634   7.937  37.378   1.439
35241W        W 3635  28.961  35.121   3.392
35242W        W 3636  30.530  40.773  10.755
35243W        W 3637   4.903  28.487   2.827
35244W        W 3638  38.022  15.342   2.240
35245W        W 3639  19.158  42.297   3.688
35246W        W 3640  43.326  34.431   2.320
35247W        W 3641  41.777  40.616   0.536
35248W        W 3642   1.860  20.321   0.309
35249W        W 3643  18.651  14.794  11.909
35250W        W 3644  29.224  39.541  14.151
35251W        W 3645  32.544  36.230  13.094
35252W        W 3646   3.650   0.725  11.428
35253W        W 3647   1.321   6.313  13.842
35254W        W 3648  40.276  20.732   0.316
35255W        W 3649  18.731  19.725   3.292
35256W        W 3650  15.767  26.676  12.637
35257W        W 3651  38.367  37.162   3.368
35258W        W 3652  35.451  28.166   1.551
35259W        W 3653  39.144  32.460  11.836
35260W        W 3654  24.439   7.316  13.874
35261W        W 3655   4.478  36.867  11.115
35262W        W 3656  41.755  16.395   0.984
35263W        W 3657  34.083  27.859   0.914
35264W        W 3658   9.216  37.879   2.421
35265W        W 3659  15.350  44.143  11.090
35266W        W 3660  15.776  16.861   5.537
35267W        W 3661   9.386  36.622  11.626
35268W        W 3662  34.045  32.514   4.110
35269W        W 3663  27.036  13.160  11.178
35270W        W 3664  22.101  36.745  13.203
35271W        W 3665  16.880  42.308  12.353
35272W        W 3666  36.987  28.107   1.288
35273W        W 3667  33.891  13.724  12.023
35274W        W 3668   2.401   9.832  13.874
35275W        W 3669  17.796  33.893  13.324
35276W        W 3670  40.452  35.901  10.239
35277W        W 3671  22.832   7.847  11.612
35278W        W 3672  16.753  31.588  12.619
35279W        W 3673   4.370  17.528   1.570
35280W        W 3674  15.681  24.643   2.659
35281W        W 3675  13.803  40.841   1.749
35282W        W 3676  25.864  42.580  11.482
35283W        W 3677  42.174  39.821  12.764
35284W        W 3678  20.642  16.981  14.830
35285W        W 3679   6.268  33.099  14.869
35286W        W 3680  27.759  37.531  10.746
35287W        W 3681  44.862  42.892  13.383
35288W        W 3682   4.908   3.893   0.697
35289W        W 3683  14.360  20.827   1.660
35290W        W 3684  20.251  26.787   1.845
35291W        W 3685  23.033  43.007  10.757
35292W        W 3686  24.032  28.767  11.190
35293W        W 3687  29.245  30.738  10.676
35294W        W 3688  34.427  39.007  14.309
35295W        W 3689  16.550  42.169   4.690
35296W        W 3690  18.819  25.648   3.260
35297W        W 3691   8.539  36.825   3.716
35298W        W 3692  23.235  18.107  14.798
35299W        W 3693   4.027   6.318  13.509
35300W        W 3694   5.035   3.238  11.902
35301W        W 3695  34.321  34.114  12.587
35302W        W 3696  12.160  11.205   0.357
35303W        W 3697   0.202  18.657  12.084
35304W        W 3698  27.988  25.718   1.234
35305W        W 3699  22.202  11.165   3.651
35306W        W 3700   9.163  22.876  11.509
35307W        W 3701  35.040  16.848  12.608
35308W        W 3702  37.906  25.361   1.157
35309W        W 3703   5.190   4.020   3.951
35310W        W 3704  24.722   0.212  12.966
35311W        W 3705  31.989  22.470   3.084
35312W        W 3706  26.847  24.195   0.886
35313W        W 3707  16.233  33.782  11.519
35314W        W 3708   6.422  35.200   2.366
35315W        W 3709  23.660  24.016  12.713
35316W        W 3710  36.607  32.898  13.616
35317W        W 3711  11.887  10.876   2.446
35318W        W 3712  20.360   2.537   1.493
35319W        W 3713  15.659   4.724   2.602
35320W        W 3714  38.402  24.655  14.359
35321W        W 3715  12.015   5.772  14.922
35322W        W 3716  19.187   0.444  13.554
35323W        W 3717  36.557  19.579   1.481
35324W        W 3718  33.102  16.064  12.899
35325W        W 3719  28.605  31.186  12.845
35326W        W 3720  40.918  34.209  11.958
35327W        W 3721  38.369   1.331   3.636
35328W        W 3722  26.629   1.224  14.347
35329W        W 3723  17.850  28.793   3.913
35330W        W 3724   4.779   2.242  14.082
35331W        W 3725  18.584   2.405   3.791
35332W        W 3726  36.050  42.067  11.164
35333W        W 3727  35.611  44.246  12.050
35334W        W 3728  10.680  42.245  14.799
35335W        W 3729  33.786  26.084  13.303
35336W        W 3730  40.173  10.207  10.729
35337W        W 3731  19.053   9.750  11.156
35338W        W 3732  37.318  39.256   2.211
35339W        W 3733  31.710  14.095   1.881
35340W        W 3734  14.790  13.830   0.573
35341W        W 3735  26.708  20.784   0.211
35342W        W 3736   9.500  29.037   3.796
35343W        W 3737  43.443  26.205   2.787
35344W        W 3738  25.427  31.975  10.700
35345W        W 3739  14.531  22.280   9.914
35346W        W 3740   2.561   6.136   0.793
35347W        W 3741  26.595   9.400  13.385
35348W        W 3742  11.992  21.110  13.434
35349W        W 3743  23.766   3.561  14.050
35350W        W 3744  36.373  19.861  11.657
35351W        W 3745  29.656  43.372   0.458
35352W        W 3746  39.967  34.415   1.360
35353W        W 3747  40.541  10.411   0.315
35354W        W 3748  41.849   0.208   2.347
35355W        W 3749  22.298  23.534   1.030
35356W        W 3750  32.950  31.006  14.367
35357W        W 3751  20.961   0.343  10.703
35358W        W 3752  19.148  18.038  11.195
35359W        W 3753  36.983  30.088   4.904
35360W        W 3754   5.178  19.020  11.694
35361W        W 3755  15.699   6.006  13.966
35362W        W 3756  12.783  38.785  12.001
35363W        W 3757   2.430  26.335   0.181
35364W        W 3758   0.954  10.444  13.330
35365W        W 3759   0.774  23.091  11.117
35366W        W 3760  11.639  13.752  10.720
35367W        W 3761  26.622  14.162   3.243
35368W        W 3762  16.120  17.696  14.878
35369W        W 3763  27.761  33.178   4.550
35370W        W 3764  14.754  26.462   1.398
35371W        W 3765  43.729  31.528  10.751
35372W        W 3766   2.503  19.324  13.551
35373W        W 3767  25.808   0.848   4.512
35374W        W 3768  15.604  13.227   1.811
35375W        W 3769  35.720  26.129  10.478
35376W        W 3770  12.129  33.498  13.021
35377W        W 3771  13.073  17.646  12.565
35378W        W 3772  10.706   0.586   1.416
35379W        W 3773  33.607  44.531  10.659
35380W        W 3774  16.673  31.705   1.256
35381W        W 3775  12.393  25.042  12.903
35382W        W 3776  34.489  10.784  11.219
35383W        W 3777  28.439  40.104   2.875
35384W        W 3778   1.474   1.477  14.300
35385W        W 3779   3.340  36.614   0.908
35386W        W 3780  10.495  13.315   0.752
35387W        W 3781  11.673  14.294  13.112
35388W        W 3782   1.888  39.377  12.283
35389W        W 3783   5.101  38.308   3.754
35390W        W 3784  17.866  24.847  13.242
35391W        W 3785   1.719  39.508  14.319
35392W        W 3786   3.442  43.062  11.435
35393W        W 3787  19.615  32.347   2.495
35394W        W 3788  27.389  23.524   1.870
35395W        W 3789  41.127   7.355  14.462
35396W        W 3790  38.615  24.918  10.825
35397W        W 3791   7.097   5.713   0.995
35398W        W 3792  35.383  23.604   0.722
35399W        W 3793  20.155  29.426   1.400
35400W        W 3794  40.019  22.005  12.954
35401W        W 3795  33.511  19.019   3.830
35402W        W 3796  26.052  27.225  14.438
35403W        W 3797  21.241  27.417  11.622
35404W        W 3798   4.277   2.896   2.864
35405W        W 3799  23.970  35.905   3.743
35406W        W 3800  43.704  35.990  14.807
35407W        W 3801   9.395  38.528  10.695
35408W        W 3802  26.298  15.569  11.590
35409W        W 3803  12.090  26.076   4.846
35410W        W 3804  11.841   6.149   3.328
35411W        W 3805  32.486  23.514  14.193
35412W        W 3806  34.095  37.262  14.052
35413W        W 3807   9.806  40.860   2.789
35414W        W 3808   1.360   0.410   4.337
35415W        W 3809   1.946  42.523  12.030
35416W        W 3810  31.863  33.996   3.672
35417W        W 3811  13.659  39.792   2.846
35418W        W 3812   1.865  19.173   1.372
35419W        W 3813   2.909  40.221   1.237
35420W        W 3814   9.602  11.238  13.634
35421W        W 3815  24.218  10.676   3.219
35422W        W 3816  29.086  14.529   3.225
35423W        W 3817  27.519  22.399   0.372
35424W        W 3818  20.041  33.040  11.428
35425W        W 3819  20.252   4.997  11.817
35426W        W 3820   9.837  13.766  14.353
35427W        W 3821  20.139  16.969   3.164
35428W        W 3822   7.308  43.572   4.343
35429W        W 3823  44.732  32.933  13.116
35430W        W 3824  41.766  36.891   1.494
35431W        W 3825  10.139   5.736  13.318
35432W        W 3826  14.340   0.498   3.326
35433W        W 3827  19.448  18.568   2.394
35434W        W 3828  39.338  20.581   4.448
35435W        W 3829  10.301   1.854  13.963
35436W        W 3830   7.691  43.383   1.981
35437W        W 3831  16.484  18.593  11.993
35438W        W 3832  19.982  16.144   0.769
35439W        W 3833  14.265  18.074  13.854
35440W        W 3834  11.339   3.371  11.062
35441W        W 3835  31.083  15.892  10.350
35442W        W 3836  14.152   0.227  13.257
35443W        W 3837  34.294  38.393   0.736
35444W        W 3838   3.943  37.490   3.154
35445W        W 3839  21.294   7.404  11.173
35446W        W 3840  24.022  12.821   3.212
35447W        W 3841  37.364  27.050  11.160
35448W        W 3842   4.381  41.208   2.448
35449W        W 3843  16.486   4.822  11.195
35450W        W 3844  25.953  18.408  14.740
35451W        W 3845   0.180  12.805   2.848
35452W        W 3846  22.689  23.934  12.221
35453W        W 3847  22.893   3.041   0.745
35454W        W 3848   5.899  35.577   4.352
35455W        W 3849   1.946  43.889  13.409
35456W        W 3850  41.605  13.633   0.319
35457W        W 3851   2.623  21.573   2.589
35458W        W 3852  23.547  41.901   4.738
35459W        W 3853  23.400  35.494   3.498
35460W        W 3854   1.700  12.786   0.389
35461W        W 3855  20.111   2.055  11.078
35462W        W 3856  21.269  44.826   1.360
35463W        W 3857  43.242  37.962  14.941
35464W        W 3858  38.946  22.041   1.736
35465W        W 3859  18.960   3.009   3.721
35466W        W 3860  33.064  30.473   3.382
35467W        W 3861  41.037  12.868   4.174
35468W        W 3862  27.378  29.654   0.410
35469W        W 3863  34.965  39.053   5.039
35470W        W 3864  22.788  26.617  13.914
35471W        W 3865  15.688   1.529   4.101
35472W        W 3866   8.983  24.668   4.069
35473W        W 3867  13.604  21.059   0.402
35474W        W 3868   1.663  35.245   1.829
35475W        W 3869  41.384  19.118   2.723
35476W        W 3870  23.266   4.474  13.854
35477W        W 3871  38.144  25.963  12.927
35478W        W 3872  25.242  20.485  12.908
35479W        W 3873   7.361  20.153  11.441
35480W        W 3874   9.315  23.024   4.603
35481W        W 3875  43.016   5.701  11.975
35482W        W 3876  40.760  22.558   1.346
35483W        W 3877  28.496  27.115   0.351
35484W        W 3878  38.252   9.720   0.338
35485W        W 3879  25.852  38.991   4.161
35486W        W 3880  14.048  10.751   0.404
35487W        W 3881  36.129  12.686   4.590
35488W        W 3882   4.301  10.534  10.881
35489W        W 3883  16.149  25.004   1.977
35490W        W 3884   8.754  41.861   3.215
35491W        W 3885  15.154  36.642   3.313
35492W        W 3886  33.241  44.137   5.056
35493W        W 3887  41.055   1.389  13.103
35494W        W 3888   5.662  30.074  10.575
35495W        W 3889  25.553  18.268   1.407
35496W        W 3890  37.557  14.701   1.597
35497W        W 3891   0.505  13.775  14.451
35498W        W 3892  16.068  17.068  13.182
35499W        W 3893   8.374   5.543  11.561
35500W        W 3894  12.771  38.929   3.686
35501W        W 3895   4.995   7.614   4.788
35502W        W 3896  21.087  17.241  11.973
35503W        W 3897  21.818  41.169   2.465
35504W        W 3898  43.314  39.503  13.904
35505W        W 3899  23.679  27.400  11.491
35506W        W 3900  26.947  41.773  14.831
35507W        W 3901  33.458  21.405   4.452
35508W        W 3902  12.348   5.280   4.639
35509W        W 3903  17.160  12.229   4.420
35510W        W 3904  11.123  44.028   0.986
35511W        W 3905   5.371  41.363   3.821
35512W        W 3906  22.669  31.996   5.016
35513W        W 3907  37.439  31.532   0.244
35514W        W 3908  35.319  44.359   4.622
35515W        W 3909  11.465  42.969   1.494
35516W        W 3910  22.860  25.307  11.701
35517W        W 3911   3.456  26.756  12.979
35518W        W 3912  10.713  34.898  10.615
35519W        W 3913  30.983  41.946   1.044
35520W        W 3914  36.793  28.239   0.821
35521W        W 3915  22.490  10.192  11.078
35522W        W 3916  25.843  27.593   4.103
35523W        W 3917  36.508   7.338  14.359
35524W        W 3918  23.530   6.458  14.331
35525W        W 3919  14.556  15.800  10.293
35526W        W 3920  44.374  21.077   4.562
35527W        W 3921  18.119  31.660  13.431
35528W        W 3922  31.428  42.075   4.614
35529W        W 3923  41.611  26.209  12.407
35530W        W 3924  37.408  22.249   0.774
35531W        W 3925  37.898  43.336   3.193
35532W        W 3926  35.459  21.492  12.980
35533W        W 3927   9.467  22.490  11.691
35534W        W 3928  18.302  32.173   3.302
35535W        W 3929  14.574  37.118  10.294
35536W        W 3930  32.429  23.322  10.651
35537W        W 3931  16.374  16.863   3.468
35538W        W 3932  19.077  13.781   5.094
35539W        W 3933  12.572  39.378   3.202
35540W        W 3934  24.704  22.990   2.924
35541W        W 3935  42.851  40.105   0.844
35542W        W 3936  22.219   5.926   0.743
35543W        W 3937  42.106  21.135  13.414
35544W        W 3938   3.066  27.710  10.993
35545W        W 3939  42.743   2.184  10.627
35546W        W 3940  18.816   2.453  12.919
35547W        W 3941   7.853  12.821  13.476
35548W        W 3942  15.679  21.009   2.325
35549W        W 3943  18.740  12.340   0.050
35550W        W 3944   2.588  43.935  12.111
35551W        W 3945  11.772   6.623   4.268
35552W        W 3946  40.459  41.507   3.219
35553W        W 3947  33.364  10.617   0.421
35554W        W 3948   8.963  38.016  13.469
35555W        W 3949  42.747  30.857  14.316
35556W        W 3950  37.516  15.161  12.992
35557W        W 3951   9.456  29.212   1.865
35558W        W 3952  44.805   2.440   4.655
35559W        W 3953  10.099  35.950   4.268
35560W        W 3954  37.602  31.825   1.969
35561W        W 3955  36.553  24.386   2.931
35562W        W 3956  14.086  34.011   2.888
35563W        W 3957  38.929  24.237  10.167
35564W        W 3958  27.623  29.980   2.888
35565W        W 3959   7.282   8.133   3.246
35566W        W 3960  32.083  28.576   4.896
35567W        W 3961  29.958  16.671  14.337
35568W        W 3962   5.218   6.278   0.135
35569W        W 3963  32.120  29.513  11.494
35570W        W 3964  20.582  39.388  11.418
35571W        W 3965  36.619  20.381   3.399
35572W        W 3966  27.984  33.926   1.422
35573W        W 3967  25.612  17.636   2.705
35574W        W 3968  27.143  42.868  10.292
35575W        W 3969  28.703  41.483   0.044
35576W        W 3970  43.456   5.949   4.120
35577W        W 3971   7.174  22.552  11.096
35578W        W 3972  38.592   9.912   0.919
35579W        W 3973  30.592  33.227   4.112
35580W        W 3974   7.340  20.819   1.712
35581W        W 3975  41.940   0.507   0.964
35582W        W 3976  13.343  37.109   1.817
35583W        W 3977   0.623  35.624  11.471
35584W        W 3978   2.765  32.383  10.760
35585W        W 3979  25.998  20.147  11.611
35586W        W 3980  11.197  29.120  13.510
35587W        W 3981  36.980  44.066   1.294
35588W        W 3982  29.124  33.602   3.644
35589W        W 3983  26.175   8.126   4.599
35590W        W 3984  13.494  12.837  10.212
35591W        W 3985   9.127  17.508  10.728
35592W        W 3986  22.682  15.612   5.077
35593W        W 3987  24.756  31.442   0.472
35594W        W 3988  25.240  38.515  14.747
35595W        W 3989  33.481  39.592   0.480
35596W        W 3990  24.762   4.049   2.456
35597W        W 3991  38.024  29.766  11.188
35598W        W 3992  35.502  36.102   3.559
35599W        W 3993  22.786  44.820  14.877
35600W        W 3994  27.496   0.734  12.064
35601W        W 3995  30.201  11.801  13.277
35602W        W 3996  13.821  14.250  11.590
35603W        W 3997  16.959   4.975   0.826
35604W        W 3998  12.773  10.825   2.443
35605W        W 3999  24.591   1.702   1.755
35606W        W 4000  43.235  22.412   1.240
35607W        W 4001  17.254  20.264  11.594
35608W        W 4002  20.720  18.898  11.135
35609W        W 4003   8.660  23.872  12.059
35610W        W 4004  31.046   7.804  10.804
35611W        W 4005  14.946  21.492  13.256
35612W        W 4006  17.091  38.284  11.625
35613W        W 4007   7.706   4.927  14.079
35614W        W 4008  25.056  25.641  14.782
35615W        W 4009  18.766  32.913   2.335
35616W        W 4010  37.499   4.818  11.104
35617W        W 4011  40.477  25.243   2.692
35618W        W 4012  19.699  15.809  13.815
35619W        W 4013  15.183  44.477   3.349
35620W        W 4014   7.026   3.920  14.743
35621W        W 4015  35.502  17.015   0.442
35622W        W 4016  21.743  30.378  12.925
35623W        W 4017  18.692  23.775   4.255
35624W        W 4018  22.198  29.939  10.753
35625W        W 4019  11.636  39.584  13.396
35626W        W 4020  19.312   4.332  12.117
35627W        W 4021  37.893   8.244  14.444
35628W        W 4022  16.361   1.264  12.570
35629W        W 4023  24.585  14.126  12.923
35630W        W 4024  19.246  30.029  10.239
35631W        W 4025  36.432  22.984   4.393
35632W        W 4026  16.872  16.842  10.814
35633W        W 4027   8.361  25.637   0.367
35634W        W 4028  27.507  42.746  10.684
35635W        W 4029  27.202  27.206  12.336
35636W        W 4030   6.214  23.510   3.622
35637W        W 4031  11.182  24.761   2.255
35638W        W 4032  11.157  20.613  13.865
35639W        W 4033  44.980  11.734  13.014
35640W        W 4034   6.356   0.715   4.631
35641W        W 4035  10.631   1.974  14.858
35642W        W 4036  44.946  16.338  14.457
35643W        W 4037  19.304  23.097  11.184
35644W        W 4038  22.162  18.321  11.053
35645W        W 4039   7.387  11.878   4.464
35646W        W 4040  14.815  24.301   0.812
35647W        W 4041  20.295   1.646   1.977
35648W        W 4042  21.728  27.854   1.796
35649W        W 4043  32.023  24.288  12.475
35650W        W 4044  31.831   6.283   0.441
35651W        W 4045   3.824  38.654  12.127
35652W        W 4046  28.017   6.301   1.470
35653W        W 4047  25.447  24.064   1.464
35654W        W 4048  43.336   6.283   3.737
35655W        W 4049  35.961  37.350   1.882
35656W        W 4050  31.480  28.752  13.331
35657W        W 4051  35.469   8.853  11.534
35658W        W 4052  17.545  21.754  11.175
35659W        W 4053  29.021  23.394   3.085
35660W        W 4054  25.441  21.119   3.626
35661W        W 4055  33.928   3.686   4.115
35662W        W 4056   7.673  21.729  12.545
35663W        W 4057   4.012  43.278  13.417
35664W        W 4058  28.147  29.176  14.962
35665W        W 4059  29.714  23.456  10.204
35666W        W 4060  15.145  12.723  13.813
35667W        W 4061   3.049   3.857   0.704
35668W        W 4062  12.760   1.876   1.414
35669W        W 4063  33.677  40.370  13.178
35670W        W 4064   7.776   1.278   1.022
35671W        W 4065   8.372   5.323   3.548
35672W        W 4066  17.569   9.838  13.917
35673W        W 4067  34.513  11.649   2.167
35674W        W 4068  44.486  29.681  11.274
35675W        W 4069   2.772  18.625  14.496
35676W        W 4070  21.108  34.646   3.102
35677W        W 4071  31.057   4.861   3.575
35678W        W 4072  43.012  25.039   0.822
35679W        W 4073  35.439  24.065   3.489
35680W        W 4074  34.885  21.504   1.694
35681W        W 4075  39.565  28.645   0.201
35682W        W 4076  28.385  36.916  14.798
35683W        W 4077  11.723  26.212   1.951
35684W        W 4078   0.987  12.201   4.674
35685W        W 4079  27.448  39.290  14.715
35686W        W 4080  29.553  15.597  10.713
35687W        W 4081  22.635   5.843   0.255
35688W        W 4082  25.449  42.007   1.225
35689W        W 4083  41.022   2.268  12.095
35690W        W 4084  44.462  21.179  11.844
35691W        W 4085  14.662  43.673  10.377
35692W        W 4086   4.191  10.271   2.193
35693W        W 4087  17.106  14.385  14.858
35694W        W 4088  12.268  26.998  13.116
35695W        W 4089  32.407   0.530  12.805
35696W        W 4090  12.918   8.629  14.770
35697W        W 4091  28.546  13.282  11.348
35698W        W 4092   2.908  42.567  13.935
35699W        W 4093  15.157  37.897   4.107
35700W        W 4094  21.483  12.257   1.907
35701W        W 4095  37.535  34.320  10.349
35702W        W 4096  14.615  40.269   3.691
35703W        W 4097  32.480  44.331  12.360
35704W        W 4098  40.163  20.197   0.287
35705W        W 4099   2.776  18.131  10.386
35706W        W 4100  19.350  34.980   2.256
35707W        W 4101  34.982  42.960   4.655
35708W        W 4102  31.254  22.339   1.928
35709W        W 4103  43.306   8.621  10.650
35710W        W 4104  14.220  15.659  10.975
35711W        W 4105   6.102  19.183   3.220
35712W        W 4106  29.182  30.030   1.825
35713W        W 4107  44.115  30.561  10.822
35714W        W 4108   5.405  43.789  13.405
35715W        W 4109  17.996  39.670   0.210
35716W        W 4110  35.385  15.615   0.832
35717W        W 4111  23.047  15.858  10.271
35718W        W 4112  13.298  23.431   1.708
35719W        W 4113   6.154  42.522   4.601
35720W        W 4114  27.231  31.707  13.410
35721W        W 4115   4.927  35.670  13.070
35722W        W 4116  22.723  11.175  13.936
35723W        W 4117  36.986  20.186   2.111
35724W        W 4118  31.452  31.754  14.399
35725W        W 4119  22.781  27.382   3.675
35726W        W 4120  12.576   0.191  12.002
35727W        W 4121  10.152  32.474   2.886
35728W        W 4122   7.409   5.802  12.520
35729W        W 4123  10.991  39.090   2.677
35730W        W 4124   7.831  20.319   3.718
35731W        W 4125  35.362   8.834  13.324
35732W        W 4126  33.139   2.431   1.249
35733W        W 4127  19.757  31.845   1.976
35734W        W 4128   4.191  11.860  11.654
35735W        W 4129  30.073  17.206  12.546
35736W        W 4130  26.015  41.304   5.052
35737W        W 4131   6.592  42.001  12.508
35738W        W 4132  29.264  33.431   4.139
35739W        W 4133  28.825  31.861  11.551
35740W        W 4134   6.854   0.309  14.073
35741W        W 4135  23.913  36.364   1.699
35742W        W 4136  34.481  17.562   4.138
35743W        W 4137   5.774  35.403  12.413
35744W        W 4138   0.353   4.236   2.930
35745W        W 4139  21.150  44.454  11.719
35746W        W 4140  26.225  21.783  11.027
35747W        W 4141  12.066  39.570  13.118
35748W        W 4142  31.061  30.540   2.079
35749W        W 4143   5.894   0.066   0.960
35750W        W 4144  28.244  28.037   3.183
35751W        W 4145  17.977  34.161  14.844
35752W        W 4146  41.218  44.344   3.297
35753W        W 4147   3.759   7.950   2.096
35754W        W 4148  33.605  35.065  10.406
35755W        W 4149  21.496   9.664  10.585
35756W        W 4150  41.607  27.600   4.195
35757W        W 4151  18.914  29.617  14.325
35758W        W 4152  20.459  32.667  12.022
35759W        W 4153  34.321  38.882   0.540
35760W        W 4154   1.822   6.117   0.107
35761W        W 4155  23.798   0.141  13.016
35762W        W 4156  16.243  30.377  11.653
35763W        W 4157  21.129   4.886  12.418
35764W        W 4158   4.970  29.825  14.532
35765W        W 4159  38.502  16.828   0.858
35766W        W 4160  17.302  17.283   4.122
35767W        W 4161  43.502  16.508  14.385
35768W        W 4162  31.347  19.112   3.374
35769W        W 4163   5.344   7.798  13.046
35770W        W 4164  39.156   1.178   5.046
35771W        W 4165  17.708  41.945   1.626
35772W        W 4166  34.522   0.774   1.499
35773W        W 4167  19.579  25.901  10.694
35774W        W 4168  14.574   8.756   4.185
35775W        W 4169  24.888  37.122  10.420
35776W        W 4170  42.366  42.841   1.172
35777W        W 4171  12.765  11.092  11.555
35778W        W 4172   1.249  38.081   1.761
35779W        W 4173  23.119  30.450   2.572
35780W        W 4174  14.569  17.742  10.670
35781W        W 4175   6.975  11.694  14.154
35782W        W 4176   2.473  22.275  12.690
35783W        W 4177  38.037  11.257  13.608
35784W        W 4178  21.176  40.754  13.918
35785W        W 4179  20.525  33.924   1.186
35786W        W 4180  20.153  38.667   4.127
35787W        W 4181  29.465  40.902   4.666
35788W        W 4182  13.720  30.128  10.451
35789W        W 4183  18.175  17.360  11.158
35790W        W 4184   2.859  39.758   2.145
35791W        W 4185  38.754   7.128  11.524
35792W        W 4186  14.733  27.417  11.724
35793W        W 4187  31.532  41.504   0.131
35794W        W 4188  16.599   9.500   5.409
35795W        W 4189  24.809  29.744  11.485
35796W        W 4190  41.218  27.996   0.759
35797W        W 4191  12.515  33.644   0.830
35798W        W 4192  32.402   2.811   1.363
35799W        W 4193  21.357   4.358   0.455
35800W        W 4194  27.071  17.834  13.373
35801W        W 4195  23.147  33.374   3.254
35802W        W 4196  28.165  39.919  11.438
35803W        W 4197  38.984   5.174   0.759
35804W        W 4198  33.155  42.289  11.169
35805W        W 4199  17.026   1.831   0.064
35806W        W 4200   5.659  36.383   1.798
35807W        W 4201  43.388  32.943   2.724
35808W        W 4202  33.910  12.895  12.399
35809W        W 4203  37.116  38.373   4.555
35810W        W 4204  44.489  19.502   0.350
35811W        W 4205  26.152   3.708   4.104
35812W        W 4206  20.077  21.273   2.597
35813W        W 4207  28.899   2.423  11.465
35814W        W 4208   1.015   9.368   4.751
35815W        W 4209  36.862  34.359   0.233
35816W        W 4210  20.282  12.381   1.349
35817W        W 4211   4.794  39.499   3.881
35818W        W 4212   7.697  35.839   3.912
35819W        W 4213  44.211  26.752  14.568
35820W        W 4214  37.569  26.001  11.677
35821W        W 4215  42.919  43.411   4.212
35822W        W 4216  11.979  34.250  11.201
35823W        W 4217  29.787   3.772  12.848
35824W        W 4218  42.517   4.944   1.163
35825W        W 4219  21.242  38.875  13.051
35826W        W 4220   3.782  18.137   4.106
35827W        W 4221  11.326  26.527   0.742
35828W        W 4222  26.380   2.296   2.575
35829W        W 4223  23.743   1.585  14.952
35830W        W 4224  41.570  24.172   3.415
35831W        W 4225  20.544  37.293   0.025
35832W        W 4226  10.558  21.302   1.235
35833W        W 4227  20.494  40.996   2.241
35834W        W 4228  32.278   4.377  14.596
35835W        W 4229   1.521  23.167   3.418
35836W        W 4230   1.845  24.906   4.282
35837W        W 4231  21.129  33.468  14.353
35838W        W 4232  29.902   9.673  14.942
35839W        W 4233  12.322   9.122   0.255
35840W        W 4234  11.214  21.733   3.877
35841W        W 4235   3.320  38.562  12.185
35842W        W 4236   9.855  16.743  12.205
35843W        W 4237   7.872  31.843   0.634
35844W        W 4238  29.123  14.574  14.248
35845W        W 4239   9.184  44.549  13.996
35846W        W 4240  14.222   4.955  12.006
35847W        W 4241  16.808  35.202   0.556
35848W        W 4242  37.618  38.474   3.013
35849W        W 4243  17.799  16.875  11.029
35850W        W 4244  22.475   8.896   3.533
35851W        W 4245  40.549   0.375  11.188
35852W        W 4246   9.906  25.779   2.541
35853W        W 4247  42.735  24.576   4.096
35854W        W 4248  41.446  11.108  11.576
35855W        W 4249  37.823  13.936  14.430
35856W        W 4250  32.961  27.549   1.858
35857W        W 4251  24.218  15.073   0.009
35858W        W 4252  31.415  44.857  13.098
35859W        W 4253  41.815  12.256   2.274
35860W        W 4254  30.431  35.419   3.947
35861W        W 4255  43.984  20.550   1.918
35862W        W 4256   5.311  36.625  11.602
35863W        W 4257  10.878  30.955   2.981
35864W        W 4258  11.810   6.931  12.494
35865W        W 4259  20.213  29.940   2.642
35866W        W 4260   3.355   2.042  11.619
35867W        W 4261  23.097   5.672  13.461
35868W        W 4262   1.194  14.132   4.148
35869W        W 4263  36.615  11.856   4.563
35870W        W 4264  38.766   4.208   4.977
35871W        W 4265  10.892  35.451  11.673
35872W        W 4266  24.539   3.794  10.618
35873W        W 4267   2.801  20.455  13.991
35874W        W 4268  24.979  15.837   0.151
35875W        W 4269  32.996  10.365   1.860
35876W        W 4270  40.269  31.671   3.864
35877W        W 4271  27.544  10.352  13.100
35878W        W 4272  16.072  11.131  11.154
35879W        W 4273   2.667  28.671  13.485
35880W        W 4274  44.386   5.761   2.088
35881W        W 4275   9.444  41.458  11.406
35882W        W 4276  33.519  24.475  11.544
35883W        W 4277  38.651  23.985  14.781
35884W        W 4278   3.212   5.135  11.771
35885W        W 4279  38.020  44.507   1.284
35886W        W 4280  29.597  19.756  11.257
35887W        W 4281  30.570   1.277  13.071
35888W        W 4282  28.750  21.576  14.857
35889W        W 4283   8.565  19.599  14.975
35890W        W 4284   1.430  33.760  11.608
35891W        W 4285  41.463  15.831   1.331
35892W        W 4286  42.533  33.867   2.223
35893W        W 4287  32.096  25.276   4.232
35894W        W 4288   9.343   5.314  13.349
35895W        W 4289  22.593  37.200   3.412
35896W        W 4290  43.026  13.390  10.706
35897W        W 4291  26.006  13.818   1.450
35898W        W 4292   1.507  13.341   2.853
35899W        W 4293   9.174  39.448  14.611
35900W        W 4294  23.293  35.062  11.114
35901W        W 4295  23.875  17.983   3.185
35902W        W 4296   2.798   1.950  13.747
35903W        W 4297   0.160  11.308  10.761
35904W        W 4298  28.901  34.182  12.987
35905W        W 4299   3.044  40.865   0.766
35906W        W 4300   1.289   0.753  14.726
35907W        W 4301  33.409  13.522   1.786
35908W        W 4302  41.901  43.636  10.725
35909W        W 4303  17.028  30.902  14.209
35910W        W 4304   9.853   1.805   4.391
35911W        W 4305   2.441   5.055  14.761
35912W        W 4306  40.927  36.785  13.408
35913W        W 4307  40.755  31.380  11.994
35914W        W 4308  27.573  15.234  11.164
35915W        W 4309  24.299  20.032   0.260
35916W        W 4310  36.164  43.942  10.482
35917W        W 4311  37.782  31.502   4.839
35918W        W 4312   4.831  19.863   3.206
35919W        W 4313  13.003  36.116  14.713
35920W        W 4314  28.558  17.125  11.504
35921W        W 4315  44.021  16.540   3.586
35922W        W 4316  19.051  29.538  13.824
35923W        W 4317  24.990  19.619  14.324
35924W        W 4318   4.389  12.261   5.520
35925W        W 4319  41.428  34.540  12.648
35926W        W 4320  19.151  36.554   0.307
35927W        W 4321  11.663   4.782  14.330
35928W        W 4322  16.611  11.742   1.394
35929W        W 4323  10.115  31.504  14.334
35930W        W 4324  34.710  31.420  13.564
35931W        W 4325  36.014  44.044  14.716
35932W        W 4326  11.045  19.482   1.288
35933W        W 4327  20.708  25.329   4.689
35934W        W 4328  36.970  15.312  13.437
35935W        W 4329   2.827  44.905  10.452
35936W        W 4330   0.328   9.277  12.928
35937W        W 4331  16.614  25.623  10.749
35938W        W 4332  37.064  12.269  14.354
35939W        W 4333  32.424  10.939   0.387
35940W        W 4334  11.678  28.063   2.214
35941W        W 4335  42.510  28.680   2.314
35942W        W 4336  24.241  14.160   1.383
35943W        W 4337  32.805  19.692  10.729
35944W        W 4338   5.674   6.721  13.920
35945W        W 4339  35.423  31.974  14.472
35946W        W 4340  13.452  13.244   4.959
35947W        W 4341  28.987  12.164   1.442
35948W        W 4342  38.459  26.962   2.609
35949W        W 4343  35.701   6.882   4.636
35950W        W 4344   9.239  21.461  11.003
35951W        W 4345  25.317  33.347   4.794
35952W        W 4346   5.401  12.068  11.970
35953W        W 4347  13.205  11.736   4.977
35954W        W 4348  32.931   8.274  12.880
35955W        W 4349  38.066  27.866   4.169
35956W        W 4350  44.535   2.391   0.867
35957W        W 4351  28.058  22.111   1.708
35958W        W 4352  22.186  26.129   3.009
35959W        W 4353  25.083  22.239  14.545
35960W        W 4354   8.460  43.812  13.507
35961W        W 4355  38.513   0.460  14.442
35962W        W 4356  21.999  26.131   1.878
35963W        W 4357  23.853  25.585   3.836
35964W        W 4358   2.050  18.221   2.483
35965W        W 4359  26.410   4.162  14.903
35966W        W 4360  13.406  13.763  13.070
35967W        W 4361  30.269  40.040   4.228
35968W        W 4362  18.452  14.661   1.201
35969W        W 4363   7.367  25.260   4.185
35970W        W 4364   3.907  44.873  14.823
35971W        W 4365  18.257  13.052   4.418
35972W        W 4366  11.938  30.943   2.746
35973W        W 4367  20.354  42.857  11.235
35974W        W 4368  25.951  11.779   4.931
35975W        W 4369  25.171   6.449   2.220
35976W        W 4370  15.712   6.989   1.200
35977W        W 4371   9.842  36.397  11.545
35978W        W 4372  38.767  37.367   4.148
35979W        W 4373  30.994  26.970   3.759
35980W        W 4374  22.261   6.860   3.753
35981W        W 4375  11.288  36.515  12.857
35982W        W 4376   4.983   3.788  12.851
35983W        W 4377  12.877  18.638   4.131
35984W        W 4378  17.701   8.943  12.527
35985W        W 4379   0.738  34.991  13.026
35986W        W 4380   3.999   0.538  10.640
35987W        W 4381  10.700  29.784   4.144
35988W        W 4382  13.169  35.449  13.052
35989W        W 4383  35.597   9.709   2.693
35990W        W 4384  16.903  27.479   3.739
35991W        W 4385  43.546  30.081  12.524
35992W        W 4386  18.958  27.897  12.120
35993W        W 4387  28.737  40.366  14.045
35994W        W 4388  12.686   0.373  13.847
35995W        W 4389  28.049   8.726   1.724
35996W        W 4390  20.278  31.689  14.690
35997W        W 4391  12.300  18.876  12.610
35998W        W 4392   2.111  29.628   2.159
35999W        W 4393   3.655   2.889  13.137
36000W        W 4394  25.609  32.294   2.881
36001W        W 4395  31.522  25.507  14.396
36002W        W 4396  13.735  21.292  13.889
36003W        W 4397  17.099  34.935   3.187
36004W        W 4398  16.968  31.927   4.126
36005W        W 4399  32.624  31.422   0.775
36006W        W 4400  25.985  35.537  10.664
36007W        W 4401   7.767  19.294   2.320
36008W        W 4402  28.028  18.049   4.176
36009W        W 4403  39.742  26.706   3.350
36010W        W 4404  37.264   3.489   2.905
36011W        W 4405  16.040   5.858   0.353
36012W        W 4406   4.263   5.757  11.818
36013W        W 4407   3.724  42.849   4.506
36014W        W 4408  13.097  13.925   2.523
36015W        W 4409  37.980   0.507   3.813
36016W        W 4410  16.303  37.333  11.126
36017W        W 4411  31.636  19.516   3.171
36018W        W 4412  37.800  35.149  13.383
36019W        W 4413  39.919  18.702  14.856
36020W        W 4414   8.649  39.710   3.210
36021W        W 4415  31.291  11.091  11.201
36022W        W 4416  11.597  40.054   1.242
36023W        W 4417  28.876  10.396   1.419
36024W        W 4418  40.524  39.342  12.959
36025W        W 4419   0.202   3.753  12.565
36026W        W 4420  41.819  41.725  14.776
36027W        W 4421  21.264  19.059  11.491
36028W        W 4422  40.423  36.855   1.332
36029W        W 4423  40.883  23.417  12.897
36030W        W 4424  26.209  18.644  13.395
36031W        W 4425   8.500  24.479   4.125
36032W        W 4426  43.315  43.559  10.849
36033W        W 4427  14.286   0.945   1.844
36034W        W 4428  18.462  16.756   1.819
36035W        W 4429   4.449  10.676  12.191
36036W        W 4430   8.746  16.534   1.689
36037W        W 4431  23.718  34.142   4.110
36038W        W 4432  27.734  17.940   1.622
36039W        W 4433  24.476  16.294  11.634
36040W        W 4434  18.587  22.155   4.583
36041W        W 4435  23.751  27.591   4.516
36042W        W 4436  18.789   2.309   2.422
36043W        W 4437  35.423   3.288   3.978
36044W        W 4438   7.410   6.657   2.917
36045W        W 4439   5.836  40.285   4.204
36046W        W 4440  23.248  42.964   0.235
36047W        W 4441  41.278   0.210   3.067
36048W        W 4442   7.315  31.118  13.020
36049W        W 4443  14.948  26.978   4.227
36050W        W 4444  36.584  29.737   2.144
36051W        W 4445  11.655  20.651   0.831
36052W        W 4446   4.222  24.549   1.895
36053W        W 4447  10.433   4.034  12.129
36054W        W 4448  30.015  41.154   3.143
36055W        W 4449  18.324  30.229  11.972
36056W        W 4450  12.180  35.975  14.269
36057W        W 4451   2.142  15.747  13.565
36058W        W 4452  33.522  18.275   1.249
36059W        W 4453   8.179  14.968   0.927
36060W        W 4454  10.637  17.465  14.939
36061W        W 4455  37.542  30.433  14.040
36062W        W 4456  37.435  12.289   3.604
36063W        W 4457  15.390  33.892  13.496
36064W        W 4458   3.499   6.713  12.998
36065W        W 4459  11.725  27.445   0.171
36066W        W 4460   8.872  30.255   2.844
36067W        W 4461  12.249  41.804   0.503
36068W        W 4462   7.636  34.384   2.795
36069W        W 4463  20.076   7.198  10.725
36070W        W 4464  19.398  11.272   0.072
36071W        W 4465   5.924  35.863   1.794
36072W        W 4466  32.127  28.390  13.763
36073W        W 4467  15.829  40.420   4.223
36074W        W 4468   4.182  20.200  11.679
36075W        W 4469  31.679  27.407   3.694
36076W        W 4470  39.411  23.093  14.088
36077W        W 4471  30.971  14.365   2.235
36078W        W 4472  23.124  29.425  14.592
36079W        W 4473   2.394  32.293   2.423
36080W        W 4474  35.360  11.361   3.596
36081W        W 4475  10.606  28.920   2.174
36082W        W 4476  18.688  36.387   1.366
36083W        W 4477  37.068  37.834   4.538
36084W        W 4478  24.776  16.303   4.121
36085W        W 4479  36.546  27.994   4.934
36086W        W 4480  28.610  15.200  11.474
36087W        W 4481  34.428   5.668   0.888
36088W        W 4482  23.541  38.448   1.860
36089W        W 4483  36.407  38.899   2.581
36090W        W 4484  40.898  38.619   1.166
36091W        W 4485  13.272  28.583   1.963
36092W        W 4486  11.626  38.939  10.625
36093W        W 4487  21.639  33.121   3.876
36094W        W 4488  10.246  31.123   4.218
36095W        W 4489  14.492  16.252  13.607
36096W        W 4490  34.365  12.226  11.704
36097W        W 4491   9.816  33.338   1.913
36098W        W 4492  39.472  30.561   3.716
36099W        W 4493  44.321  43.799  14.862
36100W        W 4494  13.406  40.496  11.343
36101W        W 4495  42.285   4.938  14.223
36102W        W 4496   4.229  14.387   0.821
36103W        W 4497  35.412  21.111  14.387
36104W        W 4498  21.936   6.994  14.945
36105W        W 4499  24.608  16.824   4.118
36106W        W 4500  18.055  18.811   0.382
36107W        W 4501  39.978  23.514  14.318
36108W        W 4502  26.143  11.245   2.237
36109W        W 4503  38.938  28.608   1.038
36110W        W 4504  20.042  37.075   1.373
36111W        W 4505   6.966   9.330   4.845
36112W        W 4506  15.820  15.879   1.102
36113W        W 4507  32.959  12.481  12.417
36114W        W 4508  33.543   7.791  12.412
36115W        W 4509  25.653   9.418   3.687
36116W        W 4510  11.792  10.631   3.543
36117W        W 4511  27.467   6.958  14.487
36118W        W 4512  16.836  38.843   3.889
36119W        W 4513   6.403  10.674  12.513
36120W        W 4514  34.650   1.636   1.298
36121W        W 4515   4.339  40.120   1.351
36122W        W 4516  22.169  38.398   3.711
36123W        W 4517  27.217  41.346  13.878
36124W        W 4518  29.931  14.819   2.206
36125W        W 4519  24.973  32.021  14.319
36126W        W 4520  30.186   2.117  13.357
36127W        W 4521  15.931  34.383  13.418
36128W        W 4522  33.433  13.384   3.938
36129W        W 4523  19.010  17.888  13.383
36130W        W 4524  41.317  24.182   2.871
36131W        W 4525  10.175   9.104   3.028
36132W        W 4526   7.189   0.707  13.953
36133W        W 4527  37.010   9.651  12.141
36134W        W 4528  29.939  15.159   3.184
36135W        W 4529  37.483   5.052   0.419
36136W        W 4530  43.504  18.294  10.676
36137W        W 4531  31.495  19.536  13.791
36138W        W 4532   6.466  31.559  14.267
36139W        W 4533   6.471   7.228   0.004
36140W        W 4534  15.174   6.871   3.698
36141W        W 4535  11.811  39.472  10.720
36142W        W 4536  19.057  31.006   2.355
36143W        W 4537   4.400   2.090  11.448
36144W        W 4538  13.636  34.982  11.430
36145W        W 4539   1.947   7.354   4.731
36146W        W 4540  27.734  16.398   1.392
36147W        W 4541   7.369  35.342  11.561
36148W        W 4542  25.949  29.676   2.052
36149W        W 4543  15.744  34.977  12.590
36150W        W 4544  21.615  15.096  10.740
36151W        W 4545  15.317  38.149   3.201
36152W        W 4546  38.304  16.826  13.821
36153W        W 4547  25.343  33.799  14.451
36154W        W 4548  23.149  16.561   3.396
36155W        W 4549  41.408  32.428  14.701
36156W        W 4550  22.602  16.995   2.315
36157W        W 4551  30.843  41.420   1.719
36158W        W 4552  41.580  27.182  12.712
36159W        W 4553  43.573   5.830   0.344
36160W        W 4554   2.707  29.374  11.558
36161W        W 4555  10.572  24.235   2.361
36162W        W 4556  20.559   9.122  14.723
36163W        W 4557  33.012  25.507  13.870
36164W        W 4558   1.935  18.360   1.997
36165W        W 4559  18.779  34.576   1.320
36166W        W 4560  26.653  31.586   4.134
36167W        W 4561   4.960  28.291  14.280
36168W        W 4562  28.195  33.628  11.950
36169W        W 4563  28.428  35.233   1.367
36170W        W 4564   6.412  16.311   1.792
36171W        W 4565   6.692  29.756   1.901
36172W        W 4566  43.834  19.716  12.404
36173W        W 4567  15.559   6.930   1.694
36174W        W 4568  15.539   9.147  13.568
36175W        W 4569  43.406  44.004  11.090
36176W        W 4570  33.091  18.129   3.305
36177W        W 4571  21.995  16.284  13.941
36178W        W 4572  42.221  23.848   1.777
36179W        W 4573  31.371  31.879   4.432
36180W        W 4574   9.112   1.973   2.244
36181W        W 4575  41.107  17.642   1.231
36182W        W 4576  13.209  17.675   0.872
36183W        W 4577  27.571  32.994   3.765
36184W        W 4578  28.034  25.699   4.233
36185W        W 4579  18.849  23.134  11.542
36186W        W 4580  36.865  35.758  12.000
36187W        W 4581  14.013   0.211   0.090
36188W        W 4582  38.040   2.113  13.771
36189W        W 4583  23.989  26.968   3.950
36190W        W 4584  24.233  26.223  12.927
36191W        W 4585  19.289   3.958  13.566
36192W        W 4586  11.421  19.037  11.663
36193W        W 4587  43.240   7.753   1.276
36194W        W 4588  25.131  30.175   0.737
36195W        W 4589  24.950  34.176  11.915
36196W        W 4590   0.015  38.533   2.651
36197W        W 4591  19.405  10.046   5.063
36198W        W 4592  44.833  13.678   3.657
36199W        W 4593   2.388  12.572   4.096
36200W        W 4594  37.473  14.082  13.104
36201W        W 4595  37.878  26.685  11.871
36202W        W 4596  36.842  21.143  14.469
36203W        W 4597  30.517  40.270   4.647
36204W        W 4598  19.469  28.505   1.012
36205W        W 4599  35.600  20.829   1.691
36206W        W 4600   9.247  31.641   3.755
36207W        W 4601   8.199  43.861   0.374
36208W        W 4602  12.389   8.243   0.462
36209W        W 4603  33.061  35.093   2.319
36210W        W 4604  10.756  19.161   2.737
36211W        W 4605  30.586  16.583  14.953
36212W        W 4606  26.901   8.771   0.040
36213W        W 4607   1.543  17.742  11.698
36214W        W 4608  33.556  22.801   4.242
36215W        W 4609  30.591  20.127  12.219
36216W        W 4610  30.979  36.383   3.312
36217W        W 4611   6.553  30.162   2.882
36218W        W 4612  43.296  24.968   0.283
36219W        W 4613   5.141   7.245   1.439
36220W        W 4614  42.818  39.347  12.429
36221W        W 4615   4.118   8.409   2.125
36222W        W 4616  32.009   2.240  13.006
36223W        W 4617  25.160   7.875   4.590
36224W        W 4618  38.515  33.830  12.434
36225W        W 4619  14.973  30.481   4.950
36226W        W 4620   1.636  35.930   1.306
36227W        W 4621   9.278   8.702  12.730
36228W        W 4622  34.882   6.857   3.334
36229W        W 4623  33.088  37.641  10.640
36230W        W 4624  24.206  13.360   4.301
36231W        W 4625  38.005  28.243   2.823
36232W        W 4626  38.018  29.170   2.877
36233W        W 4627  12.422  15.299   1.357
36234W        W 4628  21.056  44.421  13.521
36235W        W 4629  25.777  35.787   2.780
36236W        W 4630  25.261  22.181   1.503
36237W        W 4631  19.665  33.898   4.915
36238W        W 4632  21.885  11.855   3.571
36239W        W 4633  22.168  26.742   0.751
36240W        W 4634   8.464   4.578   4.147
36241W        W 4635  41.338  37.144   1.636
36242W        W 4636  36.798  41.831   0.577
36243W        W 4637  17.574  19.405  11.557
36244W        W 4638  14.372  41.534   3.730
36245W        W 4639   7.411  21.732   1.704
36246W        W 4640  28.209  32.131   0.774
36247W        W 4641  39.075  16.223  12.703
36248W        W 4642  39.157  25.379  14.237
36249W        W 4643  41.978  34.557  13.800
36250W        W 4644  30.394  25.235  11.153
36251W        W 4645  30.930  31.295   1.406
36252W        W 4646  13.280  10.369   2.237
36253W        W 4647  27.896  31.536  14.923
36254W        W 4648   9.146  42.432   4.485
36255W        W 4649  25.526  37.813  11.263
36256W        W 4650  44.781  19.478   3.165
36257W        W 4651   6.757   5.387   3.714
36258W        W 4652  25.044  34.621   1.686
36259W        W 4653  13.138  20.496   3.507
36260W        W 4654   8.914   2.738   5.039
36261W        W 4655  40.586  44.307   1.375
36262W        W 4656  17.572  20.023   2.803
36263W        W 4657  25.928  25.421   4.114
36264W        W 4658  25.186  22.599  10.345
36265W        W 4659  12.098   3.811  14.346
36266W        W 4660  24.044   1.798   3.378
36267W        W 4661   9.987  42.785  13.943
36268W        W 4662   0.962  28.903  14.866
36269W        W 4663  35.379  23.656  11.195
36270W        W 4664  42.296   9.860  11.988
36271W        W 4665  15.439  19.968  14.897
36272W        W 4666  27.086  14.131   3.024
36273W        W 4667  26.061  35.416   1.906
36274W        W 4668  25.130  19.309   3.166
36275W        W 4669   8.186  14.050   0.485
36276W        W 4670  35.533  21.658  14.735
36277W        W 4671  32.576  16.563   2.040
36278W        W 4672  33.832   6.747  13.075
36279W        W 4673  26.600  11.968  11.645
36280W        W 4674  10.886  38.669   0.337
36281W        W 4675  41.351  10.432  11.941
36282W        W 4676   9.421   6.175   3.750
36283W        W 4677   2.861  12.866   0.950
36284W        W 4678  15.885   8.833   1.412
36285W        W 4679   1.324  24.529  14.637
36286W        W 4680  11.281  18.146   1.393
36287W        W 4681  26.185  41.385   0.037
36288W        W 4682  28.186  15.502  10.268
36289W        W 4683  29.035   6.548   0.891
36290W        W 4684  41.530  16.284   0.539
36291W        W 4685  30.596   7.272   4.818
36292W        W 4686  24.127   0.034  11.145
36293W        W 4687  34.463  31.137   3.813
36294W        W 4688  28.474  26.617  11.961
36295W        W 4689  19.520  17.674   2.281
36296W        W 4690  20.511  44.873   2.712
36297W        W 4691  30.811  17.113   0.369
36298W        W 4692   6.187  38.087  11.705
36299W        W 4693   7.713  15.134   2.498
36300W        W 4694  14.115  15.672  11.471
36301W        W 4695  22.171  15.421   1.941
36302W        W 4696  38.364   9.332  14.546
36303W        W 4697  34.948  41.992   2.414
36304W        W 4698  22.647  33.428   3.143
36305W        W 4699  16.325  11.864  12.397
36306W        W 4700  39.405   7.449   0.922
36307W        W 4701  18.741  27.914  11.614
36308W        W 4702  22.179  17.061  10.988
36309W        W 4703  29.694  19.320   2.314
36310W        W 4704   9.412  17.206   1.707
36311W        W 4705  39.748  22.060   2.909
36312W        W 4706  35.770  30.899   1.553
36313W        W 4707  23.210  12.313  14.796
36314W        W 4708  44.802  22.336   2.208
36315W        W 4709   2.222  39.913  11.567
36316W        W 4710   3.832   8.902   3.354
36317W        W 4711   5.342  30.017   1.656
36318W        W 4712  18.585   8.391   2.868
36319W        W 4713   9.746  11.905  11.551
36320W        W 4714  15.524  44.851  13.355
36321W        W 4715  25.971  31.684   3.615
36322W        W 4716   4.919  11.109   4.130
36323W        W 4717  35.879  27.557   4.651
36324W        W 4718  18.733  43.814   2.876
36325W        W 4719  37.310  10.122   3.628
36326W        W 4720  27.118  40.932   2.279
36327W        W 4721  32.645   6.790  13.790
36328W        W 4722  16.284  10.704   3.316
36329W        W 4723   1.736  20.473   0.795
36330W        W 4724  41.562  14.834   0.341
36331W        W 4725  39.780  31.025   1.765
36332W        W 4726   5.231  32.582  14.597
36333W        W 4727   8.135  13.199   4.566
36334W        W 4728  41.114   5.481   4.258
36335W        W 4729  24.780   2.974   2.284
36336W        W 4730  19.224  43.957  11.493
36337W        W 4731  13.211  15.674  14.966
36338W        W 4732  43.997  37.355  11.117
36339W        W 4733  11.546   6.709  14.921
36340W        W 4734  44.523  42.616   3.225
36341W        W 4735  26.538  22.891  12.211
36342W        W 4736  37.712  30.099  12.145
36343W        W 4737  26.819  32.699   2.909
36344W        W 4738  32.481   6.433  11.550
36345W        W 4739  35.553   6.289  14.987
36346W        W 4740  22.650  20.334  10.953
36347W        W 4741   8.435   2.242   3.206
36348W        W 4742   9.923  20.257   2.632
36349W        W 4743   2.187  18.582   4.131
36350W        W 4744  39.819  27.700   0.021
36351W        W 4745   2.912  32.111  11.168
36352W        W 4746  42.422  27.267  14.941
36353W        W 4747  42.448   6.937   3.788
36354W        W 4748  29.498  36.994  13.707
36355W        W 4749  13.383  21.939   3.691
36356W        W 4750   7.965   0.191   3.742
36357W        W 4751  32.431  38.082  14.993
36358W        W 4752  43.177  26.279  12.597
36359W        W 4753  18.065  42.528  13.063
36360W        W 4754  14.792  21.030   1.374
36361W        W 4755  33.661  25.786  14.995
36362W        W 4756  34.690  21.127  11.542
36363W        W 4757  44.293   8.739  13.302
36364W        W 4758  29.928   9.817   3.442
36365W        W 4759  41.492  43.531  14.979
36366W        W 4760  26.965   6.437  13.979
36367W        W 4761  32.794  39.892   4.710
36368W        W 4762   6.932  20.543   3.711
36369W        W 4763  14.096  26.790  11.031
36370W        W 4764  42.530  11.941  14.507
36371W        W 4765   0.703   2.690  13.335
36372W        W 4766  10.271   1.966  11.502
36373W        W 4767  36.559  21.278  14.869
36374W        W 4768  43.801  21.168  12.457
36375W        W 4769  16.645  28.613   4.948
36376W        W 4770  16.043  41.027  12.979
36377W        W 4771  33.393  41.049  10.987
36378W        W 4772   8.305  37.883  14.284
36379W        W 4773  18.577  34.450   4.960
36380W        W 4774  41.413   1.917  14.209
36381W        W 4775  16.826  35.124  11.385
36382W        W 4776  34.964   1.893  14.110
36383W        W 4777  27.597  26.256   2.939
36384W        W 4778   2.903  13.703   3.878
36385W        W 4779  18.791  17.175   2.288
36386W        W 4780   0.216  21.871   4.870
36387W        W 4781   0.706  13.473   5.031
36388W        W 4782  29.392  38.863  10.772
36389W        W 4783  13.079  21.994  10.819
36390W        W 4784  22.621   7.225   3.668
36391W        W 4785  11.193   1.208   3.356
36392W        W 4786  12.603  21.205   1.651
36393W        W 4787  20.556   2.601  12.866
36394W        W 4788  40.436  37.603   1.944
36395W        W 4789  42.314  13.650   1.667
36396W        W 4790  35.103  31.093  14.387
36397W        W 4791  24.419  11.152   4.168
36398W        W 4792   6.414  33.884  14.184
36399W        W 4793  29.170  33.599  14.904
36400W        W 4794  43.299  23.495  14.919
36401W        W 4795   4.784  33.126  10.678
36402W        W 4796  28.704  41.995   3.751
36403W        W 4797   7.420  31.438  11.675
36404W        W 4798  26.779  22.546   4.195
36405W        W 4799  13.275  15.357  11.054
36406W        W 4800  33.530  26.583  10.244
36407W        W 4801  17.299   4.344  12.912
36408W        W 4802  32.150  34.888   1.386
36409W        W 4803   1.184  29.865  13.144
36410W        W 4804  18.377  13.361  11.142
36411W        W 4805  26.788   7.347   2.187
36412W        W 4806   9.725  29.645  13.823
36413W        W 4807   1.380  41.326  14.228
36414W        W 4808  19.311  34.470   4.229
36415W        W 4809  43.186  18.664  10.904
36416W        W 4810  11.904  40.837   0.610
36417W        W 4811  42.577  44.086  11.401
36418W        W 4812  35.981  26.095   2.452
36419W        W 4813   7.121   2.762   4.094
36420W        W 4814  41.333  42.459   0.057
36421W        W 4815   9.718  24.470   2.267
36422W        W 4816  10.799  35.909   4.855
36423W        W 4817  16.180  43.235   3.472
36424W        W 4818   7.130  11.592  11.048
36425W        W 4819  43.292  14.200  11.663
36426W        W 4820  37.782  37.803   0.989
36427W        W 4821  22.276   8.134  14.818
36428W        W 4822   5.417  29.849   2.685
36429W        W 4823  35.582  31.699  13.854
36430W        W 4824   1.339  19.068   0.187
36431W        W 4825  20.116  11.916   3.856
36432W        W 4826  19.086  10.880  12.015
36433W        W 4827  40.975  18.562  14.790
36434W        W 4828  26.033  43.684   2.673
36435W        W 4829  43.470  44.921   0.734
36436W        W 4830  38.165  26.114   2.178
36437W        W 4831  43.155  20.402  11.993
36438W        W 4832   2.870  17.214  10.299
36439W        W 4833  12.869  33.651  11.181
36440W        W 4834  41.711  10.246  11.160
36441W        W 4835  39.436  44.546   1.430
36442W        W 4836  43.633  35.207  11.622
36443W        W 4837  10.857  32.862   3.287
36444W        W 4838   2.913  41.570   2.752
36445W        W 4839  20.071  32.972  13.289
36446W        W 4840  13.163  28.984  13.311
36447W        W 4841  25.129  12.142   2.448
36448W        W 4842   8.626  15.706  12.810
36449W        W 4843  15.630   3.916  13.503
36450W        W 4844  30.694  21.832   3.330
36451W        W 4845  38.298  38.296   0.823
36452W        W 4846  16.820  34.483  14.592
36453W        W 4847   2.469   1.718  11.651
36454W        W 4848  26.394   8.657  14.986
36455W        W 4849   8.458   4.608   2.308
36456W        W 4850   3.887  23.868  11.069
36457W        W 4851  43.032  16.570   1.652
36458W        W 4852   2.446  15.833  14.019
36459W        W 4853  42.462   3.296   0.549
36460W        W 4854  28.892  38.965  13.632
36461W        W 4855  10.645  26.031   3.180
36462W        W 4856  23.654   6.913   0.441
36463W        W 4857  10.849  41.722   4.166
36464W        W 4858  26.580  37.413  13.124
36465W        W 4859  36.862  37.964  14.737
36466W        W 4860  40.496  34.889   3.399
36467W        W 4861  41.081  19.111  11.982
36468W        W 4862  17.469  40.643  10.225
36469W        W 4863   9.273  12.251  14.122
36470W        W 4864  33.542  29.501   4.561
36471W        W 4865  40.484  41.019  12.040
36472W        W 4866  24.052   5.446  14.728
36473W        W 4867  33.669  24.725  14.047
36474W        W 4868  39.221  21.684   0.857
36475W        W 4869   1.204  23.096  14.500
36476W        W 4870  19.428  36.976   0.354
36477W        W 4871  37.101  30.612   0.432
36478W        W 4872   0.725  33.371  13.429
36479W        W 4873  14.167  33.118  12.972
36480W        W 4874  33.113  25.964  13.032
36481W        W 4875  35.398   3.834  12.279
36482W        W 4876  15.173  36.135  11.452
36483W        W 4877  19.797   0.463   4.172
36484W        W 4878  11.607   6.979   1.279
36485W        W 4879  30.264  23.253  10.855
36486W        W 4880  29.421  17.199  11.407
36487W        W 4881   1.966  33.205  11.128
36488W        W 4882  44.975  13.920  14.457
36489W        W 4883  22.356  16.399   2.965
36490W        W 4884  23.540   4.890  14.524
36491W        W 4885  23.113  23.231  14.350
36492W        W 4886  27.980  27.806  12.626
36493W        W 4887  32.111  23.234   0.961
36494W        W 4888   1.928   2.335   1.282
36495W        W 4889  27.487  18.046   2.897
36496W        W 4890  23.603  39.781  10.695
36497W        W 4891  43.541  23.105   4.172
36498W        W 4892  41.098  31.995  14.368
36499W        W 4893   4.445   1.441   2.777
36500W        W 4894  22.289  36.643  12.573
36501W        W 4895  17.795  41.306   2.279
36502W        W 4896  38.859  43.449  12.649
36503W        W 4897  25.760   9.653  10.324
36504W        W 4898  26.945  22.011   2.450
36505W        W 4899  44.454  40.279  14.399
36506W        W 4900  33.925   1.987  14.963
36507W        W 4901  33.479  29.467   1.195
36508W        W 4902  26.166   8.112   2.672
36509W        W 4903  34.525   5.878  11.148
36510W        W 4904  39.516  29.904   2.281
36511W        W 4905  35.479  33.115   4.211
36512W        W 4906   3.440  29.960  11.517
36513W        W 4907  40.562   9.147   0.749
36514W        W 4908  23.531  22.208   3.246
36515W        W 4909  31.717   7.785  13.400
36516W        W 4910  22.154  12.227  10.424
36517W        W 4911  29.932  10.040   4.272
36518W        W 4912  21.410   4.477  10.047
36519W        W 4913  17.613  33.391  13.090
36520W        W 4914  29.204  31.869   1.847
36521W        W 4915  14.616  37.462   4.973
36522W        W 4916  22.890  29.444   0.879
36523W        W 4917   7.889  29.683  13.901
36524W        W 4918  44.438  33.442   3.355
36525W        W 4919  26.017  20.028   1.311
36526W        W 4920   2.704   7.361  11.658
36527W        W 4921  24.739  15.117   0.934
36528W        W 4922  15.226  33.650  12.182
36529W        W 4923   2.226  18.717  11.832
36530W        W 4924  29.225  30.607   1.288
36531W        W 4925  27.288   2.439  13.509
36532W        W 4926  41.017  23.679   3.577
36533W        W 4927   7.666  26.674   3.673
36534W        W 4928  14.129  12.544   2.697
36535W        W 4929  25.584  42.831   2.736
36536W        W 4930  30.551   5.653   1.819
36537W        W 4931   2.757  18.174   3.227
36538W        W 4932   3.452  35.085   4.102
36539W        W 4933  34.421  12.034   4.074
36540W        W 4934   3.896   3.327   2.326
36541W        W 4935  11.195   7.763  12.480
36542W        W 4936  14.425  16.136  12.150
36543W        W 4937  44.558  24.490  14.458
36544W        W 4938  22.844  25.732  12.507
36545W        W 4939  24.015  16.145   4.789
36546W        W 4940  32.468   7.376   3.009
36547W        W 4941  42.251  26.460   1.271
36548W        W 4942  23.740  18.144   3.674
36549W        W 4943  15.760  25.771   1.872
36550W        W 4944   9.145   3.566   2.768
36551W        W 4945  32.571  22.680   1.469
36552W        W 4946  37.578  28.896  11.174
36553W        W 4947  29.119  13.093   3.290
36554W        W 4948  26.582   1.828   2.315
36555W        W 4949  15.690  23.304   0.133
36556W        W 4950   5.964  40.654   2.388
36557W        W 4951  12.679  12.585   2.041
36558W        W 4952  25.814  31.289  13.420
36559W        W 4953  44.023  38.570   3.239
36560W        W 4954  21.744   8.427   4.171
36561W        W 4955  21.019  10.150  14.969
36562W        W 4956  12.443  43.699   0.344
36563W        W 4957  14.224   1.114  11.167
36564W        W 4958   2.842  42.577   3.609
36565W        W 4959  29.672  40.874  13.268
36566W        W 4960  43.212  10.188   2.241
36567W        W 4961  36.037  28.116  14.807
36568W        W 4962  20.793  28.158  14.317
36569W        W 4963  26.778  35.836   0.705
36570W        W 4964  44.991  24.530  11.425
36571W        W 4965   1.235   5.675   3.185
36572W        W 4966  24.730   6.885   0.828
36573W        W 4967  26.909  39.793  11.220
36574W        W 4968  19.224  34.488   2.197
36575W        W 4969  29.475  28.612   1.157
36576W        W 4970  20.481  13.812  14.579
36577W        W 4971  38.594  22.555   2.730
36578W        W 4972  17.313  25.948  13.908
36579W        W 4973  35.958  27.668  12.020
36580W        W 4974  11.432  22.556   2.212
36581W        W 4975   5.731  36.958   1.508
36582W        W 4976  34.566  33.725   1.267
36583W        W 4977  14.229  25.415  10.741
36584W        W 4978   2.869  19.272  10.637
36585W        W 4979  37.141  41.484   0.825
36586W        W 4980  17.814  34.719  12.667
36587W        W 4981   8.198  18.937   3.182
36588W        W 4982   9.629   3.645  12.025
36589W        W 4983  30.163  23.506   0.909
36590W        W 4984  30.951  10.018  13.817
36591W        W 4985   2.858  20.809  12.581
36592W        W 4986  43.086  31.399   0.116
36593W        W 4987  24.794  32.546   1.001
36594W        W 4988   1.239  30.423  13.340
36595W        W 4989   8.931  11.969  13.401
36596W        W 4990  25.535  38.210  12.201
36597W        W 4991  30.344   5.418   1.375
36598W        W 4992  26.969  28.447   4.473
36599W        W 4993  32.565  17.605   1.336
36600W        W 4994  29.987  33.567  13.574
36601W        W 4995  14.113   9.790   3.155
36602W        W 4996  13.570  15.745   1.819
36603W        W 4997  23.031   8.222   1.753
36604W        W 4998  13.097  19.021  14.790
36605W        W 4999  42.743  20.269  13.587
36606W        W 5000   8.902   7.660  11.196
36607W        W 5001   4.752   7.914   2.631
36608W        W 5002  43.883   3.217   0.750
36609W        W 5003  16.225  42.432   1.639
36610W        W 5004  42.296  26.443   4.685
36611W        W 5005  25.041  40.918   4.858
36612W        W 5006  33.536   0.791  11.089
36613W        W 5007  11.802  38.048  10.174
36614W        W 5008  24.477   4.495  12.375
36615W        W 5009   2.906  24.096   4.200
36616W        W 5010  38.479  14.535   3.346
36617W        W 5011  15.281   7.895   3.628
36618W        W 5012  10.371  41.866   0.014
36619W        W 5013   1.741  33.032  14.879
36620W        W 5014   5.467  30.004  11.859
36621W        W 5015  13.048  18.867  13.884
36622W        W 5016  18.626  36.458   3.725
36623W        W 5017  19.783  28.950  11.673
36624W        W 5018  24.159  28.219   5.096
36625W        W 5019  39.605   2.349   3.139
36626W        W 5020   8.531  12.446   1.340
36627W        W 5021  31.700   2.289  14.279
36628W        W 5022  43.821  20.202   1.175
36629W        W 5023  30.062   1.780   4.115
36630W        W 5024  39.908  25.112   4.220
36631W        W 5025  31.347  23.702  12.626
36632W        W 5026  44.167   4.482  12.017
36633W        W 5027  36.348   4.680   1.716
36634W        W 5028  24.028   5.184   4.140
36635W        W 5029  33.776  40.336   0.924
36636W        W 5030  37.924   9.333   2.469
36637W        W 5031  38.558   2.274  14.585
36638W        W 5032  16.529   3.202  11.611
36639W        W 5033  30.608  17.852   3.186
36640W        W 5034   3.711  28.733   2.432
36641W        W 5035  43.247   0.694  11.501
36642W        W 5036   6.264   5.015   4.772
36643W        W 5037  37.829   2.476   0.120
36644W        W 5038  10.210  10.160  11.995
36645W        W 5039   5.826   8.586  10.614
36646W        W 5040  43.512  16.008  14.414
36647W        W 5041   3.224  19.684   0.783
36648W        W 5042   5.645  14.703   2.811
36649W        W 5043  18.081  13.279   0.909
36650W        W 5044  15.745  10.165  11.656
36651W        W 5045  33.956  30.860  13.773
36652W        W 5046   5.206  18.043  13.687
36653W        W 5047  34.906  11.067  11.428
36654W        W 5048  35.805  41.116   1.635
36655W        W 5049  42.799  37.942   3.257
36656W        W 5050  18.543   5.962  13.540
36657W        W 5051   0.949  16.243   0.764
36658W        W 5052   2.229  40.994  14.317
36659W        W 5053  40.797  34.123   1.936
36660W        W 5054  22.334  18.331   1.251
36661W        W 5055  12.110  42.525   1.918
36662W        W 5056  17.715  24.008   3.120
36663W        W 5057  22.002  25.621  11.202
36664W        W 5058   0.799  41.879  12.395
36665W        W 5059  12.913  37.487   0.015
36666W        W 5060  24.242  15.194   4.241
36667W        W 5061  31.041  31.890   4.035
36668W        W 5062  21.042  18.786   3.636
36669W        W 5063  10.921   7.967   0.970
36670W        W 5064  11.408  40.296  12.533
36671W        W 5065  23.104   8.737   0.025
36672W        W 5066  20.071  34.020   1.422
36673W        W 5067   3.957  15.597   2.715
36674W        W 5068  24.531  39.021  14.977
36675W        W 5069   3.277  13.375   1.572
36676W        W 5070   8.833  27.442   2.840
36677W        W 5071  32.633  35.113  14.577
36678W        W 5072  31.683  10.720   1.803
36679W        W 5073  24.191   2.644  13.928
36680W        W 5074   4.777  41.899  12.382
36681W        W 5075  21.821  25.140  11.089
36682W        W 5076   9.404  29.656   4.895
36683W        W 5077   4.038  44.010  13.020
36684W        W 5078  34.379  25.789   1.797
36685W        W 5079  21.435  34.694   1.874
36686W        W 5080  43.586   0.710   1.405
36687W        W 5081  20.161  15.303  14.377
36688W        W 5082  40.771  35.510   4.455
36689W        W 5083  40.561  43.215  10.302
36690W        W 5084  16.253  10.942  10.443
36691W        W 5085  43.359  19.523   5.003
36692W        W 5086   9.854  14.752  13.572
36693W        W 5087  12.866  41.814   4.119
36694W        W 5088  12.297  16.246   1.798
36695W        W 5089  42.810  44.457   5.109
36696W        W 5090   6.678  39.863   2.900
36697W        W 5091  41.459  28.425   3.723
36698W        W 5092  11.283  23.632  10.719
36699W        W 5093  44.964  41.607   0.244
36700W        W 5094  21.933   2.589   4.192
36701W        W 5095  25.708  35.920   0.798
36702W        W 5096  12.422  34.356   4.555
36703W        W 5097   0.038  23.254  12.486
36704W        W 5098  35.393  42.910   4.375
36705W        W 5099  18.236  42.050  12.109
36706W        W 5100  41.985  34.450  11.105
36707W        W 5101  44.542  44.836   2.265
36708W        W 5102   7.645  12.692  13.951
36709W        W 5103  23.073  19.543  10.683
36710W        W 5104   0.049   9.357  11.669
36711W        W 5105   8.664  30.192  12.613
36712W        W 5106  28.167  11.617   3.562
36713W        W 5107  30.705  26.281   1.326
36714W        W 5108  32.977  34.966  12.869
36715W        W 5109   6.390  36.017   3.495
36716W        W 5110  23.446  35.181   0.354
36717W        W 5111   5.203  30.841   2.801
36718W        W 5112  39.102  15.580   1.404
36719W        W 5113  23.723  22.485   2.752
36720W        W 5114   6.690  32.559  12.641
36721W        W 5115   6.711  34.679  10.650
36722W        W 5116  35.255  39.912   0.948
36723W        W 5117  32.636  34.363   4.499
36724W        W 5118  40.898  28.024  11.332
36725W        W 5119   7.800  44.935   2.324
36726W        W 5120  25.652   4.456  14.287
36727W        W 5121   9.894  32.656   4.297
36728W        W 5122  40.669  22.606  13.387
36729W        W 5123   0.726  31.088   2.803
36730W        W 5124  36.056   4.392   4.842
36731W        W 5125   6.771   9.359   4.312
36732W        W 5126   2.540  10.430  10.702
36733W        W 5127   6.187  36.457  10.540
36734W        W 5128  11.192  35.022   4.553
36735W        W 5129  27.917  19.709   0.412
36736W        W 5130  18.237  21.984   0.414
36737W        W 5131  13.158  31.387   3.312
36738W        W 5132  39.075  12.865   1.224
36739W        W 5133   6.150  15.995  13.727
36740W        W 5134  16.595  41.149  11.668
36741W        W 5135  18.638  24.108  12.007
36742W        W 5136  40.821  10.835  13.297
36743W        W 5137  20.203  37.343  11.091
36744W        W 5138  28.382  19.237  14.089
36745W        W 5139  29.490   8.348  14.540
36746W        W 5140  31.878   8.313  11.205
36747W        W 5141  42.813  42.645   9.912
36748W        W 5142  23.475  24.594   3.608
36749W        W 5143  12.572  40.902   2.296
36750W        W 5144  23.115   5.340   0.823
36751W        W 5145   8.744  38.516   4.795
36752W        W 5146  29.052  13.677  13.988
36753W        W 5147  20.142   5.123   0.352
36754W        W 5148  16.289   1.261  11.419
36755W        W 5149  41.030   0.948   0.760
36756W        W 5150   5.295  33.671  13.152
36757W        W 5151  13.608  32.217  12.426
36758W        W 5152  42.902  20.050   0.783
36759W        W 5153   3.896   5.397  12.991
36760W        W 5154   9.639  25.849  10.941
36761W        W 5155  39.529   7.982   0.920
36762W        W 5156   0.942  38.656   2.359
36763W        W 5157  32.907  15.184  13.323
36764W        W 5158   6.777  34.189   1.840
36765W        W 5159   3.540  36.520  12.974
36766W        W 5160  18.538  31.739  12.679
36767W        W 5161  37.590   7.956  11.864
36768W        W 5162  40.916  33.835   4.089
36769W        W 5163  31.571   4.992  13.377
36770W        W 5164   8.868  42.315   0.683
36771W        W 5165  38.942  14.015   1.725
36772W        W 5166  15.546  20.729  11.008
36773W        W 5167   0.036  26.184  14.473
36774W        W 5168  29.520  12.652  11.205
36775W        W 5169  34.767   8.952  10.052
36776W        W 5170  23.722  37.041  14.246
36777W        W 5171  11.243  33.123  10.377
36778W        W 5172  15.800   7.303  14.932
36779W        W 5173  18.602  15.430  13.908
36780W        W 5174  39.866  10.272   3.929
36781W        W 5175  34.357  20.293   1.820
36782W        W 5176   1.759  37.568   3.849
36783W        W 5177   1.012   6.197  12.169
36784W        W 5178  40.134   0.024   2.611
36785W        W 5179  25.495  15.811  12.110
36786W        W 5180  26.631  40.994   3.344
36787W        W 5181  33.066  12.957  12.501
36788W        W 5182   0.473  15.577   3.237
36789W        W 5183  42.521  44.083  14.878
36790W        W 5184  16.031   3.178   4.616
36791W        W 5185  11.733  19.911  11.344
36792W        W 5186  16.218  32.843   3.225
36793W        W 5187  40.388  42.016   3.172
36794W        W 5188  39.468  19.319   4.156
36795W        W 5189  35.419  16.119  12.003
36796W        W 5190   3.674   8.929   4.285
36797W        W 5191  11.688   8.817   3.659
36798W        W 5192  11.222  25.741  10.651
36799W        W 5193  42.431   6.522   1.881
36800W        W 5194  14.651  27.664  11.151
36801W        W 5195  24.946   5.777  14.351
36802W        W 5196  22.651  28.385  11.390
36803W        W 5197  10.457  19.517   3.360
36804W        W 5198   7.804   6.671   4.118
36805W        W 5199  32.646   8.713   0.330
36806W        W 5200  14.136  38.714  13.368
36807W        W 5201   7.013  12.125   2.319
36808W        W 5202  17.479  14.572  11.416
36809W        W 5203  41.475  23.744  12.386
36810W        W 5204   8.262  34.070  14.502
36811W        W 5205  35.017  36.930  14.842
36812W        W 5206  20.676  36.015  14.082
36813W        W 5207  34.465  13.720  11.322
36814W        W 5208   0.516  40.025   0.838
36815W        W 5209  12.310  34.167  13.407
36816W        W 5210   3.423   9.603  14.438
36817W        W 5211  24.093  24.123   0.845
36818W        W 5212  13.462   0.876  12.324
36819W        W 5213  41.340  31.466  10.433
36820W        W 5214  35.362  15.574   4.889
36821W        W 5215  42.346   9.902   1.335
36822W        W 5216  25.423  23.728   0.636
36823W        W 5217  16.529   3.963  13.588
36824W        W 5218  24.783  13.828   4.225
36825W        W 5219  30.758  44.826  13.972
36826W        W 5220  19.786  31.144   4.591
36827W        W 5221   1.258  14.103  13.925
36828W        W 5222  38.797  19.141   3.651
36829W        W 5223  30.487  15.761  10.467
36830W        W 5224   9.698  26.682   0.428
36831W        W 5225  27.871  25.527  14.933
36832W        W 5226   0.875  25.662   1.390
36833W        W 5227  33.395   3.178  11.175
36834W        W 5228  16.960   5.724  12.018
36835W        W 5229   9.905  30.969  13.263
36836W        W 5230   7.811  37.926  14.458
36837W        W 5231   3.718   3.826  13.827
36838W        W 5232  40.973  15.167  13.861
36839W        W 5233   7.527  24.690  11.642
36840W        W 5234  40.902  12.699  11.055
36841W        W 5235  32.861  10.681  14.225
36842W        W 5236  39.140   1.589  11.623
36843W        W 5237  39.451   6.277  10.725
36844W        W 5238   0.069  42.797   2.313
36845W        W 5239  13.105  17.326  12.959
36846W        W 5240  43.072  21.219  13.371
36847W        W 5241  25.066  30.834  12.035
36848W        W 5242  42.483  17.942   0.260
36849W        W 5243  19.770   8.940  10.336
36850W        W 5244  30.118  30.040  14.054
36851W        W 5245  28.184  18.754   4.675
36852W        W 5246   2.420   3.482  11.993
36853W        W 5247  23.320  43.208  11.169
36854W        W 5248   3.200  10.673   4.328
36855W        W 5249  14.451  43.121  14.295
36856W        W 5250  13.126  25.022  13.468
36857W        W 5251   0.257   2.820  11.649
36858W        W 5252   7.408  11.798   2.234
36859W        W 5253  10.787   9.372  11.453
36860W        W 5254  24.942   9.383  14.270
36861W        W 5255  10.122  25.680  12.811
36862W        W 5256  41.871  32.313   3.987
36863W        W 5257   3.763  17.410  10.571
36864W        W 5258   7.420  32.213  13.804
36865W        W 5259  30.930  11.767   4.112
36866W        W 5260  10.858  24.310   3.694
36867W        W 5261  17.163   7.777   4.393
36868W        W 5262   8.760  21.733   4.477
36869W        W 5263   9.552  19.715  14.932
36870W        W 5264  33.929  34.483  14.623
36871W        W 5265  28.549   9.070  13.340
36872W        W 5266  25.836  22.063   4.231
36873W        W 5267   1.773  11.786  14.373
36874W        W 5268   8.278   9.165   3.275
36875W        W 5269   2.998  22.776  13.557
36876W        W 5270  44.255  33.125  13.551
36877W        W 5271   9.457  12.275   1.815
36878W        W 5272   4.532  29.976   1.407
36879W        W 5273   5.941  38.487   2.253
36880W        W 5274  11.345  23.938   2.788
36881W        W 5275   7.805   5.403  10.864
36882W        W 5276  33.987  30.556   3.389
36883W        W 5277  44.986  41.969  14.038
36884W        W 5278  40.526   7.310  13.591
36885W        W 5279   0.876  14.551  12.403
36886W        W 5280  16.675  43.390  11.243
36887W        W 5281  36.940   2.517   1.310
36888W        W 5282  32.726  11.126   2.418
36889W        W 5283   6.211  29.951   1.788
36890W        W 5284   2.213   1.840   2.310
36891W        W 5285  12.374  15.637   3.274
36892W        W 5286   5.423   0.012  14.552
36893W        W 5287   7.649  27.707  12.411
36894W        W 5288  32.198   3.929   2.110
36895W        W 5289  13.520   9.590   0.861
36896W        W 5290   9.781  44.590  14.298
36897W        W 5291   4.417   7.502   2.628
36898W        W 5292  21.987  11.778   0.695
36899W        W 5293  42.840  12.294   2.547
36900W        W 5294   5.535  22.824   3.899
36901W        W 5295  34.977   5.601  10.726
36902W        W 5296  15.473   9.481   1.763
36903W        W 5297  18.812  11.902   0.307
36904W        W 5298  30.199  42.499  14.499
36905W        W 5299  39.898   5.692  10.459
36906W        W 5300  16.241  21.984   0.857
36907W        W 5301  31.424  36.643   2.170
36908W        W 5302  23.255   9.251  14.912
36909W        W 5303  33.389  18.974  12.068
36910W        W 5304  31.145   0.746   1.431
36911W        W 5305  30.000  41.987  12.849
36912W        W 5306  27.541  37.390  11.189
36913W        W 5307  27.730  43.141   5.060
36914W        W 5308  24.064  28.074   1.154
36915W        W 5309  23.293  18.051  12.198
36916W        W 5310  32.582  17.637   4.667
36917W        W 5311  32.978  13.022   4.594
36918W        W 5312  35.254  30.485   0.759
36919W        W 5313  10.622   9.260   0.727
36920W        W 5314  36.034  18.967   4.443
36921W        W 5315  18.172  20.151  14.137
36922W        W 5316  33.976  15.522   0.448
36923W        W 5317  31.743  22.413  11.977
36924W        W 5318  23.122  31.524   3.236
36925W        W 5319  41.744  16.652   3.721
36926W        W 5320  37.463  39.312  13.592
36927W        W 5321   6.159  12.719  10.156
36928W        W 5322  22.217  27.190  13.320
36929W        W 5323  23.881  25.716  14.884
36930W        W 5324  12.247  41.308   1.425
36931W        W 5325  38.349   0.036   1.793
36932W        W 5326  13.642  40.001  12.633
36933W        W 5327  10.141  24.596   4.921
36934W        W 5328  21.360  13.792   2.145
36935W        W 5329  28.671  35.474   2.952
36936W        W 5330   9.611  16.617  13.448
36937W        W 5331  34.903   4.031   4.036
36938W        W 5332   4.610  14.186  11.570
36939W        W 5333  19.626  35.946   4.197
36940W        W 5334  41.362  42.972   1.282
36941W        W 5335  35.473   6.113   0.465
36942W        W 5336   4.401  40.065  13.870
36943W        W 5337  41.873  40.336  11.526
36944W        W 5338  10.632   1.720  11.753
36945W        W 5339   0.927  32.601  12.389
36946W        W 5340  40.341  38.898   3.693
36947W        W 5341   5.266  33.567  12.173
36948W        W 5342  29.507   9.195  12.809
36949W        W 5343  37.714  25.564   4.213
36950W        W 5344  31.162   7.712  14.734
36951W        W 5345  26.728  44.372   0.342
36952W        W 5346  36.982  17.511   0.296
36953W        W 5347  24.575  44.984  13.397
36954W        W 5348  26.155  27.101   3.350
36955W        W 5349  11.261  37.051  13.165
36956W        W 5350  30.913  13.692  13.578
36957W        W 5351  35.547   6.246   2.408
36958W        W 5352  13.692  10.678  12.123
36959W        W 5353  20.776  44.271  11.031
36960W        W 5354  15.798  16.844  11.521
36961W        W 5355  16.340  29.092  11.945
36962W        W 5356  26.858  39.136   2.820
36963W        W 5357  19.806  35.525  11.866
36964W        W 5358  20.115  30.549   3.210
36965W        W 5359  36.072  32.031   3.766
36966W        W 5360  16.486  34.048   0.019
36967W        W 5361   7.324  30.508  12.589
36968W        W 5362  39.961  33.918  10.901
36969W        W 5363   6.257  37.967  10.689
36970W        W 5364  21.678  14.314   3.335
36971W        W 5365   8.397  39.413   4.387
36972W        W 5366   4.430  33.101  12.425
36973W        W 5367   3.951  34.194  13.012
36974W        W 5368  22.013  16.819   4.718
36975W        W 5369   8.852  28.153  12.608
36976W        W 5370  29.615  26.111   1.317
36977W        W 5371  35.876  36.643  12.532
36978W        W 5372  43.115  37.795   2.336
36979W        W 5373  37.001   5.815   0.804
36980W        W 5374  16.058   3.618  12.493
36981W        W 5375  19.828  24.690  11.045
36982W        W 5376  32.635  15.351  14.425
36983W        W 5377  24.483  30.551   1.367
36984W        W 5378  14.146  27.745   0.037
36985W        W 5379  13.359  43.897   0.318
36986W        W 5380  19.210  24.636   3.669
36987W        W 5381  16.354  40.554   4.102
36988W        W 5382   8.800  42.839  10.976
36989W        W 5383  42.564  12.756   1.362
36990W        W 5384  32.949  13.184   2.640
36991W        W 5385   8.569  39.831  11.971
36992W        W 5386  26.654   9.463  11.458
36993W        W 5387  39.458  23.534   0.022
36994W        W 5388  17.482  43.875  10.406
36995W        W 5389  11.795  25.170   5.154
36996W        W 5390  23.842  41.308   4.182
36997W        W 5391  38.260  19.646   2.286
36998W        W 5392  39.238  20.620  12.074
36999W        W 5393  31.162   7.727  12.536
37000W        W 5394   6.622  37.125   1.287
37001W        W 5395  27.670  36.785   1.878
37002W        W 5396  21.966  19.731   4.107
37003W        W 5397  23.518  27.067  14.321
37004W        W 5398   0.692  10.364   5.012
37005W        W 5399  29.849   6.876   2.789
37006W        W 5400  35.164   2.730  12.841
37007W        W 5401  13.618  31.791  13.335
37008W        W 5402  37.371  23.745   1.878
37009W        W 5403  35.467   4.985   2.061
37010W        W 5404  42.617  28.867   4.877
37011W        W 5405  33.371  21.228   0.815
37012W        W 5406   6.425  11.763  10.333
37013W        W 5407  44.988  40.329   2.845
37014W        W 5408  21.073  43.516  14.772
37015W        W 5409  14.861  26.717   0.942
37016W        W 5410  39.275  44.867  14.844
37017W        W 5411  32.784  20.623   2.344
37018W        W 5412  39.461  40.366  12.701
37019W        W 5413  41.039  28.470   3.426
37020W        W 5414   0.815  32.244  13.376
37021W        W 5415   6.375  44.993  14.365
37022W        W 5416  44.350   4.650  10.659
37023W        W 5417  41.076  36.180   1.159
37024W        W 5418  42.919  17.052   3.726
37025W        W 5419  21.680  23.744  14.972
37026W        W 5420  24.584  41.034   0.568
37027W        W 5421  14.239   1.244  13.306
37028W        W 5422  34.596   3.403  11.099
37029W        W 5423   6.418   8.159  14.067
37030W        W 5424  30.328  31.046   1.786
37031W        W 5425  22.090   0.308   3.241
37032W        W 5426   0.102  29.727  10.651
37033W        W 5427   9.741   2.244   2.925
37034W        W 5428  19.351  13.833  14.970
37035W        W 5429  34.153  36.901  10.676
37036W        W 5430  21.042  21.272   3.066
37037W        W 5431  25.670  22.427   0.805
37038W        W 5432   1.277  39.056  11.396
37039W        W 5433  17.540  16.698   4.051
37040W        W 5434   9.127  22.212   1.076
37041W        W 5435  10.941  40.445  11.480
37042W        W 5436  19.822   6.221  13.957
37043W        W 5437  32.650  22.758  13.773
37044W        W 5438  38.816  33.445  13.341
37045W        W 5439  41.297   9.131  13.792
37046W        W 5440  40.606  37.862   3.087
37047W        W 5441  10.769  17.932   4.783
37048W        W 5442  19.093  35.684   2.431
37049W        W 5443   9.289  32.189  11.523
37050W        W 5444  10.561  11.704   4.059
37051W        W 5445  43.333  25.755  12.869
37052W        W 5446  41.540  11.635  14.567
37053W        W 5447  15.575  40.425  12.369
37054W        W 5448   9.195   2.852   4.593
37055W        W 5449   0.745  14.152   1.472
37056W        W 5450   3.950   2.221   1.540
37057W        W 5451   2.692  15.367  10.373
37058W        W 5452  41.020  30.434  13.966
37059W        W 5453  41.814  22.583  14.041
37060W        W 5454  33.868  33.316  12.932
37061W        W 5455   8.146  24.625  14.428
37062W        W 5456  34.634  40.910  14.184
37063W        W 5457  18.935  36.627  13.907
37064W        W 5458  39.625  36.103   4.172
37065W        W 5459  14.091  30.599  14.543
37066W        W 5460  15.813  27.009  10.970
37067W        W 5461  28.763  16.818   3.103
37068W        W 5462  29.132  42.766   0.798
37069W        W 5463  26.743  40.666   4.255
37070W        W 5464  34.973  42.902  12.610
37071W        W 5465  11.164  41.465   4.508
37072W        W 5466  32.499  29.347  13.964
37073W        W 5467   0.330  29.081   0.601
37074W        W 5468  27.643   1.335   0.717
37075W        W 5469  38.306   7.460  12.473
37076W        W 5470  29.580   8.348  11.153
37077W        W 5471  26.096  42.106  11.480
37078W        W 5472  31.012  26.540   4.529
37079W        W 5473  15.281  36.393  13.283
37080W        W 5474  26.683  16.269  11.146
37081W        W 5475  30.397  10.757  14.396
37082W        W 5476  17.726  30.328  13.971
37083W        W 5477  37.420  16.177  13.627
37084W        W 5478  28.571  15.324  11.994
37085W        W 5479   3.280  37.669   5.210
37086W        W 5480  26.021  30.061  14.440
37087W        W 5481  41.032  44.741  11.670
37088W        W 5482  11.223  42.842  14.349
37089W        W 5483  35.962  23.952   1.887
37090W        W 5484  10.336  29.241  13.248
37091W        W 5485   2.890  36.506  10.723
37092W        W 5486   7.341   5.804   4.400
37093W        W 5487  31.757  19.327  13.391
37094W        W 5488  36.807  36.986   4.114
37095W        W 5489  21.349  33.450   2.214
37096W        W 5490  33.463  34.498  14.408
37097W        W 5491  14.709  22.696  14.064
37098W        W 5492  44.471  42.237  10.740
37099W        W 5493  21.086  11.935  11.066
37100W        W 5494  11.311   1.258  13.171
37101W        W 5495  26.413  38.840   2.714
37102W        W 5496  40.067  28.016   4.431
37103W        W 5497  21.090   1.015   0.277
37104W        W 5498  33.635  24.750  14.958
37105W        W 5499   5.660   8.755   0.477
37106W        W 5500  29.066  23.158   2.132
37107W        W 5501   5.733  23.166   4.261
37108W        W 5502  18.997  15.167  14.930
37109W        W 5503   4.184  25.283   4.212
37110W        W 5504  12.783   6.459   4.164
37111W        W 5505  20.227  34.978  12.450
37112W        W 5506  22.198  17.269   2.160
37113W        W 5507  38.079  43.911  13.276
37114W        W 5508  20.387  20.328  14.266
37115W        W 5509  15.787   0.381  11.942
37116W        W 5510   6.467  38.646   4.971
37117W        W 5511  20.719  31.441   3.142
37118W        W 5512  20.684  15.523   0.259
37119W        W 5513   5.370  38.996  13.885
37120W        W 5514  10.643  35.653   2.232
37121W        W 5515  23.604  27.043   4.287
37122W        W 5516  12.889   1.181  10.746
37123W        W 5517   2.728  24.294  13.534
37124W        W 5518   6.572  20.661   4.073
37125W        W 5519  31.127  19.945  11.111
37126W        W 5520  15.110   4.930  12.039
37127W        W 5521  27.643  39.786  14.695
37128W        W 5522  29.857  41.500  13.542
37129W        W 5523  29.682  32.606  10.673
37130W        W 5524  17.287  22.276   1.568
37131W        W 5525  12.378  29.487  13.049
37132W        W 5526  13.902  17.434  14.801
37133W        W 5527  32.657   1.731  13.499
37134W        W 5528  40.995  32.517  11.948
37135W        W 5529  16.727  41.171  10.315
37136W        W 5530  18.469  11.868   0.711
37137W        W 5531   5.984  34.595   4.640
37138W        W 5532  43.447  17.643   0.708
37139W        W 5533  32.186   6.200   2.340
37140W        W 5534  22.470  21.206  13.816
37141W        W 5535  40.474  24.586  12.528
37142W        W 5536  23.681  43.235   0.925
37143W        W 5537   5.486  19.521  13.396
37144W        W 5538  28.166   2.898   3.734
37145W        W 5539  27.494  14.874   3.169
37146W        W 5540  35.904  44.442  13.433
37147W        W 5541  35.001  35.911   1.659
37148W        W 5542  14.076  19.950   2.839
37149W        W 5543  34.642   6.414  13.384
37150W        W 5544  38.414  41.843   4.348
37151W        W 5545  40.449  26.185   4.707
37152W        W 5546  34.795   5.424  11.202
37153W        W 5547  38.348  23.777   2.849
37154W        W 5548  37.750   6.603   1.983
37155W        W 5549  26.206  26.062   0.789
37156W        W 5550  25.615  33.098  13.008
37157W        W 5551  41.722  25.864  10.658
37158W        W 5552   4.222  23.191   3.232
37159W        W 5553  37.866  24.315   3.842
37160W        W 5554  19.094  32.027  13.155
37161W        W 5555  37.862   0.818  13.631
37162W        W 5556  33.882   1.849   1.819
37163W        W 5557  43.753  14.837  11.863
37164W        W 5558  44.430   1.230  14.678
37165W        W 5559   8.285   0.065  11.145
37166W        W 5560  44.770  34.353   3.669
37167W        W 5561  17.066  30.992   2.271
37168W        W 5562   0.849  35.231  11.703
37169W        W 5563  25.422  18.676  11.598
37170W        W 5564   4.184  12.908  11.674
37171W        W 5565  37.028  40.541  11.209
37172W        W 5566  41.017  17.042  14.005
37173W        W 5567  40.056  22.946   3.644
37174W        W 5568  40.146  22.175   3.206
37175W        W 5569  27.014  11.291  12.953
37176W        W 5570   1.364  39.016   0.733
37177W        W 5571  10.218  13.351   4.668
37178W        W 5572  25.875  41.776  11.855
37179W        W 5573  30.886  15.268  14.393
37180W        W 5574  16.301  28.062  13.845
37181W        W 5575  22.793  16.430  11.222
37182W        W 5576  24.721  28.778   4.793
37183W        W 5577  27.962   9.906  10.718
37184W        W 5578  40.524  28.591   1.731
37185W        W 5579  18.914   0.495   3.230
37186W        W 5580  14.301  12.395   3.253
37187W        W 5581   3.911  25.397   3.465
37188W        W 5582  13.808  10.230   3.604
37189W        W 5583   3.216  10.328  12.107
37190W        W 5584  41.064  12.875  13.067
37191W        W 5585  14.796  18.515   4.729
37192W        W 5586   8.181  20.190  11.334
37193W        W 5587  16.566   6.598  13.433
37194W        W 5588   6.240   4.884  10.815
37195W        W 5589  43.205  42.975   0.861
37196W        W 5590   5.778  17.292  13.543
37197W        W 5591  10.435   3.177   3.499
37198W        W 5592  17.878  43.107  12.270
37199W        W 5593  27.277  31.644   1.873
37200W        W 5594   4.528  31.371  13.085
37201W        W 5595  18.569  17.961   2.773
37202W        W 5596  39.984  34.628  12.867
37203W        W 5597  29.670   9.467   2.200
37204W        W 5598  12.604  13.240  13.881
37205W        W 5599  33.866   4.311   3.306
37206W        W 5600  43.940  10.678   2.123
37207W        W 5601  13.660  37.846   0.194
37208W        W 5602  14.729  30.772   1.262
37209W        W 5603  10.824  27.475  14.928
37210W        W 5604   0.708   5.988   1.854
37211W        W 5605  22.465  11.376   2.281
37212W        W 5606  32.381  19.513  14.693
37213W        W 5607  12.870  35.868  13.068
37214W        W 5608   4.059  40.029  12.562
37215W        W 5609   8.888  13.462  12.899
37216W        W 5610  12.058  19.171  12.953
37217W        W 5611  26.992  28.199   3.840
37218W        W 5612  11.560  10.144  13.213
37219W        W 5613  41.850  37.891   3.974
37220W        W 5614  16.770   3.178  14.880
37221W        W 5615  38.580   0.059   2.600
37222W        W 5616  35.095  37.109   1.829
37223W        W 5617  32.195  38.040  12.617
37224W        W 5618  41.826  42.732  13.007
37225W        W 5619  34.593  37.420  11.981
37226W        W 5620   8.309   0.949  14.832
37227W        W 5621  13.195  25.239   4.423
37228W        W 5622  15.109  37.302  10.214
37229W        W 5623  27.321   7.446   2.129
37230W        W 5624  40.685  26.597   3.277
37231W        W 5625   0.801  10.437   2.315
37232W        W 5626  39.801  40.066  11.087
37233W        W 5627  26.961  25.998  13.700
37234W        W 5628  35.807  10.094   4.622
37235W        W 5629  26.741   8.301  12.024
37236W        W 5630  20.179  34.580   4.525
37237W        W 5631  17.880  18.010   4.808
37238W        W 5632  23.751  41.344  12.482
37239W        W 5633  38.361   2.911   4.340
37240W        W 5634   2.188  13.852  14.901
37241W        W 5635  14.874   8.451  11.348
37242W        W 5636  34.408  12.752  14.570
37243W        W 5637  37.352  24.660   4.548
37244W        W 5638  24.662   2.345   4.329
37245W        W 5639  42.430  43.707   3.108
37246W        W 5640  12.780  32.176   4.938
37247W        W 5641  35.977   9.085   1.942
37248W        W 5642  15.627   5.708   0.813
37249W        W 5643  33.971  26.925   0.794
37250W        W 5644   1.434   1.825   1.861
37251W        W 5645  28.553  33.646  13.222
37252W        W 5646  44.290  35.975   4.149
37253W        W 5647   2.770  33.723   3.325
37254W        W 5648  43.247   1.057  12.872
37255W        W 5649  38.565   6.894   0.043
37256W        W 5650  25.125  42.873  12.105
37257W        W 5651  21.208  20.323  11.061
37258W        W 5652  39.093  18.658  11.059
37259W        W 5653  22.021  15.313   0.023
37260W        W 5654  21.591  24.405   3.839
37261W        W 5655  42.767  38.266  10.685
37262W        W 5656  19.262   6.461   4.186
37263W        W 5657  43.434  18.760   2.446
37264W        W 5658   2.804   4.984  12.028
37265W        W 5659   9.671  18.228   1.232
37266W        W 5660  27.968   5.464  12.502
37267W        W 5661  23.199  38.788  13.172
37268W        W 5662   2.355  14.747  11.855
37269W        W 5663   2.805  17.222  14.263
37270W        W 5664  15.364  39.446   1.586
37271W        W 5665   2.033  34.264   3.586
37272W        W 5666  25.535  33.178  10.889
37273W        W 5667   0.641  27.230   2.652
37274W        W 5668  13.877  22.057  12.699
37275W        W 5669   8.763  41.492  10.643
37276W        W 5670  18.247  17.536   2.687
37277W        W 5671  33.853  27.423  12.966
37278W        W 5672   7.938  10.324   4.658
37279W        W 5673  16.720  34.438   4.379
37280W        W 5674  39.154  16.194   3.136
37281W        W 5675  19.625  44.781   1.286
37282W        W 5676  39.608  32.009   4.886
37283W        W 5677   5.898  26.497  12.809
37284W        W 5678  30.006  35.914  14.794
37285W        W 5679  16.563  41.647  10.487
37286W        W 5680  19.756  13.879  14.054
37287W        W 5681  44.730  35.083  13.181
37288W        W 5682  16.776  28.105   2.320
37289W        W 5683  37.563   1.344  14.319
37290W        W 5684   3.970  29.676  12.556
37291W        W 5685  39.246  40.012   2.263
37292W        W 5686  37.401  30.442   4.893
37293W        W 5687   3.431  34.028   2.649
37294W        W 5688  34.375  36.020   4.129
37295W        W 5689   5.200  44.716  13.766
37296W        W 5690  32.892  21.138  11.820
37297W        W 5691   3.036  15.105  14.682
37298W        W 5692  34.078   2.317   1.994
37299W        W 5693  20.042  38.311   1.870
37300W        W 5694   6.938   9.010   1.670
37301W        W 5695   5.200  26.415  12.464
37302W        W 5696  32.161  15.697   3.235
37303W        W 5697   3.911  27.407  14.817
37304W        W 5698  17.627  19.164   9.902
37305W        W 5699  14.186  40.321   0.415
37306W        W 5700  22.646  33.299   4.108
37307W        W 5701  38.860  30.610  14.867
37308W        W 5702  33.011  33.603  13.628
37309W        W 5703  11.372  36.518   1.686
37310W        W 5704  16.872  24.188  14.893
37311W        W 5705  24.411  14.740  11.570
37312W        W 5706  26.446  22.470   3.249
37313W        W 5707  29.577  38.045   0.469
37314W        W 5708   2.559  14.590  13.903
37315W        W 5709  29.837  30.500  12.587
37316W        W 5710  40.702   3.909   2.444
37317W        W 5711  21.207  18.843  13.422
37318W        W 5712  13.402  16.880  11.592
37319W        W 5713  27.520  27.885   0.955
37320W        W 5714  32.103  44.762   1.156
37321W        W 5715  38.363  44.532   2.565
37322W        W 5716   4.652  27.713   2.174
37323W        W 5717   5.758  18.107  14.365
37324W        W 5718  38.468  22.312   0.516
37325W        W 5719  43.311  26.944   3.291
37326W        W 5720  22.986  33.896  11.624
37327W        W 5721  36.043  12.541   3.663
37328W        W 5722   6.647  32.400   0.206
37329W        W 5723  27.996  10.718   3.912
37330W        W 5724  16.715  35.844  14.733
37331W        W 5725  14.608  28.504  12.480
37332W        W 5726  11.350  42.023  12.446
37333W        W 5727  16.085  44.854   1.781
37334W        W 5728  20.000  37.327   0.906
37335W        W 5729  19.595   0.400  14.892
37336W        W 5730  18.877  16.177   4.200
37337W        W 5731  12.142  12.521   4.198
37338W        W 5732  28.412  36.273   1.294
37339W        W 5733  35.023  10.466   4.637
37340W        W 5734  19.552  17.763   3.183
37341W        W 5735  12.674  38.310  12.223
37342W        W 5736   4.588  21.446   4.452
37343W        W 5737   9.106   5.817  13.340
37344W        W 5738  43.535   8.324   3.766
37345W        W 5739  21.121  35.375  12.932
37346W        W 5740  22.337   8.412   4.386
37347W        W 5741   4.685  23.258  12.881
37348W        W 5742  11.228  15.509   1.218
37349W        W 5743   9.196   1.639  12.434
37350W        W 5744   5.407  44.827   4.689
37351W        W 5745  32.721   4.793  10.810
37352W        W 5746  23.320  28.060  13.567
37353W        W 5747  42.739  21.576   3.457
37354W        W 5748  25.257   9.837   1.692
37355W        W 5749   5.307  17.262  13.321
37356W        W 5750  31.447  10.261   1.214
37357W        W 5751   2.205  33.057   4.664
37358W        W 5752  22.714  13.207  13.032
37359W        W 5753  17.312  44.971  12.202
37360W        W 5754   6.725  26.521  13.270
37361W        W 5755  21.269  41.457   3.324
37362W        W 5756  27.387   8.736   4.114
37363W        W 5757   5.489   8.245  14.800
37364W        W 5758  21.750   2.349   2.383
37365W        W 5759  43.037  17.612  13.501
37366W        W 5760  21.501  16.132   2.621
37367W        W 5761  33.831   8.240  12.402
37368W        W 5762  27.922   8.375  13.720
37369W        W 5763  35.863   2.625   2.342
37370W        W 5764  44.428  35.691  11.421
37371W        W 5765  16.732  12.631  12.647
37372W        W 5766  36.545  13.849   3.682
37373W        W 5767  40.191  29.660   0.826
37374W        W 5768   8.760  37.824   4.119
37375W        W 5769  23.522   7.264  10.618
37376W        W 5770  36.995   4.847  10.603
37377W        W 5771  44.623  29.619  11.888
37378W        W 5772   5.954  22.687   4.153
37379W        W 5773  19.999  30.022  12.622
37380W        W 5774   4.777  32.096  13.092
37381W        W 5775   0.434  30.205  11.080
37382W        W 5776  16.317  44.233   5.011
37383W        W 5777   6.236  12.948   0.034
37384W        W 5778  17.996  36.038  14.694
37385W        W 5779  36.825   4.323  14.511
37386W        W 5780  16.858  28.626  14.920
37387W        W 5781  20.031  41.894  11.095
37388W        W 5782  21.689  42.171   2.174
37389W        W 5783  41.762  11.625   3.798
37390W        W 5784  27.976  44.418   1.147
37391W        W 5785  34.455  15.332   3.856
37392W        W 5786  18.528  29.733   4.181
37393W        W 5787  24.548  33.634  11.116
37394W        W 5788  18.587  26.441  14.603
37395W        W 5789  11.578  29.474   1.350
37396W        W 5790  18.114  11.925  13.410
37397W        W 5791   9.027  39.035   1.000
37398W        W 5792  20.717  34.021  11.116
37399W        W 5793  36.549  24.093  12.114
37400W        W 5794  31.530  36.550   4.724
37401W        W 5795   1.211   7.759  12.898
37402W        W 5796  25.394  28.567   2.712
37403W        W 5797  38.428  35.784  13.504
37404W        W 5798  22.525   1.304   2.246
37405W        W 5799   6.965  29.086   1.315
37406W        W 5800  20.532  42.052  11.483
37407W        W 5801  19.356  26.805  13.830
37408W        W 5802  18.062  11.143   3.311
37409W        W 5803   8.931  41.517   4.680
37410W        W 5804  31.181  37.702  13.714
37411W        W 5805   5.195  44.307   2.629
37412W        W 5806  19.567  22.566   5.003
37413W        W 5807  11.675  35.593  10.676
37414W        W 5808  29.957  16.366   1.771
37415W        W 5809  17.063  27.649   4.219
37416W        W 5810  35.399  20.487   2.925
37417W        W 5811  24.311  31.119   4.112
37418W        W 5812  38.272  21.085   0.705
37419W        W 5813  44.338  41.662   5.253
37420W        W 5814  24.673  25.593   1.741
37421W        W 5815  22.661   7.632  13.137
37422W        W 5816  14.696  41.468  12.862
37423W        W 5817  42.703  44.571  14.287
37424W        W 5818  15.193  34.348   1.137
37425W        W 5819  28.149  10.882   4.368
37426W        W 5820  24.508  29.697   3.704
37427W        W 5821  33.586   7.285   1.549
37428W        W 5822   6.526  37.078   3.676
37429W        W 5823  33.118   3.398  14.525
37430W        W 5824  14.712  36.072   4.520
37431W        W 5825  30.408  20.937  12.472
37432W        W 5826   1.263  32.588  14.101
37433W        W 5827  29.450  38.802   4.235
37434W        W 5828   3.448  20.851  14.528
37435W        W 5829  30.849  24.261  14.003
37436W        W 5830   3.834  17.613   4.108
37437W        W 5831  24.348  42.284  13.925
37438W        W 5832  15.464  40.894  14.443
37439W        W 5833  11.926   2.012   3.327
37440W        W 5834  15.331   0.377   0.952
37441W        W 5835  19.951  38.393  14.170
37442W        W 5836  40.754  32.786   3.105
37443W        W 5837  18.366   8.959  11.000
37444W        W 5838  35.657  17.533   0.489
37445W        W 5839  15.804   4.207  14.218
37446W        W 5840  25.657   7.401   0.893
37447W        W 5841  10.684  39.216   2.248
37448W        W 5842   8.505  44.177  12.584
37449W        W 5843  17.003  25.700   2.905
37450W        W 5844  11.654  19.549  11.688
37451W        W 5845   0.952  34.080   4.641
37452W        W 5846  23.619   6.336   4.218
37453W        W 5847  21.192  25.045  12.442
37454W        W 5848  21.350  25.934  12.388
37455W        W 5849   1.205  41.332  12.001
37456W        W 5850  20.200  18.797   1.839
37457W        W 5851  41.584  34.887   2.073
37458W        W 5852   2.195  34.983  12.988
37459W        W 5853  40.868  28.627  13.307
37460W        W 5854  44.920  33.148   0.415
37461W        W 5855  40.547  39.061  13.468
37462W        W 5856  34.809  26.010  13.522
37463W        W 5857   2.285  13.433  13.454
37464W        W 5858  34.058  11.126   3.805
37465W        W 5859  17.831  44.186  13.880
37466W        W 5860  42.970  16.685   2.167
37467W        W 5861  24.659  44.475   3.628
37468W        W 5862  17.120  15.477  10.230
37469W        W 5863  14.317  37.758  14.285
37470W        W 5864   1.423  35.388  11.175
37471W        W 5865   7.825  13.721   3.798
37472W        W 5866  26.018  10.813  12.356
37473W        W 5867  19.759  11.214  11.108
37474W        W 5868  12.885  17.156  14.505
37475W        W 5869  34.827  14.984   0.984
37476W        W 5870  18.000  17.093   2.757
37477W        W 5871  42.252   3.416   4.749
37478W        W 5872  18.376  10.887  11.223
37479W        W 5873  25.228   5.145  14.077
37480W        W 5874  23.938  30.205   4.268
37481W        W 5875  34.163  33.995   1.527
37482W        W 5876  41.817  15.345   0.961
37483W        W 5877  22.907   3.384  13.710
37484W        W 5878  39.805  34.861   4.278
37485W        W 5879   9.691  39.552  13.394
37486W        W 5880  39.821  17.618   3.091
37487W        W 5881  12.764   4.043   2.796
37488W        W 5882  21.668   4.331   0.942
37489W        W 5883  39.317   8.271  13.802
37490W        W 5884  30.150  33.654   4.101
37491W        W 5885   0.525  25.492  13.394
37492W        W 5886   6.504   7.468  10.517
37493W        W 5887  33.684  35.320  12.887
37494W        W 5888  42.016   1.107  13.035
37495W        W 5889  18.221  41.861   4.554
37496W        W 5890   0.853  19.088  10.781
37497W        W 5891  27.402  24.350  12.946
37498W        W 5892  27.749  15.209  13.520
37499W        W 5893  39.903  10.377  12.918
37500W        W 5894   3.716   5.849  11.889
37501W        W 5895   4.917  29.665   2.298
37502W        W 5896  37.948  12.576   4.637
37503W        W 5897  39.513  43.262   1.906
37504W        W 5898   8.666  37.009   3.236
37505W        W 5899  22.453   7.179  14.028
37506W        W 5900  31.730   3.238  14.761
37507W        W 5901  44.511   6.959  10.855
37508W        W 5902   7.144  41.918  14.463
37509W        W 5903   4.330   2.766  12.487
37510W        W 5904  12.907  26.187   0.228
37511W        W 5905  38.698  35.884   2.065
37512W        W 5906  40.783  12.891   3.711
37513W        W 5907   4.192   0.322  12.862
37514W        W 5908  20.964  26.348  14.493
37515W        W 5909  43.574  37.788   2.635
37516W        W 5910  34.647  15.740   3.066
37517W        W 5911   5.771  22.624  12.685
37518W        W 5912  13.743  18.988   1.321
37519W        W 5913  22.322  42.891   1.880
37520W        W 5914  43.519  25.305   4.539
37521W        W 5915   8.909   6.286  12.047
37522W        W 5916  42.862  30.906   1.234
37523W        W 5917  14.358  11.219  13.556
37524W        W 5918   9.120  35.925   4.103
37525W        W 5919  13.200  30.335  10.220
37526W        W 5920  17.103  39.102   4.264
37527W        W 5921   6.818  32.859  13.075
37528W        W 5922  18.332  14.265   2.807
37529W        W 5923  21.753  44.525   1.183
37530W        W 5924  10.899  12.141   1.180
37531W        W 5925   9.641  17.664   1.952
37532W        W 5926  12.707  33.354   0.204
37533W        W 5927  36.581  40.352  14.922
37534W        W 5928  20.123  43.493   1.774
37535W        W 5929  24.291  21.589  10.763
37536W        W 5930  41.931  39.265   3.304
37537W        W 5931  11.350  12.172  12.101
37538W        W 5932  40.906   2.009   0.904
37539W        W 5933  25.643   7.336  13.345
37540W        W 5934  44.299  35.894   5.092
37541W        W 5935  20.779   9.609  13.895
37542W        W 5936  31.594  12.314   1.354
37543W        W 5937  24.328  14.464  13.919
37544W        W 5938   6.882  41.473   4.698
37545W        W 5939  20.759  26.559   4.397
37546W        W 5940  23.046  32.383   1.517
37547W        W 5941  28.905  29.154   2.180
37548W        W 5942   3.937  35.126  11.330
37549W        W 5943  12.181   0.999  14.245
37550W        W 5944  22.581  29.693  11.422
37551W        W 5945  30.824  42.432   0.948
37552W        W 5946  31.238   8.743   4.529
37553W        W 5947  33.375   1.039  10.634
37554W        W 5948  41.329   4.430  10.508
37555W        W 5949   0.798  37.816   1.788
37556W        W 5950  27.552  18.787  14.310
37557W        W 5951   6.893  29.008  14.478
37558W        W 5952   3.434  14.850  12.195
37559W        W 5953  37.877  10.924   3.072
37560W        W 5954   3.941  11.892   4.246
37561W        W 5955  39.394  14.814   2.827
37562W        W 5956   7.364  31.159  10.749
37563W        W 5957  30.601   8.175  10.732
37564W        W 5958  22.011   3.251  14.513
37565W        W 5959  41.278  38.366   0.887
37566W        W 5960  34.140   7.346  14.340
37567W        W 5961   2.934   2.756   1.647
37568W        W 5962   7.765  37.274   0.277
37569W        W 5963  39.953   1.979   4.012
37570W        W 5964  22.188  13.172  13.213
37571W        W 5965  10.296   7.231  12.144
37572W        W 5966   8.628   6.712  10.966
37573W        W 5967   6.148   2.520  11.591
37574W        W 5968  13.292   3.420   0.881
37575W        W 5969  41.031  30.494   3.208
37576W        W 5970   0.983  37.333   0.209
37577W        W 5971  38.874   2.740   0.791
37578W        W 5972  27.535  13.111   0.500
37579W        W 5973  14.581  11.852  14.248
37580W        W 5974  25.461   1.274  14.570
37581W        W 5975   5.934  18.067   4.685
37582W        W 5976  41.422  26.429  13.012
37583W        W 5977  16.371  12.992  10.768
37584W        W 5978  41.919  21.081  14.829
37585W        W 5979  17.318  21.193   2.279
37586W        W 5980  24.887  31.713   3.380
37587W        W 5981  32.051  44.573  12.520
37588W        W 5982   8.429   2.018   4.117
37589W        W 5983   3.857  12.664  12.907
37590W        W 5984  28.686  35.500   4.665
37591W        W 5985   1.785  34.581  12.109
37592W        W 5986   8.704   0.354   3.171
37593W        W 5987  33.491   1.212   4.520
37594W        W 5988   9.283  33.411   1.941
37595W        W 5989  42.834  24.734   0.224
37596W        W 5990  40.634  25.503  10.379
37597W        W 5991  41.850   6.375  14.384
37598W        W 5992   0.686  31.370   4.376
37599W        W 5993  26.800  15.742  12.748
37600W        W 5994  25.658  39.266   1.824
37601W        W 5995  21.275  21.951   2.388
37602W        W 5996   6.862   1.236   1.770
37603W        W 5997   4.637  30.272   4.276
37604W        W 5998  40.533  26.698   4.777
37605W        W 5999   5.773   7.706   3.200
37606W        W 6000   9.397  18.311  11.590
37607W        W 6001  43.962   3.497  10.876
37608W        W 6002  21.817   3.083   4.277
37609W        W 6003  25.877   6.675  14.385
37610W        W 6004  42.755  35.704   3.700
37611W        W 6005   7.690  38.080  11.378
37612W        W 6006  29.377  22.461   0.041
37613W        W 6007  42.598  38.390  14.034
37614W        W 6008  35.406  32.238  11.066
37615W        W 6009  29.216   0.452  13.045
37616W        W 6010  18.212  16.339   1.330
37617W        W 6011  27.367  15.749   2.898
37618W        W 6012  14.405   8.365  14.834
37619W        W 6013  24.250  40.952  11.802
37620W        W 6014  22.998  16.891   4.566
37621W        W 6015   3.914  31.563   0.266
37622W        W 6016  39.982  23.093   1.766
37623W        W 6017  44.239  10.568   4.217
37624W        W 6018  10.701  13.755   0.561
37625W        W 6019  33.710   8.296   1.645
37626W        W 6020  43.891   1.255   0.302
37627W        W 6021  23.158  41.578   4.182
37628W        W 6022  13.174  41.746  11.448
37629W        W 6023  36.605  13.596   3.208
37630W        W 6024   4.332  18.289   2.156
37631W        W 6025   2.900  26.977  10.316
37632W        W 6026   6.705   8.911  14.922
37633W        W 6027  12.040  14.654  13.962
37634W        W 6028   4.485  41.992   1.899
37635W        W 6029  11.136   6.826   3.075
37636W        W 6030   5.856  30.846   4.651
37637W        W 6031  38.782  22.554   0.955
37638W        W 6032  33.961  37.591   2.253
37639W        W 6033  30.416   8.782  12.953
37640W        W 6034  38.456  42.755   0.634
37641W        W 6035  42.817  41.217   4.046
37642W        W 6036  12.025   7.159   5.115
37643W        W 6037  12.582  25.519   3.319
37644W        W 6038  27.650  19.696   3.735
37645W        W 6039  21.157  40.821   4.175
37646W        W 6040   5.199  15.747  14.424
37647W        W 6041  41.278  23.265   3.314
37648W        W 6042  11.335  43.210   3.393
37649W        W 6043  11.424  30.548   2.107
37650W        W 6044  33.455   6.872  14.405
37651W        W 6045   6.702  12.237  13.391
37652W        W 6046   8.255   0.912   0.892
37653W        W 6047  13.867  32.578   3.351
37654W        W 6048   9.257   8.362   0.323
37655W        W 6049   5.590  19.244   3.336
37656W        W 6050   5.716  25.794  11.367
37657W        W 6051   5.948  39.245  13.350
37658W        W 6052  13.281   3.681   3.201
37659W        W 6053  21.573  40.127  11.336
37660W        W 6054  32.340  37.552   2.857
37661W        W 6055  19.557  16.495   0.504
37662W        W 6056  14.136  38.011  11.986
37663W        W 6057  38.657   3.872  13.819
37664W        W 6058  16.520  35.327  12.541
37665W        W 6059  21.842  24.167   2.425
37666W        W 6060  31.276   7.882   2.945
37667W        W 6061  14.213  41.059   2.834
37668W        W 6062  19.762  31.495  12.888
37669W        W 6063  22.621  12.191  10.722
37670W        W 6064  21.286  29.267  13.527
37671W        W 6065  25.513  13.778  10.490
37672W        W 6066  27.018  32.937  11.898
37673W        W 6067   6.745  17.368  12.117
37674W        W 6068  16.282   9.869   3.776
37675W        W 6069  13.268  33.326  11.241
37676W        W 6070  38.021   6.666  11.252
37677W        W 6071   7.951  25.443  12.586
37678W        W 6072   9.798   3.311   3.867
37679W        W 6073  19.241  20.942   4.988
37680W        W 6074  42.266  38.964   1.370
37681W        W 6075  30.868   9.185   2.510
37682W        W 6076  15.735  40.397  13.679
37683W        W 6077  36.999  32.931   4.851
37684W        W 6078   5.395  15.127  14.961
37685W        W 6079  39.590   0.317  14.790
37686W        W 6080  40.145  19.957  14.800
37687W        W 6081  23.047  22.427   0.646
37688W        W 6082  12.690  42.026  13.535
37689W        W 6083  43.296  20.297   3.164
37690W        W 6084  44.047  18.062   2.664
37691W        W 6085  27.062  13.912   0.465
37692W        W 6086  44.869  31.577  11.007
37693W        W 6087  42.324   3.753   4.223
37694W        W 6088  18.153  23.649   2.881
37695W        W 6089  30.892   7.759   3.319
37696W        W 6090  25.781   5.317  14.480
37697W        W 6091  15.998  18.228  14.950
37698W        W 6092   0.540  14.730   4.983
37699W        W 6093  27.846   7.440   1.944
37700W        W 6094  32.151  16.858  11.540
37701W        W 6095  30.230  27.463   3.682
37702W        W 6096  14.788   3.696   4.067
37703W        W 6097  27.013  27.305   2.357
37704W        W 6098  40.045  13.145   0.933
37705W        W 6099  16.896  34.844   4.098
37706W        W 6100   6.102  28.628  12.125
37707W        W 6101  13.230  17.021   3.185
37708W        W 6102   8.704  26.648  12.193
37709W        W 6103   7.906  44.554  12.194
37710W        W 6104  43.319  41.018  13.731
37711W        W 6105  18.698   8.605  10.772
37712W        W 6106  10.070  41.587  11.165
37713W        W 6107  34.789  41.623   5.031
37714W        W 6108  11.697  44.863  13.837
37715W        W 6109  25.966  44.901   3.401
37716W        W 6110   0.525  20.071  12.097
37717W        W 6111  44.832  11.614  13.512
37718W        W 6112  24.513  33.852   1.383
37719W        W 6113  43.001  38.410   3.274
37720W        W 6114  38.462  22.533   1.386
37721W        W 6115  40.450  40.356  11.876
37722W        W 6116  24.608   9.899  10.254
37723W        W 6117   4.689   1.356  11.999
37724W        W 6118   4.884   6.380  12.004
37725W        W 6119   8.694  42.340   1.174
37726W        W 6120  13.094  12.406  14.841
37727W        W 6121  18.632  16.091   1.482
37728W        W 6122  42.777  15.159   4.325
37729W        W 6123  12.705  10.723   1.950
37730W        W 6124  26.066  39.786   4.107
37731W        W 6125  33.004  44.460   2.793
37732W        W 6126  36.115  11.237  13.245
37733W        W 6127  41.232  11.174   0.262
37734W        W 6128  33.527   2.961   4.113
37735W        W 6129  27.593  25.398   1.147
37736W        W 6130   7.318  39.481   2.396
37737W        W 6131  14.372  16.741  13.428
37738W        W 6132  29.367   9.672  14.827
37739W        W 6133  44.467  43.443   1.274
37740W        W 6134  34.360  26.950  14.497
37741W        W 6135  18.799  36.466   4.221
37742W        W 6136  13.170  26.963   2.758
37743W        W 6137  36.613  25.623   1.421
37744W        W 6138  17.014  28.553   2.392
37745W        W 6139  19.738  41.209   3.314
37746W        W 6140  42.679  15.806  10.708
37747W        W 6141  44.363  11.669   3.230
37748W        W 6142  34.587  28.686   0.639
37749W        W 6143  20.596  40.126  13.291
37750W        W 6144  10.266  26.744  11.750
37751W        W 6145  39.951   1.414   2.679
37752W        W 6146  30.951  19.759  12.870
37753W        W 6147  32.615  18.006  13.372
37754W        W 6148   2.242  26.093  13.304
37755W        W 6149  17.330  39.256  11.819
37756W        W 6150  20.283  28.780  11.618
37757W        W 6151   5.041  25.621  10.811
37758W        W 6152  17.524  33.549  11.161
37759W        W 6153  30.101  18.024  11.449
37760W        W 6154  10.645   5.399   4.400
37761W        W 6155  43.789  39.303  14.012
37762W        W 6156   2.505  40.966  10.535
37763W        W 6157  44.768  40.987  11.142
37764W        W 6158   0.931  25.462   2.796
37765W        W 6159  11.529  38.538  12.704
37766W        W 6160  24.963  22.163   0.051
37767W        W 6161   9.556  41.100  14.916
37768W        W 6162  16.689  20.735  12.841
37769W        W 6163   9.789   2.748  10.462
37770W        W 6164  33.061  23.557   0.208
37771W        W 6165   6.401  33.892   4.186
37772W        W 6166  26.552   9.897   2.441
37773W        W 6167  40.910  34.441   2.312
37774W        W 6168  30.632  26.629  12.643
37775W        W 6169  44.506  20.761   0.790
37776W        W 6170  28.619  26.314   1.385
37777W        W 6171   6.714  15.241  14.411
37778W        W 6172  41.357  42.594   2.264
37779W        W 6173  29.222  26.147  10.708
37780W        W 6174  11.064  15.305   3.318
37781W        W 6175  40.904   3.737  12.458
37782W        W 6176  26.505   0.858   0.097
37783W        W 6177   4.887  12.201   1.213
37784W        W 6178  17.757   9.225  13.062
37785W        W 6179  11.214  17.132   3.425
37786W        W 6180  40.314  32.327  14.026
37787W        W 6181  36.045  22.053   3.314
37788W        W 6182  33.023  40.486  12.117
37789W        W 6183  11.387  38.948   0.928
37790W        W 6184  25.717   9.206   1.142
37791W        W 6185  15.079   1.945   2.338
37792W        W 6186  18.035  42.727   1.441
37793W        W 6187  16.269   4.230  14.503
37794W        W 6188  27.605   6.934  12.345
37795W        W 6189  17.002   6.613  12.891
37796W        W 6190   0.804  43.065  13.395
37797W        W 6191  43.482  18.223   4.340
37798W        W 6192  33.963  25.753  12.517
37799W        W 6193  20.084  44.270  11.684
37800W        W 6194  10.917  16.745  13.557
37801W        W 6195  30.921   2.965  10.946
37802W        W 6196  10.405   6.242  14.306
37803W        W 6197  38.598  38.988  12.539
37804W        W 6198  22.029   6.346  12.466
37805W        W 6199  14.282  41.499  14.530
37806W        W 6200  15.680  11.318   1.029
37807W        W 6201  33.081  32.532   3.767
37808W        W 6202  44.854  21.601   1.120
37809W        W 6203  41.812   8.609  10.295
37810W        W 6204  17.515  31.914   4.026
37811W        W 6205  16.266  13.703  12.960
37812W        W 6206  21.260   2.211   2.312
37813W        W 6207  19.099   7.287   3.166
37814W        W 6208  10.243  37.091   3.169
37815W        W 6209  32.030   3.487  14.421
37816W        W 6210  37.693  33.912   1.732
37817W        W 6211   8.244  30.970   3.480
37818W        W 6212  26.027   0.174   0.796
37819W        W 6213  33.800  39.944   5.107
37820W        W 6214  19.307  31.550  14.830
37821W        W 6215  34.016  19.259   2.405
37822W        W 6216  14.686  28.998  12.994
37823W        W 6217  19.100  16.799  12.629
37824W        W 6218  39.838  14.880  12.755
37825W        W 6219  14.949   8.218   4.904
37826W        W 6220   4.226  37.608   1.305
37827W        W 6221  26.551  27.942   3.758
37828W        W 6222  12.073  31.481   0.714
37829W        W 6223  30.002  37.086  12.076
37830W        W 6224  31.436  43.285  11.066
37831W        W 6225  17.152  20.038   1.961
37832W        W 6226  17.090  29.659   3.888
37833W        W 6227  12.530  36.280  12.997
37834W        W 6228  19.314  10.652   3.086
37835W        W 6229  16.596  18.746   0.910
37836W        W 6230  15.230  38.053   4.627
37837W        W 6231  26.670  33.902  14.956
37838W        W 6232   3.039   2.878   4.905
37839W        W 6233  41.339  13.292   4.030
37840W        W 6234  44.284  11.564   2.482
37841W        W 6235   5.418  43.830  12.528
37842W        W 6236  24.294   1.276   1.654
37843W        W 6237  16.734  30.220  12.527
37844W        W 6238  30.442   7.382  14.534
37845W        W 6239   8.441  12.088   0.992
37846W        W 6240  41.057  28.589   1.629
37847W        W 6241  29.597  42.018   2.308
37848W        W 6242  18.510  24.694  12.968
37849W        W 6243  18.821  25.352  11.672
37850W        W 6244  43.434   0.969  12.000
37851W        W 6245   7.327   3.321   0.971
37852W        W 6246  26.117  44.035  14.733
37853W        W 6247   8.838   7.024  14.440
37854W        W 6248  44.643  10.326   4.011
37855W        W 6249  18.111   2.687  14.221
37856W        W 6250  23.644  19.281  11.503
37857W        W 6251   5.439  19.698  12.416
37858W        W 6252  14.712   5.758  11.941
37859W        W 6253  17.585   9.916   4.389
37860W        W 6254   8.702  36.829   1.213
37861W        W 6255  20.975  37.543   4.068
37862W        W 6256  26.119  10.023  10.327
37863W        W 6257  28.608  22.864  12.833
37864W        W 6258  21.655  24.166   0.811
37865W        W 6259  42.723   8.413   1.915
37866W        W 6260  17.985  11.253  14.914
37867W        W 6261   2.649  36.995  10.724
37868W        W 6262   1.861  37.658   0.725
37869W        W 6263  37.583   9.733  12.374
37870W        W 6264  10.550  44.055  13.003
37871W        W 6265  17.032  33.391   1.160
37872W        W 6266  40.646  14.203   3.076
37873W        W 6267  21.156   9.466  12.743
37874W        W 6268  28.521  32.117  10.792
37875W        W 6269   6.291  14.794   4.581
37876W        W 6270  14.366  42.858  12.750
37877W        W 6271  30.647  15.517  13.481
37878W        W 6272   2.913  13.820  14.012
37879W        W 6273   8.753  44.996   2.318
37880W        W 6274   9.416   3.681   2.361
37881W        W 6275  41.824  26.667  10.787
37882W        W 6276  44.417  37.907   0.659
37883W        W 6277  34.538  40.987   1.025
37884W        W 6278  32.422  30.184   2.768
37885W        W 6279  34.661  18.063   4.825
37886W        W 6280  24.574  29.282   3.075
37887W        W 6281  27.867  20.082  11.457
37888W        W 6282  37.525  25.171   2.810
37889W        W 6283  22.603  18.116  12.954
37890W        W 6284  27.062   3.889  12.331
37891W        W 6285  32.997  33.094   0.495
37892W        W 6286  38.897  32.584  13.975
37893W        W 6287  30.427   1.557   0.437
37894W        W 6288  14.905  42.968   0.163
37895W        W 6289  20.433  31.489   4.128
37896W        W 6290  43.451   0.827   0.198
37897W        W 6291  20.001  36.214   3.173
37898W        W 6292   0.976  26.982   3.990
37899W        W 6293  14.269  32.312   3.556
37900W        W 6294  37.845  14.317  10.501
37901W        W 6295  36.560  22.949  11.542
37902W        W 6296  26.422   3.864   2.357
37903W        W 6297  26.504  24.970  12.091
37904W        W 6298  31.349  44.224  14.216
37905W        W 6299  33.497  32.956  14.396
37906W        W 6300  37.303   8.423   1.780
37907W        W 6301   5.205  35.853  11.931
37908W        W 6302  29.558  17.239  12.354
37909W        W 6303  34.026  15.683  13.873
37910W        W 6304  35.486  18.696   2.253
37911W        W 6305  38.564  39.957  10.788
37912W        W 6306  29.726  26.484  11.544
37913W        W 6307  15.326  15.621   2.322
37914W        W 6308   1.392  24.138   3.390
37915W        W 6309  31.353  10.294   3.779
37916W        W 6310  23.244  11.771  14.834
37917W        W 6311  11.438   2.872  11.160
37918W        W 6312  37.025  15.178   0.281
37919W        W 6313  24.666  24.107  12.976
37920W        W 6314  27.974  21.174   2.955
37921W        W 6315  27.300  28.561  11.122
37922W        W 6316  22.664  39.534   1.323
37923W        W 6317   7.952   0.269  13.614
37924W        W 6318  10.007  34.656  12.304
37925W        W 6319  37.771   4.664   4.748
37926W        W 6320  32.844  29.517   3.632
37927W        W 6321  31.898  14.085   1.370
37928W        W 6322  10.642  16.088   2.850
37929W        W 6323  21.576  23.475  12.808
37930W        W 6324   9.432   1.762  10.130
37931W        W 6325  43.994  14.559   0.881
37932W        W 6326   7.827  13.713  13.747
37933W        W 6327  41.866  44.767  13.145
37934W        W 6328   0.730  29.431   3.268
37935W        W 6329  24.626  12.011   5.013
37936W        W 6330  21.788  10.805   4.093
37937W        W 6331   3.925  33.160   0.489
37938W        W 6332  12.681  16.093   2.720
37939W        W 6333   2.785  11.746  14.764
37940W        W 6334  25.431  36.577  13.397
37941W        W 6335  33.486   2.110   4.663
37942W        W 6336  43.041  23.727   2.817
37943W        W 6337  19.474  12.724   4.662
37944W        W 6338  25.990  20.548  14.430
37945W        W 6339  21.777   4.350  10.891
37946W        W 6340  37.570   8.444   1.332
37947W        W 6341  31.150  43.590   0.360
37948W        W 6342  39.831  15.021  14.013
37949W        W 6343  43.379   1.284  12.432
37950W        W 6344   0.052  44.700   4.770
37951W        W 6345   1.778  41.644  10.718
37952W        W 6346  19.631  29.949   5.124
37953W        W 6347  39.790  17.542   4.120
37954W        W 6348  37.902  16.699   3.649
37955W        W 6349  11.861  26.039   4.196
37956W        W 6350  27.730  11.851  12.864
37957W        W 6351  44.306  44.908   1.821
37958W        W 6352  26.446  34.485   1.818
37959W        W 6353  33.553   5.652  13.398
37960W        W 6354  18.495  27.412  14.722
37961W        W 6355   4.958   9.557   0.216
37962W        W 6356   2.549   2.214  14.962
37963W        W 6357  15.142   1.525  10.816
37964W        W 6358  15.275  19.278   3.805
37965W        W 6359  11.121   1.471  13.611
37966W        W 6360  42.885  40.874  12.316
37967W        W 6361   1.122  36.941  11.638
37968W        W 6362  44.979  20.512   4.884
37969W        W 6363   7.272  43.559   1.213
37970W        W 6364  14.796  33.051   1.449
37971W        W 6365  32.507   6.641   3.701
37972W        W 6366   3.811   3.053  10.494
37973W        W 6367  27.963  41.997  12.838
37974W        W 6368  14.360  25.242   1.762
37975W        W 6369  18.485  20.309   1.418
37976W        W 6370  16.829  25.176   4.606
37977W        W 6371  26.415  40.360   1.760
37978W        W 6372  25.215   9.740   2.218
37979W        W 6373  31.990  36.546   0.892
37980W        W 6374  25.738  26.962  14.804
37981W        W 6375  13.393  30.557   3.381
37982W        W 6376  19.639  29.194  12.102
37983W        W 6377  18.178  35.219  13.351
37984W        W 6378  27.627  18.903   2.628
37985W        W 6379  36.546  10.599   4.721
37986W        W 6380  30.190  41.520  10.729
37987W        W 6381  30.413  16.175   4.395
37988W        W 6382  40.806  38.029  13.894
37989W        W 6383  26.370  18.147  13.431
37990W        W 6384  44.568   7.626   4.518
37991W        W 6385  13.263  31.621   0.291
37992W        W 6386  22.498   0.811   3.414
37993W        W 6387  15.706  23.109   4.568
37994W        W 6388  29.501  22.121  12.316
37995W        W 6389  21.257  31.981  10.280
37996W        W 6390  16.849  14.799  14.232
37997W        W 6391   8.581  25.678  12.118
37998W        W 6392   6.214  25.669   2.609
37999W        W 6393  20.759  27.540  11.458
38000W        W 6394   0.834  10.674  10.558
38001W        W 6395  25.730  29.416  14.856
38002W        W 6396  15.447  35.614   4.517
38003W        W 6397   2.457   2.907  14.249
38004W        W 6398  30.023  30.078  12.097
38005W        W 6399   7.968   0.277  13.096
38006W        W 6400  21.584   7.600  10.720
38007W        W 6401  11.146  30.110  11.447
38008W        W 6402  22.697  41.572  11.212
38009W        W 6403  40.497  28.468  12.035
38010W        W 6404   4.923  33.676  13.880
38011W        W 6405  23.619  39.775  11.211
38012W        W 6406  19.654  21.194  11.612
38013W        W 6407   8.374   4.782   1.096
38014W        W 6408   0.257  33.955   3.097
38015W        W 6409  29.247  41.942  10.744
38016W        W 6410  16.792   5.225  12.633
38017W        W 6411   5.804   0.201   3.397
38018W        W 6412   7.906  18.130   1.875
38019W        W 6413  23.520  12.605   2.388
38020W        W 6414  30.929  23.045   1.337
38021W        W 6415  35.155  10.242   1.938
38022W        W 6416  13.756  34.293  14.876
38023W        W 6417  21.176  15.848  11.563
38024W        W 6418   0.917  13.813   3.121
38025W        W 6419  19.912  31.033   3.274
38026W        W 6420  13.201  19.764  13.576
38027W        W 6421  39.331  34.364   0.325
38028W        W 6422   5.071  26.003  14.556
38029W        W 6423   2.979  32.032   2.752
38030W        W 6424  18.560  34.396   3.881
38031W        W 6425  28.491  24.005  12.051
38032W        W 6426  28.044   0.433  14.801
38033W        W 6427  27.649   3.006  11.911
38034W        W 6428  26.186  27.605  11.126
38035W        W 6429  25.832   1.299  14.939
38036W        W 6430  33.537   0.246  14.822
38037W        W 6431  27.982   0.793  13.458
38038W        W 6432  32.704   5.872  13.239
38039W        W 6433  42.378   0.964  14.789
38040W        W 6434  10.708  20.772  13.626
38041W        W 6435  25.136  43.771   0.773
38042W        W 6436  24.428  28.017  10.752
38043W        W 6437  13.092  35.144  11.441
38044W        W 6438  38.617  11.160   3.645
38045W        W 6439  36.321  33.887   2.964
38046W        W 6440  12.671  25.521  12.980
38047W        W 6441  28.058   5.220  10.802
38048W        W 6442  35.556  36.067  11.303
38049W        W 6443  29.985  19.394   4.553
38050W        W 6444   6.258   1.905  10.251
38051W        W 6445  23.230   3.640   4.558
38052W        W 6446  37.847  15.110   1.796
38053W        W 6447  23.624   0.192  11.957
38054W        W 6448  31.987  27.324   2.227
38055W        W 6449  40.932   2.718  12.653
38056W        W 6450   3.795  19.546   2.738
38057W        W 6451  10.363  18.346  11.466
38058W        W 6452   9.194   4.716  10.578
38059W        W 6453  19.709  12.880   4.231
38060W        W 6454  39.893   1.808   0.924
38061W        W 6455  28.099  44.844  11.950
38062W        W 6456  29.953  13.777  13.816
38063W        W 6457   6.775  42.251   4.261
38064W        W 6458  41.417   0.602   0.817
38065W        W 6459   8.324  27.025   1.968
38066W        W 6460  31.091  38.003  11.534
38067W        W 6461   5.338  15.726   2.221
38068W        W 6462  27.181  25.024  10.746
38069W        W 6463  25.727   6.873   0.780
38070W        W 6464   3.441  32.373  13.921
38071W        W 6465   7.651  19.063  12.458
38072W        W 6466  28.594  16.403  12.194
38073W        W 6467  11.819  28.902   3.165
38074W        W 6468   8.479  21.467   4.130
38075W        W 6469  29.889  22.467   3.601
38076W        W 6470  20.586   4.371   2.274
38077W        W 6471   4.617  12.675   4.191
38078W        W 6472  11.294   0.952  13.581
38079W        W 6473  43.001  11.146  12.157
38080W        W 6474  22.574  13.250  11.926
38081W        W 6475  16.304   7.672  10.898
38082W        W 6476  32.065  30.971  10.592
38083W        W 6477  16.766  23.442   2.188
38084W        W 6478  24.733  22.544   3.656
38085W        W 6479  17.551  24.478  13.018
38086W        W 6480  30.918  22.997   4.612
38087W        W 6481   2.691   7.262   1.285
38088W        W 6482  15.604   4.256   0.784
38089W        W 6483   7.918   0.722   3.759
38090W        W 6484  12.947  35.490  13.497
38091W        W 6485  31.323  30.996  13.003
38092W        W 6486  19.046  24.408   5.009
38093W        W 6487  19.776  19.716  10.436
38094W        W 6488  39.889  11.881   0.325
38095W        W 6489   0.315   4.472  13.772
38096W        W 6490   6.457  34.504  11.903
38097W        W 6491   7.884   6.710   9.422
38098W        W 6492  38.476  33.200  11.021
38099W        W 6493  29.948  22.444   2.199
38100W        W 6494  33.785   7.904  13.085
38101W        W 6495  21.096  29.891   1.275
38102W        W 6496  17.932  13.561  11.979
38103W        W 6497  42.689  29.683  11.027
38104W        W 6498  33.420   0.740   4.282
38105W        W 6499  22.571   4.637   4.601
38106W        W 6500  29.152   4.894   1.717
38107W        W 6501  37.518  27.073  12.964
38108W        W 6502   3.871  16.311   3.856
38109W        W 6503  36.571  32.350  10.620
38110W        W 6504  10.423  13.232   3.715
38111W        W 6505  16.646  38.177  11.890
38112W        W 6506  18.564  35.576   4.636
38113W        W 6507  28.689  39.587   3.579
38114W        W 6508  19.111  27.434   2.211
38115W        W 6509  13.825   2.392  12.234
38116W        W 6510  26.911  19.544  10.605
38117W        W 6511   2.887  33.160  11.261
38118W        W 6512   0.853  44.753  14.397
38119W        W 6513   8.651  17.271   1.305
38120W        W 6514   1.999  11.109   3.784
38121W        W 6515  36.414  44.331   0.508
38122W        W 6516   5.780  38.603   1.750
38123W        W 6517  34.661  35.140   1.291
38124W        W 6518  39.052  27.499  11.003
38125W        W 6519   1.285  31.154   1.432
38126W        W 6520  30.868  12.400  14.883
38127W        W 6521  32.898  17.576  13.008
38128W        W 6522  31.403   5.703   0.697
38129W        W 6523  29.739   4.813  10.767
38130W        W 6524   0.084  19.629   0.849
38131W        W 6525  21.221  32.734  12.543
38132W        W 6526  37.905  12.412   3.269
38133W        W 6527  38.052  41.104  13.021
38134W        W 6528  23.124  38.122   3.014
38135W        W 6529   7.638  18.722   4.812
38136W        W 6530  19.248  17.773   2.740
38137W        W 6531  12.920   7.209  12.949
38138W        W 6532  28.429   8.806  11.064
38139W        W 6533  11.277  42.431   3.738
38140W        W 6534   1.825  43.609   2.208
38141W        W 6535  10.588  42.123   4.518
38142W        W 6536   3.849   9.727  10.984
38143W        W 6537  39.775  41.805  10.790
38144W        W 6538  40.844  34.649  14.433
38145W        W 6539   5.787  13.131   3.224
38146W        W 6540  20.800  25.046  14.066
38147W        W 6541   4.828  31.830  12.666
38148W        W 6542  12.338   3.290  12.150
38149W        W 6543   3.179  42.977  13.057
38150W        W 6544  42.635  39.582  12.933
38151W        W 6545  21.274  40.012   0.460
38152W        W 6546  35.543  22.006  13.031
38153W        W 6547  19.495   5.245   3.875
38154W        W 6548  39.747  40.071   2.186
38155W        W 6549  43.007  44.937  14.902
38156W        W 6550  24.566   6.422   3.257
38157W        W 6551   8.319  35.047  12.692
38158W        W 6552  19.609  39.495  12.083
38159W        W 6553   8.426  22.243   2.953
38160W        W 6554  37.798  15.344   2.733
38161W        W 6555  35.032  20.119   1.191
38162W        W 6556  27.334  29.111  10.958
38163W        W 6557  36.476  30.946  14.283
38164W        W 6558  43.025   3.515  14.832
38165W        W 6559  31.409  36.056  11.817
38166W        W 6560  35.834  16.005   1.147
38167W        W 6561  23.300  30.506  13.276
38168W        W 6562  34.092  40.875   3.093
38169W        W 6563  33.436  35.018  14.140
38170W        W 6564  29.416  41.014  12.300
38171W        W 6565  24.493  29.480  12.555
38172W        W 6566  29.033  43.411  13.242
38173W        W 6567  27.398  34.296  10.969
38174W        W 6568  42.024  37.104  14.418
38175W        W 6569  43.349   4.234   1.420
38176W        W 6570  17.009  26.943   5.447
38177W        W 6571  33.657   9.960  11.559
38178W        W 6572  43.039  44.905   3.393
38179W        W 6573   2.937  38.826  11.103
38180W        W 6574  14.328   6.846   2.343
38181W        W 6575   0.825  13.532  11.150
38182W        W 6576  16.522  33.428   1.243
38183W        W 6577  33.846  38.468  13.837
38184W        W 6578  22.814  15.625  13.487
38185W        W 6579  35.400   6.718  14.361
38186W        W 6580  26.630   0.294  13.863
38187W        W 6581  43.519  23.993   1.565
38188W        W 6582  28.114  32.673   2.424
38189W        W 6583  29.866  19.273  13.798
38190W        W 6584   9.537  38.812   0.319
38191W        W 6585  40.023   6.695  14.798
38192W        W 6586  40.569  21.320  10.760
38193W        W 6587  10.428   1.411   4.167
38194W        W 6588   1.533  10.259   4.301
38195W        W 6589  31.635  20.134   2.343
38196W        W 6590  41.303  44.776  14.872
38197W        W 6591   3.499  39.347  13.862
38198W        W 6592   0.355  28.014  13.997
38199W        W 6593  14.907  41.554  11.974
38200W        W 6594  20.038   1.854  13.551
38201W        W 6595  38.085  39.741   2.824
38202W        W 6596  11.614  21.314  11.615
38203W        W 6597  41.669  20.046   2.007
38204W        W 6598  37.364  12.277   1.252
38205W        W 6599  32.887   5.707   1.882
38206W        W 6600  20.669  36.741   2.389
38207W        W 6601  33.113  15.681  12.534
38208W        W 6602   1.717   3.125   2.577
38209W        W 6603   5.877  18.216  12.583
38210W        W 6604  36.577  23.329   0.016
38211W        W 6605   5.903  21.323  11.599
38212W        W 6606  30.618  24.944  10.393
38213W        W 6607   9.307   3.973  14.074
38214W        W 6608   0.467  21.229  14.567
38215W        W 6609  42.384  26.759  14.931
38216W        W 6610  26.535  15.125  13.840
38217W        W 6611  11.797  21.818   0.056
38218W        W 6612  41.745  23.568   4.112
38219W        W 6613  14.095  28.521  11.026
38220W        W 6614   5.846   4.845   2.923
38221W        W 6615  27.514  22.245   3.615
38222W        W 6616  26.949  37.175   0.946
38223W        W 6617  13.410  33.263  12.530
38224W        W 6618  42.266  41.962  13.852
38225W        W 6619  28.577  37.446   2.647
38226W        W 6620  37.083  36.948   0.854
38227W        W 6621  28.066  30.070   2.644
38228W        W 6622  40.820  21.182   2.102
38229W        W 6623  13.487  31.359  13.568
38230W        W 6624  19.716  29.635   0.133
38231W        W 6625   4.708  28.878   1.919
38232W        W 6626  40.992   8.983  11.210
38233W        W 6627  31.021  23.728   2.765
38234W        W 6628  24.110  38.529   1.951
38235W        W 6629  37.320  28.453  11.609
38236W        W 6630  27.688  19.111  12.439
38237W        W 6631  13.272   4.478  12.126
38238W        W 6632  23.216  12.313  13.858
38239W        W 6633  42.766   5.811   0.788
38240W        W 6634  30.428  24.256   0.542
38241W        W 6635  42.562  28.955  11.635
38242W        W 6636  31.180  39.288  10.936
38243W        W 6637   8.601  26.747  13.595
38244W        W 6638  15.399  11.185   0.260
38245W        W 6639  34.446  38.062   1.707
38246W        W 6640  33.625  19.553   0.761
38247W        W 6641  20.893  40.644  10.776
38248W        W 6642  27.514  25.963   4.878
38249W        W 6643   6.274  28.970  10.886
38250W        W 6644  34.053   3.473  14.789
38251W        W 6645  37.708  43.310  11.520
38252W        W 6646  16.808   3.710   1.843
38253W        W 6647  37.573  39.100   1.763
38254W        W 6648  20.114  44.562  12.950
38255W        W 6649  26.237  33.367   3.564
38256W        W 6650   4.914  17.819   1.429
38257W        W 6651   1.137  12.812   3.715
38258W        W 6652  33.352  29.881   0.289
38259W        W 6653  16.032  25.624   4.662
38260W        W 6654  30.682  34.985  14.335
38261W        W 6655  17.802  25.881   0.358
38262W        W 6656  38.473  41.851   1.261
38263W        W 6657  40.704  27.821  10.415
38264W        W 6658  18.792  19.704  14.741
38265W        W 6659   7.749  34.194  13.329
38266W        W 6660  23.309  43.899   3.910
38267W        W 6661   7.674  24.073  12.585
38268W        W 6662  30.614  14.828  12.068
38269W        W 6663  35.978  28.456   4.708
38270W        W 6664  24.454  39.145  13.149
38271W        W 6665   9.266  33.377   4.127
38272W        W 6666   0.444  28.530  12.638
38273W        W 6667   2.205   6.252  12.900
38274W        W 6668   7.717  11.137  14.933
38275W        W 6669  25.911  17.476  12.892
38276W        W 6670  15.781  19.681   4.548
38277W        W 6671  22.054  25.541  10.674
38278W        W 6672   7.276   3.377   0.016
38279W        W 6673   9.500  36.617  12.482
38280W        W 6674  14.707  15.589  11.154
38281W        W 6675  34.334  39.307   0.239
38282W        W 6676  13.406   2.060  14.438
38283W        W 6677  40.948  19.027  13.262
38284W        W 6678  15.848   1.926  14.662
38285W        W 6679  32.332   5.910  12.034
38286W        W 6680  31.846  44.553  10.589
38287W        W 6681  23.680  26.457  11.635
38288W        W 6682   5.960   5.972   2.327
38289W        W 6683  40.776  34.593   4.508
38290W        W 6684  27.036  17.108  10.635
38291W        W 6685  30.483  15.225   1.493
38292W        W 6686  15.800   2.001   3.290
38293W        W 6687   3.732   0.980   0.496
38294W        W 6688  34.689  12.275  14.462
38295W        W 6689   5.663  27.378   4.305
38296W        W 6690  42.968  12.063   0.277
38297W        W 6691  14.283  25.620  14.386
38298W        W 6692  22.268   0.580   1.987
38299W        W 6693  13.779  24.189  13.909
38300W        W 6694  40.960  33.858  13.878
38301W        W 6695  14.650  38.124   3.941
38302W        W 6696  35.748  26.711   0.776
38303W        W 6697   0.987   3.301   1.976
38304W        W 6698  11.699  41.584  13.036
38305W        W 6699  34.057  39.957   1.716
38306W        W 6700   9.548  31.292   3.305
38307W        W 6701  17.909  32.536   3.422
38308W        W 6702   0.456  40.796   3.720
38309W        W 6703  29.261  11.736   1.513
38310W        W 6704   5.715  41.718   3.700
38311W        W 6705  21.242  36.912  13.902
38312W        W 6706  21.690  24.978  14.522
38313W        W 6707  10.940  43.731  12.998
38314W        W 6708  36.310   0.294   2.303
38315W        W 6709  14.736  36.282   0.864
38316W        W 6710  25.182  16.744   1.058
38317W        W 6711  44.732  29.419   3.225
38318W        W 6712  25.090   1.860  11.972
38319W        W 6713  29.405  17.742   1.847
38320W        W 6714  19.117  32.104   1.182
38321W        W 6715  28.083  35.877  12.657
38322W        W 6716   2.326   3.542   1.913
38323W        W 6717  18.016  30.982  11.729
38324W        W 6718   4.773   6.979  14.517
38325W        W 6719  41.415  38.958   4.724
38326W        W 6720   9.925  33.998  13.339
38327W        W 6721  20.306  44.501   1.893
38328W        W 6722  35.628  14.345  11.704
38329W        W 6723  21.200  30.836   1.321
38330W        W 6724   0.028  20.615   3.516
38331W        W 6725  23.659  36.304  12.452
38332W        W 6726  25.776  14.085   0.255
38333W        W 6727  13.332  20.537  11.773
38334W        W 6728  24.051  17.214  10.762
38335W        W 6729  41.331  34.384   3.510
38336W        W 6730  17.099   8.741  10.821
38337W        W 6731  29.877  18.083   1.371
38338W        W 6732   9.742  23.315   4.525
38339W        W 6733  31.446  44.211   4.690
38340W        W 6734  43.527  10.471  12.625
38341W        W 6735  26.714  14.188  12.870
38342W        W 6736  35.450   6.123  12.146
38343W        W 6737  31.520  20.054  12.145
38344W        W 6738  38.409  31.534   2.283
38345W        W 6739  44.798  11.710   2.475
38346W        W 6740  24.312   3.329  10.717
38347W        W 6741  22.204   0.729  12.920
38348W        W 6742   6.896  27.962   2.470
38349W        W 6743   2.421   2.233  11.559
38350W        W 6744  19.146  33.376   0.802
38351W        W 6745  13.617  43.900   0.778
38352W        W 6746  30.129  39.499  11.652
38353W        W 6747  28.012  20.784  12.859
38354W        W 6748  37.045  22.303  12.814
38355W        W 6749   7.330  16.496   2.331
38356W        W 6750  30.573  23.427   4.534
38357W        W 6751   8.041  40.419  12.408
38358W        W 6752  22.568   8.454   1.649
38359W        W 6753  17.609  30.111  12.607
38360W        W 6754  43.713  30.459  11.130
38361W        W 6755  12.674   8.003   3.317
38362W        W 6756  38.499  37.744  14.229
38363W        W 6757  28.350  41.960   1.924
38364W        W 6758  33.845  32.581  11.808
38365W        W 6759  30.944  42.811   3.309
38366W        W 6760  17.609  16.253   3.587
38367W        W 6761  32.113  20.757  10.492
38368W        W 6762  17.612  43.429   4.700
38369W        W 6763   6.620  13.667   5.387
38370W        W 6764  10.760  38.736  13.138
38371W        W 6765  44.477  30.048  11.622
38372W        W 6766  38.268   5.543   4.189
38373W        W 6767   9.794  34.877  13.750
38374W        W 6768  10.468  32.174  11.649
38375W        W 6769  12.227  29.564   4.119
38376W        W 6770  22.944  42.117  12.490
38377W        W 6771  14.526   6.196   0.346
38378W        W 6772  37.054   4.651  12.046
38379W        W 6773  10.310  28.401   0.792
38380W        W 6774  41.399  35.011   0.032
38381W        W 6775  37.351  44.908   1.820
38382W        W 6776  19.164  22.217  14.985
38383W        W 6777   8.232  33.566   4.234
38384W        W 6778  26.253   1.907   4.547
38385W        W 6779   8.670  33.852   0.369
38386W        W 6780  33.889  34.033  12.284
38387W        W 6781   3.794   9.865   1.928
38388W        W 6782   9.816   7.887   1.760
38389W        W 6783  38.902  36.861   4.068
38390W        W 6784  18.293   1.315  11.671
38391W        W 6785  33.882  14.725  14.903
38392W        W 6786  44.180   3.135   2.964
38393W        W 6787  36.816  15.214   1.780
38394W        W 6788  33.188  34.432  11.125
38395W        W 6789  14.743  11.131   3.539
38396W        W 6790   1.397   6.926   0.373
38397W        W 6791  20.750  38.999   1.823
38398W        W 6792  10.126   2.305  10.206
38399W        W 6793  13.259   9.063   0.699
38400W        W 6794  11.192  24.008   3.290
38401W        W 6795  34.205  25.576  14.917
38402W        W 6796  43.215  17.342  11.100
38403W        W 6797  34.580  14.778  10.944
38404W        W 6798   2.491  26.631   0.724
38405W        W 6799  15.257   6.519  12.901
38406W        W 6800  40.866  44.445   2.739
38407W        W 6801  10.651  44.964   0.947
38408W        W 6802  14.741   3.893  10.633
38409W        W 6803  18.062  23.227  12.026
38410W        W 6804  37.803  31.687   0.563
38411W        W 6805  18.480   8.472  13.074
38412W        W 6806  28.409  30.485   2.670
38413W        W 6807  43.001   8.737  14.239
38414W        W 6808  34.126  17.659   2.713
38415W        W 6809  39.466  11.123  12.037
38416W        W 6810  29.362   2.811   0.270
38417W        W 6811  16.818  24.834  12.014
38418W        W 6812   7.139  36.509  12.099
38419W        W 6813  16.754  29.533  11.562
38420W        W 6814  43.622  20.516   3.565
38421W        W 6815  25.671  20.114  14.523
38422W        W 6816  22.005  43.955  13.432
38423W        W 6817  26.561   9.508   0.698
38424W        W 6818   1.828  23.463  13.484
38425W        W 6819  35.609   7.155  11.168
38426W        W 6820  44.912   0.803   2.863
38427W        W 6821  24.611  15.519  11.227
38428W        W 6822  12.714  14.613  14.553
38429W        W 6823   3.778  44.063  13.922
38430W        W 6824  19.703  12.362   4.297
38431W        W 6825  41.890  33.084   2.419
38432W        W 6826  16.987  12.426  13.392
38433W        W 6827   2.662  23.581  13.100
38434W        W 6828  14.738  40.834  11.088
38435W        W 6829  39.077  40.499  14.821
38436W        W 6830  22.632   7.337   0.748
38437W        W 6831  14.403  11.572  12.504
38438W        W 6832  42.849  21.037   0.554
38439W        W 6833  15.540  20.652  13.929
38440W        W 6834  24.962  39.486   0.066
38441W        W 6835  33.804   0.238   3.445
38442W        W 6836  28.536   9.379  13.777
38443W        W 6837   1.233   1.715  14.710
38444W        W 6838  18.293  29.198  12.007
38445W        W 6839  16.540  27.708  11.103
38446W        W 6840  13.710  18.346   3.224
38447W        W 6841   7.862   0.186   4.599
38448W        W 6842  36.464   0.271  14.992
38449W        W 6843  33.517  25.718   1.350
38450W        W 6844   3.038  25.721   0.130
38451W        W 6845  13.602  36.115   3.681
38452W        W 6846   8.446  32.182  14.853
38453W        W 6847  32.104  16.422  12.842
38454W        W 6848   5.916  37.730  11.006
38455W        W 6849   4.848  25.957   2.062
38456W        W 6850  14.375  33.870   0.532
38457W        W 6851   5.986   1.407   0.222
38458W        W 6852  17.744  13.736  13.987
38459W        W 6853  14.843  14.621   3.768
38460W        W 6854  33.356   4.323  11.159
38461W        W 6855   5.270   3.961  11.252
38462W        W 6856  37.088  11.910   2.914
38463W        W 6857  17.285  15.298   4.300
38464W        W 6858  19.727   0.278   2.810
38465W        W 6859  11.570   2.991   0.839
38466W        W 6860   3.255  17.979   3.234
38467W        W 6861  19.125  34.343  11.628
38468W        W 6862  29.546  11.245   0.993
38469W        W 6863  23.622  31.665   3.214
38470W        W 6864   8.012  17.010   2.768
38471W        W 6865  10.156  25.098  14.610
38472W        W 6866  42.256   5.811   0.746
38473W        W 6867  32.930  10.624  12.441
38474W        W 6868   0.872  28.714   4.786
38475W        W 6869  14.418  28.009   2.203
38476W        W 6870  44.891   0.994   4.817
38477W        W 6871  33.600  29.523   2.795
38478W        W 6872   2.154  40.064  12.393
38479W        W 6873  35.665  32.439   2.862
38480W        W 6874  41.496  29.692   1.286
38481W        W 6875   1.058   9.233  13.909
38482W        W 6876  44.273  35.751   1.398
38483W        W 6877  21.266  39.007   2.768
38484W        W 6878  15.075  42.452  13.011
38485W        W 6879   2.507  23.024  12.453
38486W        W 6880  11.204  39.972  11.389
38487W        W 6881  23.587   1.464  11.466
38488W        W 6882  35.450   8.321  13.830
38489W        W 6883  16.360   0.263   1.958
38490W        W 6884  26.516  34.764  10.316
38491W        W 6885  24.926  37.474   4.424
38492W        W 6886  13.713   8.402  10.960
38493W        W 6887   3.210  12.411  11.071
38494W        W 6888  26.613  19.777   3.828
38495W        W 6889  34.632   6.713   3.823
38496W        W 6890   7.505   7.258   1.816
38497W        W 6891  11.840  14.539   0.721
38498W        W 6892  30.531  36.091   3.187
38499W        W 6893  25.296   2.208  14.512
38500W        W 6894  11.553  11.862  10.533
38501W        W 6895  34.438  33.627  10.539
38502W        W 6896  43.674   1.443  10.573
38503W        W 6897  33.509   2.932   4.620
38504W        W 6898   5.742   6.752   2.650
38505W        W 6899  26.050   9.137   3.852
38506W        W 6900  30.597   2.548  12.175
38507W        W 6901  38.217  25.554  13.245
38508W        W 6902   3.560  12.170   1.372
38509W        W 6903  34.143  34.355   0.922
38510W        W 6904  25.494  33.841   0.706
38511W        W 6905   6.789  41.606  11.430
38512W        W 6906  27.095  30.950   3.596
38513W        W 6907  12.593   9.751  14.548
38514W        W 6908  34.906   6.721   0.607
38515W        W 6909  19.299  38.304   1.358
38516W        W 6910  32.559   2.375   2.887
38517W        W 6911   9.091  14.761   0.783
38518W        W 6912  28.175  24.921  10.626
38519W        W 6913  37.074  32.021   4.778
38520W        W 6914  42.451  36.705   2.356
38521W        W 6915   5.782  42.450  10.648
38522W        W 6916   8.746  16.182  13.081
38523W        W 6917  42.999   2.333   1.335
38524W        W 6918  41.763  33.996   0.980
38525W        W 6919  27.508  29.101  14.276
38526W        W 6920  19.634  29.642  13.530
38527W        W 6921  24.189  17.892   3.593
38528W        W 6922  10.114  17.195  14.529
38529W        W 6923   8.888   1.765  11.502
38530W        W 6924  18.135  16.247   9.848
38531W        W 6925  27.943  44.795  14.180
38532W        W 6926  21.841  10.855   1.825
38533W        W 6927  18.835  29.570  14.852
38534W        W 6928  10.220  21.817  12.435
38535W        W 6929  28.714   6.305  12.605
38536W        W 6930  21.772  18.291  12.288
38537W        W 6931  20.991  11.322   3.371
38538W        W 6932  29.523  24.397  10.758
38539W        W 6933  23.095  42.071  14.166
38540W        W 6934  17.373  42.890  13.606
38541W        W 6935  22.030  12.303   3.822
38542W        W 6936  33.482  39.534  12.032
38543W        W 6937  33.339  16.790   1.747
38544W        W 6938   6.725   6.242  11.120
38545W        W 6939  40.706  17.106  12.578
38546W        W 6940   6.447  26.830   1.480
38547W        W 6941  31.736  24.858   0.306
38548W        W 6942  12.759  40.835  13.468
38549W        W 6943  17.398   4.254   4.497
38550W        W 6944  36.364  36.441   3.702
38551W        W 6945  15.914  27.756   4.221
38552W        W 6946  29.963  35.676   4.207
38553W        W 6947  28.017  25.783  10.886
38554W        W 6948  39.823  15.626  12.233
38555W        W 6949   3.475   9.114  12.517
38556W        W 6950   8.125  22.426   2.585
38557W        W 6951  44.989  12.815   1.386
38558W        W 6952  23.021  20.723  11.016
38559W        W 6953  29.873  20.170  11.060
38560W        W 6954  33.808  40.228  11.555
38561W        W 6955  38.598  29.034   2.014
38562W        W 6956  15.233   6.515  12.037
38563W        W 6957  23.217   0.750  14.469
38564W        W 6958  33.424  16.175  13.304
38565W        W 6959  39.584  41.930   1.724
38566W        W 6960   1.759  16.318   0.381
38567W        W 6961   1.077  15.614   4.017
38568W        W 6962  42.313  26.079   2.210
38569W        W 6963  27.707   9.122   4.796
38570W        W 6964   3.059  25.210   4.958
38571W        W 6965   1.361  34.081  13.621
38572W        W 6966  12.562  44.862   0.694
38573W        W 6967  16.805  36.810  10.587
38574W        W 6968  20.207  25.272  13.483
38575W        W 6969   3.953  24.719   2.311
38576W        W 6970  12.003  42.968  11.742
38577W        W 6971  32.030  40.298   3.226
38578W        W 6972  26.927  39.508   2.462
38579W        W 6973  38.640  11.079   4.491
38580W        W 6974  33.397  33.973  12.457
38581W        W 6975  16.691  32.726  11.429
38582W        W 6976  10.799  17.949  14.803
38583W        W 6977  29.866  29.824  14.714
38584W        W 6978  24.361  30.159   2.808
38585W        W 6979   5.730   9.306  14.878
38586W        W 6980   7.778  11.402  13.536
38587W        W 6981   1.715  31.110  14.353
38588W        W 6982   5.709  43.778   0.850
38589W        W 6983  19.613  41.944  11.740
38590W        W 6984  18.045  14.488   1.440
38591W        W 6985  32.189  42.453   2.812
38592W        W 6986  32.895  36.481  11.849
38593W        W 6987  26.154  27.614   3.683
38594W        W 6988  24.055  23.030  13.409
38595W        W 6989  17.773  10.300  10.984
38596W        W 6990  19.751  20.990   4.213
38597W        W 6991  29.397  30.685   2.798
38598W        W 6992  39.313  40.785  11.180
38599W        W 6993  18.606  27.192   2.252
38600W        W 6994  23.240  28.238  13.093
38601W        W 6995   0.979  40.375  10.515
38602W        W 6996  36.964  35.180   4.636
38603W        W 6997  18.944  38.868  14.262
38604W        W 6998  40.487  37.255  13.830
38605W        W 6999  41.412  18.104   3.876
38606W        W 7000   2.051  15.492  14.036
38607W        W 7001  39.819   2.201  14.687
38608W        W 7002  10.261  43.173   2.162
38609W        W 7003   8.301  30.449   3.565
38610W        W 7004   2.515  33.447  12.361
38611W        W 7005  17.759  30.780   2.396
38612W        W 7006  35.294  20.326   0.768
38613W        W 7007  34.600  31.421  14.934
38614W        W 7008   9.877  14.541   2.698
38615W        W 7009  34.122  35.191   1.388
38616W        W 7010  22.262   1.304   1.789
38617W        W 7011  17.809  40.104  11.949
38618W        W 7012  13.735  12.174  12.343
38619W        W 7013  41.756  38.986   1.330
38620W        W 7014   3.835   5.033  13.384
38621W        W 7015  39.561   4.231  12.571
38622W        W 7016  38.430  33.817   4.454
38623W        W 7017  21.606  43.460  11.943
38624W        W 7018  21.438  12.606   2.746
38625W        W 7019  15.089  36.865   1.414
38626W        W 7020  37.908   1.792   0.974
38627W        W 7021  33.392  42.066  10.725
38628W        W 7022  21.394  33.107   3.101
38629W        W 7023  27.637  21.755   3.778
38630W        W 7024   0.484  23.960   2.124
38631W        W 7025   4.397  23.034  12.519
38632W        W 7026  29.739  36.123   1.403
38633W        W 7027  43.414  18.788  10.469
38634W        W 7028  40.055  20.534  14.026
38635W        W 7029  38.381   6.681   1.243
38636W        W 7030   7.495   4.692   1.328
38637W        W 7031  20.628  26.476  14.964
38638W        W 7032  19.848  31.354  13.767
38639W        W 7033  23.076  30.844   2.235
38640W        W 7034  44.476  33.615  12.688
38641W        W 7035   1.544   6.448  14.810
38642W        W 7036  30.881  19.494   4.182
38643W        W 7037  28.978  27.877   0.366
38644W        W 7038  22.166  32.499   1.151
38645W        W 7039   6.196  19.525   9.995
38646W        W 7040  35.136  40.288   4.224
38647W        W 7041  38.272  29.996   1.632
38648W        W 7042   3.135  16.960  12.765
38649W        W 7043   9.135  39.387   1.376
38650W        W 7044   0.199  18.702  10.800
38651W        W 7045  34.405  31.221  13.095
38652W        W 7046  40.015   8.112   1.484
38653W        W 7047  21.949   2.341  12.861
38654W        W 7048  11.241  10.176  12.804
38655W        W 7049  34.915  36.250   4.815
38656W        W 7050  33.305  38.303  10.096
38657W        W 7051  42.936  30.663   1.728
38658W        W 7052  33.221   3.245   0.037
38659W        W 7053  27.716   4.784  10.683
38660W        W 7054  29.009  38.748  12.461
38661W        W 7055  31.004   7.995  12.122
38662W        W 7056  14.367  32.363  11.138
38663W        W 7057  13.937  18.892   0.825
38664W        W 7058  22.219  40.133  11.941
38665W        W 7059  38.245  44.573  11.176
38666W        W 7060  44.969   3.343   1.849
38667W        W 7061  10.595  30.566   0.290
38668W        W 7062   8.637  36.877   0.708
38669W        W 7063  37.458  42.526   0.873
38670W        W 7064  36.962   9.852   2.452
38671W        W 7065  18.115   3.657   3.250
38672W        W 7066  28.877   0.854  14.742
38673W        W 7067  34.429   2.729   4.184
38674W        W 7068  17.718  35.541  11.578
38675W        W 7069   0.565  16.620   0.817
38676W        W 7070   5.409  21.504   3.681
38677W        W 7071  37.320  30.120  13.679
38678W        W 7072  30.663  21.003  14.459
38679W        W 7073  43.856  43.567  14.567
38680W        W 7074  43.979  41.329  13.915
38681W        W 7075  40.812  28.609  11.087
38682W        W 7076  30.530  41.140   3.268
38683W        W 7077  37.341   5.681  14.491
38684W        W 7078   4.879   4.769   5.225
38685W        W 7079  27.573  42.364   0.461
38686W        W 7080  43.437   3.016   4.306
38687W        W 7081   3.283  38.636  13.518
38688W        W 7082  26.253  19.026   4.223
38689W        W 7083  12.780   3.031  10.997
38690W        W 7084  44.117  36.214   1.214
38691W        W 7085  18.833   9.060   1.713
38692W        W 7086  10.130  27.681   1.933
38693W        W 7087  40.582  20.701  12.543
38694W        W 7088  40.338   5.513   1.834
38695W        W 7089   2.018  35.043   0.372
38696W        W 7090   9.379  33.886  14.870
38697W        W 7091  44.640  34.372  11.071
38698W        W 7092   7.267  35.476  12.623
38699W        W 7093  12.985  23.242  14.821
38700W        W 7094  43.336  34.208   0.372
38701W        W 7095  41.341   9.744  13.347
38702W        W 7096  16.596  18.285   3.824
38703W        W 7097  29.035  33.664  13.029
38704W        W 7098  41.867  12.792   2.135
38705W        W 7099  31.543   1.557   1.481
38706W        W 7100  38.020  19.646  12.010
38707W        W 7101   3.390  33.956   0.288
38708W        W 7102  12.082  37.956   0.017
38709W        W 7103   2.747  14.683  10.006
38710W        W 7104   9.206  21.999   0.146
38711W        W 7105  37.360   5.276   0.884
38712W        W 7106  35.303   9.999  12.892
38713W        W 7107   0.304  38.432   3.608
38714W        W 7108   3.719  30.137  12.440
38715W        W 7109  29.040  31.001  13.111
38716W        W 7110  26.772  10.442   0.702
38717W        W 7111  14.057  41.240   1.477
38718W        W 7112  27.567   6.181  12.898
38719W        W 7113   5.269  24.917  13.507
38720W        W 7114  26.442   1.835   0.302
38721W        W 7115   7.265  15.144  14.478
38722W        W 7116  20.544  13.284   4.302
38723W        W 7117  44.756  13.061  14.134
38724W        W 7118  15.646  41.828   1.320
38725W        W 7119  17.486   0.997  14.237
38726W        W 7120  14.392   2.288  10.651
38727W        W 7121  28.567  28.875  14.813
38728W        W 7122  33.812  36.455   3.777
38729W        W 7123  18.319  34.785   4.169
38730W        W 7124  26.471  30.613  10.641
38731W        W 7125   6.667  41.538   2.871
38732W        W 7126  30.618  36.923   1.098
38733W        W 7127  27.043  24.662   2.395
38734W        W 7128  37.925  33.984   4.675
38735W        W 7129  31.711  31.385  11.431
38736W        W 7130  23.535  21.667   3.154
38737W        W 7131  11.174  40.119   1.908
38738W        W 7132  39.924  34.083   4.495
38739W        W 7133   7.003  23.426   3.263
38740W        W 7134   3.032   7.787  11.640
38741W        W 7135  42.452   3.204  12.480
38742W        W 7136  44.307  23.124  11.164
38743W        W 7137  19.526   1.115   0.354
38744W        W 7138  28.018   8.421   4.702
38745W        W 7139   3.008   0.975   4.538
38746W        W 7140  26.917  30.531   2.250
38747W        W 7141  26.939   1.051  10.243
38748W        W 7142  35.515   1.811  12.956
38749W        W 7143   4.174  42.874   3.208
38750W        W 7144   3.525  31.864  13.920
38751W        W 7145   4.004  15.357  13.307
38752W        W 7146  21.912  35.585  14.017
38753W        W 7147  40.608   1.208  14.803
38754W        W 7148  31.507   3.438   2.200
38755W        W 7149  17.417  26.187  11.984
38756W        W 7150  43.331  43.218  12.613
38757W        W 7151  16.809   2.457   5.085
38758W        W 7152  16.189  28.684  11.189
38759W        W 7153  37.918  13.304   3.398
38760W        W 7154  21.211   2.483  11.118
38761W        W 7155  13.243  15.483   0.476
38762W        W 7156   2.659  29.068  10.749
38763W        W 7157  33.922  26.540  13.531
38764W        W 7158   1.134  32.807  11.385
38765W        W 7159  20.875   0.935   4.709
38766W        W 7160  34.868  14.185  13.721
38767W        W 7161  27.419   5.400  13.413
38768W        W 7162  39.519   5.475  14.932
38769W        W 7163   5.737  13.583   1.941
38770W        W 7164  10.481  30.040  12.841
38771W        W 7165  43.824   2.889   2.653
38772W        W 7166  27.590  15.217  11.694
38773W        W 7167  34.024  21.443  12.548
38774W        W 7168  38.764  12.848   3.654
38775W        W 7169  38.608  19.863   1.402
38776W        W 7170  14.789  33.596   3.170
38777W        W 7171  32.210  26.279   4.260
38778W        W 7172  14.242  12.390  14.058
38779W        W 7173  25.254  13.156  11.685
38780W        W 7174  10.228   4.473  11.973
38781W        W 7175  26.216  40.765   3.081
38782W        W 7176  30.447   4.426   2.201
38783W        W 7177  30.875  31.539  13.161
38784W        W 7178  14.863  13.844  14.093
38785W        W 7179  14.623  11.949  12.826
38786W        W 7180  42.241  29.508  12.364
38787W        W 7181  16.171  15.866   0.695
38788W        W 7182   0.684   1.313  11.114
38789W        W 7183  28.432   0.356   4.100
38790W        W 7184  34.694  31.087  13.976
38791W        W 7185  38.066   0.362  13.483
38792W        W 7186  18.683   9.730   3.037
38793W        W 7187  17.689  30.211  11.518
38794W        W 7188  17.705  16.641  14.929
38795W        W 7189  14.706   9.353  11.413
38796W        W 7190  31.825  37.575   2.844
38797W        W 7191  24.714   9.314  12.501
38798W        W 7192  25.411  17.045   1.403
38799W        W 7193   6.709  24.193   1.243
38800W        W 7194  42.048   5.447   2.866
38801W        W 7195  32.239  27.481  12.011
38802W        W 7196  43.082   9.643   0.749
38803W        W 7197  21.702  12.580   4.161
38804W        W 7198  17.088  24.965   4.204
38805W        W 7199  14.145  37.797  10.698
38806W        W 7200  41.158  30.928   3.457
38807W        W 7201   3.706  35.917   4.688
38808W        W 7202   0.725  26.918   1.669
38809W        W 7203  33.975  30.411  11.064
38810W        W 7204  20.259  42.852  13.910
38811W        W 7205  27.373  38.481  11.851
38812W        W 7206  28.928   5.695  14.240
38813W        W 7207  32.934  18.383   2.840
38814W        W 7208  42.164   9.870   4.692
38815W        W 7209  19.171  13.406   2.317
38816W        W 7210  31.364   1.809  14.858
38817W        W 7211   2.540  25.662   0.015
38818W        W 7212  35.793  13.584   2.297
38819W        W 7213  40.457  23.710  14.149
38820W        W 7214   7.139  25.723   3.738
38821W        W 7215   9.826  16.635   4.768
38822W        W 7216   5.888  22.706  11.673
38823W        W 7217  29.821  28.090   3.252
38824W        W 7218  15.847  15.569   2.398
38825W        W 7219   5.904  30.852  13.441
38826W        W 7220  15.247  18.539   0.365
38827W        W 7221  32.372  13.218  14.927
38828W        W 7222  39.777  15.888  14.969
38829W        W 7223  35.850   8.707   2.907
38830W        W 7224  27.981  25.140   0.784
38831W        W 7225  19.378  42.832   1.258
38832W        W 7226  28.899  26.695  10.690
38833W        W 7227  21.707  33.517   2.576
38834W        W 7228  43.340  23.207  13.015
38835W        W 7229  15.443   2.290   0.416
38836W        W 7230   0.041  36.439   4.196
38837W        W 7231  36.501  23.030  13.991
38838W        W 7232   1.038  36.483  11.896
38839W        W 7233  44.887   3.909   0.347
38840W        W 7234  43.060  29.314  11.069
38841W        W 7235  36.248  35.529   2.380
38842W        W 7236  32.398   2.958   3.956
38843W        W 7237  23.930  10.811  14.276
38844W        W 7238  29.622  40.318  10.755
38845W        W 7239  20.290  34.371   1.033
38846W        W 7240  42.384   7.091   1.441
38847W        W 7241  16.521  41.777   2.742
38848W        W 7242  38.582  25.617   3.841
38849W        W 7243  13.879  20.608   0.250
38850W        W 7244  13.325  23.194  10.281
38851W        W 7245  18.771   9.669  14.778
38852W        W 7246  24.207  35.273  13.495
38853W        W 7247   8.964  38.499  11.620
38854W        W 7248   2.461  13.025   0.014
38855W        W 7249  41.917  38.982  10.745
38856W        W 7250  26.580  42.412  10.322
38857W        W 7251  44.809  35.937  11.658
38858W        W 7252  23.291  26.572  13.779
38859W        W 7253   9.745  13.740  11.614
38860W        W 7254  14.693  31.627  11.796
38861W        W 7255  37.841  36.116   2.188
38862W        W 7256  12.781  39.858  13.144
38863W        W 7257  32.264  29.801   2.444
38864W        W 7258  14.761   8.202   2.142
38865W        W 7259   5.913   9.191   0.376
38866W        W 7260  33.323  18.100  14.032
38867W        W 7261  35.135  31.142  13.441
38868W        W 7262  39.545   7.445   4.671
38869W        W 7263  43.498   8.901  14.247
38870W        W 7264   7.873  27.566   1.404
38871W        W 7265  20.739   5.927   0.296
38872W        W 7266  16.212   6.717   2.697
38873W        W 7267  17.198  31.935  10.414
38874W        W 7268  11.367  21.092   1.018
38875W        W 7269  12.523   3.056   4.127
38876W        W 7270  29.076  25.978  12.504
38877W        W 7271  39.967  12.501  14.499
38878W        W 7272  15.775  23.148  14.619
38879W        W 7273  29.562  37.774  14.968
38880W        W 7274  32.379  33.635   3.243
38881W        W 7275  37.079  41.749  13.591
38882W        W 7276  16.169   5.068   0.862
38883W        W 7277  15.329  33.743  11.688
38884W        W 7278   0.526  14.314  10.940
38885W        W 7279  22.581  38.532   2.857
38886W        W 7280  29.451  13.824  10.609
38887W        W 7281  31.050  15.142   1.292
38888W        W 7282   4.306  39.583  12.662
38889W        W 7283  29.236  31.395  11.616
38890W        W 7284  32.363   5.894   2.835
38891W        W 7285  37.242  15.382  13.872
38892W        W 7286  23.052  43.974   1.414
38893W        W 7287  32.031  30.614  11.906
38894W        W 7288  42.025  32.979  12.712
38895W        W 7289  35.490  19.917  10.647
38896W        W 7290  12.760  27.956   4.966
38897W        W 7291  40.712  32.386   4.434
38898W        W 7292  17.780   6.559   2.615
38899W        W 7293  22.255  20.549   2.459
38900W        W 7294  25.767  42.351  12.415
38901W        W 7295  28.564  39.505  10.674
38902W        W 7296   9.006  15.856  14.669
38903W        W 7297  29.085  15.684  13.387
38904W        W 7298   9.891  20.217  10.645
38905W        W 7299  37.568  31.169  14.890
38906W        W 7300  33.073  25.426  12.886
38907W        W 7301  43.983  33.276  13.944
38908W        W 7302  22.303  13.266  12.728
38909W        W 7303   7.793   7.750  11.379
38910W        W 7304  20.157  36.946  14.938
38911W        W 7305  23.247  41.259   0.780
38912W        W 7306  33.856  39.300   2.750
38913W        W 7307  13.053   6.983   1.280
38914W        W 7308  20.169  28.130  11.841
38915W        W 7309  19.252  25.628  11.596
38916W        W 7310   7.361  44.739   0.021
38917W        W 7311  21.600  29.430   0.283
38918W        W 7312  37.944   7.220  14.667
38919W        W 7313  36.134   0.196   1.035
38920W        W 7314  19.028  18.794   3.297
38921W        W 7315  14.423  44.398   1.948
38922W        W 7316  27.222  13.796   1.917
38923W        W 7317  23.012   6.683   0.218
38924W        W 7318   2.844  42.240   0.912
38925W        W 7319  21.291  20.098   2.219
38926W        W 7320   8.827  24.641   0.632
38927W        W 7321  43.920  30.212  11.534
38928W        W 7322  12.705  44.551   2.852
38929W        W 7323  15.059   3.834  13.964
38930W        W 7324  37.598  34.099   3.992
38931W        W 7325  23.766  40.419  14.033
38932W        W 7326   3.391  40.176  11.992
38933W        W 7327  13.418  32.517   1.963
38934W        W 7328  15.670   1.017   4.083
38935W        W 7329  16.194  23.077   1.700
38936W        W 7330  37.836   0.905  11.278
38937W        W 7331  19.083   1.083   4.989
38938W        W 7332  15.348  42.892   1.839
38939W        W 7333  44.348  11.562  14.017
38940W        W 7334   6.113  23.876   0.322
38941W        W 7335   5.672  39.613  13.067
38942W        W 7336  27.622  29.065  10.524
38943W        W 7337   0.671   6.578   0.399
38944W        W 7338  23.818  25.155  13.923
38945W        W 7339  42.252  10.606   3.341
38946W        W 7340  38.995  20.198   4.370
38947W        W 7341  41.772  11.115  13.018
38948W        W 7342  37.056  29.156   4.997
38949W        W 7343  36.591  38.451   3.845
38950W        W 7344  11.298  18.623  12.615
38951W        W 7345  13.876  13.723   2.839
38952W        W 7346  40.586  27.730  11.061
38953W        W 7347  40.300  26.964   4.327
38954W        W 7348  13.569  24.482   0.336
38955W        W 7349   3.740  19.104   0.219
38956W        W 7350  34.980   5.589  11.680
38957W        W 7351  40.094  29.041   2.274
38958W        W 7352  44.463  27.537  12.907
38959W        W 7353  42.284   6.179  13.424
38960W        W 7354  37.048  10.629   3.792
38961W        W 7355  33.697  30.926   4.806
38962W        W 7356  36.568   4.186   0.890
38963W        W 7357  37.435  16.706  10.027
38964W        W 7358  42.472   8.017  10.840
38965W        W 7359  18.789  31.550  10.911
38966W        W 7360  23.160  11.903  11.152
38967W        W 7361  39.640   9.132   1.780
38968W        W 7362  17.024   3.343  11.549
38969W        W 7363   0.892  16.743  11.962
38970W        W 7364  38.821   4.609  14.415
38971W        W 7365  29.246  22.788   1.812
38972W        W 7366  26.543  11.429   9.870
38973W        W 7367  41.514  27.727   2.428
38974W        W 7368  22.022   7.137   2.822
38975W        W 7369  30.557  40.839   0.452
38976W        W 7370  44.765   6.730   0.156
38977W        W 7371  34.665  22.604   3.552
38978W        W 7372  42.717  32.016   3.234
38979W        W 7373  39.376  29.076   4.808
38980W        W 7374   6.695  35.664   3.713
38981W        W 7375  34.133  40.555  14.869
38982W        W 7376   3.803  17.797   4.595
38983W        W 7377   1.908  26.885  12.937
38984W        W 7378  10.742   0.956   0.510
38985W        W 7379  23.118  37.945   1.983
38986W        W 7380  44.192  31.108   0.312
38987W        W 7381  20.165  41.383   4.990
38988W        W 7382  43.343  11.665   4.613
38989W        W 7383  32.510  30.207   2.191
38990W        W 7384  21.605   7.170   0.595
38991W        W 7385   4.720  34.103  10.654
38992W        W 7386  37.116  26.372  14.964
38993W        W 7387   6.921  35.473  11.300
38994W        W 7388  28.749  16.807  14.052
38995W        W 7389  34.456  34.637   3.504
38996W        W 7390  40.417  27.048   2.896
38997W        W 7391  39.764   7.247  12.432
38998W        W 7392  40.836  26.990   0.542
38999W        W 7393  24.685   6.515   1.822
39000W        W 7394  11.658   7.490  13.324
39001W        W 7395   7.205  21.784  11.428
39002W        W 7396  30.661  42.124   1.390
39003W        W 7397  14.592  19.536   1.295
39004W        W 7398   1.040  15.019   9.867
39005W        W 7399  35.619  22.676   3.839
39006W        W 7400  16.621  44.852  14.036
39007W        W 7401  38.040   7.736   3.578
39008W        W 7402  20.023   0.726  14.182
39009W        W 7403  25.467  14.199  14.851
39010W        W 7404  17.897  30.489  11.891
39011W        W 7405  27.891  10.227   3.201
39012W        W 7406  18.826   5.895  14.413
39013W        W 7407  29.850  33.126  11.246
39014W        W 7408  19.480   9.751  14.528
39015W        W 7409   6.154  30.147  14.871
39016W        W 7410  43.291  30.788  11.165
39017W        W 7411  32.063  44.476   0.541
39018W        W 7412  32.004  25.864  13.342
39019W        W 7413   4.226  40.546  13.849
39020W        W 7414  25.158   6.581   0.253
39021W        W 7415  41.468  23.262   0.973
39022W        W 7416  24.344  41.293   4.174
39023W        W 7417  36.480  38.014   3.008
39024W        W 7418  19.156  13.242  10.702
39025W        W 7419   2.837   8.638   2.620
39026W        W 7420  11.046  37.865   1.800
39027W        W 7421  30.116  17.267   2.788
39028W        W 7422  30.036   9.071  10.664
39029W        W 7423  13.561   6.755  12.982
39030W        W 7424   4.439  36.167  14.094
39031W        W 7425  26.563  16.075  14.010
39032W        W 7426  39.126  21.792  10.946
39033W        W 7427  11.902  10.877  14.789
39034W        W 7428  43.377  24.050   4.171
39035W        W 7429  34.114  24.934  14.232
39036W        W 7430  31.624  36.914   3.391
39037W        W 7431  28.242   7.693  14.403
39038W        W 7432  35.281  12.121   4.082
39039W        W 7433  44.827  13.158   0.459
39040W        W 7434  22.969  10.089   3.235
39041W        W 7435   3.956  16.939  14.055
39042W        W 7436  41.406  14.222  13.508
39043W        W 7437   5.763  35.114  13.878
39044W        W 7438  23.460  10.915  14.510
39045W        W 7439  24.785  23.739   2.435
39046W        W 7440  23.627   5.176   1.869
39047W        W 7441  40.761  29.610  11.193
39048W        W 7442  27.637   2.088  11.235
39049W        W 7443  17.807  34.460  14.377
39050W        W 7444  22.629  29.070  13.773
39051W        W 7445  41.434   3.691  12.375
39052W        W 7446   1.452  10.409  12.449
39053W        W 7447  36.928   3.835  11.527
39054W        W 7448   5.540  33.171   0.840
39055W        W 7449  44.197  15.152   4.706
39056W        W 7450  35.508   9.420  10.723
39057W        W 7451  13.280  14.753   1.240
39058W        W 7452  34.657  44.591  12.877
39059W        W 7453  24.441  40.285   1.702
39060W        W 7454  43.414   0.363   1.020
39061W        W 7455  39.407   4.864   0.805
39062W        W 7456  24.214  17.703  12.563
39063W        W 7457  33.519  20.208  10.646
39064W        W 7458  25.701  20.025   3.370
39065W        W 7459  44.889  28.344  10.965
39066W        W 7460  10.271  38.649  14.023
39067W        W 7461  21.981  34.389   3.603
39068W        W 7462  16.133  42.923   3.869
39069W        W 7463  20.311  43.621   4.115
39070W        W 7464  21.572  10.786   4.545
39071W        W 7465  12.426  28.166  10.604
39072W        W 7466  11.414  27.480   0.772
39073W        W 7467  14.790  40.973   3.190
39074W        W 7468   6.501   3.370   3.816
39075W        W 7469  36.296  15.214   1.633
39076W        W 7470  36.628  31.684  13.886
39077W        W 7471  40.769   7.694  14.329
39078W        W 7472  43.861  40.595  13.148
39079W        W 7473  17.189   4.521  12.450
39080W        W 7474  33.950  31.596  14.305
39081W        W 7475   7.349  33.331  11.504
39082W        W 7476  22.368  21.228  11.362
39083W        W 7477   3.467  16.828   4.593
39084W        W 7478  24.448  13.172  11.291
39085W        W 7479  26.808  19.577  11.543
39086W        W 7480  23.754  30.535  10.493
39087W        W 7481  40.599  14.595  14.387
39088W        W 7482   8.370   9.655  13.550
39089W        W 7483  10.442  15.104  13.519
39090W        W 7484  20.359  37.750  10.145
39091W        W 7485  12.507  11.541  14.439
39092W        W 7486  29.064  36.936   2.748
39093W        W 7487   3.282   0.864  13.837
39094W        W 7488   7.678  41.445  13.264
39095W        W 7489  14.127   4.136   2.028
39096W        W 7490   1.228  32.136   3.037
39097W        W 7491  10.111  39.832  10.336
39098W        W 7492   3.052  24.009  13.175
39099W        W 7493   3.676  35.675   2.426
39100W        W 7494  24.280  11.935   2.787
39101W        W 7495  26.618  26.063  12.015
39102W        W 7496  11.904  43.812   1.232
39103W        W 7497   5.310  16.566   2.575
39104W        W 7498  28.926  38.441  12.885
39105W        W 7499   9.752  41.157  14.359
39106W        W 7500   0.935   7.674  10.823
39107W        W 7501  18.287  41.714  13.489
39108W        W 7502  22.737   3.267   1.420
39109W        W 7503  43.037  44.482   0.219
39110W        W 7504  31.474   4.298   1.193
39111W        W 7505  24.035  43.077  12.401
39112W        W 7506  40.244  41.472  14.522
39113W        W 7507  44.075  25.293  14.808
39114W        W 7508   2.237  17.312   2.551
39115W        W 7509  14.276  35.106   3.859
39116W        W 7510   2.245  40.045  13.348
39117W        W 7511  39.479  28.200   0.451
39118W        W 7512   4.861   5.409  13.835
39119W        W 7513  28.204  36.582  13.556
39120W        W 7514  34.189  19.890   1.571
39121W        W 7515  12.292  20.670  12.871
39122W        W 7516  43.992  35.803  12.961
39123W        W 7517  11.948  22.551  10.427
39124W        W 7518  36.090   5.081   0.414
39125W        W 7519  26.900  24.555  12.886
39126W        W 7520  27.910  14.592   1.845
39127W        W 7521   1.604  18.837  12.549
39128W        W 7522   4.371  29.491  13.393
39129W        W 7523  16.102   5.706   3.095
39130W        W 7524  14.002  12.064   2.966
39131W        W 7525  38.953   2.880  11.822
39132W        W 7526   6.765  38.713  13.317
39133W        W 7527  32.619   0.150   2.332
39134W        W 7528  12.244  14.761  12.105
39135W        W 7529  14.787  13.432   4.092
39136W        W 7530  20.193  31.698   3.725
39137W        W 7531  12.777  13.570   0.274
39138W        W 7532  12.939  18.703  12.689
39139W        W 7533  40.752   0.724   0.372
39140W        W 7534   9.184  38.053   3.853
39141W        W 7535  35.364  10.796   3.536
39142W        W 7536  40.754  25.481   4.203
39143W        W 7537   8.856  41.834  13.113
39144W        W 7538   6.683  23.167  14.309
39145W        W 7539  25.048  10.324   1.607
39146W        W 7540  23.006   4.773  12.557
39147W        W 7541  42.738  16.617  12.968
39148W        W 7542  22.279  12.782   4.292
39149W        W 7543  23.727  13.483   2.582
39150W        W 7544  40.581  32.073  14.413
39151W        W 7545  27.962  34.086  13.833
39152W        W 7546  19.725  33.329   4.181
39153W        W 7547  22.248  33.554  11.466
39154W        W 7548   1.947  28.571   0.958
39155W        W 7549  24.567   4.000   1.031
39156W        W 7550  18.535  23.796  11.111
39157W        W 7551  14.300  43.747   4.542
39158W        W 7552  30.168  39.270   2.434
39159W        W 7553   7.931  22.248   0.372
39160W        W 7554  39.820   7.686  10.925
39161W        W 7555  13.823   9.265   2.348
39162W        W 7556  22.019  28.279   0.893
39163W        W 7557   3.443  15.767  13.107
39164W        W 7558  34.879   4.355  12.045
39165W        W 7559   6.210   1.766   0.723
39166W        W 7560   4.476  43.011  10.933
39167W        W 7561  13.546  21.892   0.026
39168W        W 7562  32.799  30.086  13.463
39169W        W 7563   1.142  24.254   4.215
39170W        W 7564  24.135  44.200  13.444
39171W        W 7565  20.534  15.719   3.772
39172W        W 7566  35.443  23.277  13.964
39173W        W 7567   7.357  16.618   4.546
39174W        W 7568   6.680  21.669   4.265
39175W        W 7569   4.947  28.411   1.967
39176W        W 7570  12.053   0.962   4.997
39177W        W 7571   5.905   7.432   4.463
39178W        W 7572  25.209  26.560  10.735
39179W        W 7573  22.143  23.949  11.517
39180W        W 7574  17.291  22.740   1.345
39181W        W 7575   3.975   9.742   0.125
39182W        W 7576   9.517  39.301  13.859
39183W        W 7577  29.495  31.326  11.112
39184W        W 7578  26.028  23.106   4.799
39185W        W 7579  43.739  21.304   2.439
39186W        W 7580  11.996  12.242   0.682
39187W        W 7581  42.235  42.829   4.485
39188W        W 7582   3.190  21.816  14.367
39189W        W 7583  19.516  22.192  13.341
39190W        W 7584   9.506  36.902  11.122
39191W        W 7585  23.941  43.688   5.030
39192W        W 7586  31.020  11.909  11.543
39193W        W 7587  11.876  12.124  12.086
39194W        W 7588  38.554  19.552  12.052
39195W        W 7589   0.489  32.503   0.035
39196W        W 7590   0.625   1.790   0.314
39197W        W 7591  29.557  34.294   3.827
39198W        W 7592  28.609  11.177  14.356
39199W        W 7593   9.396  36.716   2.805
39200W        W 7594  11.573   0.455  10.221
39201W        W 7595  32.384  31.964  12.374
39202W        W 7596  22.705   4.362  11.424
39203W        W 7597  33.650   3.392   3.462
39204W        W 7598  30.915  34.887   3.386
39205W        W 7599  17.380  32.383   3.326
39206W        W 7600   5.672  18.668   1.825
39207W        W 7601  39.776  33.391  13.440
39208W        W 7602  41.910  22.800  14.509
39209W        W 7603  12.166   1.707   1.136
39210W        W 7604  30.151  18.502  13.343
39211W        W 7605  20.006  32.602  12.229
39212W        W 7606   6.406   5.878   4.864
39213W        W 7607   4.279   2.969  11.131
39214W        W 7608  20.337  39.816  11.590
39215W        W 7609  10.655   1.724   2.719
39216W        W 7610  36.328  27.654  11.665
39217W        W 7611   8.021  15.514  14.868
39218W        W 7612  34.060  38.343  11.854
39219W        W 7613  33.043   6.745   3.797
39220W        W 7614  18.315  27.072  11.219
39221W        W 7615  17.101  21.064   3.672
39222W        W 7616  11.358  11.274  11.871
39223W        W 7617  11.006  29.941  13.990
39224W        W 7618   6.380  13.657  11.481
39225W        W 7619   3.865  37.112   4.197
39226W        W 7620  10.884  15.218   2.450
39227W        W 7621  33.462   8.248  10.589
39228W        W 7622  31.874  27.499   3.237
39229W        W 7623   0.498  12.618  12.580
39230W        W 7624  15.857  13.239   2.343
39231W        W 7625  16.925  41.733  13.972
39232W        W 7626  26.686  42.468  14.963
39233W        W 7627  33.097  13.485   2.236
39234W        W 7628  18.698  16.979  14.785
39235W        W 7629   6.425  24.665   3.115
39236W        W 7630  13.050   6.855  11.481
39237W        W 7631   0.386  13.818  12.063
39238W        W 7632  38.434  19.698  10.776
39239W        W 7633  13.330  41.054   4.105
39240W        W 7634  42.011  14.328   0.909
39241W        W 7635  34.518   4.053  14.482
39242W        W 7636   5.598   8.869  10.972
39243W        W 7637  16.081  43.919   4.146
39244W        W 7638  22.541   8.884   4.454
39245W        W 7639  19.105   4.892   0.930
39246W        W 7640  15.866  42.890   0.685
39247W        W 7641   4.304  26.619   1.495
39248W        W 7642  28.083  37.594  13.389
39249W        W 7643  31.223  27.727  13.024
39250W        W 7644   4.186   9.600  13.496
39251W        W 7645  39.945  17.023   5.096
39252W        W 7646  21.303  14.841  14.881
39253W        W 7647  35.359  38.337   1.207
39254W        W 7648  14.748  43.867   0.347
39255W        W 7649   8.042   7.902   4.766
39256W        W 7650   2.181   1.828   4.581
39257W        W 7651  33.481  36.874  14.383
39258W        W 7652  12.206  18.979  10.515
39259W        W 7653   6.043  27.924  11.673
39260W        W 7654  42.054   7.174  12.964
39261W        W 7655  39.797  13.655  13.044
39262W        W 7656  21.650  32.646   3.642
39263W        W 7657  38.402   8.225  12.597
39264W        W 7658  15.745  44.949  11.566
39265W        W 7659  26.877  32.157   9.991
39266W        W 7660  37.362  11.400   0.236
39267W        W 7661  37.608  17.722  11.478
39268W        W 7662   8.348  16.121   4.485
39269W        W 7663   6.884  17.605   4.758
39270W        W 7664   0.776  27.669   2.867
39271W        W 7665  25.642   0.776  13.861
39272W        W 7666  27.908  20.203  13.347
39273W        W 7667  39.738  13.136   3.210
39274W        W 7668  20.572   1.425  11.264
39275W        W 7669  39.131  38.925   1.519
39276W        W 7670  19.297  21.968   0.445
39277W        W 7671  16.572  44.258   9.916
39278W        W 7672  42.418  44.998   4.227
39279W        W 7673  13.875  36.346   4.090
39280W        W 7674   0.333  39.974  13.338
39281W        W 7675  31.306  21.126  10.249
39282W        W 7676  18.769  10.390   4.072
39283W        W 7677  24.404  42.676   0.899
39284W        W 7678  13.815  15.280   1.774
39285W        W 7679  41.106   9.216  10.753
39286W        W 7680  35.133  40.347  13.113
39287W        W 7681  20.134  40.684  11.647
39288W        W 7682  21.089  16.669   3.386
39289W        W 7683  24.166   3.791  13.793
39290W        W 7684  19.480   0.302  12.661
39291W        W 7685   1.639  32.407   2.817
39292W        W 7686  28.337   8.611   4.323
39293W        W 7687  32.748  26.096  14.933
39294W        W 7688  35.079  17.768   2.710
39295W        W 7689   8.896  43.185  11.766
39296W        W 7690  27.139  39.116  12.915
39297W        W 7691   8.550   5.788   0.811
39298W        W 7692   2.866  32.181   4.623
39299W        W 7693  25.701  38.714  12.457
39300W        W 7694  31.078  30.240  11.194
39301W        W 7695  41.521  27.161   3.770
39302W        W 7696  32.993  16.570  12.857
39303W        W 7697  38.698  35.682   1.491
39304W        W 7698  32.169   1.494   2.748
39305W        W 7699  44.826  13.195  13.003
39306W        W 7700   1.259  39.970  10.634
39307W        W 7701  40.976  26.179   3.178
39308W        W 7702  33.676  27.303   3.275
39309W        W 7703   6.667  23.819   3.217
39310W        W 7704  10.630  34.105   0.314
39311W        W 7705   2.348  34.994   3.229
39312W        W 7706   9.338  16.041   4.339
39313W        W 7707  10.598  31.694  14.333
39314W        W 7708  39.104  28.022  11.727
39315W        W 7709   5.433  34.513  11.409
39316W        W 7710  14.715   1.843   4.165
39317W        W 7711  33.491  24.709   2.218
39318W        W 7712  29.155  32.588   4.460
39319W        W 7713   5.067  20.012  12.563
39320W        W 7714  20.951  37.313  13.027
39321W        W 7715  21.718  28.664  10.667
39322W        W 7716  32.627   3.936   0.510
39323W        W 7717  14.366  19.003  10.506
39324W        W 7718  17.739   1.238   3.063
39325W        W 7719  21.008  43.746   2.333
39326W        W 7720   8.926  35.915   2.758
39327W        W 7721  19.535  27.534  14.295
39328W        W 7722  19.060  12.618  13.494
39329W        W 7723  27.965  43.239   3.674
39330W        W 7724   0.259   3.017   2.437
39331W        W 7725  23.801  13.655   4.165
39332W        W 7726  40.943  23.198   1.709
39333W        W 7727  19.244  20.754   3.266
39334W        W 7728  31.559  16.776  11.933
39335W        W 7729  35.711  39.538  13.454
39336W        W 7730  31.065  40.787   4.323
39337W        W 7731  24.235  35.397   3.073
39338W        W 7732  32.540  11.067  10.718
39339W        W 7733  21.468  24.676  11.928
39340W        W 7734  28.948  33.445   0.402
39341W        W 7735   0.117  34.041  13.811
39342W        W 7736  35.366  25.665   4.718
39343W        W 7737  11.601  18.280  12.019
39344W        W 7738   6.430  28.511  10.651
39345W        W 7739  43.194   6.172   0.176
39346W        W 7740  28.967  36.532   0.416
39347W        W 7741  17.859  35.916   0.300
39348W        W 7742  30.700  11.601  13.834
39349W        W 7743  36.856  23.293   0.487
39350W        W 7744  26.010  24.448  13.916
39351W        W 7745  34.139  33.492  14.450
39352W        W 7746  28.340   6.798   4.648
39353W        W 7747  23.175   7.058  11.394
39354W        W 7748  19.292   0.444   4.208
39355W        W 7749  43.305   4.904   3.097
39356W        W 7750  27.013  14.530   2.305
39357W        W 7751  35.372  26.524   4.533
39358W        W 7752  28.888  10.225   0.355
39359W        W 7753  34.130  31.966  12.804
39360W        W 7754  18.297  11.067   3.764
39361W        W 7755  35.609  28.734  11.028
39362W        W 7756  11.842   1.636   2.776
39363W        W 7757  43.467   1.300   0.001
39364W        W 7758  32.475   7.812   2.299
39365W        W 7759   7.781   6.866  11.535
39366W        W 7760  34.882  13.987  12.421
39367W        W 7761  34.371   8.144   3.185
39368W        W 7762  20.378  38.424  14.461
39369W        W 7763   9.728   4.033  14.856
39370W        W 7764  16.588  36.479   5.408
39371W        W 7765  35.906  18.058   1.420
39372W        W 7766   9.386   6.894   0.048
39373W        W 7767   3.456   2.873   1.685
39374W        W 7768  21.710  32.530  12.634
39375W        W 7769   3.391  21.203  13.906
39376W        W 7770  32.077  39.001  14.313
39377W        W 7771  26.927  38.771  10.661
39378W        W 7772  16.108  10.311  11.077
39379W        W 7773  31.950  36.093   3.111
39380W        W 7774   1.204  28.075   3.405
39381W        W 7775  29.993  28.944  10.739
39382W        W 7776  30.970  17.548   2.172
39383W        W 7777  12.288   1.453   2.527
39384W        W 7778  30.212  42.060  10.700
39385W        W 7779  14.721  31.166  12.049
39386W        W 7780  31.234   0.489   0.961
39387W        W 7781  23.710  30.471  10.999
39388W        W 7782  43.503  41.998   0.806
39389W        W 7783  31.661  23.697   3.187
39390W        W 7784  36.272  28.515   1.645
39391W        W 7785  38.263  42.606  13.077
39392W        W 7786   8.152   6.708  13.284
39393W        W 7787   7.626  10.271  10.730
39394W        W 7788  42.709  37.386   4.478
39395W        W 7789  20.121   8.788   4.371
39396W        W 7790  40.307  25.273  11.581
39397W        W 7791   8.365  43.031   1.724
39398W        W 7792  37.112  33.621  11.547
39399W        W 7793  24.161  27.018   3.093
39400W        W 7794  36.926  37.080  13.574
39401W        W 7795  16.518  36.351  10.409
39402W        W 7796   0.784  31.975  11.080
39403W        W 7797  13.226  24.897   2.349
39404W        W 7798  27.109  40.729  10.841
39405W        W 7799  28.786  14.273  14.486
39406W        W 7800   1.219  37.621   3.290
39407W        W 7801  10.595  17.675  14.406
39408W        W 7802  42.079  21.985  14.000
39409W        W 7803  34.375  10.685  13.484
39410W        W 7804  18.916  36.123  12.485
39411W        W 7805  10.712   1.259  10.548
39412W        W 7806  21.977  19.700   2.160
39413W        W 7807  25.108  25.192   3.758
39414W        W 7808  38.986  33.112  10.495
39415W        W 7809  13.565  11.612   4.633
39416W        W 7810   8.533  11.904   1.659
39417W        W 7811   0.853   0.748  13.252
39418W        W 7812  29.394   6.902   0.846
39419W        W 7813  12.138  18.624  14.360
39420W        W 7814  39.771  19.398  12.372
39421W        W 7815  32.233  29.389  13.172
39422W        W 7816  20.585  18.319   1.023
39423W        W 7817  30.183  29.258   4.099
39424W        W 7818   7.096  37.806  12.090
39425W        W 7819   1.722  40.941  14.407
39426W        W 7820  20.680   3.321  14.968
39427W        W 7821   3.300  17.280   1.722
39428W        W 7822  24.045  33.555   3.611
39429W        W 7823  39.364  17.708  14.448
39430W        W 7824   5.622  28.583   3.835
39431W        W 7825  30.595  17.125  10.587
39432W        W 7826   3.367   4.002  11.118
39433W        W 7827  26.197   3.672   1.455
39434W        W 7828   8.770  17.510  12.984
39435W        W 7829  13.685  32.762   4.332
39436W        W 7830  37.363  15.763   4.511
39437W        W 7831   7.413   4.784   0.786
39438W        W 7832  25.015   7.386   3.856
39439W        W 7833  36.977  38.228  12.573
39440W        W 7834  23.206  41.315   1.841
39441W        W 7835  31.335   7.762   0.580
39442W        W 7836  25.927  36.860   3.606
39443W        W 7837  32.406  40.562   2.156
39444W        W 7838  14.209  21.156  14.560
39445W        W 7839  23.022  35.374  13.023
39446W        W 7840  14.095  39.849   1.561
39447W        W 7841   2.806  25.447  10.784
39448W        W 7842   6.180  32.372   4.185
39449W        W 7843   8.757  27.515   1.873
39450W        W 7844  40.822  42.236  11.487
39451W        W 7845  41.886   3.685   0.525
39452W        W 7846  39.543  42.394   1.427
39453W        W 7847  25.951  11.348  14.003
39454W        W 7848  44.460  40.850   2.236
39455W        W 7849  21.531  25.612  11.425
39456W        W 7850   9.816   3.097  14.574
39457W        W 7851  37.176   5.938   0.338
39458W        W 7852   2.275  33.128  10.699
39459W        W 7853  38.343  41.319  13.387
39460W        W 7854  34.378   6.618   1.995
39461W        W 7855  34.885  16.891   4.821
39462W        W 7856   6.678  10.749   3.242
39463W        W 7857  38.234  19.251  10.675
39464W        W 7858   8.966  25.158   1.395
39465W        W 7859  31.630  15.506   0.418
39466W        W 7860  35.941  20.726   1.317
39467W        W 7861  42.719   8.108   4.048
39468W        W 7862  21.612   4.035   2.864
39469W        W 7863  34.411  10.764  12.549
39470W        W 7864  38.320  16.347  11.124
39471W        W 7865  41.371  27.470   0.679
39472W        W 7866  40.840  35.541  10.621
39473W        W 7867   4.781  36.527   4.806
39474W        W 7868  26.458  24.469  11.511
39475W        W 7869  41.877  26.823   5.030
39476W        W 7870  34.404  34.772  11.762
39477W        W 7871   8.987  36.588   0.434
39478W        W 7872   7.508  11.713   3.536
39479W        W 7873  29.850  19.238  10.662
39480W        W 7874  27.978  23.929  12.028
39481W        W 7875   2.431  43.520   2.800
39482W        W 7876  32.136  10.506  12.985
39483W        W 7877  20.289  30.001  13.051
39484W        W 7878  23.206   1.786  11.443
39485W        W 7879  13.857  16.205   0.877
39486W        W 7880  25.000  29.057  10.885
39487W        W 7881  19.590  33.136  13.411
39488W        W 7882   1.295  41.403   3.843
39489W        W 7883  31.436  12.227   3.568
39490W        W 7884   8.164  12.714   0.444
39491W        W 7885  19.130  15.812   3.971
39492W        W 7886  25.592   8.258   1.537
39493W        W 7887  29.976  41.205   2.260
39494W        W 7888  17.123   3.261  14.507
39495W        W 7889  19.277   3.413   2.075
39496W        W 7890  27.682  31.165   1.407
39497W        W 7891  10.214   8.821  11.659
39498W        W 7892  23.510  41.811  13.926
39499W        W 7893  36.693  32.477   2.723
39500W        W 7894  19.958  35.647   2.263
39501W        W 7895  22.056  43.528  13.149
39502W        W 7896  26.248  34.102  11.913
39503W        W 7897  24.038  29.301  11.170
39504W        W 7898  30.110  23.765   1.362
39505W        W 7899   0.764  12.628   3.405
39506W        W 7900   1.256  10.894   1.510
39507W        W 7901  38.048  35.070  12.435
39508W        W 7902  39.514   5.877   0.934
39509W        W 7903  24.641  33.661   4.182
39510W        W 7904  21.789  17.391  11.080
39511W        W 7905  22.653   0.021   0.334
39512W        W 7906  37.093  12.535   0.897
39513W        W 7907  22.004   2.468  10.756
39514W        W 7908  41.508  17.890   4.461
39515W        W 7909  25.903  23.491   3.408
39516W        W 7910   9.187   6.970   3.473
39517W        W 7911  33.012  38.544  13.417
39518W        W 7912   2.886   3.260   4.105
39519W        W 7913  15.681  17.634   0.390
39520W        W 7914  38.318  32.355  14.498
39521W        W 7915  38.390  29.430  14.925
39522W        W 7916  10.138  43.128  12.979
39523W        W 7917  10.416  44.895  14.725
39524W        W 7918  12.195  32.610   0.287
39525W        W 7919  42.285  36.230   2.417
39526W        W 7920  31.882  15.128   1.791
39527W        W 7921  33.968  17.651  12.543
39528W        W 7922  19.274   4.479  14.758
39529W        W 7923  34.038  10.774  11.554
39530W        W 7924   4.427   7.532  12.502
39531W        W 7925  26.010   5.891   2.403
39532W        W 7926   3.611  44.606  12.537
39533W        W 7927  32.104  23.499   1.417
39534W        W 7928  39.612   2.750   2.308
39535W        W 7929  38.770  19.607   3.357
39536W        W 7930  39.069  28.937  13.881
39537W        W 7931   6.115  37.884   1.280
39538W        W 7932  23.964  13.650  12.563
39539W        W 7933   3.088  22.019   4.538
39540W        W 7934  33.899   5.054   0.456
39541W        W 7935  43.207  37.446   0.770
39542W        W 7936   0.536  13.722   1.236
39543W        W 7937  10.834  16.983  14.960
39544W        W 7938  12.107  14.497   2.596
39545W        W 7939   0.086  10.225   1.312
39546W        W 7940  31.018   0.013   0.898
39547W        W 7941  18.053  29.932   4.045
39548W        W 7942  42.718  24.171   0.927
39549W        W 7943  39.079  42.408  13.400
39550W        W 7944   9.373  44.263  14.391
39551W        W 7945  15.139  17.311  14.414
39552W        W 7946  25.226  31.801   2.625
39553W        W 7947  23.939  40.484  12.936
39554W        W 7948  32.260   0.284  11.173
39555W        W 7949  21.424  37.535  13.002
39556W        W 7950  13.780  42.400  11.486
39557W        W 7951  35.459  38.886   1.227
39558W        W 7952  25.131  24.661   4.181
39559W        W 7953   8.858  24.102   4.908
39560W        W 7954  38.390  21.221  12.873
39561W        W 7955   4.964  27.324   1.290
39562W        W 7956   3.902   4.530  12.486
39563W        W 7957  39.268  33.715  13.353
39564W        W 7958  38.394  15.748  10.664
39565W        W 7959  44.523  43.050   0.895
39566W        W 7960  37.151  17.131  14.571
39567W        W 7961  20.117  31.114   2.384
39568W        W 7962  23.768  30.360   2.968
39569W        W 7963   9.891  13.820   4.565
39570W        W 7964  43.308  31.782   0.975
39571W        W 7965   5.420  11.154   2.829
39572W        W 7966  44.940  33.248  12.109
39573W        W 7967   2.588  16.006   0.544
39574W        W 7968  17.601  37.497  12.153
39575W        W 7969  32.216   1.578   0.911
39576W        W 7970  23.749  37.935  13.100
39577W        W 7971   9.659  24.141   0.434
39578W        W 7972  20.651  27.934   3.246
39579W        W 7973  29.114  12.297   3.649
39580W        W 7974  14.762   1.469   4.531
39581W        W 7975  15.748  14.760   3.574
39582W        W 7976  13.724  39.919  14.596
39583W        W 7977  11.845   4.742  12.089
39584W        W 7978  42.852  38.847  14.011
39585W        W 7979  43.397   3.361  13.542
39586W        W 7980  44.535  44.222  13.352
39587W        W 7981  10.311  36.373   0.796
39588W        W 7982  21.707   4.792  11.179
39589W        W 7983   2.316  21.785  14.821
39590W        W 7984  19.123   8.233  14.232
39591W        W 7985  33.921  37.160   3.181
39592W        W 7986  23.699  10.980  14.984
39593W        W 7987  43.155   2.327   3.424
39594W        W 7988  20.783  24.632   4.323
39595W        W 7989  15.384  12.938  14.273
39596W        W 7990  41.675  34.969  13.807
39597W        W 7991  38.323   1.569  11.144
39598W        W 7992  40.006  40.506  12.636
39599W        W 7993  42.964  19.685   4.615
39600W        W 7994   6.254  20.212  13.525
39601W        W 7995  14.277  23.044   3.687
39602W        W 7996   0.877  32.609  14.455
39603W        W 7997  23.599  35.977   3.373
39604W        W 7998  31.074  44.622   3.645
39605W        W 7999  32.686  32.464  12.541
39606W        W 8000   6.001   2.541   4.953
39607W        W 8001  17.730  26.780  14.068
39608W        W 8002  22.190  11.080  12.069
39609W        W 8003  34.576  11.824  10.945
39610W        W 8004  17.666  44.930   4.624
39611W        W 8005  11.661  18.957   1.859
39612W        W 8006   2.082  41.799   5.076
39613W        W 8007  13.334  31.080  13.184
39614W        W 8008  15.887  38.044   1.268
39615W        W 8009  44.300  31.025  14.796
39616W        W 8010  40.274  36.175  12.217
39617W        W 8011  30.882  18.601  10.701
39618W        W 8012  19.228  43.711  13.845
39619W        W 8013  11.271  19.559  14.808
39620W        W 8014  30.175  11.182  12.017
39621W        W 8015  20.730  41.075  12.881
39622W        W 8016   0.411  34.901   4.082
39623W        W 8017   8.684   8.599  11.512
39624W        W 8018  20.526  35.683   2.216
39625W        W 8019  10.997   5.444  12.125
39626W        W 8020  12.883  36.353   3.843
39627W        W 8021  31.317  22.981  13.946
39628W        W 8022   2.946  41.179  10.739
39629W        W 8023  42.846   1.323  13.054
39630W        W 8024  16.125  28.723   1.255
39631W        W 8025  33.497  31.057   3.805
39632W        W 8026  10.630  19.235  11.125
39633W        W 8027  44.969  30.243   2.302
39634W        W 8028   2.404  27.517  11.006
39635W        W 8029  14.650  37.116   2.170
39636W        W 8030  24.511  10.564   0.852
39637W        W 8031  39.390   0.754   4.311
39638W        W 8032   7.747  14.828  10.973
39639W        W 8033  29.054  42.761   3.377
39640W        W 8034  27.059  30.586  13.273
39641W        W 8035   4.864  23.049   0.618
39642W        W 8036  31.640  23.250   1.323
39643W        W 8037  39.801  19.564  11.497
39644W        W 8038   6.736  42.935  13.866
39645W        W 8039  26.119   7.143   2.837
39646W        W 8040  44.423  22.164   0.012
39647W        W 8041  37.555  12.747   1.043
39648W        W 8042   6.600  31.840  12.833
39649W        W 8043  33.512  17.231   2.745
39650W        W 8044  27.133  39.233   4.190
39651W        W 8045   6.830  28.983   2.257
39652W        W 8046   7.304  16.050  12.927
39653W        W 8047  17.702  22.450  11.731
39654W        W 8048  20.033   1.054   2.816
39655W        W 8049  31.416  43.730   2.422
39656W        W 8050  27.123  17.347  11.519
39657W        W 8051  33.428  35.570  10.640
39658W        W 8052   5.342   8.086  12.044
39659W        W 8053  29.762  11.853  10.725
39660W        W 8054  13.256  27.221  12.858
39661W        W 8055  35.794  15.456  14.799
39662W        W 8056  39.732   3.348   4.675
39663W        W 8057  12.693  14.165  12.754
39664W        W 8058   5.333  24.476  10.888
39665W        W 8059  10.306  16.422  12.913
39666W        W 8060  40.875  34.644   3.632
39667W        W 8061  23.021  15.825   4.726
39668W        W 8062  41.908  30.314   1.978
39669W        W 8063  24.129   7.835  14.845
39670W        W 8064  12.070  29.177  13.399
39671W        W 8065  28.922  33.820   4.099
39672W        W 8066  40.126  26.630  10.966
39673W        W 8067   9.263   4.404  13.715
39674W        W 8068  21.009  24.720  12.844
39675W        W 8069  30.617  19.222  11.226
39676W        W 8070  32.400  35.408  10.603
39677W        W 8071  26.935  15.327  13.033
39678W        W 8072   7.970  23.735  11.077
39679W        W 8073   0.231  12.645   4.267
39680W        W 8074  16.795  30.044   1.396
39681W        W 8075  36.574  26.130  12.860
39682W        W 8076   3.596  16.298   0.712
39683W        W 8077  44.937  30.537   0.430
39684W        W 8078  14.141  15.457   4.893
39685W        W 8079  37.596  44.190  11.943
39686W        W 8080  31.998  33.167   0.387
39687W        W 8081  37.980   3.175   1.884
39688W        W 8082  31.666  26.531  14.925
39689W        W 8083  10.849   4.494  12.135
39690W        W 8084  17.142   7.927   3.910
39691W        W 8085   0.457  25.741   4.100
39692W        W 8086  24.353  42.900   5.063
39693W        W 8087  32.377  31.662  13.927
39694W        W 8088  15.523   5.430  11.630
39695W        W 8089   1.892   0.953  14.137
39696W        W 8090  10.202  27.586  13.937
39697W        W 8091  39.969  42.501  11.507
39698W        W 8092  11.599  23.541  12.024
39699W        W 8093  40.810  13.059   3.166
39700W        W 8094  43.558  44.289  11.577
39701W        W 8095  13.421  17.351   4.069
39702W        W 8096   9.942  15.259  13.484
39703W        W 8097   5.160  16.133   1.431
39704W        W 8098  15.963  25.180  11.235
39705W        W 8099  10.819  13.322  14.429
39706W        W 8100  34.625  44.616   4.036
39707W        W 8101  23.878  36.693  13.378
39708W        W 8102  39.875  16.773   4.638
39709W        W 8103   2.934  13.372   0.766
39710W        W 8104  16.349  41.427   2.376
39711W        W 8105  19.002   7.922  13.452
39712W        W 8106  29.052  14.065   0.420
39713W        W 8107  10.086  15.388  11.947
39714W        W 8108   0.004   0.829   1.249
39715W        W 8109  24.927  44.042   1.839
39716W        W 8110  38.236   9.820  14.436
39717W        W 8111  34.530  22.152   3.807
39718W        W 8112  37.534  21.154   1.795
39719W        W 8113  19.682  39.605  14.397
39720W        W 8114  20.093  18.533  13.966
39721W        W 8115  31.831  39.831   4.470
39722W        W 8116  34.865  40.426  13.538
39723W        W 8117  30.543  18.754   3.061
39724W        W 8118  32.695  20.179   4.603
39725W        W 8119  44.368  10.768  14.476
39726W        W 8120  26.099  28.137   0.855
39727W        W 8121  14.474  11.011   4.018
39728W        W 8122  22.944  24.137  13.915
39729W        W 8123  31.516  41.361   2.466
39730W        W 8124  24.170  25.758  12.705
39731W        W 8125  41.471   9.063  11.427
39732W        W 8126  30.610  21.298  13.430
39733W        W 8127   4.424  24.021   4.549
39734W        W 8128  14.856  25.994   0.307
39735W        W 8129  22.770  41.459   3.274
39736W        W 8130  38.865  41.305  10.695
39737W        W 8131  31.077  33.373  13.307
39738W        W 8132  28.877   6.860  10.588
39739W        W 8133  38.548   8.224   1.333
39740W        W 8134  28.542  22.171  11.880
39741W        W 8135  29.540  24.757  11.164
39742W        W 8136  44.063  19.992  13.791
39743W        W 8137   3.191  18.842   1.868
39744W        W 8138  17.305  42.083  12.040
39745W        W 8139   1.449  26.510  14.501
39746W        W 8140  30.147  29.606  11.898
39747W        W 8141   2.860  10.913  13.323
39748W        W 8142   5.840   5.765   3.200
39749W        W 8143  35.573  25.592   1.393
39750W        W 8144   1.983  20.694  14.185
39751W        W 8145  22.019   5.232   2.764
39752W        W 8146  19.961  20.693  12.462
39753W        W 8147  17.804   5.226  14.914
39754W        W 8148  27.028  21.510  12.053
39755W        W 8149  44.918   6.373   2.342
39756W        W 8150  14.276   9.324  12.820
39757W        W 8151  43.299  20.494  13.003
39758W        W 8152  40.135  39.222  11.046
39759W        W 8153   4.014  36.090  14.934
39760W        W 8154  34.909  12.289  12.771
39761W        W 8155  38.738  22.813  12.381
39762W        W 8156   0.515   1.494  10.454
39763W        W 8157  16.769  21.754  13.637
39764W        W 8158  35.647  44.222  11.067
39765W        W 8159  17.161  22.363   0.010
39766W        W 8160  14.838  10.292   1.276
39767W        W 8161  43.013  10.115  11.582
39768W        W 8162  38.151  22.138  10.767
39769W        W 8163  31.958  43.478  13.211
39770W        W 8164   9.365  34.089  11.722
39771W        W 8165  35.418  26.113   1.907
39772W        W 8166   5.076  33.561   1.368
39773W        W 8167  11.370  16.262   3.357
39774W        W 8168   7.564  41.011  13.911
39775W        W 8169  18.244  31.320  12.033
39776W        W 8170  24.164  31.244  12.928
39777W        W 8171  32.534  22.332  11.483
39778W        W 8172  24.515  35.592   4.035
39779W        W 8173   1.882  17.387   4.591
39780W        W 8174  13.534   1.901   2.226
39781W        W 8175   4.547  17.020   1.708
39782W        W 8176   1.227  15.845   3.581
39783W        W 8177   3.300   8.779  14.029
39784W        W 8178  13.016  21.739   1.342
39785W        W 8179  33.907  33.346  14.016
39786W        W 8180  19.813   7.765  14.816
39787W        W 8181  32.566   7.603  10.762
39788W        W 8182  11.623  29.447  10.542
39789W        W 8183  16.667   6.975   3.324
39790W        W 8184   2.809   9.633   0.759
39791W        W 8185  42.488  41.207  12.345
39792W        W 8186  28.089   6.818  14.827
39793W        W 8187  10.472  32.429   0.733
39794W        W 8188  21.716  30.018   0.942
39795W        W 8189  11.498  44.003  11.613
39796W        W 8190  43.960  20.542   2.533
39797W        W 8191  44.563  19.223   1.782
39798W        W 8192  16.469   3.224   2.755
39799W        W 8193   6.588  30.993  14.860
39800W        W 8194  26.804   8.915  11.568
39801W        W 8195  39.964  31.974   2.690
39802W        W 8196  29.063  13.443   2.341
39803W        W 8197   6.834   7.342   4.597
39804W        W 8198   2.642  24.011   4.640
39805W        W 8199  13.872  31.798  11.969
39806W        W 8200   9.854  21.956   1.268
39807W        W 8201  14.883  16.115  12.813
39808W        W 8202  24.916  26.726   0.828
39809W        W 8203  18.800  41.209   4.305
39810W        W 8204   2.819   3.340   2.423
39811W        W 8205  10.552  15.375   3.393
39812W        W 8206  43.041  33.442  11.355
39813W        W 8207  30.471  19.231   1.936
39814W        W 8208  28.682  18.999   0.630
39815W        W 8209  19.676  27.300   1.158
39816W        W 8210  22.704   0.529  10.790
39817W        W 8211  27.925   2.297   0.900
39818W        W 8212   9.643  21.088  12.183
39819W        W 8213  30.672  26.452   2.726
39820W        W 8214  12.737  25.126   1.311
39821W        W 8215  11.398  20.073  12.654
39822W        W 8216  17.667   1.883  14.411
39823W        W 8217  28.290  29.555  13.861
39824W        W 8218   5.632  17.512  10.920
39825W        W 8219  13.386  42.502   4.638
39826W        W 8220  18.698   9.547  11.651
39827W        W 8221   8.565  24.972   3.430
39828W        W 8222  28.593   9.902  11.879
39829W        W 8223  42.808  37.760  10.763
39830W        W 8224  35.089  42.504  14.766
39831W        W 8225  32.530  10.765   3.438
39832W        W 8226   6.678  28.058   2.002
39833W        W 8227  19.177  12.775   1.411
39834W        W 8228  31.965  44.415  12.027
39835W        W 8229  31.708  30.498   4.224
39836W        W 8230   7.315  33.480   2.799
39837W        W 8231   5.327  43.206   3.727
39838W        W 8232  36.431  23.577  12.441
39839W        W 8233   8.029   3.818   0.090
39840W        W 8234  13.708   2.146   1.820
39841W        W 8235  35.119  21.348  11.246
39842W        W 8236  36.611  14.850  11.158
39843W        W 8237  18.549  35.915   1.102
39844W        W 8238  10.842  28.400   0.884
39845W        W 8239  18.751  12.113  14.591
39846W        W 8240  19.525  35.612  11.386
39847W        W 8241  41.469  30.047  14.814
39848W        W 8242  30.580  27.696   4.649
39849W        W 8243  28.203  35.523   0.846
39850W        W 8244   7.237  40.645   0.932
39851W        W 8245  10.656  44.373   2.900
39852W        W 8246  20.525  14.255   1.820
39853W        W 8247  42.133  22.128  14.923
39854W        W 8248   6.533  16.161  11.708
39855W        W 8249  33.021  33.306  14.062
39856W        W 8250  40.649  18.142  11.464
39857W        W 8251  39.672  37.360   4.146
39858W        W 8252   7.396  14.717   2.086
39859W        W 8253  37.920  21.256  14.993
39860W        W 8254  16.744  22.740  13.518
39861W        W 8255  17.147  17.626  14.749
39862W        W 8256  13.064  38.900   1.585
39863W        W 8257  23.985  31.174   2.744
39864W        W 8258   9.319   6.819  12.118
39865W        W 8259  41.299  18.048  11.274
39866W        W 8260  16.295  12.737  11.208
39867W        W 8261  28.067  28.120   2.695
39868W        W 8262   1.507   1.731  12.995
39869W        W 8263  14.365  19.672   3.639
39870W        W 8264  20.644  22.957   1.874
39871W        W 8265  30.451  37.060   4.694
39872W        W 8266   6.298   9.912   3.637
39873W        W 8267  21.160  41.817  13.002
39874W        W 8268  31.636  43.326   3.640
39875W        W 8269  19.835  36.147  13.698
39876W        W 8270  13.701  10.845   4.168
39877W        W 8271   8.701   8.360   0.792
39878W        W 8272  38.263  44.790  13.859
39879W        W 8273  35.728  17.522   4.194
39880W        W 8274  36.578  18.613   0.770
39881W        W 8275  29.713  29.946   1.858
39882W        W 8276  40.010  18.827   3.664
39883W        W 8277  39.288  41.531   3.133
39884W        W 8278  42.904  39.540   1.792
39885W        W 8279  26.951  35.494   4.533
39886W        W 8280  24.076   0.710   2.915
39887W        W 8281  34.949  33.513   3.263
39888W        W 8282  14.829  11.116   2.104
39889W        W 8283  32.096  16.034  11.896
39890W        W 8284  12.642  19.352  12.534
39891W        W 8285   0.169  17.307   3.769
39892W        W 8286  16.244  13.282   4.235
39893W        W 8287  25.260  36.023   4.204
39894W        W 8288  30.620  10.767   1.839
39895W        W 8289   2.480  40.961  12.350
39896W        W 8290  16.612  32.579   4.479
39897W        W 8291  43.225  43.411   2.282
39898W        W 8292  36.356  24.405  12.997
39899W        W 8293  26.120  41.206   4.104
39900W        W 8294   8.801  40.249   2.297
39901W        W 8295  27.717  31.018  12.717
39902W        W 8296  43.635   7.936  11.095
39903W        W 8297   2.240  14.354  13.559
39904W        W 8298  30.884  23.463  14.893
39905W        W 8299  31.657  11.658  10.994
39906W        W 8300   6.449  39.836  11.412
39907W        W 8301  42.373  22.531  14.680
39908W        W 8302  35.858  36.308   2.383
39909W        W 8303  22.356  43.621  13.675
39910W        W 8304  19.834  12.202  11.472
39911W        W 8305   7.240  26.671  12.440
39912W        W 8306  21.221   7.413  14.370
39913W        W 8307  31.124   3.766   2.324
39914W        W 8308  29.054  35.392   2.166
39915W        W 8309  13.655   0.377  11.254
39916W        W 8310  36.380  15.777   0.579
39917W        W 8311  26.042  33.074   2.630
39918W        W 8312  30.091   7.755  14.389
39919W        W 8313  26.401   7.241   3.824
39920W        W 8314  32.323   2.924  11.954
39921W        W 8315  14.294  42.490   2.721
39922W        W 8316  31.987  36.225  10.116
39923W        W 8317  33.635   8.574   0.293
39924W        W 8318  22.526  37.482  13.568
39925W        W 8319  11.899  43.473  14.748
39926W        W 8320  31.800   2.228  12.538
39927W        W 8321  33.920   0.934   1.836
39928W        W 8322  15.383  32.270   2.198
39929W        W 8323  28.259  32.777   4.441
39930W        W 8324  14.700  20.512   1.354
39931W        W 8325  36.375  33.652   4.046
39932W        W 8326  14.118  15.323  14.379
39933W        W 8327  18.226  27.518  12.428
39934W        W 8328  10.039   8.807   1.958
39935W        W 8329  37.248  31.191  14.492
39936W        W 8330  34.347  21.637  11.619
39937W        W 8331  38.838   5.660   3.145
39938W        W 8332  38.534   4.715  11.105
39939W        W 8333  16.076   0.766  14.761
39940W        W 8334  44.827  35.389  11.573
39941W        W 8335  20.743  17.293  13.332
39942W        W 8336  18.245  12.557  13.081
39943W        W 8337   9.851  33.604   0.095
39944W        W 8338  35.376  38.145  12.959
39945W        W 8339  25.220  34.782   2.158
39946W        W 8340  23.191  44.553  12.481
39947W        W 8341  28.401   5.603  10.673
39948W        W 8342   7.425   2.736  12.629
39949W        W 8343  14.423  26.153  13.360
39950W        W 8344  16.398  14.342  10.742
39951W        W 8345  20.842  39.114  12.280
39952W        W 8346  42.057   8.654   1.007
39953W        W 8347  17.776   9.798   2.945
39954W        W 8348  25.203  11.318   0.156
39955W        W 8349   5.320  31.924  10.520
39956W        W 8350  44.883  30.402  11.627
39957W        W 8351  13.247  35.041  12.332
39958W        W 8352  40.374   5.299   1.317
39959W        W 8353   9.460  39.474  11.640
39960W        W 8354  19.597  34.953  12.143
39961W        W 8355  41.017   6.727   1.739
39962W        W 8356   2.948  12.193   1.926
39963W        W 8357   2.038  15.463  12.968
39964W        W 8358  10.915   3.299  12.577
39965W        W 8359  38.311  11.168   4.108
39966W        W 8360  14.558   1.632  13.151
39967W        W 8361  40.686  43.240  12.457
39968W        W 8362   8.477   7.626  14.373
39969W        W 8363  42.777  26.605  13.307
39970W        W 8364  35.340   8.922  10.691
39971W        W 8365  37.350  42.743   1.351
39972W        W 8366  14.168  26.028   2.354
39973W        W 8367   3.481   0.847   4.676
39974W        W 8368  10.791  30.915  14.883
39975W        W 8369  10.583  21.220  14.337
39976W        W 8370  23.537  29.145   3.789
39977W        W 8371  39.798  25.156   1.651
39978W        W 8372  17.191  38.060   2.918
39979W        W 8373  11.666  19.531  12.603
39980W        W 8374   4.373  43.599   3.762
39981W        W 8375   6.668  35.028  12.037
39982W        W 8376  21.017  10.749   2.516
39983W        W 8377  22.977  34.060   1.934
39984W        W 8378  22.240   5.436  14.779
39985W        W 8379  33.115  17.810   4.543
39986W        W 8380  20.213  18.505  13.452
39987W        W 8381  15.807  28.160   1.934
39988W        W 8382  35.424  13.800  11.196
39989W        W 8383  38.511  40.882   1.614
39990W        W 8384  13.133  24.528   0.005
39991W        W 8385   4.432   3.470   0.340
39992W        W 8386   9.692  33.845  13.779
39993W        W 8387   2.731  23.482  10.465
39994W        W 8388  12.455  23.241   1.950
39995W        W 8389  18.264  42.172   3.627
39996W        W 8390  15.985  20.573   2.455
39997W        W 8391   3.885   2.702   3.200
39998W        W 8392  10.199  10.395   0.897
39999W        W 8393  42.522  43.409  12.007
40000W        W 8394  14.925  37.932   1.298
40001W        W 8395  30.179  38.127   3.925
40002W        W 8396  20.011  33.911  13.841
40003W        W 8397  19.198  38.809  13.813
40004W        W 8398  19.121  27.553   3.844
40005W        W 8399  10.875   0.439   0.921
40006W        W 8400   3.291  36.314   2.735
40007W        W 8401   1.577  25.049  12.973
40008W        W 8402  39.484  25.952  14.767
40009W        W 8403   0.800  11.622   0.963
40010W        W 8404  42.758  17.036  12.580
40011W        W 8405  21.002  13.763  12.905
40012W        W 8406   6.423  13.932   4.916
40013W        W 8407  15.617  34.631   1.311
40014W        W 8408  30.658  39.702  11.624
40015W        W 8409  14.231  32.857  11.187
40016W        W 8410  31.997  43.235  10.432
40017W        W 8411  29.654  30.830   1.098
40018W        W 8412  41.764   6.709  13.995
40019W        W 8413  21.480  40.505   0.496
40020W        W 8414  44.994   1.828   0.874
40021W        W 8415  16.207   0.956   1.175
40022W        W 8416   2.185   6.666  11.913
40023W        W 8417  31.539  16.533  14.525
40024W        W 8418   3.266  10.382   0.684
40025W        W 8419   2.780  32.924  10.777
40026W        W 8420  15.181  36.105   1.887
40027W        W 8421  26.272  42.355   2.742
40028W        W 8422   4.274  26.132  10.233
40029W        W 8423   8.965  23.926  12.843
40030W        W 8424  40.337  33.911   1.987
40031W        W 8425  42.359  13.595   0.804
40032W        W 8426  30.174  32.268  11.400
40033W        W 8427   8.319   2.769  12.696
40034W        W 8428  42.378   6.295  14.265
40035W        W 8429  28.550  38.724  14.984
40036W        W 8430  12.707  20.629   4.052
40037W        W 8431  31.465  16.620   3.603
40038W        W 8432  36.099  13.553   3.698
40039W        W 8433   4.359  27.265  10.863
40040W        W 8434  20.237  35.927  11.130
40041W        W 8435   5.453  10.603  14.017
40042W        W 8436  42.819  30.123   0.546
40043W        W 8437  20.582   6.335  14.942
40044W        W 8438  39.340  34.434  14.437
40045W        W 8439   9.280  13.626   0.730
40046W        W 8440  39.844  14.810  11.707
40047W        W 8441  20.671  29.080   1.168
40048W        W 8442  14.110  13.080   2.638
40049W        W 8443  14.711  41.227   3.958
40050W        W 8444  18.603   0.479  14.662
40051W        W 8445  26.615   4.735   4.774
40052W        W 8446   8.946  39.555  10.584
40053W        W 8447  41.056   0.480  13.744
40054W        W 8448  43.023   9.839  10.092
40055W        W 8449  37.593  40.345  14.881
40056W        W 8450  39.895   6.347   4.845
40057W        W 8451  16.349  23.753  12.477
40058W        W 8452   5.446  37.815   1.543
40059W        W 8453  10.317  10.115   3.123
40060W        W 8454  22.525  18.120  10.512
40061W        W 8455  30.625   5.926  11.563
40062W        W 8456  16.693  30.698   0.021
40063W        W 8457  28.883  17.655   1.842
40064W        W 8458  38.340  20.803   0.277
40065W        W 8459  24.971  15.692   3.230
40066W        W 8460   8.423  44.877   4.053
40067W        W 8461  22.210  11.942   1.386
40068W        W 8462   0.198  24.252  12.550
40069W        W 8463  37.194  28.944  11.571
40070W        W 8464  10.653  35.090  13.844
40071W        W 8465  35.594  18.785  12.985
40072W        W 8466  12.608  41.588  13.841
40073W        W 8467   9.163  20.497  13.427
40074W        W 8468  40.274  44.795   3.991
40075W        W 8469  39.673  39.511  12.169
40076W        W 8470  28.272  44.593  11.091
40077W        W 8471  21.110  44.043   4.271
40078W        W 8472  44.080  41.420   3.361
40079W        W 8473   3.719  39.015  12.487
40080W        W 8474  12.328  37.026   2.324
40081W        W 8475   0.653  33.976  11.192
40082W        W 8476   9.335  23.744  12.521
40083W        W 8477   8.925  35.811  13.819
40084W        W 8478  39.263   8.834   5.102
40085W        W 8479  11.645  42.448   0.998
40086W        W 8480   5.456  17.588   0.719
40087W        W 8481  41.361  26.503  14.992
40088W        W 8482   2.426  14.618   1.854
40089W        W 8483  40.953  41.372   1.918
40090W        W 8484  28.556   5.359  11.108
40091W        W 8485  43.920  23.656  14.337
40092W        W 8486  13.687  43.414  11.309
40093W        W 8487  32.493  42.932   1.666
40094W        W 8488  36.425  21.728  12.901
40095W        W 8489   9.076   1.975   1.375
40096W        W 8490  11.258   2.819  13.943
40097W        W 8491  41.303   1.784  12.874
40098W        W 8492  31.493  23.889  14.413
40099W        W 8493  38.328  37.926  11.986
40100W        W 8494  38.010  29.033  12.961
40101W        W 8495  21.611  39.634  11.470
40102W        W 8496  39.583  26.949  10.653
40103W        W 8497   7.266   4.706   3.635
40104W        W 8498   7.502  22.116  12.869
40105W        W 8499  35.006  34.523  13.097
40106W        W 8500   0.359  26.000   4.528
40107W        W 8501  44.835   8.734   4.052
40108W        W 8502  14.788  19.681  14.437
40109W        W 8503  21.153  15.722  12.892
40110W        W 8504  42.465   7.728  14.351
40111W        W 8505  31.596  21.476  10.522
40112W        W 8506  24.971  44.926   2.132
40113W        W 8507  28.101   7.111  11.217
40114W        W 8508  15.652  19.171   4.513
40115W        W 8509  23.237  39.450  11.130
40116W        W 8510  34.451  41.235   1.468
40117W        W 8511  24.026  42.268   2.256
40118W        W 8512  19.727  28.634  12.509
40119W        W 8513  18.718  25.304  11.174
40120W        W 8514  39.883   5.153   1.137
40121W        W 8515  33.197  33.413  10.119
40122W        W 8516   5.282  41.075  14.456
40123W        W 8517  20.807  41.376   2.011
40124W        W 8518  26.926  41.644  11.161
40125W        W 8519  43.821  41.471   4.218
40126W        W 8520  44.831  38.830  14.948
40127W        W 8521   6.266  24.657   2.055
40128W        W 8522  26.103  12.266  10.131
40129W        W 8523  44.341   6.695   4.752
40130W        W 8524  25.150  13.182  14.378
40131W        W 8525  36.348   6.578   0.273
40132W        W 8526  37.926  41.759   4.141
40133W        W 8527   2.493  24.503   1.223
40134W        W 8528  15.578  32.645   1.403
40135W        W 8529   9.875  38.196  12.435
40136W        W 8530   0.297  10.117  14.248
40137W        W 8531  15.338  31.415  12.429
40138W        W 8532  19.120  26.684   1.511
40139W        W 8533   2.844  14.142   2.167
40140W        W 8534  42.521   0.456  14.037
40141W        W 8535  39.390  43.444   3.957
40142W        W 8536  28.520  31.684  14.024
40143W        W 8537  10.086   4.725   0.254
40144W        W 8538  26.661  28.231  10.525
40145W        W 8539  10.735  26.190   2.176
40146W        W 8540  28.029   8.773  11.979
40147W        W 8541   3.650   3.371  12.992
40148W        W 8542  29.440  17.451   4.683
40149W        W 8543   0.369  10.813  12.565
40150W        W 8544  18.802   5.272   0.788
40151W        W 8545   6.805  24.597  12.388
40152W        W 8546  36.152  44.380  11.075
40153W        W 8547  26.566  33.968   0.798
40154W        W 8548  34.273  32.508  13.445
40155W        W 8549  29.461  13.268  11.900
40156W        W 8550  39.724  20.300   1.211
40157W        W 8551  17.687  24.041  10.714
40158W        W 8552   5.167  35.730   2.764
40159W        W 8553  17.763  35.948  10.329
40160W        W 8554  14.576  16.155   1.239
40161W        W 8555  33.953  41.307  14.192
40162W        W 8556  11.963  40.391  11.578
40163W        W 8557   9.431   4.492  11.029
40164W        W 8558  12.247   9.874   1.820
40165W        W 8559  30.813  15.145   3.124
40166W        W 8560  11.298  26.602  14.762
40167W        W 8561  42.525  33.612   1.767
40168W        W 8562  19.279  15.557   2.701
40169W        W 8563  41.808  31.188  13.310
40170W        W 8564  42.385  14.880   1.770
40171W        W 8565  11.214  12.065   2.346
40172W        W 8566  24.628  39.801   2.874
40173W        W 8567   8.701  42.406  12.974
40174W        W 8568  25.192  35.260   2.281
40175W        W 8569  28.843  23.203  11.211
40176W        W 8570   1.410  32.571  10.663
40177W        W 8571  37.426  44.512   2.133
40178W        W 8572  40.512  20.773  14.026
40179W        W 8573  18.974  10.266   4.855
40180W        W 8574  22.456  14.745  11.500
40181W        W 8575  32.286  37.918  13.538
40182W        W 8576  30.145  20.478   1.306
40183W        W 8577  34.150  35.639   1.687
40184W        W 8578  36.355  32.023  14.609
40185W        W 8579  25.959  24.757  12.569
40186W        W 8580  13.319  43.056  12.537
40187W        W 8581  29.726  24.455  13.980
40188W        W 8582  39.867  38.889  14.207
40189W        W 8583  35.473  30.405  11.627
40190W        W 8584  10.669   7.223  10.796
40191W        W 8585  38.374  31.398  14.419
40192W        W 8586  27.827  19.624  11.670
40193W        W 8587  12.668  16.924   3.637
40194W        W 8588   9.804  37.690  12.292
40195W        W 8589  44.427  25.637  14.044
40196W        W 8590  29.963   2.964  12.806
40197W        W 8591  41.039   8.913  14.424
40198W        W 8592  31.672   6.782  11.190
40199W        W 8593  30.601   9.302   4.540
40200W        W 8594  15.268  37.405   0.863
40201W        W 8595  43.255  28.988  10.735
40202W        W 8596  35.478  36.581  11.266
40203W        W 8597   9.136   8.347  11.680
40204W        W 8598  32.090  13.055   1.260
40205W        W 8599  31.901  44.210   0.986
40206W        W 8600  20.991   9.420   3.699
40207W        W 8601   5.647  18.291  14.932
40208W        W 8602  30.796   9.733   4.308
40209W        W 8603  10.769  12.766  10.358
40210W        W 8604  22.273  35.683   2.752
40211W        W 8605  13.432  44.326   5.015
40212W        W 8606  36.404  38.566  14.375
40213W        W 8607   6.368  39.719  14.112
40214W        W 8608   3.359  16.212   2.635
40215W        W 8609  43.060  35.604   1.952
40216W        W 8610  16.148  42.674   1.142
40217W        W 8611  38.553  42.599   3.799
40218W        W 8612  34.843  16.227   1.977
40219W        W 8613  22.822  33.636   4.921
40220W        W 8614  31.611   2.488  11.631
40221W        W 8615  25.158  37.733   2.368
40222W        W 8616  15.368   5.230  14.882
40223W        W 8617  20.623  34.615   2.874
40224W        W 8618   6.390   0.212   0.835
40225W        W 8619  31.433   9.596   3.205
40226W        W 8620  27.446  40.270  10.691
40227W        W 8621  30.524   1.995   4.293
40228W        W 8622  26.847  37.815  13.849
40229W        W 8623  18.719  44.789   4.549
40230W        W 8624  17.771  20.492  11.477
40231W        W 8625  37.917  39.504  10.662
40232W        W 8626   4.006  42.340  10.964
40233W        W 8627  34.391  41.262  10.794
40234W        W 8628   0.058   5.246  11.560
40235W        W 8629   0.437  26.137   0.419
40236W        W 8630  39.275   5.915   3.205
40237W        W 8631  23.255  30.479   3.071
40238W        W 8632  35.519  35.526   2.810
40239W        W 8633  38.478  13.495   5.090
40240W        W 8634  44.435  42.521   1.311
40241W        W 8635  40.523  17.143   3.756
40242W        W 8636  28.245   5.099   1.643
40243W        W 8637  20.467  13.303  11.991
40244W        W 8638  15.644  19.618   0.401
40245W        W 8639  17.711  10.880  12.573
40246W        W 8640  11.769   5.532   1.266
40247W        W 8641  44.779  44.422   3.026
40248W        W 8642  39.937  26.031   2.376
40249W        W 8643  23.489  22.312  10.848
40250W        W 8644  29.898  14.068  14.266
40251W        W 8645  29.020  17.705   4.853
40252W        W 8646  43.537  41.283  10.676
40253W        W 8647  29.113  19.103   4.500
40254W        W 8648   8.478  32.793   3.267
40255W        W 8649  35.685  23.229   3.189
40256W        W 8650  37.373  25.993  14.233
40257W        W 8651   2.418  14.476   2.372
40258W        W 8652   1.797  19.697  14.431
40259W        W 8653  13.090   4.314   1.847
40260W        W 8654  18.539  11.872   2.946
40261W        W 8655  26.656  35.136   3.551
40262W        W 8656  38.003  19.534   0.311
40263W        W 8657  12.337  39.907  13.395
40264W        W 8658   2.422   5.872  10.539
40265W        W 8659  28.592  20.586   3.671
40266W        W 8660   1.004   2.684  11.064
40267W        W 8661  37.282  10.663  12.061
40268W        W 8662   0.698  34.540   2.284
40269W        W 8663  22.678  41.516   1.853
40270W        W 8664  23.713   1.374   3.306
40271W        W 8665  19.628  32.251   3.221
40272W        W 8666  40.452   0.038  14.471
40273W        W 8667  31.132  28.357   4.313
40274W        W 8668  27.057   9.005  14.033
40275W        W 8669  40.517  16.625  12.810
40276W        W 8670  37.161  16.255  14.440
40277W        W 8671   1.271   7.284  10.706
40278W        W 8672  29.099   4.893   0.228
40279W        W 8673   1.337  31.565  13.026
40280W        W 8674   2.353  19.704  10.261
40281W        W 8675  19.541  38.832   4.554
40282W        W 8676  30.179   0.680   3.125
40283W        W 8677  42.339   3.406   3.836
40284W        W 8678  17.024   3.211   1.892
40285W        W 8679   9.289  43.826  11.090
40286W        W 8680   3.750   3.002  12.240
40287W        W 8681  17.420  16.094  11.455
40288W        W 8682  38.010   5.280   0.380
40289W        W 8683  35.841   2.487  13.953
40290W        W 8684  41.563  44.027   4.207
40291W        W 8685   1.778  10.720   0.336
40292W        W 8686   1.593  18.453  13.784
40293W        W 8687   5.497  43.787   1.939
40294W        W 8688   6.899  39.589  10.661
40295W        W 8689  27.740  17.189  14.033
40296W        W 8690  17.762  29.505   3.675
40297W        W 8691  18.329   8.682   1.139
40298W        W 8692  19.772  40.948  14.014
40299W        W 8693  10.014  37.833  11.169
40300W        W 8694  32.951  12.372   2.990
40301W        W 8695  11.717   5.964  11.480
40302W        W 8696  25.480  17.566   0.664
40303W        W 8697  10.225   2.625   1.293
40304W        W 8698  44.959  21.142   1.891
40305W        W 8699  16.279  41.711  14.597
40306W        W 8700  39.732  40.979   4.623
40307W        W 8701   5.933  15.157  12.153
40308W        W 8702   3.177  38.781  14.030
40309W        W 8703  41.120  44.241  12.969
40310W        W 8704  11.587  34.351   3.776
40311W        W 8705  33.807  31.137   3.058
40312W        W 8706  42.776   2.790  11.225
40313W        W 8707  37.380  23.686  11.060
40314W        W 8708  22.619  12.424  10.266
40315W        W 8709   9.255  35.940  13.010
40316W        W 8710  43.483  28.089   4.281
40317W        W 8711  13.753  17.576  11.843
40318W        W 8712   3.753  11.697   2.859
40319W        W 8713  37.052  35.915   3.186
40320W        W 8714   2.586  22.668   4.192
40321W        W 8715  13.759  28.038  11.033
40322W        W 8716  27.999  38.031   2.249
40323W        W 8717  41.004  19.704   4.984
40324W        W 8718  24.143  39.430  10.677
40325W        W 8719  37.001  10.365  10.779
40326W        W 8720  35.453  19.979   3.845
40327W        W 8721   5.116  40.735  14.108
40328W        W 8722  28.602  11.917  11.182
40329W        W 8723   4.408  32.582  12.481
40330W        W 8724  41.708  27.845   0.850
40331W        W 8725  31.468   2.021   3.242
40332W        W 8726  21.620  26.660   0.076
40333W        W 8727  37.093  30.149  11.044
40334W        W 8728  31.971  36.636   3.047
40335W        W 8729  31.799  37.325  12.997
40336W        W 8730   0.224  28.587   0.837
40337W        W 8731  27.624  29.638   3.281
40338W        W 8732  36.616   7.804   0.753
40339W        W 8733  34.271  12.871   3.509
40340W        W 8734  39.953   5.310  12.037
40341W        W 8735  28.104  18.677   3.808
40342W        W 8736   6.155   6.478   1.324
40343W        W 8737  36.778  42.343  12.941
40344W        W 8738  33.527  21.061   2.159
40345W        W 8739  42.901  27.539  14.962
40346W        W 8740  39.386  27.005   4.358
40347W        W 8741  16.301  36.320   1.772
40348W        W 8742  20.049  17.312   3.555
40349W        W 8743  36.267  37.181   3.468
40350W        W 8744  22.199  43.004   4.233
40351W        W 8745  39.590  25.419  13.066
40352W        W 8746   8.853  37.349  14.789
40353W        W 8747  17.489  33.952   1.738
40354W        W 8748  40.015  37.352  12.305
40355W        W 8749  44.834  41.466   1.713
40356W        W 8750  42.562  11.352  11.333
40357W        W 8751   1.842  14.586  11.105
40358W        W 8752   7.379  44.355   1.707
40359W        W 8753   3.780  24.195  14.787
40360W        W 8754  39.063   2.897  11.334
40361W        W 8755  23.984  31.477  11.411
40362W        W 8756   1.263  44.007   4.607
40363W        W 8757  29.779  29.125   3.299
40364W        W 8758  11.356  41.801   4.136
40365W        W 8759   8.773  35.814  12.814
40366W        W 8760  13.879  10.692   3.290
40367W        W 8761  43.857   0.236   0.221
40368W        W 8762   5.195  35.422   3.200
40369W        W 8763   6.950   0.679  11.275
40370W        W 8764  24.126  31.843   4.017
40371W        W 8765  29.754  14.656   4.026
40372W        W 8766   1.687   3.755  12.704
40373W        W 8767  28.609  19.346   0.211
40374W        W 8768  33.082   1.739  10.305
40375W        W 8769  30.132  26.213  12.051
40376W        W 8770   4.696  34.421  14.390
40377W        W 8771  38.394   7.888   3.233
40378W        W 8772  32.041  28.126  12.893
40379W        W 8773  22.450  24.919   2.782
40380W        W 8774  13.267  38.056  11.855
40381W        W 8775  13.252  37.966  14.360
40382W        W 8776   3.983  26.674   2.995
40383W        W 8777  26.661   6.418   2.024
40384W        W 8778  12.957  37.408  12.236
40385W        W 8779  17.246  23.896   2.894
40386W        W 8780  12.487  22.114  12.893
40387W        W 8781  27.833   0.922   4.593
40388W        W 8782  20.048  16.273   4.908
40389W        W 8783  11.217  38.117   4.446
40390W        W 8784   5.725  11.824  11.451
40391W        W 8785   1.005  29.848  10.481
40392W        W 8786  36.814  30.161   0.442
40393W        W 8787  14.630  10.421  11.917
40394W        W 8788  32.098   3.522   1.798
40395W        W 8789  26.476  44.367  11.676
40396W        W 8790  38.907   2.572  12.890
40397W        W 8791   6.368   3.843   4.515
40398W        W 8792   5.936   4.846  11.378
40399W        W 8793  30.878  31.564   2.272
40400W        W 8794  15.234  13.979   0.374
40401W        W 8795  40.899   4.825   3.231
40402W        W 8796  28.972  27.902   4.525
40403W        W 8797  33.317  13.304  13.951
40404W        W 8798  29.314   7.266   0.001
40405W        W 8799  21.966   4.800  13.479
40406W        W 8800  31.235   5.673  13.923
40407W        W 8801  23.032  28.653   2.277
40408W        W 8802   1.056  27.868  12.448
40409W        W 8803  41.893  20.972   2.582
40410W        W 8804  41.466  35.961   4.623
40411W        W 8805   2.454  28.620   0.859
40412W        W 8806  27.771  40.260  11.554
40413W        W 8807   8.466   1.401  12.921
40414W        W 8808   9.812   0.814  12.575
40415W        W 8809   4.608  37.686  14.936
40416W        W 8810   1.918  17.363  13.389
40417W        W 8811  41.814  11.887   1.856
40418W        W 8812  31.028  35.212  13.018
40419W        W 8813  38.554  43.014  12.913
40420W        W 8814  17.503  40.289   3.776
40421W        W 8815  26.137  25.266  14.327
40422W        W 8816  44.329  44.082  13.811
40423W        W 8817   2.017  33.593  12.457
40424W        W 8818   2.215  22.607  12.420
40425W        W 8819   0.098   5.705   0.335
40426W        W 8820  12.224   9.421  12.839
40427W        W 8821  12.692  21.208   2.910
40428W        W 8822  42.752  33.562  10.957
40429W        W 8823  39.392  39.522  12.600
40430W        W 8824  29.509  33.497  11.709
40431W        W 8825   8.895  36.468   3.614
40432W        W 8826  43.561  27.556  12.995
40433W        W 8827   4.580  39.273  13.418
40434W        W 8828  37.295  39.078  14.539
40435W        W 8829   6.760  32.183   2.713
40436W        W 8830   2.187   2.252   2.659
40437W        W 8831   7.154  29.042  11.189
40438W        W 8832  23.730  27.772  11.145
40439W        W 8833   4.839  36.678  14.899
40440W        W 8834   2.223   6.581  11.243
40441W        W 8835  17.693   4.704   2.760
40442W        W 8836  13.110  31.462  13.905
40443W        W 8837  36.008  33.992   2.385
40444W        W 8838  28.343   6.699  11.824
40445W        W 8839  20.828  14.352  14.342
40446W        W 8840  26.597  33.410   0.009
40447W        W 8841  32.592  25.496   4.271
40448W        W 8842  19.301  34.071   4.570
40449W        W 8843  10.388  30.503  13.054
40450W        W 8844  26.614   0.254  11.153
40451W        W 8845  17.557  36.683  14.031
40452W        W 8846  42.264  14.650  11.237
40453W        W 8847   7.313  11.386   1.344
40454W        W 8848  24.222  35.515   2.196
40455W        W 8849  29.037  18.574   2.652
40456W        W 8850  14.343   2.194  14.243
40457W        W 8851  43.001  23.939   5.236
40458W        W 8852  21.108  15.027   3.048
40459W        W 8853  39.502   6.765  14.560
40460W        W 8854  19.093  34.038  14.217
40461W        W 8855  11.506  16.310   1.426
40462W        W 8856   3.915  33.103   2.835
40463W        W 8857  41.961  37.006   3.155
40464W        W 8858  44.750  39.534  11.578
40465W        W 8859  20.457   2.774  13.837
40466W        W 8860   9.165  27.799   1.098
40467W        W 8861  32.053  42.184  13.805
40468W        W 8862   6.255  35.591  13.422
40469W        W 8863  35.691  34.316  14.890
40470W        W 8864   8.365  30.811  10.248
40471W        W 8865  20.015  44.908  12.125
40472W        W 8866  21.281  17.284  11.064
40473W        W 8867   2.949  27.229   2.709
40474W        W 8868  12.452  10.062   4.909
40475W        W 8869  42.255  41.804   2.641
40476W        W 8870  19.762  19.114  13.012
40477W        W 8871  38.051  35.345  13.797
40478W        W 8872  37.777  38.413  13.868
40479W        W 8873  27.238  32.523  14.723
40480W        W 8874  35.368  11.568  10.510
40481W        W 8875   8.684  26.078   5.077
40482W        W 8876  38.802  43.631   3.900
40483W        W 8877   4.654  29.330   3.179
40484W        W 8878   4.660   2.966  10.196
40485W        W 8879  13.797   2.320  14.695
40486W        W 8880  19.326  40.539   4.124
40487W        W 8881  33.986  28.686  14.364
40488W        W 8882   7.176  14.599  12.772
40489W        W 8883   1.520  27.766   4.201
40490W        W 8884  10.329  13.070   0.323
40491W        W 8885   1.279  43.922  12.827
40492W        W 8886  21.150  23.654   2.419
40493W        W 8887  27.041  19.838   0.026
40494W        W 8888   4.858  39.643  11.389
40495W        W 8889  29.541   5.287   4.188
40496W        W 8890  42.356   3.739  13.768
40497W        W 8891   0.247  31.166  11.012
40498W        W 8892  23.490  30.955  13.439
40499W        W 8893  25.573  29.738  11.218
40500W        W 8894  38.817  21.678  12.781
40501W        W 8895  10.886  22.949  14.294
40502W        W 8896   7.613   3.326   1.399
40503W        W 8897   7.895  23.071  13.499
40504W        W 8898   0.935  25.313   2.294
40505W        W 8899  20.177   2.367   4.253
40506W        W 8900  22.496  39.739  11.662
40507W        W 8901  24.614  26.052   3.333
40508W        W 8902  36.569   5.250  14.516
40509W        W 8903  28.495  33.073   4.082
40510W        W 8904  25.533   1.509  10.212
40511W        W 8905  13.591  16.592  14.394
40512W        W 8906   6.530   5.174   3.288
40513W        W 8907  20.762  44.555  14.454
40514W        W 8908  18.715  38.406  12.508
40515W        W 8909  41.594  35.635   4.201
40516W        W 8910  15.595  42.264  10.772
40517W        W 8911  31.905  28.191  11.597
40518W        W 8912  24.457   8.650  14.592
40519W        W 8913   6.145   7.303  12.333
40520W        W 8914  23.233  44.794   4.373
40521W        W 8915  18.440   2.735  13.821
40522W        W 8916  37.995  24.148   1.441
40523W        W 8917  26.742  21.999   4.151
40524W        W 8918  41.223  24.930  10.769
40525W        W 8919  29.063   6.800  11.053
40526W        W 8920  13.236  20.614   4.038
40527W        W 8921   1.600  24.939  13.933
40528W        W 8922   9.511  19.794  13.962
40529W        W 8923  20.142  31.921   2.905
40530W        W 8924   6.930  29.234  12.523
40531W        W 8925  19.437  15.455   3.795
40532W        W 8926  13.069   5.179   5.020
40533W        W 8927   6.600  19.514   1.254
40534W        W 8928  38.317  34.418   2.294
40535W        W 8929  37.693   1.994   0.334
40536W        W 8930  20.251  15.433  11.498
40537W        W 8931  22.695  27.674  14.979
40538W        W 8932  41.217  33.423  13.434
40539W        W 8933  34.826  36.313   0.784
40540W        W 8934  31.582  39.568   0.759
40541W        W 8935   2.826  28.648   4.248
40542W        W 8936  16.403  18.074  14.080
40543W        W 8937  25.690  24.603   2.335
40544W        W 8938   7.899  13.272   4.101
40545W        W 8939  22.977   0.618  11.581
40546W        W 8940  24.290  23.133  11.239
40547W        W 8941  36.554  19.521  12.033
40548W        W 8942   6.486  42.532   2.621
40549W        W 8943  22.596  29.461   2.790
40550W        W 8944  30.237   7.456   0.400
40551W        W 8945  21.594   4.899  12.185
40552W        W 8946  19.554   7.897   2.276
40553W        W 8947  32.945  25.717  14.323
40554W        W 8948  37.326   7.925  14.792
40555W        W 8949   4.262  22.967  14.440
40556W        W 8950  37.806  44.967  13.697
40557W        W 8951   9.875   5.855   0.458
40558W        W 8952   5.951  37.672  11.507
40559W        W 8953   0.184  18.196   2.480
40560W        W 8954  16.627  19.580   1.308
40561W        W 8955  32.623  39.859   2.231
40562W        W 8956  15.177   1.957  13.392
40563W        W 8957  31.616   7.974  12.504
40564W        W 8958   0.106  13.053  10.962
40565W        W 8959  29.127   1.493   3.222
40566W        W 8960  14.769   2.360   4.893
40567W        W 8961  21.246  39.135   1.815
40568W        W 8962   7.325  14.499   1.622
40569W        W 8963   8.773  28.432  11.621
40570W        W 8964  38.835  32.908  13.356
40571W        W 8965  35.928  37.352   3.827
40572W        W 8966  11.683  36.636  11.572
40573W        W 8967  23.773  37.429   2.169
40574W        W 8968  40.009  34.843   3.800
40575W        W 8969  19.560   8.227  12.497
40576W        W 8970  37.056  35.081  11.536
40577W        W 8971  37.615  19.281   4.094
40578W        W 8972  29.127  34.656   4.973
40579W        W 8973  34.048  19.063  10.808
40580W        W 8974  27.510   6.914   2.889
40581W        W 8975  10.926   5.890  12.643
40582W        W 8976  19.223  11.676  14.202
40583W        W 8977  32.692  42.450   3.034
40584W        W 8978   9.127   0.842   2.480
40585W        W 8979  35.558  12.678  11.144
40586W        W 8980   8.445   8.235   1.830
40587W        W 8981  19.680  27.383  10.861
40588W        W 8982  16.661  35.109  11.950
40589W        W 8983  32.504   6.356  14.082
40590W        W 8984  20.473  42.392  12.632
40591W        W 8985  17.947  37.444  11.222
40592W        W 8986  32.438  25.299  10.670
40593W        W 8987  37.891  20.446  14.334
40594W        W 8988  15.916  40.143   1.891
40595W        W 8989   1.760  18.657  12.089
40596W        W 8990   7.509  22.572  10.636
40597W        W 8991  30.033  30.978   2.911
40598W        W 8992  13.752  30.602   1.317
40599W        W 8993   3.930  13.246   1.889
40600W        W 8994  13.262  31.058   2.656
40601W        W 8995   4.424  22.481  14.333
40602W        W 8996  15.354  25.923   0.396
40603W        W 8997  23.092  18.617   2.343
40604W        W 8998  34.662  23.081   4.820
40605W        W 8999  44.667  40.420   2.443
40606W        W 9000  25.633  30.040  10.763
40607W        W 9001  19.752  24.521  13.490
40608W        W 9002  21.738  37.532   4.537
40609W        W 9003   2.465  18.640  13.822
40610W        W 9004  17.805  33.038  11.438
40611W        W 9005  34.689  42.107  12.439
40612W        W 9006  12.562  33.530   4.215
40613W        W 9007  26.730  27.995  12.760
40614W        W 9008  19.610  19.698  11.386
40615W        W 9009  33.960  34.948   0.919
40616W        W 9010  41.926  11.121  10.820
40617W        W 9011  26.535   8.946   2.709
40618W        W 9012   1.212  31.172   1.946
40619W        W 9013  41.804  44.360  13.501
40620W        W 9014  43.434  16.759  13.086
40621W        W 9015   4.745   5.003   4.424
40622W        W 9016  18.627  44.358   2.101
40623W        W 9017  32.356  23.674  11.478
40624W        W 9018  10.910  18.708   0.109
40625W        W 9019  28.729  14.331  10.562
40626W        W 9020   8.379  25.858   9.632
40627W        W 9021   5.988  15.994   1.822
40628W        W 9022  40.520  40.546   1.777
40629W        W 9023  39.773  20.599   0.329
40630W        W 9024  32.990  31.631   4.894
40631W        W 9025  18.817   0.068  14.434
40632W        W 9026  11.727  39.659  10.212
40633W        W 9027  43.970   0.788  13.915
40634W        W 9028  27.922  18.511  13.930
40635W        W 9029  25.942  37.846  12.942
40636W        W 9030  34.398  13.871  13.073
40637W        W 9031  11.237  15.231   2.826
40638W        W 9032   3.402  43.857   3.912
40639W        W 9033  29.391   7.091   4.092
40640W        W 9034   6.307   7.581  12.760
40641W        W 9035  35.132  29.721   1.176
40642W        W 9036  27.144  42.774   1.217
40643W        W 9037  28.146  31.649  14.474
40644W        W 9038   7.892  32.046  14.316
40645W        W 9039  30.417  44.905  14.998
40646W        W 9040  38.559  40.620   4.893
40647W        W 9041  40.437  20.573   4.199
40648W        W 9042  44.896   5.247  13.822
40649W        W 9043  31.009  39.477   1.711
40650W        W 9044  28.933  16.625  11.204
40651W        W 9045  39.243  23.204   2.723
40652W        W 9046  11.662  11.069   0.211
40653W        W 9047  38.539  36.116   0.372
40654W        W 9048   2.281   7.462  11.919
40655W        W 9049  18.609   0.625  12.268
40656W        W 9050  41.427  26.966  10.696
40657W        W 9051  34.433  29.381   4.236
40658W        W 9052  39.311  42.000  10.763
40659W        W 9053   8.225   4.278   0.201
40660W        W 9054  25.363  24.091   2.964
40661W        W 9055  11.652  26.199  12.380
40662W        W 9056  16.296  28.088  12.359
40663W        W 9057  41.426  34.330   4.804
40664W        W 9058  43.016  26.681  12.866
40665W        W 9059  42.226  25.606   4.085
40666W        W 9060  38.145  15.314   0.779
40667W        W 9061  20.998  17.688  11.157
40668W        W 9062  41.103  10.706  12.456
40669W        W 9063  35.648   9.078  11.984
40670W        W 9064  29.974  21.660  12.031
40671W        W 9065  28.766  25.606  13.837
40672W        W 9066  29.496  40.965  12.792
40673W        W 9067  17.324  24.563   2.290
40674W        W 9068  44.494   1.264   1.450
40675W        W 9069  32.078  43.056   0.395
40676W        W 9070   1.153   4.574  12.020
40677W        W 9071  19.074   4.989   4.013
40678W        W 9072  22.689   4.886   3.175
40679W        W 9073   5.520  31.496   1.058
40680W        W 9074  38.479   0.338   2.185
40681W        W 9075   6.854  35.041   2.918
40682W        W 9076  17.275   5.231   1.782
40683W        W 9077   8.575  30.514  13.874
40684W        W 9078   3.353  33.356   3.204
40685W        W 9079  44.510  11.286  14.444
40686W        W 9080  43.382  25.434   1.605
40687W        W 9081   8.122  13.663  13.318
40688W        W 9082  13.794  21.807  10.896
40689W        W 9083  21.181   9.973   1.723
40690W        W 9084  38.369  27.455   0.831
40691W        W 9085  14.759  35.796  14.821
40692W        W 9086  20.717  26.552   2.736
40693W        W 9087  14.422   2.942  13.922
40694W        W 9088  11.693  32.664  14.099
40695W        W 9089  28.603  39.335   4.448
40696W        W 9090  43.319  43.264  11.564
40697W        W 9091  28.583  44.265  11.448
40698W        W 9092  20.788  19.172   4.585
40699W        W 9093  44.473  33.027   3.062
40700W        W 9094   5.528  13.998  12.574
40701W        W 9095   8.290  27.553  13.604
40702W        W 9096  26.177  30.618  11.464
40703W        W 9097  11.804  31.444   0.257
40704W        W 9098  17.584  40.542  14.738
40705W        W 9099  26.155  40.044  12.641
40706W        W 9100   5.175  44.346  11.581
40707W        W 9101  26.959  33.552  10.779
40708W        W 9102  13.859  23.182  13.786
40709W        W 9103  10.738  31.439   2.685
40710W        W 9104  34.981  28.770  12.318
40711W        W 9105  13.261  30.658   1.399
40712W        W 9106  38.936  32.268   2.160
40713W        W 9107  28.681  19.300   2.247
40714W        W 9108  34.010   8.576   3.762
40715W        W 9109  28.417  18.551   4.228
40716W        W 9110  24.100  23.546  11.478
40717W        W 9111  26.618  11.585   3.524
40718W        W 9112  12.128  38.111  10.579
40719W        W 9113  18.186  16.745  12.203
40720W        W 9114  14.578  43.980   4.907
40721W        W 9115  36.432  20.099  13.442
40722W        W 9116  10.182  16.239   4.575
40723W        W 9117  27.654  41.778  13.981
40724W        W 9118  19.637  16.421   1.041
40725W        W 9119   7.690  35.764   1.507
40726W        W 9120  42.237  42.552  14.892
40727W        W 9121  16.687  19.859   3.677
40728W        W 9122  19.536  34.962  13.209
40729W        W 9123  34.804  39.516   2.202
40730W        W 9124   5.717  23.438   1.022
40731W        W 9125  40.953  29.563   4.571
40732W        W 9126  43.716   1.713   2.362
40733W        W 9127  11.718   3.445   2.307
40734W        W 9128  26.013  22.641   0.476
40735W        W 9129  31.959   0.409   3.798
40736W        W 9130  35.077  12.583   0.420
40737W        W 9131  10.250   6.764   3.585
40738W        W 9132   5.227  16.418  10.136
40739W        W 9133  11.332  38.502   1.800
40740W        W 9134  24.709  22.136  10.412
40741W        W 9135  44.415   2.713   1.389
40742W        W 9136  17.604  34.779  10.407
40743W        W 9137  11.949   3.851  10.719
40744W        W 9138  12.280  23.308   0.931
40745W        W 9139  16.408  17.966  10.659
40746W        W 9140  20.714  14.420   4.941
40747W        W 9141  29.704  30.212  14.333
40748W        W 9142  27.693  32.830  13.946
40749W        W 9143   9.881  22.022   2.750
40750W        W 9144   6.135  36.977   2.310
40751W        W 9145  40.522  37.432   4.512
40752W        W 9146  13.776  22.329  10.240
40753W        W 9147  41.488  22.174   3.877
40754W        W 9148  25.137  17.101   2.853
40755W        W 9149  34.099  22.635   2.199
40756W        W 9150  37.358   2.796  13.502
40757W        W 9151   9.738  44.235  12.333
40758W        W 9152  34.383  18.370  14.141
40759W        W 9153  23.070   1.021  12.013
40760W        W 9154  36.947  11.381   1.875
40761W        W 9155  23.965  17.842  11.124
40762W        W 9156   4.825  33.386  13.439
40763W        W 9157  37.841  28.735  13.337
40764W        W 9158  18.639  39.309  11.603
40765W        W 9159  18.665   9.405  13.867
40766W        W 9160  26.732  29.252   5.095
40767W        W 9161  16.232   6.382   3.151
40768W        W 9162  10.342  35.439  12.551
40769W        W 9163   3.147   6.397   3.258
40770W        W 9164  38.316  40.424  13.388
40771W        W 9165  30.096   8.393   2.882
40772W        W 9166  26.918  15.523   3.030
40773W        W 9167  31.930  44.816   4.879
40774W        W 9168  25.668  24.165  14.840
40775W        W 9169  39.210   1.816   4.712
40776W        W 9170   8.566  27.181   0.728
40777W        W 9171  25.972  27.994   2.940
40778W        W 9172  18.593  11.094   3.327
40779W        W 9173  23.301  11.887   3.164
40780W        W 9174  10.958  23.774   1.117
40781W        W 9175  13.670   9.938  13.082
40782W        W 9176  10.573  35.538   1.275
40783W        W 9177  42.313  44.403   1.887
40784W        W 9178  25.674  26.078   0.308
40785W        W 9179  22.493  30.446   0.448
40786W        W 9180  36.373  25.634   1.894
40787W        W 9181  19.449  19.969  14.451
40788W        W 9182  33.693   3.848   3.168
40789W        W 9183  38.010  14.091   1.720
40790W        W 9184   5.410  37.991   2.459
40791W        W 9185  10.194  34.509   3.327
40792W        W 9186   2.233   1.423  12.031
40793W        W 9187  26.661  44.411   1.873
40794W        W 9188  12.997   6.531   5.530
40795W        W 9189  22.073   8.741  12.573
40796W        W 9190  24.730   1.422   4.008
40797W        W 9191  20.441  41.821  13.762
40798W        W 9192  27.902   3.085   4.143
40799W        W 9193  12.067  19.677  12.923
40800W        W 9194   6.637  31.219  12.143
40801W        W 9195  36.013  39.060  14.802
40802W        W 9196   1.392  31.964  12.094
40803W        W 9197  23.641  41.824   4.232
40804W        W 9198  28.550  30.452   3.671
40805W        W 9199  28.976  17.374  11.651
40806W        W 9200   3.779  19.152  12.634
40807W        W 9201  30.115  23.019   0.754
40808W        W 9202  37.932  24.146  11.073
40809W        W 9203  28.521  31.827  13.526
40810W        W 9204  36.447  27.042  13.340
40811W        W 9205  17.076  11.091  11.100
40812W        W 9206  14.129  37.668   1.882
40813W        W 9207  30.204  11.719   4.157
40814W        W 9208  37.845  33.033  10.313
40815W        W 9209  17.432  31.412  13.943
40816W        W 9210  42.962  11.760  12.896
40817W        W 9211  19.753  44.750   4.764
40818W        W 9212  20.194  14.349   3.456
40819W        W 9213  23.998  30.992  13.375
40820W        W 9214  36.834  27.065  11.118
40821W        W 9215  22.239  23.016   0.402
40822W        W 9216   7.023  41.329   3.168
40823W        W 9217   5.937  41.076  12.532
40824W        W 9218  34.879   0.234  13.306
40825W        W 9219  12.738  10.124   1.276
40826W        W 9220  30.588  39.018  12.840
40827W        W 9221  11.354  21.684  11.903
40828W        W 9222   4.231  22.539  10.692
40829W        W 9223  17.607  32.148  11.255
40830W        W 9224   5.796  26.678  11.877
40831W        W 9225  28.171  28.671   1.273
40832W        W 9226  13.244  41.082  13.380
40833W        W 9227  17.573  29.630   4.128
40834W        W 9228   3.393  42.827  10.980
40835W        W 9229  36.480   7.364   1.838
40836W        W 9230  25.068  24.038   2.092
40837W        W 9231  24.875   8.374  12.729
40838W        W 9232  26.928  23.060   4.341
40839W        W 9233  34.413  32.711  12.979
40840W        W 9234  34.500  29.667   4.769
40841W        W 9235   7.714  29.341   0.885
40842W        W 9236  14.146  18.327   0.026
40843W        W 9237   6.235  34.392   2.691
40844W        W 9238  17.865  35.304   2.943
40845W        W 9239   5.223   1.524   2.168
40846W        W 9240   9.000  35.467   1.472
40847W        W 9241   2.202  28.927   4.520
40848W        W 9242   3.842  30.654  14.368
40849W        W 9243  39.324  23.705   4.562
40850W        W 9244  37.356  23.654   3.642
40851W        W 9245  12.219  36.059  13.755
40852W        W 9246  44.859  27.872  14.294
40853W        W 9247  38.776  28.417   5.067
40854W        W 9248  37.654   9.396  11.118
40855W        W 9249  31.209  13.043  13.021
40856W        W 9250  37.098  28.615  11.185
40857W        W 9251  20.437  10.794   0.681
40858W        W 9252  30.507  13.387   0.745
40859W        W 9253  19.898  11.078   1.453
40860W        W 9254  28.493   1.575   1.873
40861W        W 9255  17.303  15.067  12.556
40862W        W 9256  23.774  12.232  12.122
40863W        W 9257  23.943  30.203   2.494
40864W        W 9258  23.003  15.054   1.846
40865W        W 9259  34.158   4.375  14.250
40866W        W 9260  13.650  36.874  11.778
40867W        W 9261   6.217  35.088  13.647
40868W        W 9262   2.692  14.801   2.759
40869W        W 9263  22.430  14.133   4.070
40870W        W 9264  35.937  31.755  12.637
40871W        W 9265  23.562   4.090  12.362
40872W        W 9266  44.306  12.641   4.265
40873W        W 9267   2.291   2.630  13.286
40874W        W 9268   7.731  22.409   1.253
40875W        W 9269  32.962   9.850   1.990
40876W        W 9270  25.921  21.066   4.564
40877W        W 9271  39.121  38.117   4.225
40878W        W 9272   8.870  38.303   0.162
40879W        W 9273  17.989  20.036  14.860
40880W        W 9274   0.415   0.973  13.129
40881W        W 9275  19.312  15.656   1.870
40882W        W 9276   7.048  36.766   0.426
40883W        W 9277  26.767  16.597   3.232
40884W        W 9278  24.948  28.902  14.460
40885W        W 9279  26.118  29.469   2.860
40886W        W 9280  38.146  37.047   2.345
40887W        W 9281  11.180  12.947   1.022
40888W        W 9282  25.151   9.343   1.882
40889W        W 9283  28.407  10.698  13.131
40890W        W 9284   2.370  40.342  11.118
40891W        W 9285  35.915  32.403  11.219
40892W        W 9286  12.703  21.056   4.350
40893W        W 9287  39.563  17.799  12.054
40894W        W 9288  10.581  12.757   4.067
40895W        W 9289  33.082   1.752   3.382
40896W        W 9290  29.526   2.734  12.971
40897W        W 9291  17.606  31.552  13.469
40898W        W 9292   0.932  18.539  14.412
40899W        W 9293   0.828   3.838  10.703
40900W        W 9294  44.088  42.071  11.028
40901W        W 9295   1.668  12.475   2.929
40902W        W 9296  26.606  13.065  14.008
40903W        W 9297   1.038  36.303   3.252
40904W        W 9298  14.117  19.277   2.152
40905W        W 9299   4.867  21.136   1.367
40906W        W 9300  17.208   4.137  10.240
40907W        W 9301   6.400  26.590   4.851
40908W        W 9302   1.692  31.965   3.113
40909W        W 9303  36.903   4.715  14.880
40910W        W 9304  41.102  20.793  12.455
40911W        W 9305  32.409   4.960  11.192
40912W        W 9306  31.313   1.945   1.726
40913W        W 9307  42.191  37.888   0.002
40914W        W 9308  15.114  20.196   1.905
40915W        W 9309  41.917   2.894   0.810
40916W        W 9310  18.642  14.275   1.940
40917W        W 9311  25.465  20.333   1.391
40918W        W 9312  40.889   4.204  11.668
40919W        W 9313  29.682   9.776   2.617
40920W        W 9314  40.460   0.734  13.324
40921W        W 9315  22.065  21.218  10.399
40922W        W 9316   3.650  37.571  11.192
40923W        W 9317  25.156  15.692  10.716
40924W        W 9318  25.496  37.597  13.051
40925W        W 9319  30.051  20.876   1.013
40926W        W 9320  39.029   9.734   2.797
40927W        W 9321   2.926  17.142   4.758
40928W        W 9322  11.663   1.257   4.822
40929W        W 9323   4.453  19.197  12.004
40930W        W 9324  29.765  19.764  12.208
40931W        W 9325  39.585  17.055  13.537
40932W        W 9326  40.871  39.830  10.492
40933W        W 9327  28.082  30.889  10.746
40934W        W 9328  21.574  30.502  13.801
40935W        W 9329   1.852  34.363   1.919
40936W        W 9330  17.026  23.677  12.896
40937W        W 9331   7.578   5.019  11.160
40938W        W 9332  30.654  20.527  14.683
40939W        W 9333  11.419  19.812   1.172
40940W        W 9334  42.991  19.988   5.201
40941W        W 9335  24.694  17.695  12.337
40942W        W 9336  26.088   5.482  14.865
40943W        W 9337  36.107  43.437   3.356
40944W        W 9338   9.253   0.080  14.032
40945W        W 9339  23.749  18.048  11.933
40946W        W 9340  44.237  31.156   5.329
40947W        W 9341  40.254  29.458   4.050
40948W        W 9342  44.317  27.670   4.052
40949W        W 9343  35.929  14.213   0.806
40950W        W 9344  13.137  38.392   1.392
40951W        W 9345  37.743  33.186  11.681
40952W        W 9346  41.695  23.105  12.756
40953W        W 9347   6.712  34.920  13.524
40954W        W 9348  43.605  40.375   4.659
40955W        W 9349  23.996  20.695  12.973
40956W        W 9350  43.919  36.889  12.907
40957W        W 9351  39.129  31.121  11.507
40958W        W 9352   4.383  36.147  12.431
40959W        W 9353  16.278   3.219   3.600
40960W        W 9354  17.477  29.467  13.812
40961W        W 9355  26.507   0.764  14.594
40962W        W 9356  31.801  24.382   4.674
40963W        W 9357  28.944   8.654   0.810
40964W        W 9358   8.413  15.884  11.431
40965W        W 9359  40.800  12.121   1.025
40966W        W 9360  43.856  29.631   1.730
40967W        W 9361  36.268  36.393  13.428
40968W        W 9362  19.682   4.243   4.938
40969W        W 9363  18.299   2.240  13.961
40970W        W 9364  35.885  19.506   3.288
40971W        W 9365  22.401  20.009  13.325
40972W        W 9366   3.421  42.980  10.497
40973W        W 9367  33.543  18.371   5.200
40974W        W 9368  27.000  13.539  13.545
40975W        W 9369  26.878  21.663   0.281
40976W        W 9370  13.124  29.692   2.439
40977W        W 9371  42.780  30.256  11.981
40978W        W 9372   0.381  29.618  12.559
40979W        W 9373  36.812  37.618   4.121
40980W        W 9374   3.521   5.660   1.333
40981W        W 9375  19.065  23.088   1.765
40982W        W 9376   9.269  10.717  11.042
40983W        W 9377  34.922  31.994   0.826
40984W        W 9378   1.056  33.050   2.480
40985W        W 9379   6.809  41.563   0.361
40986W        W 9380  35.392  21.710   4.738
40987W        W 9381  40.408  34.504  11.242
40988W        W 9382  25.921  29.418   3.337
40989W        W 9383  18.803  14.347   1.438
40990W        W 9384  10.770  41.391  12.956
40991W        W 9385  37.986  27.663  14.881
40992W        W 9386  40.399   5.787  10.341
40993W        W 9387  33.354   6.560  13.187
40994W        W 9388  10.669  25.134  13.852
40995W        W 9389  15.804   0.744   2.304
40996W        W 9390   0.731  11.366  11.572
40997W        W 9391  38.070   3.059   1.378
40998W        W 9392   6.321  32.186   3.273
40999W        W 9393  30.573   2.456   3.138
41000W        W 9394  42.320  33.639   3.133
41001W        W 9395  30.020  40.932   2.690
41002W        W 9396   4.882  44.630   4.719
41003W        W 9397   7.240  40.999   4.309
41004W        W 9398  15.886  21.665  14.532
41005W        W 9399  29.584  20.260  13.888
41006W        W 9400  13.106  24.317   5.056
41007W        W 9401  19.195  11.653  13.205
41008W        W 9402  30.081   1.372   0.015
41009W        W 9403  11.640  40.505  13.823
41010W        W 9404  42.520  34.097   0.783
41011W        W 9405   1.557  29.620   1.296
41012W        W 9406  21.956  25.670   4.905
41013W        W 9407  11.177  22.535   2.680
41014W        W 9408  25.176  43.314  14.823
41015W        W 9409  44.029   1.267  14.330
41016W        W 9410  12.320  27.164   3.870
41017W        W 9411  11.617  43.381   1.216
41018W        W 9412  26.354  29.634   2.399
41019W        W 9413  33.788  23.130  13.126
41020W        W 9414   7.109  21.941   4.100
41021W        W 9415  19.636  23.056   4.227
41022W        W 9416  21.176  42.380   2.760
41023W        W 9417  14.179  14.275   3.550
41024W        W 9418  25.799  33.878   1.664
41025W        W 9419  19.079   4.861  12.856
41026W        W 9420  31.411  11.736   3.344
41027W        W 9421   6.957  28.541  10.692
41028W        W 9422  39.376   3.239  14.302
41029W        W 9423  11.746  12.087  11.027
41030W        W 9424   1.636  36.007   0.404
41031W        W 9425   6.904   0.172  11.385
41032W        W 9426  11.746   2.400  11.984
41033W        W 9427   0.330  22.030  14.979
41034W        W 9428  27.046  37.329  11.128
41035W        W 9429  41.304  32.087  13.861
41036W        W 9430  40.943  37.027  13.900
41037W        W 9431  43.830  35.982   5.374
41038W        W 9432  11.819   0.845   4.554
41039W        W 9433   5.181  18.603   0.883
41040W        W 9434  10.172  42.494   3.127
41041W        W 9435  31.467  33.022  12.451
41042W        W 9436   1.733  12.531  12.245
41043W        W 9437   6.541  22.471   4.522
41044W        W 9438   3.968  30.335  13.957
41045W        W 9439  37.508   7.764  13.293
41046W        W 9440  38.753  31.447   4.906
41047W        W 9441  11.383  37.738  10.196
41048W        W 9442  36.529  27.508  13.108
41049W        W 9443  18.324  13.905  12.046
41050W        W 9444  44.419  10.245   1.877
41051W        W 9445   7.889  41.356   1.439
41052W        W 9446  10.775  37.669   0.554
41053W        W 9447   6.887  31.116  11.021
41054W        W 9448  13.212   4.963  10.299
41055W        W 9449  12.651  31.989   3.457
41056W        W 9450  33.022  18.986   3.666
41057W        W 9451   7.937  21.593   1.712
41058W        W 9452  21.332  28.190   2.699
41059W        W 9453  15.622  36.520   4.979
41060W        W 9454  42.844  34.687   0.866
41061W        W 9455  27.739  37.157   2.262
41062W        W 9456  14.783   6.655   0.376
41063W        W 9457  38.468  17.811  14.193
41064W        W 9458  41.942  10.857  12.628
41065W        W 9459  41.931   8.030  14.993
41066W        W 9460   3.998  23.879  12.987
41067W        W 9461   3.852  10.849  10.871
41068W        W 9462  15.558  28.146   4.306
41069W        W 9463  23.072  32.916   1.473
41070W        W 9464  11.843  27.023   1.323
41071W        W 9465  32.312  21.481   2.918
41072W        W 9466  37.165  35.967   3.691
41073W        W 9467  36.133   9.233   4.475
41074W        W 9468   7.862  22.503   2.141
41075W        W 9469  43.448  41.714  12.988
41076W        W 9470  16.859  10.648  10.990
41077W        W 9471  38.013   3.628  12.437
41078W        W 9472  32.933   3.619   4.082
41079W        W 9473   8.833  24.963   2.652
41080W        W 9474  41.921  27.699   1.326
41081W        W 9475  34.472  39.766   2.890
41082W        W 9476  13.266  20.471  10.794
41083W        W 9477   1.242  33.499   4.585
41084W        W 9478  27.467   7.354   0.720
41085W        W 9479  37.169  34.343   4.157
41086W        W 9480  21.802   7.358  11.128
41087W        W 9481  22.191  35.014   3.824
41088W        W 9482  18.233  15.411   4.185
41089W        W 9483  13.590  41.407  13.865
41090W        W 9484  11.134  41.766  11.080
41091W        W 9485   5.083   6.632  14.262
41092W        W 9486  15.187  17.762  12.497
41093W        W 9487  19.828  27.591  13.868
41094W        W 9488  28.084   5.605   2.829
41095W        W 9489  18.797  34.356   2.481
41096W        W 9490  22.052  10.107   3.660
41097W        W 9491   9.221   4.272   0.590
41098W        W 9492   4.554  25.734  10.964
41099W        W 9493  41.431   5.719   4.614
41100W        W 9494   4.533  36.007   5.244
41101W        W 9495  23.543  17.601   1.398
41102W        W 9496  14.646  29.963  13.932
41103W        W 9497   3.932  39.925   3.406
41104W        W 9498  19.077   4.824  13.787
41105W        W 9499   2.296   4.192  13.504
41106W        W 9500   2.646   8.653   1.156
41107W        W 9501  43.342  13.260   1.350
41108W        W 9502   9.840   0.939   4.650
41109W        W 9503  36.490  36.043  13.078
41110W        W 9504  11.961  41.408  12.183
41111W        W 9505  21.269  11.571  14.487
41112W        W 9506   4.273  30.906  12.324
41113W        W 9507  44.947   0.582  12.905
41114W        W 9508  35.678  27.193  11.963
41115W        W 9509  23.983   9.282   1.358
41116W        W 9510  44.293   5.314   2.318
41117W        W 9511  30.761  37.427  13.912
41118W        W 9512  34.323  28.688   1.089
41119W        W 9513  39.829   1.883  12.370
41120W        W 9514  10.804  26.840   3.320
41121W        W 9515  44.963  18.321   1.418
41122W        W 9516  28.213   5.590  13.009
41123W        W 9517  19.979  40.127   0.001
41124W        W 9518   2.874  21.188   2.326
41125W        W 9519  28.638  42.724   4.590
41126W        W 9520  20.158  42.158  14.479
41127W        W 9521   9.214  29.640  12.183
41128W        W 9522  17.161  44.105  12.539
41129W        W 9523  44.279  38.050  14.229
41130W        W 9524  22.035  31.660   1.403
41131W        W 9525  10.479  22.977   1.987
41132W        W 9526  43.830   8.593   0.950
41133W        W 9527   9.897  20.430   1.700
41134W        W 9528  40.132  38.002   3.289
41135W        W 9529  32.847  40.553  14.881
41136W        W 9530  28.730  40.023   1.406
41137W        W 9531  16.853   5.457   4.196
41138W        W 9532  32.923  23.749  11.966
41139W        W 9533  31.130   8.508  13.079
41140W        W 9534   8.490  18.511  13.422
41141W        W 9535  41.826  29.570  13.121
41142W        W 9536   2.893  25.044   3.706
41143W        W 9537  29.238  41.488   3.195
41144W        W 9538   6.884  18.348   0.774
41145W        W 9539  39.113   1.407   1.901
41146W        W 9540  38.795  26.073  11.117
41147W        W 9541  44.111  30.558   1.417
41148W        W 9542   3.088  43.522  11.396
41149W        W 9543  32.115  20.233   1.260
41150W        W 9544  16.715  16.606   2.754
41151W        W 9545   2.535  41.233  11.050
41152W        W 9546  14.654  23.688  10.875
41153W        W 9547  32.417  29.063  11.696
41154W        W 9548   7.976   2.511   1.609
41155W        W 9549   5.856  12.071  12.407
41156W        W 9550   3.114  22.618   4.186
41157W        W 9551  38.138  29.895  11.901
41158W        W 9552  38.748  38.457   1.886
41159W        W 9553  16.666  22.583   0.487
41160W        W 9554   8.929  40.013   1.828
41161W        W 9555   0.857  22.735   0.284
41162W        W 9556  41.350  37.663   1.689
41163W        W 9557  20.316  43.511  12.037
41164W        W 9558  38.029  42.827  14.843
41165W        W 9559  24.648  14.229   1.703
41166W        W 9560  31.366  31.720   2.186
41167W        W 9561  35.500   8.634  14.259
41168W        W 9562   9.486  38.769   2.660
41169W        W 9563  28.665  19.174   1.361
41170W        W 9564  38.459  36.093  11.181
41171W        W 9565  44.821  21.489   0.594
41172W        W 9566  11.640  38.907  14.579
41173W        W 9567   3.743  35.973  13.067
41174W        W 9568   3.816  10.438   3.196
41175W        W 9569  30.986  38.294   2.713
41176W        W 9570  16.561  36.050   2.134
41177W        W 9571   8.994  26.082  11.518
41178W        W 9572  41.350  15.273   4.578
41179W        W 9573  27.526  31.180   1.882
41180W        W 9574  25.089  41.569  10.648
41181W        W 9575  16.028  43.677  13.480
41182W        W 9576  31.027   0.800  11.614
41183W        W 9577  30.926   5.359   3.759
41184W        W 9578   4.112  43.255  10.631
41185W        W 9579  19.178  36.487   1.718
41186W        W 9580  44.312  19.312   3.006
41187W        W 9581  28.448  38.715  11.152
41188W        W 9582  22.004  27.914  11.352
41189W        W 9583  16.376  34.606   4.723
41190W        W 9584  13.553   9.878  13.585
41191W        W 9585  32.897  12.445   0.915
41192W        W 9586  25.383   8.377  12.562
41193W        W 9587  35.831  12.818  13.468
41194W        W 9588   0.566  11.906  11.325
41195W        W 9589   0.205  33.590   0.283
41196W        W 9590   9.946  42.358   0.359
41197W        W 9591   2.165  30.493  12.088
41198W        W 9592  21.326  14.816   1.381
41199W        W 9593  17.748   9.980  12.661
41200W        W 9594   4.789  14.157   3.229
41201W        W 9595  12.410   0.865   0.729
41202W        W 9596  42.188  38.630   3.765
41203W        W 9597   4.336  44.562   1.841
41204W        W 9598  14.912  42.748   5.042
41205W        W 9599  43.988   7.183   1.660
41206W        W 9600   3.159  31.036   3.689
41207W        W 9601  36.036  21.420  11.279
41208W        W 9602   2.231  11.694   2.938
41209W        W 9603  23.634   5.846  10.714
41210W        W 9604  37.970  11.451   3.167
41211W        W 9605  16.914   0.666  14.399
41212W        W 9606  26.282   5.439   4.180
41213W        W 9607   1.275  38.463   0.797
41214W        W 9608  41.230  28.056  12.120
41215W        W 9609  17.790  18.517   2.677
41216W        W 9610  15.577  40.521  12.862
41217W        W 9611  32.118  36.887  12.954
41218W        W 9612  39.123   4.422  12.098
41219W        W 9613  21.143  22.100   4.185
41220W        W 9614   7.158  10.190   0.612
41221W        W 9615  12.883  44.982  12.367
41222W        W 9616   0.079  32.091  13.046
41223W        W 9617  10.127  39.335  12.446
41224W        W 9618  35.471  18.139  12.410
41225W        W 9619  31.376  16.965  11.053
41226W        W 9620   8.283   0.060  14.015
41227W        W 9621  10.835  14.551   4.202
41228W        W 9622   1.760   3.607   0.054
41229W        W 9623  26.918  18.612  14.523
41230W        W 9624  32.879   5.217   3.416
41231W        W 9625   3.717   4.375  12.958
41232W        W 9626  40.374  18.733   1.637
41233W        W 9627  26.600  33.899  10.863
41234W        W 9628  30.131  22.174   0.432
41235W        W 9629  27.012  42.964   4.846
41236W        W 9630  23.023  43.508  13.441
41237W        W 9631   2.223  13.325  11.570
41238W        W 9632   6.265  24.321  12.888
41239W        W 9633   0.943  10.962  11.888
41240W        W 9634  38.215   2.537   2.750
41241W        W 9635  32.259   7.245   1.628
41242W        W 9636  10.800  30.356  11.957
41243W        W 9637   7.291  17.119  10.834
41244W        W 9638  33.246  24.059   0.789
41245W        W 9639  30.667  14.784  12.971
41246W        W 9640  18.458   6.797   3.182
41247W        W 9641  13.463  26.654  10.250
41248W        W 9642  10.942  41.044   0.344
41249W        W 9643  29.541  29.185  13.750
41250W        W 9644  39.034  32.064  14.747
41251W        W 9645  18.470  40.539  10.252
41252W        W 9646   6.241  30.923  12.006
41253W        W 9647  34.531  23.758   1.263
41254W        W 9648  12.798  23.234  12.419
41255W        W 9649  11.237  32.962  14.328
41256W        W 9650  36.803   1.019  11.244
41257W        W 9651  22.121  44.464  10.839
41258W        W 9652  24.876   6.396  10.615
41259W        W 9653   0.212  29.570  14.250
41260W        W 9654  29.797  11.727  14.059
41261W        W 9655  36.980  39.679   4.098
41262W        W 9656  11.503   5.318  10.411
41263W        W 9657  18.706  29.203  11.256
41264W        W 9658  21.137   1.425  12.529
41265W        W 9659  16.485   8.665   4.034
41266W        W 9660  27.039  16.219   0.665
41267W        W 9661  40.545  35.450  13.342
41268W        W 9662  24.705  13.268   4.246
41269W        W 9663  21.920  12.854  10.708
41270W        W 9664  12.324   8.433  13.966
41271W        W 9665  14.224   0.818   2.331
41272W        W 9666  30.506  22.276   1.912
41273W        W 9667  39.270  17.062   3.356
41274W        W 9668  30.123  30.504  13.065
41275W        W 9669   0.017  22.294   0.336
41276W        W 9670   4.926  17.010   3.728
41277W        W 9671  37.278   1.971  13.076
41278W        W 9672  35.133  42.356   2.047
41279W        W 9673  40.448   9.409   4.140
41280W        W 9674   8.917  35.248   1.941
41281W        W 9675  18.303  36.035   2.099
41282W        W 9676  19.185  12.172  11.939
41283W        W 9677  38.849   6.948   3.139
41284W        W 9678  12.348  14.608  14.958
41285W        W 9679   1.219  23.279  12.961
41286W        W 9680  21.451  11.144   3.270
41287W        W 9681  34.042  22.292  13.926
41288W        W 9682   4.735  31.654   1.233
41289W        W 9683  18.046  11.829   4.962
41290W        W 9684   8.180  22.183  14.276
41291W        W 9685  42.378   0.437   3.926
41292W        W 9686  20.761  23.697   4.563
41293W        W 9687  22.490   2.279  14.451
41294W        W 9688   2.489  39.084   2.600
41295W        W 9689  33.125  18.470   1.913
41296W        W 9690  16.203  32.493   0.348
41297W        W 9691   3.936   3.633   0.389
41298W        W 9692  10.601   7.364  12.543
41299W        W 9693  38.832  15.091   1.551
41300W        W 9694   8.024  32.990   1.363
41301W        W 9695   0.560   6.811   2.778
41302W        W 9696  25.974   2.796   3.185
41303W        W 9697  29.483  16.056   4.177
41304W        W 9698  22.450  20.555   0.445
41305W        W 9699  32.334   6.897   0.697
41306W        W 9700  41.403  40.842  13.300
41307W        W 9701  14.584  29.031  12.463
41308W        W 9702  33.694  15.148  12.900
41309W        W 9703  34.654  14.097  14.949
41310W        W 9704  33.407   1.494   0.484
41311W        W 9705  31.496  43.789   0.028
41312W        W 9706   1.731  34.284   4.083
41313W        W 9707  18.519  17.599   2.257
41314W        W 9708  20.629  15.274   4.727
41315W        W 9709  22.711  16.798   4.146
41316W        W 9710  40.897  40.364   2.278
41317W        W 9711  32.625  26.995  11.260
41318W        W 9712  25.112  32.304  10.402
41319W        W 9713  20.356  16.235  11.070
41320W        W 9714  37.086   2.454   3.947
41321W        W 9715  20.122  19.644   4.164
41322W        W 9716  26.629   2.318   0.342
41323W        W 9717   7.135  29.202  14.927
41324W        W 9718   5.747  28.573   1.203
41325W        W 9719  44.501   3.300  11.044
41326W        W 9720   3.197  43.913  12.909
41327W        W 9721  32.332  15.158  12.508
41328W        W 9722   5.356   0.398  11.058
41329W        W 9723   8.360  36.349   3.688
41330W        W 9724  36.881   0.251  10.947
41331W        W 9725  31.406  30.895   1.912
41332W        W 9726  24.479   2.225   4.795
41333W        W 9727   8.685  15.795   4.268
41334W        W 9728  19.199  13.762  12.173
41335W        W 9729  43.462  36.629  11.411
41336W        W 9730  18.042  37.755  12.315
41337W        W 9731  35.507   1.517   1.045
41338W        W 9732  23.640  44.530  11.612
41339W        W 9733  23.722   9.271  10.280
41340W        W 9734  15.322  42.466  14.765
41341W        W 9735  40.010   5.932   3.628
41342W        W 9736   8.186  35.944   4.601
41343W        W 9737  11.879  13.827  13.025
41344W        W 9738  31.900  39.884  12.488
41345W        W 9739  44.415  11.348  11.240
41346W        W 9740   0.501  16.281   3.544
41347W        W 9741  40.399  31.723  10.484
41348W        W 9742  16.009  42.397   2.155
41349W        W 9743  31.589  43.296   4.518
41350W        W 9744  24.894  31.492  14.961
41351W        W 9745  33.353  38.868   4.510
41352W        W 9746  33.282  15.706  10.525
41353W        W 9747   6.553   1.885   3.231
41354W        W 9748  15.041  20.064   1.367
41355W        W 9749  39.416  27.525   4.504
41356W        W 9750  27.851  42.842   3.366
41357W        W 9751  25.542  20.518  14.857
41358W        W 9752   6.921  18.865  11.894
41359W        W 9753  20.504   5.870   1.264
41360W        W 9754  15.723  27.201  13.885
41361W        W 9755  35.852   1.368   4.438
41362W        W 9756  38.358   2.100  11.080
41363W        W 9757  41.357   2.233   1.138
41364W        W 9758  19.830   4.719   0.393
41365W        W 9759  13.127  28.094  13.966
41366W        W 9760   1.425  43.827   1.285
41367W        W 9761   7.634  17.682  11.621
41368W        W 9762   2.601   2.236  12.559
41369W        W 9763  39.547  32.170   4.356
41370W        W 9764  29.142  43.614  11.882
41371W        W 9765  23.147  38.517  11.093
41372W        W 9766  27.666   6.868   0.745
41373W        W 9767  39.299  26.489   3.571
41374W        W 9768   9.187  31.530   2.920
41375W        W 9769  29.141   7.223   3.288
41376W        W 9770  40.808  22.021  12.382
41377W        W 9771   5.817   6.456   4.378
41378W        W 9772  37.898  31.628   0.047
41379W        W 9773   8.225  19.248   1.695
41380W        W 9774   5.313  17.787   1.736
41381W        W 9775  44.594  32.012  10.785
41382W        W 9776  38.053   3.134  13.851
41383W        W 9777  31.257  34.582  12.499
41384W        W 9778  36.547  14.393  10.924
41385W        W 9779  37.487  31.676  11.914
41386W        W 9780  27.108  19.856   1.012
41387W        W 9781  26.490  27.644   1.316
41388W        W 9782  19.692  34.048   0.425
41389W        W 9783  11.900  39.083  14.995
41390W        W 9784  43.370  25.947   1.610
41391W        W 9785  21.623  13.655  10.931
41392W        W 9786  15.581  20.992   4.149
41393W        W 9787  37.438  13.638   4.640
41394W        W 9788  10.319  44.479   4.594
41395W        W 9789  13.235  16.052   4.571
41396W        W 9790  26.141  28.594  14.332
41397W        W 9791  12.746  43.030  13.054
41398W        W 9792   3.229  38.223  12.547
41399W        W 9793  22.079  28.530   3.277
41400W        W 9794  15.342  16.305   0.728
41401W        W 9795  34.936  41.232   0.735
41402W        W 9796   7.743  10.815   0.333
41403W        W 9797  36.902  21.069   4.075
41404W        W 9798  15.201  43.369   0.748
41405W        W 9799  30.482  26.554   4.089
41406W        W 9800  24.921  23.698   0.761
41407W        W 9801   2.482  28.860   0.401
41408W        W 9802  11.617  42.464  11.638
41409W        W 9803   2.530  12.769  11.761
41410W        W 9804  35.779  33.847  12.845
41411W        W 9805  40.888  43.881   0.791
41412W        W 9806   4.550  21.683   0.767
41413W        W 9807  41.301  33.667  12.389
41414W        W 9808  25.178  37.908   4.677
41415W        W 9809   1.815  40.313  13.348
41416W        W 9810  44.853   1.940  12.638
41417W        W 9811  18.164  18.131  14.299
41418W        W 9812  22.754   9.822  12.395
41419W        W 9813  17.300  28.795   4.252
41420W        W 9814  41.548   7.930   4.682
41421W        W 9815  40.758  19.570  10.344
41422W        W 9816   1.028  39.407   2.783
41423W        W 9817  17.290  37.373   0.584
41424W        W 9818   2.519  27.080   2.436
41425W        W 9819  13.191  10.823  13.406
41426W        W 9820  20.237   5.921  14.444
41427W        W 9821   6.170  10.837   3.250
41428W        W 9822  18.132  42.909   0.650
41429W        W 9823  12.769  30.081  13.815
41430W        W 9824   2.979  40.260  12.499
41431W        W 9825  42.929  14.406   0.806
41432W        W 9826  19.514  14.029  14.509
41433W        W 9827  13.243  36.154  13.989
41434W        W 9828  27.470  16.279   0.956
41435W        W 9829  37.067  25.944  10.611
41436W        W 9830  11.269  25.985   1.940
41437W        W 9831  43.391  20.960   3.717
41438W        W 9832  35.516  10.392   0.239
41439W        W 9833   6.007  19.973  11.975
41440W        W 9834  29.658  15.802   4.665
41441W        W 9835  29.265  13.752  11.888
41442W        W 9836  11.003  14.786  12.865
41443W        W 9837  37.125  30.600  10.731
41444W        W 9838  33.807  17.806  13.007
41445W        W 9839  20.028  33.152  12.817
41446W        W 9840  42.002  38.541  10.457
41447W        W 9841  19.081  32.737   2.690
41448W        W 9842  20.386  44.984   1.775
41449W        W 9843   2.826  15.143   2.265
41450W        W 9844  21.110  22.242  10.109
41451W        W 9845  28.844  24.513  11.581
41452W        W 9846  10.347   4.687   2.389
41453W        W 9847  28.379  22.420  12.639
41454W        W 9848  44.732  10.274  12.891
41455W        W 9849  42.414   5.958   1.845
41456W        W 9850   3.541  27.237   1.361
41457W        W 9851  44.363   0.266   1.437
41458W        W 9852  26.136  19.766   2.598
41459W        W 9853  43.082  44.814  10.778
41460W        W 9854   7.942  20.810   3.137
41461W        W 9855   5.952  43.514  12.949
41462W        W 9856   0.380  28.958   1.604
41463W        W 9857   1.219   3.801  12.354
41464W        W 9858  19.586   1.039   1.723
41465W        W 9859  20.176   1.209   2.251
41466W        W 9860  25.770  18.732  11.202
41467W        W 9861  20.212  30.933   2.858
41468W        W 9862   7.854  31.435   5.061
41469W        W 9863  16.092  43.021   3.024
41470W        W 9864  32.157  32.985  14.858
41471W        W 9865  23.665  25.067   3.786
41472W        W 9866   9.516  35.639  14.405
41473W        W 9867  27.080  37.604   0.121
41474W        W 9868  31.931  27.603   0.444
41475W        W 9869  12.477  30.166  11.310
41476W        W 9870  27.204  42.608   3.660
41477W        W 9871  43.343  13.128  14.117
41478W        W 9872   6.733  19.457   4.429
41479W        W 9873  43.469  15.304   0.496
41480W        W 9874  20.837  19.192  13.289
41481W        W 9875  34.887  36.335  13.928
41482W        W 9876  32.523  16.326  10.514
41483W        W 9877  27.783  31.660   1.295
41484W        W 9878  13.549  14.124   2.713
41485W        W 9879  43.317  17.213   3.372
41486W        W 9880  42.246  12.955  12.114
41487W        W 9881  34.585   8.786  11.530
41488W        W 9882   8.326  33.871   3.319
41489W        W 9883  29.225  14.547   1.279
41490W        W 9884  36.841  15.794  10.486
41491W        W 9885  29.953  28.490  13.434
41492W        W 9886  28.433  31.940   0.322
41493W        W 9887  36.431  43.505  13.466
41494W        W 9888  26.516  31.937  13.476
41495W        W 9889  41.588  39.878  14.834
41496W        W 9890  24.635  30.956   2.351
41497W        W 9891   3.784  44.899   0.806
41498W        W 9892   4.823   0.703   2.931
41499W        W 9893   0.391   3.849   3.332
41500W        W 9894   5.869   6.933   1.257
41501W        W 9895  12.060   7.222  14.251
41502W        W 9896  27.923  28.467   3.235
41503W        W 9897   4.970  24.243  10.577
41504W        W 9898   8.281  21.561  11.183
41505W        W 9899  12.852  15.629  10.886
41506W        W 9900  38.778   8.729  13.417
41507W        W 9901  42.007   6.228  11.627
41508W        W 9902  17.574  16.867  13.406
41509W        W 9903  25.166  31.085  14.772
41510W        W 9904  44.535  29.990  14.026
41511W        W 9905  24.310  23.410  11.988
41512W        W 9906  19.059  37.028  12.563
41513W        W 9907  19.559  39.117  13.587
41514W        W 9908   9.688  13.808   1.964
41515W        W 9909  38.516  32.557  13.075
41516W        W 9910  12.658  43.453   3.604
41517W        W 9911  26.426  30.600   2.350
41518W        W 9912  43.423  33.360  13.393
41519W        W 9913  14.105  33.890  14.014
41520W        W 9914   4.450  21.535  10.477
41521W        W 9915  44.828   9.597  13.599
41522W        W 9916  19.109  13.599   1.820
41523W        W 9917  43.059  37.617   3.564
41524W        W 9918   7.721  42.590   3.367
41525W        W 9919  29.685  41.218  13.966
41526W        W 9920  28.056  12.776  14.719
41527W        W 9921  14.224  44.829   1.724
41528W        W 9922  15.118  31.888   2.432
41529W        W 9923  40.822   3.599   3.839
41530W        W 9924  27.436   1.764   0.457
41531W        W 9925  31.573  27.392   4.663
41532W        W 9926  10.292   7.576  10.469
41533W        W 9927  23.758  27.610   1.889
41534W        W 9928  21.827  11.871  12.422
41535W        W 9929   4.828  32.607  13.069
41536W        W 9930  31.076  22.757   3.716
41537W        W 9931  16.779  33.494   4.988
41538W        W 9932  27.707  13.347  12.429
41539W        W 9933  14.228  25.216  12.920
41540W        W 9934  32.758  25.597  12.502
41541W        W 9935   0.940   0.934  13.777
41542W        W 9936  24.706  44.613  11.031
41543W        W 9937  25.013  40.531  14.535
41544W        W 9938  31.225  17.657   1.735
41545W        W 9939   8.887  17.076   1.736
41546W        W 9940  10.194   2.847   1.759
41547W        W 9941  11.350  24.490  12.960
41548W        W 9942  32.076   8.077   4.676
41549W        W 9943  44.889   9.795  11.895
41550W        W 9944  10.750  12.664   1.095
41551W        W 9945  43.414  10.041   1.756
41552W        W 9946  28.827  32.318  12.560
41553W        W 9947  10.051  34.669  14.955
41554W        W 9948  26.644  22.002   0.678
41555W        W 9949  27.719  10.086  12.179
41556W        W 9950  37.001  26.797   1.947
41557W        W 9951   6.876   6.100   5.044
41558W        W 9952  14.731  38.540  14.491
41559W        W 9953  27.981  21.626   9.902
41560W        W 9954   7.960   9.710  13.234
41561W        W 9955   3.746  23.292  11.129
41562W        W 9956  38.465  37.065   3.877
41563W        W 9957   9.889  31.326   1.843
41564W        W 9958  40.621  30.154   0.358
41565W        W 9959  41.911  42.952  11.693
41566W        W 9960  18.401   0.488   0.132
41567W        W 9961  18.787  27.976   0.411
41568W        W 9962  11.257  23.520   3.098
41569W        W 9963  20.679  23.646  14.722
41570W        W 9964   2.208  21.556  13.391
41571W        W 9965   1.344  25.605   2.173
41572W        W 9966   7.814  31.021   0.738
41573W        W 9967  28.563   1.245  11.894
41574W        W 9968   4.810  27.737   3.514
41575W        W 9969  16.739  10.991   4.165
41576W        W 9970  14.280   3.438  13.987
41577W        W 9971  24.917  20.724  14.769
41578W        W 9972  30.439  30.539   3.322
41579W        W 9973  27.300  10.298  11.960
41580W        W 9974  27.621  22.242  14.860
41581W        W 9975  32.434   3.409   0.375
41582W        W 9976  41.838  27.622  13.551
41583W        W 9977  30.934  12.144   4.483
41584W        W 9978  37.841  25.156  14.828
41585W        W 9979   2.380   8.292  12.974
41586W        W 9980  28.869  26.121   0.775
41587W        W 9981  22.707  15.362   0.614
41588W        W 9982   5.740  17.156   0.888
41589W        W 9983   2.924  43.579   1.224
41590W        W 9984  36.623  22.043  10.729
41591W        W 9985   5.093  27.077  12.168
41592W        W 9986  36.521  14.739  11.678
41593W        W 9987  44.410  43.131   3.217
41594W        W 9988   3.983  33.176   3.739
41595W        W 9989  44.623  24.544   0.347
41596W        W 9990   5.423  21.504  12.564
41597W        W 9991  26.668  11.222   2.211
41598W        W 9992  32.473   1.815  13.996
41599W        W 9993  23.465  23.335   1.015
41600W        W 9994  37.388  26.845   0.763
41601W        W 9995   1.921  42.445   3.248
41602W        W 9996  17.638  44.144   3.330
41603W        W 9997  34.597  10.897   2.622
41604W        W 9998  35.818   4.631   0.446
41605W        W 9999  18.689  38.793   3.605
41606W        W10000   5.330  20.490  11.559
41607W        W10001  33.483  30.682  14.989
41608W        W10002  20.598  34.300   0.321
41609W        W10003  35.004  31.640   4.402
41610W        W10004   4.745  15.327  13.861
41611W        W10005   1.602  19.178   3.730
41612W        W10006  40.354   2.887   0.717
41613W        W10007   2.431  20.111   3.357
41614W        W10008  18.760   8.201  14.569
41615W        W10009  15.521  44.281   0.101
41616W        W10010  26.852  40.881  14.117
41617W        W10011  27.913  19.732  13.568
41618W        W10012  37.769  42.557   3.831
41619W        W10013  25.102  35.829   4.668
41620W        W10014  24.460  24.694  13.431
41621W        W10015  39.336  41.993   0.737
41622W        W10016   2.685  37.537   3.764
41623W        W10017  42.394  14.040   3.583
41624W        W10018   7.897  36.310   1.424
41625W        W10019  27.418  44.361  11.664
41626W        W10020  32.973  36.648  14.704
41627W        W10021  43.948  40.918   2.250
41628W        W10022  20.618  30.013  14.358
41629W        W10023   3.818  18.527   3.771
41630W        W10024  25.939  42.591   2.402
41631W        W10025   0.124   2.944  10.769
41632W        W10026  31.481  27.360   4.162
41633W        W10027   9.622  34.186  12.959
41634W        W10028  31.582  17.025  14.325
41635W        W10029  25.986  27.996  12.010
41636W        W10030  25.448  39.369  14.894
41637W        W10031  39.467  13.187  12.170
41638W        W10032  16.842  29.324  13.444
41639W        W10033   9.746  36.418  13.965
41640W        W10034  36.977  17.926   0.594
41641W        W10035  15.230  37.650   3.226
41642W        W10036  17.998  38.277   0.426
41643W        W10037  11.290  23.537   4.063
41644W        W10038  13.679  36.602   1.361
41645W        W10039   9.253  36.571  13.925
41646W        W10040  12.867  43.971  12.488
41647W        W10041  29.016   9.383  12.535
41648W        W10042  37.964  27.989   1.191
41649W        W10043  19.761  37.571   4.599
41650W        W10044  34.185  18.756  13.098
41651W        W10045  35.662  30.142  12.030
41652W        W10046  31.029  22.162   4.136
41653W        W10047  10.507   8.275   3.165
41654W        W10048  35.601  28.774   3.176
41655W        W10049  30.450  22.999   4.844
41656W        W10050   3.472  39.639  11.185
41657W        W10051  30.690  41.281   3.760
41658W        W10052  39.985  21.248   0.982
41659W        W10053  21.734  20.174  13.995
41660W        W10054  29.934   0.897  11.576
41661W        W10055  11.503  21.599   1.094
41662W        W10056  28.082  20.799   1.331
41663W        W10057  15.286  26.115   3.449
41664W        W10058  41.509   0.827  14.300
41665W        W10059  33.980  37.334   5.025
41666W        W10060  29.459   6.816  13.301
41667W        W10061   7.728  43.557   2.473
41668W        W10062  15.446  43.991   3.424
41669W        W10063  13.141  19.654   4.166
41670W        W10064   7.302  19.767   2.646
41671W        W10065  10.695  23.066  12.441
41672W        W10066  25.673  26.090  14.764
41673W        W10067  44.835  21.164  12.197
41674W        W10068  29.517  18.087   5.202
41675W        W10069  32.431  40.313   0.681
41676W        W10070  35.789  28.550   1.460
41677W        W10071  28.549  18.030   1.855
41678W        W10072   1.769   7.382  12.561
41679W        W10073   6.389  12.600  12.305
41680W        W10074  37.979  42.356   3.268
41681W        W10075  27.547  20.335  14.221
41682W        W10076  12.356  14.024   2.501
41683W        W10077  33.018   2.222  11.979
41684W        W10078   3.415  38.631   1.872
41685W        W10079   9.843  21.036  10.623
41686W        W10080  21.200  14.062  10.687
41687W        W10081  40.780  31.990   1.962
41688W        W10082  23.821   4.645   0.980
41689W        W10083  20.793  22.242   0.175
41690W        W10084  39.469   9.483   2.818
41691W        W10085   1.928  12.685   1.335
41692W        W10086   9.430  20.551   1.917
41693W        W10087  17.915  21.053   0.950
41694W        W10088  16.535   9.155  14.325
41695W        W10089  41.862  26.125   2.753
41696W        W10090  37.699  35.982   3.911
41697W        W10091   7.768  39.341   2.761
41698W        W10092  12.393  42.477   3.813
41699W        W10093  23.914  42.111   3.272
41700W        W10094  24.054  22.206   2.182
41701W        W10095  10.502   3.054  12.064
41702W        W10096  28.064  23.636  11.069
41703W        W10097  44.032  43.556  12.114
41704W        W10098   0.159  38.446  12.962
41705W        W10099  43.563  40.211   5.151
41706W        W10100   8.962  16.142   3.995
41707W        W10101  31.344  10.216   2.169
41708W        W10102  43.328  43.796   3.607
41709W        W10103  30.123   6.232  10.788
41710W        W10104  18.267  31.370   2.817
41711W        W10105  34.068   7.355  13.816
41712W        W10106  13.341   0.914   4.409
41713W        W10107  41.415  12.950   5.055
41714W        W10108   9.210  20.828   4.618
41715W        W10109  30.522  43.256   1.782
41716W        W10110  44.406  21.633   0.302
41717W        W10111  26.999  14.862  13.904
41718W        W10112  15.054   5.590   0.127
41719W        W10113  38.904  41.603   1.438
41720W        W10114  36.228  20.690   5.028
41721W        W10115  15.291  36.529  14.290
41722W        W10116  27.963  18.458  11.676
41723W        W10117  10.847   8.448  11.239
41724W        W10118  42.370  39.948   0.726
41725W        W10119   7.333  23.045  10.567
41726W        W10120  40.901  10.579   4.334
41727W        W10121  21.564  16.140   2.117
41728W        W10122   3.086  35.443   4.118
41729W        W10123   2.698  38.718   1.232
41730W        W10124   6.247  16.778  10.974
41731W        W10125  15.384  26.933  13.437
41732W        W10126  20.314  33.410   4.145
41733W        W10127  22.209  28.031   3.281
41734W        W10128   2.695  17.371   5.148
41735W        W10129  10.374  29.539   0.831
41736W        W10130  38.476  38.335  13.328
41737W        W10131  16.348  40.092  13.923
41738W        W10132  44.673   4.721   3.721
41739W        W10133  14.093  43.094  11.198
41740W        W10134   1.183  24.363   5.128
41741W        W10135  37.009   4.393  14.020
41742W        W10136  35.305   1.204  12.022
41743W        W10137  14.592  18.628  11.216
41744W        W10138   3.963  44.278  13.471
41745W        W10139  31.684  21.734  14.501
41746W        W10140  35.496  28.962   0.868
41747W        W10141   8.174  41.398  12.524
41748W        W10142   4.910   4.500   3.132
41749W        W10143  12.758  13.379   1.197
41750W        W10144  44.069   1.276  13.798
41751W        W10145  22.547  31.388   0.269
41752W        W10146  32.251  42.330  14.923
41753W        W10147  29.331  44.610  11.876
41754W        W10148  14.703  37.442  13.093
41755W        W10149   5.139  42.790   2.797
41756W        W10150   9.395  29.269   2.375
41757W        W10151  24.529  25.532  12.411
41758W        W10152  32.168  20.046  12.020
41759W        W10153  44.743  22.894  10.992
41760W        W10154  15.381  38.113   1.409
41761W        W10155  23.050  17.543   3.154
41762W        W10156   0.500  20.071  11.188
41763W        W10157   0.217   7.772   0.003
41764W        W10158  31.463  36.967   4.418
41765W        W10159  16.018   8.285   1.819
41766W        W10160  15.118   4.886   4.593
41767W        W10161   9.836  41.917  13.113
41768W        W10162  16.131  17.226   1.223
41769W        W10163   6.685   1.794  12.939
41770W        W10164  16.770  18.508  12.412
41771W        W10165  16.039  25.194  14.497
41772W        W10166   1.972  12.992   0.914
41773W        W10167  37.182  37.945  13.403
41774W        W10168   6.311  32.505   1.928
41775W        W10169  17.128  35.115   2.685
41776W        W10170   1.944  38.176   0.813
41777W        W10171  37.953  42.646   1.790
41778W        W10172  15.711  23.280  11.180
41779W        W10173  27.448  10.915   1.876
41780W        W10174  26.833   1.962  14.450
41781W        W10175  14.757  17.768  12.203
41782W        W10176  37.389  14.875  13.969
41783W        W10177  42.370   1.796  11.094
41784W        W10178  36.168  31.570  14.822
41785W        W10179  40.371   8.661   1.664
41786W        W10180   6.349  15.420  10.250
41787W        W10181  14.794  17.733   2.254
41788W        W10182  17.530  32.554  11.558
41789W        W10183  33.516  10.155  14.423
41790W        W10184  12.957  19.676   0.478
41791W        W10185  18.820  16.669   4.351
41792W        W10186  25.117   0.278   0.615
41793W        W10187  15.298  34.907   3.398
41794W        W10188  28.543  13.850   4.102
41795W        W10189  23.400  34.225   0.410
41796W        W10190  10.298  16.050  13.275
41797W        W10191  33.904   3.919  13.010
41798W        W10192   8.545  36.320   4.567
41799W        W10193  16.784  39.936  12.046
41800W        W10194  19.214  11.319  14.585
41801W        W10195   5.353  14.148   0.824
41802W        W10196  39.353  42.845   2.211
41803W        W10197   4.191  25.079  11.643
41804W        W10198  31.518  36.022   4.615
41805W        W10199  39.613  44.932  13.528
41806W        W10200  15.326  14.767   3.859
41807W        W10201  34.915  25.456   4.921
41808W        W10202  17.612  41.774   2.151
41809W        W10203  38.880  40.505   4.045
41810W        W10204  24.784  35.973   2.625
41811W        W10205  44.254  35.418  12.418
41812W        W10206  24.727   2.008   1.327
41813W        W10207  35.498   6.708   4.202
41814W        W10208  22.195   5.280  13.414
41815W        W10209  41.813  42.633   1.740
41816W        W10210  11.349  34.756  11.188
41817W        W10211  15.129  30.230  10.556
41818W        W10212  18.775  30.961   4.750
41819W        W10213   7.130  24.744   0.240
41820W        W10214  28.972   7.686   1.346
41821W        W10215   5.795  29.777   3.952
41822W        W10216   5.043  23.365  11.573
41823W        W10217  22.667  39.076   5.106
41824W        W10218  30.493  43.501  13.078
41825W        W10219  20.737  42.246  13.810
41826W        W10220   6.286  24.608   0.675
41827W        W10221  24.056   4.332   3.131
41828W        W10222   3.185   6.214  11.092
41829W        W10223  14.827   6.330  12.688
41830W        W10224   7.711   5.160   0.992
41831W        W10225   8.133  18.569  11.515
41832W        W10226   5.678  28.069  14.752
41833W        W10227  11.377  25.171   4.477
41834W        W10228   4.636  35.861  11.041
41835W        W10229   9.028  39.414  13.906
41836W        W10230  19.277   2.197  12.982
41837W        W10231   0.271  42.350  11.127
41838W        W10232  18.084   1.971   3.807
41839W        W10233  13.326   3.197  14.394
41840W        W10234   2.463  30.956  14.823
41841W        W10235  38.538  44.862   4.064
41842W        W10236  33.897  25.048   1.705
41843W        W10237  22.112  15.131   2.373
41844W        W10238  25.747  42.385   1.428
41845W        W10239  44.701  39.860   1.038
41846W        W10240  12.842  15.347   3.668
41847W        W10241  24.020   0.536   0.881
41848W        W10242  36.087   3.117   3.274
41849W        W10243  40.168  33.914  14.237
41850W        W10244  13.640   5.683  14.809
41851W        W10245   1.149  25.471  10.840
41852W        W10246  43.785   5.567  14.048
41853W        W10247  11.024  38.958   1.883
41854W        W10248  25.477  24.164   0.932
41855W        W10249  32.952  41.287  12.527
41856W        W10250  33.045  19.240  10.796
41857W        W10251  31.707  22.772   4.346
41858W        W10252   2.848  27.055  14.218
41859W        W10253  24.979  42.892   2.895
41860W        W10254  35.509  44.039  12.562
41861W        W10255  23.431   2.206   2.811
41862W        W10256  18.063  44.293  14.774
41863W        W10257  30.134   6.911  11.049
41864W        W10258  11.722  18.555  14.060
41865W        W10259  12.694  17.626   0.726
41866W        W10260   3.984  16.628   5.153
41867W        W10261  44.438  17.973  10.204
41868W        W10262   4.206   9.474  11.252
41869W        W10263  20.412   0.259  13.348
41870W        W10264  30.160   6.468   1.762
41871W        W10265   3.280  40.935   3.200
41872W        W10266  39.797  41.457  12.314
41873W        W10267  44.959  28.682  11.909
41874W        W10268  43.709   0.928   3.747
41875W        W10269   7.807  42.313   2.498
41876W        W10270  21.299  36.019   2.735
41877W        W10271  33.436   2.157   0.924
41878W        W10272  34.325  33.524   1.701
41879W        W10273  30.942  13.372  14.934
41880W        W10274  39.588  25.615   1.769
41881W        W10275  28.703  26.222  10.725
41882W        W10276  40.878  43.427   3.196
41883W        W10277   9.844  24.786  12.301
41884W        W10278  35.560  12.099   1.913
41885W        W10279  11.401  24.786   3.056
41886W        W10280  31.797  44.398  14.503
41887W        W10281  20.328  38.491   0.460
41888W        W10282  22.764  41.840  11.633
41889W        W10283   6.660  19.234  11.638
41890W        W10284  38.911  25.918   1.476
41891W        W10285  30.894  25.539   4.313
41892W        W10286  32.025   2.294  11.935
41893W        W10287  37.376  39.477   4.378
41894W        W10288   7.312  37.907  14.273
41895W        W10289  18.467  11.549   1.122
41896W        W10290   3.437  11.140   2.509
41897W        W10291  14.620   1.443   1.203
41898W        W10292  28.197  24.461   2.020
41899W        W10293   5.783  26.544  14.916
41900W        W10294  40.400  22.140   0.410
41901W        W10295  38.946  23.709  10.215
41902W        W10296   9.180  25.701  13.967
41903W        W10297  43.755  14.576   3.906
41904W        W10298  39.523  23.430   3.093
41905W        W10299  35.781  14.185  11.223
41906W        W10300  27.703  13.371   1.467
41907W        W10301   0.766   3.410   0.936
41908W        W10302  42.773  25.509   0.948
41909W        W10303   6.964  26.750   5.001
41910W        W10304   7.160   0.025   0.410
41911W        W10305  11.794  26.595  10.620
41912W        W10306   3.927   6.218   4.373
41913W        W10307  24.103  21.117   2.118
41914W        W10308  38.431  31.927   1.427
41915W        W10309   6.072  25.989  14.366
41916W        W10310  26.451  16.735   2.312
41917W        W10311   6.898  29.238  10.788
41918W        W10312  22.316  13.060   0.492
41919W        W10313  34.080  33.651  12.578
41920W        W10314  25.129  27.187   3.131
41921W        W10315  18.027   4.894  12.860
41922W        W10316  11.623  15.946   4.560
41923W        W10317   3.848  11.085  12.989
41924W        W10318  22.740  22.041  12.196
41925W        W10319  23.737  21.233  13.398
41926W        W10320  22.545  41.809  14.814
41927W        W10321  21.319   0.444  13.951
41928W        W10322  19.805  39.096   4.205
41929W        W10323   9.181  19.489  12.461
41930W        W10324  22.124  38.922   4.013
41931W        W10325  41.584   0.122   0.875
41932W        W10326  16.821  25.055  13.892
41933W        W10327  21.176  23.680  11.466
41934W        W10328  18.424  11.378   4.144
41935W        W10329  24.678  24.894  10.745
41936W        W10330  18.377   9.212   1.941
41937W        W10331  19.302  14.384   1.299
41938W        W10332   8.344  24.838  14.875
41939W        W10333   4.893  44.122   4.571
41940W        W10334  15.942  12.935  13.332
41941W        W10335  10.765   8.137   4.767
41942W        W10336  15.979  43.353  10.977
41943W        W10337   2.353  10.331  12.999
41944W        W10338  28.410  21.162   1.155
41945W        W10339   8.386  19.591   3.785
41946W        W10340  26.200  18.827   3.734
41947W        W10341  32.672   7.155  12.858
41948W        W10342  27.449  21.407  14.505
41949W        W10343  38.514  30.512  12.128
41950W        W10344  23.205  20.344  13.239
41951W        W10345  21.251  17.686  11.595
41952W        W10346  43.019  36.016   4.091
41953W        W10347  44.390  38.397   0.409
41954W        W10348  33.163  43.362   4.505
41955W        W10349  38.410  24.125  12.371
41956W        W10350  29.582  26.620   4.960
41957W        W10351  27.411   3.875   3.589
41958W        W10352   7.786   2.017   1.436
41959W        W10353  17.621  32.843  14.270
41960W        W10354  19.115  19.303  14.743
41961W        W10355  35.063  23.087   2.179
41962W        W10356   7.345   8.106   0.680
41963W        W10357  10.782  37.457   1.998
41964W        W10358  40.256  24.429  11.982
41965W        W10359  21.370  13.152   0.814
41966W        W10360  29.014  34.197   1.155
41967W        W10361  29.828  39.022  12.127
41968W        W10362  16.373  10.234   1.666
41969W        W10363  22.106  37.264   1.232
41970W        W10364   9.212  32.202  10.617
41971W        W10365  13.578   2.927  13.417
41972W        W10366  10.537  15.526   5.150
41973W        W10367  11.366  37.913  13.549
41974W        W10368   8.125  23.733   1.146
41975W        W10369  16.537  27.705  14.911
41976W        W10370   1.350  43.660  11.863
41977W        W10371   1.910  17.329   1.464
41978W        W10372  24.970   2.943   1.770
41979W        W10373  11.327  27.963  12.879
41980W        W10374   8.279  43.021  13.914
41981W        W10375  28.250  29.634   1.266
41982W        W10376  38.350  40.417  10.605
41983W        W10377  41.611  22.749  11.597
41984W        W10378  30.064  25.151   4.455
41985W        W10379   0.515  18.148  12.906
41986W        W10380  39.771  33.881  11.359
41987W        W10381   6.064   0.486   4.269
41988W        W10382  36.636   2.246  13.671
41989W        W10383   0.741  13.678   2.648
41990W        W10384   0.794  39.390   5.052
41991W        W10385   7.663  26.918  12.049
41992W        W10386   6.172  17.749   1.837
41993W        W10387  43.919  43.737  13.778
41994W        W10388  29.425   6.721  12.813
41995W        W10389   2.758   6.240   3.608
41996W        W10390   6.744  16.162   1.403
41997W        W10391   9.620  15.093   0.299
41998W        W10392  10.691  39.637   4.137
41999W        W10393  44.210   5.716   4.993
42000W        W10394  41.593   8.956   2.304
42001W        W10395   9.687  42.800   0.292
42002W        W10396  29.521  24.480   4.179
42003W        W10397  36.859  22.686  13.879
42004W        W10398  32.240  33.492  10.644
42005W        W10399   0.393  20.194  10.339
42006W        W10400  14.253   5.695   2.306
42007W        W10401  26.489   3.506  10.316
42008W        W10402  25.491  38.987  10.684
42009W        W10403  23.100  29.001  10.883
42010W        W10404  17.577  21.043   2.745
42011W        W10405  10.675  19.698  13.128
42012W        W10406  25.602  32.448  10.610
42013W        W10407  28.957  42.506   0.407
42014W        W10408  22.107  43.347   4.614
42015W        W10409   9.160  31.424  12.920
42016W        W10410  40.778  26.173   4.115
42017W        W10411  20.011  23.477   5.017
42018W        W10412  23.322  44.809   4.901
42019W        W10413  22.382  37.622   4.322
42020W        W10414  29.236  15.181  13.488
42021W        W10415   0.872  31.462  11.849
42022W        W10416  22.941   1.740   0.829
42023W        W10417  12.604  17.005  12.836
42024W        W10418  35.906  42.871   0.063
42025W        W10419  40.681  18.324  10.169
42026W        W10420  31.068  16.559  11.176
42027W        W10421  32.436  29.079   0.279
42028W        W10422   0.647  21.207   9.910
42029W        W10423   5.910  28.007   0.393
42030W        W10424  26.713  10.142  14.836
42031W        W10425  33.934  13.189  11.050
42032W        W10426  29.464  36.437   4.703
42033W        W10427  18.318  31.666  13.928
42034W        W10428  44.258  32.387  12.052
42035W        W10429   5.543  44.945  11.278
42036W        W10430  32.413   9.777  11.009
42037W        W10431   6.283  26.517  11.824
42038W        W10432  33.149  20.099   4.175
42039W        W10433  22.760  43.037   0.378
42040W        W10434  15.792  21.004   3.285
42041W        W10435  44.959  29.464   3.716
42042W        W10436  33.014  36.500  10.835
42043W        W10437  30.430  32.482  14.710
42044W        W10438  36.854  28.906  14.831
42045W        W10439  19.305  44.955  14.948
42046W        W10440  24.814  24.572   2.889
42047W        W10441   6.453  17.205  11.173
42048W        W10442   4.852  29.568   0.530
42049W        W10443  39.370   0.999  12.972
42050W        W10444  21.736  36.966  11.279
42051W        W10445  25.570   2.757   3.844
42052W        W10446  23.798  28.648   4.544
42053W        W10447  44.310  34.449  14.121
42054W        W10448  28.878  18.728   1.573
42055W        W10449  34.701  33.415  14.729
42056W        W10450   6.387  31.363   1.588
42057W        W10451  44.241  10.154   3.688
42058W        W10452  36.819  12.198  10.601
42059W        W10453  20.197  22.069   3.976
42060W        W10454  28.697  35.150  13.064
42061W        W10455  37.541  17.918  12.595
42062W        W10456   5.125  14.271  11.608
42063W        W10457   4.311  40.532  11.466
42064W        W10458   6.367   0.354  13.878
42065W        W10459  26.775   2.495   1.659
42066W        W10460   5.869  25.631  14.030
42067W        W10461  15.221   9.310  12.251
42068W        W10462   1.704  38.590  14.413
42069W        W10463  22.952   1.447  12.899
42070W        W10464  14.482   3.374   1.752
42071W        W10465  27.394  32.872   2.362
42072W        W10466   6.754  23.729   0.785
42073W        W10467  27.065  13.678   2.817
42074W        W10468   5.908   5.698   0.314
42075W        W10469  35.179  15.839   3.555
42076W        W10470   9.261  19.795   0.916
42077W        W10471  43.237  44.001   0.270
42078W        W10472  25.657  31.983  14.803
42079W        W10473  33.884   8.202   1.170
42080W        W10474   5.405  32.099   4.695
42081W        W10475  19.385  22.800   0.789
42082W        W10476  39.327  22.943  10.915
42083W        W10477   1.604  36.654   0.776
42084W        W10478   5.380  40.870  12.127
42085W        W10479  25.689  34.790  14.155
42086W        W10480  20.282  21.167   5.059
42087W        W10481  27.635   4.311  11.819
42088W        W10482  29.628  10.048  10.641
42089W        W10483  25.668   6.339  12.078
42090W        W10484  18.705   7.344   0.329
42091W        W10485   2.432   7.768  14.410
42092W        W10486   9.194  30.942  14.835
42093W        W10487  18.993  23.523  11.207
42094W        W10488  15.764  20.193  11.654
42095W        W10489  22.936  39.010  11.761
42096W        W10490  25.793  21.672  11.648
42097W        W10491  22.482   0.947  14.167
42098W        W10492   0.853   4.498   4.591
42099W        W10493   3.962  29.016  13.480
42100W        W10494  22.192  41.761   0.287
42101W        W10495  13.177   0.761   0.452
42102W        W10496  18.531  24.667  12.065
42103W        W10497  43.952  25.113   4.826
42104W        W10498  36.477  33.563  10.748
42105W        W10499  33.433   3.884   4.131
42106W        W10500  39.662  36.529   0.283
42107W        W10501  31.051  17.222  12.962
42108W        W10502  24.838  43.973   0.353
42109W        W10503  28.671  32.809   1.858
42110W        W10504   9.801  25.672   3.991
42111W        W10505  19.577  24.485   3.313
42112W        W10506  22.043   9.860  11.493
42113W        W10507   5.901  12.783   3.679
42114W        W10508  16.196  19.755   0.391
42115W        W10509  22.498  14.218   2.355
42116W        W10510  43.550  13.299  10.667
42117W        W10511  15.855   0.945  12.815
42118W        W10512  42.671   2.255   3.142
42119W        W10513  38.103  40.567   3.245
42120W        W10514  38.718  40.457  11.929
42121W        W10515  14.346  23.527  10.001
42122W        W10516   2.159  27.678  14.367
42123W        W10517  36.442   1.852  11.940
42124W        W10518  21.011  10.597  11.432
42125W        W10519   8.896   8.802  14.890
42126W        W10520  30.920  23.944  11.191
42127W        W10521  40.074  21.687   4.110
42128W        W10522   1.155  24.067  12.492
42129W        W10523  12.649   1.682  10.686
42130W        W10524  11.161  20.621  11.898
42131W        W10525  27.505  43.047   3.692
42132W        W10526  33.183  39.855  11.042
42133W        W10527  30.839  40.025  10.427
42134W        W10528  29.527   7.300   0.537
42135W        W10529  18.101  32.371   0.014
42136W        W10530  11.476  35.654   4.658
42137W        W10531  30.966  38.578   0.943
42138W        W10532  19.165  37.432   0.541
42139W        W10533  25.192  44.759   0.664
42140W        W10534  41.429  14.865  13.809
42141W        W10535  27.685  15.664  10.439
42142W        W10536  28.885  24.189  14.759
42143W        W10537  30.440  26.729  14.133
42144W        W10538   2.486  31.108   3.064
42145W        W10539  36.362  30.475   1.219
42146W        W10540  14.179   1.387   3.639
42147W        W10541   7.352  13.171   0.815
42148W        W10542  22.588  34.068   0.708
42149W        W10543  40.049  36.171  14.704
42150W        W10544  16.034  34.187  11.088
42151W        W10545  18.001   0.979   1.279
42152W        W10546   0.355  42.073   2.774
42153W        W10547   5.748  29.126   1.850
42154W        W10548  17.755  20.261   4.898
42155W        W10549   8.123   1.318   4.615
42156W        W10550  26.971  37.948   3.091
42157W        W10551   4.569   6.474   5.105
42158W        W10552  25.513  42.424  11.131
42159W        W10553  22.457   6.315   3.819
42160W        W10554  34.983  42.741   0.692
42161W        W10555  26.424  25.519  14.968
42162W        W10556  19.351  39.877   9.933
42163W        W10557  20.864  41.398  10.438
42164W        W10558  21.928  23.429   4.623
42165W        W10559  13.224  34.168  11.670
42166W        W10560  32.802   1.909  10.729
42167W        W10561  12.608  10.266  11.059
42168W        W10562  16.581  36.836   2.697
42169W        W10563  39.454  36.453  11.180
42170W        W10564  31.711  34.099  14.386
42171W        W10565  25.840   9.650  12.126
42172W        W10566   5.390  32.580   4.080
42173W        W10567  37.477  29.043   4.692
42174W        W10568  12.147  39.085  12.404
42175W        W10569  42.743  40.383  14.716
42176W        W10570  33.652  18.113   4.740
42177W        W10571  39.057  15.013  12.153
42178W        W10572  14.343   6.294  11.646
42179W        W10573   6.642  37.193  11.549
42180W        W10574  15.970  30.637   1.347
42181W        W10575  43.562  37.138   1.442
42182W        W10576  40.616   9.188  13.525
42183W        W10577  15.133  37.115   0.446
42184W        W10578  25.357  32.160   0.219
42185W        W10579  27.492   4.646  12.909
42186W        W10580  38.463  40.970  12.421
42187W        W10581  43.263  19.144  14.965
42188W        W10582  34.178   1.298  13.305
42189W        W10583  37.506  33.020   4.731
42190W        W10584  41.957  35.383  14.174
42191W        W10585  35.884   6.876  10.682
42192W        W10586   1.387  43.514   4.538
42193W        W10587  30.555  21.280   4.975
42194W        W10588  34.101   3.838   0.968
42195W        W10589  40.246  22.692  13.661
42196W        W10590  20.254  43.961  13.949
42197W        W10591  34.118   3.330   3.679
42198W        W10592  34.411  37.518   0.896
42199W        W10593  19.680   2.431   0.258
42200W        W10594  14.785   3.760   1.158
42201W        W10595  13.184  31.391   0.894
42202W        W10596  11.446  36.307  14.047
42203W        W10597  31.035   5.489   2.884
42204W        W10598  21.992   3.935  14.773
42205W        W10599  15.215  26.221   4.946
42206W        W10600  44.788   2.838   0.983
42207W        W10601  15.225  43.072  12.316
42208W        W10602  16.754  11.095  10.694
42209W        W10603   4.152  33.663   1.105
42210W        W10604  14.740   0.058   2.389
42211W        W10605  10.538  17.566   3.132
42212W        W10606  22.786  36.789  11.183
42213W        W10607  44.936  27.627   4.091
42214W        W10608   0.601   9.849  12.400
42215W        W10609   0.260  14.776  12.980
42216W        W10610  17.278  39.823   3.748
42217W        W10611   9.432  22.816   0.552
42218W        W10612  27.461  42.552   2.011
42219W        W10613  17.043   5.801  14.939
42220W        W10614  30.372  11.239  14.051
42221W        W10615  33.383  15.206  11.579
42222W        W10616  25.491  14.654   4.693
42223W        W10617  17.499  38.511  11.828
42224W        W10618  33.854  21.427   0.830
42225W        W10619  14.312  32.093   1.728
42226W        W10620  26.173  25.839   4.285
42227W        W10621  21.302  12.631  10.152
42228W        W10622  32.763   6.092  12.254
42229W        W10623   2.000  21.653   4.839
42230W        W10624  41.832  42.855   2.225
42231W        W10625  44.696   3.742  12.506
42232W        W10626  14.008  11.478  14.950
42233W        W10627  36.470  14.390  14.020
42234W        W10628  29.202  39.067   4.739
42235W        W10629   5.372  24.418  13.547
42236W        W10630  28.598  34.616  14.382
42237W        W10631  21.252  32.603  14.678
42238W        W10632  27.029  24.212  11.502
42239W        W10633  28.560  29.951  13.108
42240W        W10634  23.043  32.917   4.169
42241W        W10635   6.447  18.472   3.489
42242W        W10636   0.221  15.899  10.326
42243W        W10637  33.415  10.859   4.531
42244W        W10638  36.518   9.366   4.107
42245W        W10639   4.815  43.647   2.649
42246W        W10640  44.522  10.146  12.454
42247W        W10641  13.285  33.482  12.088
42248W        W10642  31.990   2.219  11.424
42249W        W10643  15.547   7.272  10.865
42250W        W10644   5.854  39.089   1.559
42251W        W10645  20.327  25.433  12.321
42252W        W10646  41.491  14.825  14.829
42253W        W10647  44.484  36.123  13.633
42254W        W10648  27.145  25.555  13.897
42255W        W10649  10.669  22.099  13.288
42256W        W10650  24.480  44.903   3.822
42257W        W10651  33.536  25.261   0.021
42258W        W10652  39.897   6.949  13.294
42259W        W10653  39.442  13.076  14.052
42260W        W10654  35.109   0.689  13.386
42261W        W10655  37.853   1.905  11.053
42262W        W10656   4.939  12.361   0.722
42263W        W10657  12.806  34.012  13.225
42264W        W10658   8.070  19.461  14.931
42265W        W10659  40.677  43.171  11.454
42266W        W10660  16.139  25.579   0.244
42267W        W10661  26.401  28.102   1.528
42268W        W10662  28.473  37.815  14.001
42269W        W10663   9.935  17.308  13.830
42270W        W10664   0.781  33.029  12.646
42271W        W10665  10.304  16.567   2.640
42272W        W10666   4.000  34.622   0.488
42273W        W10667  29.086  22.048   3.761
42274W        W10668   5.292  19.549  10.675
42275W        W10669  17.090   1.321   4.549
42276W        W10670  14.205  20.619   0.642
42277W        W10671  44.448  12.916  12.535
42278W        W10672  31.687  21.266   0.273
42279W        W10673   6.638  13.687   3.238
42280W        W10674  27.048  31.646   0.935
42281W        W10675   9.871  35.972  14.206
42282W        W10676  12.259  12.592  11.683
42283W        W10677  25.603  35.270  12.521
42284W        W10678  13.127  44.554  12.474
42285W        W10679  14.399  36.760   9.888
42286W        W10680  31.489  24.130   3.746
42287W        W10681  42.586  39.761   2.133
42288W        W10682  33.111  14.178  12.040
42289W        W10683  23.552  29.367  12.484
42290W        W10684   2.034   6.273   2.423
42291W        W10685  23.342  21.402   3.904
42292W        W10686  44.796  10.289   2.844
42293W        W10687   3.689  10.763   1.271
42294W        W10688  40.338   5.147   2.403
42295W        W10689  17.658  28.193  12.436
42296W        W10690  41.528  12.271   2.715
42297W        W10691  34.068   0.725  14.392
42298W        W10692  41.844  40.215   2.464
42299W        W10693  40.906  19.300   2.667
42300W        W10694  16.109  15.227   2.101
42301W        W10695   3.378  23.000   0.821
42302W        W10696   1.348  25.474  14.237
42303W        W10697  13.270  22.673  12.479
42304W        W10698   5.185  28.877   0.470
42305W        W10699  17.111  12.252  14.288
42306W        W10700  10.653  21.007   2.978
42307W        W10701  39.578  14.131   0.838
42308W        W10702  19.390  15.887  14.230
42309W        W10703   5.963  12.916  10.616
42310W        W10704   4.491  31.465   1.720
42311W        W10705  18.049   5.688  14.915
42312W        W10706  30.241  30.483   1.225
42313W        W10707  10.290   6.251   3.614
42314W        W10708  33.319  33.858  11.518
42315W        W10709  24.093  43.030  10.258
42316W        W10710   6.343   6.001  14.249
42317W        W10711  43.809  23.441  12.933
42318W        W10712   0.319  13.627  12.529
42319W        W10713  44.730   7.995  12.620
42320W        W10714   8.946  10.181   0.449
42321W        W10715  37.070  26.636  11.725
42322W        W10716  29.171  26.332  13.851
42323W        W10717  28.981   9.205   0.822
42324W        W10718   1.047   6.656   0.002
42325W        W10719  17.234  28.159  13.753
42326W        W10720  21.620  31.062  12.172
42327W        W10721  35.395  18.118   1.358
42328W        W10722  14.561   1.700  12.132
42329W        W10723  20.265  16.468   3.224
42330W        W10724  25.141   7.913  12.816
42331W        W10725  19.862  40.208   3.327
42332W        W10726   7.447  20.776   4.559
42333W        W10727  23.770   9.719   1.740
42334W        W10728  32.397  26.536   1.912
42335W        W10729  33.633  21.738   2.926
42336W        W10730  36.853  16.500  11.127
42337W        W10731  26.550   5.914   2.774
42338W        W10732  40.563   9.831   3.881
42339W        W10733  41.836  35.000   3.776
42340W        W10734  21.124  20.182  13.975
42341W        W10735  10.271  35.013   0.496
42342W        W10736  28.963  28.077  13.018
42343W        W10737  18.349  28.493  14.965
42344W        W10738  12.640   6.737  12.136
42345W        W10739  15.293  19.260  10.226
42346W        W10740  36.777   9.159   0.352
42347W        W10741   9.745  16.535   3.413
42348W        W10742  44.125  14.228  10.280
42349W        W10743  17.838   4.736   3.678
42350W        W10744  31.943  14.388  10.183
42351W        W10745  18.810   9.109  10.690
42352W        W10746  19.643  19.014   5.135
42353W        W10747   4.188  40.892   3.217
42354W        W10748  31.548  44.701  10.163
42355W        W10749  25.682  29.073   4.605
42356W        W10750  39.545   0.585  11.063
42357W        W10751   4.152  21.582  13.495
42358W        W10752  11.130  36.929  13.649
42359W        W10753   3.773  27.040   4.425
42360W        W10754  25.567   5.687   3.210
42361W        W10755  26.731  13.767   0.933
42362W        W10756  12.764  39.308  14.903
42363W        W10757   0.589   1.640  14.460
42364W        W10758  36.045   5.238  14.609
42365W        W10759   3.908  41.876  12.142
42366W        W10760   9.331  38.539   4.004
42367W        W10761  35.935  33.815   4.328
42368W        W10762  28.245  31.535   4.220
42369W        W10763  33.826  43.352  14.101
42370W        W10764  36.888  13.895   0.997
42371W        W10765   8.876  24.971  14.009
42372W        W10766  33.519  12.073   4.200
42373W        W10767  31.798   1.873  12.122
42374W        W10768  33.061  29.695  14.884
42375W        W10769  17.304  22.754  11.614
42376W        W10770  26.440   1.439   4.743
42377W        W10771  37.321  31.201  11.887
42378W        W10772  12.515  23.236   4.773
42379W        W10773  14.464   9.931  13.799
42380W        W10774   0.841  41.380  12.341
42381W        W10775   9.644  23.480   2.253
42382W        W10776  21.289  27.192  14.288
42383W        W10777   0.246   7.392   0.784
42384W        W10778  13.689  12.821   2.779
42385W        W10779   8.356  42.546  11.177
42386W        W10780  43.813  22.400  11.038
42387W        W10781  13.825  22.712   4.624
42388W        W10782  27.570  11.341   0.714
42389W        W10783  37.576  29.152   2.593
42390W        W10784  43.755  14.750  12.355
42391W        W10785  13.755  26.081  12.730
42392W        W10786  37.307   1.680  11.975
42393W        W10787  14.365  20.396   2.831
42394W        W10788  38.820   4.134  14.226
42395W        W10789  10.860  38.836  14.834
42396W        W10790  41.470  35.952   3.302
42397W        W10791  15.061  44.965   3.267
42398W        W10792  21.698   5.224  13.553
42399W        W10793  30.504  41.357   0.741
42400W        W10794   2.855  32.477  14.027
42401W        W10795  14.819  30.455  13.858
42402W        W10796  11.006   9.685   4.728
42403W        W10797  23.766  32.660   4.129
42404W        W10798  13.908  11.604  11.639
42405W        W10799  22.773  32.605  11.988
42406W        W10800  34.873  34.990  11.594
42407W        W10801   2.984  21.796   2.876
42408W        W10802  19.208  38.285  12.888
42409W        W10803  32.650  29.547  10.583
42410W        W10804  14.776   9.791   1.397
42411W        W10805  14.366  21.879  13.849
42412W        W10806  31.006   6.784   4.508
42413W        W10807  10.393   0.357  11.971
42414W        W10808  17.523   4.256  10.679
42415W        W10809   4.914  31.958   0.829
42416W        W10810   7.700  10.639   1.645
42417W        W10811  28.744  31.454   2.581
42418W        W10812  29.090  30.893  14.491
42419W        W10813   9.815  23.989  14.340
42420W        W10814  38.836  29.541   0.588
42421W        W10815   6.765   5.099   4.950
42422W        W10816  27.962   6.487  12.101
42423W        W10817  40.402  30.416   2.190
42424W        W10818   0.269  36.450   3.734
42425W        W10819   2.932  15.530  12.520
42426W        W10820  43.565  13.829   4.605
42427W        W10821  26.397  17.078  13.567
42428W        W10822   1.718  28.538  11.046
42429W        W10823  42.892  11.303  14.732
42430W        W10824  43.946   5.067   4.202
42431W        W10825  24.047  36.375   2.205
42432W        W10826  32.635  23.619   4.186
42433W        W10827  20.635   5.828   4.773
42434W        W10828  17.691  17.564   2.922
42435W        W10829  27.422  19.858   4.172
42436W        W10830  10.099  39.845   4.773
42437W        W10831  27.122  44.531  14.457
42438W        W10832  36.923  20.628   3.782
42439W        W10833   1.791  43.890  12.541
42440W        W10834  44.753  10.900  12.570
42441W        W10835  19.024   0.841   3.952
42442W        W10836  13.645  13.907  14.777
42443W        W10837   7.096  12.835  14.014
42444W        W10838  22.672  29.043   2.194
42445W        W10839  35.276  23.458  12.688
42446W        W10840  11.664  18.069   4.322
42447W        W10841  15.270  29.746  14.921
42448W        W10842   8.256   3.905  12.976
42449W        W10843   3.932  14.008  10.963
42450W        W10844  38.082  30.034   2.393
42451W        W10845  34.556  32.097  11.679
42452W        W10846   6.905  12.112   3.265
42453W        W10847  20.477  18.560   2.230
42454W        W10848  30.410  36.012   1.786
42455W        W10849  28.951   9.233   3.888
42456W        W10850  11.791  41.848  13.588
42457W        W10851  15.768  35.385  10.698
42458W        W10852  38.813  22.076   0.176
42459W        W10853  43.661  10.746  14.409
42460W        W10854  38.497  18.289   0.758
42461W        W10855   0.396   5.592  14.395
42462W        W10856  12.381  28.457  13.064
42463W        W10857  27.050  12.409   1.508
42464W        W10858  40.881  38.882   2.765
42465W        W10859  38.376  24.195   3.179
42466W        W10860  38.784   4.737  12.341
42467W        W10861  28.919   6.685   3.292
42468W        W10862  24.059  17.715   4.996
42469W        W10863   2.008  18.706  13.580
42470W        W10864   6.244  42.851   3.392
42471W        W10865  25.538   7.228   4.051
42472W        W10866  38.798  25.613  10.806
42473W        W10867  35.629  26.107  14.804
42474W        W10868  40.011   6.761   1.737
42475W        W10869  22.031  27.457  12.889
42476W        W10870  31.443  32.411  12.052
42477W        W10871  31.554  15.349   2.193
42478W        W10872  27.182  44.835   0.425
42479W        W10873  42.025  11.557   2.769
42480W        W10874  43.593  40.865   1.315
42481W        W10875  26.583  28.079   1.038
42482W        W10876  38.142  24.581  12.588
42483W        W10877  20.128  44.134   3.184
42484W        W10878  12.257   4.950   2.632
42485W        W10879   8.971  17.643   0.621
42486W        W10880  17.188   5.338   2.281
42487W        W10881  20.497  10.346  12.604
42488W        W10882  39.072  10.326  13.815
42489W        W10883  19.005  22.045   2.321
42490W        W10884   7.496  37.056  10.700
42491W        W10885  31.423  22.282  13.744
42492W        W10886  17.041   9.974   2.176
42493W        W10887   8.381   1.855   5.002
42494W        W10888  24.727  42.410   1.246
42495W        W10889  20.645  18.574   3.338
42496W        W10890  22.698  44.897   1.491
42497W        W10891  20.600  36.500   1.907
42498W        W10892  42.287  15.066  10.934
42499W        W10893  25.588  31.399  11.481
42500W        W10894  15.115  38.908  12.500
42501W        W10895  18.661   7.561   0.825
42502W        W10896  24.300  15.213  12.425
42503W        W10897  12.649   4.903   4.125
42504W        W10898  17.321   9.199   4.766
42505W        W10899  27.032  10.076  12.389
42506W        W10900  30.728  19.164  12.611
42507W        W10901  18.618  12.710   4.157
42508W        W10902   0.346  42.874  13.578
42509W        W10903  23.771  14.033   3.808
42510W        W10904  28.601  41.936  14.788
42511W        W10905  27.160  13.672   3.857
42512W        W10906   8.329  28.344   1.297
42513W        W10907  32.591  37.779  11.941
42514W        W10908   7.900  19.951   1.385
42515W        W10909  21.015   7.582   2.050
42516W        W10910  13.355  39.360  11.581
42517W        W10911  25.930  26.715   1.736
42518W        W10912  11.810  28.980  12.454
42519W        W10913  25.180  28.074   3.351
42520W        W10914  15.041  25.554  13.701
42521W        W10915   3.965   1.412  12.545
42522W        W10916  13.897  21.639  12.106
42523W        W10917  44.365  32.556   2.828
42524W        W10918   8.647   2.006  13.057
42525W        W10919  32.187  12.738   3.633
42526W        W10920  26.449  30.167   0.494
42527W        W10921  30.570  25.390  10.686
42528W        W10922  33.063  41.016  12.115
42529W        W10923  26.941  11.946   4.994
42530W        W10924  35.032  35.496   2.628
42531W        W10925  10.859  23.931  13.800
42532W        W10926   3.018  24.916  10.975
42533W        W10927  15.538  13.629   0.141
42534W        W10928  35.800  40.237  11.581
42535W        W10929  33.929  28.298   1.873
42536W        W10930   9.111  11.299   0.287
42537W        W10931   1.439   7.913   2.218
42538W        W10932  43.080  12.232   3.869
42539W        W10933  36.366   1.503  11.137
42540W        W10934  13.817   2.842   3.384
42541W        W10935  28.164  33.075   0.859
42542W        W10936  41.866  19.041  10.766
42543W        W10937   0.997  20.144   4.163
42544W        W10938  29.529   4.203  12.980
42545W        W10939   4.769  28.644   0.255
42546W        W10940   3.272  13.158  13.485
42547W        W10941  21.780  32.039   2.187
42548W        W10942  26.678  40.327   0.845
42549W        W10943  40.639  30.667   1.786
42550W        W10944  40.890  30.163  13.487
42551W        W10945  30.479   4.323  12.017
42552W        W10946  29.999  15.902  13.146
42553W        W10947   9.677  43.727  13.964
42554W        W10948  19.109  30.400   0.534
42555W        W10949  30.913  44.867  12.950
42556W        W10950  13.507  27.948  11.469
42557W        W10951  38.300  36.570  14.978
42558W        W10952  42.480  14.025   2.166
42559W        W10953  39.079  39.818   3.778
42560W        W10954  20.181  42.011   4.197
42561W        W10955  33.677  43.772   0.892
42562W        W10956  38.375  40.875  11.899
42563W        W10957  39.981  26.158   2.889
42564W        W10958  11.633  30.914   1.757
42565W        W10959  34.160  34.122   3.397
42566W        W10960   2.704  34.355   0.733
42567W        W10961  28.580  23.227   1.951
42568W        W10962   9.230  38.393  12.041
42569W        W10963   6.786  36.985   4.273
42570W        W10964  28.049  41.191   3.863
42571W        W10965  14.536  15.335  11.570
42572W        W10966   8.972   1.533  14.520
42573W        W10967  30.133  37.619   4.168
42574W        W10968   0.428  44.497   0.547
42575W        W10969  11.333  29.427  12.536
42576W        W10970  15.761  28.083  12.429
42577W        W10971   2.100  20.158  13.517
42578W        W10972  16.110   5.242  10.322
42579W        W10973  28.654   0.924  12.315
42580W        W10974  39.542  16.504  10.662
42581W        W10975   9.732  18.586   0.850
42582W        W10976   9.757  43.871   3.101
42583W        W10977   1.281  37.440   3.790
42584W        W10978  29.988  22.554  10.733
42585W        W10979  13.333   7.888   0.399
42586W        W10980   6.790  12.741   0.114
42587W        W10981  21.645  33.213   4.365
42588W        W10982   3.012  39.968   0.802
42589W        W10983  42.548  16.201   3.795
42590W        W10984   0.563  38.822  13.862
42591W        W10985  39.302  29.897  10.458
42592W        W10986  13.934  35.338   3.250
42593W        W10987  34.029  17.817   0.287
42594W        W10988  29.484  34.548   1.700
42595W        W10989   5.075  34.730  14.666
42596W        W10990  32.999  39.076   4.095
42597W        W10991  43.855  26.039  12.050
42598W        W10992  41.684  37.338   0.233
42599W        W10993   9.839  22.500   1.335
42600W        W10994   1.728  41.365   0.989
42601W        W10995  36.018  42.491   1.315
42602W        W10996   6.390   6.941   1.344
42603W        W10997  39.367  11.895  12.897
42604W        W10998  29.092  16.057   1.375
42605W        W10999  14.363  27.350   0.309
42606W        W11000  32.063  40.014  11.928
42607W        W11001  39.977   3.953  12.584
42608W        W11002  28.944  16.095   4.173
42609W        W11003   0.298  18.542   4.401
42610W        W11004  33.654  24.694   1.364
42611W        W11005   0.790  27.491   0.774
42612W        W11006  35.294  25.657  13.362
42613W        W11007  43.361  20.987  13.009
42614W        W11008  26.977  38.491  14.877
42615W        W11009  12.766  36.863  10.659
42616W        W11010  43.620  30.453  12.162
42617W        W11011  23.663  39.245  14.849
42618W        W11012  43.794  25.121  10.693
42619W        W11013   6.774  22.569  13.599
42620W        W11014  25.964  22.591  12.379
42621W        W11015  44.075  30.432  11.950
42622W        W11016  16.993  37.061   1.349
42623W        W11017  20.142  44.545   4.335
42624W        W11018  43.430  19.290  10.315
42625W        W11019  20.468   0.463   3.257
42626W        W11020  32.672  12.140  12.681
42627W        W11021   6.406  21.822  11.865
42628W        W11022  16.311  26.464   2.132
42629W        W11023  19.492  19.023   0.784
42630W        W11024  35.425  22.913  10.563
42631W        W11025   6.733  40.514  14.325
42632W        W11026   3.255  28.108   3.578
42633W        W11027   1.032  19.849  14.879
42634W        W11028  31.125   8.618  14.622
42635W        W11029  23.544  23.637   4.365
42636W        W11030  31.953  26.953  13.394
42637W        W11031  29.130   9.215  14.898
42638W        W11032  18.003  10.676   3.692
42639W        W11033  29.666   6.893  11.846
42640W        W11034  25.720  42.370   3.645
42641W        W11035   9.634  35.974  11.728
42642W        W11036   8.241   1.714  12.109
42643W        W11037  10.373  21.643  12.963
42644W        W11038   4.297  26.144  11.275
42645W        W11039  38.399  13.776  14.930
42646W        W11040  42.898  42.717  10.432
42647W        W11041  35.092  41.966  13.859
42648W        W11042  10.451  29.529  14.464
42649W        W11043  35.589   2.471   2.862
42650W        W11044  21.173   6.935  11.592
42651W        W11045   1.314  19.403  10.813
42652W        W11046  10.220   1.757   0.768
42653W        W11047  29.702  16.497  13.885
42654W        W11048   6.145  26.628   3.904
42655W        W11049  25.316  33.732   1.668
42656W        W11050  21.475   4.771  13.725
42657W        W11051  31.143  20.329   1.653
42658W        W11052  21.750  39.129   0.342
42659W        W11053  44.828  34.368   2.766
42660W        W11054   0.782  17.710  14.036
42661W        W11055   6.798   4.867   1.693
42662W        W11056  23.081  36.680  14.062
42663W        W11057  43.333  12.329   1.310
42664W        W11058  15.324  24.172   0.810
42665W        W11059  31.656  15.607   1.757
42666W        W11060  16.172  39.484   0.155
42667W        W11061  39.771   9.797   3.110
42668W        W11062  24.793   1.419  11.413
42669W        W11063  31.081  19.835  14.998
42670W        W11064   0.914  35.193  12.567
42671W        W11065  24.775  15.345  13.362
42672W        W11066  10.406  23.926   4.144
42673W        W11067  36.463  38.644  13.376
42674W        W11068  20.309  40.459   3.302
42675W        W11069  14.638  37.927  10.611
42676W        W11070  29.235  42.114   3.999
42677W        W11071  35.047   8.275   2.268
42678W        W11072  22.706  27.203   4.208
42679W        W11073  19.987  40.528   2.916
42680W        W11074  41.752   1.815  13.210
42681W        W11075  39.186   3.951  13.883
42682W        W11076   4.834  16.306   1.052
42683W        W11077   8.591   8.779   2.404
42684W        W11078   4.955  16.286  13.410
42685W        W11079  27.468   4.755  14.304
42686W        W11080   6.891   6.960   1.219
42687W        W11081  13.623  29.833  13.010
42688W        W11082  39.771  25.048  14.844
42689W        W11083  19.336   7.782   3.215
42690W        W11084  37.867  19.616  13.752
42691W        W11085  14.629  13.900   4.212
42692W        W11086  14.930  28.413  14.943
42693W        W11087  34.693  41.224  11.209
42694W        W11088  23.340   7.920   2.104
42695W        W11089   8.930  34.397  11.214
42696W        W11090   1.955   6.696  13.644
42697W        W11091  44.595  31.980  13.141
42698W        W11092   0.258  34.470   4.814
42699W        W11093  27.152   6.144   4.122
42700W        W11094   4.998   1.853  13.359
42701W        W11095  21.705  16.044  12.926
42702W        W11096  25.329  12.742  14.153
42703W        W11097  39.607  37.053  13.083
42704W        W11098  23.190  38.467   3.401
42705W        W11099  32.512   9.460  14.880
42706W        W11100  21.213  24.035   4.628
42707W        W11101  18.954  28.703   4.735
42708W        W11102  27.632  34.115   3.704
42709W        W11103  12.615  24.683   4.371
42710W        W11104  20.201  32.488  11.570
42711W        W11105   2.848  29.220   2.960
42712W        W11106  36.924  11.706  10.722
42713W        W11107  14.085  15.313   0.793
42714W        W11108  13.637  17.103  12.136
42715W        W11109  17.107  36.937  12.157
42716W        W11110   3.002  15.710   0.312
42717W        W11111  11.119  20.686   0.822
42718W        W11112   8.807  38.282  12.920
42719W        W11113  17.679  16.755  14.365
42720W        W11114  26.479  12.859   0.579
42721W        W11115  17.889  35.112   4.188
42722W        W11116  40.697  25.169  14.411
42723W        W11117  36.143  44.361  12.952
42724W        W11118  11.384  10.754   2.345
42725W        W11119  38.368  30.563   4.549
42726W        W11120  15.477  30.523   1.399
42727W        W11121  27.418  39.496   2.246
42728W        W11122  11.526  22.555  12.645
42729W        W11123  20.228  10.885  11.169
42730W        W11124   6.292  35.300  12.299
42731W        W11125   6.522  12.959  12.705
42732W        W11126  37.110  20.633   0.699
42733W        W11127   5.423  21.516  14.431
42734W        W11128  19.027   5.725  12.344
42735W        W11129  25.138   4.237   4.596
42736W        W11130  26.718   2.099  11.758
42737W        W11131  28.681  22.616   4.293
42738W        W11132  32.048  22.044   0.838
42739W        W11133   4.852  19.531   2.770
42740W        W11134  13.581  23.908  12.192
42741W        W11135  16.682  14.338  14.008
42742W        W11136   8.187  20.061  13.551
42743W        W11137  40.630  39.390  10.984
42744W        W11138  20.918  19.969   4.229
42745W        W11139  20.830  27.731   1.844
42746W        W11140  14.583  35.855   3.577
42747W        W11141  41.532  23.722   1.258
42748W        W11142  41.002  27.033   3.777
42749W        W11143  25.260  35.919   1.033
42750W        W11144  30.634  43.244  10.521
42751W        W11145  17.063   9.122  11.188
42752W        W11146  31.884  29.775   3.526
42753W        W11147  37.848  20.067   1.483
42754W        W11148  22.974  28.188   0.497
42755W        W11149  12.135  27.432   0.488
42756W        W11150  33.396  25.009   1.813
42757W        W11151  18.717   5.388  12.628
42758W        W11152  44.214  16.039   2.835
42759W        W11153  31.193  37.174  13.791
42760W        W11154  40.460  19.533  14.394
42761W        W11155  23.592  18.658   2.847
42762W        W11156   5.253  23.976   4.883
42763W        W11157  15.075  26.427   2.124
42764W        W11158  31.537  38.316   0.489
42765W        W11159  16.105  40.354   0.913
42766W        W11160  40.798  29.032   1.536
42767W        W11161  43.353  40.347  13.017
42768W        W11162  29.302  32.553  11.733
42769W        W11163  18.808  26.035  12.968
42770W        W11164  21.042   5.445  14.129
42771W        W11165  22.962   4.809  14.773
42772W        W11166  37.388  18.703   3.636
42773W        W11167  14.340   1.511   0.629
42774W        W11168   0.185  27.226  10.712
42775W        W11169  34.602  41.686   0.523
42776W        W11170  41.476  41.814  10.510
42777W        W11171  14.778  20.466   3.156
42778W        W11172  19.227  43.303  14.816
42779W        W11173  41.337   8.645  12.406
42780W        W11174  32.056   5.706   4.282
42781W        W11175  24.653   4.625  12.950
42782W        W11176  11.276  35.579   1.901
42783W        W11177  27.647  19.958   3.282
42784W        W11178  27.987  40.910   2.296
42785W        W11179  42.899   4.917  13.419
42786W        W11180  12.807   3.851   1.773
42787W        W11181  21.134  13.229  14.415
42788W        W11182  14.666   4.660   4.390
42789W        W11183  29.884  11.674  12.891
42790W        W11184  12.509  40.742   3.265
42791W        W11185  39.605  12.895  13.567
42792W        W11186  40.053  41.291   3.433
42793W        W11187  30.873   6.297   0.227
42794W        W11188   8.839  40.564  10.673
42795W        W11189  21.174  39.959   3.126
42796W        W11190  35.878  22.223   0.461
42797W        W11191  26.603  39.809   4.290
42798W        W11192   8.596  21.286  13.059
42799W        W11193  11.772   1.957  12.989
42800W        W11194   8.833   3.284  14.702
42801W        W11195  27.635   8.299   1.313
42802W        W11196  21.552  33.969  14.762
42803W        W11197  32.056  35.427   2.340
42804W        W11198  30.586  24.939  12.102
42805W        W11199  41.896   8.121  13.859
42806W        W11200  44.820   5.701  11.681
42807W        W11201  19.681   4.331   2.781
42808W        W11202  22.184  36.096   4.805
42809W        W11203  41.767   6.346  13.445
42810W        W11204  13.319   1.198  13.564
42811W        W11205  26.316   9.270  14.310
42812W        W11206   9.070  38.400   2.413
42813W        W11207  15.541   3.043   1.375
42814W        W11208  29.458   3.028   4.404
42815W        W11209  20.000  30.353   1.866
42816W        W11210  37.354  36.503   1.003
42817W        W11211  43.996  40.594  14.431
42818W        W11212  40.839   4.158  11.156
42819W        W11213   1.706  16.828  12.556
42820W        W11214  29.212  42.001   4.614
42821W        W11215   3.854  31.111  14.956
42822W        W11216  27.669  42.473  12.020
42823W        W11217  16.242  34.848  13.418
42824W        W11218  15.887  13.349  14.862
42825W        W11219  29.225  26.435  11.606
42826W        W11220   7.533  31.500   2.124
42827W        W11221  32.094  25.532   1.209
42828W        W11222  21.673  18.142  13.311
42829W        W11223  34.620  19.283  11.635
42830W        W11224  39.439   8.687   3.041
42831W        W11225  34.519   3.782   4.868
42832W        W11226  43.355  14.897   1.444
42833W        W11227  34.442  21.803  13.040
42834W        W11228   4.015   6.675  12.875
42835W        W11229   6.828  14.630   1.494
42836W        W11230  21.720  11.275   4.579
42837W        W11231  33.714  24.584  10.670
42838W        W11232   7.820  18.428   9.884
42839W        W11233  12.478   9.673  11.389
42840W        W11234  12.526  29.494   3.251
42841W        W11235   5.630  33.161  14.919
42842W        W11236   9.270  14.268   3.738
42843W        W11237  31.920  34.717  12.071
42844W        W11238  16.202  32.004  12.325
42845W        W11239  25.570  39.102   3.721
42846W        W11240  10.136  35.668  10.760
42847W        W11241  28.837  10.296  13.321
42848W        W11242  35.907  15.093  13.894
42849W        W11243  27.381  43.479   1.868
42850W        W11244  34.040  13.531  11.552
42851W        W11245  14.094  14.383   0.859
42852W        W11246  11.009  17.808   4.303
42853W        W11247   4.277  10.799   2.231
42854W        W11248  12.365  27.996  14.412
42855W        W11249  11.860  31.324  12.110
42856W        W11250   3.951  13.503  10.898
42857W        W11251  10.309  27.241   0.239
42858W        W11252  18.974  38.318   1.890
42859W        W11253   8.340  36.913  13.557
42860W        W11254   4.841  43.529   0.415
42861W        W11255  14.189  21.769   1.016
42862W        W11256  14.649   7.524  13.442
42863W        W11257  31.116  40.373   1.750
42864W        W11258  42.788  19.767   0.322
42865W        W11259  28.643  35.054   3.784
42866W        W11260  32.008  33.697   1.865
42867W        W11261  29.904   5.237  11.595
42868W        W11262  28.299   2.263  13.560
42869W        W11263  16.577  26.563   4.565
42870W        W11264  17.673  34.378   4.769
42871W        W11265   0.963  21.762   0.772
42872W        W11266   3.780  15.173   3.555
42873W        W11267  10.330  19.621  11.928
42874W        W11268  25.705  13.317   3.564
42875W        W11269  24.719  12.550  12.954
42876W        W11270  13.895  40.328   1.792
42877W        W11271  23.964   0.033   0.746
42878W        W11272  20.793  18.463  10.913
42879W        W11273   1.780   5.618  12.566
42880W        W11274  12.657  18.383  12.397
42881W        W11275  35.413   8.640   0.617
42882W        W11276   6.314  44.551   5.165
42883W        W11277  35.936  31.633   1.904
42884W        W11278  36.537   4.491  10.622
42885W        W11279   7.933  44.222   4.995
42886W        W11280  43.033   7.176  10.749
42887W        W11281  39.312  29.996   1.788
42888W        W11282  37.295  18.096  11.616
42889W        W11283  11.643  18.670  14.569
42890W        W11284  28.038  43.247   0.132
42891W        W11285  27.938  32.879  12.951
42892W        W11286  27.829  21.647   1.779
42893W        W11287  23.103   6.541  12.112
42894W        W11288  44.993  28.097   0.753
42895W        W11289  40.350  30.042  11.968
42896W        W11290  10.455  26.489   3.471
42897W        W11291  34.411  30.001  12.510
42898W        W11292  24.599  42.746  13.901
42899W        W11293   0.009  42.484   3.117
42900W        W11294  44.290  18.748   1.802
42901W        W11295  20.928  31.918  11.665
42902W        W11296  22.251  19.096  14.129
42903W        W11297  19.172  32.418   1.615
42904W        W11298  44.886  43.989   1.714
42905W        W11299   6.517  20.268   3.661
42906W        W11300   7.540   2.068  14.385
42907W        W11301   5.636   7.468  14.368
42908W        W11302  18.568  27.527   2.714
42909W        W11303  26.207  30.691   1.004
42910W        W11304  24.716   4.854   4.581
42911W        W11305  22.419  17.342   0.440
42912W        W11306   3.734  28.959  10.796
42913W        W11307  30.102  28.206   0.775
42914W        W11308  37.010  26.980   3.758
42915W        W11309  18.576  43.667  13.345
42916W        W11310  33.768  23.925  10.295
42917W        W11311  14.514   8.228  11.043
42918W        W11312  18.495  11.638   4.815
42919W        W11313  17.597  15.560  10.382
42920W        W11314  27.642  15.784   3.456
42921W        W11315  33.647   6.366   0.403
42922W        W11316  16.280  37.646  10.720
42923W        W11317  34.160   9.904   3.243
42924W        W11318  27.421  10.636   0.583
42925W        W11319  27.667  28.812   1.937
42926W        W11320  12.190  22.110   2.419
42927W        W11321  10.358   2.089   2.166
42928W        W11322  35.672  10.146  11.168
42929W        W11323   0.521   1.425   4.266
42930W        W11324  44.060   3.280  11.878
42931W        W11325  31.970  19.075  12.983
42932W        W11326  17.692  28.040  10.611
42933W        W11327  40.247  27.414  14.993
42934W        W11328  13.811  32.310   2.892
42935W        W11329  37.363   6.656   5.324
42936W        W11330   8.851  33.014  12.293
42937W        W11331  43.936  28.027   3.969
42938W        W11332  17.147  31.034   4.555
42939W        W11333  10.784  28.599  14.205
42940W        W11334   0.155  31.570  14.813
42941W        W11335  32.429   8.443  14.929
42942W        W11336   4.676   1.566  10.716
42943W        W11337  37.324   4.549   0.299
42944W        W11338  38.437  32.655   0.967
42945W        W11339  41.337  23.286  14.935
42946W        W11340  20.712  30.484  14.543
42947W        W11341  20.295  41.552  14.445
42948W        W11342  20.920   9.008   5.068
42949W        W11343  11.779  44.014   3.692
42950W        W11344  39.393  33.183   2.306
42951W        W11345  36.080  18.093   2.414
42952W        W11346  33.872  13.271  14.837
42953W        W11347  38.560  12.300  11.204
42954W        W11348  41.514  35.909  14.072
42955W        W11349  43.294  29.966   3.286
42956W        W11350  15.466   7.449   1.974
42957W        W11351  14.137   9.840  12.342
42958W        W11352  18.905  34.402   0.836
42959W        W11353   3.894  39.395   4.606
42960W        W11354  38.730   0.885   1.273
42961W        W11355   7.723  34.316   4.347
42962W        W11356  43.408   0.201   3.145
42963W        W11357  15.617  14.680  13.549
42964W        W11358  11.447  41.460  11.334
42965W        W11359   6.640  26.025   3.273
42966W        W11360   4.345   9.105  13.521
42967W        W11361  40.052  23.177  12.408
42968W        W11362  17.588  29.128  12.318
42969W        W11363  38.108   3.858   0.257
42970W        W11364  37.822  37.371   2.642
42971W        W11365  11.643   2.384   4.605
42972W        W11366   3.683  25.764   3.076
42973W        W11367  35.469  43.507  10.378
42974W        W11368  10.655  10.347  14.951
42975W        W11369  25.380  40.347  11.584
42976W        W11370  44.809  37.467   1.761
42977W        W11371  10.147  25.776  10.914
42978W        W11372  14.452  38.634   5.096
42979W        W11373  13.237  25.440  13.148
42980W        W11374  14.388  15.753   4.102
42981W        W11375  27.793  12.672  11.141
42982W        W11376  23.112  43.460   0.240
42983W        W11377  23.472   5.651   1.697
42984W        W11378  25.809  22.255  14.165
42985W        W11379   8.285  44.534   0.803
42986W        W11380  40.846  13.757  12.966
42987W        W11381   6.258  19.749   0.931
42988W        W11382  31.029  29.709   9.801
42989W        W11383  24.737  44.232  14.879
42990W        W11384  33.076  22.544  12.104
42991W        W11385  16.030   1.549  12.285
42992W        W11386  37.853   6.290   4.522
42993W        W11387  25.060  35.607   1.836
42994W        W11388  26.422   7.875   4.196
42995W        W11389  34.297  31.503  12.661
42996W        W11390  11.757  35.508  12.408
42997W        W11391   4.362  15.849   3.639
42998W        W11392   0.075  17.218  14.590
42999W        W11393  13.813  33.078   0.856
43000W        W11394  20.630  22.157   0.674
43001W        W11395  17.047  10.352   0.505
43002W        W11396  27.666   9.218   2.227
43003W        W11397  20.961  35.083   2.887
43004W        W11398  21.787   0.386   2.833
43005W        W11399  22.542   3.234   0.388
43006W        W11400   9.362  20.642   3.703
43007W        W11401  37.720  18.245  14.422
43008W        W11402   6.202  41.611   2.125
43009W        W11403   9.365  20.797  13.819
43010W        W11404  38.460  26.741  13.619
43011W        W11405  32.138   9.956  14.098
43012W        W11406   5.933  24.069  14.857
43013W        W11407   4.315  16.310  11.487
43014W        W11408  33.123  27.020   0.996
43015W        W11409  44.839  41.011  12.098
43016W        W11410  36.085  23.199  11.595
43017W        W11411  41.658  18.562  13.465
43018W        W11412  36.858  29.570   0.848
43019W        W11413  10.342  23.780  12.989
43020W        W11414  26.730  25.023   0.829
43021W        W11415   8.843  42.360   2.222
43022W        W11416  44.466   6.775   3.040
43023W        W11417  12.708  19.192   4.938
43024W        W11418  24.673   9.846  13.792
43025W        W11419   7.330   3.798   0.735
43026W        W11420  26.945  40.231  10.445
43027W        W11421  33.523  22.711  14.016
43028W        W11422  41.797  28.126  13.801
43029W        W11423  40.870   2.239   0.420
43030W        W11424  30.084  30.775  10.657
43031W        W11425  34.042   7.239   1.281
43032W        W11426   5.748  31.125  13.041
43033W        W11427   2.927  14.111  12.433
43034W        W11428  24.565  15.388   3.271
43035W        W11429  24.043  15.870  12.081
43036W        W11430  22.734  23.175  13.021
43037W        W11431   5.298  10.893   4.579
43038W        W11432  19.490  35.540   0.734
43039W        W11433   2.504  15.796   4.660
43040W        W11434  38.752  23.048   2.765
43041W        W11435  18.052  14.677   0.862
43042W        W11436  35.059  33.528  11.645
43043W        W11437  18.812  24.724   4.636
43044W        W11438  24.619  18.645  11.951
43045W        W11439  28.471  12.254  11.608
43046W        W11440   3.742  16.703  11.109
43047W        W11441   9.624  22.073   4.030
43048W        W11442  15.030  24.249  11.875
43049W        W11443  43.749  38.958   2.436
43050W        W11444  36.098  44.736   2.382
43051W        W11445  32.152  15.781  14.335
43052W        W11446   0.476  16.082   0.894
43053W        W11447   0.296  20.309   1.188
43054W        W11448   3.158  12.668  14.417
43055W        W11449  10.819  35.948   0.367
43056W        W11450  22.609  24.030  11.681
43057W        W11451  37.590  23.909   4.009
43058W        W11452   2.437   6.831  12.332
43059W        W11453  38.951  43.039   5.135
43060W        W11454  31.255  15.638   2.667
43061W        W11455  27.405   5.158  12.941
43062W        W11456   8.801  41.705  13.927
43063W        W11457  12.198   7.201   9.982
43064W        W11458  40.959  42.527  14.541
43065W        W11459  12.133   4.795   0.099
43066W        W11460  43.919  37.911   0.495
43067W        W11461   2.266   2.196  13.598
43068W        W11462  30.049  12.836   2.841
43069W        W11463  38.046  21.012   4.157
43070W        W11464  42.905  22.051  14.219
43071W        W11465  27.169  42.852  13.188
43072W        W11466  17.128  39.794  14.454
43073W        W11467  33.703   4.397   4.672
43074W        W11468  35.933  41.916   0.436
43075W        W11469   9.593  36.406   4.607
43076W        W11470   2.595  15.092   5.075
43077W        W11471   6.830  43.494   0.376
43078W        W11472  40.488  40.027   4.554
43079W        W11473   1.252  44.520   2.567
43080W        W11474  18.528  27.957  12.479
43081W        W11475  19.505  35.424  12.303
43082W        W11476  24.086  17.226   4.838
43083W        W11477   3.695   5.371   2.215
43084W        W11478  22.244   4.113   0.167
43085W        W11479  13.700  43.771  14.511
43086W        W11480  35.332  11.289  12.543
43087W        W11481   2.274  27.952   1.217
43088W        W11482  34.200  32.545   0.700
43089W        W11483  23.159  36.926   0.765
43090W        W11484  19.136  11.623   1.968
43091W        W11485  37.070   4.302   0.935
43092W        W11486  16.623  32.188  12.980
43093W        W11487   5.177  41.597  12.554
43094W        W11488  23.456  17.309   0.480
43095W        W11489  29.147  20.688  10.661
43096W        W11490   5.401  19.066   1.129
43097W        W11491  43.016  29.458  14.266
43098W        W11492   1.329   3.288  13.881
43099W        W11493  44.088  40.910   1.219
43100W        W11494  10.379   6.782   2.743
43101W        W11495  34.534  35.752  13.469
43102W        W11496  13.138  44.386   1.172
43103W        W11497  10.833  30.515  12.801
43104W        W11498   3.195  43.827   3.412
43105W        W11499  10.220  44.881  14.245
43106W        W11500   2.859  14.454   3.165
43107W        W11501  33.625  21.964   3.411
43108W        W11502  36.277  17.566   3.382
43109W        W11503  41.527  16.726  12.533
43110W        W11504   0.432  13.588   4.291
43111W        W11505  17.018   9.278  14.225
43112W        W11506  40.404  39.637  14.336
43113W        W11507  43.876  25.574   1.833
43114W        W11508  11.104  39.698   3.591
43115W        W11509  10.898  20.151  11.901
43116W        W11510   3.112   7.889  13.325
43117W        W11511  18.276  20.189  10.318
43118W        W11512  23.021  40.080   3.380
43119W        W11513  36.648   7.444   1.334
43120W        W11514   8.327  20.495  14.849
43121W        W11515  29.979  35.930  10.611
43122W        W11516  41.538   0.214   0.017
43123W        W11517   7.152  18.467   2.109
43124W        W11518  36.502  28.659   2.099
43125W        W11519  37.127  36.870   3.730
43126W        W11520  32.548  29.076  13.486
43127W        W11521   4.275  21.062  14.374
43128W        W11522  19.044  39.010  12.527
43129W        W11523  23.597   1.015  10.540
43130W        W11524  31.557   3.835   1.416
43131W        W11525  36.600   8.157   3.257
43132W        W11526  33.673  11.215  14.397
43133W        W11527  12.018  23.970  11.207
43134W        W11528   2.571  40.989  11.838
43135W        W11529  19.052  33.243   2.592
43136W        W11530   4.852  32.129   4.687
43137W        W11531   0.606  35.889   0.410
43138W        W11532  11.893  44.446  13.010
43139W        W11533  17.602   2.202  11.410
43140W        W11534  10.147  19.000  11.203
43141W        W11535  22.777   7.336   2.324
43142W        W11536  36.927  35.036  13.330
43143W        W11537  30.462  10.982  10.233
43144W        W11538  12.858  40.126   2.860
43145W        W11539   9.475  17.349   3.733
43146W        W11540  26.722  12.044  13.801
43147W        W11541  39.901  10.233  14.490
43148W        W11542   9.912  16.396  12.600
43149W        W11543  33.444  14.578   2.749
43150W        W11544  43.806  31.028  14.967
43151W        W11545  23.026   1.183   3.906
43152W        W11546  24.052  24.737  12.541
43153W        W11547  33.619   1.336  10.988
43154W        W11548  26.279  41.552  13.818
43155W        W11549  22.535  14.896   2.579
43156W        W11550   9.715  12.279  12.826
43157W        W11551   6.455  37.654  11.581
43158W        W11552  27.616  19.232  11.430
43159W        W11553  35.394  24.258   1.221
43160W        W11554  23.025  16.475   3.879
43161W        W11555   9.485  39.870  12.040
43162W        W11556  28.666  19.716   1.339
43163W        W11557  25.004  34.540  12.817
43164W        W11558  15.825  44.236   2.259
43165W        W11559  42.756  20.815   4.029
43166W        W11560  32.454   1.982   3.207
43167W        W11561  18.469  20.924  14.736
43168W        W11562   7.287  27.110  14.276
43169W        W11563  37.270  13.227   0.300
43170W        W11564  28.403   2.384  10.688
43171W        W11565  42.444  38.486   2.411
43172W        W11566  25.999  36.060  12.412
43173W        W11567  17.040  12.074  11.994
43174W        W11568  24.039  10.850  12.185
43175W        W11569  40.517   8.599  12.028
43176W        W11570   9.893  25.460  14.305
43177W        W11571   1.425  33.435  12.903
43178W        W11572  24.619  40.496   3.780
43179W        W11573  21.144   4.939   1.830
43180W        W11574  18.617  39.366  12.146
43181W        W11575  14.626   3.755  14.253
43182W        W11576  18.822  12.155  11.554
43183W        W11577  41.900  33.081  14.373
43184W        W11578  20.092  21.402  13.116
43185W        W11579  42.050   6.275  13.882
43186W        W11580  22.681  32.873   3.181
43187W        W11581  36.149   5.294  13.094
43188W        W11582  16.034  18.171   3.108
43189W        W11583   6.440  17.631  10.576
43190W        W11584  35.506  21.680   4.199
43191W        W11585  25.453  27.905  14.772
43192W        W11586  20.484   8.281  14.280
43193W        W11587  22.552  39.437  11.034
43194W        W11588  26.722  28.424  13.027
43195W        W11589  44.672  25.915  12.518
43196W        W11590  32.899   8.107  14.905
43197W        W11591   4.553   4.106   2.290
43198W        W11592  28.501   7.676  10.686
43199W        W11593  28.590  21.189  13.849
43200W        W11594  36.701  22.106  12.032
43201W        W11595   5.224  25.114   1.244
43202W        W11596   1.989  23.966  11.620
43203W        W11597   9.069   6.919   4.911
43204W        W11598   8.222  44.736   4.496
43205W        W11599  30.682  41.838   4.024
43206W        W11600  35.442  13.768   4.278
43207W        W11601  34.951  41.425  14.765
43208W        W11602  36.996  44.932   3.664
43209W        W11603  17.208  40.925  11.911
43210W        W11604  14.484  17.067  13.953
43211W        W11605  23.176  28.702   1.349
43212W        W11606  33.764  24.246  14.880
43213W        W11607   0.838  21.975   3.079
43214W        W11608  20.468  22.567   3.457
43215W        W11609  29.623  44.227   0.737
43216W        W11610   1.394  15.406  11.029
43217W        W11611  31.160   6.368   2.641
43218W        W11612  29.471  21.200   2.450
43219W        W11613  38.832  24.367  14.433
43220W        W11614  18.712   1.227   4.635
43221W        W11615  26.634  30.775  13.509
43222W        W11616  30.173  42.987  13.887
43223W        W11617  24.127  12.105   2.168
43224W        W11618   1.675   1.318   2.839
43225W        W11619  38.430  12.128  14.974
43226W        W11620  31.662   0.611  14.438
43227W        W11621  40.285   9.744  11.188
43228W        W11622  10.524  28.782  12.242
43229W        W11623  42.018  18.260  13.172
43230W        W11624   3.755  16.059  12.377
43231W        W11625  11.810  30.031  14.211
43232W        W11626  35.473  26.114  14.297
43233W        W11627  24.567  13.567  14.861
43234W        W11628   9.184  13.323  12.514
43235W        W11629  44.701  27.432  14.011
43236W        W11630   1.497   1.749  13.869
43237W        W11631  26.180  36.828   2.227
43238W        W11632  35.765  37.053  12.181
43239W        W11633  14.229  20.724  10.716
43240W        W11634  24.146  44.537   5.039
43241W        W11635  10.348  36.306  13.399
43242W        W11636  29.784  25.177   1.041
43243W        W11637  34.824  38.612  11.504
43244W        W11638  24.263  12.768   1.690
43245W        W11639  37.983  37.077  12.417
43246W        W11640  16.680  16.314   0.136
43247W        W11641  11.181  15.173   4.159
43248W        W11642  33.412  11.914  11.954
43249W        W11643  31.357  44.043   3.414
43250W        W11644  36.485  11.860   9.848
43251W        W11645  35.686  40.732   1.302
43252W        W11646  31.655   2.590   4.500
43253W        W11647  34.521  30.500  12.578
43254W        W11648  41.768   9.751  10.441
43255W        W11649  31.092  35.382  14.849
43256W        W11650  25.115  16.848  12.074
43257W        W11651   1.781  16.294   1.104
43258W        W11652  43.328   1.853  13.321
43259W        W11653  15.552  10.132  12.151
43260W        W11654  19.044  37.446  14.568
43261W        W11655  30.511   0.155  12.723
43262W        W11656  32.428  17.108   1.377
43263W        W11657   8.245  40.460   3.917
43264W        W11658  26.193  25.797  12.011
43265W        W11659  38.755  16.341   2.378
43266W        W11660  15.282  30.817   0.649
43267W        W11661  22.935  22.633   3.951
43268W        W11662  20.744  44.030  14.344
43269W        W11663  19.287  30.026   0.859
43270W        W11664  24.548  39.445  10.317
43271W        W11665  18.560   3.765   1.490
43272W        W11666   9.566   1.261  12.442
43273W        W11667  29.520   9.739   3.783
43274W        W11668  34.999   6.357  12.268
43275W        W11669   4.321  22.997   2.009
43276W        W11670   3.928   0.914   0.955
43277W        W11671  12.717  20.989   2.118
43278W        W11672  13.613  26.049  13.629
43279W        W11673  29.959  26.993   2.772
43280W        W11674   9.078   6.784  11.245
43281W        W11675  26.017  18.265  11.212
43282W        W11676  19.211   0.433   2.762
43283W        W11677  40.980  33.158   2.785
43284W        W11678  15.643   5.801   1.785
43285W        W11679  24.458  36.283  11.562
43286W        W11680   3.409   1.541   1.960
43287W        W11681  24.107  43.622  10.300
43288W        W11682   2.418  12.303  10.503
43289W        W11683   7.818   1.908  10.402
43290W        W11684  21.221  14.679   2.644
43291W        W11685   5.977  31.925   4.027
43292W        W11686  15.188  28.384   4.677
43293W        W11687  20.209  31.455   3.252
43294W        W11688  37.093  11.100   2.291
43295W        W11689  14.524   5.871   1.897
43296W        W11690  40.060  34.520   0.841
43297W        W11691  42.437  39.439  10.239
43298W        W11692   4.024  20.638  11.924
43299W        W11693  22.181  16.305  10.602
43300W        W11694  38.553  10.815  14.350
43301W        W11695  15.922  31.966   0.577
43302W        W11696  31.016  37.272  12.099
43303W        W11697  15.213  12.891  11.052
43304W        W11698  44.179   4.571   3.504
43305W        W11699  16.887  21.062   0.981
43306W        W11700  31.401  25.560   4.411
43307W        W11701  38.205  18.449  12.901
43308W        W11702  44.907  26.755   0.531
43309W        W11703  32.078   7.889  12.095
43310W        W11704  34.104  44.449  14.750
43311W        W11705  21.175  34.670   1.412
43312W        W11706   7.949  23.557   3.214
43313W        W11707  27.693  13.546   0.231
43314W        W11708  34.861  23.134  13.134
43315W        W11709  25.510  44.256  13.809
43316W        W11710  43.086   9.710  12.356
43317W        W11711  36.424  28.583   0.703
43318W        W11712  19.064  11.286   3.135
43319W        W11713  22.760   7.428  14.872
43320W        W11714  27.196   3.769   2.802
43321W        W11715  13.121  16.596   4.492
43322W        W11716  12.861  39.390   4.582
43323W        W11717  23.547  19.976   4.779
43324W        W11718  38.366  24.567  12.098
43325W        W11719  17.508  28.540  13.996
43326W        W11720  34.955  17.277   3.096
43327W        W11721  34.466   3.832  12.956
43328W        W11722  44.541   8.325   0.683
43329W        W11723  36.409  22.300  13.546
43330W        W11724   0.429  11.219   2.140
43331W        W11725  16.591  11.225  11.174
43332W        W11726  27.066  26.192  12.215
43333W        W11727  33.047  38.143  10.543
43334W        W11728  38.337  13.629  12.654
43335W        W11729   5.781  21.113   2.826
43336W        W11730  28.156  39.397  11.573
43337W        W11731  21.483  19.811   1.314
43338W        W11732  28.533  14.317  11.047
43339W        W11733   7.400  32.106   3.780
43340W        W11734  37.918  31.571  14.546
43341W        W11735  44.206  33.849  13.139
43342W        W11736  35.119  18.237   2.438
43343W        W11737  10.639  44.952  11.337
43344W        W11738  12.571  41.285  14.519
43345W        W11739  25.101  14.770   3.661
43346W        W11740  17.819   1.426  14.927
43347W        W11741  15.367  15.620   3.215
43348W        W11742  31.048  42.952   4.129
43349W        W11743  33.059  37.997   2.346
43350W        W11744  31.482   5.185   2.095
43351W        W11745  40.341  34.472   3.659
43352W        W11746   1.295   4.305   0.411
43353W        W11747  38.710   6.029   3.582
43354W        W11748   5.651  12.175   4.647
43355W        W11749  26.180  13.048  14.336
43356W        W11750  33.105   3.306   0.968
43357W        W11751  32.390  12.153  13.980
43358W        W11752  31.202  27.600  14.788
43359W        W11753  22.552   7.979   1.838
43360W        W11754  43.239  17.810  13.941
43361W        W11755  32.388  36.350   3.242
43362W        W11756  26.746  30.401  14.459
43363W        W11757  26.677  41.773   4.576
43364W        W11758  19.159  43.118  10.349
43365W        W11759  36.914  38.130   4.137
43366W        W11760  38.001  36.652  10.688
43367W        W11761  21.172   0.079   0.062
43368W        W11762  20.231  42.565   3.260
43369W        W11763  32.451  25.352   3.344
43370W        W11764  18.318   1.513   0.028
43371W        W11765  21.166   2.544   0.358
43372W        W11766   3.090  40.244  10.368
43373W        W11767   3.785   3.887   4.555
43374W        W11768  13.237  31.851  12.526
43375W        W11769  42.803   5.245  10.621
43376W        W11770   0.923  40.586   3.580
43377W        W11771  33.302  15.441   1.892
43378W        W11772   3.313   9.796   2.860
43379W        W11773  21.133  33.821   1.478
43380W        W11774  19.233  21.455   0.821
43381W        W11775  43.973  32.408  14.973
43382W        W11776  20.181  23.668  10.321
43383W        W11777  17.855  29.528   0.117
43384W        W11778  20.673  23.278  10.830
43385W        W11779  44.290   2.653   2.168
43386W        W11780  14.605  19.098   3.266
43387W        W11781  31.947  42.094  13.003
43388W        W11782  17.871  25.909  11.793
43389W        W11783  36.662  25.751  13.561
43390W        W11784  34.333   9.395   3.269
43391W        W11785  30.019  16.772  12.878
43392W        W11786  27.046  10.367  10.507
43393W        W11787  31.667  22.158   3.339
43394W        W11788  40.852  30.253   2.422
43395W        W11789  17.739  33.538  10.674
43396W        W11790  15.107  22.927   0.782
43397W        W11791  22.121  28.891  10.414
43398W        W11792   2.265  38.536  10.715
43399W        W11793  11.400   5.939  10.537
43400W        W11794  20.939  13.081   1.121
43401W        W11795  22.960   9.911  13.134
43402W        W11796  42.359  31.509  11.406
43403W        W11797  38.520   0.838  12.432
43404W        W11798  12.898   7.803   5.147
43405W        W11799  44.446  35.625   1.887
43406W        W11800  44.352  42.839   0.399
43407W        W11801  26.571   4.232   4.590
43408W        W11802  12.122   2.772  13.547
43409W        W11803  34.711  20.572   0.995
43410W        W11804  21.978  28.748   5.029
43411W        W11805  39.998  28.762   1.795
43412W        W11806   4.596   8.727  11.130
43413W        W11807   1.761   2.738   4.551
43414W        W11808   9.468  23.416   3.816
43415W        W11809  32.406  15.221   1.865
43416W        W11810  10.453  26.009   3.648
43417W        W11811  28.037   7.550  12.867
43418W        W11812  29.136  18.616  14.462
43419W        W11813  37.292  32.957  11.595
43420W        W11814  20.736   8.428  10.623
43421W        W11815   1.274  39.965  12.460
43422W        W11816  22.690   4.884   0.254
43423W        W11817  38.989  27.444   1.353
43424W        W11818  40.025   3.274   4.259
43425W        W11819  31.938  41.513   2.786
43426W        W11820  32.024  40.819  12.569
43427W        W11821  42.813   0.861  14.514
43428W        W11822   5.181  19.133  14.760
43429W        W11823  34.855  35.934   1.140
43430W        W11824   1.371  20.072   1.813
43431W        W11825  28.059   4.174  12.077
43432W        W11826  33.900   4.210   4.185
43433W        W11827  21.146  31.283   3.699
43434W        W11828  23.990  36.372   4.691
43435W        W11829  42.864   7.276   1.276
43436W        W11830  33.036   8.973  12.070
43437W        W11831  10.805  17.208   2.837
43438W        W11832   8.166  32.380   3.139
43439W        W11833  37.673  11.826   4.390
43440W        W11834  33.992  14.552   0.753
43441W        W11835  16.896  29.713   3.366
43442W        W11836  33.420  14.709  12.066
43443W        W11837  33.982  31.066   3.530
43444W        W11838   3.352  36.552   1.441
43445W        W11839  22.779   9.847   3.736
43446W        W11840  44.936  24.088  13.514
43447W        W11841  31.670   3.003   2.411
43448W        W11842  32.828  10.336   3.599
43449W        W11843  39.550  33.411   4.546
43450W        W11844  17.304  26.538   0.753
43451W        W11845   4.617  38.351  12.614
43452W        W11846  17.866  28.105  14.958
43453W        W11847  20.910  17.142   1.544
43454W        W11848  19.282  44.520   2.721
43455W        W11849   0.249  30.970  14.365
43456W        W11850  10.209  35.670   1.873
43457W        W11851  33.527  42.914   1.534
43458W        W11852  16.093   9.325   2.791
43459W        W11853  25.230  22.186   0.981
43460W        W11854   9.829   3.415   2.196
43461W        W11855  34.462  42.901   2.968
43462W        W11856  23.734  33.264   4.941
43463W        W11857   8.862   4.352   4.452
43464W        W11858  26.706  16.804  11.235
43465W        W11859  29.207  24.011  10.990
43466W        W11860  28.627  16.851  11.922
43467W        W11861  26.383   1.704  14.512
43468W        W11862   5.636  42.964   2.762
43469W        W11863  10.586  16.833   2.212
43470W        W11864  27.196  38.227   1.825
43471W        W11865   3.985  16.666  14.848
43472W        W11866  29.214  42.422  10.975
43473W        W11867  33.025  32.018   1.091
43474W        W11868  15.788   7.353   3.386
43475W        W11869  16.481  33.649  11.096
43476W        W11870   6.663  30.422  14.821
43477W        W11871  41.090  13.843   1.168
43478W        W11872  11.204  37.693  14.030
43479W        W11873  26.784  34.442   1.397
43480W        W11874  19.959   0.288  12.474
43481W        W11875   8.663  37.013  12.464
43482W        W11876  41.364  36.956   2.434
43483W        W11877  39.113  36.879  13.006
43484W        W11878  42.040  29.590   1.417
43485W        W11879  22.097   4.550  12.135
43486W        W11880  18.774  21.034   1.534
43487W        W11881   6.453  12.757  10.567
43488W        W11882  16.273   2.757  11.622
43489W        W11883  34.579  40.339   0.341
43490W        W11884  31.669  25.591  11.554
43491W        W11885  14.667  17.773  11.715
43492W        W11886  30.040  12.651  11.145
43493W        W11887  34.530  42.892   0.997
43494W        W11888   8.804   7.177  11.096
43495W        W11889  29.146  36.096  11.876
43496W        W11890   3.374  36.182  10.325
43497W        W11891   5.455  22.135  14.873
43498W        W11892  24.904  22.791   2.292
43499W        W11893  17.668  39.638  12.042
43500W        W11894  30.518  31.291  14.578
43501W        W11895  33.646  37.692  14.886
43502W        W11896  13.260  11.167  11.539
43503W        W11897   8.815  40.251  13.061
43504W        W11898  20.101  37.480   9.781
43505W        W11899  33.096   2.930  11.539
43506W        W11900   9.863   5.204  11.530
43507W        W11901  27.754  24.589  14.737
43508W        W11902   4.817  19.778  10.704
43509W        W11903  41.933  24.992   5.015
43510W        W11904  15.291  33.958   2.407
43511W        W11905   2.913   1.519  10.598
43512W        W11906  41.505  24.875  13.858
43513W        W11907   5.003   0.399   0.469
43514W        W11908  40.404   2.828   4.924
43515W        W11909   9.547   4.935  14.500
43516W        W11910  28.923  14.732   0.834
43517W        W11911  10.876  28.077  11.520
43518W        W11912  14.835  37.914  13.350
43519W        W11913  23.513  20.627  11.180
43520W        W11914  22.551  23.765  13.914
43521W        W11915  41.653  42.887   3.746
43522W        W11916  17.754   1.781  11.181
43523W        W11917   7.259  10.872   1.376
43524W        W11918   5.945  12.617   0.348
43525W        W11919   0.218  42.929   2.860
43526W        W11920  41.305  26.981   0.287
43527W        W11921  40.824  32.713  12.418
43528W        W11922  22.996  22.885  12.685
43529W        W11923  41.984  33.952  14.030
43530W        W11924  27.137  27.641  11.103
43531W        W11925   6.641  32.392   0.722
43532W        W11926  10.323  41.306   4.700
43533W        W11927  21.278  35.032   0.573
43534W        W11928  10.440  20.069  11.632
43535W        W11929  30.862   2.131   1.027
43536W        W11930  23.222  44.073   0.928
43537W        W11931  15.019  30.491   1.612
43538W        W11932  21.325  35.171   2.025
43539W        W11933  43.911  13.761   3.302
43540W        W11934  10.669  37.963  11.940
43541W        W11935  10.207  23.211   0.980
43542W        W11936  16.825  44.021  13.970
43543W        W11937  38.931   5.660   4.483
43544W        W11938   9.908  10.171   3.442
43545W        W11939  30.566   4.812  12.359
43546W        W11940  31.938  34.495  11.575
43547W        W11941  41.023   8.223   1.433
43548W        W11942  26.675  11.515   4.968
43549W        W11943  23.492  34.990  14.285
43550W        W11944   2.767  16.645  12.980
43551W        W11945  16.764  19.019   2.711
43552W        W11946  28.881  22.017  11.143
43553W        W11947  34.469  11.779  11.460
43554W        W11948  28.460  43.896  14.474
43555W        W11949   2.355  43.823  11.666
43556W        W11950  17.222  21.281  10.663
43557W        W11951  10.497   4.869  11.079
43558W        W11952  22.705  44.397   1.751
43559W        W11953  29.662  20.069  13.012
43560W        W11954  17.067  25.248   3.394
43561W        W11955  29.256   1.447   3.710
43562W        W11956  21.092  24.694  11.559
43563W        W11957   0.043  42.445  13.599
43564W        W11958   2.708  21.298  12.571
43565W        W11959  22.313   6.322  14.768
43566W        W11960  42.193  40.828  12.130
43567W        W11961  41.243  19.981  13.478
43568W        W11962  30.131   0.865  12.073
43569W        W11963  36.356  39.446  12.648
43570W        W11964  17.689   7.917   0.244
43571W        W11965  30.093  23.424  12.474
43572W        W11966  15.555  35.975  12.771
43573W        W11967  10.254  39.938  14.925
43574W        W11968  14.748  33.658  12.395
43575W        W11969  42.936  38.816  12.498
43576W        W11970  13.786  43.044  14.882
43577W        W11971  13.738   5.440  12.514
43578W        W11972  40.540  37.365   1.397
43579W        W11973  31.874  33.091   3.665
43580W        W11974   2.150  30.761  12.926
43581W        W11975  31.125  19.755   0.900
43582W        W11976  28.921  21.820  14.409
43583W        W11977  29.735  29.007   1.355
43584W        W11978   5.744   9.292  11.213
43585W        W11979   8.922  18.327   3.233
43586W        W11980  20.298   8.702  12.521
43587W        W11981  44.945  40.566   0.420
43588W        W11982   3.182  39.456   2.957
43589W        W11983  33.267  18.727  14.237
43590W        W11984  17.148  22.004   3.442
43591W        W11985   8.357   4.778  12.591
43592W        W11986  12.125  38.326   0.928
43593W        W11987  22.976  44.683   2.820
43594W        W11988   0.087  39.021   2.441
43595W        W11989  31.107  37.272   2.687
43596W        W11990  20.772  23.547  13.310
43597W        W11991  29.603   4.312  10.682
43598W        W11992   7.282   0.847  13.423
43599W        W11993  36.621  39.100   1.711
43600W        W11994  34.338  10.832   0.229
43601W        W11995  10.231  37.005   4.592
43602W        W11996   4.202  14.279   3.856
43603W        W11997  13.821   6.937   2.412
43604W        W11998  16.616  43.368   3.731
43605W        W11999  42.278  41.779   0.416
43606W        W12000  29.554  16.685  11.493
43607W        W12001  17.387  11.626   9.810
43608W        W12002   3.239  24.559  13.419
43609W        W12003  14.288   0.266   0.519
43610W        W12004  15.698   6.771   2.691
43611W        W12005  25.892  19.522   0.452
43612W        W12006  43.532  28.114  10.747
43613W        W12007   5.797  34.831  13.408
43614W        W12008  33.410  33.903   4.608
43615W        W12009   0.943   5.766  12.900
43616W        W12010  39.388  41.471  10.703
43617W        W12011  36.425  23.614   0.472
43618W        W12012   7.044  34.498  12.414
43619W        W12013  36.858  41.326  10.548
43620W        W12014  39.091  11.675  11.614
43621W        W12015  25.104   5.694   0.743
43622W        W12016  33.650  40.080   0.467
43623W        W12017  17.216  26.914   2.151
43624W        W12018  38.575  38.767   0.023
43625W        W12019   4.915   2.732   3.713
43626W        W12020   3.268  30.255  13.461
43627W        W12021  37.194  42.411  14.818
43628W        W12022  23.152  24.943   0.316
43629W        W12023  17.360  29.576  12.905
43630W        W12024  10.643  33.163  13.548
43631W        W12025  22.581  34.892  11.626
43632W        W12026  12.043   4.282  14.885
43633W        W12027  17.482  10.162   3.181
43634W        W12028  22.324  20.073   2.257
43635W        W12029   2.836  10.591   3.600
43636W        W12030   9.815   8.289   2.670
43637W        W12031  18.706  17.947   1.016
43638W        W12032  20.819   2.990   1.683
43639W        W12033  11.681  24.081   3.605
43640W        W12034  41.161  27.683   1.986
43641W        W12035   8.823  13.784  11.480
43642W        W12036  35.270  30.954   1.653
43643W        W12037  23.460  29.628  13.318
43644W        W12038  15.283   9.868  10.406
43645W        W12039  39.930  36.601  11.349
43646W        W12040  37.463  30.485   2.769
43647W        W12041  42.970  27.730  10.977
43648W        W12042  14.025   9.003  12.059
43649W        W12043  41.219  16.244  13.961
43650W        W12044  17.079  20.403   4.671
43651W        W12045  13.376   5.215  14.382
43652W        W12046   7.629  18.298   5.103
43653W        W12047  32.301  38.682  12.898
43654W        W12048  27.459  29.661   4.728
43655W        W12049  19.037  30.228  13.276
43656W        W12050  22.210  25.181   4.631
43657W        W12051  42.539   9.718  12.427
43658W        W12052   7.476  32.486   4.753
43659W        W12053  25.907  30.990  14.265
43660W        W12054  13.486   6.386  14.328
43661W        W12055  41.944  23.117  10.449
43662W        W12056  38.979  31.979   3.157
43663W        W12057  17.701  29.153   4.286
43664W        W12058  22.244  13.700  11.974
43665W        W12059  12.366  37.024   3.287
43666W        W12060  27.753  43.171  12.447
43667W        W12061  20.232  27.180  11.892
43668W        W12062   6.650  10.330   1.456
43669W        W12063   5.325  31.364  12.882
43670W        W12064  14.209  14.927   4.758
43671W        W12065  10.695  39.805   3.255
43672W        W12066  28.149  44.773   3.361
43673W        W12067  33.986  41.466   4.695
43674W        W12068  23.552   5.396   0.456
43675W        W12069  25.124   8.347  11.038
43676W        W12070  44.015  37.948   1.012
43677W        W12071  13.839  31.179  12.512
43678W        W12072  22.021  40.976  12.797
43679W        W12073  14.688   0.695   1.674
43680W        W12074   7.364  28.793  14.641
43681W        W12075  16.850  25.083  13.009
43682W        W12076   7.098  13.868   0.141
43683W        W12077  13.893  28.672   2.803
43684W        W12078  31.553  40.512   4.044
43685W        W12079  33.929   1.879  13.053
43686W        W12080  27.166  22.761  11.509
43687W        W12081  18.608  25.146  14.000
43688W        W12082  27.529  14.027   0.118
43689W        W12083   3.114  15.254   5.049
43690W        W12084  11.412  16.197  14.866
43691W        W12085  10.147  24.586  12.655
43692W        W12086  35.630  34.624  10.622
43693W        W12087  25.253  35.537   3.299
43694W        W12088  14.396  16.057  14.786
43695W        W12089   7.973  35.986   1.014
43696W        W12090  25.298   5.796   3.632
43697W        W12091  42.413  31.929  11.703
43698W        W12092  16.285  15.818   3.293
43699W        W12093  39.822   4.338   2.829
43700W        W12094   0.445  42.281   1.058
43701W        W12095  12.050  19.315  13.841
43702W        W12096  34.380  22.206   2.893
43703W        W12097  39.823   6.965  11.551
43704W        W12098  42.448   4.948   2.075
43705W        W12099  31.612  24.281  11.597
43706W        W12100  15.536  18.080   1.214
43707W        W12101  17.119   7.734   0.905
43708W        W12102  43.350  18.058  11.641
43709W        W12103  43.803   1.805   3.368
43710W        W12104   6.390   3.868   3.682
43711W        W12105   4.747  44.229  11.989
43712W        W12106  19.005   9.985  12.912
43713W        W12107  44.813  25.090  12.586
43714W        W12108  33.399  27.975  10.482
43715W        W12109  42.713  16.152  11.930
43716W        W12110   9.269  35.654  13.462
43717W        W12111   2.996  12.749  12.888
43718W        W12112  23.767  33.166   4.226
43719W        W12113  25.727  37.107   0.408
43720W        W12114  21.679  15.240   2.618
43721W        W12115  43.949  29.625   2.814
43722W        W12116  38.443  20.065   2.689
43723W        W12117   2.891  22.536  14.027
43724W        W12118  38.495  35.334  12.277
43725W        W12119  24.698  37.510   2.232
43726W        W12120   5.315  34.954  10.756
43727W        W12121  10.908  40.016  13.541
43728W        W12122  20.502  11.038  14.432
43729W        W12123  34.362  38.597  13.786
43730W        W12124   1.151  17.735  12.114
43731W        W12125  35.913  17.983  12.623
43732W        W12126  21.115   4.213   4.140
43733W        W12127  36.446  23.779  11.127
43734W        W12128   3.343  40.546   0.013
43735W        W12129  39.350   8.827   1.452
43736W        W12130  40.262  41.658  10.735
43737W        W12131  26.720  32.479   1.228
43738W        W12132  21.587   7.674   0.465
43739W        W12133  28.241  30.026   3.687
43740W        W12134  38.487   3.827  12.513
43741W        W12135   3.873  39.735  13.891
43742W        W12136  38.786  44.752  14.753
43743W        W12137  38.590  11.794  13.474
43744W        W12138  35.956  23.694   1.310
43745W        W12139  22.042  18.567   4.816
43746W        W12140  11.890  18.525   4.268
43747W        W12141  43.624  33.335   3.052
43748W        W12142  10.668   8.632  10.374
43749W        W12143  39.999  34.636  11.582
43750W        W12144  22.046  39.381  11.560
43751W        W12145  17.233  44.396   1.493
43752W        W12146  30.675   6.232  12.440
43753W        W12147   4.801  37.300  12.864
43754W        W12148  25.039  13.280   3.823
43755W        W12149  16.106  43.320   0.507
43756W        W12150  39.638   1.375  10.935
43757W        W12151  19.591   6.221   1.495
43758W        W12152  17.795  27.674   3.519
43759W        W12153  34.215  23.650  14.325
43760W        W12154  38.552  41.627   5.190
43761W        W12155  40.796  43.859   0.264
43762W        W12156  18.693  42.428   3.864
43763W        W12157  20.001  42.185  12.498
43764W        W12158  13.157  23.928  10.608
43765W        W12159  13.772  36.403  14.059
43766W        W12160  37.051  13.313   3.277
43767W        W12161  39.323   0.355   3.662
43768W        W12162  11.909  31.842  14.941
43769W        W12163   1.015  44.758  13.003
43770W        W12164  32.889   3.183   0.499
43771W        W12165   7.562  42.866   1.907
43772W        W12166  35.971  16.800  14.357
43773W        W12167  33.990  25.081  14.710
43774W        W12168  15.452   4.149   3.691
43775W        W12169  26.402   5.135  11.932
43776W        W12170  42.905  38.898  13.391
43777W        W12171  12.882  19.605   1.894
43778W        W12172   5.773  42.246   4.824
43779W        W12173  15.423  32.002   4.248
43780W        W12174  28.012  19.057  14.421
43781W        W12175  17.795  41.561   4.596
43782W        W12176  26.103   8.633   2.653
43783W        W12177  21.152   9.089   2.888
43784W        W12178   0.870  20.228   2.417
43785W        W12179   7.260  30.013   4.234
43786W        W12180  44.277  36.518  14.175
43787W        W12181   9.820  32.137  12.501
43788W        W12182  12.273  13.281  14.288
43789W        W12183  23.472  12.167   4.292
43790W        W12184   9.841  36.569   2.561
43791W        W12185  13.794  23.658   4.192
43792W        W12186  11.372  26.608   4.732
43793W        W12187   7.425  28.812   1.275
43794W        W12188  38.896  40.458  14.263
43795W        W12189  40.365  44.093   2.309
43796W        W12190  28.963  42.995   2.929
43797W        W12191  35.034   0.937   1.424
43798W        W12192   9.139   7.173  13.913
43799W        W12193  39.062  43.311   3.086
43800W        W12194   8.193  15.665  13.588
43801W        W12195  38.106   7.265   4.265
43802W        W12196   9.704  33.970   4.673
43803W        W12197   6.284  42.459   4.115
43804W        W12198  33.164  35.641   0.134
43805W        W12199  22.218  37.403   2.201
43806W        W12200  22.038  39.510   1.769
43807W        W12201  11.353  31.611   2.148
43808W        W12202  16.366  19.784   5.372
43809W        W12203  15.051  39.938   3.681
43810W        W12204  23.125   2.966   4.627
43811W        W12205   0.331   1.764  14.895
43812W        W12206   2.177  42.347  14.518
43813W        W12207  26.969   6.974   0.386
43814W        W12208  25.441  10.858   2.862
43815W        W12209   2.345   1.170  13.869
43816W        W12210   4.002  34.414   2.281
43817W        W12211  10.799   0.344  11.662
43818W        W12212  25.178  16.710  11.185
43819W        W12213   4.228  35.896  11.884
43820W        W12214  23.680  32.423   4.583
43821W        W12215  25.815  27.576   0.353
43822W        W12216  28.221  12.611  10.851
43823W        W12217  28.998  41.365   1.747
43824W        W12218   6.208  37.399   1.526
43825W        W12219  39.004  17.412  12.821
43826W        W12220  31.834  12.486   3.377
43827W        W12221  41.038  26.207  10.781
43828W        W12222  44.326  26.088  13.341
43829W        W12223  39.388  35.079  11.984
43830W        W12224  43.735  35.109   2.418
43831W        W12225  43.393   9.174  10.610
43832W        W12226   8.908  39.924  13.862
43833W        W12227  40.434  17.821   1.702
43834W        W12228  25.227   1.865   2.262
43835W        W12229  39.826  39.052  11.903
43836W        W12230  31.997  41.547   3.667
43837W        W12231   0.569  12.120  11.845
43838W        W12232  31.918  26.480  10.750
43839W        W12233  14.193  37.267  14.383
43840W        W12234  25.521  10.953  14.963
43841W        W12235  10.341  24.429   4.143
43842W        W12236  29.494  22.554  13.499
43843W        W12237   2.674  19.234  13.084
43844W        W12238  16.131  30.905   1.966
43845W        W12239  35.628  43.032  12.416
43846W        W12240  11.131  23.207  11.599
43847W        W12241   3.509  34.048   1.754
43848W        W12242  19.073  34.343   3.769
43849W        W12243  17.529  36.471   2.256
43850W        W12244   5.892  25.979   0.318
43851W        W12245  17.069  39.384  14.118
43852W        W12246  36.563  30.336   4.439
43853W        W12247  43.062   3.743   2.294
43854W        W12248  34.782  27.269  13.841
43855W        W12249  21.572  36.478  13.779
43856W        W12250  21.276   0.397  12.086
43857W        W12251  10.805  26.560  14.909
43858W        W12252  28.173  20.285  12.889
43859W        W12253  19.142   8.098   1.468
43860W        W12254   9.321  11.700   2.164
43861W        W12255   7.327  12.851   4.444
43862W        W12256  27.247  22.722   4.060
43863W        W12257  26.114  35.129   3.407
43864W        W12258  27.076  36.222   5.141
43865W        W12259  31.702  31.458   1.859
43866W        W12260   1.340  42.020   2.667
43867W        W12261  40.814  43.077   4.390
43868W        W12262  29.449   6.417  14.922
43869W        W12263  35.558  23.276   2.239
43870W        W12264  27.677  18.161  12.604
43871W        W12265  20.940   8.329   3.447
43872W        W12266   9.726  32.638   3.807
43873W        W12267  22.005   6.675  14.548
43874W        W12268  35.818  16.580   2.017
43875W        W12269  31.482  32.138  11.613
43876W        W12270  32.098  34.460   3.686
43877W        W12271  10.674  13.758   0.013
43878W        W12272  37.001  39.431  14.817
43879W        W12273  26.614  42.471  12.641
43880W        W12274  36.339   0.063   1.806
43881W        W12275  33.593   7.783  14.945
43882W        W12276  33.969  36.937   0.003
43883W        W12277   1.050   4.372   1.408
43884W        W12278   7.696  18.305  11.873
43885W        W12279  32.370  15.191  14.858
43886W        W12280  19.687  22.245   3.735
43887W        W12281  40.473  37.596  12.318
43888W        W12282  21.156  39.450   4.447
43889W        W12283   4.972  42.849   3.613
43890W        W12284  42.938  44.388   1.683
43891W        W12285   5.778  26.986   3.741
43892W        W12286  11.773  15.084  14.359
43893W        W12287   3.668  36.465  13.764
43894W        W12288   4.439   7.426   0.814
43895W        W12289   6.493  17.326   2.769
43896W        W12290  18.620   9.721   4.851
43897W        W12291  39.518   3.248  12.838
43898W        W12292  14.647   6.830  12.701
43899W        W12293  28.628  43.615  10.707
43900W        W12294  12.682  35.423  10.602
43901W        W12295  44.352  24.451  12.351
43902W        W12296   4.413  14.997   2.823
43903W        W12297   7.290  12.111  11.990
43904W        W12298   1.302  29.778  14.835
43905W        W12299  15.032   9.315   2.689
43906W        W12300  25.397   1.762  11.018
43907W        W12301   9.742   2.376  10.808
43908W        W12302  29.017  39.805   3.219
43909W        W12303  33.701  35.964  11.571
43910W        W12304  33.899   7.758   2.236
43911W        W12305   0.800  42.650  13.066
43912W        W12306  25.512  29.878  11.726
43913W        W12307   5.224  36.777   2.741
43914W        W12308   4.968  13.829  11.383
43915W        W12309  32.333  43.029  11.808
43916W        W12310  30.446  22.087   0.004
43917W        W12311  38.874  35.065   4.734
43918W        W12312  22.720   4.314  10.414
43919W        W12313   9.962  39.436  14.072
43920W        W12314  44.823   2.312   0.322
43921W        W12315  40.106  17.373  14.974
43922W        W12316  14.288   2.694   1.733
43923W        W12317  36.326   7.260   3.823
43924W        W12318  37.117   5.553  12.182
43925W        W12319  20.329  16.744  12.912
43926W        W12320  31.158  33.855  10.363
43927W        W12321  28.189  27.034  10.899
43928W        W12322  19.687  28.172   4.112
43929W        W12323  32.106   1.704  10.102
43930W        W12324  31.313  24.517   0.373
43931W        W12325  26.728   0.648  10.854
43932W        W12326  11.147  25.464   1.869
43933W        W12327  21.809  24.290   1.898
43934W        W12328  32.457  37.266  11.992
43935W        W12329  36.292  27.024  11.113
43936W        W12330   0.829   1.596   4.667
43937W        W12331   5.842  32.617  10.765
43938W        W12332   8.839  23.215   4.658
43939W        W12333  13.072  24.637   3.584
43940W        W12334   2.506  15.600   0.224
43941W        W12335  42.384   7.325   4.214
43942W        W12336  28.416  41.844   1.384
43943W        W12337  43.483  34.134   2.704
43944W        W12338  42.713  25.629   0.038
43945W        W12339   1.242  42.834   3.105
43946W        W12340  12.740  26.207  12.420
43947W        W12341  25.639  40.485  14.868
43948W        W12342  11.095  37.003   3.541
43949W        W12343  12.124   8.216  14.427
43950W        W12344  42.087  43.112   0.832
43951W        W12345  13.735  22.926   2.785
43952W        W12346   8.558  32.581  12.410
43953W        W12347  16.156  12.991  13.797
43954W        W12348   6.121  33.379   1.290
43955W        W12349  18.716  35.013  12.573
43956W        W12350  16.138  13.144  12.091
43957W        W12351   0.526  23.756  11.724
43958W        W12352   3.253  13.269   3.152
43959W        W12353  31.566  11.243   0.971
43960W        W12354  10.863  11.268  10.571
43961W        W12355   9.221  21.005   1.725
43962W        W12356  30.261   4.647   4.132
43963W        W12357  23.334  40.892   2.644
43964W        W12358  41.264   2.318  12.542
43965W        W12359  42.984  41.802  13.925
43966W        W12360  34.511  26.916   4.478
43967W        W12361  17.204   9.132   3.359
43968W        W12362   4.899  43.818  12.578
43969W        W12363  31.609  36.910  13.921
43970W        W12364  17.029  21.597   2.276
43971W        W12365   1.031  17.532  10.625
43972W        W12366  26.599  30.624  11.150
43973W        W12367  34.917  23.210  14.020
43974W        W12368   6.976  19.056  14.517
43975W        W12369  41.132  16.299  14.517
43976W        W12370   6.641  24.590   0.301
43977W        W12371   3.963  14.204  14.929
43978W        W12372  30.433  22.591  14.889
43979W        W12373  14.307   2.843  13.057
43980W        W12374  12.825   7.490   0.394
43981W        W12375  39.060  31.530  13.245
43982W        W12376  35.852   0.447   3.223
43983W        W12377  28.365  11.206  12.573
43984W        W12378  21.517  28.710  13.654
43985W        W12379  39.621  13.992   3.062
43986W        W12380  16.053  28.769   0.203
43987W        W12381  42.742  23.109  11.054
43988W        W12382   5.461  35.834   4.493
43989W        W12383  20.120  15.402   4.596
43990W        W12384  19.177  24.616   1.752
43991W        W12385  12.120  41.275   0.465
43992W        W12386  19.098  33.734   2.673
43993W        W12387  32.636  18.553   4.525
43994W        W12388  27.179  26.226  11.700
43995W        W12389  14.771  31.672  14.245
43996W        W12390   3.939  39.891   2.904
43997W        W12391  27.962  20.999   4.286
43998W        W12392   0.986  18.122   2.985
43999W        W12393  33.532  13.565   4.563
44000W        W12394  21.052  10.002   0.488
44001W        W12395  30.723  18.293   1.687
44002W        W12396   7.653  23.953   1.381
44003W        W12397  13.817  17.852  13.012
44004W        W12398  30.637   1.220   1.387
44005W        W12399  43.348   4.128  10.673
44006W        W12400  41.489  19.029   0.357
44007W        W12401  12.870  13.887   1.273
44008W        W12402  19.763  17.185  14.213
44009W        W12403  29.922  38.128   0.953
44010W        W12404  37.972  44.002   2.303
44011W        W12405  40.354  37.504   0.201
44012W        W12406   8.832   0.205   4.092
44013W        W12407  40.507   2.847   1.250
44014W        W12408  10.995   2.654   4.122
44015W        W12409  16.526  35.873   1.640
44016W        W12410  22.538  18.206   3.007
44017W        W12411  24.713  16.982   0.969
44018W        W12412  38.029  15.464  12.548
44019W        W12413   3.956  27.730  13.481
44020W        W12414  25.581  28.614  14.471
44021W        W12415   1.537  31.085   4.150
44022W        W12416  33.023  19.204   4.148
44023W        W12417  37.959   5.307  10.663
44024W        W12418  38.192  23.573  14.411
44025W        W12419  26.989  39.370  13.765
44026W        W12420  36.689  37.816  11.121
44027W        W12421  25.596  28.550   3.211
44028W        W12422  15.632  13.388   2.789
44029W        W12423  25.249  41.016  13.310
44030W        W12424   6.721   5.151  11.630
44031W        W12425  32.855   7.960   1.313
44032W        W12426  41.788   4.332   1.879
44033W        W12427  31.080  25.534   2.632
44034W        W12428  38.979   6.993   3.654
44035W        W12429  25.727  33.431  13.853
44036W        W12430   2.911  20.877   3.130
44037W        W12431  31.894  13.240   1.699
44038W        W12432  11.304  20.725   4.859
44039W        W12433   0.117  19.800   2.284
44040W        W12434  12.299   8.308  13.024
44041W        W12435  28.912  37.450   2.214
44042W        W12436  15.739  16.302  12.878
44043W        W12437   4.374   7.010  12.677
44044W        W12438  24.996  27.913  13.376
44045W        W12439  27.905   9.097  11.577
44046W        W12440  41.823  40.541  12.441
44047W        W12441   7.873   8.643   0.316
44048W        W12442   2.000  10.476   3.094
44049W        W12443  38.445  38.784  14.379
44050W        W12444  24.086  28.427  14.544
44051W        W12445  28.299  37.345  11.612
44052W        W12446  31.520  14.223   4.513
44053W        W12447  18.519  37.911  12.466
44054W        W12448   0.590  29.557  10.801
44055W        W12449  37.676  35.349   3.318
44056W        W12450   4.833   6.802   1.384
44057W        W12451  32.526  21.229   0.738
44058W        W12452  21.778   6.781  10.493
44059W        W12453  19.051  37.869  10.698
44060W        W12454   2.552  14.556   0.451
44061W        W12455  25.153  41.567   1.236
44062W        W12456  17.889   0.004  11.117
44063W        W12457  16.146  42.886   2.386
44064W        W12458   3.875  40.037  12.079
44065W        W12459  14.077  24.646  14.337
44066W        W12460  25.141  34.904  13.156
44067W        W12461  40.453  22.222  12.003
44068W        W12462  32.524  37.348  13.773
44069W        W12463  44.735   1.402  11.999
44070W        W12464  22.003  43.780   1.769
44071W        W12465  38.884   3.346   3.838
44072W        W12466  37.463  30.622   1.906
44073W        W12467  36.051  37.627  13.477
44074W        W12468  11.614  43.865  14.959
44075W        W12469  11.747  36.084   3.230
44076W        W12470  10.089  16.294  14.136
44077W        W12471  11.135  17.758  14.406
44078W        W12472  40.722   6.202  11.258
44079W        W12473  20.922  34.749   1.952
44080W        W12474  14.116  41.963  14.361
44081W        W12475  43.692  25.670  14.779
44082W        W12476  20.640   2.223   4.466
44083W        W12477  12.694   1.337   4.629
44084W        W12478   5.677  18.042   4.241
44085W        W12479  35.583   6.365  14.026
44086W        W12480  21.769  23.053  13.121
44087W        W12481  21.535  32.734  11.515
44088W        W12482  39.776  18.545   3.278
44089W        W12483  28.138  13.303   2.127
44090W        W12484  35.346  13.778  12.579
44091W        W12485  13.250   1.971   4.025
44092W        W12486  32.958  24.146  13.903
44093W        W12487  39.532  42.782  14.298
44094W        W12488   1.089  22.565  11.175
44095W        W12489   6.498  27.905   2.830
44096W        W12490  21.712  29.151  13.832
44097W        W12491  34.713  25.587   0.142
44098W        W12492  23.904  29.670   2.508
44099W        W12493   2.127  14.864   4.848
44100W        W12494   8.064  42.819  14.371
44101W        W12495  42.750  36.240   4.963
44102W        W12496   6.214   4.034   1.634
44103W        W12497   4.258  34.337  11.833
44104W        W12498  30.659  13.792  12.055
44105W        W12499  43.992  43.971  14.234
44106W        W12500  32.210  22.021   4.226
44107W        W12501  17.180   2.938  13.644
44108W        W12502  27.981   9.095  13.815
44109W        W12503  27.320  42.358   2.627
44110W        W12504  17.753   6.392  12.906
44111W        W12505  18.991  29.010  12.580
44112W        W12506   0.552   8.194  11.988
44113W        W12507  24.440  10.329  13.957
44114W        W12508   4.986  13.124  12.511
44115W        W12509  21.265   2.865  14.270
44116W        W12510  29.678  37.273   0.019
44117W        W12511  13.260  29.020   3.607
44118W        W12512  23.736  23.007  13.816
44119W        W12513  24.694  12.751  11.130
44120W        W12514  39.864  23.208  13.360
44121W        W12515  43.317  29.520   4.097
44122W        W12516  12.758  11.567   3.664
44123W        W12517  31.729  41.799  13.845
44124W        W12518  18.842  39.681   5.093
44125W        W12519  14.540  38.566   4.237
44126W        W12520  36.585  30.321  13.502
44127W        W12521   6.408  27.229  10.244
44128W        W12522  35.354  21.766  12.569
44129W        W12523  39.770  18.415  13.402
44130W        W12524  23.004  16.230  10.623
44131W        W12525  42.042  10.337   1.363
44132W        W12526  42.718  38.593   3.743
44133W        W12527  24.067  14.163  12.532
44134W        W12528  35.657   1.798   0.302
44135W        W12529  22.146  28.177   1.745
44136W        W12530   4.762  38.461   4.829
44137W        W12531   2.392  31.505  10.800
44138W        W12532   2.540   3.361  10.139
44139W        W12533  38.421  43.937   4.068
44140W        W12534  22.113  42.506   2.162
44141W        W12535  15.665  14.177  12.489
44142W        W12536  41.018  14.714   0.981
44143W        W12537  25.469  37.407   2.640
44144W        W12538  24.655   5.835  10.643
44145W        W12539  18.126  18.568  12.903
44146W        W12540   0.981   0.565   1.703
44147W        W12541  34.387  21.189  10.929
44148W        W12542  19.202  30.932  12.089
44149W        W12543  19.034  21.692   3.514
44150W        W12544   8.861  16.818   3.015
44151W        W12545  30.580  25.794   4.622
44152W        W12546  17.747  11.019   2.244
44153W        W12547  29.544  23.452   4.205
44154W        W12548  27.438   5.132   1.271
44155W        W12549  37.128   7.185   1.257
44156W        W12550  35.894  36.284   3.836
44157W        W12551  37.897   1.988   4.234
44158W        W12552   8.828  34.238  13.906
44159W        W12553  18.152  38.031   1.675
44160W        W12554  10.421  28.119  12.510
44161W        W12555  32.981  22.506  12.903
44162W        W12556  22.996  29.943  14.484
44163W        W12557  44.355   9.149   2.725
44164W        W12558  17.337  33.480   1.582
44165W        W12559  12.594  30.175  14.827
44166W        W12560  43.923  14.664   3.422
44167W        W12561  24.923  15.360   2.263
44168W        W12562   9.497  44.890  14.972
44169W        W12563  44.428  35.047   2.801
44170W        W12564  15.849  37.926   2.261
44171W        W12565  27.090  13.662  11.074
44172W        W12566   3.830  39.963   2.029
44173W        W12567  15.565   2.536   1.485
44174W        W12568   3.054  23.882   2.391
44175W        W12569   7.309  12.472  12.379
44176W        W12570  40.421  36.818  10.168
44177W        W12571   5.767  36.399  10.896
44178W        W12572  29.585  15.849  14.285
44179W        W12573  41.909  31.466  14.007
44180W        W12574  21.092  24.390   3.053
44181W        W12575   8.194  33.458  12.429
44182W        W12576  22.003   6.342   2.168
44183W        W12577  41.756  11.130  13.901
44184W        W12578  37.785  30.589   4.487
44185W        W12579  29.878  25.633   4.281
44186W        W12580  20.256   9.015   0.449
44187W        W12581  17.627  40.162  10.270
44188W        W12582  26.328  27.855   4.953
44189W        W12583   1.697   1.852  12.299
44190W        W12584  17.346  14.275   2.159
44191W        W12585  25.972   0.089  14.160
44192W        W12586  39.376  33.141   1.365
44193W        W12587  25.745  39.320  11.595
44194W        W12588   4.479  28.204   2.179
44195W        W12589  31.046  34.410   3.570
44196W        W12590  10.786  33.678  11.533
44197W        W12591  41.065  38.925  14.930
44198W        W12592  17.059  44.414  13.488
44199W        W12593  26.692  42.900   0.320
44200W        W12594  26.538  20.694  11.192
44201W        W12595  33.004  21.477  14.034
44202W        W12596  23.758  40.555   0.427
44203W        W12597   8.499  15.263  13.569
44204W        W12598  36.988  12.797  14.361
44205W        W12599   3.198  30.631  14.835
44206W        W12600  42.017   6.642   3.925
44207W        W12601  33.436  24.062   3.747
44208W        W12602   9.164  36.106  11.572
44209W        W12603  30.465   2.748   4.702
44210W        W12604  27.619  18.082   0.327
44211W        W12605   8.630   5.224   1.774
44212W        W12606  23.035  15.595   1.792
44213W        W12607  15.249  22.344   0.721
44214W        W12608  30.592  16.394  12.103
44215W        W12609  30.015   2.874   1.301
44216W        W12610  29.017  17.160   0.840
44217W        W12611  13.582  41.439  11.384
44218W        W12612  39.522  29.870  13.472
44219W        W12613  39.597   4.760   1.307
44220W        W12614  38.510  41.711  10.797
44221W        W12615  20.814  18.603   0.643
44222W        W12616  27.133  40.280   1.276
44223W        W12617  16.545  41.265   5.113
44224W        W12618  20.961   4.705   2.260
44225W        W12619  21.631   5.248   4.176
44226W        W12620  20.277   0.979   0.901
44227W        W12621  38.902   4.845   4.165
44228W        W12622   6.821  34.157  11.664
44229W        W12623  31.582  23.756   2.255
44230W        W12624  42.380   3.958   3.176
44231W        W12625   6.440  44.163   3.356
44232W        W12626   0.163  32.143   3.248
44233W        W12627  35.048  13.776  14.473
44234W        W12628  42.079  21.680  14.422
44235W        W12629  19.015  33.845   3.655
44236W        W12630   8.916  27.398  11.815
44237W        W12631  34.611   1.476  12.462
44238W        W12632  30.408  32.401  13.897
44239W        W12633  13.882   3.545  12.953
44240W        W12634  25.239  18.652   1.917
44241W        W12635  27.046  11.447   3.278
44242W        W12636   8.765  40.547   4.110
44243W        W12637  31.655  14.906   3.106
44244W        W12638  43.957  18.272   4.543
44245W        W12639  15.357  18.594  13.837
44246W        W12640  32.446  24.770  10.758
44247W        W12641  39.307  35.990   2.667
44248W        W12642  35.357  29.796  14.410
44249W        W12643  28.670  27.474  14.946
44250W        W12644  40.188  26.623   3.081
44251W        W12645  24.599  19.593   2.317
44252W        W12646  15.076  11.555   2.255
44253W        W12647  16.731  39.406  12.384
44254W        W12648  36.661  27.585  14.103
44255W        W12649  10.161  22.122   0.434
44256W        W12650  43.869  38.393   0.702
44257W        W12651  24.205  40.460  11.625
44258W        W12652  34.446   4.976   3.259
44259W        W12653  38.327  38.332   3.153
44260W        W12654  12.125   8.252  10.899
44261W        W12655  32.175  33.437   2.809
44262W        W12656  17.398  20.969   4.072
44263W        W12657   1.180  41.869   4.074
44264W        W12658  40.697  28.521  11.563
44265W        W12659  21.098  16.333  13.376
44266W        W12660  44.335  17.209   3.121
44267W        W12661  23.801   6.000   3.813
44268W        W12662  42.316  23.795  14.467
44269W        W12663  29.359  25.991   0.758
44270W        W12664  37.930  14.819   4.159
44271W        W12665   5.480  15.533   4.693
44272W        W12666   9.369  42.622  14.528
44273W        W12667  43.735  38.824  13.252
44274W        W12668   8.787  41.894  11.456
44275W        W12669  22.451  38.312  13.575
44276W        W12670  29.532   8.875  11.165
44277W        W12671  10.540  24.577  11.226
44278W        W12672  19.399  44.840  12.883
44279W        W12673  16.639  11.302   0.038
44280W        W12674   8.187   1.530   2.714
44281W        W12675   0.457   0.765  14.082
44282W        W12676  12.226  20.718  13.704
44283W        W12677   8.721  12.216  12.408
44284W        W12678   6.267   3.186  13.594
44285W        W12679  43.118   6.834  14.353
44286W        W12680  19.652  12.587  11.149
44287W        W12681   4.690   9.143  13.000
44288W        W12682  34.395  17.732   0.810
44289W        W12683  43.294  16.905   1.316
44290W        W12684   8.767  40.272  12.188
44291W        W12685  16.355  38.025  13.371
44292W        W12686   9.082  27.916   3.442
44293W        W12687   9.605  11.270   1.312
44294W        W12688  29.227  43.011   0.357
44295W        W12689  19.737  30.225  12.027
44296W        W12690  40.408  36.186   0.503
44297W        W12691  39.906  41.340  10.584
44298W        W12692  24.353  41.533  13.362
44299W        W12693  17.085  23.608   3.889
44300W        W12694   4.487   0.926   4.692
44301W        W12695   1.773  44.253  11.177
44302W        W12696  30.531  43.476   2.244
44303W        W12697  30.732  39.329  10.683
44304W        W12698  32.939  26.650  13.284
44305W        W12699   4.537  29.668   4.655
44306W        W12700   7.678  10.590   1.139
44307W        W12701  31.378  20.069  11.549
44308W        W12702  26.726  36.513   3.728
44309W        W12703  36.193  41.983  13.541
44310W        W12704  32.872  24.900   3.988
44311W        W12705  29.078  43.766  10.968
44312W        W12706  14.131   3.764   2.431
44313W        W12707  20.462   5.837  14.885
44314W        W12708  15.640  36.836   0.799
44315W        W12709  30.374  35.680   0.172
44316W        W12710  11.866  14.208   3.545
44317W        W12711  33.100  28.451   1.689
44318W        W12712  19.145  23.476   0.418
44319W        W12713  14.030   5.721   1.795
44320W        W12714   0.528  33.115   1.775
44321W        W12715   4.209  29.210  10.881
44322W        W12716  40.615  16.983  10.257
44323W        W12717   0.318  10.117  12.005
44324W        W12718   0.803   8.144   0.659
44325W        W12719  16.260  36.927   0.196
44326W        W12720  41.854  43.247  12.938
44327W        W12721   1.862  17.361   3.797
44328W        W12722  27.130   0.473   4.527
44329W        W12723  40.824  41.970  13.617
44330W        W12724  13.132  34.952   2.440
44331W        W12725   7.501  21.656  14.535
44332W        W12726  20.726  32.968   1.765
44333W        W12727  22.625  33.068   1.739
44334W        W12728  12.204   1.881  10.875
44335W        W12729   7.623   6.201   4.205
44336W        W12730  23.268  29.015  11.375
44337W        W12731  15.182  15.036   2.960
44338W        W12732  28.238  30.893   0.700
44339W        W12733   3.611  11.041   4.299
44340W        W12734  39.070   0.555  13.115
44341W        W12735  35.388  20.180  12.461
44342W        W12736  21.656   3.345   1.017
44343W        W12737  13.805  36.936   2.582
44344W        W12738  23.175   7.287   1.510
44345W        W12739   1.926  12.119  13.055
44346W        W12740  25.618  37.543   0.139
44347W        W12741   8.086  20.533  11.693
44348W        W12742  24.666  33.730   0.402
44349W        W12743  12.284  13.752   2.069
44350W        W12744   0.352  43.391   4.938
44351W        W12745  42.805  34.759   2.265
44352W        W12746  14.972   8.628  10.222
44353W        W12747   5.680  31.614  10.711
44354W        W12748   5.235  10.385   4.511
44355W        W12749  19.571  41.953  12.723
44356W        W12750  16.339  26.503  10.586
44357W        W12751  43.021  38.957   3.546
44358W        W12752   5.303  34.573   2.738
44359W        W12753  23.515  32.004  14.355
44360W        W12754  17.962  41.496  14.885
44361W        W12755  20.173  19.623   4.690
44362W        W12756  22.860  17.350  13.409
44363W        W12757   2.824   1.981   3.622
44364W        W12758  34.613  44.455  13.853
44365W        W12759  12.196  28.548  10.862
44366W        W12760  16.395   1.395   1.002
44367W        W12761   7.980  24.441  11.747
44368W        W12762  32.516  12.077   3.417
44369W        W12763  29.449  17.243   0.504
44370W        W12764  36.039  24.140  12.346
44371W        W12765  19.217  37.379   0.043
44372W        W12766   8.497  17.393  11.490
44373W        W12767  33.834  35.356   3.664
44374W        W12768  17.008   1.572   3.284
44375W        W12769  40.528  44.562   4.973
44376W        W12770   3.206  37.394  12.821
44377W        W12771  17.716  10.780   2.713
44378W        W12772  29.475  44.840   2.406
44379W        W12773   3.219  38.899  12.548
44380W        W12774  15.363   7.952   0.153
44381W        W12775   7.245   1.952   2.106
44382W        W12776   9.449  28.673   1.013
44383W        W12777  11.664  25.206  11.658
44384W        W12778  28.402   5.983   4.068
44385W        W12779  38.565  35.353  13.770
44386W        W12780  44.213   7.556  14.840
44387W        W12781  36.618   4.732  10.165
44388W        W12782   5.274  41.309  10.516
44389W        W12783  15.276  18.254  14.240
44390W        W12784  27.593  13.149  11.175
44391W        W12785  27.220   4.286   2.730
44392W        W12786  22.473   6.384   0.799
44393W        W12787  38.951  21.567  11.376
44394W        W12788  21.907  10.595   0.852
44395W        W12789  10.159   4.445  14.057
44396W        W12790   5.142   4.754   0.455
44397W        W12791  27.342   6.753  11.438
44398W        W12792  19.124  26.618  12.404
44399W        W12793  13.056  31.672   4.257
44400W        W12794  27.718  21.722  14.839
44401W        W12795  40.414  25.062   3.182
44402W        W12796  25.071  28.001  13.863
44403W        W12797  21.904   4.447   3.081
44404W        W12798   6.537   9.850   2.168
44405W        W12799  14.545  16.778   1.944
44406W        W12800  42.846  27.957  11.579
44407W        W12801  34.125  28.380  10.717
44408W        W12802  21.002   1.743   0.900
44409W        W12803  28.162   6.274   0.470
44410W        W12804  31.049  29.525   3.558
44411W        W12805  18.112  32.972   1.571
44412W        W12806  17.976  12.663  12.097
44413W        W12807  38.293   7.567   2.823
44414W        W12808  16.024  38.371  12.799
44415W        W12809   0.302   5.691  12.423
44416W        W12810  44.197  19.692   3.836
44417W        W12811  32.856  14.673  10.888
44418W        W12812  12.893   0.842  14.311
44419W        W12813   3.507  16.193  11.929
44420W        W12814   2.367  42.465  14.026
44421W        W12815  20.784  20.039  11.964
44422W        W12816   5.401  21.490  11.680
44423W        W12817  20.001  33.458  13.558
44424W        W12818  12.909  20.507   1.649
44425W        W12819  18.873  41.060   4.924
44426W        W12820  34.217  14.749   0.300
44427W        W12821  33.338  42.566  10.782
44428W        W12822  36.750  20.610   4.886
44429W        W12823   7.372  17.600   1.887
44430W        W12824  44.374   6.258   0.899
44431W        W12825  26.670  28.033   2.419
44432W        W12826  28.683  42.442  14.546
44433W        W12827  18.819  30.655  13.037
44434W        W12828  36.419  10.175   0.702
44435W        W12829  32.014  41.507  11.183
44436W        W12830  14.887  11.395   1.062
44437W        W12831   3.542  27.565  14.435
44438W        W12832  19.454  33.321   1.708
44439W        W12833  16.577  36.360   4.916
44440W        W12834   5.441  22.034   2.759
44441W        W12835  28.118  12.757  12.940
44442W        W12836  18.063  39.055  14.396
44443W        W12837   2.768  16.767   4.091
44444W        W12838  14.090  41.546   2.837
44445W        W12839   5.803  11.627  13.150
44446W        W12840  32.164  34.354  14.367
44447W        W12841  37.685   0.903   2.524
44448W        W12842   5.737   7.175   2.942
44449W        W12843  12.984  33.404   5.091
44450W        W12844  12.810  29.203  11.110
44451W        W12845  12.355   4.783  10.922
44452W        W12846  12.564  29.175   2.834
44453W        W12847  22.182  17.076   0.801
44454W        W12848  30.185  37.793   1.341
44455W        W12849  28.527  36.653   2.190
44456W        W12850  14.522  10.169  10.029
44457W        W12851  23.603  24.023   2.688
44458W        W12852  20.613  20.065  12.823
44459W        W12853  26.488  25.214  12.960
44460W        W12854  26.564  14.231   1.083
44461W        W12855  36.842   9.338   1.907
44462W        W12856  43.273  44.799  11.653
44463W        W12857  38.062  10.620   3.767
44464W        W12858  44.375  13.660  11.031
44465W        W12859  16.837  20.140   3.251
44466W        W12860  28.475   4.773  14.447
44467W        W12861  36.134   5.597  11.273
44468W        W12862   1.718  34.968  13.786
44469W        W12863  21.375   8.788   4.899
44470W        W12864   3.246  11.624   2.664
44471W        W12865  27.571  17.535   2.827
44472W        W12866   2.971  16.406   3.758
44473W        W12867   0.727  10.649  11.063
44474W        W12868  23.818  17.602   2.815
44475W        W12869  33.848  41.310   3.225
44476W        W12870  32.054  17.944  13.254
44477W        W12871  42.833  30.011   1.050
44478W        W12872   5.179  18.003   4.117
44479W        W12873  12.625  37.061  12.434
44480W        W12874   1.969  35.651   3.737
44481W        W12875  35.783  29.192  13.675
44482W        W12876   3.452   6.683  14.815
44483W        W12877  10.213  13.756  14.767
44484W        W12878  37.319  35.094  14.974
44485W        W12879   8.117  43.060  14.827
44486W        W12880  15.256  21.979  11.070
44487W        W12881  42.990  20.572   0.772
44488W        W12882   7.147  32.102   4.627
44489W        W12883   0.900  18.349   1.800
44490W        W12884  17.697  23.781   2.666
44491W        W12885   7.232   6.257   3.182
44492W        W12886  14.780  12.189  10.719
44493W        W12887  37.813  11.688  13.889
44494W        W12888   7.658   1.680  14.710
44495W        W12889  10.292  26.158   4.948
44496W        W12890   4.673   5.027   0.377
44497W        W12891   6.306  44.397  14.488
44498W        W12892  10.300  12.293   0.001
44499W        W12893   9.382  16.767  13.001
44500W        W12894  13.088  12.500   3.676
44501W        W12895  36.270   9.146   0.373
44502W        W12896  17.617  20.689  12.325
44503W        W12897  10.299  42.356  11.342
44504W        W12898  43.438  42.257   4.051
44505W        W12899  33.044  40.859  13.401
44506W        W12900   9.531  41.097   4.077
44507W        W12901  23.130  24.768   3.185
44508W        W12902  13.334  26.108   4.290
44509W        W12903  15.682  37.011   2.543
44510W        W12904  32.910  43.906  11.197
44511W        W12905   6.922  43.548  11.089
44512W        W12906  20.286  28.368   4.635
44513W        W12907  24.168  18.680  10.859
44514W        W12908  27.666  38.953   3.765
44515W        W12909  34.871   6.244   3.712
44516W        W12910  35.061   2.199  14.509
44517W        W12911  10.439  42.804   1.325
44518W        W12912  44.987  39.546   5.836
44519W        W12913   4.037  25.561  13.518
44520W        W12914   7.596  13.015   1.816
44521W        W12915  21.057  29.701   5.093
44522W        W12916  20.966  24.176   5.056
44523W        W12917  35.887  38.365   1.850
44524W        W12918  20.726   1.514  12.235
44525W        W12919   5.299  20.525   3.746
44526W        W12920  38.153  40.016   3.681
44527W        W12921   1.231  31.658   1.700
44528W        W12922  40.334   1.266  13.895
44529W        W12923  35.159  35.933  12.972
44530W        W12924  21.878  38.484   4.120
44531W        W12925   1.604   1.933   0.044
44532W        W12926  21.733  25.900  13.418
44533W        W12927  30.701  39.022   0.892
44534W        W12928  25.743  42.391   1.944
44535W        W12929  39.750  37.011   4.593
44536W        W12930   4.154  18.980   3.047
44537W        W12931  26.665  20.863  11.981
44538W        W12932  23.583  27.054  10.550
44539W        W12933  39.972  32.008  10.612
44540W        W12934  26.680  25.527   3.662
44541W        W12935  23.671  18.343  10.615
44542W        W12936  13.082  15.094   2.315
44543W        W12937  25.265  35.900   2.827
44544W        W12938  22.839   6.401  14.787
44545W        W12939  24.270  33.854  11.994
44546W        W12940   2.412   6.296   4.031
44547W        W12941  11.270  38.127   1.412
44548W        W12942   2.029  40.483  14.437
44549W        W12943  20.060  10.688   1.005
44550W        W12944  34.992  26.563   3.068
44551W        W12945  12.570  35.843  14.596
44552W        W12946  41.490   5.692  14.803
44553W        W12947  38.784  14.317  14.427
44554W        W12948  39.998  11.075   4.225
44555W        W12949  14.158   1.907  11.916
44556W        W12950  24.181   8.220   1.777
44557W        W12951  10.614  36.176   2.354
44558W        W12952  35.021  16.680   3.316
44559W        W12953   2.331   6.248  11.637
44560W        W12954  13.281  29.013   0.699
44561W        W12955   3.965  19.605  13.478
44562W        W12956  18.810  43.804   4.344
44563W        W12957  32.468  43.808  12.388
44564W        W12958  16.656  19.789  13.830
44565W        W12959  18.309   0.851  14.035
44566W        W12960  31.619   0.210   1.815
44567W        W12961  14.959  16.972   2.583
44568W        W12962   9.745   5.753  13.988
44569W        W12963  27.162  26.078   2.739
44570W        W12964   1.822  30.089  10.919
44571W        W12965  30.945  43.893  14.468
44572W        W12966  44.751  34.538   4.645
44573W        W12967  25.610  41.607  12.984
44574W        W12968  17.285   7.362   2.213
44575W        W12969  20.455   6.388  12.497
44576W        W12970   7.767  39.515   1.204
44577W        W12971  11.400   1.962  10.814
44578W        W12972   2.292  43.340   3.768
44579W        W12973  14.164  18.895  11.512
44580W        W12974   5.153  15.121  11.239
44581W        W12975   1.671  28.168  11.990
44582W        W12976  21.205  12.335   2.372
44583W        W12977  13.692   8.887   1.806
44584W        W12978  26.134  19.006  11.506
44585W        W12979  40.042   2.585   3.393
44586W        W12980  38.847   0.152   3.641
44587W        W12981  22.558   4.124  13.279
44588W        W12982  32.517   5.456   4.266
44589W        W12983  42.686   4.792   1.636
44590W        W12984  27.083  22.146  13.877
44591W        W12985  30.250   6.599   0.832
44592W        W12986  35.423  36.888   0.470
44593W        W12987  37.761   4.121   3.261
44594W        W12988  28.652  39.384  13.850
44595W        W12989  39.973  30.154   2.387
44596W        W12990   1.454  13.145   2.368
44597W        W12991  36.544  21.549   0.321
44598W        W12992   0.403  41.283   3.839
44599W        W12993  23.939  31.014  11.151
44600W        W12994   4.409   6.180  12.080
44601W        W12995  42.491   4.162  14.423
44602W        W12996  29.681  19.752  13.963
44603W        W12997   5.718  30.947  11.222
44604W        W12998  12.723   0.760   1.143
44605W        W12999  13.079  11.865  14.892
44606W        W13000  30.446  20.606  12.006
44607W        W13001  21.443  43.586   3.049
44608W        W13002  17.994  35.784  14.225
44609W        W13003  38.492  43.389  11.155
44610W        W13004  37.449  34.205   4.579
44611W        W13005  43.542  15.666   4.460
44612W        W13006  22.015  31.491   3.579
44613W        W13007  23.657  43.286  14.915
44614W        W13008  16.548  29.890   0.926
44615W        W13009   3.006  35.703   1.231
44616W        W13010  31.775   0.443  11.129
44617W        W13011  32.501  21.969   2.922
44618W        W13012  44.839  16.314  12.391
44619W        W13013  36.550   2.364   0.821
44620W        W13014  22.685  24.495  13.423
44621W        W13015  21.266  22.092  14.992
44622W        W13016  16.241   9.261  11.317
44623W        W13017  36.499  43.368   3.704
44624W        W13018   1.474   1.275  10.727
44625W        W13019  13.758   0.451  13.011
44626W        W13020  16.883  44.993  11.252
44627W        W13021   6.143  33.986   0.886
44628W        W13022   5.448  44.183  11.153
44629W        W13023  34.768  38.864  13.018
44630W        W13024  32.390   2.348   0.405
44631W        W13025  24.139  43.163   1.144
44632W        W13026  18.711   8.098  10.559
44633W        W13027  21.739  31.816  13.959
44634W        W13028  32.361  32.934   3.702
44635W        W13029  39.984   3.786   1.657
44636W        W13030  32.081  34.894  12.821
44637W        W13031  35.573  23.723  13.054
44638W        W13032  17.522   9.150  12.095
44639W        W13033  35.281  18.639  14.028
44640W        W13034  19.124  19.786   4.164
44641W        W13035  18.186  37.358  14.502
44642W        W13036  41.386   7.695   4.251
44643W        W13037  18.204  19.409  11.983
44644W        W13038  32.952  42.758  14.532
44645W        W13039  40.812  33.793  14.799
44646W        W13040  31.710   5.735   2.414
44647W        W13041   2.970  41.977  12.939
44648W        W13042  19.266   9.225  10.430
44649W        W13043  43.983  28.740   3.205
44650W        W13044  33.247   0.432   1.029
44651W        W13045  38.123   6.235   0.829
44652W        W13046  22.018  27.512   0.337
44653W        W13047   8.847  44.776  10.472
44654W        W13048  28.367  43.171   1.430
44655W        W13049  14.165   9.889  14.238
44656W        W13050   5.320  27.607   1.016
44657W        W13051   6.854  10.733  10.833
44658W        W13052  18.771  23.384  12.523
44659W        W13053   1.077  36.822  10.736
44660W        W13054  33.400  10.115   0.329
44661W        W13055   3.129  29.473   4.592
44662W        W13056  24.080  14.803   0.423
44663W        W13057  15.527  26.516   4.541
44664W        W13058  23.134  15.961  11.993
44665W        W13059  34.890  37.379  12.919
44666W        W13060  27.550  35.852   2.657
44667W        W13061  23.562   7.550   4.900
44668W        W13062   8.695   4.459   1.380
44669W        W13063  31.965   6.116  14.427
44670W        W13064  28.860   3.986   0.417
44671W        W13065  36.965  20.779   3.269
44672W        W13066  21.077  37.284   3.076
44673W        W13067  20.407  13.624  11.602
44674W        W13068  42.028   3.133  13.035
44675W        W13069  34.379  23.784  11.481
44676W        W13070   2.809  31.391  13.322
44677W        W13071  18.222  13.300  14.738
44678W        W13072  44.243  28.154  11.292
44679W        W13073  20.311   3.794   0.851
44680W        W13074  28.091  14.783   2.336
44681W        W13075   4.740  42.424   1.794
44682W        W13076  26.452   3.279   4.225
44683W        W13077  21.465  11.918   2.641
44684W        W13078   6.804   5.256  14.251
44685W        W13079  41.514  21.705   2.708
44686W        W13080   6.431  37.470  13.350
44687W        W13081  42.269  14.740   2.689
44688W        W13082  37.083  10.670  11.194
44689W        W13083  10.317  31.962   2.826
44690W        W13084  30.098  42.257   2.093
44691W        W13085  30.931   7.296  10.738
44692W        W13086   7.890  10.383  14.352
44693W        W13087  21.025  31.993   2.599
44694W        W13088  32.567  11.097   3.852
44695W        W13089  41.967   6.675  12.599
44696W        W13090  15.217  19.940   2.920
44697W        W13091  21.612  38.054   2.601
44698W        W13092   3.688  14.740   3.847
44699W        W13093   6.332  26.995  14.350
44700W        W13094  19.003   0.204  13.969
44701W        W13095  18.568  26.317  10.703
44702W        W13096  35.962  41.281  10.737
44703W        W13097   8.828  43.987   2.821
44704W        W13098  36.475  14.084   0.705
44705W        W13099  31.844  40.719  13.028
44706W        W13100  26.244  10.462   0.740
44707W        W13101  17.236  42.338   4.127
44708W        W13102   7.144  20.625  11.382
44709W        W13103  17.749  19.516   1.843
44710W        W13104  33.131  39.514   4.788
44711W        W13105   9.167  12.678   2.059
44712W        W13106  10.189  33.708  13.690
44713W        W13107  35.853  43.827   4.622
44714W        W13108  22.178  11.950   2.265
44715W        W13109   2.876  33.722   1.337
44716W        W13110   8.758  44.770  11.888
44717W        W13111  32.614  33.158  14.718
44718W        W13112  23.603  37.888   3.921
44719W        W13113   7.416  14.242   0.839
44720W        W13114  25.227   6.617  13.900
44721W        W13115  26.014  38.051  14.885
44722W        W13116  43.900  34.635   3.605
44723W        W13117   9.254  10.825   0.423
44724W        W13118  31.871   1.905  14.902
44725W        W13119  42.365   1.484   3.007
44726W        W13120  43.371   0.571  12.935
44727W        W13121  33.676  24.628  12.017
44728W        W13122  13.699  18.259  11.110
44729W        W13123  17.523  21.246  11.098
44730W        W13124  31.892  38.815   3.549
44731W        W13125  33.404  26.775  12.501
44732W        W13126   9.270  16.906   0.754
44733W        W13127  27.091  16.826  11.618
44734W        W13128  23.647   0.219  11.013
44735W        W13129  43.255  21.794   4.732
44736W        W13130  39.352  13.719   4.758
44737W        W13131   7.893   7.675   2.533
44738W        W13132  20.812  41.951  13.389
44739W        W13133   7.409  36.940   0.105
44740W        W13134  26.950  25.128   4.159
44741W        W13135  43.613   9.612   0.795
44742W        W13136  13.835   3.035  12.972
44743W        W13137  21.707  38.068  12.007
44744W        W13138  36.802  34.578  14.406
44745W        W13139   9.295  40.822  10.736
44746W        W13140   0.791  12.767   2.886
44747W        W13141   6.675  36.339   0.640
44748W        W13142  16.157   7.327  11.279
44749W        W13143  14.502  14.746  14.523
44750W        W13144  15.272  23.076   4.924
44751W        W13145  13.395  23.300   4.156
44752W        W13146  39.206  36.007  14.133
44753W        W13147  11.159  39.987  14.930
44754W        W13148   7.474  26.665   4.996
44755W        W13149  11.988  29.599   2.122
44756W        W13150  40.922  21.036  12.893
44757W        W13151  28.079  29.135  11.454
44758W        W13152  26.659  27.525  12.980
44759W        W13153  17.841  29.007  11.877
44760W        W13154  43.778  15.476   2.380
44761W        W13155   5.323   6.737   4.927
44762W        W13156  12.841  39.263  10.951
44763W        W13157   9.777  36.446  12.044
44764W        W13158  32.537  38.837   2.811
44765W        W13159   3.752  22.667  12.767
44766W        W13160  17.359  15.758  14.572
44767W        W13161  12.742  23.702  14.909
44768W        W13162   5.766  41.455   2.966
44769W        W13163   2.354  25.041  13.395
44770W        W13164  26.391  11.333  14.850
44771W        W13165  43.362   0.343  13.403
44772W        W13166   9.337  27.414   1.384
44773W        W13167  40.945  15.119   1.279
44774W        W13168  37.725   0.346  10.653
44775W        W13169  21.461  43.761  11.099
44776W        W13170  37.581  33.374   3.341
44777W        W13171   7.194  43.853   0.310
44778W        W13172  27.513  27.435  14.759
44779W        W13173  20.345  15.936   3.312
44780W        W13174  32.647  10.236   3.123
44781W        W13175  40.501  30.337  13.832
44782W        W13176  43.281   2.271   4.232
44783W        W13177  17.222  23.516  11.085
44784W        W13178   9.331  41.965  12.521
44785W        W13179  26.521  13.193  11.161
44786W        W13180  42.403  37.504   2.794
44787W        W13181  15.297  20.211  13.399
44788W        W13182   3.424  41.001   1.737
44789W        W13183  40.788  29.169  14.523
44790W        W13184  17.066  15.699  11.449
44791W        W13185  37.492  18.507  14.799
44792W        W13186   0.415   5.944  12.884
44793W        W13187   5.651  33.609  11.607
44794W        W13188  10.468  30.643  11.145
44795W        W13189   4.354   2.532   1.530
44796W        W13190  28.873  26.259   3.455
44797W        W13191  16.282  33.516  13.308
44798W        W13192  12.836  26.045   1.175
44799W        W13193   3.866  16.821  11.841
44800W        W13194  12.883   2.978  11.496
44801W        W13195  24.665  34.440  11.562
44802W        W13196   7.784  23.641   0.758
44803W        W13197   2.150  24.732   1.686
44804W        W13198   3.985  23.255   2.323
44805W        W13199  17.908  40.916   9.904
44806W        W13200  25.629  17.647  14.127
44807W        W13201  34.645  37.504  13.577
44808W        W13202  44.265  19.472  12.587
44809W        W13203  14.543  39.063   2.612
44810W        W13204  11.702  30.405  12.434
44811W        W13205  27.499   6.205   4.848
44812W        W13206   4.784   8.632  13.023
44813W        W13207   6.824  30.955   0.353
44814W        W13208   3.040  34.380   3.661
44815W        W13209  22.430   6.291   1.812
44816W        W13210  30.996   1.759   3.082
44817W        W13211   7.379   5.375  14.073
44818W        W13212   0.451  14.671  14.452
44819W        W13213  43.055  37.285   2.172
44820W        W13214  15.525   6.854  14.907
44821W        W13215   3.919  17.088   2.351
44822W        W13216  32.147  21.190  12.960
44823W        W13217  39.536  40.014   0.300
44824W        W13218  38.488   8.824   1.601
44825W        W13219  11.295  35.510   2.796
44826W        W13220  43.340  30.688   2.796
44827W        W13221  32.133  10.460   1.832
44828W        W13222  12.092  32.638  10.716
44829W        W13223  34.938   4.990  14.478
44830W        W13224  20.241  41.980   0.919
44831W        W13225  29.433  11.839   3.147
44832W        W13226  18.608  12.857  14.764
44833W        W13227   6.810   3.709   2.826
44834W        W13228   3.754  10.159   5.014
44835W        W13229  18.626  14.693   2.763
44836W        W13230   6.436  22.622  11.588
44837W        W13231  18.275  31.184   0.472
44838W        W13232  31.050  42.412   4.683
44839W        W13233  42.333  13.684   3.113
44840W        W13234  11.613  28.434   3.151
44841W        W13235  14.634  33.878  14.094
44842W        W13236  12.614  41.062  12.973
44843W        W13237   1.734  30.822  12.596
44844W        W13238  10.757  10.366   4.151
44845W        W13239  13.201   1.225  14.703
44846W        W13240  27.922   0.119   5.482
44847W        W13241  12.521   5.684   9.745
44848W        W13242  23.045   3.232  14.531
44849W        W13243  20.621  29.224   1.682
44850W        W13244  19.249  44.074   4.258
44851W        W13245  35.574  24.189   3.016
44852W        W13246   8.393  22.994  12.467
44853W        W13247  17.630  37.386   5.616
44854W        W13248  11.679  14.572   1.255
44855W        W13249  39.912  29.531   2.139
44856W        W13250   4.803  40.234   1.142
44857W        W13251  20.544  27.869  11.119
44858W        W13252  34.730  14.662   3.276
44859W        W13253  31.763  19.839  13.432
44860W        W13254  20.747  43.702   3.844
44861W        W13255  11.123   9.897  14.151
44862W        W13256   9.864  36.286  10.454
44863W        W13257  14.178  14.857   1.764
44864W        W13258  22.678  11.890   3.994
44865W        W13259   7.704  21.141  10.651
44866W        W13260  18.847   5.277  13.989
44867W        W13261  11.404  34.916  13.031
44868W        W13262   2.942  34.810  13.956
44869W        W13263  26.458  19.151   4.717
44870W        W13264   9.490   7.218   2.716
44871W        W13265   6.826  41.269  13.554
44872W        W13266  43.740  28.732  13.105
44873W        W13267  17.223  10.908   4.614
44874W        W13268  37.783  31.369   1.554
44875W        W13269  14.682  32.838   0.993
44876W        W13270  41.340  12.440   4.114
44877W        W13271  44.820   6.901  14.259
44878W        W13272  10.586  11.865  10.824
44879W        W13273  41.305   0.472   4.017
44880W        W13274   5.853   0.931   4.511
44881W        W13275  23.511  19.047  14.896
44882W        W13276  23.737  11.244   1.837
44883W        W13277   1.868   5.327  12.142
44884W        W13278  14.680  28.037  10.763
44885W        W13279  42.599  35.378   4.131
44886W        W13280  17.671  12.229   0.414
44887W        W13281  39.891  26.076   1.861
44888W        W13282  27.154  44.348   3.135
44889W        W13283   9.885  24.127  10.171
44890W        W13284  11.972  34.397  12.396
44891W        W13285  41.528  14.156  12.622
44892W        W13286  20.678  28.206   4.992
44893W        W13287  22.251   9.841   1.213
44894W        W13288  28.328  25.517  10.554
44895W        W13289  20.660  18.004  14.952
44896W        W13290  33.200  25.566   0.938
44897W        W13291  14.083  37.536   3.741
44898W        W13292   1.423   7.028   0.893
44899W        W13293  41.582   9.250  10.465
44900W        W13294  10.701  42.849  12.523
44901W        W13295  10.230  31.452   2.871
44902W        W13296  21.837  16.160   0.327
44903W        W13297  20.729   6.988  13.792
44904W        W13298  26.142  27.097   4.703
44905W        W13299  16.833   9.766   1.314
44906W        W13300  43.142  23.285  14.326
44907W        W13301  24.121   4.646  11.982
44908W        W13302   8.998  25.219   4.125
44909W        W13303  27.121  19.084  14.514
44910W        W13304  40.761  29.545  14.901
44911W        W13305  22.489  18.649   0.369
44912W        W13306   4.855  41.729  10.349
44913W        W13307   7.871   7.802  13.436
44914W        W13308  33.534  40.750  13.511
44915W        W13309  16.453   1.166  10.928
44916W        W13310   7.809  26.630  10.270
44917W        W13311   9.695  29.006   2.704
44918W        W13312  35.873  28.407   1.966
44919W        W13313  15.524  11.924  14.295
44920W        W13314  16.309  25.527   4.194
44921W        W13315  33.369   7.796   2.249
44922W        W13316  41.075  35.293  11.450
44923W        W13317   1.552  33.112   1.788
44924W        W13318  39.469  40.646   3.357
44925W        W13319   4.013  25.827   0.506
44926W        W13320   1.445   3.786   0.485
44927W        W13321  41.853   4.353   3.655
44928W        W13322  35.063  41.554   2.178
44929W        W13323  15.994  16.999  14.055
44930W        W13324   4.869  19.273  10.802
44931W        W13325   7.113  20.757   0.875
44932W        W13326  28.216  19.635  10.749
44933W        W13327  17.683  34.363   3.731
44934W        W13328  38.568  10.887  12.420
44935W        W13329  26.636  29.155   2.239
44936W        W13330   8.776  34.133   2.393
44937W        W13331  22.512   5.193   1.897
44938W        W13332  39.529  42.477   4.145
44939W        W13333   6.241   5.594   0.700
44940W        W13334   5.487  32.976  14.368
44941W        W13335   4.822  24.042   3.280
44942W        W13336   2.869  34.555   4.633
44943W        W13337  36.786  11.302  12.387
44944W        W13338  29.865  13.526   4.168
44945W        W13339  24.710  19.738   4.210
44946W        W13340  13.832   6.105  11.691
44947W        W13341  18.698  16.559   1.279
44948W        W13342  38.595  31.060   4.527
44949W        W13343  20.593  37.467  13.522
44950W        W13344   6.206  36.870   3.256
44951W        W13345   3.714   7.298   0.429
44952W        W13346  16.737  10.154   2.563
44953W        W13347  31.081  27.044   0.602
44954W        W13348  30.711   9.844  10.893
44955W        W13349  28.105  28.882  10.576
44956W        W13350  32.664  28.861  14.853
44957W        W13351   2.964  19.038  12.294
44958W        W13352   0.057  20.643   4.107
44959W        W13353   5.203  27.335   9.574
44960W        W13354   1.311  36.383  13.026
44961W        W13355   5.020   8.226   1.378
44962W        W13356   5.291   4.363  14.467
44963W        W13357  29.473  14.509  14.998
44964W        W13358  17.990   2.268  11.778
44965W        W13359   8.334   2.524   2.799
44966W        W13360  12.331  36.912   0.967
44967W        W13361  32.640   7.819  13.662
44968W        W13362   9.322  25.693   1.849
44969W        W13363  41.152  39.827  13.992
44970W        W13364  33.582  36.017   1.655
44971W        W13365   2.656  12.900  14.495
44972W        W13366  38.876   9.115  12.419
44973W        W13367  22.441  23.696   1.724
44974W        W13368  35.670  12.344  13.349
44975W        W13369  28.551  25.113  14.497
44976W        W13370  38.727  34.221   2.615
44977W        W13371  12.563  23.567   2.352
44978W        W13372  39.879  12.212  13.396
44979W        W13373  28.220   9.204   1.874
44980W        W13374  15.124   7.774  14.714
44981W        W13375   9.582   2.858  12.318
44982W        W13376  40.324  28.398  14.786
44983W        W13377  42.506   4.483   2.265
44984W        W13378  13.736  38.553   0.051
44985W        W13379   6.950  34.430  13.791
44986W        W13380   4.899  14.624   0.187
44987W        W13381   5.164   9.928   1.936
44988W        W13382  10.319  20.411  10.927
44989W        W13383   2.055   3.668   3.194
44990W        W13384  21.234  38.509  14.834
44991W        W13385  13.658  33.988   1.263
44992W        W13386  37.585  27.962   0.433
44993W        W13387  33.406  20.244  12.402
44994W        W13388  39.473  24.068   1.448
44995W        W13389  41.152  25.000   0.427
44996W        W13390  36.792  40.101   1.262
44997W        W13391  40.675  24.430  13.408
44998W        W13392   8.853  27.183   3.880
44999W        W13393  33.173  43.831   4.251
45000W        W13394  10.713  18.876   4.437
45001W        W13395  20.804  37.883   0.857
45002W        W13396  28.637   2.215   2.224
45003W        W13397  44.222   4.956   0.273
45004W        W13398  22.745  14.123   0.554
45005W        W13399  12.783  41.543   3.579
45006W        W13400  41.792  24.228   1.292
45007W        W13401  29.812  28.819  14.456
45008W        W13402  35.826  12.371  12.537
45009W        W13403  11.721   2.791   1.300
45010W        W13404  16.714  27.935  11.565
45011W        W13405  39.502   5.396   1.953
45012W        W13406   7.403  29.351   1.318
45013W        W13407  17.793   4.564   1.892
45014W        W13408  12.416  34.277   3.206
45015W        W13409  39.575  31.029  12.433
45016W        W13410  30.597  35.110   2.616
45017W        W13411  24.012  33.502   2.199
45018W        W13412  43.538  14.809   1.928
45019W        W13413  36.310   9.370   3.242
45020W        W13414  36.739  32.058  14.254
45021W        W13415  20.686  11.734   2.162
45022W        W13416  40.498  41.050  13.177
45023W        W13417   9.927  39.435  12.916
45024W        W13418   8.820  12.852  14.854
45025W        W13419  14.014  44.604   4.279
45026W        W13420  40.082  36.002  14.223
45027W        W13421  37.316  30.818  11.562
45028W        W13422  31.906  20.571  11.340
45029W        W13423  32.622  42.817   0.657
45030W        W13424  27.425  38.955  12.047
45031W        W13425  15.395  22.943   1.367
45032W        W13426  10.552   0.912  11.321
45033W        W13427  14.743  35.037   4.155
45034W        W13428  18.724  13.412  14.815
45035W        W13429   5.178  15.017  12.527
45036W        W13430   8.020  27.255   4.190
45037W        W13431  18.061  27.448  11.918
45038W        W13432  34.112  33.511  11.532
45039W        W13433  22.442  21.400  12.598
45040W        W13434  21.819  12.262   2.846
45041W        W13435  43.936  38.809  12.035
45042W        W13436  32.951  21.225  12.325
45043W        W13437   2.722   5.697   3.413
45044W        W13438   1.598   9.652  12.172
45045W        W13439  22.768  14.178  12.623
45046W        W13440   6.173  10.739  13.520
45047W        W13441  17.115  14.637   3.365
45048W        W13442  26.122   6.442   0.828
45049W        W13443   2.259  16.784   3.984
45050W        W13444  13.388  13.824  13.912
45051W        W13445  22.680  44.256   0.823
45052W        W13446  33.532  34.591   1.744
45053W        W13447  28.517   7.249  12.481
45054W        W13448  10.702  34.406   1.634
45055W        W13449  13.586   2.429   2.252
45056W        W13450  24.079   7.496   1.068
45057W        W13451  35.849  39.958  13.049
45058W        W13452   1.466  11.852   3.796
45059W        W13453  11.213  24.185  14.271
45060W        W13454  17.604  33.122   2.796
45061W        W13455  23.232   8.842   2.305
45062W        W13456  44.198   1.691   2.147
45063W        W13457  26.022  16.283   0.225
45064W        W13458   3.768  38.876  14.900
45065W        W13459  21.954  39.557  11.075
45066W        W13460   5.151  39.395   1.329
45067W        W13461   5.395  37.448   4.272
45068W        W13462   8.148  19.177  12.186
45069W        W13463  22.861  27.668  10.447
45070W        W13464   7.760  14.313  13.077
45071W        W13465   6.438  12.193   4.202
45072W        W13466  25.715  31.110  10.874
45073W        W13467   1.228  13.511   4.930
45074W        W13468  39.062  26.048  12.921
45075W        W13469   7.102  14.279   0.450
45076W        W13470   5.250  22.002   4.047
45077W        W13471  23.941  14.086   2.310
45078W        W13472   9.985  11.245   2.557
45079W        W13473  31.146  40.051   2.294
45080W        W13474  14.226  20.738   1.143
45081W        W13475  11.123   3.687   1.362
45082W        W13476  14.057   6.703   3.649
45083W        W13477  20.948  14.076   0.757
45084W        W13478   0.014  19.080   2.008
45085W        W13479  18.122  43.873   1.496
45086W        W13480  20.490  25.633   0.763
45087W        W13481  34.707  38.289  11.119
45088W        W13482   0.957  15.492  11.546
45089W        W13483  32.420  28.075   1.304
45090W        W13484  11.868  34.018   0.228
45091W        W13485  32.645   1.862   0.390
45092W        W13486  29.358   0.734   2.156
45093W        W13487  10.540  34.629  14.538
45094W        W13488  13.213  37.879   1.444
45095W        W13489  31.789   8.694  13.393
45096W        W13490  42.416  33.023  13.119
45097W        W13491  12.795  42.057   3.235
45098W        W13492  12.690  43.433  14.362
45099W        W13493  31.153   3.431   1.407
45100W        W13494  33.434  36.279   3.479
45101W        W13495  20.142  10.206  13.225
45102W        W13496   1.760  42.339   1.876
45103W        W13497  12.363  19.084  11.008
45104W        W13498  40.343  13.707  14.924
45105W        W13499   6.714  36.436   3.344
45106W        W13500  43.809  28.997   0.558
45107W        W13501  43.828  15.124  11.460
45108W        W13502  32.972  30.992  10.738
45109W        W13503  23.316   9.601  10.181
45110W        W13504  37.802  24.706   4.151
45111W        W13505  38.945  12.670   0.334
45112W        W13506  21.280  22.751  11.043
45113W        W13507  17.325  34.210  13.408
45114W        W13508  11.147   7.007   4.551
45115W        W13509  30.029  10.181   3.791
45116W        W13510   8.338  13.168   0.704
45117W        W13511  30.054  16.875   1.935
45118W        W13512  30.931  31.463  14.998
45119W        W13513  35.809  32.105  13.578
45120W        W13514  18.713   0.901   2.326
45121W        W13515  11.678  44.247  13.447
45122W        W13516  41.822   9.877  13.557
45123W        W13517  15.987  40.401   1.449
45124W        W13518  25.696  18.747   3.725
45125W        W13519  41.057  33.640  11.533
45126W        W13520  20.896   2.327  12.029
45127W        W13521  44.432   8.407   0.190
45128W        W13522  13.406  28.469   2.887
45129W        W13523   3.701  10.217  12.232
45130W        W13524  29.640   0.991   2.523
45131W        W13525  14.479  38.977  14.943
45132W        W13526  14.285  28.194   0.239
45133W        W13527  29.564  44.922  10.273
45134W        W13528  37.614  21.079   4.434
45135W        W13529  42.932  38.493  11.112
45136W        W13530   3.729  33.963   2.229
45137W        W13531  28.239  35.579  13.759
45138W        W13532  27.586  13.116  11.993
45139W        W13533  22.125  20.720  10.532
45140W        W13534  29.887  28.064  14.863
45141W        W13535  21.885  23.892   3.274
45142W        W13536  20.030  43.148  14.263
45143W        W13537  41.597  32.126  14.302
45144W        W13538  15.710  31.238   1.884
45145W        W13539   5.309   0.273  10.558
45146W        W13540  34.568  11.330  11.092
45147W        W13541  25.566  39.989   2.579
45148W        W13542  26.206  32.863   3.526
45149W        W13543   7.768  42.963   0.207
45150W        W13544   2.670  25.225  13.844
45151W        W13545   5.133   7.362  14.521
45152W        W13546   9.413  33.947  12.529
45153W        W13547  21.105   0.326   1.454
45154W        W13548  19.776  16.385   2.650
45155W        W13549  19.230  30.178   4.489
45156W        W13550   1.868   7.199   0.342
45157W        W13551  38.794  11.434   2.357
45158W        W13552  38.961  39.274  11.684
45159W        W13553   4.702  17.760  12.953
45160W        W13554  26.450  23.260   1.959
45161W        W13555  27.132  41.527   4.632
45162W        W13556   6.402  20.284  11.093
45163W        W13557  13.601  20.503  14.816
45164W        W13558  29.094  35.464  13.396
45165W        W13559  31.942  44.441   0.008
45166W        W13560  26.854  41.841   5.069
45167W        W13561  33.928   1.233   3.155
45168W        W13562  13.290   5.389   4.565
45169W        W13563  44.799  44.436  12.245
45170W        W13564   3.420  32.630   1.630
45171W        W13565  21.238  12.169   9.901
45172W        W13566   9.767  43.743   1.330
45173W        W13567  39.389   0.272   2.233
45174W        W13568  24.349  44.716   1.263
45175W        W13569   5.779   6.946  12.185
45176W        W13570   2.882  12.654  11.411
45177W        W13571  24.984  23.690  14.710
45178W        W13572  15.103   6.165  10.729
45179W        W13573  36.285  25.058  12.581
45180W        W13574  37.569  25.532   0.069
45181W        W13575  44.315  19.501   2.514
45182W        W13576  18.672  16.636  12.037
45183W        W13577  23.539  29.967   1.681
45184W        W13578  37.885  25.165  12.017
45185W        W13579   3.170  30.776  11.358
45186W        W13580  32.412  40.452   3.583
45187W        W13581  19.619  19.589  12.831
45188W        W13582  21.143  15.702  14.769
45189W        W13583  24.904  43.166   4.813
45190W        W13584  41.669  43.748  11.172
45191W        W13585  35.423   0.266  12.014
45192W        W13586  41.401  37.977   3.651
45193W        W13587  19.536  38.395  13.850
45194W        W13588   2.429  22.985  14.434
45195W        W13589  36.462   0.693  14.667
45196W        W13590  40.510  24.983  10.319
45197W        W13591  35.083  38.577   4.645
45198W        W13592  41.048   8.255   2.709
45199W        W13593  43.745   9.964  12.784
45200W        W13594  39.514   9.179   3.237
45201W        W13595   1.852  19.608   4.908
45202W        W13596  13.950  14.052  13.444
45203W        W13597   0.886  30.452  11.157
45204W        W13598  24.898  11.173   1.605
45205W        W13599  14.259   2.409   4.725
45206W        W13600   0.114  32.702  10.637
45207W        W13601   7.266  28.498  13.799
45208W        W13602  33.168  15.758   0.900
45209W        W13603   4.745   6.723  13.595
45210W        W13604  44.269  22.658  14.769
45211W        W13605  41.266  14.538   2.823
45212W        W13606   4.263  44.044  12.231
45213W        W13607  42.902   2.929   2.669
45214W        W13608  37.884  22.445   0.815
45215W        W13609  29.151  23.955   3.570
45216W        W13610  23.543   0.231   4.641
45217W        W13611  28.777  43.843   4.106
45218W        W13612  16.920  11.163  11.578
45219W        W13613  44.191  17.325  12.982
45220W        W13614  15.298  10.254  13.987
45221W        W13615   4.126   2.367   3.565
45222W        W13616  13.405  19.557  12.751
45223W        W13617  10.153  42.290  14.844
45224W        W13618   8.576   9.928   4.279
45225W        W13619  23.522   6.904  13.591
45226W        W13620  24.719   9.269   2.856
45227W        W13621   4.809  38.291  14.368
45228W        W13622  33.365  36.682   3.821
45229W        W13623  41.247  32.510  14.185
45230W        W13624  17.253  43.823   3.227
45231W        W13625  43.702  38.354   1.188
45232W        W13626  30.150  21.978  11.668
45233W        W13627   9.216  39.825  14.248
45234W        W13628  42.359  42.307  10.536
45235W        W13629   8.321  23.495   0.066
45236W        W13630  12.557  24.494  11.196
45237W        W13631  27.148  14.307  10.748
45238W        W13632  13.423  20.501   1.760
45239W        W13633  20.099  30.168   0.232
45240W        W13634  32.796   1.789   1.748
45241W        W13635  39.450  23.743   4.041
45242W        W13636  25.417  19.775   0.553
45243W        W13637  37.025  10.852  14.903
45244W        W13638  44.770  44.133  14.838
45245W        W13639  25.058  41.328   2.279
45246W        W13640  15.170  10.435  13.522
45247W        W13641  27.796  31.664   1.817
45248W        W13642   8.644   9.373  12.520
45249W        W13643   1.197   5.242  10.408
45250W        W13644  33.580   0.276   4.429
45251W        W13645   6.121  35.986  10.301
45252W        W13646  27.839   1.797   5.135
45253W        W13647  14.640  38.227  11.066
45254W        W13648  23.872   6.729   0.000
45255W        W13649  31.695   3.417   3.229
45256W        W13650  34.632  33.872  10.939
45257W        W13651  13.651  12.307   2.645
45258W        W13652  36.935  22.045  14.632
45259W        W13653  37.849  36.458  14.694
45260W        W13654  29.123  11.249  13.479
45261W        W13655  36.215   4.746  13.817
45262W        W13656  17.759  17.644   1.522
45263W        W13657  31.902  40.321  13.926
45264W        W13658  15.140  31.458  13.914
45265W        W13659   5.874  33.341   1.763
45266W        W13660  36.396  35.622  13.824
45267W        W13661  25.129   8.571   2.790
45268W        W13662   6.748  20.243   2.259
45269W        W13663  19.665  21.167   1.203
45270W        W13664   5.362  43.863  11.614
45271W        W13665  23.803  21.402  12.487
45272W        W13666  34.490  43.041   3.467
45273W        W13667  40.406  29.086   1.864
45274W        W13668  25.311  20.279   0.460
45275W        W13669  28.879  30.353  12.399
45276W        W13670  24.149  32.957  14.514
45277W        W13671  20.665  43.713   1.943
45278W        W13672  33.614  44.840   4.140
45279W        W13673  17.625   8.294  11.198
45280W        W13674  43.156  13.346   2.631
45281W        W13675  18.074  39.388   2.374
45282W        W13676  13.158  21.709  14.304
45283W        W13677   9.413   9.239  14.596
45284W        W13678  22.655   0.767  12.678
45285W        W13679  37.040  34.461  11.161
45286W        W13680  10.983  35.663   3.593
45287W        W13681  21.179   5.452   1.888
45288W        W13682  41.462  42.346  14.567
45289W        W13683  21.632  21.463  10.604
45290W        W13684  24.779  27.062  11.986
45291W        W13685  27.915  10.917  11.879
45292W        W13686  28.546  33.062  14.648
45293W        W13687  20.348  25.262  13.982
45294W        W13688  21.461   7.907  13.492
45295W        W13689   8.892   0.998   3.419
45296W        W13690  14.762  10.276  10.931
45297W        W13691  40.231  39.064   1.281
45298W        W13692  22.693  41.289  13.551
45299W        W13693   7.980  39.364  11.555
45300W        W13694  13.544  23.944   0.392
45301W        W13695  20.106  41.578   0.285
45302W        W13696  17.560  20.015   3.692
45303W        W13697   9.729  27.481  11.589
45304W        W13698   4.285  27.708   3.859
45305W        W13699   1.409  24.582  13.197
45306W        W13700  13.782  12.800   0.354
45307W        W13701  28.668  24.045   1.178
45308W        W13702  44.399  33.970  11.870
45309W        W13703  43.537  26.103   4.136
45310W        W13704  26.252  30.506  14.275
45311W        W13705  23.259   0.742   3.730
45312W        W13706  38.876  15.847  14.853
45313W        W13707  23.808  19.516   4.632
45314W        W13708  43.419   3.092   3.776
45315W        W13709   4.865   8.785  14.537
45316W        W13710  20.613  19.458   3.275
45317W        W13711  36.292  39.072  11.723
45318W        W13712   2.397   1.559   3.277
45319W        W13713  36.469   8.678   0.383
45320W        W13714  40.539  25.346  12.029
45321W        W13715   7.271   7.125   0.498
45322W        W13716  29.667   4.025   2.330
45323W        W13717  30.113  15.746   4.364
45324W        W13718   8.677   1.575   4.044
45325W        W13719  25.524  27.659   1.375
45326W        W13720  43.374  12.049   2.362
45327W        W13721   1.074  24.410   2.536
45328W        W13722  34.838  40.720  12.906
45329W        W13723  23.788   5.458  12.060
45330W        W13724  42.258   3.834  11.336
45331W        W13725  21.661  28.711   1.406
45332W        W13726  37.861   9.269   3.728
45333W        W13727  17.368  43.095   0.636
45334W        W13728  36.455  28.570  12.995
45335W        W13729  29.096  34.646   3.700
45336W        W13730  27.897  13.149   2.566
45337W        W13731  43.565  20.705   0.673
45338W        W13732  13.700  15.807  10.937
45339W        W13733  40.371  35.562   3.611
45340W        W13734  38.049  11.868  14.365
45341W        W13735   7.308  32.330  11.853
45342W        W13736  21.152   8.878   0.982
45343W        W13737  20.723  12.859  12.110
45344W        W13738   2.671  21.288  14.377
45345W        W13739  31.241  36.023   1.419
45346W        W13740   5.872  29.330  12.566
45347W        W13741  18.463  41.507   0.771
45348W        W13742  15.098  29.887   0.386
45349W        W13743  41.761  40.848   1.020
45350W        W13744  20.265  11.361  11.003
45351W        W13745   7.427  44.867  11.074
45352W        W13746  12.574  15.032   4.046
45353W        W13747  40.973  21.618  10.626
45354W        W13748   7.626  27.430  12.884
45355W        W13749  13.143   1.505   1.467
45356W        W13750  26.436   1.251   1.059
45357W        W13751  10.769  31.342  12.157
45358W        W13752  17.302  15.824   4.170
45359W        W13753   5.299   3.556   2.254
45360W        W13754  36.551  28.514  11.141
45361W        W13755  23.162  28.901  14.467
45362W        W13756  19.365   5.319   0.773
45363W        W13757  41.871  39.512  14.045
45364W        W13758  36.895  39.576  11.435
45365W        W13759  32.305  35.467   1.633
45366W        W13760   5.865  26.531   1.338
45367W        W13761  21.713  25.893   3.670
45368W        W13762  21.858  44.493   2.825
45369W        W13763  16.059   4.065  10.749
45370W        W13764  28.643  36.394   2.862
45371W        W13765  28.980  35.507  14.245
45372W        W13766  34.543  42.015  14.006
45373W        W13767  29.458  44.951   4.655
45374W        W13768  14.728  25.996   1.616
45375W        W13769   5.197  31.719  14.096
45376W        W13770  14.494  29.746  13.491
45377W        W13771   6.813  10.070  14.292
45378W        W13772  40.390   4.975   1.908
45379W        W13773  13.787  42.610   3.870
45380W        W13774  19.592  21.061  12.581
45381W        W13775  11.311  31.445   4.584
45382W        W13776  24.534  27.870  14.852
45383W        W13777   0.847   1.042   1.462
45384W        W13778  38.950  35.298   0.542
45385W        W13779   2.898  28.592  14.303
45386W        W13780  15.868   5.230  14.386
45387W        W13781  36.736  22.664   3.241
45388W        W13782  14.194   4.121   3.332
45389W        W13783  20.285  39.887   3.646
45390W        W13784  25.499  31.879   3.669
45391W        W13785  20.373  28.600   1.229
45392W        W13786   8.446  23.332   1.339
45393W        W13787   9.718   9.697   2.623
45394W        W13788   1.364  42.288   1.254
45395W        W13789  24.579  16.073  12.080
45396W        W13790  24.230  10.077  11.104
45397W        W13791  19.615  12.424   2.840
45398W        W13792  39.412   4.132   2.151
45399W        W13793  27.462  36.994  13.798
45400W        W13794  16.473  26.289  11.229
45401W        W13795  41.935  38.353   3.208
45402W        W13796   0.269  39.104   0.851
45403W        W13797  11.433   3.958  12.023
45404W        W13798   7.553  37.787   0.284
45405W        W13799  22.637   3.335   4.044
45406W        W13800  18.088  11.150  12.863
45407W        W13801  41.240  30.500  12.131
45408W        W13802  44.732  43.923   0.686
45409W        W13803   1.224  35.380   4.599
45410W        W13804  25.511  31.111  12.782
45411W        W13805  37.267  12.872  10.203
45412W        W13806  24.387  35.395  12.119
45413W        W13807  42.903  13.089   2.212
45414W        W13808  38.828  19.174   2.718
45415W        W13809  15.592   4.562   1.711
45416W        W13810  41.933   1.713   2.300
45417W        W13811  42.033  39.973   1.133
45418W        W13812   5.181  19.075   3.627
45419W        W13813  18.588   9.063  11.529
45420W        W13814  24.550  39.020  11.976
45421W        W13815   1.023   3.215   2.894
45422W        W13816  34.384   8.365   2.681
45423W        W13817  32.540  32.780  11.723
45424W        W13818  30.245  28.881   1.430
45425W        W13819  16.619   8.107   2.657
45426W        W13820   4.019  35.649   0.441
45427W        W13821  14.711  39.429   2.268
45428W        W13822  10.276  13.578  11.419
45429W        W13823  34.893  18.829   4.319
45430W        W13824  25.709  12.797   4.885
45431W        W13825  18.253   3.424  14.849
45432W        W13826  33.024  34.506  13.625
45433W        W13827   5.967  43.174   1.224
45434W        W13828   7.872  21.535  14.917
45435W        W13829  35.777  37.490   2.817
45436W        W13830   4.330  26.158  10.765
45437W        W13831  19.342  36.359   4.354
45438W        W13832  42.560  40.498  12.095
45439W        W13833  42.919  27.424   3.884
45440W        W13834  12.801  17.955  11.058
45441W        W13835  33.316  32.690   0.406
45442W        W13836  29.538  34.378  11.156
45443W        W13837  39.523   6.741   2.715
45444W        W13838  11.158   6.377  14.878
45445W        W13839  19.888  12.864   3.748
45446W        W13840  15.743   9.334  13.999
45447W        W13841  25.867  34.834  13.618
45448W        W13842  40.242   0.233   3.378
45449W        W13843   1.664   9.109   4.159
45450W        W13844  35.859   1.656  11.174
45451W        W13845  17.227  13.345  14.539
45452W        W13846   0.833  34.297   3.359
45453W        W13847  21.506  25.694   0.832
45454W        W13848  33.158  21.105  12.872
45455W        W13849  10.452  42.945   3.136
45456W        W13850   6.422  22.458   3.502
45457W        W13851   4.759  24.631   0.412
45458W        W13852   1.054   2.892  13.648
45459W        W13853  11.563  20.616  13.552
45460W        W13854  34.309   6.725  12.178
45461W        W13855  25.659  40.434  11.126
45462W        W13856   3.812  23.705  12.499
45463W        W13857   5.938  13.274   2.704
45464W        W13858  31.477  40.910  11.507
45465W        W13859   9.016   4.903  14.388
45466W        W13860  11.716   4.757   1.344
45467W        W13861  19.807  41.635  12.407
45468W        W13862   1.728   3.019  10.946
45469W        W13863   6.230   0.522   1.234
45470W        W13864  10.249  37.573   0.642
45471W        W13865   1.366   3.945  13.735
45472W        W13866  35.132  42.665   3.043
45473W        W13867  20.252  10.742  10.675
45474W        W13868  31.178  42.603   3.762
45475W        W13869   8.642  21.714  10.408
45476W        W13870  17.502  38.256  10.860
45477W        W13871  18.364   2.754  11.278
45478W        W13872  25.911  11.831  11.036
45479W        W13873  14.338  19.539  11.533
45480W        W13874   6.250  12.101   2.926
45481W        W13875   2.450  28.798  14.519
45482W        W13876   4.720  27.108   0.306
45483W        W13877  13.332  17.716   1.393
45484W        W13878  17.076  21.653  12.856
45485W        W13879  18.334  18.101  10.697
45486W        W13880  12.746  42.682   2.869
45487W        W13881  18.560  18.140   2.272
45488W        W13882  20.838  17.785   2.704
45489W        W13883  33.710  10.363   1.196
45490W        W13884  18.088  14.224  13.060
45491W        W13885  32.874  24.627  11.026
45492W        W13886   1.443  25.565  13.379
45493W        W13887  34.910  35.467  14.233
45494W        W13888  28.626  41.593   2.339
45495W        W13889  20.989  40.775  14.407
45496W        W13890  14.796  42.863   1.897
45497W        W13891  41.371  42.513  13.149
45498W        W13892   4.780   3.642   2.261
45499W        W13893  24.986   8.274   4.327
45500W        W13894  24.705  18.208   0.740
45501W        W13895  11.549  26.557   0.237
45502W        W13896  12.657  31.882   2.147
45503W        W13897  36.850  26.500  10.681
45504W        W13898  21.520  34.404   2.880
45505W        W13899  14.665  27.662  12.174
45506W        W13900  35.960  37.444   0.027
45507W        W13901   5.260  32.505   1.124
45508W        W13902  17.614  37.365  13.148
45509W        W13903   1.196   1.293   3.671
45510W        W13904   5.280   6.606  12.354
45511W        W13905  26.182  23.603   1.397
45512W        W13906  39.463  18.367   3.762
45513W        W13907  44.372  10.893  10.985
45514W        W13908  15.627  12.360  12.071
45515W        W13909  21.733   0.679   3.266
45516W        W13910  31.041   8.701   0.347
45517W        W13911  36.978  30.962   3.249
45518W        W13912  37.478  17.996  12.086
45519W        W13913   3.023   6.158  14.305
45520W        W13914  22.188   2.324   4.533
45521W        W13915  14.820  26.174   3.199
45522W        W13916  21.528  36.906  12.521
45523W        W13917   2.013  23.661  14.935
45524W        W13918  40.987  10.667   1.941
45525W        W13919   5.658   4.819   3.393
45526W        W13920  15.928  31.141  10.668
45527W        W13921  11.552  34.786  13.549
45528W        W13922  33.484  12.370   3.743
45529W        W13923   2.966  24.296   0.842
45530W        W13924  21.727  29.840  12.885
45531W        W13925  31.451  35.372   3.448
45532W        W13926  34.011  22.988   5.229
45533W        W13927  27.904   4.831   0.203
45534W        W13928  10.576   4.764  14.313
45535W        W13929  43.776  33.526   2.306
45536W        W13930  42.784   5.276   2.308
45537W        W13931  21.596  13.641   1.699
45538W        W13932  28.696   5.208  12.541
45539W        W13933  21.192  10.903   3.692
45540W        W13934  16.322  37.185   3.792
45541W        W13935  33.368  36.850  13.878
45542W        W13936   2.490  36.678  12.900
45543W        W13937   1.201  16.558  13.610
45544W        W13938  31.849  31.466  13.587
45545W        W13939  25.549  23.278   1.901
45546W        W13940  25.403  38.367   4.593
45547W        W13941  40.867  37.327  12.510
45548W        W13942  14.421   4.678   9.848
45549W        W13943  43.728  37.020   0.547
45550W        W13944  26.223  36.435   1.880
45551W        W13945  22.069  25.489   1.329
45552W        W13946   9.167  20.019  11.141
45553W        W13947   9.594  22.644  13.923
45554W        W13948  26.933   7.779  14.649
45555W        W13949  37.289  34.136   1.939
45556W        W13950   6.194  22.004   3.307
45557W        W13951  37.501  21.778  11.576
45558W        W13952  16.761  10.874   3.189
45559W        W13953  22.754  30.909   4.978
45560W        W13954  44.970  37.070  14.354
45561W        W13955   3.429   1.381  10.672
45562W        W13956  30.554  22.920  12.089
45563W        W13957   1.948  22.973  13.781
45564W        W13958   5.307  33.447  14.152
45565W        W13959  44.172  40.990   0.533
45566W        W13960  21.618  41.973   3.412
45567W        W13961  22.538   6.824   0.521
45568W        W13962  21.206  23.523  14.520
45569W        W13963  36.895  10.375  11.632
45570W        W13964  30.148  37.119   0.142
45571W        W13965  31.178  41.378  11.546
45572W        W13966  42.455   0.465  13.042
45573W        W13967  17.475   2.786  14.997
45574W        W13968  18.784  36.197   0.329
45575W        W13969  13.408  28.358  10.242
45576W        W13970   7.366  33.177  13.838
45577W        W13971  12.608  42.024   3.721
45578W        W13972  27.935  26.615   0.923
45579W        W13973  11.360   7.650   3.657
45580W        W13974  28.510  32.510  11.744
45581W        W13975   0.032  43.894  11.382
45582W        W13976   0.356   9.893   3.523
45583W        W13977  32.504   0.724  14.995
45584W        W13978  11.628  31.908  13.566
45585W        W13979   7.207  29.551   3.735
45586W        W13980  41.471  30.021  10.707
45587W        W13981   4.440  23.471   1.318
45588W        W13982   8.606  41.280  13.689
45589W        W13983  23.200  18.754  13.435
45590W        W13984   2.072  39.898   1.891
45591W        W13985  28.582  15.848  13.469
45592W        W13986  27.107   6.692   4.102
45593W        W13987  42.319  28.673  12.893
45594W        W13988   8.808  28.274  10.719
45595W        W13989  38.779  14.239   0.367
45596W        W13990  18.770  31.578  13.097
45597W        W13991  44.975   7.800   0.957
45598W        W13992  22.831   0.404  12.987
45599W        W13993   7.542  19.149  11.490
45600W        W13994   2.663  27.687   0.406
45601W        W13995   8.141   1.444  14.748
45602W        W13996  26.443   3.223  14.038
45603W        W13997  19.325  29.420   5.463
45604W        W13998  33.390  35.553  11.551
45605W        W13999  44.294  12.340  14.437
45606W        W14000   5.774  19.249  11.362
45607W        W14001  10.424  35.491   4.933
45608W        W14002   4.159  42.619   3.652
45609W        W14003  39.032  25.138  10.643
45610W        W14004  32.179   0.441   4.256
45611W        W14005  37.359  14.580   5.030
45612W        W14006  26.938  42.677  13.606
45613W        W14007   8.683   3.905  12.018
45614W        W14008  24.319  19.587   3.205
45615W        W14009  21.264  36.134   1.808
45616W        W14010  28.222   3.650  11.963
45617W        W14011   0.743  30.548   4.115
45618W        W14012  38.599   0.241   1.398
45619W        W14013  14.078  43.439  12.049
45620W        W14014   0.875   1.313   0.409
45621W        W14015  21.984  34.377  12.992
45622W        W14016   2.760   1.805  14.245
45623W        W14017  38.745  11.234   1.270
45624W        W14018   8.659  31.555  11.271
45625W        W14019   9.779   0.156  11.333
45626W        W14020  30.188  31.429   0.533
45627W        W14021  24.084  26.219   1.606
45628W        W14022   1.833  20.551  13.701
45629W        W14023  15.725  14.845  10.607
45630W        W14024  14.421  28.160  14.319
45631W        W14025   8.197  16.977  12.238
45632W        W14026  36.458   3.696   0.770
45633W        W14027  10.891  20.558   2.824
45634W        W14028  39.761  14.292   2.182
45635W        W14029  42.455  34.665  10.915
45636W        W14030  25.163  24.543   2.236
45637W        W14031  21.611  23.860   3.722
45638W        W14032  38.043   7.554   0.549
45639W        W14033  18.194  24.537   3.390
45640W        W14034  10.096  26.722  12.615
45641W        W14035  40.506  20.824  14.853
45642W        W14036  30.998   6.882   3.508
45643W        W14037  29.478  21.351   3.183
45644W        W14038  30.307  25.997   2.711
45645W        W14039   9.842  25.586   1.165
45646W        W14040  12.116  12.948  12.083
45647W        W14041   9.646   4.883   1.159
45648W        W14042   9.012   3.470  11.872
45649W        W14043  25.258   0.334   1.943
45650W        W14044  38.403  11.615   0.319
45651W        W14045  20.787  16.552  11.144
45652W        W14046   2.323  36.625   0.026
45653W        W14047  26.601  13.452   2.685
45654W        W14048  38.137  29.605   2.125
45655W        W14049  11.838  26.987   0.397
45656W        W14050  39.038  19.614   1.545
45657W        W14051  32.617   1.984  11.726
45658W        W14052  29.367  26.059   1.888
45659W        W14053  35.118  16.974  10.679
45660W        W14054   7.632  16.358   3.706
45661W        W14055  36.900  10.163   0.430
45662W        W14056  35.607  10.775  14.356
45663W        W14057  13.503   5.672   4.082
45664W        W14058  15.547  27.966  11.962
45665W        W14059   8.217  37.570  13.019
45666W        W14060  40.288   2.933   1.748
45667W        W14061  43.495  30.588  14.989
45668W        W14062  14.149  24.664   1.344
45669W        W14063  19.177  41.883  13.497
45670W        W14064  25.049  16.579   2.847
45671W        W14065  15.309   9.752   2.227
45672W        W14066  28.013  35.032   2.960
45673W        W14067  23.829  27.892   0.339
45674W        W14068  36.673  42.304   1.664
45675W        W14069  18.843  30.129  11.998
45676W        W14070  31.671   3.850   2.493
45677W        W14071  38.468  26.209   1.311
45678W        W14072   2.881  36.420   0.699
45679W        W14073  28.704  36.489  13.018
45680W        W14074  25.421   0.173   5.351
45681W        W14075  26.659   8.394  11.528
45682W        W14076  37.866  25.682   1.954
45683W        W14077  19.933  21.647  10.856
45684W        W14078  10.664  44.256   3.399
45685W        W14079  32.888   3.688   1.229
45686W        W14080  10.250  20.873  12.225
45687W        W14081  11.743  37.036  10.824
45688W        W14082  25.437  13.611   3.901
45689W        W14083  34.186  42.426   2.673
45690W        W14084  20.099  43.878   0.493
45691W        W14085  12.845   9.735  14.084
45692W        W14086  12.210  42.904   4.727
45693W        W14087  10.262  33.522  13.220
45694W        W14088  40.824  28.278  13.702
45695W        W14089  35.549  33.794  11.211
45696W        W14090   7.350  33.845  14.534
45697W        W14091  24.533  29.203  10.674
45698W        W14092  32.123  35.925   0.447
45699W        W14093  35.190   2.817   0.324
45700W        W14094  18.382  21.436  14.503
45701W        W14095   4.442  10.147  10.531
45702W        W14096  35.517   8.601  14.765
45703W        W14097   3.224  15.909   0.786
45704W        W14098  28.925  10.455  13.803
45705W        W14099  39.254  23.430  10.805
45706W        W14100  33.436  11.534   5.084
45707W        W14101   7.305  17.602   0.226
45708W        W14102  29.680  33.776  14.424
45709W        W14103  13.129  24.758   1.279
45710W        W14104  26.523  19.090   3.093
45711W        W14105  31.472  41.057   3.160
45712W        W14106  28.654  22.952  14.889
45713W        W14107   6.235  31.660   0.258
45714W        W14108  22.738  44.241   2.726
45715W        W14109  10.246   5.986  14.730
45716W        W14110  19.010  43.763   1.480
45717W        W14111  29.448  35.021   4.842
45718W        W14112  20.493  37.653   2.255
45719W        W14113   3.795  12.181  10.249
45720W        W14114  14.106  29.129  12.325
45721W        W14115  22.879   7.847   2.371
45722W        W14116  36.473   1.482   1.900
45723W        W14117  40.597  24.024   0.197
45724W        W14118  12.988   2.857   2.743
45725W        W14119  21.956  26.276   3.432
45726W        W14120   4.876   4.499   2.239
45727W        W14121  14.998  18.604  14.838
45728W        W14122  23.926  26.632  12.072
45729W        W14123  27.460   1.705   5.487
45730W        W14124   4.145  44.302   2.739
45731W        W14125  24.893  21.990   0.603
45732W        W14126  29.465  40.119  12.809
45733W        W14127   5.283  43.244   0.409
45734W        W14128   3.496  29.227  13.334
45735W        W14129  11.633  29.435  13.473
45736W        W14130  43.753  16.319  14.791
45737W        W14131  19.937   1.462   4.398
45738W        W14132  12.733  25.007   2.213
45739W        W14133  25.106  31.182   4.069
45740W        W14134  33.420  34.604  10.641
45741W        W14135  11.111  14.489   1.287
45742W        W14136  38.509  41.296  14.301
45743W        W14137  10.775  35.054   0.377
45744W        W14138  15.576   0.972   0.675
45745W        W14139  44.755  32.050  14.079
45746W        W14140  28.965  36.949   0.720
45747W        W14141   2.784  24.189  12.179
45748W        W14142  35.269  13.799  10.704
45749W        W14143  41.322  30.955   2.982
45750W        W14144  21.739  14.730  11.072
45751W        W14145   1.100  37.906   5.005
45752W        W14146   4.731  18.289  12.929
45753W        W14147  26.245  25.923  12.789
45754W        W14148  19.324  17.192  12.891
45755W        W14149   5.243  44.738   2.891
45756W        W14150  39.974  39.839  14.499
45757W        W14151  14.446   5.913   3.755
45758W        W14152  13.839  44.993   1.403
45759W        W14153  12.703  34.472   0.487
45760W        W14154  39.500  18.262  13.928
45761W        W14155  21.113  28.562  13.038
45762W        W14156  10.186  29.679  13.034
45763W        W14157  22.432  21.597  11.010
45764W        W14158  29.454  21.990  14.337
45765W        W14159  16.266  16.127  11.657
45766W        W14160  34.777  35.532   3.094
45767W        W14161   8.485  27.016  11.100
45768W        W14162  35.673  26.653  14.878
45769W        W14163  43.410  37.893  13.336
45770W        W14164  27.884  21.740  11.974
45771W        W14165   6.877   5.841  14.407
45772W        W14166  31.035  40.058   1.012
45773W        W14167   0.508  35.356   1.271
45774W        W14168  26.607  26.089   4.414
45775W        W14169   5.685  16.251   0.565
45776W        W14170  32.676  25.013  12.964
45777W        W14171  19.222  44.114   1.769
45778W        W14172  20.119   9.207  10.638
45779W        W14173  21.309  19.251   4.550
45780W        W14174  31.913  43.438  11.285
45781W        W14175  19.364  36.819   3.186
45782W        W14176   4.182   1.455  10.637
45783W        W14177  31.092   7.319   0.451
45784W        W14178  36.411  14.153   2.117
45785W        W14179  38.193   9.895  13.909
45786W        W14180  40.233  10.475   3.609
45787W        W14181  41.426   7.762  11.397
45788W        W14182  37.795  27.916  12.793
45789W        W14183  21.635   9.660  12.884
45790W        W14184  33.126   4.243   2.820
45791W        W14185   6.701   3.186   0.300
45792W        W14186  12.355  38.536   0.401
45793W        W14187   5.668  30.367   0.628
45794W        W14188  23.232  13.839  11.192
45795W        W14189  35.092   1.919   2.239
45796W        W14190  32.379  10.757   1.203
45797W        W14191   8.196  12.835   4.107
45798W        W14192  10.057   4.613  12.796
45799W        W14193  33.898   2.561  12.913
45800W        W14194  30.036  18.837   0.804
45801W        W14195  26.721  13.237   5.065
45802W        W14196   7.583  27.087   0.642
45803W        W14197  27.090  16.768  12.136
45804W        W14198  22.228  38.535  11.168
45805W        W14199  44.699  16.217   1.204
45806W        W14200  13.208   8.016  14.066
45807W        W14201  23.510  24.354  14.921
45808W        W14202  12.334  42.404   4.615
45809W        W14203   2.451  15.908   1.043
45810W        W14204  35.610  32.935   1.464
45811W        W14205  16.154   8.196  11.721
45812W        W14206  39.385   7.952  11.030
45813W        W14207  16.073  41.941   3.635
45814W        W14208  16.298  25.782   1.935
45815W        W14209   4.817  26.515   4.433
45816W        W14210  27.526  19.526  14.824
45817W        W14211  21.103   4.414   1.816
45818W        W14212  23.095  28.797  13.493
45819W        W14213  35.503   1.281   4.045
45820W        W14214  13.694  41.424   3.195
45821W        W14215  28.406  39.581   2.105
45822W        W14216  15.082  27.512  12.434
45823W        W14217   2.035  42.207   4.113
45824W        W14218  16.748   3.498   4.103
45825W        W14219  19.195  40.128  10.376
45826W        W14220   4.906  28.973   4.765
45827W        W14221   1.398  41.533   1.552
45828W        W14222  42.947   2.789  13.084
45829W        W14223  33.455  15.315   2.364
45830W        W14224   1.406   2.545  13.438
45831W        W14225   8.018  43.072   4.143
45832W        W14226  15.755  16.254  10.746
45833W        W14227  32.175  43.557   0.320
45834W        W14228  11.144  38.868  12.809
45835W        W14229  29.088  23.903  10.493
45836W        W14230  29.008   5.177   0.796
45837W        W14231   8.647  37.263  13.120
45838W        W14232  28.042  11.246   3.192
45839W        W14233  31.537  26.617   1.806
45840W        W14234   3.389  18.820  12.483
45841W        W14235  37.112  36.828  13.974
45842W        W14236  17.448  41.472  14.949
45843W        W14237   9.583  35.952   4.354
45844W        W14238   0.369  19.337  10.751
45845W        W14239  17.545  29.940   0.011
45846W        W14240  41.345  25.844   0.812
45847W        W14241  11.919   5.223  14.495
45848W        W14242  39.750  21.452   2.763
45849W        W14243  13.334   7.470  11.425
45850W        W14244  31.135   4.317   3.517
45851W        W14245   3.701  43.195  14.445
45852W        W14246  12.491  12.744  14.052
45853W        W14247  39.533  34.626  14.892
45854W        W14248  43.068  36.331   5.356
45855W        W14249   5.428  35.282  11.140
45856W        W14250  18.838  32.476   3.075
45857W        W14251  20.622  16.170   5.124
45858W        W14252  31.044  32.913   3.313
45859W        W14253  35.874  35.117   3.221
45860W        W14254  21.178  15.410   4.013
45861W        W14255  41.188  10.285   3.663
45862W        W14256  32.188   6.141   0.946
45863W        W14257   7.691  15.570   3.247
45864W        W14258   3.303  33.618  13.453
45865W        W14259  14.717  34.688  11.127
45866W        W14260   9.785  27.076  10.597
45867W        W14261  19.664   3.487  12.200
45868W        W14262   2.292   7.256  12.578
45869W        W14263  28.005   9.760   4.169
45870W        W14264  41.771   7.655  12.875
45871W        W14265  39.140  17.337  14.744
45872W        W14266   7.364  11.867  13.815
45873W        W14267  32.218   9.799  14.612
45874W        W14268   6.187  22.068  10.609
45875W        W14269   7.103   0.824  12.010
45876W        W14270  26.117  18.391  13.837
45877W        W14271  21.513  42.548  10.747
45878W        W14272  12.195  43.870   2.592
45879W        W14273  43.707  41.756   1.724
45880W        W14274  37.818   6.257  14.323
45881W        W14275   2.884  16.285   0.879
45882W        W14276  43.286   6.082  11.036
45883W        W14277  28.228  33.916  10.708
45884W        W14278  20.688  21.445   4.258
45885W        W14279  39.295  20.283   0.859
45886W        W14280  37.499  11.807   2.499
45887W        W14281  13.808  36.320   0.784
45888W        W14282  18.138   6.745   4.584
45889W        W14283  28.611  30.946  10.720
45890W        W14284  24.928  15.218   1.399
45891W        W14285  14.410  18.662  12.261
45892W        W14286  33.317  14.328  10.793
45893W        W14287  21.673  29.909  11.999
45894W        W14288  30.125   6.621  14.787
45895W        W14289  31.379  32.232  13.394
45896W        W14290  23.017  23.121   1.187
45897W        W14291  17.233  36.971  11.179
45898W        W14292  29.980  34.554   1.527
45899W        W14293  43.815  10.700   0.422
45900W        W14294  34.211  33.573  11.025
45901W        W14295  35.423  42.918   3.868
45902W        W14296  27.691  27.086   4.038
45903W        W14297  26.169  40.105  13.132
45904W        W14298   3.214  35.676  10.422
45905W        W14299  38.922  21.307   5.041
45906W        W14300  16.171  22.527  11.094
45907W        W14301  40.123  14.620  14.144
45908W        W14302  10.095   3.453   2.650
45909W        W14303   7.157  31.047  13.944
45910W        W14304   0.969   1.397  10.685
45911W        W14305  16.038  33.486  10.624
45912W        W14306  29.440  11.494   1.939
45913W        W14307  15.250   6.804   1.031
45914W        W14308   8.699  11.241   3.727
45915W        W14309  43.326  37.964   3.268
45916W        W14310  23.444  36.166   1.814
45917W        W14311  10.796  37.913  13.650
45918W        W14312  19.861  10.366  14.053
45919W        W14313  38.886  40.826   3.627
45920W        W14314  39.067  34.882  14.954
45921W        W14315   4.449   9.190  14.404
45922W        W14316  36.156  26.667  13.528
45923W        W14317  40.742  10.583  11.221
45924W        W14318  22.507   6.811  14.403
45925W        W14319  28.008  34.382  11.622
45926W        W14320  41.125  22.851   2.700
45927W        W14321  26.117   5.609   2.829
45928W        W14322  22.595  17.085  10.142
45929W        W14323   5.989  41.259   4.499
45930W        W14324  35.948  41.742   3.789
45931W        W14325  15.622  44.071   2.706
45932W        W14326   5.456  38.329  13.453
45933W        W14327   4.159  32.189  11.186
45934W        W14328   6.923  11.213  13.442
45935W        W14329  39.933  19.074  11.498
45936W        W14330   1.752  11.529   0.778
45937W        W14331  42.239  35.060  12.963
45938W        W14332  18.838  16.618   3.359
45939W        W14333   0.299  36.698   0.636
45940W        W14334  13.128  13.392   2.468
45941W        W14335  17.657   0.387  12.946
45942W        W14336  36.424  17.116  10.387
45943W        W14337   7.076  32.199   0.429
45944W        W14338  37.301  42.318  12.961
45945W        W14339  22.852  37.546  11.545
45946W        W14340   7.575  32.107   0.261
45947W        W14341  37.610   9.669   0.837
45948W        W14342  16.082   2.391   4.145
45949W        W14343  13.385  38.620  11.032
45950W        W14344  10.325  17.286   2.056
45951W        W14345  27.654  18.759  13.515
45952W        W14346  33.737  21.848   0.224
45953W        W14347  23.102  22.726  14.297
45954W        W14348  10.397  16.920  12.996
45955W        W14349  19.616  16.708   1.453
45956W        W14350  15.537  26.198  12.627
45957W        W14351  24.780  22.216  14.122
45958W        W14352  32.220  28.975   5.166
45959W        W14353  18.080  38.255  11.156
45960W        W14354  33.947  39.469   1.401
45961W        W14355  22.228  24.625  14.723
45962W        W14356  22.545  14.815  13.843
45963W        W14357  42.812  38.088  12.042
45964W        W14358  11.315   0.460   1.180
45965W        W14359  39.907  11.697  13.434
45966W        W14360  31.618  37.228   1.503
45967W        W14361   9.327  30.919  13.996
45968W        W14362  42.980  28.658  11.062
45969W        W14363  39.928  15.693   3.174
45970W        W14364   8.913  41.404  11.509
45971W        W14365  38.804  13.330   2.365
45972W        W14366   9.727  15.122   4.513
45973W        W14367  27.057   0.931  11.157
45974W        W14368   9.032  32.354  10.103
45975W        W14369  38.734  20.316  11.129
45976W        W14370   6.308  28.114   2.396
45977W        W14371  16.621  25.678   0.484
45978W        W14372   7.806  34.993  12.042
45979W        W14373  44.539  16.930  11.003
45980W        W14374   4.817  17.106  11.649
45981W        W14375  39.926  36.088  11.472
45982W        W14376  17.782  41.846  11.978
45983W        W14377  11.689  13.302   4.645
45984W        W14378  39.913   8.843   3.183
45985W        W14379  31.190  29.170  14.940
45986W        W14380   6.575   9.749  11.111
45987W        W14381  18.074  24.014  11.170
45988W        W14382  23.226  14.172   2.746
45989W        W14383  27.198  26.172  10.552
45990W        W14384   7.378  38.398   4.102
45991W        W14385   6.699  16.647  10.773
45992W        W14386  28.998  26.487   0.002
45993W        W14387  11.245   3.438  11.938
45994W        W14388  21.804   6.498  13.873
45995W        W14389  41.953  25.881   3.221
45996W        W14390  27.076   6.660   2.687
45997W        W14391   4.181  40.286   0.063
45998W        W14392  44.319  11.261   4.627
45999W        W14393  21.199   8.331  11.468
46000W        W14394  18.771   9.866   0.337
46001W        W14395  10.307  30.336  10.781
46002W        W14396  22.931  26.691   3.331
46003W        W14397  35.020  11.297  14.459
46004W        W14398  11.266   5.939  14.037
46005W        W14399  44.804  31.570   3.169
46006W        W14400  18.647  12.328  11.087
46007W        W14401  26.820  10.224  10.032
46008W        W14402  23.625  32.084   2.137
46009W        W14403   7.972  20.820  12.988
46010W        W14404  34.217  26.545  13.108
46011W        W14405  39.933  22.316  14.461
46012W        W14406  29.945  42.178   3.998
46013W        W14407  32.142  29.512  10.570
46014W        W14408  12.783   0.579   0.165
46015W        W14409  26.449  10.309   2.163
46016W        W14410   2.873   2.394  14.010
46017W        W14411  34.987  17.426   4.035
46018W        W14412  24.968   0.446   3.319
46019W        W14413  20.319  29.962  13.921
46020W        W14414  18.372  17.155  13.827
46021W        W14415  31.627  16.764   1.423
46022W        W14416  34.326  40.784  12.837
46023W        W14417  13.052   7.722   1.703
46024W        W14418  30.515  18.244   0.252
46025W        W14419  33.064  13.787  13.858
46026W        W14420  37.463  12.734   3.881
46027W        W14421  40.251  29.141  14.558
46028W        W14422  12.173  44.490  12.028
46029W        W14423   0.027  15.149   1.560
46030W        W14424  41.304   0.068   4.358
46031W        W14425  25.692   8.947  13.394
46032W        W14426  23.346  44.504  13.479
46033W        W14427  41.234  14.517   4.198
46034W        W14428  37.538  26.402   0.960
46035W        W14429  30.517  43.611   3.197
46036W        W14430   5.448  42.647   3.685
46037W        W14431   2.783  29.963  14.932
46038W        W14432  13.859  20.976   1.440
46039W        W14433  30.976  32.016  11.496
46040W        W14434  32.381  26.276  10.645
46041W        W14435  11.746  32.824  12.022
46042W        W14436  36.828  26.111  12.392
46043W        W14437  37.477  36.342  14.334
46044W        W14438  17.801  11.302  10.591
46045W        W14439  29.944   3.640  14.470
46046W        W14440  37.298  25.953   0.217
46047W        W14441  39.322  27.891  11.205
46048W        W14442  25.538  29.417  12.102
46049W        W14443  15.016   6.725  11.590
46050W        W14444  18.350  20.099   2.347
46051W        W14445   0.198  39.885   2.645
46052W        W14446   6.405  26.479   3.138
46053W        W14447  12.830  40.114  14.117
46054W        W14448  34.818  33.014   3.406
46055W        W14449   8.475  21.554   1.785
46056W        W14450  15.338  39.809   1.000
46057W        W14451  31.556  32.908   3.054
46058W        W14452  10.315  40.064   1.322
46059W        W14453   8.598  32.625   0.779
46060W        W14454  33.933  31.142  13.353
46061W        W14455  22.013  36.504   3.339
46062W        W14456  35.380   2.441   0.934
46063W        W14457  19.744  39.763   1.291
46064W        W14458   4.329  34.070   1.337
46065W        W14459  19.228  19.958  11.665
46066W        W14460  34.114  15.359  14.289
46067W        W14461  23.725  16.542   4.595
46068W        W14462  16.312  15.673  11.935
46069W        W14463  22.678  31.181   2.451
46070W        W14464  29.472   3.920   0.991
46071W        W14465  21.529  21.434   2.656
46072W        W14466  36.761  18.832   0.324
46073W        W14467  17.668  15.234  13.916
46074W        W14468  16.835  11.555   2.366
46075W        W14469  26.988  44.639  11.567
46076W        W14470   6.792  23.087   1.385
46077W        W14471  36.108  35.550  11.499
46078W        W14472   7.711   1.232  14.966
46079W        W14473  37.343   8.771   2.924
46080W        W14474   2.791  28.030  12.634
46081W        W14475  23.999  11.708   1.824
46082W        W14476  16.303  12.123  13.926
46083W        W14477  15.025   2.460   3.197
46084W        W14478  36.685  34.090  12.414
46085W        W14479  26.014   2.213   4.187
46086W        W14480  40.790  12.699   1.842
46087W        W14481  41.588  39.392  10.682
46088W        W14482  12.115  11.403  12.524
46089W        W14483  28.517  28.841   4.623
46090W        W14484   5.468   2.902  10.632
46091W        W14485  36.809   8.803   1.131
46092W        W14486  37.414  11.382   1.666
46093W        W14487   2.641  27.952  11.156
46094W        W14488  36.085  11.784  14.722
46095W        W14489  42.282   9.323  12.030
46096W        W14490  10.605  24.727  14.494
46097W        W14491  17.131  27.253   1.297
46098W        W14492  37.754  38.614   1.691
46099W        W14493  21.688   1.970   1.288
46100W        W14494  32.540  39.397  10.971
46101W        W14495  24.809  35.095   4.192
46102W        W14496  44.708   0.880  10.639
46103W        W14497   0.769  16.312  13.944
46104W        W14498  14.768  28.472  10.474
46105W        W14499  18.688  14.755   1.736
46106W        W14500  15.762  28.382   0.024
46107W        W14501  25.435  30.749  14.384
46108W        W14502  34.823  14.748  14.532
46109W        W14503  25.091  43.737  13.395
46110W        W14504  30.408   9.297  12.469
46111W        W14505  30.177  34.486  12.538
46112W        W14506  41.034   9.615   4.063
46113W        W14507  42.004  24.553   4.606
46114W        W14508  18.331  16.737   4.486
46115W        W14509   9.652   5.356   9.820
46116W        W14510  11.586  13.920   1.887
46117W        W14511   4.205  28.508  11.952
46118W        W14512  21.757  24.058  14.484
46119W        W14513  24.987  29.095   3.295
46120W        W14514  15.941  22.684   4.118
46121W        W14515   8.514  16.699   3.429
46122W        W14516  44.780   1.007   1.964
46123W        W14517   6.445  35.034  12.690
46124W        W14518  11.431   1.503  12.118
46125W        W14519  40.442  31.954   2.390
46126W        W14520   4.839   0.922   4.230
46127W        W14521   8.380  29.390  11.458
46128W        W14522  31.803  15.775  10.000
46129W        W14523  18.098  37.645   4.106
46130W        W14524  36.306  28.166   2.136
46131W        W14525   1.980  40.989   0.633
46132W        W14526  31.153  21.364   1.710
46133W        W14527   7.664  30.481  13.822
46134W        W14528  18.504  16.274   0.896
46135W        W14529  40.195  15.210  13.711
46136W        W14530   9.074  33.570  14.552
46137W        W14531  24.004  43.707  11.529
46138W        W14532   4.120  36.079   1.336
46139W        W14533  12.688  14.502  12.380
46140W        W14534  32.638  35.126  11.584
46141W        W14535  17.201  15.677  12.742
46142W        W14536  31.368   2.405   0.267
46143W        W14537  39.026  15.194   4.609
46144W        W14538   1.773  31.517   3.386
46145W        W14539  36.579  17.617   3.895
46146W        W14540   8.309  38.916   4.539
46147W        W14541  32.444  38.310  13.876
46148W        W14542  16.292  19.030  14.730
46149W        W14543   2.924   6.324   4.126
46150W        W14544  22.584   2.285  13.441
46151W        W14545   6.294  36.499   3.672
46152W        W14546  36.875  20.642   4.354
46153W        W14547  11.024  17.233   4.344
46154W        W14548  11.186  23.062  13.876
46155W        W14549  23.590   3.014   3.137
46156W        W14550  11.460  20.197  14.016
46157W        W14551   0.837  41.425   0.942
46158W        W14552  39.536  22.010   2.324
46159W        W14553   9.240  11.912  11.428
46160W        W14554  16.947  21.385  10.190
46161W        W14555  18.132  40.784   1.862
46162W        W14556  31.264  33.060  14.196
46163W        W14557  43.978  37.511   1.324
46164W        W14558  17.304  32.210   2.228
46165W        W14559  32.642  17.980   3.129
46166W        W14560  18.771  43.122   5.027
46167W        W14561  33.717  15.428   3.392
46168W        W14562  23.527  34.495  12.620
46169W        W14563   8.241  44.262   2.697
46170W        W14564  19.060  12.543   0.406
46171W        W14565  31.159  17.718  13.008
46172W        W14566  10.719   9.929   3.888
46173W        W14567  43.745  25.068   3.097
46174W        W14568  37.365  18.069  14.093
46175W        W14569  10.387  14.089  13.529
46176W        W14570  25.961  13.241   4.664
46177W        W14571  23.817  44.011  10.558
46178W        W14572  19.154  31.738   4.190
46179W        W14573  15.595  40.311  10.361
46180W        W14574  30.183  41.165  13.809
46181W        W14575  15.633  35.005  11.040
46182W        W14576   4.939  21.572  11.454
46183W        W14577   0.296  26.279  10.886
46184W        W14578  22.923  37.358  13.246
46185W        W14579   5.006  18.657  14.861
46186W        W14580  29.066  39.631   1.349
46187W        W14581  20.068  33.522   4.588
46188W        W14582  20.488  37.367  14.514
46189W        W14583   4.790  39.386   2.298
46190W        W14584  41.919  34.344   1.912
46191W        W14585  11.545  39.561   4.081
46192W        W14586   4.346  40.796  14.268
46193W        W14587   5.363  10.791   2.281
46194W        W14588  42.411  39.395  11.925
46195W        W14589   8.250  42.310   2.213
46196W        W14590  28.966   1.678   0.759
46197W        W14591  35.974   7.803   5.076
46198W        W14592  32.458   3.809   1.498
46199W        W14593  40.554  21.799   0.782
46200W        W14594   5.304  26.801   3.614
46201W        W14595  39.014  11.438  10.738
46202W        W14596  24.726  35.976   4.347
46203W        W14597  12.376  40.292  14.312
46204W        W14598  36.635  44.433  11.976
46205W        W14599  43.595  23.709  10.525
46206W        W14600  31.973  23.511  14.167
46207W        W14601  13.610  30.908   1.711
46208W        W14602   8.456  42.527   1.748
46209W        W14603  14.811  15.262   0.225
46210W        W14604  20.984  23.981   3.342
46211W        W14605  25.330  26.759   3.389
46212W        W14606  23.439  37.452  14.434
46213W        W14607  10.123   9.156  12.988
46214W        W14608  32.433   1.701   4.002
46215W        W14609  27.682  22.937  12.854
46216W        W14610  18.583  31.430   4.876
46217W        W14611  11.143  24.715  14.393
46218W        W14612  41.123  20.558  10.595
46219W        W14613  23.003   2.851   1.231
46220W        W14614  16.234  27.592   0.293
46221W        W14615   8.820  11.974   2.151
46222W        W14616  32.874  38.981  12.119
46223W        W14617  21.273  21.468   2.202
46224W        W14618  23.787  20.189   3.908
46225W        W14619  13.133  20.319  14.956
46226W        W14620  19.422  40.234  11.651
46227W        W14621  27.289  10.170  14.812
46228W        W14622  40.237   0.090  12.177
46229W        W14623  22.711  21.862   1.855
46230W        W14624  39.269  13.317   2.134
46231W        W14625  27.552  23.211   2.801
46232W        W14626  11.581  25.495  12.969
46233W        W14627  35.443  26.718   2.210
46234W        W14628  27.928  29.516   4.514
46235W        W14629  34.458  40.352   3.654
46236W        W14630  20.635  23.959   0.961
46237W        W14631  36.289  15.126   4.257
46238W        W14632  32.388   7.592  12.915
46239W        W14633  41.575  43.341   0.485
46240W        W14634  30.921  17.140   3.922
46241W        W14635  14.433  13.085  13.576
46242W        W14636  13.731  12.796  11.740
46243W        W14637  11.194   8.487  10.455
46244W        W14638  24.715  35.053  11.866
46245W        W14639  34.509   4.833  14.766
46246W        W14640  10.719  39.725  14.818
46247W        W14641  41.473  29.172  11.181
46248W        W14642  35.909  33.087   0.929
46249W        W14643  29.564  34.882  11.228
46250W        W14644  44.130   5.675  10.596
46251W        W14645   6.156  26.110   2.341
46252W        W14646  18.044  20.207   3.685
46253W        W14647  43.313  17.300   4.652
46254W        W14648  36.803  11.392  14.510
46255W        W14649  35.430  43.986  13.856
46256W        W14650  13.061  12.274  13.525
46257W        W14651  31.447  33.633   4.935
46258W        W14652  42.346  32.115   0.947
46259W        W14653   1.134  12.198  10.037
46260W        W14654  13.861  33.348  13.329
46261W        W14655   1.010  18.798   1.365
46262W        W14656  31.616  29.343   4.848
46263W        W14657  15.944  15.216   1.260
46264W        W14658   5.428  41.676   0.129
46265W        W14659  23.662  33.090  11.866
46266W        W14660  21.063  12.611  13.405
46267W        W14661  12.760  33.446  12.035
46268W        W14662  22.557  44.468   4.487
46269W        W14663  22.087  12.276   4.332
46270W        W14664  39.330  20.999  11.302
46271W        W14665   4.341  10.391  13.443
46272W        W14666  37.756   9.811   2.271
46273W        W14667  13.116   5.172  11.013
46274W        W14668  38.556  16.693  11.598
46275W        W14669  39.307  19.087   0.375
46276W        W14670  28.467  30.027  13.627
46277W        W14671   5.098   6.270   5.078
46278W        W14672  16.430   8.403  12.094
46279W        W14673  16.615  31.075   0.423
46280W        W14674   3.635   7.183  14.868
46281W        W14675  13.844  40.326  11.168
46282W        W14676  31.244  44.993   0.361
46283W        W14677  14.631   2.312   4.380
46284W        W14678   0.567  37.357   2.379
46285W        W14679  24.915   0.568  11.647
46286W        W14680  33.432   8.980  11.724
46287W        W14681   5.765  34.104  10.711
46288W        W14682  28.118   6.834  10.807
46289W        W14683  12.149  23.623  13.865
46290W        W14684  36.393  44.635   4.958
46291W        W14685   4.065  16.799  13.570
46292W        W14686   9.928  22.735   3.078
46293W        W14687  39.774   7.319  14.922
46294W        W14688  38.435  43.037   0.102
46295W        W14689  23.275  34.905  14.764
46296W        W14690  16.202  22.125  14.911
46297W        W14691   9.223  38.882  13.962
46298W        W14692  30.241  30.549  13.960
46299W        W14693   5.794  42.235  13.465
46300W        W14694  40.325  44.454   2.706
46301W        W14695  33.189  11.368  11.583
46302W        W14696  13.788  28.095  11.920
46303W        W14697  28.506   2.844   1.230
46304W        W14698  34.102  20.812  13.042
46305W        W14699  38.596   8.211   4.246
46306W        W14700   8.732  25.503  13.008
46307W        W14701  31.990  27.245   4.083
46308W        W14702  34.096  37.894   0.014
46309W        W14703  33.488  43.264   0.226
46310W        W14704   4.800  35.381  11.229
46311W        W14705   2.946  37.454  10.685
46312W        W14706   4.418   7.551  10.715
46313W        W14707  13.055  38.792  12.437
46314W        W14708   8.045  11.953  12.950
46315W        W14709  35.650  19.456  13.638
46316W        W14710   9.211  26.580  10.755
46317W        W14711  12.385   2.901   1.674
46318W        W14712  33.598  30.032   2.918
46319W        W14713  41.847  13.721  14.534
46320W        W14714   2.852  37.718   0.777
46321W        W14715  20.624  13.467   4.861
46322W        W14716  41.514  21.140  11.900
46323W        W14717  12.321  16.680   1.044
46324W        W14718   7.897  30.084  11.210
46325W        W14719  13.644   3.208   0.479
46326W        W14720  21.476  32.291  13.446
46327W        W14721   5.763  21.604   0.333
46328W        W14722   9.159  37.329   2.361
46329W        W14723  25.758  38.231  12.649
46330W        W14724  18.317  18.088  12.869
46331W        W14725  29.589  43.538  14.527
46332W        W14726  33.961   0.390   1.662
46333W        W14727  16.585  12.250  14.360
46334W        W14728  34.103  22.889   4.213
46335W        W14729  10.248  36.645  10.854
46336W        W14730  44.384  30.023   2.325
46337W        W14731  26.139  38.514   1.794
46338W        W14732  39.845  29.964  14.427
46339W        W14733  23.081  29.682   0.436
46340W        W14734  36.379   9.978   1.209
46341W        W14735  26.668  41.064  12.033
46342W        W14736   0.965  39.429   1.804
46343W        W14737  12.927  23.706  11.096
46344W        W14738   2.330   4.647   3.343
46345W        W14739   4.288  27.966  12.584
46346W        W14740  35.133  34.104   3.317
46347W        W14741  20.741  15.599  11.442
46348W        W14742  24.239  35.535   1.280
46349W        W14743  19.000  37.553   2.533
46350W        W14744  18.591  26.913   1.796
46351W        W14745   8.754  14.120  12.196
46352W        W14746  17.486  30.405  12.199
46353W        W14747  34.801  21.035   5.354
46354W        W14748  22.222  22.957   4.535
46355W        W14749  23.684  34.491   2.683
46356W        W14750   3.541  30.968  12.980
46357W        W14751  44.552   1.652  11.604
46358W        W14752  10.607   4.887   0.226
46359W        W14753  21.736   2.737  12.047
46360W        W14754  35.600  18.686  11.563
46361W        W14755  15.173  12.598   0.326
46362W        W14756  18.789   2.314  13.794
46363W        W14757  33.588  22.486   2.211
46364W        W14758  40.768  34.188  10.734
46365W        W14759  10.379   0.921   3.046
46366W        W14760  33.472  25.992  11.987
46367W        W14761  23.140  37.605   4.717
46368W        W14762  31.899   0.466   0.235
46369W        W14763  36.978   2.681   2.108
46370W        W14764  15.718  42.085   0.327
46371W        W14765  14.283  10.670   2.924
46372W        W14766  15.803  44.727   1.345
46373W        W14767  32.882   5.137  11.589
46374W        W14768  34.020  11.598  13.661
46375W        W14769  38.766   6.158   3.087
46376W        W14770  27.460  41.962  13.039
46377W        W14771  30.412  18.716   0.459
46378W        W14772  26.030  10.979  14.362
46379W        W14773   0.272  35.972  14.894
46380W        W14774  24.251  32.794   1.003
46381W        W14775   1.830  22.497   2.795
46382W        W14776  38.631  33.882  14.373
46383W        W14777  27.190  21.546   3.027
46384W        W14778  32.923   2.896  10.660
46385W        W14779  30.044  43.025   1.841
46386W        W14780   1.241  20.877   1.293
46387W        W14781   9.676  40.088  13.422
46388W        W14782  40.159  29.508   3.064
46389W        W14783  26.708   8.628  13.826
46390W        W14784  31.621  40.115   1.729
46391W        W14785  38.522  38.745   0.930
46392W        W14786   4.463  14.878  12.070
46393W        W14787  18.734  43.074  12.306
46394W        W14788  32.343  36.831   4.127
46395W        W14789  23.454  26.700  13.319
46396W        W14790  37.793   6.862   2.439
46397W        W14791   9.624  21.486  10.615
46398W        W14792  28.832   8.656   4.428
46399W        W14793  13.661  43.598  11.783
46400W        W14794   8.767  34.095   4.030
46401W        W14795  12.203  41.825   1.462
46402W        W14796  28.962  13.919   2.127
46403W        W14797  10.816   7.252   0.747
46404W        W14798  17.041   6.831  13.395
46405W        W14799  21.148   7.667   2.883
46406W        W14800  13.821  21.119  12.087
46407W        W14801  12.589  23.735   4.568
46408W        W14802  23.345   4.701  11.173
46409W        W14803   8.848  36.941  13.461
46410W        W14804  25.984  40.401   3.366
46411W        W14805  27.903   0.886   0.836
46412W        W14806  32.878  27.152  14.101
46413W        W14807  41.022  23.075  14.017
46414W        W14808  44.370  39.760  14.359
46415W        W14809  14.503  29.443  10.777
46416W        W14810  38.784  23.513  12.028
46417W        W14811  24.706  33.728  14.469
46418W        W14812  21.624  18.527  11.869
46419W        W14813  13.430  44.309   3.773
46420W        W14814  16.166  15.208  14.987
46421W        W14815  36.059  15.715   4.025
46422W        W14816  36.068  35.051  12.443
46423W        W14817  28.209  33.830   4.488
46424W        W14818  34.384   5.332  14.773
46425W        W14819   2.934  32.913  13.485
46426W        W14820   7.371   8.472   0.317
46427W        W14821  38.889  10.415  14.380
46428W        W14822  42.780  12.244  12.944
46429W        W14823  19.470  11.823   0.855
46430W        W14824   5.340  28.644   0.910
46431W        W14825  43.483  22.860   4.629
46432W        W14826   7.253  28.012  14.530
46433W        W14827  34.201  29.167   1.948
46434W        W14828   1.919   7.737  14.530
46435W        W14829  15.692  21.207  11.159
46436W        W14830   6.904   6.657   3.074
46437W        W14831  12.243   1.794   2.130
46438W        W14832  10.808  11.445  11.060
46439W        W14833  11.719  22.530  13.127
46440W        W14834  24.059   2.371  14.366
46441W        W14835  12.273  44.879  13.319
46442W        W14836  18.840  21.237   3.315
46443W        W14837   9.337  39.454   3.877
46444W        W14838  19.130  24.938  14.007
46445W        W14839  15.261  18.515   1.321
46446W        W14840   5.739  31.643  13.057
46447W        W14841  41.033  16.021  13.488
46448W        W14842  12.205  15.603  13.072
46449W        W14843  20.765  33.548  12.940
46450W        W14844  26.135  35.063  13.988
46451W        W14845  31.171   7.797  14.233
46452W        W14846  42.844  43.991   1.323
46453W        W14847  15.361  35.367   3.148
46454W        W14848  44.440  15.297  13.955
46455W        W14849  10.663  44.461  14.410
46456W        W14850  43.303  22.503  12.225
46457W        W14851  18.574  19.293  10.261
46458W        W14852  43.868  11.715  10.942
46459W        W14853   0.948  25.986   2.879
46460W        W14854  42.849   1.074  11.537
46461W        W14855  14.687   0.440   3.729
46462W        W14856   9.300  10.199  13.027
46463W        W14857  23.984  29.066  14.785
46464W        W14858   2.412  28.920   1.587
46465W        W14859  15.582  28.959  10.603
46466W        W14860  41.862  20.983  12.987
46467W        W14861   5.316  18.433   0.410
46468W        W14862  37.239  33.319   0.529
46469W        W14863   7.252  27.947  12.107
46470W        W14864   2.027  37.290   4.182
46471W        W14865  32.192  32.675   0.428
46472W        W14866  33.021  15.347   2.697
46473W        W14867  26.528  22.262  13.066
46474W        W14868  37.889  37.376   0.310
46475W        W14869  40.265  27.982  10.739
46476W        W14870  20.242   5.811  10.531
46477W        W14871  42.092  19.153  11.237
46478W        W14872   6.485  13.777   2.246
46479W        W14873  20.663  13.941  14.109
46480W        W14874  30.974  25.548   3.381
46481W        W14875  26.740  26.810  11.157
46482W        W14876   9.373  27.060  11.590
46483W        W14877  11.245  20.183  13.546
46484W        W14878  16.165  22.581  12.754
46485W        W14879  15.008   8.854  12.083
46486W        W14880  15.090  23.800  10.651
46487W        W14881  20.210   8.742  13.036
46488W        W14882   5.269  11.625   0.976
46489W        W14883  25.693  22.153  12.383
46490W        W14884   8.383  43.542  11.035
46491W        W14885  11.254  10.407  14.099
46492W        W14886  41.082  27.090  12.557
46493W        W14887  12.679  40.586  13.960
46494W        W14888  25.637  43.012  12.998
46495W        W14889  16.532  36.624   2.138
46496W        W14890   0.561  10.220  10.730
46497W        W14891  33.380  44.089  11.163
46498W        W14892   8.129  37.327   2.316
46499W        W14893   2.815  21.863   3.347
46500W        W14894  19.267  43.242   2.323
46501W        W14895  29.540  35.953  12.375
46502W        W14896  39.966  33.680   0.469
46503W        W14897  44.360  10.388   5.131
46504W        W14898  38.077  43.834   3.219
46505W        W14899  32.582  21.169   2.317
46506W        W14900   2.842  38.404  13.374
46507W        W14901  38.012   9.474  11.616
46508W        W14902   4.415  39.143  12.953
46509W        W14903  24.909   1.964   0.407
46510W        W14904  39.309   0.060   1.502
46511W        W14905  21.019  12.001   5.297
46512W        W14906  44.778  38.062  10.935
46513W        W14907  31.800  39.307   1.355
46514W        W14908  41.486  11.835  13.911
46515W        W14909  34.942   9.777   4.549
46516W        W14910  23.628   0.857   0.676
46517W        W14911  13.637  40.518   2.210
46518W        W14912  24.689   6.915   3.118
46519W        W14913  28.731  28.373   4.524
46520W        W14914  11.323  28.083  10.607
46521W        W14915  32.143   7.713  14.502
46522W        W14916  20.355  12.347  11.375
46523W        W14917  21.060  13.440   4.184
46524W        W14918   2.199   9.361  14.961
46525W        W14919  14.320  40.822  11.712
46526W        W14920  40.595  27.939   3.749
46527W        W14921   4.281  15.704   2.310
46528W        W14922  44.833  12.669   0.641
46529W        W14923   6.000  33.125   2.268
46530W        W14924  17.095  15.972  12.342
46531W        W14925  11.852  11.591   2.900
46532W        W14926  25.856  11.297   1.778
46533W        W14927  22.621  17.479  11.100
46534W        W14928  24.548   6.355   0.922
46535W        W14929  12.904  43.876   1.211
46536W        W14930  35.554  31.896   2.186
46537W        W14931  32.191   0.524  10.184
46538W        W14932  18.282  41.685   3.998
46539W        W14933  41.297  23.112   4.305
46540W        W14934  42.023  42.889  10.281
46541W        W14935  18.829   2.496  10.702
46542W        W14936   8.450  41.323   2.335
46543W        W14937  42.596  37.301  13.797
46544W        W14938  23.927  17.556   1.764
46545W        W14939  41.542  17.555  14.401
46546W        W14940  44.206  27.523   2.664
46547W        W14941  39.030  23.346  14.804
46548W        W14942   2.816  10.679   0.513
46549W        W14943  33.130   3.746   4.547
46550W        W14944  28.911  13.568   4.314
46551W        W14945  40.250  27.858  10.164
46552W        W14946  44.056  26.008  13.862
46553W        W14947  15.025  32.345   4.346
46554W        W14948  10.018   6.969  13.861
46555W        W14949  32.463  34.903   3.376
46556W        W14950  35.474   9.681   4.576
46557W        W14951  23.349  11.626  11.589
46558W        W14952  15.069  19.557  14.007
46559W        W14953  19.325  25.944  12.961
46560W        W14954   8.921  39.261  12.002
46561W        W14955  32.035  30.884   4.164
46562W        W14956  37.746  22.065  13.288
46563W        W14957  23.963  38.363  11.777
46564W        W14958   0.490  36.130   2.883
46565W        W14959  44.836  10.931  14.704
46566W        W14960  30.730   9.975   0.522
46567W        W14961  21.703  28.129  14.186
46568W        W14962  14.176  20.676  12.668
46569W        W14963  18.815  20.170  14.980
46570W        W14964  16.807   7.820  13.972
46571W        W14965  19.254  36.510  10.328
46572W        W14966  25.643  15.199  13.788
46573W        W14967  35.070  13.727   0.894
46574W        W14968  33.689  37.396   4.596
46575W        W14969  29.678   6.905  14.829
46576W        W14970  12.892  24.969  12.102
46577W        W14971  26.186  19.319   0.895
46578W        W14972   8.314  28.051  12.900
46579W        W14973  18.651  25.484  14.818
46580W        W14974   4.338   4.044   4.909
46581W        W14975  17.481  41.532  10.537
46582W        W14976  22.171  33.591   3.381
46583W        W14977   2.422   0.477   2.277
46584W        W14978  41.080   9.302  13.334
46585W        W14979  36.182  13.854  11.214
46586W        W14980  17.638  24.274  11.154
46587W        W14981   8.893  34.784  12.475
46588W        W14982  14.349  14.080   0.488
46589W        W14983  44.405   9.883   5.033
46590W        W14984  29.721   9.884  11.118
46591W        W14985  25.302  26.743   4.307
46592W        W14986   4.530  41.454   4.168
46593W        W14987  24.542  29.467  11.122
46594W        W14988  31.617  13.852  12.106
46595W        W14989   2.582   0.304   0.425
46596W        W14990  21.922  37.567  12.122
46597W        W14991  17.817   2.441   1.379
46598W        W14992  12.517  21.593   1.271
46599W        W14993   0.476  31.158  11.467
46600W        W14994  32.088  34.326   2.758
46601W        W14995  38.564  38.026  11.465
46602W        W14996  13.988  17.168  13.951
46603W        W14997  24.710  17.973  11.490
46604W        W14998  32.520  41.539  12.615
46605W        W14999  36.099   1.405   3.143
46606W        W15000   8.642  27.245  12.286
46607W        W15001  15.777   3.780  14.990
46608W        W15002  10.659  39.105   4.161
46609W        W15003   1.509  41.420   2.847
46610W        W15004  43.133  35.380   5.002
46611W        W15005  36.941   7.558   2.920
46612W        W15006  12.858  11.849  12.659
46613W        W15007   3.738  42.513   3.378
46614W        W15008  16.243   2.967  12.083
46615W        W15009  19.838   1.261   3.947
46616W        W15010  16.207  16.591   0.000
46617W        W15011  10.712  21.015   1.633
46618W        W15012   0.844  36.083   4.101
46619W        W15013  10.298  23.687  14.488
46620W        W15014  43.554  36.102  13.011
46621W        W15015  31.840  23.921  10.699
46622W        W15016  20.221  17.754   1.763
46623W        W15017  37.040  35.026  14.547
46624W        W15018  33.439  24.842  13.596
46625W        W15019   3.726   3.403   4.859
46626W        W15020   5.969  37.924  12.612
46627W        W15021  27.606  16.904   3.636
46628W        W15022  17.530  42.585  14.021
46629W        W15023  28.139   3.001   0.450
46630W        W15024  28.075  36.664  12.168
46631W        W15025   5.832  21.676   2.919
46632W        W15026  43.379  42.831   4.096
46633W        W15027   3.001  42.488  13.017
46634W        W15028  14.364   0.952   1.327
46635W        W15029   0.426  15.098   4.570
46636W        W15030   0.190  40.314   2.325
46637W        W15031  13.739  15.762  12.679
46638W        W15032  16.584   8.452   3.564
46639W        W15033  36.880  29.673   2.571
46640W        W15034  14.270  38.277  10.706
46641W        W15035   1.990  41.644   2.258
46642W        W15036  13.766  20.819  12.950
46643W        W15037  21.190  13.210   2.129
46644W        W15038  42.477  10.749   2.225
46645W        W15039  39.518   1.270   2.389
46646W        W15040  20.432  18.986   3.104
46647W        W15041  30.712  22.571   4.068
46648W        W15042  20.591   6.394   0.455
46649W        W15043  14.262  44.190   3.289
46650W        W15044  13.156  20.255   2.410
46651W        W15045  41.533  26.673   3.556
46652W        W15046  22.007  14.745  10.599
46653W        W15047  35.076  32.550  11.983
46654W        W15048  21.769  17.598   0.401
46655W        W15049  35.916  42.528  14.665
46656W        W15050  10.230   8.903  10.233
46657W        W15051  14.568  39.795  10.196
46658W        W15052   6.743  17.905   3.578
46659W        W15053  37.520  33.500  12.402
46660W        W15054  29.208  43.318   5.002
46661W        W15055  19.617   9.147   0.774
46662W        W15056   3.713  34.664  14.978
46663W        W15057  42.773  17.585   2.280
46664W        W15058  36.408  19.359  12.980
46665W        W15059  31.205  29.571   4.065
46666W        W15060   1.712  31.483  11.444
46667W        W15061  33.507  40.884   2.384
46668W        W15062  34.156  20.386   4.122
46669W        W15063  34.013  19.567  14.896
46670W        W15064  43.520  32.426  13.804
46671W        W15065  24.683  10.198   1.950
46672W        W15066  43.989  18.741   1.199
46673W        W15067   4.522  23.746  12.923
46674W        W15068  39.592   5.678  13.374
46675W        W15069  31.291  30.624  13.845
46676W        W15070  10.812  25.623   4.464
46677W        W15071  10.124  32.694  14.934
46678W        W15072  38.973  32.978  14.506
46679W        W15073   5.697  23.224  14.290
46680W        W15074  19.950  19.992  12.900
46681W        W15075  41.512  43.511   4.224
46682W        W15076  36.071  20.084  10.574
46683W        W15077   4.931  12.014  14.371
46684W        W15078  34.006  33.818   2.563
46685W        W15079  28.237  22.602   0.853
46686W        W15080  31.558  15.181   2.679
46687W        W15081  32.709  28.058  10.996
46688W        W15082  26.672   0.105   9.615
46689W        W15083  44.452   1.438   3.378
46690W        W15084  26.107  23.046  14.680
46691W        W15085  34.567   0.777  14.517
46692W        W15086  25.450  41.515  12.043
46693W        W15087  28.228  29.597   2.696
46694W        W15088   8.675  24.453  13.414
46695W        W15089   7.262  23.879  14.249
46696W        W15090  24.608   5.448  12.340
46697W        W15091   8.831   7.795  14.907
46698W        W15092  10.101  23.463   0.489
46699W        W15093   3.707  36.589  12.485
46700W        W15094  43.014  15.821   3.014
46701W        W15095  40.949  21.080   2.602
46702W        W15096  42.790  23.620   4.147
46703W        W15097  16.590  26.012   3.258
46704W        W15098  24.189  24.447   1.756
46705W        W15099   7.665  30.533  14.335
46706W        W15100   4.667  14.000  14.449
46707W        W15101  31.858   9.206  13.456
46708W        W15102  35.963  35.846   3.594
46709W        W15103  34.675   0.170  12.819
46710W        W15104  41.966  43.758   4.399
46711W        W15105  28.451  14.066   1.221
46712W        W15106  43.461   0.497  11.021
46713W        W15107  43.205  21.286   3.331
46714W        W15108   2.460  13.141   0.807
46715W        W15109  27.398   3.398  10.741
46716W        W15110   2.771  27.315  13.765
46717W        W15111  10.235  11.341  14.095
46718W        W15112  41.944  17.621   4.549
46719W        W15113  23.259  38.883   0.425
46720W        W15114  34.950  18.966   3.793
46721W        W15115   8.191  24.608   0.357
46722W        W15116  39.812   9.832   2.201
46723W        W15117   7.889   2.301   2.070
46724W        W15118  23.923   8.155  12.880
46725W        W15119  38.339  29.885   4.107
46726W        W15120  10.722  32.419   3.572
46727W        W15121  15.650  17.915   5.452
46728W        W15122   9.526  43.004  14.859
46729W        W15123  18.721  13.705  11.392
46730W        W15124  25.382   3.207   1.547
46731W        W15125  34.609  36.901   1.819
46732W        W15126  34.079  38.081  13.603
46733W        W15127  43.361  18.410   1.408
46734W        W15128  16.811  22.783   3.616
46735W        W15129  23.796  41.617  14.361
46736W        W15130   3.030   9.678  14.942
46737W        W15131   3.275  19.056   4.907
46738W        W15132  37.765  26.541  12.374
46739W        W15133   1.495   4.525  11.636
46740W        W15134  34.571   8.982   3.488
46741W        W15135  11.144  34.241   2.282
46742W        W15136  11.152   4.836  13.435
46743W        W15137  16.807  15.452   1.762
46744W        W15138   9.647  34.449  11.987
46745W        W15139  31.968  42.931  11.450
46746W        W15140  18.230  15.073  13.844
46747W        W15141  40.940  30.009   3.921
46748W        W15142  21.799  10.869  12.404
46749W        W15143   7.822  24.068  12.092
46750W        W15144  21.625  17.622   1.394
46751W        W15145  37.910   3.105  12.405
46752W        W15146  18.139   2.708   3.142
46753W        W15147  17.526  34.391  13.895
46754W        W15148  33.312  20.220  14.113
46755W        W15149  19.533  20.237   1.446
46756W        W15150   7.450  13.878  12.010
46757W        W15151   3.283   8.845   3.905
46758W        W15152   8.119  40.298   1.756
46759W        W15153  11.298  41.746   1.233
46760W        W15154  29.013  41.430  10.633
46761W        W15155   3.239  36.857  13.997
46762W        W15156  32.668  35.554  14.865
46763W        W15157   2.990   0.894  14.947
46764W        W15158  31.754  43.910  13.026
46765W        W15159  15.200  15.676  10.378
46766W        W15160  15.747  34.145   1.432
46767W        W15161  21.126  12.485   5.095
46768W        W15162   1.182   0.214  11.709
46769W        W15163  12.053  24.219   3.275
46770W        W15164  18.035  19.632  11.546
46771W        W15165  19.032  31.414  14.403
46772W        W15166  11.645   8.807  13.135
46773W        W15167  24.601  43.989   4.254
46774W        W15168  15.118  15.492   2.769
46775W        W15169   7.819  37.918  12.401
46776W        W15170  13.157  44.868   0.892
46777W        W15171  28.959  15.960   2.284
46778W        W15172  36.387  36.522  13.902
46779W        W15173  26.968  42.334   4.927
46780W        W15174  16.935  28.966   3.673
46781W        W15175  30.410  28.632  13.626
46782W        W15176  12.207  13.378   1.373
46783W        W15177   2.363  33.642   1.371
46784W        W15178  15.100   0.188   1.950
46785W        W15179  25.147  16.762   0.549
46786W        W15180   3.387  40.784  12.833
46787W        W15181  11.774  27.021   4.688
46788W        W15182  22.447  13.550  11.530
46789W        W15183  13.327  22.493   1.687
46790W        W15184  34.917   4.744  13.939
46791W        W15185   2.870  27.808  13.888
46792W        W15186  26.674   0.311  12.053
46793W        W15187  42.346  34.254   0.302
46794W        W15188  15.518   3.925   4.750
46795W        W15189  11.699  21.452  14.696
46796W        W15190  43.728  20.990  13.792
46797W        W15191   5.429   2.666   3.690
46798W        W15192   6.347   0.248  14.821
46799W        W15193  10.372  19.209   4.663
46800W        W15194   7.136  44.871   3.505
46801W        W15195   1.592   4.559   4.583
46802W        W15196  22.562  27.866   3.673
46803W        W15197  16.796  35.347  12.985
46804W        W15198  41.450  44.875  13.467
46805W        W15199  11.772  12.265   3.398
46806W        W15200  17.087  31.946   9.901
46807W        W15201  44.799  30.498  12.476
46808W        W15202  27.194  38.393   3.251
46809W        W15203  37.444  37.490   1.258
46810W        W15204  30.412   6.870  11.460
46811W        W15205  30.786  14.348   4.133
46812W        W15206  43.419  10.785  12.158
46813W        W15207  27.225  28.736   0.946
46814W        W15208   7.879   0.344  14.114
46815W        W15209  12.122  36.058  13.244
46816W        W15210  40.073   6.896   0.698
46817W        W15211  13.126  30.664   1.907
46818W        W15212  26.196  42.179  10.065
46819W        W15213   4.253  35.400   3.093
46820W        W15214  11.180   2.461  12.069
46821W        W15215   4.362   1.837   3.811
46822W        W15216  28.587  38.609   1.827
46823W        W15217   6.418   1.743   5.418
46824W        W15218  42.863  16.328  13.813
46825W        W15219  14.191   8.301   2.478
46826W        W15220   3.827   3.723   3.071
46827W        W15221  22.019   8.085   2.435
46828W        W15222  23.190  17.115   0.898
46829W        W15223  34.888  17.801   0.690
46830W        W15224  17.541  43.559   0.388
46831W        W15225  31.895  33.887  10.786
46832W        W15226  44.013  11.116  14.356
46833W        W15227  24.371   1.838  11.262
46834W        W15228  11.306  33.466   2.666
46835W        W15229  37.590   6.304   0.988
46836W        W15230   2.459  13.550  13.943
46837W        W15231  11.236  30.875  13.010
46838W        W15232  27.848  24.288   0.858
46839W        W15233  18.157  38.526  14.445
46840W        W15234  43.947  29.539  14.452
46841W        W15235   6.492  43.394  13.995
46842W        W15236  39.993  33.402   0.907
46843W        W15237   8.762   1.494   1.965
46844W        W15238  13.274  31.678  11.614
46845W        W15239   0.185   1.701   1.422
46846W        W15240   2.423  19.579  13.983
46847W        W15241   6.072  16.054   0.838
46848W        W15242  20.943   4.937   5.095
46849W        W15243   3.147   6.603  11.480
46850W        W15244   5.500  18.681   3.618
46851W        W15245  28.739  18.356   3.270
46852W        W15246   1.760  11.217  11.618
46853W        W15247  12.926   9.289  13.512
46854W        W15248  40.618   1.006   3.788
46855W        W15249   0.829  12.339   4.203
46856W        W15250  40.903   4.946   0.852
46857W        W15251   0.734  11.099  13.924
46858W        W15252  23.000  31.557  12.542
46859W        W15253  25.107  29.445   0.492
46860W        W15254  33.458  25.449  11.234
46861W        W15255  32.171   9.139   3.301
46862W        W15256   8.368   5.150  12.977
46863W        W15257  39.876   3.809  11.231
46864W        W15258  21.209   0.613   5.053
46865W        W15259  16.394  23.976   0.843
46866W        W15260  21.945   7.180   4.160
46867W        W15261  44.768  23.205   3.770
46868W        W15262  21.171  27.184   3.285
46869W        W15263  28.550  21.372   0.297
46870W        W15264  22.592  20.962  11.776
46871W        W15265  17.479  19.276   4.129
46872W        W15266  31.704  32.968   2.174
46873W        W15267  27.695  21.972   1.326
46874W        W15268   7.698  18.641   4.278
46875W        W15269  11.336  33.332  13.955
46876W        W15270  27.221   3.243  12.069
46877W        W15271  24.847  16.703  13.911
46878W        W15272  29.995  35.431  13.960
46879W        W15273  10.389  17.166  14.078
46880W        W15274  20.578  43.981   2.950
46881W        W15275  11.810   2.663   3.675
46882W        W15276   8.259  22.033  12.446
46883W        W15277  14.783  30.652   3.239
46884W        W15278  29.126  38.552  13.443
46885W        W15279   6.372  10.321  13.978
46886W        W15280  17.085  41.124  12.887
46887W        W15281  41.461  23.554   4.543
46888W        W15282   9.403   0.860  12.876
46889W        W15283   0.110  16.601   4.700
46890W        W15284  20.244  44.068  12.918
46891W        W15285  39.860  38.328   4.045
46892W        W15286   1.169  24.221  13.806
46893W        W15287   2.016  19.939  13.976
46894W        W15288  27.140   1.271  11.538
46895W        W15289  40.207  11.626  14.437
46896W        W15290   5.193  13.682   1.941
46897W        W15291   1.734  13.214  11.599
46898W        W15292  27.726   4.214   1.017
46899W        W15293  44.310  41.930   4.521
46900W        W15294  19.047  20.724   4.579
46901W        W15295  41.778  19.444   2.842
46902W        W15296  38.910  39.945  13.070
46903W        W15297  35.383  11.131   3.123
46904W        W15298  23.868  30.618  11.469
46905W        W15299  44.082   4.859   2.452
46906W        W15300   0.497   6.432  13.952
46907W        W15301   9.348  29.653  11.687
46908W        W15302  28.104  25.748  11.409
46909W        W15303  29.253  15.415  12.964
46910W        W15304  41.708  21.202  10.006
46911W        W15305  38.813  34.829  10.979
46912W        W15306  19.623  16.464   3.721
46913W        W15307  35.508  14.330  12.558
46914W        W15308   2.820  37.988  10.683
46915W        W15309  36.610  11.667   3.737
46916W        W15310  42.895  27.464  14.431
46917W        W15311   2.929  14.323   1.703
46918W        W15312   4.266  21.237  11.417
46919W        W15313  20.673  17.062  10.262
46920W        W15314  13.214  19.793   0.046
46921W        W15315  15.204   3.812   1.956
46922W        W15316  10.375   6.582  11.516
46923W        W15317  37.138  11.270  13.750
46924W        W15318  42.184   1.380  14.060
46925W        W15319  27.976  12.122   1.496
46926W        W15320   4.744  24.224  11.442
46927W        W15321  11.791  14.709  11.041
46928W        W15322  26.475  40.280  13.496
46929W        W15323   2.864  42.904   1.723
46930W        W15324  39.950  35.420   1.025
46931W        W15325   3.700  15.774  11.115
46932W        W15326  38.552  26.952  10.820
46933W        W15327   8.970  36.900   1.636
46934W        W15328  26.142  30.256  14.938
46935W        W15329  37.555  38.585   3.547
46936W        W15330  11.555   0.733   4.980
46937W        W15331  41.177  19.062   4.391
46938W        W15332   0.031  11.324  14.397
46939W        W15333   3.340  21.575   1.227
46940W        W15334  28.142  15.503   3.963
46941W        W15335  11.680  19.260  12.117
46942W        W15336  43.527  16.895  11.071
46943W        W15337   1.751  38.035  12.420
46944W        W15338  39.384  26.115   4.602
46945W        W15339   6.559  19.826  11.514
46946W        W15340   1.677   4.376   1.869
46947W        W15341  34.963  44.001   0.244
46948W        W15342  23.548  40.856  13.561
46949W        W15343  27.501   5.594  14.668
46950W        W15344  38.829   2.291   4.726
46951W        W15345  29.849   5.914   2.612
46952W        W15346  44.264   4.055  14.246
46953W        W15347  22.848   9.778   2.827
46954W        W15348   4.337  16.222   1.053
46955W        W15349  12.462   9.450   0.820
46956W        W15350  18.146  24.550   1.851
46957W        W15351  22.738  33.886   3.356
46958W        W15352  44.849  33.574   4.279
46959W        W15353  34.480  19.280  13.838
46960W        W15354  39.560  23.199  11.646
46961W        W15355  20.970   3.864  11.544
46962W        W15356  29.582  24.808  14.354
46963W        W15357   3.914  20.695  14.370
46964W        W15358   4.714  12.750  13.386
46965W        W15359  27.314  36.060   0.727
46966W        W15360  22.263  24.238  14.387
46967W        W15361  30.497   4.451   0.325
46968W        W15362   8.759  37.983   2.641
46969W        W15363  10.107  42.031  11.941
46970W        W15364   7.574  39.249  14.956
46971W        W15365  24.272  34.765  13.514
46972W        W15366  19.451   4.880   2.233
46973W        W15367  10.273   3.367  13.846
46974W        W15368  39.773  16.328   3.713
46975W        W15369  11.450  28.425  13.085
46976W        W15370   7.901  31.947   1.129
46977W        W15371  17.750  16.166  13.481
46978W        W15372   6.239  11.981  13.020
46979W        W15373  11.298   5.216   2.226
46980W        W15374  35.911   0.836   4.482
46981W        W15375  16.795  13.790   1.883
46982W        W15376   4.027  23.107  10.735
46983W        W15377  37.494  43.438   0.343
46984W        W15378  15.391  14.603   2.179
46985W        W15379   0.779  41.013   2.713
46986W        W15380  26.949  22.620   1.224
46987W        W15381  33.131  16.954   4.024
46988W        W15382  16.695  40.168  11.571
46989W        W15383   4.140   5.814   2.809
46990W        W15384  17.368  24.658   1.332
46991W        W15385  26.896  42.602   4.086
46992W        W15386  20.571  14.283  14.797
46993W        W15387  42.864  25.431   1.795
46994W        W15388  15.659  19.832   1.247
46995W        W15389  20.621  41.922  12.856
46996W        W15390  40.930   9.555   2.304
46997W        W15391  22.986  36.332  11.296
46998W        W15392  34.282  10.147   2.226
46999W        W15393  41.768  40.929   3.797
47000W        W15394   3.755  41.405   0.922
47001W        W15395  31.710   8.303  13.880
47002W        W15396  35.656  30.912  12.661
47003W        W15397  42.732  22.505  12.082
47004W        W15398  41.865  26.915  11.907
47005W        W15399  38.531  15.785   2.892
47006W        W15400  22.127  25.210   5.139
47007W        W15401  34.992   1.567   1.889
47008W        W15402  11.718  19.821   0.008
47009W        W15403   1.509  18.830   2.670
47010W        W15404   3.368  39.399   0.315
47011W        W15405   2.507   8.345   4.737
47012W        W15406  37.345  16.961  11.873
47013W        W15407  27.054  42.821   2.827
47014W        W15408  17.280   6.762  12.009
47015W        W15409   8.676  34.532  13.467
47016W        W15410  21.674  41.445  13.541
47017W        W15411  36.828  14.614  14.816
47018W        W15412   4.630   5.664  14.978
47019W        W15413  44.164   6.757  14.997
47020W        W15414  19.996  16.084   1.294
47021W        W15415  36.479  44.942   4.496
47022W        W15416  38.942  37.514  12.980
47023W        W15417  38.597  32.168   0.999
47024W        W15418  29.962  10.764  14.102
47025W        W15419   4.507  21.927  12.097
47026W        W15420  32.022   0.889   4.029
47027W        W15421  38.541  35.420  10.649
47028W        W15422   7.325  32.068  12.891
47029W        W15423  16.800  38.528  14.978
47030W        W15424  44.727  15.785   3.639
47031W        W15425  35.275  40.381   2.758
47032W        W15426  10.243  35.296   3.911
47033W        W15427  17.710   2.968  11.922
47034W        W15428   9.245  25.103  11.827
47035W        W15429   3.614  33.524   3.693
47036W        W15430   0.920  35.882   1.800
47037W        W15431  19.067   4.409  13.464
47038W        W15432  11.677  30.342   1.706
47039W        W15433  33.362  21.442  10.052
47040W        W15434  16.992  29.712  11.129
47041W        W15435   4.472   4.421  13.504
47042W        W15436  30.003   0.686   4.887
47043W        W15437  30.149  10.316  14.288
47044W        W15438  32.368  35.096  11.141
47045W        W15439  31.563  22.632   3.863
47046W        W15440  10.536  29.302   3.214
47047W        W15441  21.126  32.241  12.591
47048W        W15442  18.755  21.063  11.185
47049W        W15443   8.193  24.543  13.553
47050W        W15444  44.193  27.495  13.882
47051W        W15445   1.343  12.224   2.011
47052W        W15446   4.308  15.278  10.396
47053W        W15447  36.537  33.961   4.870
47054W        W15448  28.767  22.646   0.819
47055W        W15449  31.387   3.000   4.705
47056W        W15450  40.028  15.137   3.904
47057W        W15451  32.318   2.252  12.596
47058W        W15452   5.665  13.497   4.199
47059W        W15453   9.412  40.951  12.100
47060W        W15454  18.738   3.407  13.835
47061W        W15455  18.669  36.988   4.469
47062W        W15456  14.519  24.998   4.452
47063W        W15457   6.984  12.729  12.833
47064W        W15458   5.599   2.545  10.220
47065W        W15459  11.098  14.658   3.754
47066W        W15460  34.358  29.060  11.703
47067W        W15461  13.913   1.734   0.419
47068W        W15462  10.230  25.403   1.463
47069W        W15463   9.883  12.378  11.434
47070W        W15464  39.903  16.630   2.684
47071W        W15465  17.117  11.115  14.891
47072W        W15466  30.835  12.964   0.753
47073W        W15467  19.816  27.011  14.944
47074W        W15468  15.260  28.169   3.119
47075W        W15469  10.964  31.552   1.731
47076W        W15470  34.966  33.590   2.252
47077W        W15471  35.045  26.493  11.990
47078W        W15472  17.600  19.792  12.018
47079W        W15473  43.198  41.786  14.956
47080W        W15474  16.132  20.510   1.031
47081W        W15475  40.378  30.452  12.304
47082W        W15476  10.140  18.061  10.506
47083W        W15477  15.835  43.946   1.809
47084W        W15478  42.062  44.153   3.624
47085W        W15479   8.312  16.225  10.757
47086W        W15480  24.057  41.384  12.043
47087W        W15481   5.314   0.053   3.281
47088W        W15482  19.162  38.936  11.601
47089W        W15483   7.621  43.901   4.651
47090W        W15484  44.319  43.692  12.514
47091W        W15485  27.523  41.563   3.369
47092W        W15486  44.398   2.823  11.188
47093W        W15487   6.339  34.005  14.698
47094W        W15488   2.092   0.343   0.645
47095W        W15489  27.143   6.407  12.668
47096W        W15490  10.729  40.909  11.630
47097W        W15491   8.904  35.792   1.895
47098W        W15492  21.808  35.764   0.973
47099W        W15493   8.903   4.770   1.853
47100W        W15494   7.700  19.344  12.925
47101W        W15495  11.256  13.635  13.808
47102W        W15496  31.871  30.618   2.806
47103W        W15497   1.831   1.440   0.041
47104W        W15498  43.036  27.148   1.797
47105W        W15499  35.329  27.996  13.449
47106W        W15500  32.532  23.023   2.912
47107W        W15501  18.256   6.952   2.253
47108W        W15502  29.435   5.210   0.456
47109W        W15503  41.460  22.813   0.734
47110W        W15504  12.653  22.283   4.801
47111W        W15505  38.053  27.486   1.250
47112W        W15506  15.079  41.076  13.602
47113W        W15507   2.058  40.840  14.798
47114W        W15508  13.259  35.848   1.354
47115W        W15509  20.671  10.468   2.148
47116W        W15510  23.566   8.957  10.654
47117W        W15511  17.694  31.623  12.599
47118W        W15512  22.979  42.731   2.283
47119W        W15513  35.367  22.641   4.265
47120W        W15514   2.198  32.879   3.287
47121W        W15515   6.876   1.180   1.251
47122W        W15516  20.710  20.364  12.375
47123W        W15517  26.169   7.078   1.678
47124W        W15518  17.098  12.897  12.384
47125W        W15519  25.248   8.537  14.471
47126W        W15520  38.814  19.146   4.758
47127W        W15521   5.610  30.424   5.002
47128W        W15522   8.604  13.427  13.326
47129W        W15523  33.562  29.555  11.668
47130W        W15524   4.003  21.351  10.579
47131W        W15525  29.075   4.298  11.571
47132W        W15526  42.955  24.208   0.266
47133W        W15527   1.436  16.670  13.163
47134W        W15528  22.514   8.231   2.298
47135W        W15529  27.530   7.867   1.922
47136W        W15530  31.153  13.542  14.025
47137W        W15531  14.397  31.603   3.036
47138W        W15532  29.162  10.156   0.799
47139W        W15533  43.721  27.640  13.679
47140W        W15534   8.895  26.419  10.360
47141W        W15535  13.765  31.425  10.747
47142W        W15536   4.980  11.245  13.650
47143W        W15537  17.382  25.849  11.590
47144W        W15538   0.458   4.491  14.279
47145W        W15539  30.931  34.830  11.202
47146W        W15540   8.882   0.585  11.462
47147W        W15541  38.421  14.705  11.639
47148W        W15542   5.731   3.204   0.237
47149W        W15543  19.376  36.359   9.833
47150W        W15544  32.490  31.484   4.584
47151W        W15545  16.330  29.165  14.458
47152W        W15546  23.015   3.974  10.719
47153W        W15547   5.860  11.241  12.835
47154W        W15548  10.288  36.593   2.267
47155W        W15549  28.135   0.067   4.982
47156W        W15550   1.419  37.135   3.394
47157W        W15551  10.579  39.067   0.219
47158W        W15552  18.081  23.238  13.456
47159W        W15553   8.781  31.408   3.841
47160W        W15554  14.031  37.644  11.624
47161W        W15555  17.297  18.524  13.890
47162W        W15556  14.277  14.437   4.609
47163W        W15557  16.113  30.909   0.508
47164W        W15558  26.145   1.083  14.306
47165W        W15559  35.076  39.856  14.388
47166W        W15560  29.533  21.066  14.296
47167W        W15561  29.329   9.668  11.362
47168W        W15562   6.232  41.623   3.632
47169W        W15563   1.838  18.291  12.755
47170W        W15564  24.719  30.558  13.751
47171W        W15565  33.067  28.234   4.226
47172W        W15566  13.227  41.390   2.849
47173W        W15567  32.844  37.266   4.217
47174W        W15568  10.942  32.057   3.910
47175W        W15569   7.771  20.547   4.192
47176W        W15570   5.884  13.163  10.178
47177W        W15571  21.738  17.061   2.204
47178W        W15572  23.221  31.873   2.408
47179W        W15573  11.361   4.264   2.160
47180W        W15574  27.436   8.893  14.926
47181W        W15575  29.881  30.375  11.193
47182W        W15576   1.476  21.554   4.081
47183W        W15577  16.212  25.705  10.442
47184W        W15578  26.504  42.946  14.826
47185W        W15579   9.381  39.318  10.729
47186W        W15580  15.854  24.156   0.849
47187W        W15581  20.562  26.103   4.575
47188W        W15582  18.548  12.835  13.432
47189W        W15583  31.624   4.440  13.397
47190W        W15584   4.304  32.431   4.050
47191W        W15585  44.997  22.461   2.827
47192W        W15586  41.863  21.491   0.907
47193W        W15587   8.906  34.436   1.214
47194W        W15588  37.049  18.144   1.974
47195W        W15589  43.097  23.642  10.651
47196W        W15590  21.480  25.191   1.703
47197W        W15591  43.877  30.715  11.578
47198W        W15592   5.940  36.909  11.074
47199W        W15593  39.363  20.741  10.859
47200W        W15594   9.757  18.780  14.986
47201W        W15595  39.324   5.741  12.508
47202W        W15596   3.691  12.600  10.796
47203W        W15597  33.458  38.157  14.999
47204W        W15598  31.422  13.671  12.579
47205W        W15599  26.413  30.480  10.133
47206W        W15600  38.937  24.402   2.322
47207W        W15601  27.049   1.481  13.825
47208W        W15602  24.490   0.331   4.594
47209W        W15603  29.079  40.000  11.206
47210W        W15604  41.029   4.238   0.396
47211W        W15605  26.502   9.382   2.149
47212W        W15606  25.568  31.076  13.832
47213W        W15607  13.538  27.728  13.927
47214W        W15608  24.917  21.230  11.630
47215W        W15609  36.971  19.666   1.767
47216W        W15610   3.724  31.886   3.344
47217W        W15611  21.258  34.023   4.205
47218W        W15612  35.559  10.276  10.697
47219W        W15613  27.367   0.398   2.832
47220W        W15614  19.000  39.003   2.306
47221W        W15615   8.575  12.468   0.235
47222W        W15616  41.510   4.336   1.435
47223W        W15617  30.093   6.944   0.447
47224W        W15618  13.642  13.289   0.350
47225W        W15619  40.507  36.898  14.235
47226W        W15620  19.190  27.941   4.187
47227W        W15621   7.154  25.974   0.910
47228W        W15622  34.925  24.472   0.352
47229W        W15623  23.523  36.550  14.315
47230W        W15624  43.748   0.470   3.460
47231W        W15625   1.248  19.931  10.751
47232W        W15626   7.753  44.878  13.332
47233W        W15627  31.109  16.158   1.949
47234W        W15628  21.059  28.602  14.438
47235W        W15629  43.451  39.233   0.286
47236W        W15630  24.202  16.821  13.365
47237W        W15631  10.219  12.605  11.051
47238W        W15632  25.205  34.306   4.579
47239W        W15633   6.381  39.544  13.370
47240W        W15634  17.606  43.327  11.690
47241W        W15635  33.665   8.905  11.261
47242W        W15636  31.926  25.422  10.754
47243W        W15637  43.006   4.487  12.489
47244W        W15638  20.046  33.022   1.457
47245W        W15639  27.247  37.484  13.860
47246W        W15640  32.296   6.808  14.203
47247W        W15641  38.089  35.556  11.528
47248W        W15642  30.682  11.659  13.301
47249W        W15643  24.706   3.685  12.972
47250W        W15644  35.642   6.619   2.803
47251W        W15645  41.276  20.514  13.524
47252W        W15646  30.080  30.963   1.338
47253W        W15647  32.243  16.981   0.366
47254W        W15648  30.178  10.361  13.249
47255W        W15649  29.361  18.020  11.064
47256W        W15650  32.039  17.772   4.636
47257W        W15651  36.051  18.600  14.601
47258W        W15652  29.213  28.398   3.683
47259W        W15653  41.509  44.796   3.280
47260W        W15654  19.950  29.497   4.836
47261W        W15655  26.574  30.061   1.409
47262W        W15656  34.979  36.579  10.627
47263W        W15657  17.811  16.788   4.499
47264W        W15658  38.670  12.844  11.637
47265W        W15659  41.542  39.952   1.308
47266W        W15660  19.798   4.712  14.292
47267W        W15661  24.585  31.026  13.988
47268W        W15662  11.601  11.064   3.756
47269W        W15663  34.053   2.827  12.412
47270W        W15664   6.622   0.272   4.524
47271W        W15665  38.139  25.658   1.538
47272W        W15666  29.016  22.021  13.106
47273W        W15667  29.676   3.828  10.833
47274W        W15668  41.635   5.296  13.968
47275W        W15669  11.670  35.793  13.298
47276W        W15670  41.517  42.800  10.419
47277W        W15671  10.860  33.158   0.324
47278W        W15672  30.209  26.513   0.354
47279W        W15673  29.404   0.065   2.856
47280W        W15674  24.019  21.458  12.033
47281W        W15675  37.512  31.058  13.036
47282W        W15676   8.694   7.619   0.362
47283W        W15677  42.256   9.564   3.338
47284W        W15678  31.528  25.101  10.721
47285W        W15679  24.054  28.956  14.278
47286W        W15680  10.093   4.139   4.553
47287W        W15681   2.509  28.709  13.991
47288W        W15682   4.836  16.490   2.754
47289W        W15683   5.077  26.765   2.219
47290W        W15684   5.616  11.691   3.118
47291W        W15685  28.027  33.894  11.534
47292W        W15686  38.353  43.493  13.871
47293W        W15687  12.105  36.192  11.110
47294W        W15688  44.838  24.606   4.264
47295W        W15689  14.364   4.193   1.145
47296W        W15690   2.163  12.555  12.003
47297W        W15691   0.965   1.955  14.320
47298W        W15692   4.931  20.529   1.830
47299W        W15693  24.355  36.528  13.404
47300W        W15694  11.761  42.683   4.894
47301W        W15695   9.049  30.042   0.775
47302W        W15696  40.762  38.387   0.724
47303W        W15697   2.703  17.071   2.381
47304W        W15698  22.555   3.393   0.925
47305W        W15699  38.938  10.664   0.340
47306W        W15700  26.397  13.335  10.308
47307W        W15701   1.429  17.524   4.031
47308W        W15702  21.303  27.456   1.623
47309W        W15703  12.601  30.244   3.725
47310W        W15704  24.979   3.459   2.282
47311W        W15705  22.355   0.841   1.457
47312W        W15706  29.098  30.928  11.124
47313W        W15707  35.349  29.096   3.919
47314W        W15708  17.134  13.844  10.738
47315W        W15709  14.290  26.265   1.757
47316W        W15710  15.882  15.835  14.783
47317W        W15711  27.095  23.129  13.987
47318W        W15712  40.640  33.919   2.429
47319W        W15713   1.955  13.146   4.559
47320W        W15714  36.940   5.906  13.437
47321W        W15715  37.984  39.290  11.148
47322W        W15716  41.362   1.753  14.678
47323W        W15717  24.699  13.870   1.297
47324W        W15718  24.462  34.661   0.790
47325W        W15719  30.607  19.660   0.253
47326W        W15720  36.353   8.607  13.943
47327W        W15721  28.871  27.542  13.594
47328W        W15722   4.316  36.272  11.081
47329W        W15723   8.169  13.355   1.456
47330W        W15724  18.188  10.692   1.888
47331W        W15725  22.264   0.642  12.395
47332W        W15726   9.384  33.518   4.605
47333W        W15727  24.553   7.396   2.989
47334W        W15728  13.369  14.046  11.463
47335W        W15729  36.845  23.967  13.562
47336W        W15730  27.599  44.551   2.456
47337W        W15731   1.973  22.439  11.442
47338W        W15732  42.571  22.958  13.480
47339W        W15733  14.907  38.308   0.947
47340W        W15734  23.782  22.782   3.605
47341W        W15735  31.681  30.827   0.338
47342W        W15736  12.926  36.881   2.109
47343W        W15737  16.349  32.110   4.539
47344W        W15738  22.740  35.067   2.151
47345W        W15739   5.403  35.813   1.885
47346W        W15740  35.127  37.519   2.160
47347W        W15741   7.804   4.946   1.872
47348W        W15742   9.329   3.275  10.979
47349W        W15743  10.784  23.437  10.693
47350W        W15744  40.487  23.595   3.542
47351W        W15745  42.335  11.857   1.835
47352W        W15746   7.106  17.613  10.856
47353W        W15747  33.008  13.408   3.130
47354W        W15748  31.846  23.699  11.422
47355W        W15749  34.939  25.638   3.907
47356W        W15750  40.986  31.817  10.248
47357W        W15751  44.700  11.612  11.628
47358W        W15752  34.352  18.543   0.091
47359W        W15753   1.730  37.776   1.755
47360W        W15754  23.920  37.284   4.600
47361W        W15755  26.973  10.789   0.308
47362W        W15756  30.078  21.762   4.860
47363W        W15757   3.912  25.012   0.770
47364W        W15758   6.271  18.068  11.198
47365W        W15759  36.567  28.084   3.149
47366W        W15760  24.991   9.264  12.944
47367W        W15761  21.208  21.760   2.869
47368W        W15762  20.197  31.195   3.737
47369W        W15763  35.445  32.695  12.878
47370W        W15764   7.213   0.535   3.279
47371W        W15765  14.143  16.153  11.669
47372W        W15766   5.526  23.462  11.528
47373W        W15767  15.246  22.014  14.985
47374W        W15768  17.699  19.295  12.030
47375W        W15769  21.098  37.258  10.716
47376W        W15770  43.080  33.923  11.239
47377W        W15771  24.323  12.432   0.771
47378W        W15772  36.914  25.810   1.014
47379W        W15773  20.193  27.253  12.400
47380W        W15774  14.107  38.033  12.972
47381W        W15775  29.086  10.157   3.302
47382W        W15776  10.079  28.997   4.060
47383W        W15777  15.005  35.264  12.555
47384W        W15778  20.413  29.501   0.885
47385W        W15779   6.438  29.488  10.783
47386W        W15780  34.893  38.085  11.634
47387W        W15781   5.819   9.783  14.036
47388W        W15782   8.503  13.784   1.431
47389W        W15783  16.363   5.964   1.287
47390W        W15784   8.848   3.408  13.288
47391W        W15785  26.772  20.710  13.912
47392W        W15786  15.523  37.918  11.086
47393W        W15787  41.574  16.799  13.383
47394W        W15788  22.416   1.742   0.896
47395W        W15789  43.545   0.899   2.316
47396W        W15790  36.528  28.058  10.813
47397W        W15791  31.069   4.551   3.989
47398W        W15792   1.792  32.699  12.363
47399W        W15793  32.510   7.621   3.913
47400W        W15794   8.954  11.933  11.867
47401W        W15795  34.327  20.651   2.269
47402W        W15796   2.717  14.896  13.486
47403W        W15797  23.868   9.124   5.291
47404W        W15798  36.681  27.070  14.249
47405W        W15799  20.576  15.393   0.761
47406W        W15800   2.995   1.719   2.655
47407W        W15801  22.750   5.581  11.187
47408W        W15802  40.203  37.606   2.899
47409W        W15803  29.086  28.708  11.581
47410W        W15804  39.418   5.981  12.973
47411W        W15805   6.970  18.744   0.204
47412W        W15806  25.495  34.283  14.357
47413W        W15807   6.905  33.181   1.962
47414W        W15808   2.393   5.058  10.944
47415W        W15809   3.277  39.524   0.852
47416W        W15810  34.542  14.166   4.855
47417W        W15811  34.984   7.488   1.301
47418W        W15812  26.596  16.016   0.869
47419W        W15813  28.174  13.585  11.094
47420W        W15814   1.589  44.056  12.094
47421W        W15815  24.607   2.259   0.716
47422W        W15816   9.810   8.684  11.012
47423W        W15817  27.156  32.045  14.897
47424W        W15818  24.794  32.538   4.627
47425W        W15819  36.566  12.896  14.048
47426W        W15820  11.637  11.572   0.142
47427W        W15821  36.618  31.042   2.896
47428W        W15822   4.275  44.975  11.918
47429W        W15823  26.526  19.678  14.036
47430W        W15824   0.391  25.997  12.531
47431W        W15825  16.715  13.204  14.444
47432W        W15826  22.545  19.812  12.400
47433W        W15827  21.100  35.021  12.000
47434W        W15828  10.758  36.355  13.947
47435W        W15829  14.239  36.580   1.880
47436W        W15830  11.747  23.230  12.417
47437W        W15831   8.887   6.766  14.926
47438W        W15832  13.864  34.526  11.442
47439W        W15833  16.506  26.129  14.297
47440W        W15834  31.932   4.647  11.074
47441W        W15835   2.007   6.754   2.678
47442W        W15836  37.746  37.313   4.061
47443W        W15837  10.387  28.010  11.491
47444W        W15838  10.451  16.717  13.818
47445W        W15839  32.244  32.253  10.077
47446W        W15840  33.622   0.719   0.010
47447W        W15841  31.433  21.218   2.966
47448W        W15842  21.399   5.667   1.286
47449W        W15843  39.449  38.901  14.994
47450W        W15844   1.323  30.298  12.831
47451W        W15845  32.183  32.922   1.227
47452W        W15846  23.899  18.338  11.092
47453W        W15847  20.853  10.343   4.863
47454W        W15848  16.396  14.715   1.897
47455W        W15849  40.242   7.911  10.737
47456W        W15850   6.099  11.633   0.292
47457W        W15851  26.666  10.151  13.834
47458W        W15852  29.966  25.833  13.008
47459W        W15853  39.502   2.359  11.147
47460W        W15854  23.792  16.705  13.770
47461W        W15855  17.871  27.497   0.699
47462W        W15856  12.795  40.811  14.564
47463W        W15857   0.234   6.273   1.926
47464W        W15858  33.398  23.264   0.490
47465W        W15859  26.714  44.840   0.133
47466W        W15860   3.497  42.293  11.127
47467W        W15861  19.735  39.528  13.874
47468W        W15862   3.320  32.003   2.354
47469W        W15863  22.419  26.957   2.870
47470W        W15864  18.695  13.320   1.678
47471W        W15865  24.281  12.691   0.301
47472W        W15866  27.955  37.241  14.662
47473W        W15867  22.139  35.906   2.296
47474W        W15868  14.674  35.094   2.617
47475W        W15869   6.488   1.759  14.221
47476W        W15870   1.388  23.241  13.816
47477W        W15871  17.753  42.998   4.946
47478W        W15872  21.059  10.107   4.447
47479W        W15873  27.246   2.273   1.798
47480W        W15874  31.487  12.818   4.472
47481W        W15875  12.094   9.370  14.852
47482W        W15876   1.813  36.810  13.949
47483W        W15877  30.101   4.132  10.834
47484W        W15878  19.286   2.976   0.794
47485W        W15879  41.807  10.350   3.522
47486W        W15880  26.669  36.922   4.067
47487W        W15881   3.637  24.077  10.665
47488W        W15882   4.276  37.791   4.379
47489W        W15883  30.985  10.348   0.234
47490W        W15884  16.568  28.460   1.374
47491W        W15885  25.728  35.487  13.544
47492W        W15886  16.103  30.658  10.773
47493W        W15887  32.969  38.011   1.817
47494W        W15888  27.982  36.673  14.533
47495W        W15889  18.955  44.700  13.097
47496W        W15890  32.463  17.047   3.389
47497W        W15891  41.561  18.991  14.381
47498W        W15892  24.240  18.025  14.808
47499W        W15893  29.099  23.409  12.542
47500W        W15894   7.112  21.074   0.187
47501W        W15895   5.303  42.482  12.354
47502W        W15896   8.176  20.568  13.437
47503W        W15897  17.879  21.010  11.385
47504W        W15898   0.952  39.321  12.154
47505W        W15899  31.613  23.077  14.365
47506W        W15900   3.937  24.698  11.384
47507W        W15901  35.828  29.423  12.666
47508W        W15902  29.847  37.446  11.498
47509W        W15903   4.145  34.371   0.947
47510W        W15904   0.270   1.374   3.822
47511W        W15905  28.701   7.873   1.752
47512W        W15906  43.267  32.134  12.441
47513W        W15907  10.598  38.431   4.767
47514W        W15908   2.989  41.773   4.568
47515W        W15909  31.697   0.427   3.355
47516W        W15910  18.606  36.011  11.437
47517W        W15911  11.878  43.324   0.775
47518W        W15912  27.167  33.676  10.313
47519W        W15913  26.228  32.634   1.136
47520W        W15914  36.993  37.361   1.465
47521W        W15915  21.903  18.385   2.313
47522W        W15916   8.835  12.073   3.144
47523W        W15917  37.309  31.424   4.291
47524W        W15918  17.708  24.700   0.944
47525W        W15919  35.627  18.547   5.107
47526W        W15920  15.112  13.858   3.905
47527W        W15921   6.737  17.364  14.544
47528W        W15922  24.239   2.764  12.977
47529W        W15923  16.313  15.153  13.500
47530W        W15924   9.175   2.217  10.144
47531W        W15925  19.319  23.908  11.403
47532W        W15926  41.895  44.368   0.420
47533W        W15927  32.532  21.778  13.842
47534W        W15928  26.205  13.236   0.334
47535W        W15929  43.301  17.090   2.888
47536W        W15930  25.262  11.883  12.620
47537W        W15931  34.562  11.913   0.543
47538W        W15932   5.605  16.379  11.910
47539W        W15933  14.168   0.580  11.143
47540W        W15934   4.727  20.298  10.638
47541W        W15935  34.851  26.020   0.406
47542W        W15936   7.200  31.996   3.329
47543W        W15937  10.736  37.322   5.380
47544W        W15938  30.023  31.873   0.250
47545W        W15939  38.505  30.989   2.269
47546W        W15940  42.952  17.066  14.335
47547W        W15941  33.638  14.695  12.548
47548W        W15942  35.190  34.961  10.618
47549W        W15943  27.275   0.976   4.581
47550W        W15944  26.216  26.178  11.672
47551W        W15945   0.006   2.359   2.189
47552W        W15946   6.180  42.558   2.191
47553W        W15947   3.587  38.152   1.823
47554W        W15948  27.280   0.854   3.180
47555W        W15949  19.848  37.115  10.065
47556W        W15950  43.553   1.755   0.251
47557W        W15951  40.551  36.290   2.520
47558W        W15952  16.887   8.183   0.785
47559W        W15953  44.770  34.639   2.315
47560W        W15954  32.644  36.845  10.640
47561W        W15955  15.133   7.214   1.345
47562W        W15956  41.581  15.901  13.856
47563W        W15957  29.767   7.845   3.607
47564W        W15958   6.329  31.983   0.882
47565W        W15959  32.710  26.193  14.031
47566W        W15960  42.544   3.392  11.472
47567W        W15961  32.064   3.232  13.988
47568W        W15962  29.390  22.103   3.344
47569W        W15963  11.365  11.736  13.455
47570W        W15964  26.265  44.270  10.950
47571W        W15965   9.291   8.307   4.596
47572W        W15966  23.082  12.368   0.301
47573W        W15967  15.312  36.511  11.072
47574W        W15968  39.328   8.423   1.761
47575W        W15969  27.481  23.182  13.261
47576W        W15970   7.433  14.593   3.574
47577W        W15971  40.302  35.813  12.608
47578W        W15972   8.486  31.275   0.715
47579W        W15973  44.875  23.519  14.556
47580W        W15974  17.702  14.686  10.509
47581W        W15975  30.390  44.398  11.932
47582W        W15976  19.070  21.017  12.388
47583W        W15977   9.835  31.503   1.321
47584W        W15978  33.246  22.046  12.134
47585W        W15979  15.688  38.767   0.309
47586W        W15980   2.850   4.151   1.664
47587W        W15981  25.597  25.082  10.618
47588W        W15982  23.776   8.958   3.084
47589W        W15983  37.481   0.071  12.757
47590W        W15984   1.720  33.445   3.070
47591W        W15985  25.876   8.262  12.405
47592W        W15986  34.065   8.708  11.561
47593W        W15987  24.718  41.526   1.522
47594W        W15988  39.352  29.492  13.917
47595W        W15989   9.007  41.448   0.562
47596W        W15990   6.249   8.208   4.670
47597W        W15991  18.535  26.922  14.472
47598W        W15992  16.617  36.017  13.341
47599W        W15993  43.596  29.062   3.364
47600W        W15994  25.630  12.567  13.027
47601W        W15995  13.168   4.020   0.386
47602W        W15996  17.718  36.947   9.965
47603W        W15997  35.590  37.083  11.271
47604W        W15998  41.136  38.392  12.128
47605W        W15999  42.000  33.360  13.061
47606W        W16000  17.158  14.251   4.281
47607W        W16001  30.257  18.305  12.117
47608W        W16002  21.782  24.751  14.981
47609W        W16003   9.604  30.906  11.969
47610W        W16004  19.691   4.259  11.761
47611W        W16005  31.252  10.786   2.746
47612W        W16006  42.276  32.922   4.510
47613W        W16007   7.752  22.085   5.312
47614W        W16008   9.501  41.278   3.237
47615W        W16009  23.146  22.335   3.579
47616W        W16010  21.451  15.640   2.327
47617W        W16011  22.158  24.684   1.665
47618W        W16012   8.336  14.334   1.781
47619W        W16013  43.991  22.498  12.169
47620W        W16014  33.001  11.338   1.524
47621W        W16015   7.286  35.958   4.191
47622W        W16016  38.772   1.809  11.244
47623W        W16017  32.280   4.246   3.085
47624W        W16018  27.377   0.018   3.680
47625W        W16019  40.844   3.225   2.916
47626W        W16020  21.727  40.907   1.659
47627W        W16021  19.022  36.694   4.771
47628W        W16022  26.560   0.062  12.881
47629W        W16023  31.549  25.525  13.234
47630W        W16024   8.414  13.770   0.100
47631W        W16025  23.857  31.359  14.264
47632W        W16026  16.674  24.254   0.381
47633W        W16027  42.833  33.406  14.215
47634W        W16028  15.239  43.861   0.559
47635W        W16029   3.023  26.656   0.777
47636W        W16030   5.209   3.417   1.036
47637W        W16031  27.539  27.595  12.394
47638W        W16032  24.673  44.714   1.745
47639W        W16033  30.310   9.922  10.564
47640W        W16034  27.103  30.733  10.997
47641W        W16035  41.842  33.398   0.841
47642W        W16036  21.012  11.589   4.338
47643W        W16037  25.792   0.309  10.606
47644W        W16038  25.697  33.912  13.480
47645W        W16039  10.798  19.195   0.268
47646W        W16040  32.257  40.676   0.997
47647W        W16041  23.543  13.976  12.560
47648W        W16042  11.870  32.337   4.112
47649W        W16043  39.899  27.760   2.701
47650W        W16044   2.218  12.670   0.302
47651W        W16045   3.340  44.186  14.954
47652W        W16046  39.503  22.140  13.906
47653W        W16047  30.429  25.666  12.829
47654W        W16048  19.356  21.738  13.531
47655W        W16049  10.387   1.236  14.633
47656W        W16050  11.284   2.254   0.558
47657W        W16051  36.770  36.542  14.228
47658W        W16052  43.392  18.307  11.201
47659W        W16053  19.479  35.290   3.635
47660W        W16054  21.737  42.801  12.716
47661W        W16055  39.828   7.785   3.866
47662W        W16056   2.949  11.168   1.802
47663W        W16057  26.545  32.149   0.252
47664W        W16058  40.217  33.589   3.619
47665W        W16059   3.644  42.788  12.228
47666W        W16060  34.448  19.474   3.237
47667W        W16061  16.820  39.878   2.899
47668W        W16062  27.957  35.502   4.628
47669W        W16063  33.692  31.247  14.999
47670W        W16064  24.689  40.380   2.889
47671W        W16065  33.994  30.026   3.289
47672W        W16066  22.668  27.884  12.525
47673W        W16067  40.021  42.602   1.417
47674W        W16068  22.657  17.718   0.168
47675W        W16069  35.823  29.209  11.118
47676W        W16070   5.361  14.818  12.080
47677W        W16071  17.546  36.017  12.891
47678W        W16072  28.100  24.906  13.187
47679W        W16073  18.437  36.209  12.626
47680W        W16074  21.055  44.307   3.258
47681W        W16075  31.362  12.775   2.274
47682W        W16076  35.596   0.264  12.901
47683W        W16077  35.677   3.549  11.921
47684W        W16078  39.048  37.052  13.847
47685W        W16079  30.711   6.968  14.730
47686W        W16080  32.247  16.696  10.227
47687W        W16081  22.735  34.601   3.801
47688W        W16082  44.256  18.041   0.429
47689W        W16083  42.039  25.455  13.877
47690W        W16084  31.932  14.349  14.443
47691W        W16085  12.823  29.453  11.691
47692W        W16086   0.047  39.448   1.802
47693W        W16087   6.320  38.862  14.974
47694W        W16088  28.739  34.797   0.153
47695W        W16089  32.629  38.594  14.892
47696W        W16090  43.154  40.889   1.849
47697W        W16091  31.865  12.144  14.939
47698W        W16092  20.005   7.403   1.277
47699W        W16093  23.250  18.298   1.726
47700W        W16094  42.429   9.834   2.870
47701W        W16095  30.944  43.319   3.219
47702W        W16096   4.846   8.198   0.836
47703W        W16097  10.703  42.640  11.566
47704W        W16098  27.526   2.627   1.570
47705W        W16099  38.178  18.099   3.869
47706W        W16100  36.855  38.369  11.441
47707W        W16101  35.585  22.778  13.782
47708W        W16102  34.362  20.731  11.658
47709W        W16103  40.865  20.099  10.503
47710W        W16104   1.806  27.305  14.181
47711W        W16105  13.158   4.829   2.415
47712W        W16106  27.770  15.727   0.395
47713W        W16107   0.903  37.030  12.542
47714W        W16108   0.317   3.807   1.807
47715W        W16109  17.372  27.672  13.906
47716W        W16110  41.139  39.165  14.485
47717W        W16111  36.770  25.153  14.853
47718W        W16112  11.685  36.763   2.835
47719W        W16113  21.180  23.278  11.091
47720W        W16114  24.117  34.556  12.852
47721W        W16115  39.493  35.046  10.657
47722W        W16116  39.009  36.756  11.050
47723W        W16117  12.769   3.153  10.497
47724W        W16118  29.813  44.675   5.010
47725W        W16119  26.117  31.016  13.791
47726W        W16120  11.110  15.125   4.663
47727W        W16121   2.396  36.921  11.181
47728W        W16122  39.363   9.608  12.079
47729W        W16123   7.798  33.296   2.932
47730W        W16124   5.700  18.759   3.144
47731W        W16125  36.119  12.632  13.953
47732W        W16126  39.271  16.523   4.700
47733W        W16127  14.724  16.143   4.683
47734W        W16128  18.019  27.919  12.143
47735W        W16129  23.183   9.405  14.347
47736W        W16130   7.750  22.131  10.739
47737W        W16131  37.920   4.261   3.818
47738W        W16132  14.809  41.418  14.465
47739W        W16133   2.700   0.649  12.546
47740W        W16134   9.435  17.316  13.944
47741W        W16135  43.008  28.122   2.864
47742W        W16136  38.030  23.934  13.482
47743W        W16137  38.577  16.425   0.380
47744W        W16138   0.917  44.214  11.202
47745W        W16139   6.549  30.484   2.447
47746W        W16140  36.123  44.986   3.249
47747W        W16141  27.452   2.563  11.203
47748W        W16142  21.151  12.198   4.661
47749W        W16143  30.976  29.925   1.263
47750W        W16144  29.557  35.514   3.899
47751W        W16145  35.386  29.597   3.385
47752W        W16146  30.151  31.052  11.895
47753W        W16147  16.767  31.621  12.109
47754W        W16148  18.337  16.245  12.623
47755W        W16149  34.812  20.346  11.189
47756W        W16150  22.417  17.584  10.269
47757W        W16151  44.333   4.560  14.064
47758W        W16152  16.670   5.334   3.747
47759W        W16153  12.178  20.070  14.906
47760W        W16154   7.757  16.843  13.121
47761W        W16155  16.023   3.914   0.454
47762W        W16156  33.954   6.399  13.845
47763W        W16157  20.500  39.887   0.836
47764W        W16158   7.287  44.391   3.724
47765W        W16159  15.264  10.229  10.765
47766W        W16160  20.104   3.220  12.357
47767W        W16161  19.865   1.963   1.927
47768W        W16162  19.009  11.233   1.636
47769W        W16163  27.107  32.872   3.500
47770W        W16164   5.895  12.170   4.198
47771W        W16165   0.839  41.387  14.308
47772W        W16166  12.134  33.282  11.616
47773W        W16167  25.430   1.675   4.565
47774W        W16168  24.419  18.631  12.835
47775W        W16169  39.881  42.807   3.928
47776W        W16170   5.645  26.049   1.415
47777W        W16171   8.920  25.610   5.093
47778W        W16172  32.012  34.198  12.038
47779W        W16173  32.657  35.969   2.331
47780W        W16174  39.942   2.768  14.873
47781W        W16175  23.575  19.596   1.312
47782W        W16176  36.194   6.455   0.806
47783W        W16177  11.723   0.405   1.912
47784W        W16178  26.123  12.497  14.294
47785W        W16179  36.089  15.781  13.347
47786W        W16180   7.726   1.734   2.887
47787W        W16181   9.925   6.493  11.261
47788W        W16182  43.372  25.786  12.059
47789W        W16183  22.264  41.464   4.119
47790W        W16184  35.866  32.630  14.267
47791W        W16185   5.046  43.116   5.027
47792W        W16186  40.976  13.533   3.134
47793W        W16187  37.660  37.388  13.296
47794W        W16188   4.754  31.591  12.231
47795W        W16189  41.275  29.537  14.831
47796W        W16190  41.776  43.841   0.588
47797W        W16191  18.278  32.742  11.452
47798W        W16192   9.336  15.806   1.807
47799W        W16193  11.409  42.768  10.925
47800W        W16194  32.621   4.287   4.581
47801W        W16195   8.174  15.254   3.310
47802W        W16196  30.583   4.394   1.256
47803W        W16197  41.834  10.416   1.844
47804W        W16198  30.547  13.581  11.536
47805W        W16199  44.445  39.444   4.484
47806W        W16200   2.227   7.886   4.804
47807W        W16201  11.312  34.506  13.980
47808W        W16202  35.143   4.565  10.716
47809W        W16203  25.984  44.081  13.733
47810W        W16204  31.682  32.901  12.004
47811W        W16205   1.863  38.431   2.902
47812W        W16206  22.783  21.690   2.794
47813W        W16207  40.283  31.369   1.280
47814W        W16208  16.205   8.926  14.763
47815W        W16209   3.139  40.144  13.390
47816W        W16210  19.688  41.492  11.009
47817W        W16211  28.175  25.381   4.628
47818W        W16212  41.635  22.220  14.874
47819W        W16213  43.158  35.705  11.499
47820W        W16214  31.621  30.157  12.432
47821W        W16215  41.397  43.961   1.540
47822W        W16216   9.705  44.380   3.338
47823W        W16217  11.783   6.204   3.872
47824W        W16218  29.082  22.446  12.316
47825W        W16219  30.937   9.734  12.965
47826W        W16220  12.800  18.227   3.198
47827W        W16221  11.815   7.176  13.718
47828W        W16222   9.774   8.207   4.793
47829W        W16223   5.059   2.831   0.432
47830W        W16224  17.556  39.910  11.560
47831W        W16225  40.506  14.462   0.842
47832W        W16226   3.863  33.599  12.127
47833W        W16227  30.048  20.412  12.986
47834W        W16228  37.985  20.904   1.847
47835W        W16229   4.672  30.625   2.144
47836W        W16230   9.720  24.474  10.546
47837W        W16231  17.245  32.761  14.662
47838W        W16232  24.542  27.386   0.047
47839W        W16233  15.942  31.810   4.090
47840W        W16234  11.218   7.731   1.362
47841W        W16235   6.669  42.514   4.691
47842W        W16236  26.153  36.854   4.078
47843W        W16237  18.771  15.163  14.432
47844W        W16238   3.546   2.116  13.793
47845W        W16239  14.157  13.620   0.337
47846W        W16240  12.112  23.612  12.018
47847W        W16241  30.202   9.254  14.997
47848W        W16242   3.835  25.939  13.784
47849W        W16243  42.639   9.214  13.408
47850W        W16244  39.343   2.508   4.081
47851W        W16245  29.881  40.583   4.741
47852W        W16246  35.581  42.480   0.039
47853W        W16247   8.339  43.900  12.018
47854W        W16248   9.826   6.297  10.775
47855W        W16249  29.500  14.084   1.251
47856W        W16250   7.397  21.704   0.831
47857W        W16251  44.697   7.366   3.525
47858W        W16252  37.494  28.429   2.385
47859W        W16253  23.587  44.944   3.601
47860W        W16254  29.553  26.593  14.079
47861W        W16255  21.929  36.870  10.804
47862W        W16256  26.071  21.056   2.846
47863W        W16257  21.940  33.713  11.079
47864W        W16258  32.678  16.102  13.884
47865W        W16259  31.200   3.252  14.761
47866W        W16260  40.295  13.809   4.750
47867W        W16261  34.932  36.536  12.468
47868W        W16262  15.727  30.418  11.638
47869W        W16263  17.626  32.885   3.700
47870W        W16264  31.548  43.798   3.824
47871W        W16265  13.058  37.984  14.962
47872W        W16266  17.795  31.120   2.800
47873W        W16267  35.942  21.516  10.769
47874W        W16268  38.545  44.757   3.541
47875W        W16269  43.738  24.149  14.404
47876W        W16270  43.455  42.995  13.912
47877W        W16271  39.838  24.518   3.699
47878W        W16272  39.056   1.069  11.596
47879W        W16273  21.138  18.780   1.851
47880W        W16274  14.764  40.801  13.953
47881W        W16275  17.758   0.804  12.256
47882W        W16276   7.867  43.296  11.068
47883W        W16277  15.939  21.209   2.837
47884W        W16278  28.816  41.327  12.690
47885W        W16279  19.764  11.352   3.701
47886W        W16280   1.633  25.671  10.995
47887W        W16281  24.980   7.682  14.582
47888W        W16282  31.837  18.006   0.869
47889W        W16283   1.260  10.736   0.480
47890W        W16284  36.437  41.307   2.788
47891W        W16285  42.431  31.477   1.753
47892W        W16286  12.765  40.740  12.556
47893W        W16287  25.833   4.300   1.683
47894W        W16288  19.375   5.806   1.756
47895W        W16289  39.584  23.937  14.347
47896W        W16290  16.301   3.731   0.885
47897W        W16291  23.566   0.910   3.128
47898W        W16292  41.353  22.869   5.033
47899W        W16293  44.856  14.112  14.955
47900W        W16294  11.879  19.254  10.800
47901W        W16295  21.267   2.480   3.667
47902W        W16296   0.940  24.667  14.998
47903W        W16297   8.633  27.579   2.366
47904W        W16298  11.722  11.762  11.417
47905W        W16299   7.192  21.163   4.304
47906W        W16300  37.922  21.990   2.783
47907W        W16301  33.382  37.431  12.792
47908W        W16302  37.058  23.269  14.809
47909W        W16303  11.138  30.453  11.045
47910W        W16304  21.313  33.195  11.541
47911W        W16305  31.600  41.227   4.739
47912W        W16306  26.497  19.959  11.675
47913W        W16307  22.219   8.543   2.642
47914W        W16308  43.037   9.181   3.403
47915W        W16309  19.057   7.698   3.693
47916W        W16310  23.074   6.495  10.675
47917W        W16311   5.379  25.083   4.024
47918W        W16312  41.254  24.950   1.589
47919W        W16313   8.637   6.531   0.338
47920W        W16314  23.532  30.546  13.761
47921W        W16315   1.332   1.012  11.925
47922W        W16316   8.922  16.752  14.189
47923W        W16317  21.735  22.749   1.010
47924W        W16318   5.907  21.058  11.169
47925W        W16319  20.215  18.272   0.059
47926W        W16320  16.723  20.527  10.540
47927W        W16321  10.022   1.701   2.354
47928W        W16322  26.619   3.883   0.486
47929W        W16323  28.147  41.395   2.359
47930W        W16324   2.844  14.905  12.019
47931W        W16325  11.986  24.532  14.038
47932W        W16326  23.965  15.218   3.752
47933W        W16327  35.138  43.407   4.999
47934W        W16328   2.334  35.335  14.509
47935W        W16329  37.888   5.344   0.872
47936W        W16330   1.958  11.895  13.526
47937W        W16331  36.499  22.005   1.650
47938W        W16332  27.462  15.012  14.850
47939W        W16333  13.377   2.822  11.551
47940W        W16334   5.739   0.561   1.051
47941W        W16335   4.334  42.814   0.291
47942W        W16336  40.745  44.777   0.753
47943W        W16337  10.284  31.476  12.315
47944W        W16338  43.450  24.408   2.430
47945W        W16339  22.901  44.226   3.629
47946W        W16340  43.494  10.243  14.499
47947W        W16341  24.247   9.882   3.657
47948W        W16342   9.265  43.031   1.063
47949W        W16343  30.356   6.326   1.309
47950W        W16344  23.143  12.682   2.772
47951W        W16345  30.402   8.897   2.787
47952W        W16346  39.972  42.057  12.450
47953W        W16347  24.134   5.207  14.269
47954W        W16348  20.181  21.573   4.132
47955W        W16349   0.629  43.646  14.956
47956W        W16350  37.447   8.194  12.377
47957W        W16351   9.609  34.503   0.226
47958W        W16352  17.408  22.928  12.775
47959W        W16353  39.036  26.239   3.206
47960W        W16354  28.301  38.696  10.319
47961W        W16355  30.435  40.790  12.426
47962W        W16356  25.289  33.849  12.097
47963W        W16357  28.435  24.917   0.962
47964W        W16358  10.374  28.336  12.971
47965W        W16359  11.428  21.032   0.487
47966W        W16360  27.899  13.836  13.587
47967W        W16361  26.067  14.988   3.198
47968W        W16362  26.762  17.559   1.725
47969W        W16363  22.737  12.692   1.295
47970W        W16364  36.585  13.517   0.752
47971W        W16365  16.542  43.888   3.857
47972W        W16366  26.671  42.403  12.099
47973W        W16367  35.835  19.289  12.010
47974W        W16368  43.361  30.876   4.902
47975W        W16369   0.557  17.177  14.784
47976W        W16370  14.536  23.137   0.865
47977W        W16371   6.441   6.942  10.572
47978W        W16372   3.388   9.852  13.976
47979W        W16373  28.091   9.769   3.084
47980W        W16374  29.365   5.187  10.723
47981W        W16375  38.755  21.017  12.570
47982W        W16376  24.270  34.869  12.011
47983W        W16377  19.235  19.754   3.105
47984W        W16378   0.868  26.215  12.039
47985W        W16379  15.624  43.024   4.572
47986W        W16380   1.451  11.309   1.165
47987W        W16381  36.599  42.828  12.609
47988W        W16382   9.173   4.314  13.209
47989W        W16383   1.192  29.105  11.689
47990W        W16384  25.529   1.098  12.604
47991W        W16385  39.735  13.725   2.625
47992W        W16386   6.579  28.653  11.935
47993W        W16387  22.746   2.521  14.017
47994W        W16388   1.703  26.100  12.696
47995W        W16389  24.725  20.195  12.100
47996W        W16390  39.862  25.110   4.725
47997W        W16391  12.282  19.752  11.534
47998W        W16392  17.736  14.711   4.535
47999W        W16393  24.004  35.552  11.650
48000W        W16394   0.872   9.125   2.700
48001W        W16395  16.858  32.324   2.475
48002W        W16396  23.467  14.763  11.548
48003W        W16397  11.534  17.392   5.038
48004W        W16398  32.527  39.423   3.181
48005W        W16399   3.651  18.125  14.114
48006W        W16400  13.455  40.419  11.836
48007W        W16401  40.964  32.013  10.741
48008W        W16402  27.078  18.517  10.753
48009W        W16403  22.186  18.487   2.751
48010W        W16404  41.551  14.655   3.241
48011W        W16405  15.836  25.357  12.507
48012W        W16406  27.922  33.396  11.561
48013W        W16407   2.919  19.832   1.821
48014W        W16408   8.684  15.877   4.820
48015W        W16409  43.874  16.942   2.079
48016W        W16410  28.241  42.776  11.590
48017W        W16411  34.375   7.389  13.400
48018W        W16412  17.259   2.853   2.744
48019W        W16413  16.057   5.922  11.913
48020W        W16414  17.013  21.642   4.204
48021W        W16415  15.332   5.029   5.461
48022W        W16416  28.075   1.854   1.119
48023W        W16417  21.671  27.724  10.363
48024W        W16418   5.781   3.567  13.294
48025W        W16419  10.394  27.472   0.713
48026W        W16420  39.405   5.641   0.482
48027W        W16421   3.703  42.058  14.406
48028W        W16422   5.696  12.557  10.369
48029W        W16423  12.333   2.691  13.043
48030W        W16424   2.750  44.080   1.177
48031W        W16425  31.628  29.536  10.611
48032W        W16426  29.758  30.491   5.187
48033W        W16427   6.368  20.498   0.515
48034W        W16428  18.099   9.189   3.343
48035W        W16429  14.801  30.614   0.768
48036W        W16430  36.279  40.407  11.582
48037W        W16431  10.726  27.800   1.219
48038W        W16432  41.845   9.183  12.600
48039W        W16433  34.436   9.299  11.614
48040W        W16434   9.343  33.171  14.271
48041W        W16435  16.027  41.453  13.805
48042W        W16436   6.777  15.690  11.879
48043W        W16437  18.235  39.589  11.854
48044W        W16438  31.133  16.764   0.808
48045W        W16439  33.534  18.729   1.687
48046W        W16440  39.105  36.873   2.615
48047W        W16441  27.139  38.059  12.581
48048W        W16442  41.559  27.121   3.268
48049W        W16443   0.541   0.919  12.627
48050W        W16444  30.976  31.676  14.149
48051W        W16445  27.452  29.404   2.286
48052W        W16446  17.351   7.625   1.758
48053W        W16447  26.972  14.021   2.349
48054W        W16448  26.887  42.391  14.021
48055W        W16449  39.634  16.140  14.513
48056W        W16450  20.001   8.246   0.765
48057W        W16451  34.401  19.212  12.918
48058W        W16452  42.070  37.485   3.752
48059W        W16453  20.390  30.055  10.074
48060W        W16454  17.426   0.462  14.931
48061W        W16455   2.705  18.789   0.828
48062W        W16456  27.478   2.704   2.098
48063W        W16457  39.960   2.879   4.634
48064W        W16458  43.774  19.710  14.479
48065W        W16459  34.892  37.048  12.470
48066W        W16460  19.257  38.059  14.864
48067W        W16461  26.780  25.182  13.385
48068W        W16462   2.754  37.731   1.407
48069W        W16463  37.563  20.053   3.411
48070W        W16464  38.137  19.183  13.746
48071W        W16465   5.360  12.914   1.537
48072W        W16466  44.267   8.774  12.337
48073W        W16467  10.849  30.336   2.155
48074W        W16468  16.043  35.968   1.459
48075W        W16469  44.566  40.275   5.005
48076W        W16470  28.312  13.684  12.645
48077W        W16471  32.421  28.385   2.268
48078W        W16472   4.928   9.113   0.491
48079W        W16473   4.734  16.200  12.937
48080W        W16474  26.515  12.262   4.159
48081W        W16475  10.429  10.728   3.273
48082W        W16476  41.795  36.482   0.210
48083W        W16477   3.825   7.401  14.422
48084W        W16478   9.780  43.403  14.585
48085W        W16479  36.832  29.213  11.851
48086W        W16480  24.770   5.404  10.338
48087W        W16481  22.757   3.331   3.544
48088W        W16482  43.244  24.943   1.688
48089W        W16483  26.559  38.555   0.246
48090W        W16484  26.798  41.950  10.310
48091W        W16485  23.972  31.953   1.258
48092W        W16486  15.934   7.078  14.059
48093W        W16487   6.048  42.417   1.297
48094W        W16488  13.388  22.959   3.768
48095W        W16489  35.002   3.954  12.643
48096W        W16490  39.180   0.750  13.954
48097W        W16491   5.141   1.325  10.468
48098W        W16492  13.198  29.033   5.013
48099W        W16493  24.079   5.040   5.089
48100W        W16494  14.710  14.695   0.507
48101W        W16495  28.088  34.514   1.809
48102W        W16496  13.187  21.512   4.646
48103W        W16497   1.460  28.444   0.715
48104W        W16498   4.362  14.417  12.965
48105W        W16499  43.339  20.805   3.219
48106W        W16500   6.706  41.753  13.419
48107W        W16501  17.328  29.714   1.731
48108W        W16502  10.368  20.424  13.776
48109W        W16503   6.305   8.864  10.638
48110W        W16504  22.804  24.152   0.400
48111W        W16505   4.198   3.329   1.878
48112W        W16506   1.792  23.718   1.381
48113W        W16507  14.320   8.285  11.770
48114W        W16508  44.616   8.137   1.174
48115W        W16509  24.291  43.475   2.702
48116W        W16510  38.583  39.983   1.458
48117W        W16511   3.812  20.252  12.649
48118W        W16512  16.015   3.231  11.647
48119W        W16513  28.572  35.040  11.375
48120W        W16514  27.174   5.642  12.879
48121W        W16515  24.731  30.878  11.614
48122W        W16516  27.157   8.799  13.559
48123W        W16517  32.408   4.233  11.606
48124W        W16518  12.118  19.218   1.720
48125W        W16519  43.867  26.902   3.747
48126W        W16520  37.814   3.540   1.525
48127W        W16521  18.012  25.660   2.641
48128W        W16522  11.718  29.368   4.051
48129W        W16523  37.880  21.020   2.347
48130W        W16524  44.413  20.885  10.946
48131W        W16525  29.604  12.645   2.636
48132W        W16526  34.851  29.130   4.099
48133W        W16527  31.639  22.724  13.562
48134W        W16528   1.511   0.291   3.847
48135W        W16529  32.457  22.631   2.364
48136W        W16530   4.241  44.043  14.949
48137W        W16531  23.013  39.409   0.354
48138W        W16532   7.955  10.315   3.232
48139W        W16533  43.028  25.836  14.012
48140W        W16534  43.979  39.921   3.327
48141W        W16535  34.517  42.845  10.943
48142W        W16536  24.541  20.813  11.037
48143W        W16537  41.951  19.631   3.292
48144W        W16538   9.514  15.535  10.302
48145W        W16539  20.957   8.916   3.773
48146W        W16540  17.751  31.187  11.301
48147W        W16541   5.394  38.774  12.155
48148W        W16542   3.436  41.618   4.241
48149W        W16543   9.809  21.531  14.560
48150W        W16544   8.650   3.318  11.518
48151W        W16545   5.100  19.568   3.604
48152W        W16546  19.737  33.822  14.305
48153W        W16547   9.426  14.572   2.487
48154W        W16548  33.809  14.194   3.829
48155W        W16549  16.180  34.585   0.988
48156W        W16550  29.692  11.302   4.758
48157W        W16551  34.111  13.769  14.270
48158W        W16552  39.808  29.282   2.688
48159W        W16553  22.129   5.848   2.199
48160W        W16554  43.793  29.955   2.437
48161W        W16555   7.403  28.648   4.329
48162W        W16556  33.164  17.876   9.925
48163W        W16557   0.996  43.261   2.898
48164W        W16558  35.355  38.727   3.580
48165W        W16559   1.953  10.622  13.139
48166W        W16560  10.776  18.622   0.908
48167W        W16561  17.387  43.770   4.128
48168W        W16562  16.573  31.727  11.121
48169W        W16563  38.375  38.128  12.861
48170W        W16564  11.106  30.628  14.322
48171W        W16565  41.119  15.229  13.360
48172W        W16566  40.116  44.671  14.344
48173W        W16567   0.781   8.269   1.190
48174W        W16568  14.089   8.304   3.712
48175W        W16569  28.970   2.159  14.047
48176W        W16570  21.102   0.839   4.210
48177W        W16571  13.041  22.169  13.510
48178W        W16572  37.925   4.333  10.834
48179W        W16573   3.296  35.820   2.724
48180W        W16574  41.259  22.606   2.245
48181W        W16575  36.927  38.389  13.475
48182W        W16576  40.025  15.229  11.924
48183W        W16577  24.886   6.844  14.877
48184W        W16578  35.460  38.475   2.622
48185W        W16579  19.238  17.238  12.392
48186W        W16580  32.599  16.845  10.575
48187W        W16581  13.858  33.639   3.172
48188W        W16582   6.429  44.653   3.543
48189W        W16583   0.273  15.859  11.172
48190W        W16584  27.648  14.333  10.677
48191W        W16585   3.015  40.339   2.879
48192W        W16586  33.628  23.580   3.657
48193W        W16587  33.855  37.096  11.049
48194W        W16588  25.175  34.406  10.973
48195W        W16589  41.850  28.123   2.788
48196W        W16590  16.240  18.813   4.660
48197W        W16591   0.983  39.266  10.875
48198W        W16592   6.214  41.737  10.622
48199W        W16593  10.653  29.074   2.729
48200W        W16594  24.838   5.717  13.610
48201W        W16595  29.663  33.697  12.709
48202W        W16596  28.234  39.888  10.716
48203W        W16597   2.801   7.406  14.520
48204W        W16598   1.827  30.165   1.645
48205W        W16599  36.648  31.215   0.119
48206W        W16600  41.518  25.004  12.068
48207W        W16601  41.015  29.114   0.026
48208W        W16602  10.670  14.774  12.488
48209W        W16603   0.229   8.693   4.902
48210W        W16604  41.863  16.421   2.358
48211W        W16605  43.316  40.329   4.198
48212W        W16606  42.986  29.138  13.495
48213W        W16607  29.109  20.831  13.482
48214W        W16608   2.193  34.731   4.922
48215W        W16609  28.012  27.410  13.384
48216W        W16610   1.739  26.567   3.678
48217W        W16611   3.715   5.802   4.649
48218W        W16612  33.268  33.181  12.115
48219W        W16613  44.076  40.999   4.248
48220W        W16614  26.509  24.668  11.024
48221W        W16615  10.319  25.586   5.072
48222W        W16616  27.524  34.060  13.281
48223W        W16617   8.872  42.976   3.891
48224W        W16618  16.995  22.045   2.953
48225W        W16619  23.958  35.112   0.489
48226W        W16620  28.709  42.118  10.658
48227W        W16621  25.098  37.552   1.868
48228W        W16622  25.436  41.229  13.909
48229W        W16623   6.945  25.607   1.236
48230W        W16624  13.649  11.806   4.165
48231W        W16625   9.868  15.218   2.132
48232W        W16626  27.875  27.413  14.350
48233W        W16627  10.551  24.740   3.202
48234W        W16628   9.274   4.646   4.552
48235W        W16629  39.553  36.897   1.093
48236W        W16630  32.560  10.145   1.715
48237W        W16631  41.852  41.522  12.556
48238W        W16632  12.210  30.947  14.636
48239W        W16633   6.410  19.137  10.670
48240W        W16634  42.421  22.687  13.069
48241W        W16635  21.054  39.242   1.336
48242W        W16636  12.331  37.699   3.840
48243W        W16637  10.226  27.765   3.771
48244W        W16638   0.524  10.993   2.935
48245W        W16639  41.475   0.672  11.506
48246W        W16640  42.506  23.407  12.599
48247W        W16641  36.154   7.821  11.688
48248W        W16642   2.633   0.805   3.607
48249W        W16643  15.886  14.625  14.479
48250W        W16644  23.756  29.440   2.043
48251W        W16645  17.058  44.398  10.084
48252W        W16646  17.325  36.170  10.121
48253W        W16647  29.290   5.166   3.322
48254W        W16648   0.545  17.632   1.416
48255W        W16649  15.795  33.497  11.563
48256W        W16650  22.707  29.115  14.295
48257W        W16651  23.047   7.089   1.965
48258W        W16652  14.641   1.765  10.795
48259W        W16653  13.812  22.790  11.043
48260W        W16654  25.538  24.302   1.933
48261W        W16655  24.177  43.617   4.541
48262W        W16656  44.938   7.935  14.484
48263W        W16657  11.101  44.277   1.426
48264W        W16658  18.243  29.691   0.443
48265W        W16659  25.923  32.381  14.609
48266W        W16660   2.998  13.766  14.540
48267W        W16661  36.263  28.998  13.805
48268W        W16662   1.841  28.466  11.530
48269W        W16663  35.923  33.499  12.485
48270W        W16664  30.436  39.056  13.904
48271W        W16665   4.037  37.017   0.461
48272W        W16666   5.067   7.941   4.384
48273W        W16667  11.596  15.483   0.402
48274W        W16668  20.717  10.636  10.484
48275W        W16669  34.233  18.633  14.580
48276W        W16670  18.689  38.230  11.614
48277W        W16671  43.369  38.441   4.215
48278W        W16672  32.049  14.137  13.439
48279W        W16673  24.480   6.147   0.379
48280W        W16674  29.135  28.906  13.918
48281W        W16675  20.333  13.686   4.017
48282W        W16676  39.123  36.451  13.396
48283W        W16677  41.313  22.283  13.502
48284W        W16678  21.806  42.385  11.137
48285W        W16679   8.597  35.576   3.980
48286W        W16680   0.377  42.709  10.751
48287W        W16681  39.733  33.810   3.576
48288W        W16682   4.762  11.694  11.543
48289W        W16683  38.418  29.504   3.752
48290W        W16684  29.399  10.125  12.197
48291W        W16685   4.903  37.376  14.375
48292W        W16686   4.178  12.701   0.831
48293W        W16687  29.499  36.885  10.380
48294W        W16688  38.581   0.857  11.584
48295W        W16689  15.945   7.249   1.916
48296W        W16690   0.422  18.069  14.207
48297W        W16691  25.460  35.426  10.655
48298W        W16692  33.015  10.633   3.233
48299W        W16693  21.896  33.074  11.700
48300W        W16694  19.673  25.008   3.234
48301W        W16695  21.220  26.643   4.650
48302W        W16696  29.231  27.558  11.694
48303W        W16697  24.971   1.523   1.455
48304W        W16698  32.406  30.446  11.585
48305W        W16699   2.306  16.740   0.364
48306W        W16700   1.721  36.694  10.950
48307W        W16701   7.486   9.075  11.122
48308W        W16702   5.425  25.500  14.731
48309W        W16703  13.684   3.922   0.361
48310W        W16704  21.440  27.993   4.533
48311W        W16705   5.161   5.334   4.431
48312W        W16706   5.980  42.759  14.349
48313W        W16707  26.121  39.482   3.085
48314W        W16708  11.339  32.107  12.387
48315W        W16709   8.023   1.911  11.650
48316W        W16710  12.751  39.726   4.168
48317W        W16711  37.941  17.767   4.480
48318W        W16712   4.450  18.719   1.523
48319W        W16713  17.604  42.645   0.411
48320W        W16714   7.170  40.571  14.604
48321W        W16715  40.551  14.633   3.374
48322W        W16716   2.067  27.201   2.166
48323W        W16717   7.917  39.866  11.634
48324W        W16718  41.310  26.020   1.327
48325W        W16719  34.544  42.954  10.428
48326W        W16720  24.189  43.295   3.802
48327W        W16721  40.801  42.740   3.452
48328W        W16722  24.274  14.905  12.027
48329W        W16723  36.436  42.749  12.102
48330W        W16724  28.482  42.564  12.426
48331W        W16725  16.684  31.591   1.778
48332W        W16726  28.732  13.249  13.026
48333W        W16727  36.655  29.065  12.959
48334W        W16728  19.306   6.125   0.595
48335W        W16729  22.443  12.702  11.556
48336W        W16730  11.698  42.066   1.325
48337W        W16731  19.512   9.891   3.063
48338W        W16732  11.532   5.976   1.439
48339W        W16733   1.772  40.844  13.539
48340W        W16734  24.888  40.193   1.450
48341W        W16735  35.335   7.440  12.681
48342W        W16736  42.001  14.837   4.696
48343W        W16737  17.209  44.742   4.420
48344W        W16738  21.574  17.776   0.879
48345W        W16739  12.406  23.705   1.337
48346W        W16740   4.913  14.576  12.374
48347W        W16741  33.267  19.145  11.250
48348W        W16742  27.222  25.392  11.129
48349W        W16743  27.711  39.900   2.390
48350W        W16744  30.319  26.016   5.007
48351W        W16745  13.231  39.845  12.892
48352W        W16746  30.260  38.839  14.344
48353W        W16747  20.240  35.307   1.984
48354W        W16748   6.273  44.734  10.297
48355W        W16749   6.664  14.796  10.750
48356W        W16750  25.598  25.712  12.919
48357W        W16751   5.847   4.929  11.882
48358W        W16752   2.413  29.555  13.940
48359W        W16753  36.666  18.837   3.692
48360W        W16754  39.964  23.709   3.214
48361W        W16755   3.094  19.853  11.716
48362W        W16756  39.038   9.738   1.863
48363W        W16757  25.755  35.932   4.081
48364W        W16758  43.954  19.118   3.325
48365W        W16759  23.847  43.782   0.369
48366W        W16760   2.429   3.866   0.283
48367W        W16761   0.643   0.543  10.417
48368W        W16762  40.913  40.442  12.588
48369W        W16763   0.250  21.967   3.950
48370W        W16764   4.361  35.078   1.233
48371W        W16765   0.543  24.432   3.799
48372W        W16766  26.023  32.598  13.622
48373W        W16767  44.017  10.367  11.595
48374W        W16768  15.786  29.841  10.409
48375W        W16769   6.298   9.975  13.004
48376W        W16770  27.647  27.707   0.192
48377W        W16771   4.251  40.347   0.573
48378W        W16772  31.413   1.257   3.935
48379W        W16773  24.719   8.009  11.516
48380W        W16774  12.087  32.353  14.866
48381W        W16775  25.328   4.454   1.680
48382W        W16776  20.999  38.435  13.104
48383W        W16777   4.861  34.872  14.205
48384W        W16778   9.844  36.132   0.714
48385W        W16779   4.291  35.555   3.578
48386W        W16780  26.564   6.251  11.591
48387W        W16781  21.490  39.548  12.483
48388W        W16782  16.905  44.776  14.444
48389W        W16783  19.694  40.856   3.896
48390W        W16784  32.358  32.327  11.582
48391W        W16785  10.202  10.769   3.734
48392W        W16786  13.652  35.597   3.664
48393W        W16787   1.997   0.452   1.613
48394W        W16788  26.695  38.311  12.481
48395W        W16789   9.220  16.099   1.378
48396W        W16790  10.853   7.631   4.544
48397W        W16791  26.943  19.189  12.060
48398W        W16792  11.241  43.878   0.465
48399W        W16793  34.172  39.035   2.433
48400W        W16794  32.347  19.760   1.024
48401W        W16795   9.849   1.959   0.253
48402W        W16796   5.820  24.310   1.408
48403W        W16797  24.440  25.728  13.927
48404W        W16798  26.232  31.079   2.288
48405W        W16799  22.276  36.018   0.987
48406W        W16800  26.249  40.214   1.266
48407W        W16801  35.639  27.188   0.007
48408W        W16802  42.723  26.068  14.353
48409W        W16803  25.643  34.940  10.609
48410W        W16804  34.400  16.703  13.819
48411W        W16805   8.838  22.632   2.247
48412W        W16806   2.325  37.828  14.468
48413W        W16807  25.023  24.063  11.597
48414W        W16808  32.911  17.209  12.132
48415W        W16809  37.325  24.475  12.183
48416W        W16810   8.275   7.951   0.278
48417W        W16811  40.444  37.062  13.368
48418W        W16812  12.865  12.537  14.364
48419W        W16813  13.120  10.706  14.447
48420W        W16814  13.783  33.475  14.202
48421W        W16815  25.783  43.078   4.878
48422W        W16816  28.595  37.165   3.974
48423W        W16817   5.613  43.713  11.175
48424W        W16818  27.089  35.462  13.410
48425W        W16819  29.862   6.686  10.680
48426W        W16820  29.623  41.463  14.930
48427W        W16821  41.568  10.244   0.206
48428W        W16822   4.956  24.154   1.635
48429W        W16823  43.126   1.369  14.208
48430W        W16824  17.627   1.925   1.377
48431W        W16825  13.266   1.268   3.575
48432W        W16826  26.452   8.308   0.400
48433W        W16827  15.653  11.089  14.205
48434W        W16828  38.037  42.445  13.513
48435W        W16829  37.719  39.383   2.899
48436W        W16830  16.188   4.355  11.199
48437W        W16831   5.237   1.937   1.289
48438W        W16832   4.016   7.823  12.545
48439W        W16833  40.536  14.966   0.910
48440W        W16834   5.124  12.267   3.745
48441W        W16835  24.839  26.121   3.792
48442W        W16836   5.188  16.276  10.627
48443W        W16837  26.906  18.570  12.498
48444W        W16838  35.077  43.059  12.143
48445W        W16839   4.503  15.755  13.977
48446W        W16840   0.229  16.546  13.581
48447W        W16841  26.144   9.519  14.805
48448W        W16842  44.928   3.443   4.518
48449W        W16843  25.149   1.346  14.131
48450W        W16844   9.728  44.302  10.599
48451W        W16845  25.970   2.069  14.605
48452W        W16846   3.071   0.431   0.258
48453W        W16847  43.739   1.605  13.549
48454W        W16848  26.285  43.449  13.407
48455W        W16849  24.973  22.041   3.858
48456W        W16850  27.204  12.151   0.489
48457W        W16851   0.576  41.452   1.963
48458W        W16852  36.079   5.070   2.592
48459W        W16853  38.329  42.853   2.572
48460W        W16854  27.947   1.787  10.247
48461W        W16855   1.933  40.706  13.996
48462W        W16856  17.711  16.534  11.395
48463W        W16857  12.897  29.135   3.244
48464W        W16858  22.553  15.283  13.048
48465W        W16859  19.028   4.317   2.905
48466W        W16860  22.655  28.121   2.493
48467W        W16861  28.534  39.607   3.099
48468W        W16862  28.736  23.436   4.319
48469W        W16863  27.080   2.448   2.637
48470W        W16864  28.631  37.535  11.952
48471W        W16865  12.713  43.459  11.652
48472W        W16866  35.213  30.652  12.598
48473W        W16867  33.916  39.248   4.192
48474W        W16868  38.307   7.390  11.476
48475W        W16869  40.003   3.170  12.982
48476W        W16870  16.196  10.452  10.571
48477W        W16871  15.662  30.323  10.590
48478W        W16872  37.028  10.117   5.006
48479W        W16873  39.847   2.959  14.406
48480W        W16874  36.067  11.259   4.134
48481W        W16875   2.932  20.309  12.547
48482W        W16876  18.198   6.336  12.643
48483W        W16877  22.643   8.728   0.281
48484W        W16878  40.892  34.361   4.047
48485W        W16879  42.687  27.723   3.004
48486W        W16880  38.409  32.977  13.664
48487W        W16881   5.739  33.776   4.663
48488W        W16882   0.014   0.216   4.108
48489W        W16883  23.326  18.250  11.709
48490W        W16884  13.565  31.359   2.945
48491W        W16885  26.226  15.795   3.634
48492W        W16886  43.233  31.498   2.471
48493W        W16887   4.420   9.678   3.756
48494W        W16888  29.204  29.943  12.314
48495W        W16889  19.613  35.399  10.321
48496W        W16890  23.552   1.046  14.209
48497W        W16891  27.460  36.852  11.153
48498W        W16892  44.393  37.758  12.838
48499W        W16893  14.820  42.477  12.549
48500W        W16894  37.004  35.988  11.236
48501W        W16895   3.319  15.168  14.249
48502W        W16896  32.996  31.212  11.201
48503W        W16897  37.759  20.306   5.109
48504W        W16898  38.046   4.657  14.866
48505W        W16899  21.530  37.939   2.087
48506W        W16900  32.954  15.983   4.238
48507W        W16901  37.526  26.849  14.362
48508W        W16902  38.573  27.242  10.393
48509W        W16903  35.983  32.478  12.104
48510W        W16904  34.568  29.268   2.383
48511W        W16905  43.325  32.479   2.458
48512W        W16906  33.299  11.905   2.167
48513W        W16907  36.902  22.332   1.499
48514W        W16908  33.563  40.026   2.336
48515W        W16909  36.309  19.061  12.049
48516W        W16910   2.822  44.517   3.600
48517W        W16911   4.630   6.246  10.192
48518W        W16912  24.824  21.758  10.768
48519W        W16913   5.715  12.091  12.950
48520W        W16914  16.357  30.338   4.132
48521W        W16915  32.414   4.474  11.122
48522W        W16916  41.431  31.147  14.225
48523W        W16917  28.010   5.780   0.314
48524W        W16918  36.758  13.091   4.916
48525W        W16919   5.041  19.611  11.152
48526W        W16920   8.211  19.979  14.874
48527W        W16921  10.201  17.749   4.715
48528W        W16922  15.192   4.774   3.025
48529W        W16923  23.083  14.105  11.622
48530W        W16924  28.967   7.697   3.154
48531W        W16925  28.978  44.239  12.665
48532W        W16926  30.123  40.040  10.984
48533W        W16927  42.811   4.401   4.685
48534W        W16928  40.914  20.238   4.755
48535W        W16929  23.467   1.070   4.149
48536W        W16930  14.691  13.660  14.613
48537W        W16931  11.796  44.057   1.703
48538W        W16932   5.234  21.630  10.993
48539W        W16933   1.879  24.307   3.181
48540W        W16934  25.702  31.778   0.291
48541W        W16935  21.985   6.780   2.414
48542W        W16936   2.436  14.028   0.362
48543W        W16937  11.811  30.553   0.429
48544W        W16938  30.516  23.910   2.703
48545W        W16939  25.423  26.006  12.453
48546W        W16940  38.597  39.577   2.742
48547W        W16941  22.686   2.281  12.402
48548W        W16942  30.156  14.325   1.852
48549W        W16943   9.954  42.521   3.958
48550W        W16944   5.123  30.455   1.867
48551W        W16945   8.789  16.001   1.660
48552W        W16946  29.571   0.029   0.412
48553W        W16947  20.729  42.371   4.360
48554W        W16948   9.097  26.625  13.459
48555W        W16949   0.006  20.416   0.315
48556W        W16950  31.899   8.342  12.081
48557W        W16951  14.862   5.314  14.234
48558W        W16952  21.533   9.839   4.387
48559W        W16953  24.578  20.229   0.702
48560W        W16954  16.079  23.592  13.871
48561W        W16955   0.243  33.098  10.949
48562W        W16956  17.048   9.309  10.703
48563W        W16957   4.268   0.093   0.804
48564W        W16958  31.120  27.219  13.145
48565W        W16959  20.942  39.062  14.793
48566W        W16960  28.663   3.726  14.971
48567W        W16961  24.097  42.735  13.800
48568W        W16962   8.352  27.884  11.386
48569W        W16963  35.968  14.359   3.268
48570W        W16964  31.825  14.155  11.510
48571W        W16965  36.611   3.223   0.781
48572W        W16966  31.157  15.405  10.596
48573W        W16967  35.343  15.092   4.095
48574W        W16968  29.671  36.339   0.877
48575W        W16969   3.996  30.942   2.470
48576W        W16970  13.852  44.554   4.796
48577W        W16971  32.155  26.609  13.746
48578W        W16972  43.278  10.320  11.197
48579W        W16973   9.189  28.307   3.729
48580W        W16974  35.164   6.916  11.748
48581W        W16975  37.058  26.723  14.111
48582W        W16976  28.753   4.632  10.652
48583W        W16977  27.445   5.225   0.765
48584W        W16978  27.660  38.469   0.251
48585W        W16979  44.257  41.786   1.724
48586W        W16980  11.270  12.225   3.198
48587W        W16981  18.818  15.218   0.420
48588W        W16982  42.992   6.665   0.762
48589W        W16983  41.408  23.165   3.804
48590W        W16984  14.265  23.819  11.674
48591W        W16985   0.507  35.569  13.604
48592W        W16986  33.336   9.566   3.122
48593W        W16987  39.680  22.626   3.740
48594W        W16988  25.652   6.151  10.823
48595W        W16989  28.698  21.106  12.835
48596W        W16990  17.451  22.115  12.064
48597W        W16991  12.934  32.864  12.506
48598W        W16992  27.651  44.513  13.172
48599W        W16993  27.633  20.993   0.570
48600W        W16994   3.332   3.842   3.779
48601W        W16995  26.053  35.582  12.567
48602W        W16996   0.748  28.004   0.326
48603W        W16997  38.472  39.409   4.088
48604W        W16998  16.802  14.078   3.656
48605W        W16999  18.104   0.462   2.166
48606W        W17000  15.582  35.402   0.798
48607W        W17001  21.542  21.956  14.210
48608W        W17002  35.984  21.297   1.438
48609W        W17003  23.147  25.642   1.383
48610W        W17004  33.086  38.064  12.993
48611W        W17005  43.132   2.238  14.541
48612W        W17006  35.326  17.873   3.166
48613W        W17007  39.856  26.986   0.204
48614W        W17008  15.198  30.271   3.352
48615W        W17009  20.093  20.103   0.757
48616W        W17010  17.548  40.783  14.269
48617W        W17011   5.945  35.087  12.935
48618W        W17012  11.057   0.873   2.285
48619W        W17013   5.243   8.700   1.370
48620W        W17014  17.914  26.407   0.465
48621W        W17015  39.572   6.486  14.986
48622W        W17016  25.825  33.462   4.950
48623W        W17017  36.467  41.745  11.011
48624W        W17018  23.409  10.354   2.273
48625W        W17019   6.340  34.107  13.337
48626W        W17020  42.606  11.967  11.941
48627W        W17021   0.751  37.083   4.100
48628W        W17022  36.993  39.329  13.829
48629W        W17023   0.465  31.821   4.400
48630W        W17024  16.672  29.592   2.907
48631W        W17025  20.539  21.304  11.865
48632W        W17026  35.334  31.942  10.654
48633W        W17027  19.085  22.807   1.250
48634W        W17028  43.350  38.503   0.828
48635W        W17029  32.592   8.594   5.079
48636W        W17030  26.547  24.731  13.258
48637W        W17031  43.006  19.382   2.642
48638W        W17032  26.920  43.496  10.917
48639W        W17033  17.135  29.658   4.403
48640W        W17034  41.803  10.467  14.805
48641W        W17035  12.396   2.336  10.688
48642W        W17036  26.696   2.135  10.388
48643W        W17037   3.943  38.319   0.099
48644W        W17038  19.487  32.448  10.806
48645W        W17039  12.809  23.325  12.940
48646W        W17040  43.025  23.091   4.221
48647W        W17041  18.664  36.310  13.566
48648W        W17042  26.927  23.692   0.174
48649W        W17043  22.942  36.189   4.863
48650W        W17044  12.636  28.536   3.251
48651W        W17045  37.278  33.883  13.067
48652W        W17046  34.689  40.820  10.845
48653W        W17047  13.638  31.418  12.934
48654W        W17048  29.198  17.257   1.843
48655W        W17049  44.904  10.622   0.102
48656W        W17050  37.531   1.383   2.743
48657W        W17051   0.547  12.109  14.562
48658W        W17052   3.312  41.274  11.157
48659W        W17053   2.553  13.081  13.739
48660W        W17054  17.300  21.871  13.552
48661W        W17055  23.608  11.580  13.862
48662W        W17056  19.817  34.497   3.337
48663W        W17057  34.323  20.205  11.325
48664W        W17058  38.353  30.474   2.302
48665W        W17059  10.273  41.899   0.999
48666W        W17060  36.972  18.245   2.472
48667W        W17061  20.190  19.038   2.304
48668W        W17062   0.491  37.390   4.835
48669W        W17063   9.451  26.491   5.073
48670W        W17064  23.384  34.375   3.223
48671W        W17065  17.187  23.002  11.153
48672W        W17066  26.635  29.678   3.212
48673W        W17067  28.121  34.448   3.664
48674W        W17068  30.913   0.872  10.737
48675W        W17069  36.083  31.523  13.893
48676W        W17070  40.586  40.671   2.920
48677W        W17071   7.464   2.347  11.019
48678W        W17072  21.239  21.943  13.433
48679W        W17073  33.668  21.178  13.006
48680W        W17074  27.436  34.038   3.230
48681W        W17075  41.614  24.107   2.469
48682W        W17076  35.431  11.896  13.290
48683W        W17077   6.737  31.309   3.272
48684W        W17078   5.768  37.974   0.525
48685W        W17079  16.609   6.030   3.251
48686W        W17080  44.685  18.331   5.061
48687W        W17081  22.535   0.974   0.419
48688W        W17082  33.501   7.836   2.852
48689W        W17083  38.582  34.978   3.142
48690W        W17084  33.084  31.395   1.874
48691W        W17085  38.538   4.807   1.858
48692W        W17086   9.837  25.508  10.599
48693W        W17087  22.317  43.566   1.319
48694W        W17088  41.539  17.243   3.686
48695W        W17089  21.969  33.615  14.057
48696W        W17090  39.309   6.431   1.709
48697W        W17091  30.915  30.698  10.267
48698W        W17092   4.871  37.803  10.710
48699W        W17093   4.876  15.928   0.200
48700W        W17094  11.841  28.604  12.109
48701W        W17095  30.829  11.305   9.933
48702W        W17096  41.025  21.064   3.110
48703W        W17097  29.735   3.741  11.718
48704W        W17098  42.775  14.412  10.597
48705W        W17099   3.966  32.314  12.578
48706W        W17100  40.297  38.874   0.524
48707W        W17101  18.690  34.561  14.866
48708W        W17102  42.502  44.833   1.198
48709W        W17103   7.263  12.619  14.920
48710W        W17104  27.641  44.310   3.306
48711W        W17105   0.662  10.168   4.522
48712W        W17106  34.823   7.342   0.832
48713W        W17107  11.093  30.345   3.575
48714W        W17108  35.737  39.053  12.957
48715W        W17109  25.463  34.618   3.884
48716W        W17110   6.066   6.673  11.802
48717W        W17111   4.890   2.253   2.798
48718W        W17112  37.438  44.501  11.516
48719W        W17113  15.995  29.963  11.422
48720W        W17114   6.448   5.806   3.876
48721W        W17115  42.665   1.275  10.690
48722W        W17116  14.183  12.919   4.583
48723W        W17117  15.650  18.582  10.719
48724W        W17118  35.986  22.816  12.931
48725W        W17119  12.922  34.876  11.949
48726W        W17120  39.947  38.348  14.301
48727W        W17121  14.626  29.666   4.381
48728W        W17122  39.256  32.679  13.616
48729W        W17123  31.026   7.981  12.972
48730W        W17124  11.874   2.949  13.128
48731W        W17125  19.303   7.883  11.582
48732W        W17126  31.539  25.137  11.714
48733W        W17127  15.724  28.126   0.531
48734W        W17128  30.855  22.117  11.174
48735W        W17129  26.184  29.739  14.878
48736W        W17130  43.635  17.177  14.885
48737W        W17131  44.611   0.193  12.287
48738W        W17132   3.112  31.352   4.629
48739W        W17133  42.057  43.896  12.161
48740W        W17134   4.734   5.731   1.786
48741W        W17135  38.819  21.539   1.814
48742W        W17136  10.850  43.061   4.149
48743W        W17137  25.428  25.814   3.247
48744W        W17138  28.692  27.067   4.041
48745W        W17139  14.071   2.891  12.108
48746W        W17140  41.036   9.794  14.216
48747W        W17141  12.922  35.088   0.156
48748W        W17142  25.540  20.203  10.828
48749W        W17143  40.453  37.581  13.390
48750W        W17144   1.277  32.428  13.203
48751W        W17145  10.409  33.344  14.000
48752W        W17146  27.701  27.110  10.744
48753W        W17147   2.481  15.955  10.765
48754W        W17148  10.193  44.423   3.146
48755W        W17149  11.851  40.836  12.387
48756W        W17150  17.109  26.057   3.316
48757W        W17151  10.967  43.243  13.187
48758W        W17152  29.477  37.733   3.680
48759W        W17153   9.333   7.151  10.406
48760W        W17154  27.151  14.111   0.957
48761W        W17155   5.839  20.691  12.459
48762W        W17156  35.799  36.420  14.384
48763W        W17157  14.503  26.588   4.578
48764W        W17158  44.558   1.736   2.498
48765W        W17159  15.602  22.519  10.714
48766W        W17160  16.052   0.495  13.019
48767W        W17161  41.265  19.972   1.148
48768W        W17162  43.302  35.896   1.212
48769W        W17163  11.648  34.581   1.445
48770W        W17164   0.958   7.802   1.325
48771W        W17165  36.098  12.861   3.147
48772W        W17166  30.885   9.896  14.989
48773W        W17167   7.334  27.601   1.349
48774W        W17168  12.675  39.955  11.531
48775W        W17169  31.333  29.051  13.755
48776W        W17170  40.584  13.851   1.297
48777W        W17171  19.578  15.662  11.123
48778W        W17172  22.837  12.094  12.590
48779W        W17173  40.154  36.586   3.435
48780W        W17174  16.618  23.554   3.147
48781W        W17175  16.279  13.538  13.900
48782W        W17176   0.794  16.332   1.253
48783W        W17177  35.985   6.521   4.099
48784W        W17178  26.372  17.609   4.217
48785W        W17179  44.493  41.711   3.731
48786W        W17180  25.033  21.010  11.169
48787W        W17181  41.309  13.189   4.551
48788W        W17182  36.576   2.052  14.497
48789W        W17183  34.063  35.870  12.578
48790W        W17184  23.636  32.061  10.624
48791W        W17185  11.090  36.371  10.898
48792W        W17186  34.369   8.905  11.982
48793W        W17187  28.070  22.528  10.884
48794W        W17188   5.705  12.620  12.436
48795W        W17189  32.356  29.651   3.702
48796W        W17190  39.871  17.716  12.470
48797W        W17191  32.842   1.731   0.889
48798W        W17192   2.654  15.770   1.752
48799W        W17193  23.569  34.985   4.669
48800W        W17194  44.829  39.619  10.259
48801W        W17195  27.409  27.442   1.214
48802W        W17196  42.540  22.702   4.601
48803W        W17197  11.313  33.727  13.325
48804W        W17198  20.714  17.731  11.596
48805W        W17199  30.483  32.592  11.086
48806W        W17200  19.123  10.393   0.824
48807W        W17201  13.025   6.950   9.957
48808W        W17202  34.033  12.398   3.436
48809W        W17203   7.460  33.117   2.226
48810W        W17204   3.253  34.113  13.382
48811W        W17205  29.065  37.850   4.684
48812W        W17206   6.638  36.703  13.031
48813W        W17207  13.297  26.957  14.280
48814W        W17208  38.978  44.761   1.215
48815W        W17209   4.262  38.306   4.820
48816W        W17210  22.641  24.624   1.836
48817W        W17211  38.330  21.787   1.888
48818W        W17212  14.222  24.100   4.108
48819W        W17213  28.143  44.599   0.190
48820W        W17214  17.257  31.437  11.364
48821W        W17215  23.592   9.857   0.735
48822W        W17216   2.460  40.662   0.108
48823W        W17217   3.381  16.696   2.870
48824W        W17218   0.507  27.629  10.776
48825W        W17219  26.605  34.866  14.810
48826W        W17220  36.950  25.268   3.161
48827W        W17221   8.724  28.109   2.511
48828W        W17222  12.540  44.360  10.797
48829W        W17223  19.219   2.045   2.746
48830W        W17224  39.946  37.335   5.462
48831W        W17225  39.844   0.665  14.405
48832W        W17226  24.653  19.661  12.034
48833W        W17227  18.741  13.800   2.150
48834W        W17228  40.763  35.164   1.333
48835W        W17229  33.119  20.504  12.043
48836W        W17230   5.881  35.347   1.771
48837W        W17231  35.471  14.139   1.037
48838W        W17232  34.162  26.050   3.186
48839W        W17233  10.908  30.028   2.859
48840W        W17234  25.221  24.594   1.257
48841W        W17235   4.217  11.620   4.604
48842W        W17236  18.701  44.816   2.393
48843W        W17237  35.942  23.215   4.291
48844W        W17238  44.785  36.034   4.049
48845W        W17239  25.930  31.545   2.294
48846W        W17240  10.747   7.179   2.133
48847W        W17241  42.504  25.959   3.148
48848W        W17242  24.627  34.406  13.634
48849W        W17243   3.308  14.888   0.886
48850W        W17244  30.935  27.642   0.758
48851W        W17245   7.384  28.218  11.684
48852W        W17246   5.332  23.585   1.653
48853W        W17247  24.407   4.805   0.622
48854W        W17248  24.687  20.047  11.202
48855W        W17249   7.283  43.107   2.265
48856W        W17250   7.468  39.623   1.919
48857W        W17251  30.202  24.999  10.715
48858W        W17252  18.330  12.749   3.693
48859W        W17253  37.508  15.260  11.934
48860W        W17254  14.342  14.704   2.309
48861W        W17255  14.802  22.134   0.935
48862W        W17256  17.255  15.487  12.263
48863W        W17257  11.101  25.958  13.968
48864W        W17258   9.327  28.529  13.838
48865W        W17259  12.120  11.914   4.701
48866W        W17260  11.302   0.098  12.388
48867W        W17261  36.837   0.936  13.350
48868W        W17262  27.682  30.094   0.370
48869W        W17263  42.259  40.257  12.501
48870W        W17264  17.393  42.752  11.572
48871W        W17265  22.421  40.573  12.106
48872W        W17266  41.797  25.131   2.879
48873W        W17267   6.174   5.294  11.543
48874W        W17268  37.345  42.826   3.634
48875W        W17269  43.416  38.344   1.770
48876W        W17270   9.977  18.110  12.558
48877W        W17271  37.044  34.583   4.623
48878W        W17272  23.630  10.240   2.748
48879W        W17273  24.378   8.397  12.865
48880W        W17274  24.481   5.272   4.370
48881W        W17275  18.605  33.384  10.246
48882W        W17276  24.073   5.785   0.528
48883W        W17277  33.850  16.020  11.310
48884W        W17278   8.794  15.124  13.986
48885W        W17279  16.737  25.164  11.578
48886W        W17280  11.396   3.942   4.154
48887W        W17281  26.444  18.183   1.959
48888W        W17282  24.811   5.238  14.368
48889W        W17283  26.669  29.673   4.190
48890W        W17284  14.636  10.657  10.587
48891W        W17285  18.222   3.180  13.958
48892W        W17286  11.352   4.309  14.366
48893W        W17287  22.099   4.710   2.686
48894W        W17288  12.741  36.441   4.326
48895W        W17289  37.452  28.648   3.865
48896W        W17290  18.215  15.664   2.194
48897W        W17291  35.578  27.035  10.589
48898W        W17292   5.540  28.008   0.768
48899W        W17293  30.711  24.665   3.799
48900W        W17294  29.423  30.380  13.347
48901W        W17295  44.488  15.360   3.854
48902W        W17296   0.942  23.550   1.917
48903W        W17297  32.374  25.865   4.604
48904W        W17298  15.317   2.119   1.884
48905W        W17299  10.680   3.436   2.431
48906W        W17300   0.294   7.287   2.863
48907W        W17301   0.651   5.735  11.903
48908W        W17302  24.879  33.021  14.001
48909W        W17303  34.467   1.733  12.905
48910W        W17304   1.843   3.315  13.104
48911W        W17305  40.315  40.851   0.993
48912W        W17306   8.563   4.773  11.163
48913W        W17307  33.592  33.063  10.755
48914W        W17308  43.429  19.241   4.562
48915W        W17309  28.451  41.235   4.229
48916W        W17310  12.260  38.502  11.002
48917W        W17311   2.700  19.469  11.607
48918W        W17312  34.506  39.817   0.369
48919W        W17313  11.247  25.184  10.796
48920W        W17314  12.098  25.662   1.176
48921W        W17315  20.006  24.534   0.283
48922W        W17316   4.752  14.663   3.066
48923W        W17317  19.953  19.386  11.150
48924W        W17318  30.600  23.971   1.378
48925W        W17319  37.794   6.668   0.337
48926W        W17320  32.017  28.860  13.431
48927W        W17321  35.254  13.292   4.133
48928W        W17322  22.155  29.333  12.580
48929W        W17323  27.050  24.497   4.224
48930W        W17324  19.000  31.963  14.863
48931W        W17325   5.791   1.793   4.172
48932W        W17326  34.643  31.964   1.436
48933W        W17327  35.033  26.940  12.245
48934W        W17328  22.200  39.743  12.541
48935W        W17329  10.791   9.799  11.115
48936W        W17330   4.018  43.534   1.173
48937W        W17331  27.236  16.769   1.837
48938W        W17332  37.677   0.915   3.959
48939W        W17333  15.161  11.018  11.218
48940W        W17334   3.437  15.620   2.714
48941W        W17335   4.959  29.530   3.556
48942W        W17336   8.209  35.863   1.463
48943W        W17337  25.594  35.160  13.116
48944W        W17338  16.969  25.992  11.285
48945W        W17339  14.681  44.926   3.617
48946W        W17340  22.339   5.238  11.195
48947W        W17341  38.893  44.287  13.386
48948W        W17342  13.410  18.630   4.153
48949W        W17343   0.319  39.887  12.362
48950W        W17344  39.284  15.648   2.415
48951W        W17345  36.936  16.401   4.385
48952W        W17346  14.831  21.794  13.648
48953W        W17347  31.894  29.513  11.979
48954W        W17348  31.033  23.757   0.873
48955W        W17349  11.404   3.250  12.396
48956W        W17350  21.699  40.912   0.218
48957W        W17351  37.531  36.898  12.558
48958W        W17352   3.168   0.429  13.563
48959W        W17353  36.989  13.224  12.062
48960W        W17354  11.520  35.130  10.891
48961W        W17355   7.343  10.680  12.076
48962W        W17356  43.483  10.540  13.908
48963W        W17357  28.659  43.160   9.765
48964W        W17358  29.019  37.306  14.476
48965W        W17359   3.881  17.273   4.523
48966W        W17360  10.872   1.319  11.463
48967W        W17361  29.609  12.343  14.161
48968W        W17362   9.263  18.662  14.217
48969W        W17363  10.303  31.408  13.860
48970W        W17364   7.153   2.890   3.226
48971W        W17365  34.609  42.336   1.348
48972W        W17366  14.216  22.195   1.714
48973W        W17367  33.535  29.117   1.781
48974W        W17368  13.778   8.335   2.150
48975W        W17369   4.533  19.563  11.107
48976W        W17370  43.420  31.527   3.359
48977W        W17371  21.459  35.313  13.934
48978W        W17372  25.651  18.130   4.600
48979W        W17373  31.022   0.364   0.033
48980W        W17374   8.843   3.646   0.916
48981W        W17375  14.945  16.708  11.206
48982W        W17376  16.797  31.438  13.104
48983W        W17377  27.998  25.281   3.300
48984W        W17378  11.843  18.381  11.082
48985W        W17379   5.134   9.946  11.168
48986W        W17380  41.798  30.690  13.529
48987W        W17381   3.234  14.162  14.300
48988W        W17382  11.687  18.287   3.853
48989W        W17383  43.559  12.130   4.600
48990W        W17384  31.983  22.581   3.578
48991W        W17385   4.396  33.436   3.534
48992W        W17386  29.027  10.913  14.530
48993W        W17387  43.881  24.474  12.040
48994W        W17388  14.863  37.847  14.949
48995W        W17389   7.494  19.608   3.940
48996W        W17390  31.614  32.163   4.786
48997W        W17391  20.591  38.034  11.512
48998W        W17392  24.158  29.194   3.851
48999W        W17393  34.421  35.252  11.545
49000W        W17394  12.237  10.613  12.782
49001W        W17395  19.539  31.781  10.282
49002W        W17396  16.675  20.245   1.908
49003W        W17397  20.536  36.127  11.517
49004W        W17398   6.401  29.050   3.674
49005W        W17399   4.999  21.778   2.035
49006W        W17400  26.665  32.909   3.769
49007W        W17401  25.090   2.680  13.788
49008W        W17402   5.931   4.492   3.683
49009W        W17403  15.778  31.543  13.659
49010W        W17404  35.491  10.359   1.441
49011W        W17405  15.032  10.129  12.112
49012W        W17406  39.260  26.692   3.083
49013W        W17407  28.045  11.414   5.039
49014W        W17408  33.165  30.478  10.708
49015W        W17409   4.340  33.133  13.359
49016W        W17410  23.134   1.386   3.013
49017W        W17411  33.239  14.933   1.931
49018W        W17412  40.650   8.734   3.632
49019W        W17413  43.773  41.494   2.966
49020W        W17414  25.363  15.217  10.666
49021W        W17415  25.608  10.248  13.777
49022W        W17416  42.888  11.536   0.215
49023W        W17417   8.385  38.771  14.465
49024W        W17418  10.664  11.006   1.376
49025W        W17419  44.853  14.185  14.042
49026W        W17420  20.676  28.200   3.728
49027W        W17421  26.471   6.916   0.275
49028W        W17422  40.966  19.655  10.797
49029W        W17423  28.738  17.804  11.523
49030W        W17424   0.706  28.169  14.367
49031W        W17425  36.537  27.412   0.871
49032W        W17426  39.954  27.930   0.486
49033W        W17427  38.126  42.692  11.407
49034W        W17428  19.671  25.529   1.862
49035W        W17429   7.771  31.143   4.260
49036W        W17430  42.007  19.503   0.786
49037W        W17431  44.991   5.217  12.394
49038W        W17432  13.788  39.991   0.530
49039W        W17433  26.592  35.573  11.580
49040W        W17434  37.949  36.094  14.283
49041W        W17435  36.560  32.915  14.504
49042W        W17436   0.591  35.786   4.488
49043W        W17437  12.880  38.787  11.138
49044W        W17438  22.059   8.401  10.617
49045W        W17439  27.980  24.729   1.093
49046W        W17440  36.313   6.567  12.080
49047W        W17441  18.107   3.933  11.926
49048W        W17442  21.637  39.444  10.629
49049W        W17443  10.287  37.480   2.173
49050W        W17444   0.989  28.522   3.215
49051W        W17445  35.123  10.633  11.247
49052W        W17446  25.921   1.725   4.179
49053W        W17447  14.829  39.358  14.925
49054W        W17448  42.382  22.518  11.589
49055W        W17449  15.271  11.415   1.383
49056W        W17450  20.022  16.329  11.447
49057W        W17451  38.614  30.323   4.082
49058W        W17452  40.517  32.452  11.077
49059W        W17453  17.163  29.701   4.924
49060W        W17454  22.140  28.327  13.969
49061W        W17455   1.744   2.511   3.568
49062W        W17456  10.203  19.116   1.644
49063W        W17457  22.535  29.065   3.764
49064W        W17458  17.072   7.472   1.340
49065W        W17459   9.282   3.886  11.716
49066W        W17460  15.112  16.007  11.515
49067W        W17461  18.556   4.884  12.865
49068W        W17462  18.080  27.142  14.557
49069W        W17463  40.362   7.233  14.068
49070W        W17464  39.290  14.290   1.271
49071W        W17465  21.138  22.115  14.484
49072W        W17466   7.123  21.630   4.526
49073W        W17467  43.570  23.541  13.980
49074W        W17468  24.201  35.995   2.759
49075W        W17469  22.022  41.919   0.770
49076W        W17470  22.889  37.317  12.034
49077W        W17471   1.682  20.465  14.836
49078W        W17472  30.636  15.234   0.411
49079W        W17473   8.414  18.737   0.269
49080W        W17474  44.796  28.557   4.061
49081W        W17475   3.737   0.449  12.582
49082W        W17476   9.109  39.818  13.003
49083W        W17477  26.504  32.872   2.482
49084W        W17478  30.084  38.907  12.665
49085W        W17479  19.506  22.020   4.156
49086W        W17480   9.841  25.964  14.366
49087W        W17481  42.790  14.731   2.386
49088W        W17482  12.888  18.089  12.013
49089W        W17483  39.297  14.625   4.918
49090W        W17484   1.895  26.169   3.353
49091W        W17485  35.950  33.746   3.317
49092W        W17486   3.863  43.707   1.620
49093W        W17487  12.600  43.698  13.914
49094W        W17488  24.476  12.095  13.045
49095W        W17489  39.248   9.061  14.831
49096W        W17490  41.114  12.805  13.594
49097W        W17491  22.986  30.050   2.869
49098W        W17492   5.940   8.762   3.395
49099W        W17493  40.799  35.214  11.007
49100W        W17494  36.038  25.170   4.423
49101W        W17495  20.029  43.965  12.120
49102W        W17496  24.208  26.468  10.741
49103W        W17497  44.561  30.957   0.677
49104W        W17498   4.423   3.324  13.525
49105W        W17499  25.646   4.347   4.692
49106W        W17500  28.667   6.216   0.315
49107W        W17501  17.776  26.385   4.061
49108W        W17502   6.327  32.854   4.249
49109W        W17503  13.077  42.805   0.349
49110W        W17504  25.524  25.518   1.097
49111W        W17505  15.106  13.379  10.886
49112W        W17506  18.420  36.065  14.377
49113W        W17507  39.367  17.830   2.917
49114W        W17508  25.929  21.340  10.243
49115W        W17509  37.013  35.350   1.909
49116W        W17510  22.022   4.236   5.037
49117W        W17511  33.120  14.717  12.505
49118W        W17512  14.985  10.192   4.974
49119W        W17513  23.228  24.099  11.448
49120W        W17514  16.047  20.554  13.912
49121W        W17515  29.494  42.479  11.433
49122W        W17516   7.737  35.714   4.437
49123W        W17517  35.279   4.647  14.267
49124W        W17518   0.817   9.910  13.309
49125W        W17519  13.147   8.169  14.990
49126W        W17520   1.359  22.027  12.516
49127W        W17521  23.002  29.021  10.367
49128W        W17522   3.758  38.274   2.753
49129W        W17523  31.981  17.370  12.414
49130W        W17524  30.562   7.712  12.089
49131W        W17525  20.293  41.519  12.337
49132W        W17526  36.412  35.862   0.586
49133W        W17527   3.190  14.847   3.167
49134W        W17528  37.892  18.371   1.399
49135W        W17529  29.090  32.489   1.978
49136W        W17530   4.328  29.419   1.260
49137W        W17531  30.136  41.233  12.433
49138W        W17532  41.258   2.923  13.758
49139W        W17533   5.443   6.692  13.317
49140W        W17534  14.753  25.190  10.950
49141W        W17535  42.799  15.355  12.971
49142W        W17536  35.789  14.200  12.156
49143W        W17537  29.112  44.705   0.856
49144W        W17538  38.842  28.968  11.995
49145W        W17539   1.661   8.827  10.657
49146W        W17540  27.982   9.971   0.290
49147W        W17541   5.558  16.042   1.026
49148W        W17542  23.723  23.325  14.772
49149W        W17543  18.522  15.136  12.283
49150W        W17544   7.369  20.262   3.961
49151W        W17545  21.533  25.454   2.134
49152W        W17546  38.913  26.757  14.795
49153W        W17547  26.637  28.098  13.801
49154W        W17548  38.540   9.735   3.610
49155W        W17549  25.409  11.306   4.052
49156W        W17550  26.697  37.092   5.147
49157W        W17551  17.196  38.114  12.538
49158W        W17552  27.902  36.521   0.390
49159W        W17553  36.519  24.804  11.252
49160W        W17554  37.843  20.507   2.240
49161W        W17555  22.097  24.063  10.482
49162W        W17556   9.093   0.197   1.955
49163W        W17557  22.138  36.720   2.796
49164W        W17558  30.205  39.051  13.174
49165W        W17559   5.297   0.945  10.790
49166W        W17560  32.646   9.136  13.072
49167W        W17561  39.524  40.552  11.573
49168W        W17562   5.907  16.196   2.818
49169W        W17563   1.447  32.807   2.216
49170W        W17564  24.154  27.140   2.193
49171W        W17565  44.849  18.567   3.172
49172W        W17566  36.444  43.937  13.752
49173W        W17567   7.176   2.890   2.328
49174W        W17568  26.891   0.000   1.839
49175W        W17569  12.041  20.197  12.991
49176W        W17570  11.314  37.238  11.022
49177W        W17571   6.453  13.962  14.770
49178W        W17572   7.453  22.649   0.908
49179W        W17573  28.736  30.645  11.960
49180W        W17574   0.500  10.256   1.707
49181W        W17575   4.138  10.360   4.021
49182W        W17576   4.682  19.926  11.435
49183W        W17577  24.509  31.571  10.671
49184W        W17578   0.997  39.610   1.278
49185W        W17579  20.958  12.737   2.128
49186W        W17580  14.260  15.378  12.533
49187W        W17581  41.127  11.729  14.256
49188W        W17582  13.132  16.109   3.722
49189W        W17583  38.561  29.755  11.601
49190W        W17584  16.674  17.237   1.270
49191W        W17585  25.575  19.408   2.856
49192W        W17586  26.418   8.133   3.724
49193W        W17587  17.789  35.796   2.781
49194W        W17588  13.036  43.479   3.250
49195W        W17589  28.684   0.437  10.803
49196W        W17590  10.530  34.986  14.915
49197W        W17591  35.303  25.101   4.964
49198W        W17592   5.827   0.450  10.570
49199W        W17593  42.272  29.424  13.340
49200W        W17594  27.459   7.085   0.283
49201W        W17595  39.465  17.989  13.463
49202W        W17596  29.998  20.198   2.808
49203W        W17597  21.674  12.586   3.559
49204W        W17598  43.224   0.455   2.313
49205W        W17599  30.653  30.605  13.110
49206W        W17600  36.466  17.738   1.852
49207W        W17601  11.078  42.916   3.715
49208W        W17602  29.834  16.119  11.106
49209W        W17603  40.744   2.743   4.097
49210W        W17604  24.528  37.972   3.620
49211W        W17605   1.300   4.353   0.947
49212W        W17606  40.698   0.369  14.110
49213W        W17607  39.577  19.872   0.922
49214W        W17608  22.288  16.711  14.017
49215W        W17609   8.130  14.704  12.015
49216W        W17610   6.980  23.041  10.994
49217W        W17611   8.428  43.040   3.369
49218W        W17612   6.006  10.741  14.011
49219W        W17613  12.260  15.535   0.938
49220W        W17614  12.155   1.303   0.313
49221W        W17615  11.638  43.235  12.484
49222W        W17616  33.192  28.949  12.993
49223W        W17617  24.380  18.747   0.913
49224W        W17618  35.980   1.406   1.227
49225W        W17619  24.114  26.153  11.941
49226W        W17620   0.665  32.877  11.142
49227W        W17621  31.097  43.470  12.047
49228W        W17622  12.737  28.067  13.015
49229W        W17623   5.119  20.333  12.957
49230W        W17624  17.552  32.566   1.450
49231W        W17625  17.136   1.918   1.497
49232W        W17626  36.273  15.722   1.090
49233W        W17627  39.881  26.036   4.777
49234W        W17628  18.031   5.245  10.445
49235W        W17629   0.783  11.364   4.074
49236W        W17630  10.598  32.622  12.490
49237W        W17631  23.560  28.382  12.704
49238W        W17632   6.038  17.324   3.170
49239W        W17633  25.345   4.978   1.406
49240W        W17634  13.603  38.026   4.348
49241W        W17635  40.973  23.127   2.268
49242W        W17636  10.247  14.381   4.656
49243W        W17637   9.229  29.489  10.735
49244W        W17638  20.977   4.807   3.613
49245W        W17639  11.382  10.092  14.555
49246W        W17640  34.746  21.129   0.392
49247W        W17641   5.672  26.514  13.315
49248W        W17642  37.765  14.091  13.580
49249W        W17643  38.632  35.690  11.468
49250W        W17644  39.898  35.075  11.885
49251W        W17645  14.069  27.361   2.689
49252W        W17646   7.174  24.516   1.170
49253W        W17647  36.014  38.120   3.246
49254W        W17648  24.151  11.670  14.518
49255W        W17649   5.109  30.521   2.389
49256W        W17650  11.948  26.930  14.098
49257W        W17651  40.056  31.876  12.881
49258W        W17652  17.907   0.642  14.973
49259W        W17653  19.823   7.944  12.889
49260W        W17654  18.336   2.862  12.971
49261W        W17655  27.980  33.579   0.960
49262W        W17656  12.803  43.940   1.728
49263W        W17657  39.792  38.257  12.326
49264W        W17658   0.925  22.668  14.404
49265W        W17659   1.308  20.150  13.041
49266W        W17660  30.294  37.293  12.440
49267W        W17661  12.087  13.178  13.814
49268W        W17662   2.177  43.106   4.210
49269W        W17663   5.724  11.690   0.691
49270W        W17664  22.732   6.442   1.236
49271W        W17665   6.735  36.363  14.787
49272W        W17666  35.516  27.549   0.818
49273W        W17667  36.300  38.465  10.499
49274W        W17668  28.941  25.298   3.243
49275W        W17669  34.711   3.745   1.853
49276W        W17670  21.197   6.268   3.320
49277W        W17671  10.210  24.403   2.982
49278W        W17672  29.956  32.152  14.399
49279W        W17673  14.523  22.498  11.417
49280W        W17674  15.526   4.627  12.062
49281W        W17675   0.243  15.344  11.144
49282W        W17676  38.403  17.284  14.148
49283W        W17677  30.629  11.349   2.203
49284W        W17678  12.719  44.855   4.782
49285W        W17679   5.435  35.091  14.526
49286W        W17680  27.250  14.212   4.042
49287W        W17681  13.681   2.059   2.682
49288W        W17682  34.305   2.961  11.109
49289W        W17683  26.004  18.004   1.234
49290W        W17684  15.892  21.318  13.453
49291W        W17685  16.657  10.042   4.469
49292W        W17686  21.660  22.051   3.370
49293W        W17687   3.224  16.776  11.051
49294W        W17688   0.379  41.780   3.713
49295W        W17689  33.653  37.404  13.235
49296W        W17690   9.688   6.964   1.147
49297W        W17691   5.240  17.446   2.123
49298W        W17692  12.238  27.632   3.116
49299W        W17693  29.701  11.726   4.092
49300W        W17694  10.089  26.839  14.305
49301W        W17695   9.157  30.683   2.721
49302W        W17696  24.658   4.155  12.723
49303W        W17697  38.051  30.425  11.894
49304W        W17698  23.197   7.340   0.948
49305W        W17699  20.032  34.954   0.137
49306W        W17700  11.526   2.490   4.098
49307W        W17701  40.076   6.793  11.125
49308W        W17702  14.404  43.888   1.366
49309W        W17703  16.558  27.458  11.545
49310W        W17704  34.620  17.522   2.751
49311W        W17705  23.200  33.369   0.530
49312W        W17706  28.388  17.759  12.499
49313W        W17707   2.464   9.740  12.027
49314W        W17708   9.353  36.411  14.885
49315W        W17709   7.178  42.542  12.976
49316W        W17710   9.191   3.163   4.987
49317W        W17711  29.485  37.453   4.162
49318W        W17712  13.339  38.115  11.059
49319W        W17713  10.636  14.570   0.237
49320W        W17714  32.129  14.284   0.477
49321W        W17715   8.717  11.886  14.775
49322W        W17716  19.805  29.581  10.728
49323W        W17717   8.343  44.251   3.588
49324W        W17718   9.685  25.332   0.728
49325W        W17719   8.656  33.454  12.678
49326W        W17720  23.626  22.051   0.437
49327W        W17721  43.120  22.362  11.105
49328W        W17722   8.170   1.134  11.552
49329W        W17723  40.770  31.388   4.552
49330W        W17724  28.841  32.469  10.957
49331W        W17725  18.585  29.036   0.001
49332W        W17726   4.776  27.061  11.186
49333W        W17727   4.910  26.223  12.887
49334W        W17728   3.780  34.412  14.522
49335W        W17729  10.377  12.296  12.028
49336W        W17730  29.658  41.903   4.947
49337W        W17731  44.708  11.615   4.637
49338W        W17732  40.019  35.611  13.813
49339W        W17733  33.053  27.150   0.499
49340W        W17734   8.684  15.179   0.802
49341W        W17735  16.077  39.088   0.953
49342W        W17736  11.792  10.264   3.175
49343W        W17737  20.077  44.027   4.349
49344W        W17738  10.756  20.582  11.112
49345W        W17739   8.730  34.971   1.197
49346W        W17740  24.699  44.488   2.654
49347W        W17741  12.318  10.111   0.386
49348W        W17742  29.326  14.109  14.090
49349W        W17743   1.722  43.115  13.011
49350W        W17744  14.157  22.365  13.837
49351W        W17745  38.110  15.618  13.887
49352W        W17746   5.356  37.961   4.546
49353W        W17747  13.456  44.050  11.875
49354W        W17748  25.118   5.919  14.821
49355W        W17749  18.854  26.229   1.364
49356W        W17750  27.665  16.495   1.906
49357W        W17751  41.006  25.999   3.663
49358W        W17752  41.536   8.776  14.490
49359W        W17753  21.237  38.011  12.972
49360W        W17754  24.729   4.291  14.419
49361W        W17755  20.658   8.829   0.764
49362W        W17756  10.809  22.995   0.702
49363W        W17757   0.932  43.075  13.910
49364W        W17758  27.532  20.810  13.141
49365W        W17759  23.675  22.157  11.294
49366W        W17760  15.603  42.315   2.504
49367W        W17761  36.969   3.303  12.956
49368W        W17762  14.836  44.885   4.110
49369W        W17763   2.183  35.226   2.401
49370W        W17764  35.427   3.171  12.867
49371W        W17765  28.832   9.436   0.239
49372W        W17766  41.397  18.354   4.700
49373W        W17767  40.440  21.536   1.617
49374W        W17768  41.636  35.061   1.138
49375W        W17769  40.976  25.497   3.711
49376W        W17770  29.367  26.185  14.803
49377W        W17771   5.653  12.597  12.938
49378W        W17772  32.901   5.213  11.083
49379W        W17773  17.691  28.535   3.458
49380W        W17774  32.779  33.161  11.961
49381W        W17775   7.658   6.380   4.709
49382W        W17776  41.054   0.513  11.229
49383W        W17777   4.189  27.023   4.780
49384W        W17778  22.811  26.061   0.922
49385W        W17779  36.148  17.336  12.057
49386W        W17780  15.307  39.461   3.694
49387W        W17781  38.475  22.445   3.696
49388W        W17782  18.145  43.351  14.322
49389W        W17783  15.073   4.790  14.919
49390W        W17784  34.146  16.893   3.273
49391W        W17785  26.059  19.018   1.348
49392W        W17786  38.553  40.413   0.220
49393W        W17787   3.768  43.937   2.598
49394W        W17788  15.206  11.473   2.752
49395W        W17789  37.890  30.557  12.379
49396W        W17790  35.595  11.395  13.384
49397W        W17791  25.656  44.437  11.520
49398W        W17792  22.237  37.507   3.132
49399W        W17793  40.998  32.180   0.794
49400W        W17794  40.237   7.613  14.397
49401W        W17795   7.848  29.259   2.210
49402W        W17796  42.334  35.887  12.521
49403W        W17797  42.223   2.187  10.647
49404W        W17798  25.515  36.608  12.875
49405W        W17799  42.304  31.766   1.323
49406W        W17800  41.062  41.868  12.661
49407W        W17801  23.156  36.555   3.738
49408W        W17802  27.646  30.186   4.280
49409W        W17803   4.823  13.755   2.321
49410W        W17804  44.385   0.436   5.333
49411W        W17805  12.164  12.095  10.724
49412W        W17806  18.612   3.996  12.832
49413W        W17807  36.638  26.164  14.703
49414W        W17808   3.923  31.666  14.202
49415W        W17809  31.131  27.542  10.658
49416W        W17810  21.703  12.744  13.433
49417W        W17811  18.716  33.321   4.985
49418W        W17812   0.810  19.493  14.515
49419W        W17813  22.610  40.937   3.102
49420W        W17814   0.724  20.091  11.638
49421W        W17815  21.486  26.801   9.965
49422W        W17816   6.737  23.756   2.257
49423W        W17817  25.746  14.602   0.340
49424W        W17818   0.955  43.438   0.947
49425W        W17819  24.218  25.442   1.962
49426W        W17820  29.244  40.678   0.268
49427W        W17821  10.109  19.019  14.697
49428W        W17822  17.131  43.355  13.389
49429W        W17823  39.399  11.780   3.347
49430W        W17824  36.448   2.692   4.451
49431W        W17825   3.791  36.411   1.104
49432W        W17826   5.285  31.111  13.407
49433W        W17827  22.066  44.547  11.343
49434W        W17828  16.338  36.324   3.564
49435W        W17829  38.467  42.295   0.956
49436W        W17830  38.841  19.987  10.759
49437W        W17831  32.078   2.219  13.917
49438W        W17832  35.717  35.357   2.377
49439W        W17833   9.858  33.801   1.671
49440W        W17834  33.645  36.172  12.401
49441W        W17835  43.390  42.420  12.620
49442W        W17836  11.270   7.251   2.714
49443W        W17837  14.145   7.608  10.635
49444W        W17838  13.839   0.588   3.135
49445W        W17839  30.692   2.527   1.305
49446W        W17840  36.929  18.160   3.035
49447W        W17841  20.245  19.277  10.239
49448W        W17842  25.858  37.236  11.669
49449W        W17843  41.102  13.719   3.853
49450W        W17844   1.378  39.644  12.043
49451W        W17845  42.410  35.099  10.671
49452W        W17846  30.326   5.757  11.994
49453W        W17847   5.401  17.702  10.465
49454W        W17848  11.620  42.874  12.085
49455W        W17849  10.873  43.840  14.510
49456W        W17850  34.754  40.780   0.551
49457W        W17851  16.779  21.645   2.716
49458W        W17852   2.397  44.412  11.983
49459W        W17853  42.222   6.112   4.088
49460W        W17854   9.783   2.033   0.778
49461W        W17855   6.925  16.107   9.984
49462W        W17856  10.627   2.261  11.165
49463W        W17857  25.438  41.946   2.758
49464W        W17858  33.947  27.419   3.726
49465W        W17859   5.730  36.106  13.021
49466W        W17860  41.605  14.173   2.955
49467W        W17861   0.442  32.255   0.486
49468W        W17862  15.576  36.888  13.948
49469W        W17863   8.647   2.253  10.092
49470W        W17864  41.252  10.964  12.031
49471W        W17865  37.404  31.006   4.997
49472W        W17866  20.310   4.721  12.500
49473W        W17867  15.045  42.359  10.778
49474W        W17868   9.767   2.856   3.650
49475W        W17869  41.936   7.257  11.582
49476W        W17870  17.204   7.270  12.043
49477W        W17871   8.126  33.393   0.477
49478W        W17872  36.302   1.207   4.638
49479W        W17873   5.869   6.959  13.499
49480W        W17874  18.331  11.273  11.557
49481W        W17875  33.037   2.314   2.716
49482W        W17876  24.651   6.377  13.611
49483W        W17877  26.646  36.849  13.472
49484W        W17878  20.783  34.371   1.252
49485W        W17879  41.460   1.331   0.843
49486W        W17880  14.822  28.053  13.972
49487W        W17881  10.127  12.829  14.000
49488W        W17882  16.537  29.178  10.230
49489W        W17883  36.721  32.481  13.337
49490W        W17884  26.682  17.230  13.943
49491W        W17885  18.701  18.364  12.158
49492W        W17886  40.248  21.612   2.667
49493W        W17887   6.767  11.782  13.153
49494W        W17888  38.166  13.938  10.670
49495W        W17889  11.101  11.551  12.633
49496W        W17890  37.409  20.544  10.694
49497W        W17891   1.280  24.036   2.864
49498W        W17892  35.957  42.065   3.305
49499W        W17893  42.840  30.130   3.514
49500W        W17894   8.879  16.777   4.332
49501W        W17895  27.187  11.601  14.907
49502W        W17896  35.407   3.423   4.475
49503W        W17897  13.620  27.037  13.165
49504W        W17898  27.961   7.025  12.856
49505W        W17899  33.107  36.605   0.224
49506W        W17900   2.856  17.230  10.840
49507W        W17901   5.763  11.307   1.074
49508W        W17902  34.014  18.707  14.024
49509W        W17903   9.041  14.049   4.320
49510W        W17904  20.661  40.192   2.690
49511W        W17905  21.612   8.150  10.743
49512W        W17906  37.583  32.036   4.025
49513W        W17907  30.842  24.982   4.959
49514W        W17908  35.614   9.933   4.154
49515W        W17909  15.286  17.142   4.866
49516W        W17910  27.685   4.538   2.385
49517W        W17911  43.786  16.439  11.171
49518W        W17912  23.563  13.164  14.703
49519W        W17913  38.207  30.157  12.345
49520W        W17914  24.489  17.788   4.404
49521W        W17915  27.723   3.712   2.752
49522W        W17916  31.835  36.660   1.627
49523W        W17917  38.965  18.102   2.754
49524W        W17918  32.501  14.827  13.317
49525W        W17919   6.135   0.819  13.991
49526W        W17920  19.258  43.820  14.731
49527W        W17921  11.991   4.435  13.343
49528W        W17922  40.101  12.971  14.369
49529W        W17923  37.165  11.796   4.574
49530W        W17924   3.357  24.018   2.790
49531W        W17925  13.188   9.354   0.271
49532W        W17926  32.638  20.256  12.017
49533W        W17927  26.186  16.915  11.726
49534W        W17928  40.269   5.626   0.422
49535W        W17929  28.661   0.226   2.370
49536W        W17930  43.253  13.886   1.846
49537W        W17931  10.916  37.761   4.182
49538W        W17932   5.481  16.360   4.395
49539W        W17933  42.462  15.966   1.151
49540W        W17934  30.510  32.521   3.619
49541W        W17935  36.457  26.944   3.338
49542W        W17936  40.588   8.201   2.353
49543W        W17937  26.699  35.919  12.074
49544W        W17938  26.909  38.668  12.820
49545W        W17939  21.776  29.924   0.432
49546W        W17940  36.569  13.860  13.374
49547W        W17941  43.805  31.425  11.938
49548W        W17942  36.071  20.380   2.421
49549W        W17943   2.454  41.487  12.377
49550W        W17944  31.082  16.278  10.739
49551W        W17945   7.685  41.243  14.726
49552W        W17946  11.663   8.997  12.136
49553W        W17947  16.516  21.674   1.393
49554W        W17948  27.146   6.467   4.564
49555W        W17949  29.754  10.867   4.158
49556W        W17950   5.882   7.968  11.939
49557W        W17951  29.895  42.887  14.310
49558W        W17952   2.317  42.973   1.862
49559W        W17953   2.403  41.963  13.240
49560W        W17954  33.428   3.847   2.735
49561W        W17955  42.181  22.543   4.942
49562W        W17956  26.267   4.988   5.102
49563W        W17957  13.823  29.858   0.388
49564W        W17958  18.593  10.337  12.561
49565W        W17959  30.968  33.067  12.465
49566W        W17960  16.068  28.184   3.077
49567W        W17961   9.634   5.744  13.472
49568W        W17962  15.447  41.983   4.639
49569W        W17963  39.070  33.545  13.805
49570W        W17964  20.780  32.561  12.855
49571W        W17965  36.850  37.319   3.691
49572W        W17966  20.170  19.630  12.599
49573W        W17967  44.478  21.696  14.794
49574W        W17968  41.420  21.298  14.893
49575W        W17969  27.683  22.989   1.296
49576W        W17970  26.043  43.086  11.540
49577W        W17971  13.744  26.991  14.542
49578W        W17972  30.893   3.708  13.514
49579W        W17973   9.014  43.494   2.807
49580W        W17974   7.164  26.043   3.325
49581W        W17975  42.226  39.456   2.337
49582W        W17976  29.657  23.345  10.754
49583W        W17977  14.159  35.468   1.029
49584W        W17978  28.946  10.043  11.503
49585W        W17979   6.922  13.725  13.086
49586W        W17980   6.760  11.256   4.627
49587W        W17981  22.251  14.084   2.794
49588W        W17982  25.625  16.128   3.018
49589W        W17983   0.398  41.682  10.706
49590W        W17984  42.775   7.424   2.223
49591W        W17985   4.460   8.959   0.699
49592W        W17986  42.477  10.872  11.187
49593W        W17987   4.046  21.617   4.625
49594W        W17988  28.956   2.629   2.256
49595W        W17989  40.946  13.294  12.760
49596W        W17990   8.816  24.448  12.088
49597W        W17991   0.491  41.435  13.061
49598W        W17992  26.422  36.873   2.695
49599W        W17993  29.217  34.077   1.636
49600W        W17994  17.138   5.666   2.662
49601W        W17995  20.579  28.187   4.230
49602W        W17996  15.547   2.437   3.128
49603W        W17997  44.541  35.955   2.752
49604W        W17998   9.086   0.228  11.154
49605W        W17999  14.029  22.966   3.208
49606W        W18000   8.530  12.588   2.778
49607W        W18001   9.640  16.881   4.334
49608W        W18002  12.517  23.867  13.565
49609W        W18003  23.963   9.308  13.062
49610W        W18004  18.989  36.717  11.296
49611W        W18005  38.968  32.005   2.636
49612W        W18006   4.509  30.239  13.860
49613W        W18007  30.475  16.086   2.699
49614W        W18008  30.955  31.617  11.154
49615W        W18009  25.480   1.976   4.147
49616W        W18010  29.974  26.635   0.931
49617W        W18011  35.984  25.909  14.199
49618W        W18012   4.681  29.096   1.454
49619W        W18013  44.062  21.489   3.327
49620W        W18014   1.840  24.807  11.171
49621W        W18015  32.468  36.280   0.967
49622W        W18016  37.465  32.503   3.863
49623W        W18017   7.714  11.149  11.044
49624W        W18018   7.343  40.578  14.103
49625W        W18019  38.249  13.081  10.835
49626W        W18020   2.863  12.868  13.379
49627W        W18021  20.519  41.369   0.003
49628W        W18022  35.542  26.559  11.344
49629W        W18023   4.339  32.079  13.390
49630W        W18024  21.241  18.511  10.145
49631W        W18025  14.701  15.003   1.994
49632W        W18026  14.742   5.298   1.190
49633W        W18027   9.084  15.671   4.578
49634W        W18028   5.824   2.666  13.013
49635W        W18029  11.161   5.701   2.180
49636W        W18030  17.675   8.628  13.446
49637W        W18031  13.386  11.383   2.213
49638W        W18032   1.107   1.907   0.183
49639W        W18033   1.333   2.256  10.610
49640W        W18034  24.020  10.120   4.088
49641W        W18035  28.799  36.643   4.123
49642W        W18036  21.797  42.829   2.911
49643W        W18037   3.912   5.701  11.425
49644W        W18038  29.574  11.090   2.868
49645W        W18039   5.272  26.634  11.957
49646W        W18040  14.862  34.615   0.347
49647W        W18041  18.741  40.578  11.105
49648W        W18042  36.292  10.352   3.679
49649W        W18043   8.967   8.233   1.734
49650W        W18044  28.011  21.612  10.444
49651W        W18045  11.339  25.003  13.039
49652W        W18046  31.283  30.357   5.018
49653W        W18047  35.662  26.604  13.462
49654W        W18048  41.767  16.206  11.984
49655W        W18049  20.584   3.884   2.138
49656W        W18050  34.003  31.992  13.324
49657W        W18051  19.761   7.343   2.102
49658W        W18052  16.603  22.499  12.468
49659W        W18053   1.506  16.779   1.747
49660W        W18054  39.965  21.979  10.810
49661W        W18055   5.877   1.682  12.546
49662W        W18056  19.519  26.169  12.548
49663W        W18057  10.186  18.902  12.991
49664W        W18058   1.351  27.181   4.535
49665W        W18059   8.867  13.774   1.030
49666W        W18060  26.655  29.222  13.906
49667W        W18061  11.776  18.492  12.463
49668W        W18062   2.349  44.085  12.601
49669W        W18063  34.910  37.903  13.044
49670W        W18064  44.023  16.804   2.572
49671W        W18065   2.870  15.452  14.321
49672W        W18066  44.419  30.402  12.840
49673W        W18067   6.002  44.781   3.813
49674W        W18068  39.052  33.455  11.443
49675W        W18069   8.635   8.396   3.593
49676W        W18070   9.222   2.596  11.470
49677W        W18071   9.424  27.153   4.594
49678W        W18072  15.643   9.720   4.104
49679W        W18073  33.662  38.524   4.179
49680W        W18074  13.071  44.354   2.113
49681W        W18075  15.364  15.942  14.866
49682W        W18076  22.516   7.695   4.805
49683W        W18077   7.173  16.057  11.932
49684W        W18078  22.776  32.527  11.096
49685W        W18079   6.921  25.249  11.193
49686W        W18080   9.869  19.166   4.499
49687W        W18081  32.591  21.643   1.168
49688W        W18082  16.359  32.244   2.358
49689W        W18083  23.065   1.932  12.765
49690W        W18084  17.067  30.005  12.943
49691W        W18085  14.702   4.213   3.367
49692W        W18086   9.075  31.915   0.621
49693W        W18087  40.996  10.044  13.761
49694W        W18088  39.929  19.088   4.123
49695W        W18089  36.011  24.985  12.099
49696W        W18090   8.124  14.265  14.405
49697W        W18091  24.756  14.192   2.860
49698W        W18092  33.884  30.155  10.471
49699W        W18093  33.609  20.171   2.859
49700W        W18094  24.632   7.095   2.597
49701W        W18095  40.463   4.132  12.508
49702W        W18096  34.898  32.382   1.175
49703W        W18097  29.032  28.746   0.910
49704W        W18098  30.157   6.799   1.325
49705W        W18099  42.298  10.438  13.881
49706W        W18100   5.746  28.940   0.802
49707W        W18101  31.068  21.448  12.159
49708W        W18102  20.725  27.926  12.562
49709W        W18103   8.610  24.981  13.527
49710W        W18104  18.005   4.249   2.805
49711W        W18105  27.935   3.971  13.543
49712W        W18106   4.766  10.364   4.808
49713W        W18107   6.304  44.961  12.992
49714W        W18108  25.208   0.239   2.634
49715W        W18109  23.772  14.372   1.296
49716W        W18110  14.319  12.889  14.093
49717W        W18111  36.986  21.554  14.771
49718W        W18112  22.067  18.783  11.784
49719W        W18113  23.022  22.060  10.762
49720W        W18114  35.334  10.854   4.054
49721W        W18115  43.761   8.320  12.386
49722W        W18116   2.418  21.637  13.890
49723W        W18117  35.832  37.478  14.505
49724W        W18118  41.819  32.619  10.753
49725W        W18119  23.887   8.913   0.949
49726W        W18120  23.121  16.738  14.312
49727W        W18121   6.025  25.516   0.543
49728W        W18122  10.399  20.776  14.504
49729W        W18123  32.534  20.124  10.656
49730W        W18124  35.676   9.289  13.846
49731W        W18125   7.783  38.011  13.510
49732W        W18126  44.961  37.913   1.454
49733W        W18127  21.511  19.066   0.154
49734W        W18128  12.893  32.016  14.775
49735W        W18129  36.083  42.052   4.206
49736W        W18130   9.333   6.039   3.241
49737W        W18131   6.688  28.122   3.261
49738W        W18132  23.484  25.159  14.322
49739W        W18133  23.442  13.813   1.381
49740W        W18134  14.314  17.078  14.841
49741W        W18135  43.391  44.262   2.796
49742W        W18136  31.843  18.617   2.804
49743W        W18137  16.323  23.598   1.419
49744W        W18138  32.404  35.048   0.946
49745W        W18139  10.737  38.458  13.888
49746W        W18140  14.785  10.123  13.365
49747W        W18141  33.413  41.588  13.734
49748W        W18142   4.274   8.242   0.406
49749W        W18143   0.572  16.360  10.716
49750W        W18144  44.341  24.142  10.665
49751W        W18145  32.403  21.660  12.907
49752W        W18146  44.052   8.668   1.881
49753W        W18147  39.636  26.390   0.925
49754W        W18148  22.773  30.615  10.371
49755W        W18149   0.702  14.527  14.896
49756W        W18150   5.749  35.867  12.038
49757W        W18151   1.831  14.533  12.010
49758W        W18152   0.522  22.555   2.828
49759W        W18153  27.176  44.666  14.951
49760W        W18154  42.985  25.355  10.393
49761W        W18155  44.329  11.811   3.716
49762W        W18156  23.156  29.333  12.147
49763W        W18157  20.761  13.868  11.960
49764W        W18158  15.295  38.870  13.382
49765W        W18159   2.216   0.338  13.433
49766W        W18160  36.716  25.319   4.294
49767W        W18161   0.350  12.320   2.108
49768W        W18162  28.137  43.392  10.437
49769W        W18163  14.138  11.671   3.274
49770W        W18164  41.407  43.388   1.960
49771W        W18165   2.779  10.147  11.945
49772W        W18166  35.615  44.655   1.483
49773W        W18167  39.091  11.857   2.304
49774W        W18168  42.477  17.318  10.633
49775W        W18169  36.515  30.294   4.955
49776W        W18170  22.979  14.293  11.157
49777W        W18171  30.852  39.624  11.143
49778W        W18172  36.886   4.919  12.561
49779W        W18173  32.360  22.115  12.517
49780W        W18174  37.903   7.664   1.804
49781W        W18175  44.330  31.402  12.014
49782W        W18176   7.333   6.985  10.187
49783W        W18177  10.796  28.856   3.200
49784W        W18178  35.077   8.771  11.143
49785W        W18179  42.540   9.301  11.156
49786W        W18180  37.768   2.777   2.856
49787W        W18181  34.008  28.607   4.419
49788W        W18182  26.511   9.753  14.330
49789W        W18183  18.173  35.065  11.906
49790W        W18184  29.850   8.862   3.359
49791W        W18185  44.616  20.748   3.817
49792W        W18186   5.190   5.490  11.561
49793W        W18187   3.674  12.857   1.638
49794W        W18188  24.046  43.920   2.594
49795W        W18189   5.658   7.787  13.897
49796W        W18190  41.848  21.113  13.874
49797W        W18191   7.287  20.310   2.598
49798W        W18192  23.552  23.272   3.227
49799W        W18193   7.191  40.748  12.109
49800W        W18194  29.984  11.958   2.363
49801W        W18195  22.750  12.757   0.382
49802W        W18196  16.621  16.542  11.759
49803W        W18197   6.285  16.381  12.967
49804W        W18198  15.455  27.837   5.164
49805W        W18199  35.525  40.616  11.226
49806W        W18200   0.744   2.084   2.401
49807W        W18201  28.322  34.851  14.747
49808W        W18202  34.471  39.821   4.578
49809W        W18203   9.764  40.105  14.876
49810W        W18204   4.254  36.011  13.160
49811W        W18205  34.425  33.776   3.838
49812W        W18206  44.368   8.410  11.057
49813W        W18207  30.843  28.572   0.663
49814W        W18208  19.054  18.679  12.382
49815W        W18209  16.846  43.736  11.619
49816W        W18210  19.590  24.935  12.864
49817W        W18211  27.794   0.734   3.154
49818W        W18212  38.562  23.508   2.260
49819W        W18213  15.705   6.386   3.192
49820W        W18214  31.618  21.713   3.665
49821W        W18215  44.432  40.607  11.086
49822W        W18216  24.685  13.078  12.924
49823W        W18217  36.048  30.937  13.989
49824W        W18218  16.615  23.791   3.611
49825W        W18219  16.100  41.319  10.545
49826W        W18220  17.159   7.092  13.881
49827W        W18221  25.286  31.904  13.429
49828W        W18222  43.717  38.304  12.077
49829W        W18223  16.881  13.723   5.063
49830W        W18224  30.906  33.307  12.029
49831W        W18225  26.698  39.999   3.263
49832W        W18226   8.712  43.964   0.350
49833W        W18227  39.870  10.104  12.451
49834W        W18228   0.480   7.000   3.709
49835W        W18229  22.433  42.790  11.268
49836W        W18230  25.039  15.807   4.153
49837W        W18231   8.434   1.213  12.022
49838W        W18232  25.249  43.242   4.149
49839W        W18233  43.525  14.137   2.221
49840W        W18234  31.380  26.960   0.164
49841W        W18235  33.501  39.069  11.751
49842W        W18236  31.979  35.740   2.752
49843W        W18237   7.716  30.458   2.821
49844W        W18238  28.214   8.393  10.814
49845W        W18239  29.850  36.840  11.223
49846W        W18240  28.321  24.080  11.137
49847W        W18241  37.495  12.582  13.413
49848W        W18242   8.754  12.149   0.595
49849W        W18243  25.004  25.614   0.820
49850W        W18244  42.668   9.126   1.462
49851W        W18245  33.703  39.804  10.592
49852W        W18246  23.132   6.439   4.792
49853W        W18247  29.636   2.281   2.916
49854W        W18248  42.615  40.971  11.862
49855W        W18249  20.249  37.127   3.173
49856W        W18250  34.520  39.899   1.956
49857W        W18251  43.212  21.584   4.251
49858W        W18252   0.274   9.765   0.408
49859W        W18253  35.114  17.242  11.401
49860W        W18254  16.170  19.004  11.999
49861W        W18255  25.182  44.879   4.433
49862W        W18256  27.450   8.356   0.695
49863W        W18257  32.742  44.655  14.286
49864W        W18258  14.400  18.528  12.831
49865W        W18259  44.839   0.461  13.790
49866W        W18260  27.381   9.523   3.721
49867W        W18261  40.870   8.774  10.759
49868W        W18262  34.492  20.815  14.849
49869W        W18263  44.287  27.269   3.168
49870W        W18264  36.017  17.251  13.550
49871W        W18265  11.805   2.155   2.852
49872W        W18266  32.352  23.801   0.535
49873W        W18267  25.125  18.296   1.087
49874W        W18268   8.190  16.468   0.829
49875W        W18269  32.586   2.865  11.470
49876W        W18270  43.470  13.170  12.451
49877W        W18271  35.842  16.071   0.185
49878W        W18272   4.975  39.061   3.131
49879W        W18273  21.786  42.998  14.909
49880W        W18274  29.636  13.164   1.450
49881W        W18275   8.993   3.126  13.714
49882W        W18276  21.041   0.273   2.371
49883W        W18277   7.757   5.492   2.773
49884W        W18278  41.381   7.375  13.549
49885W        W18279  42.740  25.181  13.428
49886W        W18280  21.724  43.551  14.073
49887W        W18281  10.008  28.705   0.480
49888W        W18282  17.764  42.350   3.726
49889W        W18283  16.158  27.048  10.558
49890W        W18284  16.438  27.544  13.933
49891W        W18285  12.405  30.424   1.062
49892W        W18286  35.062   3.032   4.437
49893W        W18287  27.582  42.408   3.350
49894W        W18288  26.629  35.070  11.548
49895W        W18289  37.067   8.975  13.898
49896W        W18290  11.893   5.679   1.783
49897W        W18291  17.329  39.107   1.393
49898W        W18292  26.951  27.466   1.471
49899W        W18293  37.017  39.420   1.828
49900W        W18294  33.921  16.182   2.118
49901W        W18295  13.158  24.561  12.841
49902W        W18296  17.230  32.306   2.826
49903W        W18297   3.398  43.034   4.934
49904W        W18298  10.352  37.424   1.646
49905W        W18299  20.744  28.415  13.374
49906W        W18300  37.757  14.997  14.897
49907W        W18301  35.111  24.198   1.798
49908W        W18302  16.529  18.959  13.365
49909W        W18303  27.902  20.996  12.387
49910W        W18304  28.849  33.231  12.373
49911W        W18305  14.341  36.366   0.169
49912W        W18306   3.216  17.186   0.713
49913W        W18307  11.889   0.334   1.374
49914W        W18308   2.241  30.379  11.043
49915W        W18309  31.513   1.371  13.044
49916W        W18310  24.800  26.601   4.272
49917W        W18311  43.893  35.063   3.860
49918W        W18312  15.113  21.042   0.340
49919W        W18313  14.091  24.672  13.478
49920W        W18314  22.933  27.678   3.249
49921W        W18315   3.656  25.441   1.792
49922W        W18316  35.610  18.194   2.234
49923W        W18317  21.298   4.525  12.025
49924W        W18318   2.299  19.993   1.835
49925W        W18319  41.417   8.472   2.380
49926W        W18320  10.855   6.425   2.795
49927W        W18321  12.096  17.553  10.329
49928W        W18322  42.725  17.852  13.863
49929W        W18323  18.250  37.790  10.973
49930W        W18324  21.265  13.714  11.928
49931W        W18325  11.998  16.249  12.453
49932W        W18326  42.413  42.038  11.000
49933W        W18327  34.896  44.457   0.504
49934W        W18328  43.989  32.043   9.910
49935W        W18329   3.016  39.358  11.873
49936W        W18330  22.230  28.461   1.324
49937W        W18331  19.726  23.270   3.748
49938W        W18332  24.613  39.387   1.886
49939W        W18333  29.829   1.829  14.927
49940W        W18334   4.283  15.306  12.323
49941W        W18335  18.482  35.027  10.646
49942W        W18336  39.716  36.865  11.731
49943W        W18337   9.121  27.973  12.102
49944W        W18338  16.849  44.879  13.595
49945W        W18339   6.829  42.267   3.373
49946W        W18340  26.068  11.548  10.614
49947W        W18341  34.374   4.972  13.456
49948W        W18342   5.964  30.471   3.221
49949W        W18343  26.994  31.539   3.687
49950W        W18344  22.965  39.106   1.215
49951W        W18345  10.098  15.482  10.798
49952W        W18346  31.648  13.606  11.606
49953W        W18347  33.853   4.886   4.535
49954W        W18348  37.491  15.502   3.648
49955W        W18349   6.674  32.019  14.083
49956W        W18350   3.575  11.541   4.336
49957W        W18351  20.020  12.803   1.453
49958W        W18352  13.503   0.215   2.782
49959W        W18353  33.942  31.693  11.255
49960W        W18354  11.781  42.064  14.489
49961W        W18355  12.599   0.733  12.969
49962W        W18356  30.108  43.524  13.947
49963W        W18357  27.673   1.472  10.662
49964W        W18358   8.713  24.210  11.644
49965W        W18359  40.533  19.646   3.114
49966W        W18360  16.741  24.521  12.465
49967W        W18361  44.324  13.806  11.528
49968W        W18362   2.180  11.325  10.484
49969W        W18363  33.516   4.481   1.437
49970W        W18364  21.914   6.952   1.571
49971W        W18365  37.014   2.240   2.406
49972W        W18366  12.125  33.182  12.115
49973W        W18367  34.019  11.919   1.000
49974W        W18368   1.032  19.994  12.069
49975W        W18369  40.045   8.875  12.027
49976W        W18370  23.213  34.641   3.623
49977W        W18371  19.588   6.345   2.417
49978W        W18372  16.771  39.760   3.676
49979W        W18373  26.299  34.846   3.818
49980W        W18374   5.962  10.674  11.114
49981W        W18375  42.264   5.302   2.416
49982W        W18376  28.181  23.937  10.661
49983W        W18377   2.658  16.790   3.599
49984W        W18378  35.366  36.350   4.601
49985W        W18379  37.075  20.745  13.894
49986W        W18380   0.195  28.232  14.443
49987W        W18381   0.913  21.512   1.399
49988W        W18382  23.250  26.552  14.294
49989W        W18383  34.833  22.672  13.406
49990W        W18384  26.217  35.615   0.199
49991W        W18385  40.311  11.216  12.079
49992W        W18386  41.867  19.647   4.714
49993W        W18387  43.369   2.845   5.057
49994W        W18388   9.232  14.825  12.008
49995W        W18389  21.281   3.324  10.509
49996W        W18390   2.002  23.454  14.006
49997W        W18391   5.426   0.813  11.389
49998W        W18392  18.138  10.362  14.646
49999W        W18393  17.324  36.026   2.827
50000W        W18394   0.400   8.464  10.158
50001W        W18395  11.561  38.467   1.148
50002W        W18396  13.184   1.235   0.245
50003W        W18397  23.557   7.262   4.460
50004W        W18398  32.141  39.846   1.424
50005W        W18399  19.943   5.261   4.250
50006W        W18400  15.302  43.641   4.240
50007W        W18401  44.337  17.705   1.909
50008W        W18402   0.748   2.896  14.709
50009W        W18403   4.499  28.975  11.293
50010W        W18404  28.904  28.969  14.407
50011W        W18405  39.811  17.814  11.611
50012W        W18406  36.980  24.286  11.443
50013W        W18407  11.503   4.160   0.727
50014W        W18408  22.260  14.107  12.768
50015W        W18409  25.210  33.500  13.827
50016W        W18410   8.074   8.458  14.474
50017W        W18411   5.737  44.417  14.777
50018W        W18412  28.595  43.613   2.274
50019W        W18413  42.398  40.537  13.919
50020W        W18414   5.126  17.208   4.165
50021W        W18415  11.287   9.305   0.598
50022W        W18416  26.697  37.774   0.957
50023W        W18417   8.318  36.557  11.419
50024W        W18418  43.644   7.731   2.290
50025W        W18419   7.393  18.318   0.753
50026W        W18420  15.879  13.874  13.925
50027W        W18421   9.483  32.938   1.785
50028W        W18422  40.839  24.772   3.233
50029W        W18423  43.679  36.633   2.736
50030W        W18424   5.640  37.486   2.405
50031W        W18425  36.827  39.851  12.005
50032W        W18426  13.313  25.263   0.257
50033W        W18427  13.645  26.265  14.091
50034W        W18428  41.999  26.514   3.719
50035W        W18429   7.274  15.596  11.708
50036W        W18430   8.820  43.504   4.035
50037W        W18431  43.777  27.516   3.812
50038W        W18432   8.127  39.803  13.507
50039W        W18433  41.449  15.675  13.411
50040W        W18434  25.141  12.975   4.233
50041W        W18435  12.766  22.819  12.786
50042W        W18436  11.810  14.166  12.623
50043W        W18437  28.507   3.514  11.529
50044W        W18438  18.991  28.110  12.687
50045W        W18439  27.495   5.775   0.142
50046W        W18440  27.759  10.377  14.861
50047W        W18441  27.189  35.978  14.298
50048W        W18442  38.299   1.701   3.243
50049W        W18443  13.201  36.845  12.984
50050W        W18444   3.057  31.810  11.593
50051W        W18445  44.815  10.799  14.215
50052W        W18446  28.695  35.354  13.835
50053W        W18447   9.777   1.518   0.926
50054W        W18448  27.298  20.008  12.878
50055W        W18449  19.980  31.483   1.193
50056W        W18450   4.636  34.649  12.559
50057W        W18451   1.855  24.261  14.410
50058W        W18452  33.987  29.067   1.002
50059W        W18453  21.457  25.944  13.866
50060W        W18454  40.500  16.616   1.922
50061W        W18455  42.164  39.569   4.517
50062W        W18456   8.703  23.519  14.528
50063W        W18457   8.815  33.516   1.201
50064W        W18458  16.293  10.836  14.384
50065W        W18459  21.931  43.110   3.757
50066W        W18460  14.766   7.868  13.031
50067W        W18461  33.112  31.396  12.515
50068W        W18462   5.170   8.750   9.764
50069W        W18463   8.206  12.366  12.241
50070W        W18464  42.471   5.619  11.249
50071W        W18465  37.811  41.011   3.539
50072W        W18466   9.193   4.667   1.277
50073W        W18467  15.770   3.349  11.178
50074W        W18468   9.995  28.183   0.347
50075W        W18469  12.205  26.703   3.210
50076W        W18470  35.866   9.341  14.443
50077W        W18471  20.294  10.488   3.276
50078W        W18472   5.182  11.288  12.141
50079W        W18473  37.322  14.665   2.076
50080W        W18474  11.793   2.231   0.354
50081W        W18475   0.076  10.231   0.389
50082W        W18476   0.326  28.515   1.336
50083W        W18477  13.625  12.539  14.918
50084W        W18478  11.750  21.659   0.571
50085W        W18479  13.665  44.439   2.480
50086W        W18480  39.104  13.521   4.346
50087W        W18481  23.989   2.350  10.643
50088W        W18482  39.700  16.982   1.269
50089W        W18483   1.960  18.732   2.406
50090W        W18484  37.520  32.998   1.284
50091W        W18485  14.618   8.306   3.650
50092W        W18486  30.582  17.598  10.332
50093W        W18487  30.580  43.471   1.295
50094W        W18488  44.139  29.543  12.058
50095W        W18489  40.330  20.998   1.301
50096W        W18490  10.410  12.195   2.790
50097W        W18491  26.664  23.691   2.765
50098W        W18492   9.204  24.061   4.511
50099W        W18493  10.374   7.273  13.060
50100W        W18494  36.866  28.544  12.455
50101W        W18495  12.121  29.476   0.430
50102W        W18496  15.918   8.043   5.074
50103W        W18497  28.245  29.153   1.074
50104W        W18498   1.892  23.803   0.781
50105W        W18499  31.060  21.353  13.870
50106W        W18500  43.430   9.776   3.954
50107W        W18501  30.837  37.422   4.702
50108W        W18502  28.269   2.353   1.873
50109W        W18503  33.916  30.824   0.247
50110W        W18504  18.089  22.625  13.461
50111W        W18505  19.057  44.223   1.243
50112W        W18506  36.962  35.039   1.486
50113W        W18507  27.074   9.795   3.337
50114W        W18508   5.647   6.857   4.039
50115W        W18509  28.611  38.534  13.528
50116W        W18510  17.230  15.330  11.778
50117W        W18511   2.715  20.314   1.828
50118W        W18512  28.520  27.648   0.409
50119W        W18513   9.862  10.110  14.478
50120W        W18514  30.656  34.066  14.375
50121W        W18515   7.135   0.909   0.325
50122W        W18516  33.196   0.326  12.696
50123W        W18517  13.739  17.221   4.488
50124W        W18518  39.047  10.406  14.891
50125W        W18519  16.479  32.322  13.505
50126W        W18520   3.371  18.272   2.795
50127W        W18521  40.131   1.268  11.124
50128W        W18522  41.482  17.274  10.762
50129W        W18523  11.288  43.438   1.658
50130W        W18524   4.429  36.831   5.005
50131W        W18525  32.051  42.284   4.180
50132W        W18526  17.478  13.623   1.365
50133W        W18527   0.392   6.164  14.410
50134W        W18528  40.373  10.708  14.918
50135W        W18529  11.165   8.019   2.328
50136W        W18530  20.701  27.128  13.961
50137W        W18531   6.107   1.809  12.059
50138W        W18532  25.063  30.158   4.450
50139W        W18533  38.606  11.298  13.597
50140W        W18534  17.163  32.816   2.860
50141W        W18535  44.847  26.760  10.007
50142W        W18536  44.495  31.353  11.330
50143W        W18537   3.901  19.271   0.704
50144W        W18538  27.949   6.995  11.987
50145W        W18539   3.655  16.209  12.863
50146W        W18540  28.163   4.853  13.685
50147W        W18541  14.714  28.070   0.893
50148W        W18542  37.939  15.298  11.680
50149W        W18543   0.010  28.109   1.670
50150W        W18544  33.340   0.937  14.124
50151W        W18545  15.905   3.386  13.939
50152W        W18546  14.238  24.951  13.913
50153W        W18547   1.457  31.283   2.397
50154W        W18548  26.723   0.666  11.410
50155W        W18549  12.239  18.877  13.333
50156W        W18550  36.243  43.067  11.210
50157W        W18551  27.353  29.606  11.714
50158W        W18552  43.419  44.708  12.624
50159W        W18553  35.915  34.322  13.102
50160W        W18554  25.527  28.613   0.436
50161W        W18555  22.213  18.390  14.705
50162W        W18556  23.959   8.120   2.257
50163W        W18557  11.368   9.717   1.649
50164W        W18558  13.297  23.950   2.260
50165W        W18559  13.148  22.752   1.271
50166W        W18560  31.111  16.593  12.075
50167W        W18561  21.166   2.344   4.436
50168W        W18562  25.624   3.724  10.355
50169W        W18563  33.837  41.229  10.756
50170W        W18564  39.467  11.720   1.006
50171W        W18565  18.786   9.225  13.411
50172W        W18566   9.965  22.017  14.548
50173W        W18567  18.771  35.734   1.920
50174W        W18568  31.370  40.841   2.471
50175W        W18569  16.574   7.703  13.498
50176W        W18570  16.294  44.343   3.935
50177W        W18571  27.490  25.704  14.266
50178W        W18572  43.908  33.501  13.446
50179W        W18573  26.586  32.728  12.100
50180W        W18574  26.602  43.196   5.086
50181W        W18575   8.866  24.231   0.968
50182W        W18576   1.490  14.177   1.657
50183W        W18577  11.203  40.870  11.320
50184W        W18578  15.756  26.969   2.340
50185W        W18579  44.967  36.568   1.573
50186W        W18580   0.576  26.129  13.888
50187W        W18581  26.958  37.348   1.881
50188W        W18582  38.137   1.710   0.501
50189W        W18583  12.363  19.531   2.797
50190W        W18584  12.829  31.027  12.294
50191W        W18585  40.067  29.491   3.566
50192W        W18586  21.308   7.378  11.950
50193W        W18587  44.471  43.879   5.044
50194W        W18588  43.022  33.951   0.707
50195W        W18589  42.106  43.303   3.074
50196W        W18590  25.475   3.737  14.964
50197W        W18591  17.281   3.922   3.392
50198W        W18592  21.933   8.179   2.940
50199W        W18593  38.707  34.480  10.094
50200W        W18594  29.453  35.130  12.663
50201W        W18595  21.553  14.719   1.852
50202W        W18596  42.210  35.021  13.886
50203W        W18597  17.308  23.232  10.681
50204W        W18598  25.043   5.439   2.391
50205W        W18599  24.601  25.035  11.608
50206W        W18600   5.336  41.880  11.679
50207W        W18601  17.192  44.994  14.918
50208W        W18602  33.528  19.032   4.858
50209W        W18603   4.846  41.064   1.731
50210W        W18604  31.977  20.647  14.864
50211W        W18605  12.868  44.492   1.626
50212W        W18606   0.962   6.223   2.344
50213W        W18607   0.984  37.460   0.727
50214W        W18608   5.014  26.289   0.257
50215W        W18609   0.070  40.353  13.569
50216W        W18610   8.301  12.894   3.258
50217W        W18611  34.765  30.962   1.631
50218W        W18612   9.095  40.416  14.579
50219W        W18613   9.270  31.070  12.335
50220W        W18614  38.838  27.506   1.856
50221W        W18615   3.850  43.449   2.403
50222W        W18616  36.105  20.105   1.997
50223W        W18617  19.499  36.185   0.234
50224W        W18618  31.085  24.251   4.082
50225W        W18619  13.551  17.310  11.271
50226W        W18620  43.463  32.878   3.233
50227W        W18621  30.899  37.965  11.990
50228W        W18622  30.443   4.048  11.217
50229W        W18623  34.587  34.091  14.954
50230W        W18624  31.745  42.287   0.026
50231W        W18625   4.421  23.778  13.896
50232W        W18626  30.916  15.499  11.675
50233W        W18627  10.908  20.023   2.748
50234W        W18628  30.903  24.454  13.114
50235W        W18629  32.966  25.009   0.686
50236W        W18630  11.375   1.720   2.211
50237W        W18631  16.682   8.953   3.201
50238W        W18632  22.110  25.648   3.916
50239W        W18633  15.324  12.574   2.362
50240W        W18634   2.325   4.483  13.933
50241W        W18635  25.522  15.760   0.911
50242W        W18636   7.312  20.294   1.696
50243W        W18637   6.731   8.351  12.767
50244W        W18638  44.039  30.404   2.364
50245W        W18639  18.777  23.906  13.335
50246W        W18640   7.177  26.592  14.334
50247W        W18641  34.974  28.822   3.714
50248W        W18642   9.218  13.583  14.415
50249W        W18643  30.560   5.782   0.222
50250W        W18644  35.890  32.198  14.567
50251W        W18645  12.669  34.128   2.667
50252W        W18646   9.428  20.173  11.581
50253W        W18647  41.459  18.646   1.006
50254W        W18648  30.489  27.533   4.143
50255W        W18649  22.581   9.714   3.286
50256W        W18650   9.428  24.187   4.073
50257W        W18651  21.803  37.827  13.832
50258W        W18652  18.355  39.331  12.890
50259W        W18653   2.041  26.561   4.112
50260W        W18654  16.252  17.526  12.466
50261W        W18655   7.666  30.165  11.654
50262W        W18656  16.463  11.724  11.079
50263W        W18657  12.339  17.256   3.078
50264W        W18658  41.847  37.587  14.366
50265W        W18659   6.219   4.163   0.369
50266W        W18660  15.597  33.703  12.583
50267W        W18661  22.748  35.068  11.157
50268W        W18662  12.663   7.480   2.427
50269W        W18663  38.810  34.887   1.850
50270W        W18664  26.681   7.669   3.808
50271W        W18665   0.261   6.442  14.833
50272W        W18666  26.141  15.759   1.428
50273W        W18667  20.370  12.595   2.664
50274W        W18668  17.395  13.612  11.130
50275W        W18669  38.055  25.396   0.261
50276W        W18670  18.038   5.659  13.946
50277W        W18671  44.009  10.372  14.499
50278W        W18672  18.882   0.937  10.903
50279W        W18673  41.792  33.449  13.958
50280W        W18674  41.065  40.314   0.905
50281W        W18675  44.015  33.866  12.615
50282W        W18676  44.033  24.659  13.399
50283W        W18677  10.705  20.682  12.637
50284W        W18678   6.218  31.736  10.737
50285W        W18679  39.489  12.754   1.565
50286W        W18680   2.086  16.358   3.789
50287W        W18681  27.523  20.755  12.634
50288W        W18682  11.816  35.231  11.961
50289W        W18683  43.012  44.514   3.724
50290W        W18684  42.451  44.593  14.756
50291W        W18685   4.829   1.199   2.038
50292W        W18686  12.222  44.546   2.214
50293W        W18687  33.154  43.359  14.755
50294W        W18688  34.596  12.145  13.962
50295W        W18689  19.307  25.237  14.781
50296W        W18690  43.765  13.390   4.407
50297W        W18691   7.859  31.483  10.651
50298W        W18692  42.979   8.762   1.191
50299W        W18693  26.524   0.260   2.374
50300W        W18694  25.578   6.448   1.898
50301W        W18695  38.851  23.170  11.001
50302W        W18696  33.041  43.539  12.094
50303W        W18697  24.905  10.156   0.655
50304W        W18698  33.966   9.578   3.635
50305W        W18699  29.574  37.844   4.552
50306W        W18700  11.641  13.097  11.186
50307W        W18701  39.460  21.176  13.745
50308W        W18702  21.084  22.901   1.206
50309W        W18703  16.599   1.284   4.094
50310W        W18704  29.447  44.450   4.070
50311W        W18705  37.274  21.104  12.502
50312W        W18706   2.608  35.618  11.188
50313W        W18707  19.730  20.485   4.146
50314W        W18708  16.130   0.762  13.443
50315W        W18709  25.628   8.649  12.921
50316W        W18710   1.795   6.256   1.980
50317W        W18711  37.333  10.828  13.938
50318W        W18712   0.889  39.153   4.578
50319W        W18713   7.674   1.980   2.425
50320W        W18714  22.075  30.226  12.125
50321W        W18715  23.749  13.590   0.399
50322W        W18716  21.744  14.162  11.612
50323W        W18717  17.490  19.410  13.386
50324W        W18718   9.902  36.869  11.701
50325W        W18719  43.336  29.035   4.863
50326W        W18720  32.516  20.961  13.546
50327W        W18721  38.013  15.826   2.791
50328W        W18722   6.929  18.312   3.324
50329W        W18723  32.583  28.296  12.973
50330W        W18724   0.807  10.157  14.264
50331W        W18725  23.517  39.368   0.328
50332W        W18726  21.263  19.283  12.998
50333W        W18727  23.736  44.953  14.012
50334W        W18728  17.054  18.005  12.418
50335W        W18729  26.654  22.088   1.656
50336W        W18730  11.854  39.457  11.765
50337W        W18731  16.518   6.957   1.772
50338W        W18732   2.004   7.530  14.048
50339W        W18733  31.998  27.785   1.435
50340W        W18734   1.326  27.142   2.391
50341W        W18735  21.578   6.455   9.970
50342W        W18736  31.921  29.606   1.625
50343W        W18737  20.277  40.814   3.676
50344W        W18738  29.901  42.452   0.922
50345W        W18739  39.029  24.295  14.936
50346W        W18740  24.746  20.585   0.258
50347W        W18741  22.926  16.813  11.558
50348W        W18742  18.274  31.411  14.967
50349W        W18743   0.020  13.734   1.285
50350W        W18744  44.669  18.766  12.137
50351W        W18745  29.154  42.871   4.674
50352W        W18746  17.142  41.127   2.834
50353W        W18747  33.214  42.437   3.139
50354W        W18748  38.758  10.903   3.208
50355W        W18749  14.619   5.994  12.370
50356W        W18750  32.975  13.138   3.579
50357W        W18751  35.139  36.489   4.152
50358W        W18752   0.382  11.609   4.275
50359W        W18753  44.110  32.664   3.602
50360W        W18754  29.700   6.328   4.470
50361W        W18755  14.564  12.965   3.146
50362W        W18756  40.094  30.284   3.065
50363W        W18757   6.362  32.708   3.281
50364W        W18758   4.989  41.091  12.375
50365W        W18759   7.458   4.872   5.167
50366W        W18760  24.221  39.331   2.399
50367W        W18761   4.749  27.571   3.995
50368W        W18762  27.967  35.078   4.939
50369W        W18763  10.417  19.958  14.923
50370W        W18764  32.330  15.778  10.002
50371W        W18765  20.484  42.597   1.280
50372W        W18766  21.751  21.489   1.770
50373W        W18767  31.087  39.069   3.818
50374W        W18768  33.818  20.109  14.497
50375W        W18769  34.608  33.201   1.340
50376W        W18770  42.896  28.189   1.967
50377W        W18771  43.831  44.216   0.712
50378W        W18772  29.315  42.050  11.645
50379W        W18773  23.499  29.584  13.823
50380W        W18774   1.254  39.942   2.968
50381W        W18775   4.842  42.713   2.241
50382W        W18776   9.051  40.418  12.617
50383W        W18777  27.841  35.406  12.827
50384W        W18778  34.566   2.029   2.260
50385W        W18779  18.339  32.495  13.798
50386W        W18780  34.666  42.517   1.837
50387W        W18781  17.001   0.518  11.087
50388W        W18782  15.471  29.689   1.732
50389W        W18783   5.829  10.278  13.838
50390W        W18784  35.594  12.544  12.052
50391W        W18785  33.539  20.685   2.681
50392W        W18786   5.076  32.660   2.303
50393W        W18787  24.230  26.739  13.030
50394W        W18788  13.413  22.761   0.387
50395W        W18789  12.351  38.598  13.103
50396W        W18790  21.841  15.493  12.068
50397W        W18791  37.094  11.749  14.881
50398W        W18792  39.130   4.501  14.010
50399W        W18793   6.754  21.180  13.386
50400W        W18794  44.350  37.156  13.664
50401W        W18795  28.146  29.656  14.770
50402W        W18796  22.823  18.676   4.848
50403W        W18797  14.552  25.793  12.024
50404W        W18798  30.578  35.869  12.356
50405W        W18799  31.437  28.280  14.286
50406W        W18800  29.122  38.052  13.332
50407W        W18801  18.230  37.842  12.894
50408W        W18802  25.659  34.505  10.140
50409W        W18803  36.115  19.605   1.788
50410W        W18804  41.476  26.583  14.372
50411W        W18805  14.161  10.236   0.901
50412W        W18806  31.554  21.593  14.003
50413W        W18807  14.237  25.978   0.761
50414W        W18808  24.259   3.712  11.055
50415W        W18809  35.591  28.005  10.536
50416W        W18810  25.038  14.540  12.582
50417W        W18811  29.038  29.715   4.222
50418W        W18812  25.173  29.025   2.812
50419W        W18813   5.743  13.889  14.074
50420W        W18814   1.317   3.509   3.772
50421W        W18815  34.523  29.134   0.906
50422W        W18816  25.058  40.814   2.339
50423W        W18817   3.410  28.521  10.746
50424W        W18818   6.223  27.953  11.185
50425W        W18819  25.030  12.046  13.209
50426W        W18820   2.435  43.508  14.957
50427W        W18821  33.043  37.493   3.803
50428W        W18822  12.652  13.070   0.224
50429W        W18823  24.198  26.548   2.824
50430W        W18824  16.665  24.442  14.423
50431W        W18825  20.789   3.196  10.650
50432W        W18826  39.603  24.722   4.105
50433W        W18827  37.378  36.318   1.481
50434W        W18828   3.142  15.132   2.728
50435W        W18829  38.603  38.376  11.947
50436W        W18830  10.570   6.317   2.359
50437W        W18831  40.871   6.552  13.482
50438W        W18832   2.524  32.511  12.632
50439W        W18833  17.838   7.188   0.876
50440W        W18834  32.123   8.745   2.121
50441W        W18835  42.223  23.624  13.961
50442W        W18836  41.432  12.624   1.397
50443W        W18837   3.000  29.538  10.717
50444W        W18838  30.428  11.722  12.835
50445W        W18839  25.423  21.006   0.695
50446W        W18840  14.715   0.721   9.732
50447W        W18841  28.268  13.001   3.602
50448W        W18842  23.484   8.483   0.292
50449W        W18843  12.234   3.473   4.217
50450W        W18844   4.800  16.325  11.234
50451W        W18845  32.260   0.326  13.783
50452W        W18846  17.223  32.893   3.355
50453W        W18847   3.347  12.957   2.507
50454W        W18848  25.736  10.660  14.069
50455W        W18849  35.542  42.248   0.517
50456W        W18850  44.371   2.855  11.916
50457W        W18851  18.499  23.587   3.351
50458W        W18852  30.991  20.289  12.894
50459W        W18853  35.560  21.616  11.200
50460W        W18854  15.211   4.657  10.719
50461W        W18855  43.852  42.326   4.630
50462W        W18856   6.086  44.429   3.053
50463W        W18857   5.415  31.953  11.038
50464W        W18858  33.372   4.347  12.452
50465W        W18859   3.909  26.228   2.204
50466W        W18860  41.146  43.346   4.682
50467W        W18861  21.032  38.340   0.869
50468W        W18862   5.428  26.668  11.461
50469W        W18863  12.776  26.687   1.914
50470W        W18864  22.533   9.734  12.888
50471W        W18865  12.368  30.205  13.533
50472W        W18866  22.309  14.999  13.414
50473W        W18867   7.718  37.984  11.889
50474W        W18868  30.081  12.149  12.893
50475W        W18869  31.545  44.737  13.581
50476W        W18870   0.299  34.403  12.840
50477W        W18871  20.989  25.109  13.306
50478W        W18872  43.237   8.275   1.915
50479W        W18873   4.091  41.580   2.183
50480W        W18874  13.179  14.822  12.348
50481W        W18875   5.833  27.497   3.810
50482W        W18876  41.944  31.774  14.431
50483W        W18877  27.296  24.747  12.614
50484W        W18878   1.118  34.358  11.935
50485W        W18879  14.076  35.067  14.105
50486W        W18880  31.068  44.986   4.830
50487W        W18881  20.824  25.024   0.111
50488W        W18882  15.253  23.187   2.764
50489W        W18883  29.099  40.010   4.761
50490W        W18884  38.302  35.272  13.329
50491W        W18885  40.003  16.033   4.065
50492W        W18886   9.149   1.006  11.365
50493W        W18887  36.013  10.938  12.206
50494W        W18888  20.054  30.425  13.833
50495W        W18889  22.227  40.008   1.752
50496W        W18890  11.878  28.508   4.638
50497W        W18891  17.166   8.179   4.736
50498W        W18892  12.405  25.779  11.528
50499W        W18893  11.250  29.612   2.858
50500W        W18894  42.362   4.731   4.649
50501W        W18895  16.854  11.804  14.394
50502W        W18896  13.140   7.822   3.235
50503W        W18897  17.207  44.034  14.829
50504W        W18898  30.025  43.255   4.750
50505W        W18899  37.654  16.175  12.249
50506W        W18900   9.892  32.587  12.949
50507W        W18901  10.471  42.578   2.726
50508W        W18902   5.846   3.722  11.988
50509W        W18903   4.181  43.286   1.597
50510W        W18904  24.160  22.281  11.107
50511W        W18905  29.238  25.521  11.500
50512W        W18906  31.208   1.987  14.397
50513W        W18907  37.491  21.441  13.805
50514W        W18908   2.097  31.369   1.451
50515W        W18909  37.596  36.040  13.368
50516W        W18910  44.780  34.481  13.859
50517W        W18911  42.412  16.369  11.580
50518W        W18912   2.346  37.472   0.969
50519W        W18913  44.349  36.134   4.644
50520W        W18914  40.113   3.712  14.823
50521W        W18915  11.380  32.494   2.614
50522W        W18916  27.094  41.802   1.493
50523W        W18917  29.356  20.643   1.761
50524W        W18918   1.265  30.717  10.411
50525W        W18919  40.774   0.792  12.453
50526W        W18920  42.699  38.030  11.175
50527W        W18921   5.197  12.724  14.424
50528W        W18922  31.002  16.748  14.685
50529W        W18923  44.245  14.269  12.948
50530W        W18924  14.550  42.089  11.498
50531W        W18925  35.039  24.947  12.104
50532W        W18926  33.922  32.001   0.313
50533W        W18927  24.983  28.903  13.327
50534W        W18928  24.620  37.321  12.580
50535W        W18929  42.509  14.800  11.657
50536W        W18930  24.663  37.317   1.743
50537W        W18931  11.767  44.032   0.413
50538W        W18932  39.888  39.807   3.769
50539W        W18933  38.518   9.844   1.827
50540W        W18934   9.095   7.795  12.996
50541W        W18935  18.716  24.416   0.880
50542W        W18936   0.755   6.263  12.617
50543W        W18937  23.767  30.115   3.786
50544W        W18938  32.142  12.525  11.257
50545W        W18939  33.389  21.148  13.564
50546W        W18940  43.453   9.519   1.721
50547W        W18941  42.001  25.778   0.497
50548W        W18942   7.424  34.041   3.883
50549W        W18943  12.340  24.084  14.013
50550W        W18944  22.219  11.469  14.399
50551W        W18945  36.397  19.112  14.765
50552W        W18946  18.714  23.796   2.257
50553W        W18947  32.661  31.884  11.921
50554W        W18948  21.944   2.784  12.554
50555W        W18949   1.828  29.719  13.448
50556W        W18950  18.851  19.545   3.759
50557W        W18951  13.354  30.066  11.059
50558W        W18952  15.309  10.821   4.554
50559W        W18953  41.478  16.787   0.703
50560W        W18954  18.143  37.178  11.598
50561W        W18955  23.714  39.017   2.159
50562W        W18956   4.447   8.709  14.218
50563W        W18957   5.115  38.982   2.150
50564W        W18958  25.227  10.635  12.898
50565W        W18959  13.694  42.521   0.015
50566W        W18960   5.401  30.191  13.828
50567W        W18961  28.932  26.032   0.256
50568W        W18962  28.934  23.581  13.852
50569W        W18963  40.395  36.662  14.772
50570W        W18964  22.675   5.354  14.019
50571W        W18965   6.381   2.917   4.956
50572W        W18966   5.478   4.193  12.124
50573W        W18967  36.129  28.699   3.184
50574W        W18968  11.123  29.543   0.289
50575W        W18969  41.173   9.451  11.229
50576W        W18970  27.281  13.273   1.793
50577W        W18971  17.282  29.529  14.797
50578W        W18972  22.716  31.932   3.925
50579W        W18973  30.629   6.385  12.981
50580W        W18974  42.525   4.671  12.522
50581W        W18975  34.306   6.410  14.233
50582W        W18976  21.873  10.907  11.301
50583W        W18977  24.924  27.091  10.830
50584W        W18978  38.489  25.938  13.973
50585W        W18979  16.889  16.674   0.439
50586W        W18980  41.252  35.792  13.604
50587W        W18981  14.520  11.359   0.717
50588W        W18982  20.763  19.958   3.334
50589W        W18983  26.594   5.722  11.591
50590W        W18984  41.094  13.686   0.255
50591W        W18985  18.774  41.559  13.538
50592W        W18986  29.912  16.118   3.571
50593W        W18987  19.944   4.921  13.477
50594W        W18988  28.494  10.432  11.954
50595W        W18989   3.745  14.109   0.842
50596W        W18990   8.222  38.345   2.181
50597W        W18991  12.305   2.866  10.838
50598W        W18992   5.913   3.929   0.832
50599W        W18993  39.952  44.928  10.768
50600W        W18994  18.176   7.112  12.016
50601W        W18995  32.033  21.110  11.411
50602W        W18996  27.224   1.853  14.129
50603W        W18997  20.426  12.839   3.671
50604W        W18998  19.499  35.092  11.173
50605W        W18999  27.472  22.477   3.160
50606W        W19000  19.548  18.322  12.593
50607W        W19001  41.811   8.884  13.614
50608W        W19002  39.596  11.729   2.287
50609W        W19003  20.437  22.684  11.441
50610W        W19004  22.135  29.234  13.532
50611W        W19005  22.150  11.279  11.053
50612W        W19006  43.528  24.514   0.316
50613W        W19007  22.722  13.220   1.316
50614W        W19008  20.983  40.434   0.391
50615W        W19009  40.044  44.249  11.940
50616W        W19010  31.858   5.991  13.385
50617W        W19011  13.154  40.823  13.833
50618W        W19012  16.471  33.829  13.717
50619W        W19013  40.995   5.476  14.802
50620W        W19014  36.137  38.323  12.307
50621W        W19015  33.749  37.470   1.315
50622W        W19016  19.871  15.686  13.358
50623W        W19017  18.631  27.378  13.347
50624W        W19018  33.710  42.954  11.735
50625W        W19019  25.034  44.363   3.032
50626W        W19020  22.679  20.063  14.550
50627W        W19021  42.329   0.042   4.742
50628W        W19022  17.155  17.128   1.667
50629W        W19023  26.000  34.259  14.358
50630W        W19024  40.050  28.674  11.915
50631W        W19025   3.030  33.865  13.825
50632W        W19026   9.985   7.561  14.462
50633W        W19027  13.467   2.940  13.962
50634W        W19028  32.044  13.732   1.696
50635W        W19029   3.764  27.589  13.948
50636W        W19030  29.454   4.675  12.449
50637W        W19031  30.714  17.507   2.643
50638W        W19032  41.097  10.317  14.246
50639W        W19033   9.665  38.954  10.511
50640W        W19034  22.207   5.085   0.174
50641W        W19035   4.278  37.652   2.144
50642W        W19036  22.623   1.784  12.584
50643W        W19037  35.384   9.143   0.795
50644W        W19038  37.518   2.389   3.120
50645W        W19039  14.815  19.177  14.369
50646W        W19040  25.229   6.718   0.740
50647W        W19041   1.103   2.658   1.199
50648W        W19042  26.047  22.686   1.056
50649W        W19043  30.982  15.284   4.090
50650W        W19044  27.133   6.901  14.909
50651W        W19045  31.545  27.943   4.701
50652W        W19046  43.342  21.006  11.193
50653W        W19047  36.289   8.209   0.770
50654W        W19048  41.805  24.050  10.804
50655W        W19049  20.839  29.655  11.620
50656W        W19050  36.086  14.071   3.720
50657W        W19051  34.623  12.826   0.040
50658W        W19052   7.363   1.517   0.232
50659W        W19053  35.283  41.017   0.401
50660W        W19054  37.496  44.999  11.402
50661W        W19055  31.074   1.012   3.622
50662W        W19056   0.881  17.887  14.922
50663W        W19057  19.044  44.914   1.975
50664W        W19058  34.763  32.958  14.973
50665W        W19059  37.471  42.720   2.646
50666W        W19060  28.694  41.531  11.868
50667W        W19061  16.777   5.268  13.133
50668W        W19062   9.962  21.042  11.418
50669W        W19063   7.786  40.507   2.082
50670W        W19064  43.071  25.500   4.128
50671W        W19065   2.301  24.549  13.033
50672W        W19066  30.551  36.856  13.876
50673W        W19067   3.199   6.138   1.441
50674W        W19068  14.341  23.724   1.557
50675W        W19069  30.669  12.111  12.599
50676W        W19070   7.308  10.393   2.653
50677W        W19071  35.456  10.090  12.014
50678W        W19072  29.438  25.438   3.215
50679W        W19073  44.808  18.754   1.654
50680W        W19074  17.561  34.934  14.472
50681W        W19075  14.643   7.227   1.139
50682W        W19076   2.616  31.540   0.579
50683W        W19077  24.602  30.367   4.559
50684W        W19078  13.187  34.692   0.374
50685W        W19079  26.873   9.346   3.187
50686W        W19080  32.645  31.093   1.204
50687W        W19081  23.782   2.260   1.263
50688W        W19082  44.845   7.362  13.991
50689W        W19083  40.022   7.347   0.414
50690W        W19084  39.321  19.156   4.649
50691W        W19085  30.147   6.980   3.227
50692W        W19086  31.477   3.645  14.495
50693W        W19087  21.493   8.683  14.721
50694W        W19088  32.173  11.892   0.491
50695W        W19089   5.413   5.768   0.352
50696W        W19090  30.675  10.265  12.102
50697W        W19091   5.800  35.343  13.410
50698W        W19092  28.038  25.138   0.240
50699W        W19093   1.900  14.524   0.926
50700W        W19094  16.420  40.662  13.079
50701W        W19095  19.369  37.929   5.024
50702W        W19096  11.959   7.932  13.097
50703W        W19097  28.145  11.998  13.997
50704W        W19098  33.657  11.762  13.987
50705W        W19099  11.644  44.694   0.919
50706W        W19100  14.248  36.322  12.676
50707W        W19101  29.913  14.753  13.802
50708W        W19102  35.583  16.772   2.462
50709W        W19103  13.765  20.115  11.183
50710W        W19104  32.961  44.277   4.408
50711W        W19105   9.219  15.366  11.361
50712W        W19106   7.253   4.620  11.017
50713W        W19107  31.416  38.532  12.671
50714W        W19108   8.578  26.247  14.823
50715W        W19109  35.889  24.846   1.823
50716W        W19110  24.323  16.227   0.979
50717W        W19111  29.803  16.774  12.406
50718W        W19112  21.108   8.927  14.488
50719W        W19113  27.566   9.664   0.305
50720W        W19114  13.142  36.510  10.646
50721W        W19115  15.833  41.497   3.796
50722W        W19116   1.891  24.072  13.907
50723W        W19117   3.027  35.065   0.621
50724W        W19118  20.563  39.349   3.085
50725W        W19119   5.247  43.275  11.661
50726W        W19120   5.002  34.501   1.440
50727W        W19121  15.807  21.683   4.691
50728W        W19122  14.179  14.843  13.438
50729W        W19123  11.780   6.408  12.492
50730W        W19124  22.145  15.251   1.450
50731W        W19125  16.202  19.693  14.348
50732W        W19126   3.759   0.509   2.287
50733W        W19127  17.058   7.842   2.139
50734W        W19128  40.944  43.878   1.306
50735W        W19129  44.314  31.386  14.369
50736W        W19130   2.970  28.226   2.569
50737W        W19131  30.033  37.915   3.009
50738W        W19132  37.562  20.818  12.190
50739W        W19133  39.592   9.314  13.387
50740W        W19134  22.207  21.966   3.693
50741W        W19135   1.864   3.958  13.633
50742W        W19136  31.930  41.569  12.058
50743W        W19137  11.585  43.343   2.627
50744W        W19138  16.278   0.576  12.015
50745W        W19139  34.524   9.419   2.754
50746W        W19140  25.963  22.533  13.435
50747W        W19141   7.621   5.307   0.510
50748W        W19142  16.835  33.422  14.445
50749W        W19143  33.493  28.209   2.802
50750W        W19144  38.079   7.178  13.415
50751W        W19145  29.487  36.367  13.335
50752W        W19146   0.730  13.733  12.962
50753W        W19147  10.775  11.892  11.851
50754W        W19148   0.962  37.875  12.122
50755W        W19149  27.504  38.936  12.566
50756W        W19150  16.133  16.602  12.949
50757W        W19151  20.682   9.747   4.416
50758W        W19152  20.468  44.314  14.809
50759W        W19153   4.711   9.799  10.073
50760W        W19154  29.834   1.317  14.501
50761W        W19155  12.386  26.522  12.920
50762W        W19156   4.414  19.116   0.821
50763W        W19157  15.053  44.302   0.364
50764W        W19158  23.114  36.792   0.271
50765W        W19159  22.960  39.978  14.319
50766W        W19160  22.608  27.689  14.461
50767W        W19161  31.048  13.324  11.702
50768W        W19162  44.440  34.126   4.650
50769W        W19163  39.095  44.085  11.021
50770W        W19164   8.762   3.880   4.681
50771W        W19165  24.512  42.947  11.583
50772W        W19166  43.961  17.325   1.295
50773W        W19167  26.521  30.014   4.574
50774W        W19168   1.683   7.984  14.926
50775W        W19169  34.045  20.856   3.104
50776W        W19170  23.090  41.880  12.072
50777W        W19171  13.671   8.861  10.737
50778W        W19172  20.463   6.465  10.350
50779W        W19173  28.720  24.951   5.014
50780W        W19174  28.400  31.263  14.279
50781W        W19175   8.406  44.302   4.708
50782W        W19176  15.800  28.997  14.799
50783W        W19177  14.583   7.153  14.389
50784W        W19178  10.145   2.612  12.945
50785W        W19179  12.632  24.087   0.273
50786W        W19180   9.922  23.648  13.891
50787W        W19181  36.520  22.569   1.237
50788W        W19182  37.988  33.055   2.041
50789W        W19183   1.371  37.634  15.000
50790W        W19184  29.794  20.253   2.319
50791W        W19185  38.082  14.606  14.936
50792W        W19186   6.258  44.974   1.312
50793W        W19187  14.158  25.183  13.446
50794W        W19188  28.642   9.404  12.020
50795W        W19189   9.956  29.522  12.488
50796W        W19190  42.721  41.036   3.125
50797W        W19191  40.788   3.320   3.411
50798W        W19192  26.694  36.687   4.527
50799W        W19193  42.499  11.064   3.258
50800W        W19194  25.400  29.537  10.767
50801W        W19195  37.181   4.588   1.364
50802W        W19196   4.837   6.749   2.893
50803W        W19197  42.238  25.142  13.454
50804W        W19198  32.920  22.089  11.199
50805W        W19199  20.513   0.703  12.417
50806W        W19200  13.764  30.218   2.219
50807W        W19201  19.361  16.318   2.337
50808W        W19202  25.074  28.073  12.888
50809W        W19203  17.103  32.676   2.164
50810W        W19204  34.829  27.891   3.540
50811W        W19205  22.150  43.248  10.673
50812W        W19206  25.513   5.698   2.262
50813W        W19207  23.741   9.200   1.821
50814W        W19208   7.486  31.432   0.865
50815W        W19209  14.175  35.562  14.005
50816W        W19210  44.605   8.926   3.140
50817W        W19211  14.178   0.653   0.893
50818W        W19212  24.687   0.344  14.677
50819W        W19213  32.951  28.427   4.727
50820W        W19214  38.877  16.504   3.720
50821W        W19215   9.614  22.506   2.712
50822W        W19216  30.595  21.879   0.460
50823W        W19217  27.126  33.098   0.750
50824W        W19218   9.125  42.371   3.964
50825W        W19219  27.925   7.832   1.225
50826W        W19220   9.307  32.286   5.020
50827W        W19221  32.690   7.339   3.477
50828W        W19222  17.082  23.412   2.955
50829W        W19223  28.664  30.071   0.354
50830W        W19224  39.136  38.771   2.025
50831W        W19225  42.821  10.171  13.135
50832W        W19226  36.954  14.149   1.466
50833W        W19227   6.722  43.364  12.483
50834W        W19228   4.663  11.817  12.434
50835W        W19229  27.469  16.776   2.330
50836W        W19230  38.794  41.915  14.774
50837W        W19231  26.238  30.013   2.761
50838W        W19232  39.740  25.750  12.094
50839W        W19233  19.434  23.156   1.392
50840W        W19234  29.049   9.428   1.288
50841W        W19235   0.062  18.449  14.243
50842W        W19236  15.589  33.597  14.710
50843W        W19237  30.462   8.224   4.664
50844W        W19238  10.643  28.093  14.052
50845W        W19239  33.407   6.420   1.297
50846W        W19240  16.699  41.242   4.599
50847W        W19241   1.033  44.585   1.336
50848W        W19242  26.090  15.083  10.716
50849W        W19243  21.015  20.082   1.367
50850W        W19244  24.643  19.056   4.592
50851W        W19245   8.004   9.100  11.126
50852W        W19246  28.001  23.869  11.508
50853W        W19247  26.353   5.397  14.395
50854W        W19248  27.719   0.285  14.344
50855W        W19249   5.381  27.741   3.710
50856W        W19250  37.433  18.476  13.312
50857W        W19251  39.510  10.341  13.473
50858W        W19252  21.814  18.313   1.302
50859W        W19253  17.357  41.856   4.299
50860W        W19254   6.160  28.141   3.199
50861W        W19255  29.675  37.549   5.037
50862W        W19256  43.494  42.992   2.375
50863W        W19257  24.507   9.588   9.834
50864W        W19258  27.048  17.732  14.786
50865W        W19259  11.371  17.153  11.609
50866W        W19260   3.276  36.063   4.414
50867W        W19261  26.983  23.220  13.087
50868W        W19262  10.453   1.764   4.553
50869W        W19263   6.311   2.014  11.620
50870W        W19264  27.525  10.715  12.166
50871W        W19265  36.070  13.890  14.831
50872W        W19266  27.068  26.008   4.199
50873W        W19267  30.040   9.670  12.499
50874W        W19268  26.124  37.824   2.437
50875W        W19269  16.843  43.587   4.152
50876W        W19270  29.395  40.297   3.887
50877W        W19271  28.685  14.893   1.623
50878W        W19272  28.386  11.246   4.107
50879W        W19273  10.552  26.596   4.284
50880W        W19274  24.769  17.683  11.067
50881W        W19275  29.934  32.837   4.601
50882W        W19276   0.035  34.785   3.738
50883W        W19277  20.117  25.551  11.149
50884W        W19278  18.769   3.966  13.543
50885W        W19279  25.351  25.960   1.666
50886W        W19280   3.257  34.269  10.663
50887W        W19281  44.743   4.737  13.794
50888W        W19282   3.768  34.685   4.193
50889W        W19283   1.321   1.314   2.247
50890W        W19284  42.036   2.981   1.810
50891W        W19285   1.222  39.539   0.779
50892W        W19286  43.516  13.885   0.311
50893W        W19287  25.674  29.118  12.590
50894W        W19288  42.369  43.403  12.988
50895W        W19289  15.682   5.758   2.706
50896W        W19290   7.814  30.008   1.680
50897W        W19291  28.263  44.526  13.832
50898W        W19292  40.853  11.038  13.870
50899W        W19293  21.129  39.792   1.352
50900W        W19294  33.860   4.743   3.605
50901W        W19295  43.850   6.350   0.833
50902W        W19296  34.860  22.924   1.309
50903W        W19297  27.219  34.462   3.044
50904W        W19298  29.005  38.570   1.244
50905W        W19299  20.444  27.958   2.147
50906W        W19300  14.891  20.378   0.232
50907W        W19301  30.402   8.389   2.081
50908W        W19302  34.523  40.105   1.478
50909W        W19303  23.692  15.040   0.750
50910W        W19304  40.803  10.071   2.146
50911W        W19305   3.696   9.422  14.824
50912W        W19306  11.189   8.682  13.352
50913W        W19307  11.280   2.297   2.885
50914W        W19308  39.240  36.755  11.556
50915W        W19309  20.153  19.491   2.608
50916W        W19310  33.640   3.716  13.887
50917W        W19311  40.754   6.071  13.491
50918W        W19312  27.010  34.633   4.157
50919W        W19313  37.956  33.442  12.102
50920W        W19314  12.933   0.891   2.831
50921W        W19315  12.662  16.747   0.247
50922W        W19316   7.934  44.393   1.703
50923W        W19317   0.629  27.232   4.271
50924W        W19318  41.366  43.308  14.495
50925W        W19319  41.289  19.450   1.222
50926W        W19320   2.314   0.203  14.055
50927W        W19321  12.781  25.122   4.147
50928W        W19322  41.412  18.035   0.179
50929W        W19323  32.400  10.194   2.217
50930W        W19324  15.014   9.371   3.594
50931W        W19325   0.458  21.746   2.266
50932W        W19326  23.050   4.663  13.427
50933W        W19327  40.859  27.009   4.525
50934W        W19328   3.033   1.952  12.428
50935W        W19329  29.503  11.261   1.499
50936W        W19330  27.000   4.393  13.576
50937W        W19331  23.174  15.904   0.442
50938W        W19332  29.478  34.936  13.534
50939W        W19333  43.874  34.907   1.954
50940W        W19334  26.373  42.600   4.088
50941W        W19335   4.458  12.873  13.854
50942W        W19336  34.951  19.272  12.068
50943W        W19337  21.430  17.431   2.367
50944W        W19338  14.818  25.209   3.524
50945W        W19339  32.517   7.914   0.837
50946W        W19340  10.765  43.422  10.550
50947W        W19341  36.603  19.615  13.415
50948W        W19342  10.195  17.061  13.449
50949W        W19343   2.513   4.967   3.729
50950W        W19344  38.600   5.265   1.620
50951W        W19345  10.348  25.969  12.134
50952W        W19346  42.906  22.470   2.381
50953W        W19347   7.364  40.194   3.745
50954W        W19348   7.621  13.622   0.860
50955W        W19349  35.633  21.015  12.974
50956W        W19350  21.125   0.455   4.566
50957W        W19351  26.398  24.771   1.635
50958W        W19352  36.975  11.123   1.446
50959W        W19353  28.539   1.939  10.434
50960W        W19354   9.362  10.905  11.529
50961W        W19355  43.909  37.358  12.003
50962W        W19356  22.528  37.964  12.414
50963W        W19357  36.171  21.234  14.038
50964W        W19358  21.790  21.016  10.809
50965W        W19359  42.297  38.292   1.925
50966W        W19360  14.798  36.767  14.954
50967W        W19361   0.614  12.160  13.295
50968W        W19362  34.386  10.210  10.989
50969W        W19363   7.898  28.532  11.158
50970W        W19364  28.361   4.266   4.257
50971W        W19365  44.801  23.946   0.513
50972W        W19366  39.159  19.560  10.253
50973W        W19367  31.514   4.798   3.290
50974W        W19368  21.690   3.829   1.382
50975W        W19369   1.676  37.541  12.513
50976W        W19370  32.603  21.640  14.336
50977W        W19371   3.072  43.822   4.650
50978W        W19372  44.650   1.344   2.852
50979W        W19373  32.799   4.670   1.295
50980W        W19374  35.165  16.398  11.543
50981W        W19375   5.076  35.389   1.910
50982W        W19376   6.156   5.803   2.804
50983W        W19377   3.839  31.075  12.570
50984W        W19378  18.143  18.703   0.877
50985W        W19379   0.322  31.720  12.621
50986W        W19380   8.794  15.100  12.085
50987W        W19381  41.522  21.720   4.130
50988W        W19382  27.955  26.037   3.857
50989W        W19383  38.305  24.731   2.431
50990W        W19384  18.763   1.366  14.819
50991W        W19385  33.047  18.515  13.827
50992W        W19386   2.700  42.787   2.196
50993W        W19387  10.671   9.262  10.979
50994W        W19388   2.764   5.645   0.746
50995W        W19389  34.806   0.881   3.687
50996W        W19390  33.011  37.490  12.022
50997W        W19391  34.665  28.279  10.895
50998W        W19392  17.225  18.451  11.519
50999W        W19393   5.743  32.397   0.313
51000W        W19394   8.603  33.633  10.769
51001W        W19395  29.434   6.463   1.199
51002W        W19396  11.669   0.942  12.875
51003W        W19397  30.308  20.146   0.950
51004W        W19398  27.690  11.340  12.104
51005W        W19399  18.182  37.505   1.798
51006W        W19400  30.909  13.082   2.047
51007W        W19401  40.213  39.386   0.838
51008W        W19402  17.417  17.985   3.653
51009W        W19403  32.164  11.654  11.180
51010W        W19404  13.571  38.549   4.230
51011W        W19405  37.382  34.899   3.314
51012W        W19406  21.057  36.674  14.334
51013W        W19407   0.324   9.810   1.516
51014W        W19408  15.615  27.219   4.999
51015W        W19409  42.439  33.983   4.338
51016W        W19410  26.117  44.571  11.345
51017W        W19411  32.856  34.707  11.424
51018W        W19412  28.569   8.087  11.517
51019W        W19413   6.855   2.903   1.470
51020W        W19414  22.112  36.160   1.862
51021W        W19415   0.671  35.658  12.449
51022W        W19416  38.372  30.626   0.943
51023W        W19417  15.648  21.590   0.838
51024W        W19418  42.947   3.110  13.521
51025W        W19419  38.007  24.123  10.521
51026W        W19420  37.028  29.246   3.358
51027W        W19421  28.149   5.191   2.547
51028W        W19422  35.474   4.917  10.880
51029W        W19423  17.193  13.772   4.515
51030W        W19424  16.709  44.368  12.380
51031W        W19425  33.012   9.616  13.927
51032W        W19426  41.799   9.773  10.955
51033W        W19427   5.672  41.796   0.924
51034W        W19428   1.364   0.525   2.935
51035W        W19429   6.943  22.771  11.517
51036W        W19430  33.845  12.366  14.775
51037W        W19431   7.927  15.615   2.319
51038W        W19432   8.942  36.457   2.868
51039W        W19433   5.479  44.825   2.401
51040W        W19434  23.423  17.825   3.345
51041W        W19435  10.146  17.257   5.063
51042W        W19436  13.634  40.918  14.078
51043W        W19437  20.609  37.522   3.123
51044W        W19438  29.083  32.505  14.557
51045W        W19439  27.631  14.092   2.172
51046W        W19440  32.180  10.141  12.609
51047W        W19441  25.230   4.382  14.578
51048W        W19442  42.739  44.922  13.002
51049W        W19443  32.826  29.858   2.382
51050W        W19444   4.928  43.630   3.145
51051W        W19445  43.984  27.140   2.409
51052W        W19446   8.557  33.109   1.403
51053W        W19447  16.431  34.453   3.957
51054W        W19448  13.192  42.938   3.177
51055W        W19449  30.070  32.365   1.075
51056W        W19450  24.886  43.845   2.327
51057W        W19451  28.058   0.692  14.357
51058W        W19452  34.456  15.235  13.340
51059W        W19453  35.061  23.970   0.490
51060W        W19454  43.748  26.696  13.444
51061W        W19455  19.294  29.071  13.884
51062W        W19456  26.998  29.209  14.282
51063W        W19457  15.233  20.095  11.642
51064W        W19458  38.340  42.568  14.014
51065W        W19459  14.564  32.521   1.916
51066W        W19460  32.740  37.557   1.137
51067W        W19461  35.616   8.154   3.952
51068W        W19462   7.420   8.849  10.661
51069W        W19463  34.886  22.181   2.737
51070W        W19464  23.097  33.938   1.456
51071W        W19465   7.639  37.570  10.252
51072W        W19466  20.178  24.727  13.283
51073W        W19467   3.619   6.877  14.355
51074W        W19468   1.219   5.704  11.167
51075W        W19469   0.728  43.796   2.718
51076W        W19470  38.261  30.863  14.432
51077W        W19471  14.939  15.711   0.469
51078W        W19472   3.381  27.926  13.910
51079W        W19473  34.405  18.010  14.496
51080W        W19474   4.749   1.706  12.917
51081W        W19475   4.749  41.981   0.308
51082W        W19476  43.476   9.442   3.009
51083W        W19477  13.217  26.172  11.652
51084W        W19478   4.845  12.824   0.019
51085W        W19479   3.244  25.584  14.240
51086W        W19480  27.395  21.200  12.383
51087W        W19481  23.973  17.155  12.504
51088W        W19482  37.201  35.395   2.434
51089W        W19483  36.102  12.692  12.193
51090W        W19484  25.223  35.013   3.178
51091W        W19485  37.869   5.706   4.527
51092W        W19486  22.498  13.389  11.050
51093W        W19487  22.645  40.297  10.827
51094W        W19488  34.042  29.530   3.086
51095W        W19489  20.922  42.422  12.365
51096W        W19490  43.603  41.014   4.058
51097W        W19491  29.225  36.568  12.898
51098W        W19492  24.503   1.230  10.225
51099W        W19493   0.561   8.423  12.991
51100W        W19494  37.960  43.812  14.002
51101W        W19495  36.735  20.221  11.651
51102W        W19496   9.910  28.127  12.610
51103W        W19497  11.163   2.989  14.784
51104W        W19498   3.929  28.550  10.550
51105W        W19499  30.891  26.104  14.919
51106W        W19500   4.406  30.720   0.770
51107W        W19501  18.611   0.939   4.242
51108W        W19502  10.855  24.096   2.849
51109W        W19503  43.024  10.240  10.712
51110W        W19504  36.943   6.300   4.557
51111W        W19505   1.364   8.816   1.612
51112W        W19506  35.606  42.516   3.376
51113W        W19507  29.411   7.041   5.032
51114W        W19508  41.049  10.340  11.550
51115W        W19509  27.424  31.071   0.514
51116W        W19510  25.378  19.618   2.403
51117W        W19511   6.439  22.328   2.980
51118W        W19512  29.992  13.895   1.433
51119W        W19513   6.809  44.802  12.842
51120W        W19514  31.147  14.610   4.425
51121W        W19515  20.679  20.479  13.835
51122W        W19516   8.009  28.423  13.520
51123W        W19517  32.490  19.148   3.186
51124W        W19518  11.475  21.145  13.375
51125W        W19519  34.875   8.971  12.538
51126W        W19520  37.356  18.111  10.673
51127W        W19521  22.181  13.349  14.806
51128W        W19522  39.414  41.035   0.477
51129W        W19523   2.686  20.856   3.910
51130W        W19524  39.558   1.776   3.283
51131W        W19525  17.199  21.791  10.499
51132W        W19526  17.219  44.919   2.363
51133W        W19527  31.643   3.273   0.659
51134W        W19528  35.909   8.580   3.922
51135W        W19529  21.426  22.522   4.594
51136W        W19530  29.697  17.799   3.274
51137W        W19531  33.321  11.860   3.085
51138W        W19532  44.252  21.416  11.058
51139W        W19533  27.137  15.544  11.111
51140W        W19534  36.478   5.452  13.448
51141W        W19535  44.300  14.648   2.488
51142W        W19536  27.450   4.935   3.194
51143W        W19537   6.319  31.931   2.784
51144W        W19538  32.872  16.479  14.676
51145W        W19539  14.648  41.360   0.843
51146W        W19540  30.639   6.681   1.657
51147W        W19541  22.180   4.336  13.050
51148W        W19542  34.000  17.191   2.891
51149W        W19543  23.413  15.412  12.626
51150W        W19544   2.708  42.462  14.434
51151W        W19545  31.139   2.412   1.876
51152W        W19546  19.273  19.785   1.286
51153W        W19547   9.335  30.039   4.022
51154W        W19548  32.370   0.085  12.534
51155W        W19549  15.623   0.935   1.858
51156W        W19550   1.246  27.576   2.678
51157W        W19551  16.528   1.821   0.736
51158W        W19552  33.886   5.889   0.256
51159W        W19553   3.676   9.078  12.985
51160W        W19554  37.790  22.803  13.079
51161W        W19555  43.073  18.166  12.055
51162W        W19556  33.681  35.489   0.408
51163W        W19557  21.120  40.558   4.633
51164W        W19558  21.785   4.304  11.405
51165W        W19559  34.860  11.379  12.344
51166W        W19560   5.059  15.284  13.465
51167W        W19561  20.139  24.079   3.377
51168W        W19562  41.327  38.206  12.628
51169W        W19563  37.031   2.403   2.921
51170W        W19564   5.316  34.070   4.569
51171W        W19565  10.828  35.438   4.528
51172W        W19566  40.898  18.091   3.350
51173W        W19567   3.093  42.576  11.312
51174W        W19568   6.591  13.049  14.025
51175W        W19569  33.548  31.963  11.960
51176W        W19570  13.403  22.145  11.664
51177W        W19571  38.430  33.314  12.480
51178W        W19572  39.049   9.430   4.490
51179W        W19573   9.709  12.044  13.316
51180W        W19574  30.119  14.308   4.687
51181W        W19575  38.750   2.886   1.937
51182W        W19576  14.244   5.441  12.902
51183W        W19577  32.923   9.787   2.893
51184W        W19578  21.597  42.681   2.181
51185W        W19579  25.142   3.926  12.671
51186W        W19580   5.867  27.433   1.700
51187W        W19581   4.897  26.298   4.907
51188W        W19582  35.261  37.010   2.334
51189W        W19583  31.648  12.355  12.453
51190W        W19584  37.291  21.741  14.350
51191W        W19585  25.261   2.932  14.723
51192W        W19586  31.408  13.219   0.823
51193W        W19587   2.225  34.001   1.893
51194W        W19588  19.164  16.669  13.853
51195W        W19589   2.215  32.119  14.855
51196W        W19590  44.442  40.966   4.603
51197W        W19591  16.359  21.415  11.938
51198W        W19592  30.768  20.539  12.481
51199W        W19593   9.644  29.161   1.053
51200W        W19594  15.164  23.770   4.345
51201W        W19595   5.386   2.947  12.911
51202W        W19596  18.261  28.007   1.209
51203W        W19597  40.534  18.808  10.724
51204W        W19598  24.589   1.471  14.329
51205W        W19599  32.409  29.599   1.981
51206W        W19600   3.177   7.821   2.088
51207W        W19601  29.004  22.173   4.268
51208W        W19602   8.353  12.108   2.871
51209W        W19603  24.691  30.556  10.868
51210W        W19604  23.197  43.394   3.760
51211W        W19605  13.883  25.663  11.547
51212W        W19606  13.917   0.947  14.245
51213W        W19607  21.111  23.602   0.435
51214W        W19608  21.217  32.111  14.901
51215W        W19609  27.115   4.442  11.661
51216W        W19610  32.323   7.867  11.134
51217W        W19611   4.314  20.609   4.714
51218W        W19612  18.711   6.923  13.422
51219W        W19613  24.553  41.937  11.703
51220W        W19614  25.018  42.340  12.017
51221W        W19615  27.489  36.791  14.655
51222W        W19616   6.202  38.950   0.822
51223W        W19617  15.620   0.421  12.714
51224W        W19618   4.942   3.000  10.638
51225W        W19619  39.917  42.804  13.406
51226W        W19620  18.067  34.035  11.984
51227W        W19621  11.387  24.754  14.877
51228W        W19622  30.905  30.373  13.528
51229W        W19623  21.011  13.289   0.472
51230W        W19624  18.063  21.439  12.405
51231W        W19625  17.041  25.057  14.380
51232W        W19626  12.596  32.422  11.657
51233W        W19627  34.793  12.340   0.805
51234W        W19628   1.945   5.192   0.019
51235W        W19629  16.289  24.787  11.101
51236W        W19630   2.978  30.909   1.048
51237W        W19631  44.760   4.809  12.739
51238W        W19632   4.219  16.157  13.854
51239W        W19633  34.390  40.048  12.622
51240W        W19634  23.575  36.570   0.194
51241W        W19635  17.451   1.210  10.654
51242W        W19636  26.161  40.447   4.736
51243W        W19637  12.611   6.301   2.842
51244W        W19638  12.725  26.248   1.637
51245W        W19639  26.782  13.352  12.416
51246W        W19640  23.712  19.674  12.218
51247W        W19641  27.046  12.645  14.779
51248W        W19642  44.754  22.771   2.476
51249W        W19643  28.620  24.552   1.299
51250W        W19644  26.846   9.627  12.996
51251W        W19645   2.620  21.083   2.764
51252W        W19646  37.484   6.756   0.734
51253W        W19647  29.166   1.023  12.513
51254W        W19648   6.350   2.325  11.159
51255W        W19649  37.085  31.990  11.924
51256W        W19650  27.771  16.884   1.536
51257W        W19651  44.045  25.576  10.727
51258W        W19652  31.192  41.213   0.394
51259W        W19653  36.940  44.791  10.721
51260W        W19654   1.862  25.957  13.989
51261W        W19655  21.167   0.781  10.471
51262W        W19656  11.650  44.485   3.457
51263W        W19657  13.057  16.198  11.998
51264W        W19658  39.036  28.412  10.677
51265W        W19659  36.015   8.352  14.737
51266W        W19660  26.480   1.407  10.106
51267W        W19661  16.922  39.329  14.606
51268W        W19662  40.316  36.112   3.616
51269W        W19663   9.729  21.074  12.695
51270W        W19664  21.961   8.874  14.624
51271W        W19665  42.736  36.119  13.481
51272W        W19666  28.963  30.090  13.398
51273W        W19667  14.054  39.006   1.746
51274W        W19668  37.828  41.398  13.456
51275W        W19669  38.516  30.192  10.652
51276W        W19670   2.850   8.694   3.640
51277W        W19671  11.098  21.965   0.484
51278W        W19672  31.968  11.818   2.305
51279W        W19673  14.906  34.330  14.124
51280W        W19674   8.394  25.735   0.884
51281W        W19675  23.664  22.286   3.740
51282W        W19676  19.847  44.191  14.205
51283W        W19677  11.958  20.938  11.655
51284W        W19678  13.254  40.574   0.833
51285W        W19679   5.828   7.488   3.912
51286W        W19680   0.751  21.969   3.949
51287W        W19681  15.149  37.765  10.453
51288W        W19682  34.429  30.512   3.102
51289W        W19683  15.672  30.021   4.101
51290W        W19684  15.594  41.080   0.400
51291W        W19685  36.329   5.171  12.048
51292W        W19686  26.232   7.317   2.155
51293W        W19687   3.455   7.007   4.074
51294W        W19688  33.496  42.966  14.410
51295W        W19689  31.511  30.453  11.079
51296W        W19690  20.158   7.711  10.747
51297W        W19691   0.463  12.827   1.141
51298W        W19692  17.108  32.136   3.695
51299W        W19693   9.871  17.032   3.637
51300W        W19694  27.882  26.010  14.696
51301W        W19695  29.695  13.141  14.262
51302W        W19696   2.390  23.249  14.887
51303W        W19697  34.417  23.578   2.956
51304W        W19698  18.637  10.792   1.226
51305W        W19699  41.761  21.167  12.508
51306W        W19700  35.307  27.832   3.272
51307W        W19701  34.625  16.333  14.883
51308W        W19702   0.008  30.546   5.081
51309W        W19703  29.605  41.879  12.029
51310W        W19704  20.501  20.107   2.916
51311W        W19705  28.727   5.327   1.730
51312W        W19706  32.337  30.308  10.061
51313W        W19707  21.963  19.529   0.442
51314W        W19708  35.043  23.981  10.559
51315W        W19709   1.738  44.592   0.268
51316W        W19710  27.949  26.901   1.726
51317W        W19711   8.294  24.975  12.625
51318W        W19712  11.705  24.064  15.000
51319W        W19713  35.053  38.833  12.573
51320W        W19714  28.453   3.292   3.573
51321W        W19715  37.815   4.694  12.969
51322W        W19716  35.840  29.626  14.514
51323W        W19717   3.440   3.878  14.272
51324W        W19718  22.983  10.305  12.440
51325W        W19719  13.777  29.006  11.488
51326W        W19720  44.573  37.283   3.698
51327W        W19721  21.085  23.327  14.055
51328W        W19722  33.549  34.469   0.354
51329W        W19723  19.709  36.622   0.002
51330W        W19724  22.870   1.430   0.405
51331W        W19725  25.539   4.244  14.974
51332W        W19726  44.464  17.980  12.861
51333W        W19727  16.329  19.153  14.232
51334W        W19728   9.769   8.486   1.171
51335W        W19729  18.631  23.036   1.179
51336W        W19730  25.579   8.860   2.788
51337W        W19731  10.315   9.274   0.262
51338W        W19732  22.245  22.683  14.257
51339W        W19733  32.457  13.144   3.434
51340W        W19734   2.090  29.140   0.244
51341W        W19735  31.105  41.458  10.795
51342W        W19736  12.626  37.980   4.581
51343W        W19737  11.193   4.101   0.290
51344W        W19738  11.814  29.615   0.033
51345W        W19739  36.750  11.604  11.986
51346W        W19740  10.107  22.112   2.302
51347W        W19741  40.743  20.991  11.103
51348W        W19742  31.472   7.706  12.949
51349W        W19743  17.567  32.124   1.721
51350W        W19744  28.929  32.613  13.490
51351W        W19745   5.799  29.642   0.155
51352W        W19746   5.879  38.964  13.956
51353W        W19747  14.212  20.582  13.650
51354W        W19748  22.452   5.791  13.816
51355W        W19749  41.739  21.608  14.004
51356W        W19750  20.308   9.343  11.946
51357W        W19751  22.678  34.247  10.846
51358W        W19752  41.046  20.731   4.914
51359W        W19753   0.026  38.063  14.487
51360W        W19754  26.724  44.003   1.596
51361W        W19755  29.551   7.899  13.707
51362W        W19756  30.703  19.684  10.999
51363W        W19757  37.362  33.435  10.957
51364W        W19758  27.252  18.288   3.314
51365W        W19759   0.331   9.185   3.576
51366W        W19760  12.782   9.248   1.930
51367W        W19761   8.341  24.085   2.739
51368W        W19762  33.901  18.030  11.443
51369W        W19763  39.503  18.763  13.100
51370W        W19764  16.550  31.991  14.779
51371W        W19765  36.005  20.993   0.877
51372W        W19766  20.787  34.856  12.368
51373W        W19767  28.091  17.949   0.512
51374W        W19768  33.662  33.966   1.335
51375W        W19769   6.709  24.252   2.540
51376W        W19770  18.809  11.064  11.450
51377W        W19771  38.369  41.584  14.743
51378W        W19772  15.431   5.935  14.881
51379W        W19773  33.686  15.294   2.853
51380W        W19774  44.529  27.103  11.479
51381W        W19775  32.637  26.013   4.185
51382W        W19776  28.835  16.302  13.986
51383W        W19777  32.143   2.248   1.234
51384W        W19778  36.590  30.108   2.791
51385W        W19779  25.751  10.141  14.273
51386W        W19780  36.888  32.624   0.765
51387W        W19781   6.364  24.405   3.716
51388W        W19782  27.742  39.806  10.623
51389W        W19783  17.164   8.418  13.348
51390W        W19784  26.385  11.157   2.706
51391W        W19785  37.112  10.160  12.084
51392W        W19786  42.363  18.745  11.418
51393W        W19787   9.167   5.241   9.970
51394W        W19788  20.705  30.002  12.017
51395W        W19789   6.726  10.291   1.949
51396W        W19790  31.718  43.424  13.665
51397W        W19791  33.387   0.912   2.774
51398W        W19792  25.418  15.837   4.626
51399W        W19793  21.459  12.267  13.462
51400W        W19794  23.140  25.026   3.655
51401W        W19795  24.582  13.599  12.964
51402W        W19796   0.452  11.162   0.393
51403W        W19797  44.107  14.496  12.030
51404W        W19798  33.194  35.349  12.575
51405W        W19799  30.500  25.143   3.683
51406W        W19800  44.961   7.552   4.979
51407W        W19801  10.389  37.484  14.757
51408W        W19802   2.734  37.581   0.278
51409W        W19803  39.122  29.157  11.568
51410W        W19804   9.992  14.870  13.064
51411W        W19805  26.047  44.090  11.531
51412W        W19806  16.007   2.002   4.472
51413W        W19807  41.983   5.251  12.546
51414W        W19808   2.400  33.626  10.633
51415W        W19809   6.262   8.735   1.274
51416W        W19810  24.706  41.065  11.494
51417W        W19811  30.371  29.567  14.905
51418W        W19812  36.870  42.587  13.416
51419W        W19813  22.731  15.768  14.004
51420W        W19814  32.388  28.173  11.836
51421W        W19815  36.369  36.894  13.483
51422W        W19816  28.207  26.688  12.405
51423W        W19817  15.229  34.397   0.645
51424W        W19818  13.609  38.969  10.633
51425W        W19819  37.378  14.285   1.207
51426W        W19820  16.697   9.643   2.427
51427W        W19821  30.183  17.640   1.336
51428W        W19822  44.005  36.668  12.453
51429W        W19823  41.885  42.853   0.389
51430W        W19824  31.588  38.047   2.688
51431W        W19825  38.589  32.229   2.928
51432W        W19826   5.643  15.008   0.806
51433W        W19827  24.819  26.058   2.353
51434W        W19828  14.289  30.175   4.214
51435W        W19829  42.557  11.626   2.317
51436W        W19830   9.218   8.755   3.221
51437W        W19831  28.923  32.883   2.324
51438W        W19832  40.245  15.720  10.605
51439W        W19833   9.448  35.204   2.872
51440W        W19834  18.739  13.605   4.639
51441W        W19835  19.742  13.441  14.878
51442W        W19836  20.069  25.550  10.270
51443W        W19837  10.144  21.642   2.458
51444W        W19838  31.715   9.661  10.534
51445W        W19839   5.214  43.473  14.509
51446W        W19840  16.149  16.026   2.481
51447W        W19841   7.772  44.217   3.663
51448W        W19842  44.053  14.688   4.840
51449W        W19843  24.074  32.607   3.068
51450W        W19844  29.132  35.756   0.241
51451W        W19845  30.895  27.027  14.999
51452W        W19846  22.658  43.370  10.585
51453W        W19847  41.186  25.158  14.196
51454W        W19848  42.219  24.543   4.125
51455W        W19849  39.523   7.944   4.670
51456W        W19850   9.754  16.620   3.909
51457W        W19851  23.107  41.076   3.095
51458W        W19852  41.394  37.456   2.589
51459W        W19853  11.346  24.060  13.770
51460W        W19854  26.688  36.961  11.599
51461W        W19855  36.538  29.228   2.104
51462W        W19856  31.627  17.504  14.144
51463W        W19857  13.674  33.082  13.789
51464W        W19858   6.749  26.323   4.536
51465W        W19859  40.970  35.038  10.541
51466W        W19860  29.686  18.148   3.699
51467W        W19861  31.917  41.393  10.251
51468W        W19862  22.995  16.665   2.383
51469W        W19863   4.893   6.229  13.837
51470W        W19864   4.642   3.399   4.949
51471W        W19865   3.981  36.860   2.895
51472W        W19866   2.931  23.705   2.983
51473W        W19867  43.379  32.930  13.053
51474W        W19868  41.912  29.387   2.380
51475W        W19869   9.827  17.741   0.993
51476W        W19870  33.401  43.798   2.395
51477W        W19871  13.248  30.137   4.366
51478W        W19872  33.266  27.215   4.221
51479W        W19873   3.431   8.165   0.758
51480W        W19874   8.282  28.390   2.553
51481W        W19875   1.912  25.728  14.449
51482W        W19876  25.527  19.807  11.702
51483W        W19877   3.193  32.491   2.633
51484W        W19878  10.310   0.812  13.397
51485W        W19879  32.082   0.272   3.022
51486W        W19880  38.289  26.889  10.049
51487W        W19881  25.273  15.747   2.246
51488W        W19882  29.983  24.533  10.467
51489W        W19883  17.592  42.563   4.733
51490W        W19884  12.707  33.612   2.656
51491W        W19885  10.104  18.209   0.957
51492W        W19886  23.347  10.508   3.091
51493W        W19887  41.977  21.605  13.526
51494W        W19888   5.711  38.238   1.406
51495W        W19889  35.588   7.204  11.741
51496W        W19890  17.357   0.514   0.871
51497W        W19891  38.730  28.989  14.827
51498W        W19892  25.643   4.968   3.882
51499W        W19893  28.168  32.012  14.851
51500W        W19894  33.850  30.185  12.429
51501W        W19895  20.822  21.093  12.876
51502W        W19896  26.256  28.693  13.009
51503W        W19897  12.229  33.135   0.312
51504W        W19898   4.355  31.131   4.489
51505W        W19899  37.603   6.865   3.150
51506W        W19900   8.398  20.599   1.274
51507W        W19901   5.377   7.620   0.878
51508W        W19902  35.975  15.672   4.546
51509W        W19903  37.370  10.221   4.553
51510W        W19904  40.004  17.411   2.204
51511W        W19905  36.295   6.845   2.294
51512W        W19906  29.377   4.141  11.142
51513W        W19907  29.422  14.311  12.447
51514W        W19908  34.346  19.690   2.391
51515W        W19909  35.381  16.118  11.150
51516W        W19910  19.940  23.100  13.576
51517W        W19911  26.977  18.807  14.042
51518W        W19912  37.804   4.628   3.438
51519W        W19913  26.241  36.190  11.996
51520W        W19914  31.052   0.726   3.186
51521W        W19915   2.071  15.117   1.289
51522W        W19916  21.198   3.679   4.146
51523W        W19917  22.599  43.081  13.765
51524W        W19918  21.338  12.796   3.876
51525W        W19919   8.824  16.943   4.817
51526W        W19920  17.087  30.652   1.893
51527W        W19921  36.306   4.380  14.599
51528W        W19922   9.686  21.731  11.055
51529W        W19923  10.090  40.415   2.809
51530W        W19924  43.085   8.444   4.131
51531W        W19925  27.935  16.352   2.326
51532W        W19926  44.029  43.899  10.358
51533W        W19927  35.434  20.983  11.052
51534W        W19928   4.204  30.182   1.802
51535W        W19929  40.913  26.053  11.669
51536W        W19930  37.410  18.175   2.743
51537W        W19931  32.140  17.591  14.122
51538W        W19932  19.005  35.150  11.021
51539W        W19933  23.151  19.491  13.171
51540W        W19934  24.738  35.472   3.191
51541W        W19935  42.559  43.930  10.883
51542W        W19936  27.147   6.339  11.202
51543W        W19937   2.052  40.523   2.793
51544W        W19938  20.374  42.634   0.332
51545W        W19939   5.348  18.173   2.669
51546W        W19940  20.522  11.980  14.478
51547W        W19941  38.975   2.042  12.924
51548W        W19942  41.760  13.757  12.884
51549W        W19943  39.937  27.540   4.587
51550W        W19944  18.430  14.096  10.686
51551W        W19945  39.059  44.063  12.914
51552W        W19946   5.349   9.851   2.786
51553W        W19947   1.271  39.605  13.826
51554W        W19948   6.981  34.912   4.821
51555W        W19949   0.550   4.901  12.723
51556W        W19950   2.691  31.807   9.757
51557W        W19951  40.889  43.785  12.889
51558W        W19952  41.100  33.621   0.195
51559W        W19953  33.488  13.172  12.173
51560W        W19954  28.140  14.179   4.119
51561W        W19955  44.412  40.116  11.038
51562W        W19956  12.423  24.571  11.673
51563W        W19957  36.061  38.760  12.588
51564W        W19958  30.910   6.430  12.020
51565W        W19959  40.534   9.276   0.255
51566W        W19960  19.280  30.712  13.294
51567W        W19961  27.985  30.571  13.150
51568W        W19962  29.890  19.558   3.521
51569W        W19963   6.561  10.325   5.021
51570W        W19964  22.085   3.348   2.770
51571W        W19965  20.460   3.822  11.608
51572W        W19966  20.722   1.549  14.524
51573W        W19967   0.715   5.619  11.225
51574W        W19968  39.588  22.576  12.828
51575W        W19969  17.075  21.984  11.113
51576W        W19970  38.357  15.183  11.452
51577W        W19971  31.102  29.449  13.302
51578W        W19972  22.705  12.280  13.047
51579W        W19973  15.298  32.643   0.329
51580W        W19974  42.731  15.721   4.977
51581W        W19975  17.494  31.275   4.857
51582W        W19976  14.160  30.880   2.846
51583W        W19977  33.559  27.820  14.883
51584W        W19978  24.759  16.590   4.552
51585W        W19979  30.229   3.735  11.585
51586W        W19980  15.557  26.725   2.773
51587W        W19981   0.838   5.823   4.384
51588W        W19982  11.566   2.428  12.464
51589W        W19983  16.671  10.629  10.499
51590W        W19984   1.563  12.144  10.319
51591W        W19985   5.391  29.499  13.952
51592W        W19986  25.585   1.752  14.808
51593W        W19987  10.245  12.794  14.904
51594W        W19988  44.285  32.931  12.878
51595W        W19989  32.018  30.813   2.310
51596W        W19990  29.859  19.751   2.592
51597W        W19991   2.243  18.255  13.098
51598W        W19992   6.493  38.363  13.593
51599W        W19993  10.296  37.834  11.600
51600W        W19994  30.160  27.394   4.546
51601W        W19995  18.055  20.463  12.732
51602W        W19996   5.010  22.484   0.946
51603W        W19997  15.077  18.739  14.333
51604W        W19998  28.952  20.225   3.682
51605W        W19999  44.902  27.073   2.019
51606W        W20000   8.621  16.316  11.597
51607W        W20001  15.126  42.513   0.231
51608W        W20002  32.074  28.210  14.686
51609W        W20003  18.095   8.682   3.308
51610W        W20004   1.981  14.238   0.210
51611W        W20005  21.762  15.034   1.203
51612W        W20006  34.949  19.460  14.926
51613W        W20007  15.587  44.985   1.763
51614W        W20008  34.657   2.783   4.658
51615W        W20009   4.843  36.658   1.938
51616W        W20010  16.798   9.670  12.481
51617W        W20011  34.036  19.561   1.950
51618W        W20012  42.002  36.021   4.058
51619W        W20013  12.142  18.000  10.561
51620W        W20014  10.162  36.015  11.717
51621W        W20015  21.689   3.711  12.003
51622W        W20016  23.834  28.629  13.068
51623W        W20017   6.391   5.622   1.445
51624W        W20018  16.116  32.145  12.848
51625W        W20019   9.698  13.694  10.712
51626W        W20020   3.883  13.696  12.865
51627W        W20021  35.366   3.759  14.777
51628W        W20022   4.202  15.667   3.169
51629W        W20023  21.616   1.367   3.691
51630W        W20024  27.458  44.776   3.233
51631W        W20025  42.859  26.075  14.843
51632W        W20026  10.333  39.137   2.684
51633W        W20027   4.360  24.023   3.535
51634W        W20028   4.748  25.650  12.892
51635W        W20029  13.443  33.063  11.648
51636W        W20030  12.530  42.591  12.863
51637W        W20031  28.308   7.948  11.091
51638W        W20032  39.119  28.452  13.131
51639W        W20033  43.086  39.837  12.378
51640W        W20034   4.509  13.264  12.457
51641W        W20035  23.776  19.084   0.332
51642W        W20036   7.264  18.560  10.666
51643W        W20037  33.734  15.106   1.910
51644W        W20038  32.374  30.710   2.715
51645W        W20039  38.061  43.157   1.888
51646W        W20040  41.941  42.069  10.738
51647W        W20041   6.414  42.960  11.291
51648W        W20042   9.978  37.002  12.814
51649W        W20043  13.920  19.206   0.008
51650W        W20044  11.334  19.643   3.361
51651W        W20045  11.238   0.424   1.681
51652W        W20046  40.969  36.645   2.514
51653W        W20047  15.894  11.774   0.915
51654W        W20048  18.635  26.253   5.017
51655W        W20049   8.124  36.808  14.558
51656W        W20050  36.432  18.799   4.165
51657W        W20051  33.148   5.994   5.121
51658W        W20052  18.776  26.002   5.445
51659W        W20053  36.345  13.244   0.039
51660W        W20054  12.978  16.689  13.417
51661W        W20055  35.113  25.616   0.980
51662W        W20056  12.331   2.304  13.453
51663W        W20057  19.694  29.040   5.420
51664W        W20058   4.669  28.230   5.164
51665W        W20059   1.401  18.746  14.373
51666W        W20060  27.254  41.936   0.319
51667W        W20061  16.189  32.743   2.315
51668W        W20062  35.788  28.559  12.396
51669W        W20063   1.926  30.885  13.936
51670W        W20064  36.615   3.479  13.562
51671W        W20065  31.789  24.073  14.019
51672W        W20066   1.327  39.478  10.547
51673W        W20067  13.877  22.078  14.648
51674W        W20068  36.943  19.265  13.572
51675W        W20069  26.681  37.060   2.255
51676W        W20070  20.302   9.876  11.106
51677W        W20071  20.916  19.246  12.079
51678W        W20072  38.870   0.856  13.511
51679W        W20073  37.290  43.309   3.824
51680W        W20074  10.908  11.102   4.596
51681W        W20075  27.091  40.781  12.192
51682W        W20076  19.539   9.397   2.867
51683W        W20077  41.458  12.698   2.425
51684W        W20078  24.396  40.028  13.552
51685W        W20079  25.794  33.941  12.085
51686W        W20080  22.064  28.700   2.689
51687W        W20081  30.906  34.529  14.369
51688W        W20082  24.809  26.328   5.044
51689W        W20083  22.594  12.170   0.200
51690W        W20084  24.127   9.714  10.191
51691W        W20085  24.055   7.057  11.914
51692W        W20086  19.923   3.847  10.561
51693W        W20087  43.823  16.057  13.236
51694W        W20088  10.447   0.787  10.835
51695W        W20089  21.480  37.963  12.500
51696W        W20090  33.967   4.234   1.837
51697W        W20091  19.082   3.374  10.643
51698W        W20092  38.260  21.710  13.992
51699W        W20093   1.174  28.880   0.829
51700W        W20094  43.750   7.772  14.846
51701W        W20095  16.271  22.952  13.366
51702W        W20096  28.694  27.522   3.778
51703W        W20097  28.212  11.112  11.235
51704W        W20098   4.993   8.774   3.410
51705W        W20099  41.340  12.702  12.590
51706W        W20100  16.529  28.288   3.271
51707W        W20101  17.502   4.477  14.232
51708W        W20102  14.592  28.606   3.457
51709W        W20103  39.030  21.541  10.508
51710W        W20104  25.644  40.498   2.439
51711W        W20105  24.662  18.980   1.407
51712W        W20106  19.180  17.850   0.298
51713W        W20107  17.205  16.227   3.231
51714W        W20108  29.133  12.303  10.480
51715W        W20109  21.728  23.507  14.491
51716W        W20110  28.276   5.617   1.659
51717W        W20111  42.550  34.201   4.795
51718W        W20112  16.175  38.435   3.621
51719W        W20113  42.109  35.733  10.181
51720W        W20114  37.502  28.089   1.448
51721W        W20115  12.611  22.311   0.180
51722W        W20116   6.947  31.910   0.010
51723W        W20117   4.849  23.302  14.658
51724W        W20118  34.173  27.141   3.296
51725W        W20119  36.230  22.533   3.211
51726W        W20120  34.103   8.237  14.367
51727W        W20121   7.883  33.207   0.911
51728W        W20122  39.080  44.189   5.095
51729W        W20123  14.390  10.062   0.478
51730W        W20124  42.351  44.205   3.199
51731W        W20125  23.975   9.777  12.388
51732W        W20126  36.921   8.638   3.727
51733W        W20127   5.354   0.804   2.710
51734W        W20128  14.270   0.900  10.703
51735W        W20129  25.355  22.635  11.556
51736W        W20130  40.770  31.179  13.485
51737W        W20131  37.143   2.059   1.349
51738W        W20132  36.575  17.751  11.253
51739W        W20133  30.105  22.671   4.077
51740W        W20134  38.334  31.092   3.631
51741W        W20135  43.087  15.788  12.931
51742W        W20136  31.923  31.656  14.984
51743W        W20137  37.738  43.595  14.429
51744W        W20138  10.311  44.977   4.422
51745W        W20139  40.645  43.731   2.071
51746W        W20140  38.343  23.120  11.227
51747W        W20141  29.147  11.103   2.149
51748W        W20142   3.595  12.851   4.061
51749W        W20143  42.829   1.277   0.687
51750W        W20144  37.459  13.452   1.693
51751W        W20145  35.845   2.124   3.196
51752W        W20146  14.325   8.767   0.387
51753W        W20147  38.838  18.240   4.558
51754W        W20148  22.724  27.507   1.866
51755W        W20149  41.749   0.307   3.289
51756W        W20150   1.558  13.224  13.895
51757W        W20151   1.876  37.490  12.979
51758W        W20152  35.930  11.780  13.394
51759W        W20153   8.197  10.933   4.813
51760W        W20154  12.746  41.268  12.521
51761W        W20155  26.190  19.705  13.263
51762W        W20156  31.096  10.750   0.541
51763W        W20157  37.954  17.674   3.132
51764W        W20158  10.063  36.375   0.319
51765W        W20159   0.591  21.005  14.118
51766W        W20160  30.504  10.333   3.051
51767W        W20161  32.602  14.908   1.408
51768W        W20162   6.421  22.725  14.492
51769W        W20163  22.930  43.599   4.167
51770W        W20164  27.600  42.545   0.971
51771W        W20165  18.519   4.183   0.283
51772W        W20166  12.512   5.667  13.078
51773W        W20167  27.458  12.427   2.818
51774W        W20168  26.002   6.654  13.320
51775W        W20169  16.991  39.961   4.538
51776W        W20170  24.070  30.915   1.328
51777W        W20171   4.248   1.056   0.504
51778W        W20172  44.798  22.760  13.001
51779W        W20173  40.160  15.807   0.792
51780W        W20174  27.582  34.430  14.221
51781W        W20175  19.294  24.031  14.503
51782W        W20176  43.206  32.458  13.366
51783W        W20177  34.830   3.416   1.375
51784W        W20178   2.041   1.504  12.495
51785W        W20179  24.335   1.434  12.838
51786W        W20180  32.912  12.291  10.927
51787W        W20181   3.442  27.578  13.422
51788W        W20182  18.082  28.561   3.125
51789W        W20183  15.505   9.771  11.437
51790W        W20184  29.689  24.720   3.685
51791W        W20185  19.711  44.666  13.238
51792W        W20186  37.136  31.729  13.934
51793W        W20187  29.613  19.693   4.851
51794W        W20188  44.774  10.719   3.232
51795W        W20189  23.909  36.892   2.330
51796W        W20190  38.447  17.797   3.394
51797W        W20191  41.453  25.406  10.801
51798W        W20192  18.564  28.314  14.525
51799W        W20193  43.970  27.135  11.331
51800W        W20194  21.950   6.442   1.672
51801W        W20195  14.126  37.637   5.009
51802W        W20196  12.068   5.490   2.608
51803W        W20197  32.247   4.393   0.831
51804W        W20198   2.788  18.271   4.093
51805W        W20199  28.496   8.906  14.891
51806W        W20200  43.505  43.492   0.360
51807W        W20201  26.463  34.969  13.022
51808W        W20202  36.591   6.376  11.559
51809W        W20203  24.282  34.609   2.190
51810W        W20204  22.119  17.554  13.830
51811W        W20205   5.064  14.016   4.079
51812W        W20206  23.270   8.279   2.740
51813W        W20207  44.761  30.122  14.777
51814W        W20208  39.377  30.207  13.069
51815W        W20209  43.554  12.161  11.027
51816W        W20210  22.855  21.708  12.566
51817W        W20211  44.373  41.499  14.463
51818W        W20212  42.937  18.333   2.708
51819W        W20213  17.530  23.186  13.603
51820W        W20214  20.035   3.797   1.295
51821W        W20215   8.685   2.354   0.993
51822W        W20216  15.261   5.620  13.812
51823W        W20217  41.149  33.971   2.276
51824W        W20218  36.449  37.635  13.138
51825W        W20219  11.573  31.010   1.145
51826W        W20220  13.905  29.150   3.020
51827W        W20221  12.508  31.176   4.799
51828W        W20222  39.066  13.234   0.818
51829W        W20223   0.336  30.463  14.282
51830W        W20224  16.441  28.582  13.942
51831W        W20225   1.102  16.056  12.682
51832W        W20226  22.704  13.851  11.188
51833W        W20227  16.914  44.877   3.623
51834W        W20228  32.624  42.911   3.322
51835W        W20229   0.849  36.429  10.480
51836W        W20230  41.593   0.894   3.339
51837W        W20231  39.826  36.837   3.746
51838W        W20232  15.911   1.630  13.372
51839W        W20233  35.512   7.655   3.825
51840W        W20234  43.762  35.897   3.206
51841W        W20235   0.440  28.605  13.168
51842W        W20236  29.121  39.373   1.830
51843W        W20237  25.197  42.415   0.989
51844W        W20238   2.777   0.611   1.299
51845W        W20239  33.721  41.942   1.435
51846W        W20240  26.684  25.609   4.185
51847W        W20241  19.610  21.007  10.971
51848W        W20242   7.332   7.121   0.996
51849W        W20243   8.342  10.118  13.333
51850W        W20244   6.541  31.503  14.800
51851W        W20245   3.374  25.686   1.440
51852W        W20246  25.985  29.507  12.511
51853W        W20247  16.667   0.223  14.402
51854W        W20248  28.500   4.416  11.943
51855W        W20249  31.890  39.470   2.771
51856W        W20250  25.876  12.087   3.229
51857W        W20251   9.378   3.486  11.439
51858W        W20252  19.812   4.823  10.626
51859W        W20253   5.033   2.971   1.883
51860W        W20254   5.199  25.461  14.189
51861W        W20255  37.643  11.537  14.418
51862W        W20256  13.826  23.225   3.865
51863W        W20257   5.559   1.694  14.992
51864W        W20258  14.470  31.260  11.491
51865W        W20259  40.046   1.564   2.219
51866W        W20260   8.862   3.183   0.664
51867W        W20261   4.643  33.497   2.398
51868W        W20262  39.943  27.956  11.403
51869W        W20263  31.533  20.881  11.168
51870W        W20264  14.249   3.094  14.412
51871W        W20265  32.343  29.951  10.778
51872W        W20266  30.839   8.902  13.244
51873W        W20267  32.420   5.749   4.711
51874W        W20268  14.148  36.085  11.537
51875W        W20269  42.334  35.572  11.442
51876W        W20270  40.365  32.940  12.334
51877W        W20271   0.610  12.671   3.895
51878W        W20272  42.993  41.894  12.066
51879W        W20273  20.785  33.468  14.952
51880W        W20274   6.860  37.465   2.878
51881W        W20275  29.878  22.268  13.285
51882W        W20276   4.691   8.290  14.389
51883W        W20277  17.195  15.835  10.608
51884W        W20278  25.895  39.317  10.571
51885W        W20279   5.725  30.395   4.026
51886W        W20280  19.073   8.185   3.384
51887W        W20281  18.766  41.890  14.994
51888W        W20282  37.402  34.629   3.775
51889W        W20283   6.203  23.353   1.761
51890W        W20284  20.557  38.463  10.626
51891W        W20285  32.953  16.640   0.164
51892W        W20286  43.356  35.570   5.438
51893W        W20287  36.214  36.670   2.422
51894W        W20288   7.940   2.249  11.230
51895W        W20289  39.008   9.379   0.705
51896W        W20290  28.668  40.077  11.537
51897W        W20291   4.978  40.411  12.531
51898W        W20292  36.967  23.171  10.675
51899W        W20293  30.521  22.111   4.292
51900W        W20294   6.783  21.741  14.990
51901W        W20295  36.908  34.098   4.536
51902W        W20296  35.151  21.056   1.585
51903W        W20297  42.670  20.055   1.682
51904W        W20298  34.689  35.520   3.662
51905W        W20299   4.633  42.625   3.265
51906W        W20300  29.098  35.113  11.559
51907W        W20301  19.140  12.440  11.151
51908W        W20302  12.797  38.336  11.727
51909W        W20303  22.154  14.298   1.897
51910W        W20304  12.695  11.084   0.385
51911W        W20305   9.413  14.773  12.503
51912W        W20306  23.923  10.109   0.448
51913W        W20307   1.197  44.145  10.447
51914W        W20308  26.761   4.207   0.899
51915W        W20309  13.500  35.465  11.293
51916W        W20310   8.171   1.439   4.122
51917W        W20311   8.146  17.321   1.220
51918W        W20312  38.000   4.855   1.084
51919W        W20313   0.968  26.321   2.389
51920W        W20314  21.696  36.842   2.533
51921W        W20315   4.668   0.737  13.699
51922W        W20316  11.810  38.138  12.569
51923W        W20317  17.913  12.605  10.615
51924W        W20318  20.709  41.819   0.146
51925W        W20319  35.838  37.230   4.339
51926W        W20320  28.494  43.107  12.483
51927W        W20321  20.001  36.050  13.209
51928W        W20322  10.988  11.290  11.517
51929W        W20323  34.555  37.170  14.880
51930W        W20324  39.473  14.634  10.431
51931W        W20325   1.150   5.135  14.342
51932W        W20326  40.569  42.619   2.245
51933W        W20327  43.347   7.571  13.368
51934W        W20328   3.582  31.631   2.083
51935W        W20329  22.068  30.869   5.071
51936W        W20330   9.278  18.981  11.163
51937W        W20331  39.595  44.027  12.865
51938W        W20332  15.404  21.429   4.917
51939W        W20333   1.588   3.166  14.372
51940W        W20334  33.976   0.728   3.318
51941W        W20335  15.147   9.661   4.027
51942W        W20336  22.557  29.629  14.336
51943W        W20337  24.526  40.787   3.283
51944W        W20338  14.860  44.761   2.799
51945W        W20339  37.106   2.349  13.423
51946W        W20340  34.695   1.216   3.283
51947W        W20341  18.227  38.491  11.596
51948W        W20342   2.311  32.620  10.754
51949W        W20343  43.116  24.716   1.215
51950W        W20344  11.556  38.944   1.900
51951W        W20345  43.030  34.103   1.616
51952W        W20346  32.994  33.121  13.076
51953W        W20347  12.541   6.877   1.170
51954W        W20348   1.375  17.205   3.079
51955W        W20349   6.218  18.664   3.064
51956W        W20350  36.050  28.201   3.254
51957W        W20351  28.776  23.570   2.326
51958W        W20352  40.790  13.137   4.531
51959W        W20353   6.173   0.277  12.524
51960W        W20354  39.274  21.493   3.771
51961W        W20355  14.318  33.864   3.315
51962W        W20356  23.289   2.582  11.367
51963W        W20357  10.944  32.728  13.427
51964W        W20358  22.471  20.863  14.220
51965W        W20359  11.745   1.369  11.348
51966W        W20360  28.632  11.573   3.794
51967W        W20361   1.897  28.770   3.426
51968W        W20362  40.941  22.510   0.310
51969W        W20363   9.689   7.812   3.396
51970W        W20364  39.639   2.800  13.046
51971W        W20365   4.305   4.909  10.996
51972W        W20366  30.622  44.636  11.091
51973W        W20367  26.965  14.060  13.440
51974W        W20368  33.286  39.578  14.654
51975W        W20369  21.160  26.664   3.221
51976W        W20370  16.117  20.966   3.764
51977W        W20371   4.049   9.371   4.125
51978W        W20372  12.240  27.109   2.914
51979W        W20373  14.694   2.716   4.057
51980W        W20374  11.401   8.294  13.615
51981W        W20375   3.697   2.521  13.495
51982W        W20376  15.746  15.763  12.797
51983W        W20377   0.966   6.455  11.736
51984W        W20378  25.498  24.065  11.364
51985W        W20379  12.589  22.736   2.856
51986W        W20380  32.024  18.860   1.148
51987W        W20381   3.997  44.971  12.524
51988W        W20382  42.413  31.552  10.900
51989W        W20383  31.686  32.081  14.736
51990W        W20384   4.858  12.300   2.184
51991W        W20385  21.981  22.243  14.111
51992W        W20386  22.017  32.265   3.275
51993W        W20387  43.289  43.821   2.565
51994W        W20388  35.137  10.756   1.221
51995W        W20389  44.801  41.272   2.206
51996W        W20390  26.926  32.007   4.077
51997W        W20391  43.005  15.417   3.341
51998W        W20392  32.057  25.060  13.839
51999W        W20393  37.958  39.417   1.480
52000W        W20394  41.762  34.615   4.114
52001W        W20395  37.531  36.794  11.198
52002W        W20396   2.037  36.940   0.328
52003W        W20397  14.842  39.283   3.806
52004W        W20398  24.034  35.404   1.740
52005W        W20399  10.655  29.834   3.283
52006W        W20400  26.050   4.178  11.027
52007W        W20401  30.265  44.896   4.150
52008W        W20402  42.038   3.365  13.936
52009W        W20403  41.276  42.581   3.267
52010W        W20404  42.854   5.354   1.016
52011W        W20405  15.680  31.097   3.352
52012W        W20406  38.400  20.645   3.361
52013W        W20407  22.768  28.607   4.547
52014W        W20408  19.286  16.898   3.203
52015W        W20409  13.207  22.074   2.679
52016W        W20410  33.586   1.004   2.285
52017W        W20411  14.682  12.183  13.281
52018W        W20412   1.551  16.143  12.961
52019W        W20413  15.800  38.190  11.521
52020W        W20414   1.728  21.237   4.668
52021W        W20415  31.827  42.307   0.843
52022W        W20416  32.035  29.087   4.117
52023W        W20417  17.088  39.425  13.619
52024W        W20418  42.296  44.425   2.404
52025W        W20419   4.991  43.794   1.786
52026W        W20420  36.394  38.622  11.479
52027W        W20421  21.421  34.330  10.684
52028W        W20422  20.565  23.266   3.868
52029W        W20423   9.245   9.088  13.091
52030W        W20424  40.638  35.395  10.177
52031W        W20425  17.234   4.881  10.719
52032W        W20426  21.017  41.627   4.536
52033W        W20427   1.482  34.932   4.534
52034W        W20428  19.471  40.023  14.981
52035W        W20429   9.099  40.846  14.908
52036W        W20430  28.973  39.163  10.652
52037W        W20431  30.914  36.432  14.365
52038W        W20432  11.536   5.589  14.815
52039W        W20433  20.898  18.208   5.029
52040W        W20434  27.751   2.013   9.812
52041W        W20435   3.689  32.088  11.011
52042W        W20436  12.121   7.715   5.063
52043W        W20437  36.469  21.233   0.747
52044W        W20438  39.814   4.150  10.741
52045W        W20439  32.582  42.337   2.051
52046W        W20440  38.125  21.080  10.699
52047W        W20441  44.479  43.683  13.496
52048W        W20442  16.272  10.620   0.422
52049W        W20443  32.860  44.019  12.090
52050W        W20444  19.973  24.117  12.356
52051W        W20445   2.844  42.563  12.112
52052W        W20446  20.251  22.903   2.248
52053W        W20447  41.902  34.766   0.253
52054W        W20448  32.935  18.951   0.723
52055W        W20449   6.830  11.971  14.570
52056W        W20450  17.276  29.533  10.742
52057W        W20451  35.341   7.332   0.962
52058W        W20452  31.439  41.856  14.273
52059W        W20453  40.181   0.810  14.030
52060W        W20454  40.863  40.889   1.557
52061W        W20455  16.588  15.180   2.694
52062W        W20456  23.697  32.079  14.851
52063W        W20457   8.837   3.442   3.878
52064W        W20458  34.650  39.886   0.884
52065W        W20459  29.547  40.210   3.008
52066W        W20460  37.095  26.612  11.184
52067W        W20461  16.044   0.310  14.467
52068W        W20462  29.045  22.795   1.273
52069W        W20463   2.212  42.767   0.369
52070W        W20464  43.515  32.870  14.100
52071W        W20465  38.540  25.593   0.402
52072W        W20466   8.387   6.305   2.668
52073W        W20467  22.081  42.307   3.119
52074W        W20468  40.376  34.704   0.016
52075W        W20469  37.062  25.098   0.293
52076W        W20470  22.114  24.545   1.164
52077W        W20471  28.943  44.101  14.520
52078W        W20472  34.469  31.241   0.780
52079W        W20473  37.937  26.643  13.753
52080W        W20474  40.499   4.189   3.330
52081W        W20475  15.915  44.228   3.580
52082W        W20476   0.735  12.785   4.433
52083W        W20477  13.829  14.190   4.507
52084W        W20478  22.269  43.998  10.653
52085W        W20479  42.955  10.595   2.891
52086W        W20480  18.779   2.422  11.203
52087W        W20481  38.347   1.054   1.566
52088W        W20482   1.398  16.076  13.571
52089W        W20483  28.736  19.489  10.602
52090W        W20484   1.571  32.530  14.538
52091W        W20485  16.476  34.833  11.120
52092W        W20486  10.892  37.446   1.486
52093W        W20487  27.136   2.421  12.614
52094W        W20488  11.590  39.033   0.448
52095W        W20489  33.345  31.278   3.304
52096W        W20490  30.404   4.598  14.624
52097W        W20491  15.511  23.668  11.450
52098W        W20492  18.661  15.624  12.157
52099W        W20493   7.645   7.854  10.915
52100W        W20494  43.264   4.901   3.618
52101W        W20495  44.051  21.864   3.687
52102W        W20496   4.937  39.024   4.076
52103W        W20497  22.634  38.588   0.373
52104W        W20498  40.328  17.651  13.810
52105W        W20499   1.052  33.050   1.944
52106W        W20500  14.587  31.996   4.218
52107W        W20501  15.394  20.076   4.423
52108W        W20502  36.480   9.599  11.489
52109W        W20503  16.471   4.841  10.305
52110W        W20504  14.299   4.981   0.930
52111W        W20505   5.365  35.528   0.127
52112W        W20506  43.289  18.791  11.396
52113W        W20507  24.779  35.064   0.916
52114W        W20508  33.955  36.906   0.552
52115W        W20509  19.746   0.041   0.265
52116W        W20510  24.545  10.275   1.459
52117W        W20511  39.135  22.750   3.710
52118W        W20512  32.040   5.245  13.484
52119W        W20513  20.813  26.092  11.141
52120W        W20514  12.119  11.668  12.072
52121W        W20515   1.914  44.967   1.500
52122W        W20516  15.101   8.853   4.217
52123W        W20517   1.791  10.766  10.879
52124W        W20518  35.090  33.633   1.284
52125W        W20519  10.336  36.057  10.399
52126W        W20520  44.758  17.218  11.674
52127W        W20521  23.603  21.136  14.941
52128W        W20522  18.509  11.203  14.872
52129W        W20523   2.854  36.829  12.001
52130W        W20524  27.323  37.532  11.637
52131W        W20525  44.248   8.624  12.814
52132W        W20526   9.702  41.925   0.560
52133W        W20527  22.825   1.705  11.107
52134W        W20528  34.862  39.056  10.709
52135W        W20529  28.115  33.545  12.891
52136W        W20530   4.379  19.546  14.869
52137W        W20531   5.798  18.342   1.438
52138W        W20532  22.162  42.013   1.984
52139W        W20533   5.996   7.906   4.316
52140W        W20534  39.572   0.751   2.296
52141W        W20535  17.391  10.279   4.099
52142W        W20536  29.053  28.690  10.689
52143W        W20537  40.664   8.643  10.306
52144W        W20538  44.904  29.213   0.919
52145W        W20539  25.598  30.575  10.797
52146W        W20540  35.239   9.876  10.759
52147W        W20541   8.194  11.152  13.340
52148W        W20542  13.602  41.819   3.633
52149W        W20543  15.603  40.827   1.407
52150W        W20544  34.319   0.315   0.242
52151W        W20545  24.797  33.607   2.641
52152W        W20546  40.495  26.684  11.355
52153W        W20547  32.076  40.960  11.602
52154W        W20548  19.570   0.567  11.459
52155W        W20549  18.601  33.109  14.453
52156W        W20550  43.319  18.499  14.337
52157W        W20551   3.486  24.987   3.510
52158W        W20552  40.783   5.997  12.559
52159W        W20553  36.530  35.548  12.849
52160W        W20554  15.892  14.359  10.710
52161W        W20555  17.882  19.924   4.528
52162W        W20556  42.668   4.893  14.577
52163W        W20557  42.988  42.944   2.232
52164W        W20558  22.722  42.332  11.397
52165W        W20559  20.360   1.365   4.103
52166W        W20560   3.879  30.182   0.331
52167W        W20561  15.398  21.209  13.398
52168W        W20562  19.010  33.779  13.765
52169W        W20563   9.135   0.294  14.873
52170W        W20564  16.655   0.433  11.579
52171W        W20565  43.275  11.023  11.730
52172W        W20566   8.707  36.484   5.041
52173W        W20567   9.406  32.218   0.294
52174W        W20568  39.396  12.440  13.410
52175W        W20569  17.732   8.480   0.410
52176W        W20570   5.325  43.758   0.485
52177W        W20571  17.283  14.782   2.285
52178W        W20572  28.918  38.037  11.966
52179W        W20573   0.335   6.790  10.746
52180W        W20574  22.650  44.997   3.753
52181W        W20575   9.130   7.733  13.903
52182W        W20576  20.065  26.285  10.671
52183W        W20577   6.435  40.373   0.195
52184W        W20578  22.394  13.715   2.307
52185W        W20579  38.450  22.635  11.401
52186W        W20580  35.865  35.973   0.683
52187W        W20581  22.445   8.415   3.116
52188W        W20582  19.581  24.294   1.605
52189W        W20583  22.531  29.098  10.190
52190W        W20584  22.144   3.048  11.925
52191W        W20585  12.333   5.383  14.825
52192W        W20586  19.103   4.374   0.820
52193W        W20587  36.760  36.570  13.518
52194W        W20588  44.428  26.421  10.825
52195W        W20589   8.864  34.087  10.816
52196W        W20590   0.980  20.584  12.463
52197W        W20591  24.099  44.544   0.825
52198W        W20592  29.474  25.091   0.373
52199W        W20593  19.293  34.538   1.350
52200W        W20594  10.834  24.501  13.021
52201W        W20595  26.246   1.890  10.652
52202W        W20596   0.997  36.512  11.390
52203W        W20597  30.989  30.023   4.368
52204W        W20598  13.536  33.532  12.966
52205W        W20599   6.692  40.343   2.674
52206W        W20600  34.176  18.698  11.144
52207W        W20601  24.610  25.178   3.958
52208W        W20602  39.161   9.291   1.637
52209W        W20603  41.832   9.426   3.932
52210W        W20604   8.801  11.593   3.340
52211W        W20605  20.027  28.666  14.221
52212W        W20606  26.503  13.271   4.551
52213W        W20607  25.843  33.323  12.595
52214W        W20608   2.235  15.728  12.144
52215W        W20609   5.881   0.771  14.598
52216W        W20610   6.833   0.748   4.324
52217W        W20611  36.395  18.842   1.205
52218W        W20612  29.936  42.053   3.422
52219W        W20613   2.312  13.632   3.084
52220W        W20614  36.943  20.514   1.187
52221W        W20615  15.863  10.301   0.347
52222W        W20616  16.269  11.369  11.567
52223W        W20617   4.354   1.973  10.667
52224W        W20618  13.152  13.781  12.586
52225W        W20619  13.310  30.511   2.871
52226W        W20620   0.915  32.448   3.943
52227W        W20621  36.527   3.358  10.781
52228W        W20622  42.725  29.955   2.427
52229W        W20623   5.095  38.188   3.220
52230W        W20624  37.473  40.378  13.118
52231W        W20625  24.523   1.555   3.534
52232W        W20626  39.851  40.308   3.204
52233W        W20627   8.608   5.873  13.223
52234W        W20628  13.015  10.639   3.724
52235W        W20629  29.407  14.848   0.853
52236W        W20630   9.786   1.914  12.111
52237W        W20631  42.745  29.596   0.721
52238W        W20632   5.816   1.291   4.137
52239W        W20633  44.792  29.978   2.731
52240W        W20634  34.836  22.639   5.016
52241W        W20635  30.034  41.220   0.980
52242W        W20636  24.969   8.720   4.558
52243W        W20637  27.555  14.604   2.242
52244W        W20638  42.259  11.076  11.674
52245W        W20639  21.460   2.880  14.752
52246W        W20640   7.377   1.422  11.115
52247W        W20641  27.637  34.907   0.812
52248W        W20642  16.235  27.148  11.854
52249W        W20643  28.192  27.930  14.081
52250W        W20644  34.664  10.673  13.909
52251W        W20645  30.547  11.704   3.762
52252W        W20646  24.804  32.867   1.402
52253W        W20647  25.625  18.694  12.064
52254W        W20648  16.241  14.237   1.291
52255W        W20649   2.466  13.249  12.588
52256W        W20650  20.885  44.695  11.325
52257W        W20651  26.005  13.548  13.363
52258W        W20652  44.541  17.268  12.142
52259W        W20653   0.364   7.927   1.876
52260W        W20654  25.020  34.406   3.669
52261W        W20655  14.444  23.518   2.426
52262W        W20656   5.634  22.111   3.246
52263W        W20657  42.571  26.583   0.847
52264W        W20658  20.868   5.432   0.498
52265W        W20659   3.901  30.333   1.252
52266W        W20660  15.178   7.694   5.454
52267W        W20661  28.449  21.116   2.790
52268W        W20662  34.686  15.216   3.418
52269W        W20663  30.078   9.942  12.960
52270W        W20664  37.301  11.841   3.400
52271W        W20665  10.835  19.316  12.516
52272W        W20666   7.667  14.152   2.802
52273W        W20667  17.310  11.279   2.463
52274W        W20668  40.070  19.251   2.232
52275W        W20669  41.814  40.029   3.833
52276W        W20670  43.838  14.391  13.260
52277W        W20671  41.447   1.438  12.527
52278W        W20672  41.574  16.862   1.708
52279W        W20673  14.794  11.205   1.567
52280W        W20674   0.515  32.515  12.101
52281W        W20675   9.158  11.940   5.140
52282W        W20676  14.801   2.144   1.875
52283W        W20677  33.589  14.201   3.363
52284W        W20678   8.874   4.444   2.594
52285W        W20679  34.539  29.680  13.014
52286W        W20680   3.585  30.265   4.084
52287W        W20681  38.110  28.535  12.921
52288W        W20682  32.534  24.296   0.322
52289W        W20683  10.250  23.216   4.662
52290W        W20684  22.239  18.236  12.046
52291W        W20685  41.556  20.516  10.878
52292W        W20686  12.402  27.911  12.109
52293W        W20687  18.197   6.700  10.519
52294W        W20688  42.542  26.466  10.720
52295W        W20689  11.194  16.645  12.397
52296W        W20690  24.106  37.793   2.390
52297W        W20691   5.160  34.885   4.451
52298W        W20692  35.982  19.737  13.944
52299W        W20693   8.375   9.924   3.809
52300W        W20694   6.635  19.012  14.907
52301W        W20695  32.676  13.136   2.185
52302W        W20696  37.361  22.518   1.362
52303W        W20697  14.227   5.999  13.940
52304W        W20698  34.355   0.324  14.318
52305W        W20699  13.865  15.870   3.208
52306W        W20700   1.428  40.513   1.647
52307W        W20701   8.680  21.669   0.314
52308W        W20702  26.053   9.148   4.376
52309W        W20703  21.256  32.456   1.262
52310W        W20704  35.100  11.565  13.536
52311W        W20705   1.625   8.280  10.590
52312W        W20706  25.228  16.224   0.971
52313W        W20707  26.977  19.493   1.363
52314W        W20708  36.030  21.855  12.030
52315W        W20709  25.642  37.507   1.292
52316W        W20710  25.077  38.980  14.346
52317W        W20711   2.164   2.876  11.196
52318W        W20712   4.324  35.062  10.549
52319W        W20713  22.677  42.263  14.393
52320W        W20714  25.487  38.597  12.920
52321W        W20715  35.245  34.542  10.263
52322W        W20716  19.620  29.839  14.425
52323W        W20717  14.439  26.990   4.284
52324W        W20718   8.106  13.721   4.232
52325W        W20719  18.259  43.962   1.982
52326W        W20720  12.800  35.876  13.854
52327W        W20721  44.507  10.250  14.508
52328W        W20722   1.932   1.786   2.756
52329W        W20723  28.120  24.291  13.048
52330W        W20724  34.915  32.160   4.436
52331W        W20725  11.642  33.555   3.083
52332W        W20726  11.818  10.398   2.290
52333W        W20727  19.546  26.032   9.813
52334W        W20728  14.626  24.037  14.757
52335W        W20729  37.683  17.656  13.914
52336W        W20730  10.775   7.514   1.167
52337W        W20731  18.765   2.306  14.707
52338W        W20732  23.970  15.265   4.693
52339W        W20733  15.258   9.930  13.562
52340W        W20734  10.274   9.324  14.230
52341W        W20735   4.840  44.217  10.283
52342W        W20736   8.915  41.022  10.427
52343W        W20737  17.945  41.463  13.875
52344W        W20738   9.367  31.966  11.069
52345W        W20739   3.487  20.043  14.908
52346W        W20740  19.766   0.431  11.929
52347W        W20741   8.100  34.549  14.919
52348W        W20742   1.735  43.042  11.934
52349W        W20743   9.767  23.648   1.763
52350W        W20744  16.020  43.177  13.317
52351W        W20745  28.737   1.978   2.889
52352W        W20746   3.290  23.150   3.034
52353W        W20747  44.041  16.647   3.060
52354W        W20748  22.099  34.421   0.816
52355W        W20749  11.327  25.313   3.086
52356W        W20750  14.907   6.200   1.983
52357W        W20751  27.136  24.258   3.368
52358W        W20752  33.116  12.222   4.484
52359W        W20753  27.632  13.666  11.149
52360W        W20754  29.332  12.882   4.448
52361W        W20755  10.873   9.187   4.600
52362W        W20756  35.441  42.010   0.966
52363W        W20757  44.176  23.051   3.654
52364W        W20758  31.866  19.741   3.694
52365W        W20759  22.388  37.100   0.775
52366W        W20760  17.345  30.556  14.421
52367W        W20761  33.909  36.453   4.651
52368W        W20762  23.597  39.384   1.723
52369W        W20763   2.859  11.265   0.756
52370W        W20764  32.005  18.344   1.222
52371W        W20765  38.605   0.278   4.418
52372W        W20766  11.285  24.379   0.243
52373W        W20767  32.601  24.273  10.762
52374W        W20768  22.852  28.511  11.879
52375W        W20769   8.336  13.852  13.798
52376W        W20770  29.888  16.845  13.371
52377W        W20771  25.454  25.685  13.461
52378W        W20772  27.543  31.286  13.973
52379W        W20773  15.895  26.991  13.415
52380W        W20774  42.230  34.168   3.242
52381W        W20775  17.481  41.258  14.052
52382W        W20776  15.712  26.477   1.463
52383W        W20777   9.154  33.800  12.080
52384W        W20778  44.550   5.531  14.446
52385W        W20779  18.569  26.892  11.624
52386W        W20780  34.680  20.679   1.881
52387W        W20781   3.755  11.186  14.065
52388W        W20782   8.258  39.480  14.530
52389W        W20783  41.342  36.806   3.669
52390W        W20784  43.413   9.519   3.514
52391W        W20785  21.117  21.359  12.521
52392W        W20786  11.818  22.477  13.633
52393W        W20787   1.409  18.196  10.991
52394W        W20788  29.529   0.894  13.127
52395W        W20789   0.163   6.519  11.738
52396W        W20790  13.942  28.105   3.166
52397W        W20791  23.982  22.485   3.213
52398W        W20792  22.932  34.928   2.634
52399W        W20793   1.571  19.661  13.604
52400W        W20794  30.975   0.438  13.542
52401W        W20795  38.848  36.567  13.866
52402W        W20796  17.759  40.322   5.219
52403W        W20797  21.155  37.589  11.121
52404W        W20798  29.048  37.161  13.508
52405W        W20799  12.407   8.874  14.794
52406W        W20800  44.961  37.794  14.964
52407W        W20801  22.518   9.767   2.414
52408W        W20802  19.238  36.008   2.801
52409W        W20803  42.894  31.297   1.580
52410W        W20804  12.114  33.992  13.898
52411W        W20805   3.319  40.276   3.843
52412W        W20806  23.039  14.164  13.417
52413W        W20807  40.308  30.147  14.505
52414W        W20808  41.460  22.933  14.243
52415W        W20809  14.001  28.967   4.303
52416W        W20810  37.389  15.616  13.422
52417W        W20811  15.879  28.817  11.921
52418W        W20812   0.836  20.975  12.112
52419W        W20813   9.471  22.057  11.985
52420W        W20814  13.348  17.113  10.648
52421W        W20815   5.679  43.893   2.406
52422W        W20816  13.094  29.907   1.131
52423W        W20817   9.538  43.405   2.869
52424W        W20818  17.743  38.932   1.662
52425W        W20819  39.940  13.440  10.662
52426W        W20820  35.032  36.580   0.400
52427W        W20821  35.566   7.130   2.876
52428W        W20822  25.459   9.719   1.203
52429W        W20823  16.315  11.349  10.761
52430W        W20824  36.398  37.615   1.871
52431W        W20825  35.903  42.731   2.546
52432W        W20826  29.009  36.018  14.245
52433W        W20827  34.506   0.657   4.068
52434W        W20828  12.626  20.800   1.331
52435W        W20829  23.739  19.982  13.604
52436W        W20830  34.049  36.112   1.892
52437W        W20831  24.769  12.826   0.317
52438W        W20832   0.477  17.174  11.184
52439W        W20833  31.119  43.442  10.678
52440W        W20834  12.743  26.964   4.666
52441W        W20835  15.146  23.829  12.159
52442W        W20836   0.206  27.578   3.636
52443W        W20837  20.626  26.481  12.841
52444W        W20838  15.392  42.923   0.945
52445W        W20839  39.475  18.757   1.884
52446W        W20840   7.230   5.850  14.834
52447W        W20841  14.625  10.861   2.570
52448W        W20842   4.900  25.966  11.972
52449W        W20843  27.523  14.533  14.039
52450W        W20844  12.649  26.539   1.190
52451W        W20845  14.696  36.301   1.741
52452W        W20846  14.474  23.507  14.775
52453W        W20847  40.509  19.492   5.005
52454W        W20848  39.830  33.440   3.933
52455W        W20849  44.975  25.103  11.194
52456W        W20850  40.032   0.259   0.875
52457W        W20851  39.919   0.271  13.008
52458W        W20852   3.691  25.857   3.578
52459W        W20853  15.492  34.849   2.050
52460W        W20854  30.440   3.877   1.225
52461W        W20855  24.042   0.488  14.947
52462W        W20856  11.280  29.433   1.992
52463W        W20857  15.793   8.640   2.694
52464W        W20858  27.975  27.951  10.862
52465W        W20859   2.176  25.046   2.574
52466W        W20860  37.650  28.056  11.559
52467W        W20861  44.979   4.287   1.405
52468W        W20862  33.072  30.169  13.912
52469W        W20863  10.691  26.176   4.580
52470W        W20864   9.949  25.486   5.451
52471W        W20865   6.363  10.156  12.505
52472W        W20866  34.012  38.980   3.760
52473W        W20867  38.409   4.031  13.006
52474W        W20868  16.095  27.459   4.613
52475W        W20869  33.963  20.345   3.204
52476W        W20870  16.645  42.445  12.956
52477W        W20871   9.291  36.111   3.661
52478W        W20872   7.725  44.586   1.260
52479W        W20873  10.075  19.518  14.843
52480W        W20874  16.288  21.557   2.785
52481W        W20875  23.741   2.419  11.574
52482W        W20876   5.337   6.801   1.228
52483W        W20877  21.476  20.445   3.592
52484W        W20878  14.238   7.220  13.372
52485W        W20879  19.048   0.017   3.359
52486W        W20880  15.621   5.710  12.945
52487W        W20881  25.294  19.734   3.389
52488W        W20882  12.878   4.156  14.452
52489W        W20883   6.439  20.213   2.980
52490W        W20884  13.030  10.690   0.442
52491W        W20885  34.741  21.192   3.674
52492W        W20886   7.807  14.661   3.939
52493W        W20887  29.934  15.332   4.624
52494W        W20888  36.548   0.580  11.210
52495W        W20889   5.245  17.602   2.639
52496W        W20890   7.609  18.058   0.303
52497W        W20891  21.531  41.492   3.755
52498W        W20892  18.944  41.306   0.762
52499W        W20893  36.883   5.148  13.560
52500W        W20894  28.310  42.360  14.188
52501W        W20895   0.552   8.573   0.802
52502W        W20896  24.684  30.393   1.807
52503W        W20897  23.333  21.549  12.582
52504W        W20898  44.646  43.077  12.935
52505W        W20899  15.945  10.018  12.474
52506W        W20900  24.308  22.653   4.880
52507W        W20901  10.902  14.816   3.305
52508W        W20902   7.250  41.536  12.489
52509W        W20903  16.540   1.932   2.159
52510W        W20904  12.315  14.823  11.009
52511W        W20905   8.261  23.183   3.855
52512W        W20906  20.560  42.186   3.929
52513W        W20907  42.774  34.814  13.019
52514W        W20908  23.716  41.104  14.498
52515W        W20909  35.353  18.225  14.823
52516W        W20910   3.269  33.628   4.088
52517W        W20911  34.148  21.057   1.083
52518W        W20912  20.973  15.905   4.032
52519W        W20913   5.113   0.554  13.520
52520W        W20914  34.980  35.403   4.539
52521W        W20915   0.483  41.757  13.875
52522W        W20916  41.603  10.686  12.296
52523W        W20917  21.457  34.287  12.994
52524W        W20918  21.738  32.715   4.249
52525W        W20919  28.148  38.277   2.703
52526W        W20920   3.322   4.695  14.066
52527W        W20921   8.721  32.281   4.147
52528W        W20922  19.129  44.567   4.213
52529W        W20923  35.573  31.414  11.524
52530W        W20924  20.288  20.510  12.094
52531W        W20925   4.782  32.571  12.146
52532W        W20926   3.420  36.230  13.378
52533W        W20927  39.633  36.044   0.878
52534W        W20928   2.195  36.185   2.011
52535W        W20929   8.621  35.344  12.982
52536W        W20930  29.526  25.265  10.232
52537W        W20931  31.582  17.294  12.810
52538W        W20932  20.568   7.310   1.983
52539W        W20933  42.299  27.820   2.660
52540W        W20934  15.095  16.295   1.194
52541W        W20935  30.038  44.379   1.684
52542W        W20936  31.432  24.559   2.737
52543W        W20937  33.458  43.730   4.706
52544W        W20938  36.394   7.113  13.847
52545W        W20939  35.272   1.026  12.486
52546W        W20940   9.325   3.419  13.477
52547W        W20941  17.029   5.616  13.897
52548W        W20942  31.960  27.009  11.054
52549W        W20943  33.963  35.317  14.796
52550W        W20944  19.158  21.551  12.986
52551W        W20945   4.707  21.642  10.925
52552W        W20946  44.053  10.739  11.949
52553W        W20947  21.211  39.320   3.753
52554W        W20948  19.562  37.821  10.659
52555W        W20949  20.098  34.054   4.648
52556W        W20950  31.053  11.632  12.019
52557W        W20951  37.063   1.469  11.531
52558W        W20952  25.715  13.100   0.320
52559W        W20953  28.374  28.015  11.205
52560W        W20954  26.223  20.139  12.057
52561W        W20955   5.984   1.291  11.989
52562W        W20956  19.161   7.094   1.869
52563W        W20957  35.778  32.650   4.173
52564W        W20958  31.806  11.952   0.928
52565W        W20959  43.807  27.184  10.839
52566W        W20960  40.328   3.201  13.357
52567W        W20961  21.637   8.245  11.727
52568W        W20962  17.128  36.263  11.431
52569W        W20963  25.745   3.381   2.900
52570W        W20964  17.284  10.696  12.133
52571W        W20965   1.084  21.191   1.751
52572W        W20966  11.225  13.408  11.141
52573W        W20967  11.453  12.789   0.597
52574W        W20968   4.830  17.994   3.718
52575W        W20969  17.544   3.174   1.927
52576W        W20970  17.285  40.912  14.901
52577W        W20971  26.690   5.375   0.263
52578W        W20972   5.974  42.887  12.524
52579W        W20973   0.950  16.807  10.085
52580W        W20974  41.815   8.866  10.743
52581W        W20975  38.345  41.244   0.183
52582W        W20976  33.242  17.318   1.717
52583W        W20977  39.969  43.347   1.662
52584W        W20978  41.093   2.029  13.836
52585W        W20979  20.647  39.822   3.281
52586W        W20980  15.536  38.094   3.709
52587W        W20981  22.384  13.291   5.064
52588W        W20982  23.747  19.533  13.908
52589W        W20983  39.633  36.340  13.459
52590W        W20984   8.624  10.125  10.804
52591W        W20985  15.392   8.399  14.875
52592W        W20986   4.819  21.569   4.933
52593W        W20987  15.681  21.217  12.524
52594W        W20988  12.192   6.289  14.964
52595W        W20989  23.642   9.646  11.485
52596W        W20990  30.443  28.077  10.406
52597W        W20991  44.039  33.909   0.785
52598W        W20992  29.293  39.034  13.311
52599W        W20993   6.101  21.980   0.417
52600W        W20994  11.895  21.943   2.021
52601W        W20995  40.076  40.818  14.404
52602W        W20996  35.014  28.860  12.842
52603W        W20997  30.620  31.043   3.167
52604W        W20998  14.152  17.063  12.083
52605W        W20999   7.809  15.595  10.675
52606W        W21000  20.743  38.939   2.744
52607W        W21001   2.291  39.382   3.375
52608W        W21002   4.753  21.242  14.495
52609W        W21003   6.794   3.464  12.455
52610W        W21004   1.732  43.486   3.585
52611W        W21005  30.563  12.751   3.552
52612W        W21006  28.092  13.760   3.835
52613W        W21007   9.047  30.008   1.664
52614W        W21008  29.249  30.678  11.907
52615W        W21009  39.421   4.674  11.717
52616W        W21010  18.530  31.082  13.089
52617W        W21011  28.089   3.776   3.148
52618W        W21012  25.235  32.538   1.410
52619W        W21013  42.021  10.102   2.654
52620W        W21014  19.604  34.952   1.338
52621W        W21015  31.366  42.558   3.181
52622W        W21016  39.638  29.017   2.078
52623W        W21017  31.053  25.184   3.006
52624W        W21018   4.529  20.738   3.199
52625W        W21019  31.434  21.817   4.128
52626W        W21020  23.978  11.889  14.952
52627W        W21021  39.433  21.591  14.476
52628W        W21022  40.752  39.860   2.320
52629W        W21023  13.707  29.372   1.901
52630W        W21024  29.605  38.985  14.343
52631W        W21025  24.489   5.290   3.841
52632W        W21026  18.457   8.971   3.714
52633W        W21027  37.485  11.015  13.026
52634W        W21028  38.151   6.212  11.050
52635W        W21029   2.159  21.119   2.565
52636W        W21030   6.179  18.250  12.085
52637W        W21031  32.561  32.099  13.319
52638W        W21032   9.727  35.096   2.195
52639W        W21033  44.236  10.021   4.174
52640W        W21034  44.348   9.389  13.789
52641W        W21035  10.682  10.388  11.958
52642W        W21036  27.769  34.603   4.628
52643W        W21037  42.034  29.978  14.601
52644W        W21038  24.016  38.354  13.086
52645W        W21039  12.255  15.737  14.540
52646W        W21040   4.595  41.452  11.714
52647W        W21041  22.390  28.729  11.887
52648W        W21042  42.080  17.112  11.974
52649W        W21043  39.143  36.763   2.098
52650W        W21044  13.122  33.431   3.401
52651W        W21045  17.165  39.107  12.337
52652W        W21046  41.541  36.807   1.967
52653W        W21047   5.703   6.242  12.978
52654W        W21048   0.668  20.414   0.712
52655W        W21049  15.358   4.628   1.226
52656W        W21050   4.274  21.214   0.794
52657W        W21051  19.282   2.385  14.881
52658W        W21052   4.256  16.560   4.183
52659W        W21053  12.580  19.761   4.075
52660W        W21054  24.493   0.553  14.253
52661W        W21055  18.781  20.604   9.828
52662W        W21056  17.635  23.764  11.239
52663W        W21057   4.850   9.679  12.903
52664W        W21058   6.618  43.020   4.563
52665W        W21059  17.972   4.804  10.183
52666W        W21060  24.273  18.870  12.224
52667W        W21061  10.897  18.697   3.968
52668W        W21062  26.725  31.552  12.513
52669W        W21063   7.457  37.419   3.678
52670W        W21064  23.495  28.134  11.452
52671W        W21065  19.268  21.668  11.982
52672W        W21066  24.479  26.984   4.105
52673W        W21067  42.545  18.056   4.854
52674W        W21068  41.959   6.426  12.117
52675W        W21069  18.120  13.344  13.338
52676W        W21070   3.798  43.764  13.487
52677W        W21071   3.566  39.769  14.460
52678W        W21072  27.665  14.294   0.905
52679W        W21073   2.496  30.171   2.141
52680W        W21074  38.129  17.672  12.505
52681W        W21075  29.962  41.930   2.929
52682W        W21076  24.055  15.865   1.648
52683W        W21077  10.671  37.331   3.370
52684W        W21078  10.926  42.627  11.093
52685W        W21079   9.364  43.030  10.287
52686W        W21080  10.836  36.338  13.020
52687W        W21081   2.176  36.496  10.995
52688W        W21082   7.496   9.595   4.082
52689W        W21083  38.680  36.647   1.149
52690W        W21084  39.730  21.729   0.885
52691W        W21085  12.837  14.835   3.608
52692W        W21086  17.317   0.087   4.029
52693W        W21087  15.283  39.320  11.133
52694W        W21088  15.009  31.074  12.946
52695W        W21089  23.262  17.207  14.522
52696W        W21090  19.525  41.391  14.783
52697W        W21091  26.163   0.410  12.944
52698W        W21092  29.416  15.345  11.135
52699W        W21093   5.295  44.337   4.854
52700W        W21094  14.245   0.867  11.614
52701W        W21095  39.950   9.870  12.895
52702W        W21096  30.360   3.620  13.508
52703W        W21097   4.973  10.209  10.271
52704W        W21098  13.351  42.469   4.118
52705W        W21099  22.317  23.229   2.609
52706W        W21100  20.469  34.151  11.918
52707W        W21101  15.784  10.518  12.433
52708W        W21102  24.511   6.681   4.480
52709W        W21103  12.753   8.288  13.325
52710W        W21104  42.052  43.652   1.759
52711W        W21105  26.068  36.479  11.020
52712W        W21106   9.881   0.960   3.174
52713W        W21107  33.982   6.878  14.522
52714W        W21108  39.701   7.462  11.617
52715W        W21109  31.759  26.474   2.689
52716W        W21110  31.080  16.937  14.212
52717W        W21111  23.783   2.295   3.628
52718W        W21112  34.477  14.083  14.454
52719W        W21113  37.604  11.304  11.871
52720W        W21114  18.075  26.449  13.316
52721W        W21115  12.234  44.765  14.482
52722W        W21116   9.154   9.701   3.334
52723W        W21117  28.660   3.311  13.282
52724W        W21118  44.275  12.105  14.898
52725W        W21119  37.844   5.820  13.267
52726W        W21120  31.151  16.656   3.174
52727W        W21121  36.674  39.362  10.524
52728W        W21122  13.885  42.296   1.821
52729W        W21123  44.249  13.870  14.863
52730W        W21124   4.597  37.751  11.138
52731W        W21125  19.793  39.525   9.799
52732W        W21126  41.292  17.609  11.688
52733W        W21127   5.624   3.499   1.342
52734W        W21128  18.421  42.761   3.590
52735W        W21129  29.653  26.316  11.043
52736W        W21130  34.989  21.393  12.446
52737W        W21131  35.275  43.555   0.803
52738W        W21132   4.784  28.616  13.905
52739W        W21133  30.511  13.747  10.592
52740W        W21134  33.607  33.472  12.415
52741W        W21135  34.829  30.087   1.435
52742W        W21136  23.021   5.180   4.360
52743W        W21137  22.043  24.460  12.960
52744W        W21138  21.477  20.208   2.698
52745W        W21139   9.236  15.210  12.357
52746W        W21140  25.885  40.317  11.649
52747W        W21141  16.341  43.963   1.655
52748W        W21142   2.169  20.623  13.305
52749W        W21143  29.018  21.551   3.899
52750W        W21144  27.732  13.941   2.830
52751W        W21145  42.428  18.124  12.861
52752W        W21146  22.977  41.362   3.745
52753W        W21147  10.381  36.353   4.162
52754W        W21148  25.899  23.663  13.302
52755W        W21149  22.178  44.281   1.885
52756W        W21150  12.753   5.658   0.530
52757W        W21151  19.115   7.452   4.161
52758W        W21152  21.410   4.504   3.171
52759W        W21153  34.412  24.028  11.934
52760W        W21154  19.948  24.657  14.263
52761W        W21155   8.286  33.065  14.160
52762W        W21156  40.129  30.139   4.667
52763W        W21157  12.661  17.580  13.682
52764W        W21158  44.325   9.121  12.945
52765W        W21159  23.840  44.416   9.900
52766W        W21160  41.088  27.959  12.721
52767W        W21161  13.197   1.999   1.707
52768W        W21162  44.305  40.201   2.757
52769W        W21163  12.290   3.328   3.736
52770W        W21164  15.359   1.384  12.029
52771W        W21165  15.483  28.461  13.403
52772W        W21166   1.095  36.020   3.666
52773W        W21167  32.455  30.302  13.115
52774W        W21168  44.611  19.014   0.424
52775W        W21169  18.107  21.766  14.013
52776W        W21170  17.382  19.998   4.638
52777W        W21171  27.373  11.388  13.970
52778W        W21172   0.092  25.990   2.351
52779W        W21173  33.356  27.561  12.865
52780W        W21174  39.557  17.252  14.013
52781W        W21175   1.614  16.177  11.503
52782W        W21176  22.500  18.631  14.344
52783W        W21177  29.978  35.078  13.432
52784W        W21178   4.447  32.982   4.349
52785W        W21179  19.780  24.912  11.663
52786W        W21180  44.768  17.328   1.000
52787W        W21181  19.368  34.402  14.487
52788W        W21182   0.472  30.894  11.910
52789W        W21183  11.584  29.573  12.111
52790W        W21184   4.374  25.381  11.273
52791W        W21185  28.124   4.474   4.672
52792W        W21186   4.797  10.551   0.285
52793W        W21187  39.436  32.329  11.002
52794W        W21188  43.323  31.490   4.392
52795W        W21189  32.513  27.180  11.708
52796W        W21190   3.366   7.302   3.158
52797W        W21191   6.769   9.783   4.619
52798W        W21192  27.072  38.531  11.443
52799W        W21193  20.463  35.439  14.783
52800W        W21194   6.715   6.703  12.472
52801W        W21195  16.311  36.073   0.938
52802W        W21196  37.919  13.793  13.127
52803W        W21197   8.699  44.992   0.371
52804W        W21198  41.909  21.219   3.570
52805W        W21199  33.557   0.197   0.705
52806W        W21200  34.071   5.927  10.882
52807W        W21201  38.087  25.643   2.404
52808W        W21202  13.482  25.682  11.894
52809W        W21203  17.486  33.826  13.754
52810W        W21204  33.168  10.381  11.564
52811W        W21205  26.323  42.400  14.109
52812W        W21206   9.619   8.893   4.221
52813W        W21207  16.889  41.599  12.865
52814W        W21208   7.701  25.940  14.799
52815W        W21209  21.484  42.934   4.738
52816W        W21210   1.285  40.450   0.758
52817W        W21211  41.924   0.485  14.325
52818W        W21212  28.910  37.406  12.705
52819W        W21213  37.444  15.821   5.006
52820W        W21214   3.246  42.934  14.301
52821W        W21215   1.011  12.421  13.500
52822W        W21216  35.044  19.810   4.137
52823W        W21217  19.653  27.741  12.013
52824W        W21218  39.844  30.918   3.597
52825W        W21219  12.073   1.205   2.960
52826W        W21220  10.170  34.299  13.659
52827W        W21221  26.283  43.051   9.741
52828W        W21222  31.211  34.110  11.652
52829W        W21223   4.249   6.376   1.523
52830W        W21224  16.044  38.745  12.219
52831W        W21225   1.266  27.980  13.545
52832W        W21226  10.648  35.919  14.884
52833W        W21227  35.705  13.148   3.326
52834W        W21228   0.687  17.132   0.928
52835W        W21229   6.708  24.034  13.580
52836W        W21230  42.385  29.959  12.135
52837W        W21231  22.654   0.336   1.786
52838W        W21232  27.841   6.777  11.551
52839W        W21233  15.882  21.613  11.975
52840W        W21234  30.093  18.061  14.581
52841W        W21235  26.584   5.374   2.718
52842W        W21236   6.501  17.729   4.336
52843W        W21237  41.619   6.678   2.970
52844W        W21238   5.416  37.111  10.753
52845W        W21239  14.230   5.747   0.414
52846W        W21240   7.071  16.008  14.008
52847W        W21241  27.986  10.909   4.860
52848W        W21242  11.031  30.888   0.364
52849W        W21243  27.509   2.290  14.879
52850W        W21244  31.720  17.577  11.093
52851W        W21245  35.602  12.289   1.436
52852W        W21246  33.370   5.414  14.422
52853W        W21247  14.296  34.100  14.821
52854W        W21248  29.185  19.966   4.990
52855W        W21249   7.612  15.380   1.503
52856W        W21250  27.362  19.906   4.697
52857W        W21251  23.131  16.466  11.871
52858W        W21252  13.802   8.182   4.127
52859W        W21253   8.941  31.138   2.660
52860W        W21254  25.932   6.683   4.613
52861W        W21255  29.573  12.794  13.889
52862W        W21256  44.005  26.436   2.926
52863W        W21257  40.275  21.508  14.331
52864W        W21258  41.389  29.434  13.433
52865W        W21259  23.548  38.631  12.013
52866W        W21260  27.367  10.106   1.337
52867W        W21261   0.021  25.490  13.316
52868W        W21262  34.530  28.568   3.141
52869W        W21263  19.314   4.745   0.466
52870W        W21264  12.804   4.784  12.087
52871W        W21265  33.867  41.516   3.707
52872W        W21266  23.761   5.665   2.847
52873W        W21267  10.597  27.022  13.450
52874W        W21268  23.333  16.395   0.329
52875W        W21269  13.648  15.802  10.400
52876W        W21270  11.662   5.697   2.306
52877W        W21271  16.983   9.421   5.065
52878W        W21272  17.995   4.371  14.359
52879W        W21273  18.560   9.555   4.371
52880W        W21274  13.360  13.352  11.089
52881W        W21275  17.338  29.995  13.853
52882W        W21276  11.045  35.060  14.862
52883W        W21277  10.878   5.391   1.854
52884W        W21278  13.567   7.171   2.816
52885W        W21279  12.469  34.142  11.488
52886W        W21280  43.945  44.731   4.736
52887W        W21281  32.659  31.126   0.339
52888W        W21282   8.863  43.716  14.072
52889W        W21283  25.752  18.148  10.782
52890W        W21284  21.820   7.898   1.314
52891W        W21285  21.816  15.598  13.455
52892W        W21286  27.019   7.065  13.111
52893W        W21287  16.260  32.146  14.377
52894W        W21288  31.337  42.923  12.156
52895W        W21289  41.315  34.097   0.203
52896W        W21290   6.306  29.903  13.838
52897W        W21291  25.944  22.559   3.301
52898W        W21292  20.670  31.542   3.648
52899W        W21293  20.750  36.794   3.906
52900W        W21294  31.180  18.246  11.951
52901W        W21295  23.094  17.047   3.231
52902W        W21296  11.776  23.773  10.802
52903W        W21297  38.986  29.246   9.943
52904W        W21298  18.743  21.675   0.896
52905W        W21299  18.389  16.360   3.235
52906W        W21300  16.015  30.823   4.995
52907W        W21301  32.962  23.901   1.171
52908W        W21302  13.161   8.366   1.402
52909W        W21303  21.891  39.455  12.848
52910W        W21304   4.850   4.248   3.606
52911W        W21305   0.597  18.252   4.731
52912W        W21306  40.541  23.218   0.466
52913W        W21307   3.973   2.064  12.704
52914W        W21308   6.372  16.113   4.011
52915W        W21309   2.257  34.481   2.249
52916W        W21310  38.139  34.692   0.888
52917W        W21311  28.395  23.779   0.183
52918W        W21312  10.101  42.229   1.341
52919W        W21313  35.477  22.423  10.748
52920W        W21314  21.106  12.192   2.875
52921W        W21315  24.509  37.446  13.550
52922W        W21316  38.083   5.723  10.382
52923W        W21317  11.817  40.014   4.162
52924W        W21318  37.591  15.798   4.063
52925W        W21319  39.061   7.332   2.379
52926W        W21320  40.725   8.779   2.764
52927W        W21321   9.336  35.271   4.746
52928W        W21322  34.580   3.427  11.987
52929W        W21323   1.286  11.112   4.010
52930W        W21324  28.005  23.930   3.724
52931W        W21325  34.165  38.699   4.223
52932W        W21326   0.304  28.074   3.531
52933W        W21327   8.426  16.906   1.007
52934W        W21328  31.724  21.231  14.355
52935W        W21329  41.771  17.109  14.534
52936W        W21330   2.488  27.617   4.694
52937W        W21331  28.133  17.604  12.075
52938W        W21332  19.886  39.949   4.807
52939W        W21333   3.472  17.129  11.977
52940W        W21334  23.669  40.030   0.490
52941W        W21335  16.841   6.975  11.200
52942W        W21336  32.985  40.529  13.005
52943W        W21337  37.010  33.292   2.374
52944W        W21338  23.161  40.566  12.501
52945W        W21339  18.144  23.589  14.853
52946W        W21340   4.469   8.863   2.613
52947W        W21341   3.830   2.484   4.331
52948W        W21342  35.359   8.430   3.148
52949W        W21343  18.151  22.495   0.510
52950W        W21344  43.528  39.853   4.129
52951W        W21345  29.796  15.254  14.695
52952W        W21346  38.321  32.984   2.965
52953W        W21347   3.806  43.210  11.068
52954W        W21348   8.203  11.317   3.882
52955W        W21349   1.564  26.857  13.933
52956W        W21350   0.698  39.719  14.053
52957W        W21351  22.795  41.868  10.484
52958W        W21352  11.042  35.131   4.057
52959W        W21353  26.202  38.003   1.877
52960W        W21354  39.514  26.653   0.482
52961W        W21355   6.257  23.007  14.938
52962W        W21356   4.208  10.285  11.922
52963W        W21357   2.897   2.661   2.771
52964W        W21358  28.438  26.653   1.829
52965W        W21359  26.448  40.529  13.004
52966W        W21360  10.371  14.577  14.376
52967W        W21361  18.186  21.923  10.963
52968W        W21362  31.124  31.370  14.530
52969W        W21363  32.007  43.905  14.906
52970W        W21364  39.026  28.659  14.540
52971W        W21365  20.678  42.814   0.845
52972W        W21366  17.663  29.174  14.780
52973W        W21367  15.790   1.132  13.316
52974W        W21368  42.053   0.692   2.331
52975W        W21369  20.350   8.480  12.048
52976W        W21370  15.687  13.417  12.118
52977W        W21371  14.257  31.587   4.103
52978W        W21372  10.178  37.867   1.186
52979W        W21373   5.665   1.721  11.108
52980W        W21374  21.424  11.154   4.179
52981W        W21375  11.885  27.436   0.974
52982W        W21376  38.834   9.301   3.524
52983W        W21377  25.693  33.006   3.513
52984W        W21378  30.325  40.415   1.203
52985W        W21379   8.699  19.679   2.407
52986W        W21380  31.195  28.433   3.395
52987W        W21381  39.997  40.538  14.870
52988W        W21382  11.637  35.970   4.248
52989W        W21383  16.689  13.678  12.524
52990W        W21384  18.805   8.090   1.864
52991W        W21385  36.854  32.093   3.247
52992W        W21386  38.769  12.337   3.540
52993W        W21387  30.845  37.213   3.823
52994W        W21388  21.219  33.839  12.871
52995W        W21389   0.963  41.465  12.824
52996W        W21390  13.020  22.025  12.981
52997W        W21391   7.203  10.389   1.570
52998W        W21392   8.431   5.816  10.706
52999W        W21393  16.391  16.783   1.337
53000W        W21394   0.354   4.828  10.558
53001W        W21395  27.141  20.522  12.914
53002W        W21396  11.157  34.774   2.301
53003W        W21397  14.532   7.434   0.630
53004W        W21398  26.708   3.371  14.474
53005W        W21399  26.445  13.677   3.141
53006W        W21400  21.623   6.670   0.746
53007W        W21401  34.662   9.787   3.162
53008W        W21402  22.061  42.804  14.349
53009W        W21403  36.188   7.380   3.325
53010W        W21404  17.778   6.854  12.663
53011W        W21405  43.383  15.265  10.700
53012W        W21406  35.137  16.611   2.810
53013W        W21407  32.672  30.130   3.237
53014W        W21408  29.178   0.257   2.332
53015W        W21409   8.228  42.383   3.458
53016W        W21410   1.308  43.354  12.733
53017W        W21411   6.992   6.226   2.223
53018W        W21412  44.581  24.328  11.084
53019W        W21413  35.562  31.729  11.927
53020W        W21414  34.338   6.346  11.495
53021W        W21415  32.993   5.173   0.346
53022W        W21416  28.663   7.236   3.104
53023W        W21417  13.137  13.856  15.000
53024W        W21418  25.626  18.556   0.963
53025W        W21419  22.028  33.900   3.783
53026W        W21420  24.914  35.444   3.696
53027W        W21421  17.786  41.503  14.389
53028W        W21422   6.349  31.508   2.487
53029W        W21423   9.258   5.197   1.299
53030W        W21424  24.763  22.188   1.311
53031W        W21425  25.191  33.778   2.340
53032W        W21426   8.604  34.006   1.370
53033W        W21427  10.936  32.570   1.662
53034W        W21428  40.492  37.152  12.035
53035W        W21429  33.801  12.441   2.508
53036W        W21430  27.518  27.450   2.357
53037W        W21431  31.888  17.326  11.497
53038W        W21432  37.105  30.976   2.710
53039W        W21433  42.240  30.081   2.297
53040W        W21434  15.815  37.365  13.955
53041W        W21435   0.441  34.007  11.686
53042W        W21436  27.404  37.432  12.969
53043W        W21437  40.471   4.450  11.925
53044W        W21438  37.010  25.899   4.447
53045W        W21439   2.717  30.849  11.627
53046W        W21440   1.885  28.672  12.878
53047W        W21441  25.304   9.389  13.390
53048W        W21442  41.244   6.355  12.539
53049W        W21443   8.067   4.270   3.220
53050W        W21444  40.316  19.769  13.925
53051W        W21445  13.126  32.192  11.656
53052W        W21446  11.304  37.416   1.873
53053W        W21447  33.882  27.071   0.299
53054W        W21448  43.344  17.232  13.311
53055W        W21449  16.012  23.469  12.981
53056W        W21450  15.778  30.089  12.323
53057W        W21451  21.353  25.407  14.525
53058W        W21452  24.461  26.558  11.186
53059W        W21453   3.967  26.419  13.866
53060W        W21454  40.598   2.122  13.937
53061W        W21455  12.754  13.740  11.659
53062W        W21456   2.931  37.336  14.838
53063W        W21457  19.174  25.918  14.222
53064W        W21458  17.672   9.872  11.318
53065W        W21459  24.975   8.659  10.119
53066W        W21460  18.234   8.753  12.529
53067W        W21461  18.019  10.312  11.421
53068W        W21462  38.106  22.132  12.148
53069W        W21463  23.506  22.587  14.013
53070W        W21464  25.742  36.977  13.544
53071W        W21465   0.086  14.334  13.224
53072W        W21466  39.338   2.947   0.666
53073W        W21467  23.146  23.778   0.478
53074W        W21468  26.671  20.354  12.158
53075W        W21469  39.388   1.877   1.246
53076W        W21470  31.613  42.010  12.223
53077W        W21471  28.178  21.877  12.592
53078W        W21472  15.186  36.907   2.784
53079W        W21473  28.750   2.561   1.794
53080W        W21474  10.234  22.730  13.146
53081W        W21475  39.119   6.806   4.099
53082W        W21476  15.116  39.297  14.307
53083W        W21477  20.562  19.559   3.835
53084W        W21478   8.150   0.947   2.756
53085W        W21479   2.336  13.064   1.687
53086W        W21480  13.855   0.932   1.209
53087W        W21481  22.530  10.902  13.511
53088W        W21482   7.835   4.573   3.621
53089W        W21483  43.892   3.892   0.021
53090W        W21484  21.902  20.491   0.552
53091W        W21485  14.184  22.723   0.727
53092W        W21486  11.141   2.243   3.371
53093W        W21487  19.305  21.315  14.895
53094W        W21488  22.670  14.310  14.099
53095W        W21489   1.558  27.962  12.532
53096W        W21490  39.452  34.940   0.297
53097W        W21491  11.363   5.944  11.837
53098W        W21492  44.347   4.759  13.062
53099W        W21493  35.383  34.982  11.429
53100W        W21494  30.263  41.837   0.337
53101W        W21495  15.834  29.357  11.937
53102W        W21496   7.354  44.903  11.590
53103W        W21497  30.408   3.342  14.730
53104W        W21498  16.317   6.025  11.485
53105W        W21499   7.622   0.762  14.252
53106W        W21500  42.313   1.275   0.502
53107W        W21501  38.377   3.976   4.247
53108W        W21502  29.093  42.267  13.614
53109W        W21503   3.148  39.659  13.628
53110W        W21504   7.982  32.230  11.013
53111W        W21505  12.344   0.000   2.417
53112W        W21506   6.872  18.931   1.933
53113W        W21507  28.428  31.320   3.801
53114W        W21508  44.569  35.294  14.746
53115W        W21509   9.694   8.688   2.998
53116W        W21510   9.631  21.737  13.440
53117W        W21511  41.876  12.386  12.431
53118W        W21512  19.443  10.267   3.409
53119W        W21513  27.968  39.384   1.890
53120W        W21514  10.152  44.039  12.082
53121W        W21515  16.534  24.567  14.912
53122W        W21516  43.051  37.380  11.690
53123W        W21517   8.264  38.100   2.649
53124W        W21518  25.106  15.565   1.771
53125W        W21519  18.595   0.855  13.172
53126W        W21520  10.096  43.690  11.693
53127W        W21521  32.191   0.894   0.350
53128W        W21522  14.052   3.619   3.366
53129W        W21523  22.728  19.435  10.297
53130W        W21524  14.305   2.806   3.209
53131W        W21525  12.871  23.890  14.399
53132W        W21526   4.932  31.941  11.296
53133W        W21527  25.657  44.802  11.149
53134W        W21528  11.948   1.705  10.025
53135W        W21529  33.534  37.025   0.279
53136W        W21530  43.018  35.981  13.950
53137W        W21531  29.488  15.688   1.664
53138W        W21532  29.033  29.682  14.904
53139W        W21533  13.166   8.649  10.727
53140W        W21534  20.125  35.835  14.014
53141W        W21535  42.355  13.723  12.491
53142W        W21536  26.502  33.192  14.098
53143W        W21537   1.312  33.371  12.090
53144W        W21538  27.027   9.153   4.108
53145W        W21539   7.778  25.661  14.371
53146W        W21540   1.901  36.291   3.921
53147W        W21541  15.741  30.912  14.301
53148W        W21542  21.520   8.177  14.569
53149W        W21543  15.722  37.464  14.970
53150W        W21544  31.882  28.415   2.899
53151W        W21545   6.333  26.265   3.611
53152W        W21546  40.169  25.090  10.708
53153W        W21547   1.875  44.159   2.273
53154W        W21548  19.222  40.937  14.831
53155W        W21549  22.841  40.800   0.950
53156W        W21550   1.203  35.083  14.956
53157W        W21551  38.057  16.799   3.149
53158W        W21552  23.547  44.765   0.888
53159W        W21553   8.142  40.493   0.875
53160W        W21554  25.937  36.398   4.155
53161W        W21555  42.367  20.748   3.118
53162W        W21556  14.407  24.226   4.593
53163W        W21557  30.657  16.974   0.860
53164W        W21558  23.708  40.836  14.997
53165W        W21559  33.686  16.375   0.492
53166W        W21560  40.233  18.326   2.303
53167W        W21561  19.612  26.883  10.735
53168W        W21562   8.461  34.538   1.771
53169W        W21563   6.540   4.454   1.490
53170W        W21564  36.026  41.070  14.799
53171W        W21565   1.758  38.929   2.762
53172W        W21566  18.865   8.719   3.927
53173W        W21567  40.237  34.630   4.571
53174W        W21568  20.588  39.603  12.940
53175W        W21569   6.367  23.776  12.180
53176W        W21570  15.540  35.002   4.940
53177W        W21571  40.338  33.467  13.534
53178W        W21572  22.110  44.390  10.321
53179W        W21573   7.683  20.342   2.268
53180W        W21574   6.189  16.653   2.643
53181W        W21575  11.746   6.449   2.777
53182W        W21576  39.984  27.583  10.546
53183W        W21577  14.707  30.176   4.559
53184W        W21578  24.138   7.959  11.152
53185W        W21579  31.359  19.694   4.514
53186W        W21580  28.075  18.729   2.837
53187W        W21581  19.702  30.733  11.973
53188W        W21582  32.200  19.126  11.254
53189W        W21583  29.871  44.164   1.229
53190W        W21584  34.448   5.872   0.276
53191W        W21585  29.377  41.600   0.441
53192W        W21586   4.716   8.468  11.554
53193W        W21587  30.917  11.230   1.774
53194W        W21588  32.245  14.738   1.748
53195W        W21589  29.601  35.433  13.612
53196W        W21590  25.471  26.540  14.977
53197W        W21591  18.192  18.137  11.540
53198W        W21592  18.680  13.240   4.182
53199W        W21593   4.457  43.343  13.797
53200W        W21594  37.945  21.444   1.838
53201W        W21595  40.302  10.857  11.234
53202W        W21596  22.438   1.500  11.419
53203W        W21597  11.954  28.028  13.480
53204W        W21598  43.223  19.832   2.806
53205W        W21599  25.736  10.583  14.586
53206W        W21600  35.624   6.825  13.386
53207W        W21601  19.197  22.978   0.313
53208W        W21602  42.086  12.331   1.850
53209W        W21603  25.734  11.776  12.442
53210W        W21604  21.343  29.310   2.599
53211W        W21605  44.693  36.623  14.436
53212W        W21606   5.660  42.044   0.439
53213W        W21607  44.295   5.407   1.719
53214W        W21608  43.372  11.884  12.225
53215W        W21609  43.859  33.025  13.243
53216W        W21610   9.649  17.392  14.434
53217W        W21611  17.660  23.241  11.161
53218W        W21612  24.718  10.581  14.770
53219W        W21613  28.409  19.236  14.723
53220W        W21614  38.441  42.297  11.569
53221W        W21615  32.604  11.784  12.015
53222W        W21616   3.965  29.118  12.123
53223W        W21617  31.609   0.386   2.790
53224W        W21618  17.614  20.277   5.398
53225W        W21619  17.078  36.671   2.093
53226W        W21620  14.689  36.099  12.533
53227W        W21621  18.002  43.840   0.393
53228W        W21622  15.196  13.241  12.012
53229W        W21623  37.746   5.426   4.105
53230W        W21624  18.140  25.174  12.510
53231W        W21625  31.443   2.937   1.961
53232W        W21626  21.452  20.169   1.712
53233W        W21627  35.748  20.708   2.187
53234W        W21628  14.597   1.310  12.452
53235W        W21629  15.222   6.417  14.784
53236W        W21630  10.290   5.659   3.712
53237W        W21631   4.322  16.157  10.506
53238W        W21632  11.373  28.040  11.488
53239W        W21633  35.921  19.175  13.070
53240W        W21634  20.654  10.404  11.757
53241W        W21635   6.787  21.552  11.616
53242W        W21636  27.651  27.529  10.351
53243W        W21637  41.540   6.883   3.859
53244W        W21638  16.655  14.724  13.290
53245W        W21639  34.077  11.494   3.399
53246W        W21640   3.624  42.571  14.340
53247W        W21641  29.654  21.209   0.417
53248W        W21642  15.997  36.394   3.170
53249W        W21643  36.422   9.386  14.442
53250W        W21644  17.166  22.150  14.515
53251W        W21645   2.522  33.661  12.907
53252W        W21646  37.264  44.061   0.776
53253W        W21647  37.531  42.326   2.302
53254W        W21648  41.937  12.348  14.736
53255W        W21649   9.778   5.935   1.334
53256W        W21650  15.659  22.025   3.217
53257W        W21651   5.622  37.543  12.757
53258W        W21652  43.620   4.057  11.867
53259W        W21653   3.187  37.590   3.660
53260W        W21654  27.303  15.732  12.824
53261W        W21655  26.341  11.870   3.187
53262W        W21656   2.710   4.696  13.283
53263W        W21657  44.080  11.326   1.665
53264W        W21658  12.272  31.355   2.844
53265W        W21659  10.348  21.406  11.490
53266W        W21660   7.481  37.261   1.231
53267W        W21661  10.666   4.312   2.767
53268W        W21662  37.323  34.062   1.395
53269W        W21663  11.878   9.824  12.946
53270W        W21664  32.065   1.785  11.688
53271W        W21665   1.757   7.609   1.916
53272W        W21666   3.178  28.572  14.987
53273W        W21667  13.644   5.681  10.311
53274W        W21668   8.386  21.508  12.481
53275W        W21669  33.080  21.194  14.993
53276W        W21670  41.344   4.868  13.746
53277W        W21671  30.726  43.973  13.165
53278W        W21672   3.773  43.443   3.781
53279W        W21673  35.987  31.681  13.356
53280W        W21674  25.027  39.485  11.853
53281W        W21675  38.171  37.468  13.328
53282W        W21676  22.170   2.442   0.741
53283W        W21677  11.919  19.261   2.233
53284W        W21678   4.152   6.430   3.281
53285W        W21679   1.553  40.393  13.785
53286W        W21680  29.360  20.756  12.259
53287W        W21681  20.165  38.544   4.990
53288W        W21682  14.655  30.937   3.742
53289W        W21683  21.843  21.265  14.962
53290W        W21684  12.394  31.939  14.806
53291W        W21685  38.766  17.113  14.496
53292W        W21686   4.411  42.580  11.228
53293W        W21687  17.073  23.716  13.782
53294W        W21688  15.840  15.881  11.910
53295W        W21689   3.229  10.996   3.919
53296W        W21690   8.133   8.692  11.631
53297W        W21691  29.636  13.647   0.318
53298W        W21692  38.251   8.351   4.613
53299W        W21693  26.850  35.294  12.975
53300W        W21694   2.105   3.615  12.376
53301W        W21695   1.809  29.653   1.742
53302W        W21696  30.943  17.619   3.611
53303W        W21697  18.365  11.815   5.363
53304W        W21698  41.060  23.988  12.142
53305W        W21699   8.222  17.021  13.283
53306W        W21700  20.255  28.190  12.361
53307W        W21701  36.404  24.333   2.431
53308W        W21702  11.581  35.390   0.361
53309W        W21703  29.112  36.708   1.720
53310W        W21704  32.700  15.134  11.134
53311W        W21705  21.234   8.176  13.905
53312W        W21706  39.975  41.407   2.384
53313W        W21707  22.791  25.296  11.192
53314W        W21708  14.061   4.889   0.047
53315W        W21709  21.040  30.610  13.894
53316W        W21710  39.292  32.098  10.190
53317W        W21711   1.238  31.665   4.862
53318W        W21712  28.509  44.805  13.008
53319W        W21713   4.165  16.810  11.418
53320W        W21714  28.723  40.670  11.609
53321W        W21715  14.361  34.911  14.495
53322W        W21716  12.665   8.827  10.699
53323W        W21717  32.586  30.652  14.323
53324W        W21718  14.323  19.306   4.518
53325W        W21719  38.996  20.676   3.236
53326W        W21720   0.531  12.279   3.096
53327W        W21721  40.059  24.729   3.300
53328W        W21722   1.275  29.952   4.630
53329W        W21723  26.559   1.405   5.235
53330W        W21724  32.636   4.171   2.704
53331W        W21725  33.140  27.722   4.220
53332W        W21726  11.470  32.998   2.458
53333W        W21727  42.703  27.463   2.530
53334W        W21728  27.903  26.026  14.165
53335W        W21729  36.496   7.744   3.556
53336W        W21730   8.950  33.439  13.527
53337W        W21731  16.295   0.726   4.686
53338W        W21732  41.343  28.659  14.374
53339W        W21733  33.905  22.577   4.598
53340W        W21734  14.800  27.463   1.601
53341W        W21735   1.370  24.870   5.056
53342W        W21736  31.380  26.454   0.905
53343W        W21737  11.875  12.585   0.305
53344W        W21738   9.243   2.303  11.907
53345W        W21739  14.530  30.647  12.148
53346W        W21740  22.175  44.166  14.497
53347W        W21741  40.298  21.084   1.908
53348W        W21742  27.183  20.263   1.831
53349W        W21743  29.991  43.862  14.383
53350W        W21744  21.651   3.439  12.429
53351W        W21745   3.432  11.107  11.627
53352W        W21746  33.047  27.626  10.665
53353W        W21747  16.873  40.357   4.132
53354W        W21748  17.541  34.331  12.490
53355W        W21749   9.300  40.899  12.595
53356W        W21750  40.247  35.022  10.140
53357W        W21751  11.195  39.890   3.107
53358W        W21752  37.546  43.514  10.620
53359W        W21753  17.121  32.710   0.169
53360W        W21754  42.273  22.027  13.525
53361W        W21755  39.086  22.508  14.452
53362W        W21756   4.438  22.112  11.036
53363W        W21757  22.503  27.027   1.693
53364W        W21758  14.842  27.438   2.959
53365W        W21759  16.875  30.018   2.675
53366W        W21760  10.248  36.821  13.421
53367W        W21761  22.504  22.388   3.749
53368W        W21762  12.652  33.534  13.331
53369W        W21763  15.757   3.655  12.997
53370W        W21764  36.401   9.318   2.220
53371W        W21765   2.043  30.148   4.096
53372W        W21766   9.152   1.435   2.345
53373W        W21767  33.890  19.842   3.282
53374W        W21768   1.433  13.893   9.850
53375W        W21769  15.152   4.284   3.160
53376W        W21770   0.357  31.123   1.314
53377W        W21771  43.307  33.317   3.466
53378W        W21772   2.004  25.350   4.550
53379W        W21773  38.237  22.035  13.375
53380W        W21774   4.688  43.257  12.344
53381W        W21775  12.046  25.857  11.076
53382W        W21776  31.641  44.572  11.573
53383W        W21777  39.506  30.393  10.692
53384W        W21778  24.708  20.036   3.730
53385W        W21779  27.499  24.638   3.248
53386W        W21780  30.724  27.029   3.267
53387W        W21781  39.948  31.953  14.251
53388W        W21782  10.524  28.732   1.163
53389W        W21783  26.608   6.423  14.372
53390W        W21784  33.011   4.272   3.710
53391W        W21785   5.785  14.381   3.797
53392W        W21786   8.968  36.595  12.480
53393W        W21787  38.975  18.118  13.542
53394W        W21788  44.121  12.151   3.169
53395W        W21789   8.020  15.406   1.164
53396W        W21790  44.950  44.957  14.645
53397W        W21791  31.076  35.344  12.098
53398W        W21792  26.445  44.381  12.201
53399W        W21793   2.505   1.181  10.750
53400W        W21794  13.188  25.416  12.242
53401W        W21795   5.003  31.235   1.359
53402W        W21796  30.098  13.799  11.635
53403W        W21797  17.804  25.581  14.515
53404W        W21798  13.907   9.381  11.180
53405W        W21799   2.420  23.042   4.559
53406W        W21800  11.139  35.131  13.562
53407W        W21801  36.888  41.076   4.778
53408W        W21802  37.810  22.343  14.975
53409W        W21803  16.810  36.125  10.037
53410W        W21804  25.169  26.693  14.540
53411W        W21805   9.062  44.197   4.160
53412W        W21806   9.282  17.095   3.140
53413W        W21807  15.599  20.459   4.124
53414W        W21808   2.848   4.752   4.255
53415W        W21809   6.840  14.383  13.536
53416W        W21810   9.864   9.297   2.273
53417W        W21811   0.742   1.936   3.271
53418W        W21812  24.157  33.451   0.324
53419W        W21813  10.254  38.611  10.922
53420W        W21814  32.900  26.088   3.346
53421W        W21815   9.764  17.101  11.066
53422W        W21816  18.764   1.407   2.217
53423W        W21817  36.642  21.578  11.969
53424W        W21818  20.655  24.467  11.356
53425W        W21819  28.405  39.923   3.866
53426W        W21820  32.650   7.179  14.245
53427W        W21821  19.003  34.488   4.646
53428W        W21822  21.240  43.605  13.874
53429W        W21823   5.708  30.438  14.720
53430W        W21824  38.744  44.147   2.578
53431W        W21825  31.837  18.573  13.055
53432W        W21826  25.052   8.726  14.910
53433W        W21827  23.455  13.762  11.659
53434W        W21828  15.626   1.235   1.427
53435W        W21829  10.053  19.087   2.151
53436W        W21830  26.488  29.599  12.574
53437W        W21831   3.016  36.663  13.053
53438W        W21832  20.815   3.651  12.933
53439W        W21833  37.921  12.913  10.465
53440W        W21834  28.053  42.488   0.729
53441W        W21835  25.129  20.056   2.268
53442W        W21836   9.716  14.259   4.765
53443W        W21837  10.392  27.523   4.180
53444W        W21838  17.195   8.652   0.778
53445W        W21839  17.274  33.717  13.294
53446W        W21840  14.231  33.387  11.191
53447W        W21841  23.105  23.969   0.000
53448W        W21842  32.862   1.046  10.443
53449W        W21843  39.985  19.745   2.393
53450W        W21844  25.946  32.826  12.689
53451W        W21845   1.762   1.170  14.597
53452W        W21846  13.318  12.155   0.240
53453W        W21847  21.528  39.965  14.222
53454W        W21848  28.556   5.671   3.109
53455W        W21849  26.628   6.396   4.650
53456W        W21850  38.052  21.640   2.323
53457W        W21851  10.795  40.357   0.750
53458W        W21852   5.351   8.770  12.764
53459W        W21853  41.904   4.380   4.565
53460W        W21854  15.164   3.515  14.358
53461W        W21855   1.778  11.621  12.866
53462W        W21856   4.062  16.894   1.848
53463W        W21857  13.768  28.864   1.920
53464W        W21858  34.562  36.373  14.382
53465W        W21859  21.463  43.488   5.040
53466W        W21860  36.949  32.224   1.299
53467W        W21861   5.210  26.296   3.677
53468W        W21862  21.691   6.734   2.842
53469W        W21863  27.644  12.230   4.617
53470W        W21864  36.416   1.545  12.898
53471W        W21865  12.768  40.265  14.651
53472W        W21866   7.966   8.226  11.064
53473W        W21867   8.323  20.790   2.725
53474W        W21868  20.258  37.907   3.701
53475W        W21869  37.294  18.584   2.170
53476W        W21870  13.240  41.936   2.316
53477W        W21871  24.408  28.313   2.878
53478W        W21872  27.013  44.264   0.768
53479W        W21873  39.738  41.449   4.377
53480W        W21874  15.921  37.503   4.614
53481W        W21875  24.984  15.352  13.837
53482W        W21876  18.795  10.059  11.630
53483W        W21877  12.761   6.225  13.998
53484W        W21878  17.733  19.511   3.714
53485W        W21879  36.340  42.515  14.960
53486W        W21880  17.230  40.627   2.803
53487W        W21881  13.183  27.269  11.085
53488W        W21882  36.417  33.929  14.274
53489W        W21883  14.535  20.128  14.397
53490W        W21884  32.045  44.850  11.354
53491W        W21885  41.844  25.936   0.964
53492W        W21886  42.008  28.097  10.683
53493W        W21887   8.128  34.300  12.463
53494W        W21888  27.433  26.721  14.475
53495W        W21889  28.736  31.433  12.408
53496W        W21890  33.357  16.252   0.937
53497W        W21891   8.403  26.178  12.123
53498W        W21892   6.274  27.240   3.697
53499W        W21893  23.717   2.404   0.777
53500W        W21894  18.584  14.724   3.689
53501W        W21895  27.903  12.277  12.592
53502W        W21896  41.399  26.063   0.313
53503W        W21897  42.717  19.831   2.588
53504W        W21898  39.819  16.548   4.172
53505W        W21899  36.157  15.097  11.788
53506W        W21900  24.330  28.760  12.949
53507W        W21901  21.234  32.591  13.799
53508W        W21902  35.996  10.257   9.660
53509W        W21903  13.402   5.879   1.031
53510W        W21904  34.736  12.651   1.372
53511W        W21905  20.139   7.887   3.811
53512W        W21906  44.483  30.733   4.550
53513W        W21907   2.803   1.253   3.406
53514W        W21908  14.336  12.087   4.222
53515W        W21909  26.962  30.730   4.896
53516W        W21910   8.970   1.886   9.817
53517W        W21911  25.746   9.044   0.644
53518W        W21912  44.970  10.265  13.356
53519W        W21913  33.495  26.646   3.122
53520W        W21914  26.319   9.105  11.621
53521W        W21915  37.826  43.001   1.398
53522W        W21916  14.567  22.494  12.852
53523W        W21917  22.036   8.831   4.310
53524W        W21918  14.869  27.619   0.699
53525W        W21919  29.775  23.056   3.298
53526W        W21920   7.223  27.109   9.816
53527W        W21921  32.488  42.500  10.564
53528W        W21922  36.185  10.467  12.066
53529W        W21923  10.030  10.613   4.218
53530W        W21924   6.803  28.254  14.780
53531W        W21925  41.688  31.807   3.363
53532W        W21926  30.520  18.261   3.779
53533W        W21927   2.899  27.160   3.694
53534W        W21928  41.844  43.059  12.464
53535W        W21929   3.505   2.898   0.787
53536W        W21930  11.476  40.888   3.389
53537W        W21931  28.174  34.429  10.297
53538W        W21932  18.728  31.142  12.115
53539W        W21933  15.775  13.378   4.034
53540W        W21934  26.091  35.192  13.318
53541W        W21935  42.762  29.550   0.177
53542W        W21936  20.088   3.612  14.848
53543W        W21937  40.213   1.781   1.804
53544W        W21938  43.320  44.407   0.825
53545W        W21939  16.806  10.635   1.704
53546W        W21940   2.643  35.503   1.794
53547W        W21941   4.912  31.291  14.401
53548W        W21942  25.648  26.365   4.238
53549W        W21943  27.542  27.576  13.926
53550W        W21944  37.405  32.443   1.483
53551W        W21945  38.565  23.720   0.428
53552W        W21946  17.924  22.699  14.435
53553W        W21947   5.409  27.537   0.522
53554W        W21948   4.810  31.383   3.228
53555W        W21949  22.108   7.347   3.684
53556W        W21950  14.071  18.875  13.076
53557W        W21951   6.839  37.520   4.426
53558W        W21952  30.572  19.177   4.752
53559W        W21953  16.246  36.461  11.277
53560W        W21954  30.621  25.542   1.768
53561W        W21955  16.264   5.334  13.735
53562W        W21956  14.251   8.158   1.971
53563W        W21957  15.609  19.388  11.100
53564W        W21958  25.491  44.437   3.893
53565W        W21959  37.331  44.157  12.636
53566W        W21960   7.086  30.184   4.971
53567W        W21961  13.755  22.701  13.955
53568W        W21962  20.675  13.719  13.290
53569W        W21963  16.099  39.373  14.399
53570W        W21964  41.616  33.653   1.866
53571W        W21965  36.055   3.771   0.474
53572W        W21966  44.717  11.095  11.613
53573W        W21967  41.277  40.461   1.339
53574W        W21968  24.552  14.882  13.339
53575W        W21969  17.779  10.695  14.485
53576W        W21970  42.527   7.157  10.670
53577W        W21971  25.419  15.296   2.446
53578W        W21972   8.464  28.345   2.079
53579W        W21973  29.944  30.536   3.547
53580W        W21974   8.342  31.627  13.866
53581W        W21975  41.955  16.849  13.046
53582W        W21976  35.036  24.695  13.044
53583W        W21977   6.819  39.421   2.214
53584W        W21978  21.620   8.454  14.141
53585W        W21979   6.307   2.472  13.004
53586W        W21980  21.433  39.585  13.000
53587W        W21981  26.719  37.245   0.066
53588W        W21982  38.389   0.869  13.181
53589W        W21983  20.840  20.595   1.294
53590W        W21984   2.106  27.024  14.822
53591W        W21985  15.604   0.907  11.943
53592W        W21986  10.702  34.966  13.334
53593W        W21987   2.112  13.169   0.431
53594W        W21988   0.414  20.732  13.079
53595W        W21989   5.035  35.139   2.791
53596W        W21990  14.172  15.738   3.618
53597W        W21991  29.939  35.985   3.330
53598W        W21992  36.171  24.591   3.769
53599W        W21993   0.257  25.927  13.475
53600W        W21994  29.401  26.119   2.876
53601W        W21995  26.529  37.368   2.665
53602W        W21996  17.631   1.940   4.309
53603W        W21997  23.334  21.687   4.405
53604W        W21998  20.472  14.624   3.072
53605W        W21999  21.317  23.194  12.138
53606W        W22000  42.926  39.081   2.718
53607W        W22001  41.772  26.708  13.928
53608W        W22002  18.212  39.940   1.930
53609W        W22003  44.288   2.550  12.527
53610W        W22004  23.871  26.114  12.463
53611W        W22005  20.132  40.084  10.268
53612W        W22006   5.942  14.614  14.274
53613W        W22007  44.617  21.566  12.481
53614W        W22008  15.850  37.912  14.739
53615W        W22009  34.538  18.688  10.449
53616W        W22010  16.640  27.960   1.002
53617W        W22011  11.334   9.723   0.245
53618W        W22012  18.052  18.321  11.086
53619W        W22013  21.206  15.244  14.469
53620W        W22014   9.645  30.343  11.069
53621W        W22015  17.125  13.788  11.560
53622W        W22016  11.178  13.731  11.565
53623W        W22017  13.084  20.983   1.749
53624W        W22018  44.537  12.856   2.012
53625W        W22019  10.042   4.771  14.433
53626W        W22020  11.723  35.639  14.470
53627W        W22021  26.071  10.960   0.789
53628W        W22022  30.412  19.251  12.216
53629W        W22023  41.453  21.508   1.245
53630W        W22024  44.541  41.238   3.492
53631W        W22025  40.132  28.059   3.930
53632W        W22026  19.697  43.539  14.893
53633W        W22027  19.185  23.023  14.292
53634W        W22028  24.106  26.638   2.308
53635W        W22029  26.536  14.878  10.525
53636W        W22030  15.134  11.536  11.139
53637W        W22031  13.154  36.492  12.095
53638W        W22032  14.151  25.471   0.764
53639W        W22033  32.447  36.788   0.814
53640W        W22034  26.419  18.591  14.635
53641W        W22035   9.059  26.589   1.820
53642W        W22036   5.757  37.935  12.040
53643W        W22037  40.722  36.796   4.698
53644W        W22038  22.044  20.942   0.336
53645W        W22039  43.436  11.049  14.023
53646W        W22040  30.991  39.508   2.274
53647W        W22041  21.220   2.465   3.161
53648W        W22042  41.424   6.393  12.036
53649W        W22043  39.055  42.362   3.928
53650W        W22044   5.926  34.944  14.829
53651W        W22045   8.897  20.527  12.969
53652W        W22046  43.896  42.411  12.470
53653W        W22047  31.351   8.973  13.339
53654W        W22048  43.251  32.457  12.854
53655W        W22049   3.346  26.926   2.799
53656W        W22050  43.057  21.123   1.874
53657W        W22051  44.769  42.393   2.169
53658W        W22052  16.410  27.442   0.750
53659W        W22053  27.530  29.697   4.217
53660W        W22054   9.858   3.914   2.417
53661W        W22055  39.004  34.700   1.383
53662W        W22056  24.962  25.042   4.822
53663W        W22057  42.322  17.142  13.242
53664W        W22058  29.319  23.185   2.668
53665W        W22059  41.831  20.356   3.786
53666W        W22060  17.031  22.467   1.975
53667W        W22061   7.957  17.337  12.915
53668W        W22062   1.961  11.602  11.375
53669W        W22063  27.935  35.422   2.198
53670W        W22064   2.956  42.762   0.845
53671W        W22065  17.732  34.094  11.469
53672W        W22066  32.955  24.018   2.164
53673W        W22067   6.162  18.788   0.833
53674W        W22068  30.902  32.729   4.709
53675W        W22069  38.474  21.216  13.833
53676W        W22070   5.228  43.318   2.806
53677W        W22071   6.744   7.812  12.883
53678W        W22072   6.460  35.363   2.877
53679W        W22073   6.450  41.889  13.841
53680W        W22074  41.730   8.892   4.680
53681W        W22075   1.842   5.116   0.551
53682W        W22076   5.953   5.251  11.073
53683W        W22077  27.089  14.558   3.291
53684W        W22078  11.821  37.514   9.964
53685W        W22079  44.838  15.292  11.635
53686W        W22080  42.800  23.474  12.021
53687W        W22081  25.481  13.172  11.219
53688W        W22082  26.765  43.500  12.557
53689W        W22083   8.750   8.653   1.438
53690W        W22084  43.260  40.848  10.711
53691W        W22085  11.209  26.558  11.326
53692W        W22086  40.762  24.959  13.316
53693W        W22087  19.708  16.037   0.291
53694W        W22088  37.063  13.621  14.006
53695W        W22089  31.003  30.439   0.782
53696W        W22090  28.050   6.424   3.218
53697W        W22091  38.976   4.387   2.178
53698W        W22092   7.878   3.788  11.808
53699W        W22093   8.857  32.610  12.947
53700W        W22094  10.867  12.317  12.175
53701W        W22095  42.069   3.386   0.913
53702W        W22096  32.875  38.622  13.931
53703W        W22097  24.606  13.614   3.781
53704W        W22098  42.687  35.926  11.550
53705W        W22099  30.850  33.159   1.673
53706W        W22100  11.858  23.959   1.525
53707W        W22101   3.204  30.120  12.497
53708W        W22102  12.821  43.607   0.699
53709W        W22103  41.316  12.809   3.756
53710W        W22104   6.866  20.046   2.735
53711W        W22105  19.392  41.584   0.814
53712W        W22106  21.630  23.472   4.109
53713W        W22107  14.093   4.698  11.565
53714W        W22108  28.017   5.308  13.441
53715W        W22109  35.208  21.883   1.817
53716W        W22110   0.740  44.957  13.915
53717W        W22111  36.322  11.732  12.969
53718W        W22112  38.103  42.232   4.088
53719W        W22113  29.150  16.670   3.415
53720W        W22114  28.325  36.099  11.233
53721W        W22115   7.940  19.835   3.834
53722W        W22116  16.310  40.851  12.402
53723W        W22117  17.890   1.761  11.676
53724W        W22118  14.226  42.428   0.745
53725W        W22119  32.642   9.007   1.373
53726W        W22120  28.546  31.697  11.147
53727W        W22121  28.913  34.441  12.497
53728W        W22122  16.273  22.229   0.402
53729W        W22123  36.567  39.464  11.838
53730W        W22124  33.590  22.430  12.064
53731W        W22125   4.373  40.130   2.798
53732W        W22126  28.572  30.937  13.326
53733W        W22127   2.169  44.893   4.601
53734W        W22128  23.009  27.011  11.995
53735W        W22129  42.808  24.990   3.445
53736W        W22130  39.270  22.014   3.726
53737W        W22131  21.295  34.646  12.681
53738W        W22132  39.804  37.438  12.797
53739W        W22133  31.478  38.277  13.655
53740W        W22134  34.316  11.589  12.131
53741W        W22135  36.492  42.114   3.350
53742W        W22136  15.405   2.655  14.034
53743W        W22137   6.807  21.034   4.647
53744W        W22138  36.046   8.003  13.213
53745W        W22139  36.885  26.207  14.246
53746W        W22140  39.613  10.168  13.976
53747W        W22141  26.362  23.314  11.066
53748W        W22142  22.450  24.285  13.876
53749W        W22143   0.837  11.726   4.486
53750W        W22144  40.554  42.710   4.639
53751W        W22145   7.003  34.577  11.379
53752W        W22146  17.799  13.760   1.745
53753W        W22147  13.589  17.930  12.550
53754W        W22148   5.664   4.683   0.383
53755W        W22149  33.432  41.861  11.204
53756W        W22150  22.043  12.294   3.304
53757W        W22151  10.350  15.126  12.700
53758W        W22152  30.977  40.889  11.605
53759W        W22153  12.749   3.442   4.972
53760W        W22154  28.707   5.199   0.367
53761W        W22155  43.991  22.667  11.471
53762W        W22156  41.022  40.417   1.791
53763W        W22157  11.768   6.538  14.496
53764W        W22158  44.895  13.535  10.996
53765W        W22159   2.860  27.373   4.172
53766W        W22160  25.927  35.595  12.048
53767W        W22161  40.234  12.758   2.777
53768W        W22162  17.354  11.393  11.413
53769W        W22163  39.539  23.792  11.034
53770W        W22164  28.731  16.751   1.031
53771W        W22165  10.238  28.561   3.824
53772W        W22166  21.231   4.822   2.689
53773W        W22167  13.695  34.681  12.407
53774W        W22168  31.463   2.367   0.800
53775W        W22169  27.116  12.877   0.254
53776W        W22170  36.464  29.453   3.869
53777W        W22171  20.141  29.218  10.596
53778W        W22172  40.905  26.865  11.048
53779W        W22173  39.969  21.259   1.525
53780W        W22174  24.156  44.544   1.928
53781W        W22175  40.192  15.594  14.895
53782W        W22176  20.222  24.205  11.501
53783W        W22177   3.864  40.457  11.792
53784W        W22178  30.996  13.445   3.875
53785W        W22179  16.882  11.644  13.255
53786W        W22180   4.480  44.820  12.356
53787W        W22181  28.552  21.643  11.186
53788W        W22182  40.553  16.749   0.223
53789W        W22183  15.876  16.599  11.079
53790W        W22184  28.531  21.657   3.730
53791W        W22185  31.664  38.432  14.101
53792W        W22186   5.645   4.903  13.524
53793W        W22187  40.609  16.374   2.618
53794W        W22188  30.581   6.388   2.235
53795W        W22189  33.760  43.752   2.825
53796W        W22190   6.751  36.107  14.340
53797W        W22191  28.017  17.576  11.149
53798W        W22192  25.950  21.230   3.674
53799W        W22193  23.680  14.681  13.238
53800W        W22194  43.810  11.579  14.354
53801W        W22195   3.292   5.209  14.966
53802W        W22196  27.645   5.359   4.487
53803W        W22197  13.896   6.477  14.749
53804W        W22198  39.571  43.606  14.287
53805W        W22199  35.032  34.099   2.444
53806W        W22200  42.540   7.920   3.570
53807W        W22201   5.190  43.433  11.188
53808W        W22202   3.573   5.961  12.390
53809W        W22203  44.182  31.315   3.818
53810W        W22204  39.973   6.196  10.620
53811W        W22205  13.349  32.789  11.220
53812W        W22206  24.022  38.615   3.638
53813W        W22207  20.268  33.516   1.383
53814W        W22208  21.432   2.668   4.113
53815W        W22209  15.510  16.262   3.567
53816W        W22210  41.853  19.980  13.944
53817W        W22211  28.593  35.585  14.576
53818W        W22212  19.146  17.160   1.717
53819W        W22213  42.106  11.598  10.633
53820W        W22214  35.088  42.443  12.338
53821W        W22215   2.412  40.836   3.637
53822W        W22216  25.728  11.510   2.426
53823W        W22217   3.262  44.275   3.660
53824W        W22218  10.895   5.755  11.724
53825W        W22219  23.354   5.247  12.353
53826W        W22220  27.385  19.367  10.461
53827W        W22221   5.237  29.548   1.841
53828W        W22222  32.940   4.620   0.277
53829W        W22223  32.507   5.955   4.150
53830W        W22224   8.366  23.992   4.394
53831W        W22225  39.108  27.229   3.591
53832W        W22226  36.614  21.101   4.732
53833W        W22227  23.585   5.541   3.788
53834W        W22228  36.220  12.188   3.263
53835W        W22229   4.881   0.982  12.320
53836W        W22230   9.448   0.326  14.459
53837W        W22231  24.960  35.445   2.710
53838W        W22232  40.853  36.365   0.687
53839W        W22233  22.262  14.045   4.587
53840W        W22234   7.102  14.663   3.187
53841W        W22235  42.133  42.830   3.958
53842W        W22236  44.398   8.902   2.268
53843W        W22237  35.406  13.948   2.254
53844W        W22238  35.698  26.701   1.289
53845W        W22239  10.590  25.106   2.726
53846W        W22240  18.537   1.453   4.187
53847W        W22241   4.013  26.900  14.746
53848W        W22242  25.052  24.256  12.624
53849W        W22243  16.281  31.574  11.943
53850W        W22244  24.478  24.161   4.463
53851W        W22245  31.058   8.633  13.618
53852W        W22246  43.826   5.773  11.349
53853W        W22247   3.979   4.201   3.085
53854W        W22248  14.322  14.336  11.532
53855W        W22249  14.714  22.858   1.828
53856W        W22250  40.247  23.269  10.486
53857W        W22251   6.406  23.732  14.457
53858W        W22252  32.029   6.642  12.510
53859W        W22253  11.872  41.236  11.163
53860W        W22254  23.035  24.102  10.502
53861W        W22255   0.673  21.830  11.514
53862W        W22256   8.963  34.273   1.692
53863W        W22257   0.201  30.560   4.098
53864W        W22258  19.103  18.566  11.360
53865W        W22259   1.353  10.763   2.909
53866W        W22260  13.396  41.444   2.356
53867W        W22261  27.661   7.793  13.812
53868W        W22262  42.484  32.686   2.789
53869W        W22263  30.435  11.121   2.626
53870W        W22264  37.174   0.332   2.733
53871W        W22265  22.775   2.760  14.520
53872W        W22266  11.933  35.369  14.077
53873W        W22267  29.514  33.933   3.448
53874W        W22268  23.012  17.216  14.064
53875W        W22269  36.291  28.467  11.598
53876W        W22270  32.914  20.976  13.895
53877W        W22271  43.763   2.600   2.218
53878W        W22272   6.976  14.445   1.964
53879W        W22273  18.112  18.674  12.407
53880W        W22274  11.635   3.616   5.377
53881W        W22275  28.655  14.779  14.410
53882W        W22276  20.644  31.020  12.067
53883W        W22277  18.141  21.164   2.744
53884W        W22278  39.172   2.373  12.436
53885W        W22279  33.891  22.680   3.275
53886W        W22280  37.331   6.449   2.366
53887W        W22281  26.941  10.753  11.829
53888W        W22282  27.839  19.745   2.848
53889W        W22283  29.497   8.306   1.838
53890W        W22284  26.432  21.786  12.860
53891W        W22285  18.833  23.913   0.795
53892W        W22286  36.644  30.872   0.516
53893W        W22287  39.975  13.855  11.638
53894W        W22288   0.537  42.340   3.184
53895W        W22289  10.068  21.460   1.221
53896W        W22290   6.905  19.957   1.109
53897W        W22291  19.065  33.106  11.263
53898W        W22292   1.435  20.668   3.486
53899W        W22293  30.102  21.497   1.802
53900W        W22294  32.143  23.201  11.419
53901W        W22295  38.192   3.708   5.043
53902W        W22296  39.328  41.270  13.950
53903W        W22297   9.267  41.208  13.100
53904W        W22298  35.426   1.310  12.877
53905W        W22299  27.250  27.996  12.547
53906W        W22300  19.065   9.872   1.788
53907W        W22301  16.052  36.962   2.918
53908W        W22302  22.148  44.896   2.216
53909W        W22303   0.924  34.428   1.773
53910W        W22304  10.419   6.800   2.219
53911W        W22305  30.107  13.635   0.941
53912W        W22306  21.762  39.065   2.593
53913W        W22307  35.043  36.029  12.469
53914W        W22308   5.738  28.395  12.475
53915W        W22309   3.337  29.625   0.839
53916W        W22310  39.671  43.010   1.401
53917W        W22311  23.002  23.679  13.658
53918W        W22312   6.379   2.834  11.928
53919W        W22313   8.705  27.470  10.104
53920W        W22314   6.024  43.776   1.905
53921W        W22315   9.763  41.474  13.897
53922W        W22316   7.878  21.117   1.483
53923W        W22317   2.521   8.333   3.389
53924W        W22318  10.570  33.428  12.092
53925W        W22319  38.114  27.055   3.734
53926W        W22320  35.920  18.138  13.099
53927W        W22321  26.442  36.074  11.206
53928W        W22322  34.591  26.501   1.700
53929W        W22323   9.787  26.458   4.672
53930W        W22324  13.475  33.794   0.333
53931W        W22325  25.475  18.296  11.184
53932W        W22326  44.870   2.808  12.096
53933W        W22327   8.887  23.957   2.743
53934W        W22328   9.343  28.418  11.896
53935W        W22329  32.460  38.282   0.890
53936W        W22330  31.349   4.320  13.834
53937W        W22331   7.185  18.142   3.769
53938W        W22332  21.290  31.504  10.539
53939W        W22333   8.625  35.894   4.930
53940W        W22334  41.658   9.377  13.535
53941W        W22335   2.892  43.881  13.819
53942W        W22336  13.408   7.285  12.814
53943W        W22337  10.720   4.510   4.459
53944W        W22338  28.154   4.005  11.602
53945W        W22339  37.673  37.993   3.774
53946W        W22340  37.685  37.864  11.214
53947W        W22341  15.313  25.767  11.572
53948W        W22342  11.624   5.808  13.296
53949W        W22343   5.426   3.902  14.231
53950W        W22344   4.292  25.556   9.464
53951W        W22345  28.118   7.284  13.303
53952W        W22346  14.086  36.280  13.539
53953W        W22347  42.947  28.319   4.333
53954W        W22348  23.512  14.260  11.207
53955W        W22349   4.416   5.480   1.068
53956W        W22350  16.594   8.076  14.772
53957W        W22351  27.117  21.020  12.782
53958W        W22352  42.455  29.949   3.826
53959W        W22353  16.868  13.449  14.886
53960W        W22354   0.250  30.165   0.245
53961W        W22355  16.717  11.630  11.490
53962W        W22356  12.719   2.795   1.281
53963W        W22357   1.900  17.076  14.458
53964W        W22358  24.229  10.223  10.126
53965W        W22359  20.472  42.695   3.716
53966W        W22360  43.247  32.001   3.244
53967W        W22361  28.670  28.168  14.011
53968W        W22362  32.978  18.136  11.720
53969W        W22363  37.122  39.758   3.564
53970W        W22364  22.090   6.257   1.156
53971W        W22365  28.528  12.205   4.529
53972W        W22366  26.978  26.350  11.234
53973W        W22367  40.599  38.466   2.823
53974W        W22368  36.040  36.842  13.069
53975W        W22369  10.799  41.839   2.414
53976W        W22370  39.965  36.071   0.246
53977W        W22371  18.209  28.409   2.178
53978W        W22372  41.024  26.658   4.881
53979W        W22373   6.246  12.198   1.128
53980W        W22374  43.990  44.951   2.270
53981W        W22375   1.635  15.782   1.918
53982W        W22376  44.972  33.085   4.391
53983W        W22377   2.337  15.138   0.462
53984W        W22378   5.507  39.069   3.074
53985W        W22379  32.918   9.710  11.051
53986W        W22380  17.918   0.547  11.842
53987W        W22381  20.096  40.342   1.680
53988W        W22382  44.802  18.034  11.535
53989W        W22383  27.047   3.750   1.139
53990W        W22384  12.698   2.465  11.081
53991W        W22385  25.724  18.009   3.221
53992W        W22386   5.036  21.791  11.961
53993W        W22387   6.347  41.314   0.421
53994W        W22388  42.575   5.269   4.672
53995W        W22389  31.574  28.555   1.926
53996W        W22390   9.603  31.873  12.100
53997W        W22391  16.760  15.299  11.552
53998W        W22392  19.030   4.324   0.275
53999W        W22393  33.343   0.779   3.779
54000W        W22394  15.369  18.470  11.916
54001W        W22395  20.148  18.744   4.068
54002W        W22396  27.922  12.693   2.833
54003W        W22397  22.447  17.942  13.818
54004W        W22398  25.280  17.089  11.517
54005W        W22399  38.863  30.968   2.642
54006W        W22400  35.421  23.593   1.236
54007W        W22401  26.940  21.318  11.581
54008W        W22402  24.637  40.434   0.737
54009W        W22403   2.756  29.714  11.152
54010W        W22404  12.311   7.632   1.171
54011W        W22405  22.735  33.987   4.093
54012W        W22406   0.220  29.956   4.566
54013W        W22407  14.618  27.793   0.263
54014W        W22408  11.177  34.439  12.864
54015W        W22409  11.610  25.093   2.704
54016W        W22410   6.747  19.547   2.710
54017W        W22411  11.902  32.961  12.515
54018W        W22412  21.978  34.875  14.254
54019W        W22413   8.852  28.684   1.236
54020W        W22414  31.163  23.520   1.325
54021W        W22415  38.049  18.546   0.659
54022W        W22416  24.594  11.758   3.591
54023W        W22417  36.647  28.135   2.579
54024W        W22418  36.420  42.831   3.757
54025W        W22419   4.748  25.760  14.210
54026W        W22420   9.922  33.617   2.791
54027W        W22421  10.885   6.955  11.186
54028W        W22422  14.304  10.636   1.812
54029W        W22423  34.256  41.851   3.748
54030W        W22424  40.181  39.011  11.538
54031W        W22425  42.249  42.944  12.077
54032W        W22426  44.434  23.580  14.290
54033W        W22427  17.073   4.770  14.030
54034W        W22428  26.143   4.529   4.697
54035W        W22429  28.979   1.630  14.085
54036W        W22430  25.443  43.904   1.625
54037W        W22431  33.879   0.845  10.722
54038W        W22432  26.949  16.750   0.378
54039W        W22433  41.157  35.946   0.694
54040W        W22434  24.957  31.973  12.574
54041W        W22435  43.083  43.434  11.994
54042W        W22436   6.666   0.077  10.480
54043W        W22437  33.366  13.548   2.669
54044W        W22438   8.818  19.276   3.705
54045W        W22439   0.520  12.768   2.418
54046W        W22440  43.173  41.878   3.111
54047W        W22441  35.010  41.715  12.880
54048W        W22442  30.434  12.428   3.172
54049W        W22443  16.400  16.654  12.467
54050W        W22444  20.099   9.270   1.485
54051W        W22445  25.035   5.964   2.348
54052W        W22446  18.567  40.778   4.127
54053W        W22447  12.702  24.271  10.456
54054W        W22448  20.228   8.474  11.202
54055W        W22449  10.839  41.172   5.058
54056W        W22450   9.713  21.750   4.649
54057W        W22451  28.078  32.000  12.824
54058W        W22452  24.570  13.488  12.111
54059W        W22453   7.966  31.758   2.378
54060W        W22454   9.417  35.863   0.662
54061W        W22455   7.245  15.353  14.943
54062W        W22456  32.957  12.308  14.804
54063W        W22457  26.915  25.954  10.919
54064W        W22458  44.216  28.051   5.034
54065W        W22459  23.432  44.274  12.034
54066W        W22460   3.935  33.123  13.031
54067W        W22461  41.279  21.850  12.211
54068W        W22462  13.691  39.388  10.930
54069W        W22463  18.310  17.755   4.558
54070W        W22464  42.930  33.002  13.340
54071W        W22465  36.518  10.194   5.034
54072W        W22466  39.534  30.931   4.435
54073W        W22467  26.392  43.233  10.219
54074W        W22468  18.317   6.918  14.454
54075W        W22469  41.872  39.846  10.410
54076W        W22470  12.324  23.105  11.062
54077W        W22471  44.677  26.114   1.228
54078W        W22472  39.343  15.047  11.175
54079W        W22473  43.620  19.154   2.159
54080W        W22474  19.734  18.609   0.982
54081W        W22475  32.464  29.113  12.267
54082W        W22476  22.756  11.139   2.846
54083W        W22477  14.309  17.013  11.609
54084W        W22478  18.860  18.361  14.754
54085W        W22479  12.077   4.183   1.612
54086W        W22480  14.973  38.854  14.846
54087W        W22481   3.221  10.805   1.459
54088W        W22482  27.643   9.176   1.216
54089W        W22483  30.105  20.992   1.865
54090W        W22484  44.186  40.808  14.864
54091W        W22485  29.675  12.679   1.281
54092W        W22486  39.489   1.493   2.855
54093W        W22487  21.310  30.064  13.055
54094W        W22488  41.267  13.758   4.856
54095W        W22489  22.647  14.723  11.967
54096W        W22490   1.629  30.124  13.200
54097W        W22491  26.447  36.940  12.976
54098W        W22492   1.434  11.145  12.034
54099W        W22493   9.875  22.592   0.345
54100W        W22494  27.635  39.056   2.924
54101W        W22495   4.352  44.965   4.633
54102W        W22496  18.309  40.651  13.453
54103W        W22497  21.208  12.163   1.446
54104W        W22498  30.858   7.046   2.674
54105W        W22499  38.020  13.701   0.308
54106W        W22500  36.299  39.023   2.096
54107W        W22501   6.880  20.446   1.250
54108W        W22502  20.532  24.467  12.841
54109W        W22503   5.865   1.702  11.601
54110W        W22504   3.769  29.901  14.896
54111W        W22505  31.990  36.327   2.632
54112W        W22506   9.256   5.667  13.802
54113W        W22507  28.420  43.747   3.166
54114W        W22508  15.839  39.462  11.973
54115W        W22509  12.254  36.106   2.640
54116W        W22510  25.038  37.872   1.463
54117W        W22511   4.859  19.791  13.943
54118W        W22512  31.066  27.889  13.868
54119W        W22513  41.870  28.731   0.498
54120W        W22514  32.203  33.034   2.252
54121W        W22515  26.026   6.701  11.982
54122W        W22516   1.876  12.975   2.830
54123W        W22517  26.743  27.724   4.164
54124W        W22518  37.350  17.769  11.054
54125W        W22519  21.443  26.256  14.784
54126W        W22520   7.334  19.231   2.655
54127W        W22521  14.973  20.171   0.848
54128W        W22522  33.703  13.392   1.380
54129W        W22523  27.924  15.851   4.860
54130W        W22524  16.967  38.748   1.319
54131W        W22525  30.160   1.155   4.745
54132W        W22526  28.772   0.425  12.158
54133W        W22527   4.122   0.285  13.377
54134W        W22528  34.642  16.841   1.694
54135W        W22529  30.482   7.565  13.812
54136W        W22530  40.481  42.528  10.676
54137W        W22531  21.064   9.310  14.817
54138W        W22532  26.401   2.548   5.465
54139W        W22533   2.357   5.792   2.423
54140W        W22534  41.397  25.015   2.577
54141W        W22535   4.170  43.253   4.066
54142W        W22536   9.132  14.267  10.666
54143W        W22537  15.408   1.992  11.157
54144W        W22538  21.111   0.363  14.588
54145W        W22539   2.859  20.026  12.127
54146W        W22540  10.775  36.274   2.862
54147W        W22541   6.245  41.436   3.148
54148W        W22542  33.146  10.846  13.818
54149W        W22543  31.420   7.339  14.288
54150W        W22544  13.975  26.466  10.250
54151W        W22545  12.294  33.441   2.377
54152W        W22546  28.873  10.016  14.056
54153W        W22547   7.472   1.156  12.964
54154W        W22548   0.129  35.392   0.905
54155W        W22549  31.593  44.466   2.860
54156W        W22550  21.346  14.758   0.405
54157W        W22551  44.884  34.126   4.907
54158W        W22552  18.002   6.794  11.050
54159W        W22553   1.328   3.639   1.301
54160W        W22554  32.733   9.886  14.684
54161W        W22555  15.547  35.614  14.418
54162W        W22556  36.815  25.209  12.497
54163W        W22557  14.337  26.555  14.201
54164W        W22558  28.902   4.497  11.135
54165W        W22559  42.912  36.892  12.928
54166W        W22560  21.458  41.306  11.815
54167W        W22561  15.886  17.726  10.249
54168W        W22562  18.565  12.765   0.263
54169W        W22563   9.893   6.192  13.463
54170W        W22564   1.526  11.322   3.602
54171W        W22565  29.039  44.340  13.585
54172W        W22566  29.757  18.366  11.060
54173W        W22567  10.663   3.124   1.765
54174W        W22568  25.592  36.350   1.110
54175W        W22569  32.335   7.196  13.828
54176W        W22570   2.511   0.038  14.968
54177W        W22571   2.926  43.323   4.678
54178W        W22572  38.305   6.890  11.601
54179W        W22573  35.340  39.561  11.085
54180W        W22574  42.302  18.769   3.130
54181W        W22575  36.399  39.201   4.980
54182W        W22576  10.840  17.666  10.698
54183W        W22577  11.642   1.459  10.859
54184W        W22578  39.550  16.270   2.770
54185W        W22579  10.797  31.498  13.077
54186W        W22580   1.378  16.621   1.267
54187W        W22581  39.973  39.495  14.070
54188W        W22582   9.300  30.122   2.122
54189W        W22583  25.931  36.868  14.014
54190W        W22584  19.263  18.241  12.169
54191W        W22585  17.996   9.765   0.091
54192W        W22586   8.440  27.534  11.743
54193W        W22587  25.065  19.586   0.210
54194W        W22588  38.610  37.977  13.782
54195W        W22589  14.610  25.048   4.944
54196W        W22590  23.244  29.834  14.932
54197W        W22591  41.512   9.663   0.894
54198W        W22592   8.296  30.393  11.173
54199W        W22593  11.180  29.081   0.042
54200W        W22594   9.401   4.905   1.706
54201W        W22595   3.518  38.829  14.445
54202W        W22596   7.730  20.193  10.741
54203W        W22597  15.132  26.617   3.193
54204W        W22598  19.266  18.681   3.722
54205W        W22599  44.170   4.007  12.507
54206W        W22600   7.839  39.260   1.886
54207W        W22601  14.159  37.882   1.310
54208W        W22602   1.861  34.502  13.106
54209W        W22603  36.431  29.220  14.859
54210W        W22604  28.491  24.250  12.524
54211W        W22605  31.601  28.442  14.779
54212W        W22606  15.157  23.334  12.060
54213W        W22607  16.993  20.622   3.993
54214W        W22608  30.130   8.264   1.061
54215W        W22609  33.328  42.904  10.358
54216W        W22610   3.325  38.904   2.339
54217W        W22611  41.424  28.538  14.890
54218W        W22612  17.086  16.141  14.808
54219W        W22613   9.922   4.048  14.349
54220W        W22614  15.367   4.888   3.933
54221W        W22615  35.444  30.304   2.682
54222W        W22616  35.906   4.256  14.301
54223W        W22617  30.566  22.743   0.718
54224W        W22618   8.744  23.978   0.522
54225W        W22619  34.387  11.129  13.927
54226W        W22620   5.745  10.700  10.634
54227W        W22621  39.600  39.979  12.396
54228W        W22622  31.656  31.500   4.252
54229W        W22623  33.411  11.328   1.206
54230W        W22624   4.470  40.592   2.611
54231W        W22625  14.705   1.084   4.893
54232W        W22626  29.397   8.670  12.752
54233W        W22627  23.748  40.018   1.011
54234W        W22628  37.466  31.601  11.014
54235W        W22629   9.628   2.221  14.820
54236W        W22630  34.916  28.504  10.494
54237W        W22631  25.214  22.710   0.881
54238W        W22632  19.701  37.352   3.700
54239W        W22633  43.490  18.911   3.123
54240W        W22634  43.377  15.375  14.980
54241W        W22635  14.530  31.222   2.681
54242W        W22636  14.122   0.825  14.902
54243W        W22637  34.023  22.521  10.615
54244W        W22638   2.093  29.215  14.664
54245W        W22639  28.048  22.575  11.384
54246W        W22640  20.120   5.832   3.599
54247W        W22641  33.386   4.511   2.458
54248W        W22642  39.023  36.308   0.145
54249W        W22643  10.880   2.013  12.107
54250W        W22644  42.484  43.261   3.930
54251W        W22645  19.078  26.589  10.983
54252W        W22646  10.257  26.975   0.678
54253W        W22647  37.289  34.349   0.773
54254W        W22648   1.401   7.242  12.917
54255W        W22649  28.804  18.760  11.153
54256W        W22650  12.439  20.377  13.330
54257W        W22651  23.547  32.943  12.382
54258W        W22652  24.820  17.564  12.847
54259W        W22653  20.654  11.150   1.022
54260W        W22654  42.857  43.689   2.815
54261W        W22655  14.167  22.619  14.340
54262W        W22656  33.373   7.586   0.495
54263W        W22657  21.500  19.738  14.331
54264W        W22658  37.389  12.776   0.532
54265W        W22659  41.647  28.175  14.303
54266W        W22660  26.875  27.241   4.078
54267W        W22661  12.317  42.266   3.350
54268W        W22662  16.994  32.008   3.198
54269W        W22663  24.645  30.897  12.993
54270W        W22664  14.175  26.813  12.370
54271W        W22665  22.051  21.662  12.840
54272W        W22666  44.524  41.666   3.185
54273W        W22667   8.722  28.287  12.103
54274W        W22668  33.502  14.896  14.140
54275W        W22669   2.446  33.389  11.093
54276W        W22670  15.184  14.268  14.161
54277W        W22671  20.810  22.685   2.284
54278W        W22672  36.991  25.478  14.484
54279W        W22673  36.416  38.057   2.454
54280W        W22674   2.185   8.792   5.362
54281W        W22675  42.759  24.236  13.368
54282W        W22676  15.239  25.160   2.995
54283W        W22677   4.184  38.916  13.403
54284W        W22678   5.830  34.654   4.149
54285W        W22679  40.047   0.992  13.556
54286W        W22680  24.061  28.969  10.719
54287W        W22681   6.419  39.283  11.476
54288W        W22682  15.104  11.131  12.989
54289W        W22683  43.513  34.363  13.657
54290W        W22684  40.975  43.469   1.651
54291W        W22685   2.663  35.076  11.566
54292W        W22686  21.089  34.195   0.057
54293W        W22687  27.327  12.703   1.970
54294W        W22688   4.739  37.177  14.838
54295W        W22689   2.080  10.388   1.339
54296W        W22690  13.079   3.775   4.627
54297W        W22691  30.091  11.451   2.423
54298W        W22692  31.825  15.081  12.420
54299W        W22693  42.232   8.915  10.426
54300W        W22694  35.237  15.190   2.732
54301W        W22695  32.452   6.918  14.693
54302W        W22696  36.979   2.870  12.160
54303W        W22697   2.178  44.996  11.107
54304W        W22698  36.886  19.634  14.503
54305W        W22699  19.435   8.484  14.546
54306W        W22700   1.728  28.924  14.951
54307W        W22701  33.850  26.176  11.671
54308W        W22702  43.095  12.563   2.191
54309W        W22703   3.958  17.080  13.084
54310W        W22704  17.510  21.163  14.550
54311W        W22705  32.041  42.074   3.677
54312W        W22706   9.845  23.084   3.733
54313W        W22707  39.427  20.120   4.687
54314W        W22708  16.889  15.633  14.732
54315W        W22709   0.901  12.619  13.945
54316W        W22710   7.485   9.615   1.115
54317W        W22711  17.962  41.450   0.921
54318W        W22712  44.488  34.037   4.143
54319W        W22713  24.624  24.202   1.847
54320W        W22714   5.175  31.909   1.947
54321W        W22715   1.803  21.567  11.759
54322W        W22716  15.161  24.714  12.963
54323W        W22717  18.049  41.828   0.582
54324W        W22718  21.781  38.747  13.539
54325W        W22719   7.918   1.867   0.663
54326W        W22720  28.111  41.862  10.824
54327W        W22721   8.068  14.053  10.803
54328W        W22722  39.390  31.455   4.821
54329W        W22723  18.324   1.366  13.956
54330W        W22724  36.040   9.505  11.707
54331W        W22725  42.012  23.581   4.591
54332W        W22726  39.753  15.266   2.912
54333W        W22727  42.015  35.852  13.941
54334W        W22728  21.423  27.403  10.690
54335W        W22729  34.062  20.843   0.217
54336W        W22730  17.727   2.171  12.571
54337W        W22731  41.305  18.157   1.241
54338W        W22732  12.130  44.763   3.984
54339W        W22733  41.563  13.851  10.807
54340W        W22734  26.585  24.670   2.636
54341W        W22735  15.528  33.516  10.730
54342W        W22736  15.373  24.173  11.499
54343W        W22737   0.040  27.014  13.960
54344W        W22738  43.955  32.521  12.871
54345W        W22739  34.731  19.720   4.545
54346W        W22740  17.254  43.313   4.334
54347W        W22741   0.095  27.136   4.217
54348W        W22742  29.111  42.356  10.440
54349W        W22743   4.953  20.899  12.170
54350W        W22744  36.610   6.797  12.439
54351W        W22745  44.632  11.873  12.631
54352W        W22746  31.923  37.114   4.175
54353W        W22747   6.663  43.025   2.758
54354W        W22748   8.848  23.721  11.613
54355W        W22749  42.012  38.653  12.952
54356W        W22750  20.172  44.812  13.430
54357W        W22751  41.820  30.637  12.607
54358W        W22752   6.753  21.779   2.188
54359W        W22753  23.774  16.777  10.707
54360W        W22754   2.698   7.916  14.927
54361W        W22755  16.095   1.960  13.016
54362W        W22756  35.598  36.987   1.838
54363W        W22757  36.503  35.241   1.279
54364W        W22758  21.553   5.796  12.035
54365W        W22759   2.413   8.871  11.690
54366W        W22760  40.597  13.082  14.488
54367W        W22761  32.899   2.263   0.814
54368W        W22762   4.416  31.852  11.460
54369W        W22763  31.629  29.983  11.353
54370W        W22764  40.507  32.416   2.185
54371W        W22765  35.051  32.034  11.929
54372W        W22766  42.178  11.603   0.920
54373W        W22767  15.688  13.835   2.567
54374W        W22768  17.104  30.886  14.729
54375W        W22769  20.643  17.257   0.362
54376W        W22770   0.922  32.163   1.779
54377W        W22771  31.559   2.075   1.274
54378W        W22772  23.035   4.344   0.760
54379W        W22773  27.355  32.671  11.597
54380W        W22774  31.480  23.597  13.146
54381W        W22775  41.225  19.488   4.119
54382W        W22776  14.176   3.928  12.174
54383W        W22777   8.432   9.441   2.777
54384W        W22778  12.854   7.340   4.557
54385W        W22779  38.542  29.181  10.745
54386W        W22780  28.954  20.986   1.664
54387W        W22781  20.174   1.461   4.851
54388W        W22782  17.205  38.118   4.181
54389W        W22783   8.015  31.485   3.330
54390W        W22784  16.156  19.325   2.816
54391W        W22785  35.045  31.058   1.196
54392W        W22786  44.007  24.039   3.325
54393W        W22787   8.329   4.045  11.653
54394W        W22788  41.465   1.694  11.586
54395W        W22789  28.209  33.540   2.380
54396W        W22790  14.672  14.852   1.506
54397W        W22791  14.305  40.477  13.571
54398W        W22792  20.210   3.891   4.238
54399W        W22793  18.518  12.078  13.034
54400W        W22794   1.808  17.806   3.537
54401W        W22795  23.774  34.979  13.306
54402W        W22796   2.809  19.041   4.597
54403W        W22797  16.755  43.416   2.560
54404W        W22798   7.159   3.239  14.004
54405W        W22799  11.195  23.509  14.980
54406W        W22800  23.303  32.542  11.060
54407W        W22801  23.758  11.802  13.401
54408W        W22802   2.147  38.322  14.469
54409W        W22803  34.013  16.992  11.206
54410W        W22804  27.037  17.198   4.639
54411W        W22805  22.541  17.780   1.833
54412W        W22806  26.959  19.373  11.094
54413W        W22807  12.360  43.949  12.539
54414W        W22808   4.135  10.425  13.926
54415W        W22809  36.351   2.304   4.116
54416W        W22810  24.301   4.462   1.030
54417W        W22811  10.723  22.685  14.925
54418W        W22812  43.799  37.448   1.797
54419W        W22813  20.800  43.408  10.807
54420W        W22814   2.765  26.664   3.639
54421W        W22815  42.990  38.923  14.991
54422W        W22816  12.675  17.065   1.346
54423W        W22817  29.626  24.719  12.495
54424W        W22818  26.161   7.628   1.746
54425W        W22819  14.328  32.942   4.177
54426W        W22820  24.158  15.173  14.499
54427W        W22821  40.964   9.475   0.026
54428W        W22822   7.641   9.895   3.281
54429W        W22823  22.666  21.355   1.930
54430W        W22824   0.310   5.691  11.522
54431W        W22825  29.605  18.526   1.421
54432W        W22826   2.734  21.376   3.190
54433W        W22827  37.376  10.623  13.358
54434W        W22828  10.047  43.471   2.929
54435W        W22829  17.054  39.617   4.155
54436W        W22830  32.936  35.876  13.959
54437W        W22831   4.832  12.215   4.214
54438W        W22832  41.267  15.854  14.284
54439W        W22833   9.347  29.590   0.852
54440W        W22834  11.361  15.076  12.416
54441W        W22835  18.611  24.719   1.735
54442W        W22836   2.178  21.068  13.591
54443W        W22837  11.212  18.509   2.738
54444W        W22838   6.106  24.966  11.541
54445W        W22839  33.637   7.620  13.712
54446W        W22840  10.180   2.908  14.916
54447W        W22841  11.037   8.702  11.625
54448W        W22842   7.784  39.621   3.193
54449W        W22843  36.353  17.240   2.622
54450W        W22844  26.298  18.137  14.364
54451W        W22845  28.757  39.198  12.446
54452W        W22846   1.554  38.285  11.117
54453W        W22847   4.252  42.427   4.138
54454W        W22848  12.567  15.099   0.912
54455W        W22849   7.992  22.239  11.982
54456W        W22850  44.825  23.366  11.155
54457W        W22851   3.492  29.789  14.423
54458W        W22852  25.953  12.282  14.808
54459W        W22853   1.509  34.596   2.807
54460W        W22854  40.753   2.003  10.487
54461W        W22855  41.416  18.553  11.188
54462W        W22856  40.110  32.530   1.855
54463W        W22857  26.003   9.301   2.324
54464W        W22858  39.536  18.069   3.347
54465W        W22859   0.316  18.048   4.224
54466W        W22860  40.780  26.389  13.609
54467W        W22861  26.550  30.965   3.655
54468W        W22862  13.443   1.401   2.323
54469W        W22863  14.744  42.126  14.081
54470W        W22864  37.429   4.334   4.545
54471W        W22865  31.855  36.480  13.657
54472W        W22866   6.232  15.950   4.560
54473W        W22867  23.329  28.025   3.298
54474W        W22868  31.070  11.547  11.110
54475W        W22869  12.138  36.913  12.499
54476W        W22870   0.347  11.824  10.820
54477W        W22871  19.080  23.149   2.934
54478W        W22872   9.727  14.850   1.722
54479W        W22873  18.708  41.924   3.793
54480W        W22874  14.751  30.830  12.571
54481W        W22875  40.317  15.105  14.268
54482W        W22876   6.417  25.237   1.921
54483W        W22877  17.588  37.898  14.529
54484W        W22878   7.888  43.080  11.806
54485W        W22879  43.036  12.617  10.268
54486W        W22880  23.708  41.483   0.855
54487W        W22881   1.230  33.004   1.372
54488W        W22882  29.620  30.248   2.623
54489W        W22883  28.729   6.148  13.522
54490W        W22884  38.750  16.087  14.061
54491W        W22885  35.532  22.707   0.807
54492W        W22886  15.546  21.023  11.607
54493W        W22887  43.697   3.833  13.553
54494W        W22888   0.812  43.083   0.349
54495W        W22889  18.519  17.802  14.857
54496W        W22890  24.920  40.367   4.199
54497W        W22891  22.625  20.793   0.025
54498W        W22892  19.644  43.787   1.718
54499W        W22893  34.121  31.929   4.936
54500W        W22894  11.353  15.393  14.411
54501W        W22895   0.636  33.499   3.856
54502W        W22896  30.501  18.323   2.137
54503W        W22897  23.025  30.237   1.312
54504W        W22898  23.148  12.186  10.648
54505W        W22899   8.747  18.184   2.745
54506W        W22900   7.821  26.390  10.739
54507W        W22901  35.978   6.274   3.651
54508W        W22902  16.282   2.569  14.139
54509W        W22903  36.547  38.441   4.377
54510W        W22904  25.979  31.973  12.324
54511W        W22905  13.192   4.293   4.556
54512W        W22906  18.170  12.366   0.887
54513W        W22907  36.907  38.916   2.745
54514W        W22908  23.421  38.436   4.262
54515W        W22909  33.753  39.482  14.458
54516W        W22910  28.562   1.775   1.286
54517W        W22911  25.186   2.216  13.606
54518W        W22912   7.773  19.548   2.778
54519W        W22913  28.946  43.078  12.766
54520W        W22914  25.788  42.703   4.529
54521W        W22915  22.248  30.021  13.977
54522W        W22916  21.136  22.069   0.526
54523W        W22917  39.834  17.008  14.405
54524W        W22918  41.871   2.137  14.251
54525W        W22919  32.606  39.545   1.787
54526W        W22920  13.331  17.196   0.652
54527W        W22921  32.039  44.438  11.047
54528W        W22922  22.437  27.015  12.350
54529W        W22923  24.348   9.180   5.085
54530W        W22924  32.858  40.661   3.227
54531W        W22925   8.223  11.734  14.228
54532W        W22926  11.717   4.666  14.828
54533W        W22927  27.168  21.822   0.671
54534W        W22928  18.538  18.653   3.393
54535W        W22929   3.763  20.534   1.382
54536W        W22930  42.759  17.139   3.243
54537W        W22931   5.527  24.613   3.170
54538W        W22932  37.479   5.222  14.202
54539W        W22933  32.557  36.067   3.671
54540W        W22934   1.219  23.966  14.689
54541W        W22935   9.202  36.949   3.225
54542W        W22936  22.942   7.298   0.338
54543W        W22937  25.209  25.209  13.973
54544W        W22938  41.447  29.716   4.565
54545W        W22939  21.583  37.831  14.859
54546W        W22940  29.423  25.288  13.770
54547W        W22941  26.055  31.553   1.419
54548W        W22942  25.209  30.667  11.571
54549W        W22943  36.074  18.919  11.593
54550W        W22944  43.750   2.146  11.555
54551W        W22945   5.314   2.518   4.189
54552W        W22946  44.665  21.181  14.095
54553W        W22947  18.206  22.953  12.965
54554W        W22948  23.638  16.584  14.311
54555W        W22949  24.176  12.714   2.197
54556W        W22950  15.110  42.914  13.438
54557W        W22951  20.332  20.384   2.527
54558W        W22952  32.465  27.273   2.641
54559W        W22953  12.192  32.207  13.480
54560W        W22954  31.707  15.335  14.130
54561W        W22955  12.003  28.455  11.325
54562W        W22956  14.311  37.576  13.789
54563W        W22957  30.590  26.517  13.677
54564W        W22958  10.847  17.491   3.533
54565W        W22959   9.706  26.927  12.878
54566W        W22960  19.606  12.855  12.048
54567W        W22961   1.435  17.140   1.358
54568W        W22962  29.806   3.779   1.886
54569W        W22963  39.370  30.805   3.288
54570W        W22964  39.294  38.042  13.150
54571W        W22965   1.409  20.611   1.817
54572W        W22966  11.206  39.863   0.954
54573W        W22967  12.788  15.636  12.397
54574W        W22968   8.799  20.710  12.406
54575W        W22969  30.036   5.360  13.884
54576W        W22970  13.746  34.171  11.014
54577W        W22971  38.407  39.441  10.829
54578W        W22972  23.528  21.830  14.943
54579W        W22973  32.774  11.799   4.595
54580W        W22974  12.518   2.688   2.914
54581W        W22975  16.221  33.073  14.131
54582W        W22976  40.155  34.340  11.984
54583W        W22977  34.990  18.124  12.997
54584W        W22978  36.539   0.547   1.907
54585W        W22979  11.213  12.426  14.466
54586W        W22980  10.911  10.813  13.589
54587W        W22981  26.514  31.571  11.142
54588W        W22982  17.150   0.559   1.353
54589W        W22983   4.025  32.566   3.164
54590W        W22984  13.749  39.070   2.172
54591W        W22985  12.873  35.408   0.876
54592W        W22986  32.710  42.996  11.455
54593W        W22987  13.791   0.875  11.345
54594W        W22988  15.673  26.910   0.392
54595W        W22989   5.989  19.052   2.423
54596W        W22990   3.749  20.792   0.281
54597W        W22991  32.757  35.506  12.349
54598W        W22992  35.951   8.657   3.416
54599W        W22993  11.458   8.077  13.150
54600W        W22994   4.262  37.829   2.854
54601W        W22995  30.690  40.981   1.402
54602W        W22996  15.318  34.888  10.424
54603W        W22997  21.160  35.697   4.450
54604W        W22998   3.692  24.144   1.255
54605W        W22999  16.131  14.717  11.410
54606W        W23000  13.400  41.123  11.014
54607W        W23001  11.738   7.464   2.965
54608W        W23002  40.261   6.294  11.050
54609W        W23003   2.023   3.885  13.131
54610W        W23004  19.469  29.743   2.278
54611W        W23005  40.872   5.230  13.439
54612W        W23006   9.220  22.076  13.303
54613W        W23007  33.535  13.128  12.674
54614W        W23008  32.244  19.167  13.465
54615W        W23009  20.155  14.889   3.360
54616W        W23010  34.196  35.290  11.074
54617W        W23011   4.989  30.722   1.371
54618W        W23012  42.380  36.881   1.021
54619W        W23013   4.471   1.328   1.430
54620W        W23014  35.737  28.311  13.307
54621W        W23015  16.450  21.513   2.306
54622W        W23016  19.762   3.400   0.250
54623W        W23017  19.709  28.172   5.057
54624W        W23018  24.390  35.882  11.878
54625W        W23019  21.034  17.521  12.429
54626W        W23020  40.340  15.267   0.259
54627W        W23021  43.501  24.701   0.869
54628W        W23022   4.825  30.084  11.564
54629W        W23023  31.007  17.072   2.907
54630W        W23024  24.204  11.837  11.213
54631W        W23025  38.464  35.472   2.305
54632W        W23026  35.361  37.387   0.315
54633W        W23027  14.673   4.109  11.096
54634W        W23028   4.182  25.310   0.419
54635W        W23029   4.977   9.825   3.726
54636W        W23030  15.859   5.060   4.088
54637W        W23031  36.371  41.513   2.149
54638W        W23032   5.398  17.889   0.305
54639W        W23033  38.516  40.542   2.903
54640W        W23034  29.996  15.873  10.678
54641W        W23035  24.400  39.761   3.345
54642W        W23036  31.337  38.127   3.109
54643W        W23037  40.449  30.909  14.875
54644W        W23038  26.887  23.522   1.928
54645W        W23039  40.535   2.299   3.324
54646W        W23040   2.683   1.184  12.037
54647W        W23041   6.545  16.636   1.331
54648W        W23042   6.159   1.360  10.669
54649W        W23043  39.907  29.861  12.193
54650W        W23044   4.698  33.694   0.447
54651W        W23045  20.486  23.716   0.209
54652W        W23046  12.359  15.796   2.433
54653W        W23047  19.582  10.406  13.049
54654W        W23048  44.564   6.406   1.376
54655W        W23049  10.442  21.176  13.426
54656W        W23050  13.222  30.410   5.280
54657W        W23051  20.758  26.938   3.057
54658W        W23052  19.693  33.633  10.715
54659W        W23053  17.750  44.507   0.195
54660W        W23054  44.210  26.871   4.811
54661W        W23055   0.361  32.048   2.766
54662W        W23056  26.703  26.414  11.651
54663W        W23057  38.551   5.272   0.028
54664W        W23058  11.379  33.603  12.471
54665W        W23059  17.186   5.452  11.524
54666W        W23060  26.677  25.056  14.369
54667W        W23061  41.994  12.170  11.964
54668W        W23062  16.276  31.014   0.023
54669W        W23063  32.073   8.927   3.776
54670W        W23064  22.569  35.948   3.984
54671W        W23065  14.970  31.760  13.485
54672W        W23066  23.919  28.665  13.859
54673W        W23067  19.125  29.907   4.975
54674W        W23068  37.274  11.201  11.474
54675W        W23069   6.942  32.944  13.613
54676W        W23070  39.919   6.001   2.302
54677W        W23071  17.077  22.814   0.261
54678W        W23072  24.329  29.924   2.305
54679W        W23073  31.139   3.388  13.087
54680W        W23074   5.927  11.330  14.913
54681W        W23075  43.986  13.174  12.515
54682W        W23076  13.469  30.421   0.897
54683W        W23077  21.627  15.148   4.647
54684W        W23078  11.664  25.220   0.498
54685W        W23079   9.545  32.026   0.780
54686W        W23080  40.868   3.050  14.804
54687W        W23081  23.723  35.378  12.485
54688W        W23082  37.402  28.132  10.690
54689W        W23083  27.322  42.863   2.396
54690W        W23084  19.948  40.579  10.455
54691W        W23085  25.868  34.698   3.588
54692W        W23086  27.498  35.637   1.392
54693W        W23087   7.199   8.430  13.466
54694W        W23088  44.763  36.849  13.477
54695W        W23089  42.258  25.588   0.949
54696W        W23090  25.122  29.256  10.426
54697W        W23091  12.359  27.486  14.377
54698W        W23092   1.406  31.465   3.807
54699W        W23093   5.323   2.426  11.535
54700W        W23094  26.250  33.571  13.876
54701W        W23095  19.699   0.284   1.154
54702W        W23096  15.136  36.896   0.913
54703W        W23097  17.969  12.520  11.594
54704W        W23098  41.294  38.521   1.904
54705W        W23099  11.645  22.270  10.733
54706W        W23100   9.356  19.006  12.438
54707W        W23101  18.387  13.753  12.995
54708W        W23102   0.219   6.866   0.371
54709W        W23103  39.573  27.897   1.808
54710W        W23104   7.724  33.267  13.109
54711W        W23105  33.441  16.105   4.364
54712W        W23106  44.521  37.498  14.945
54713W        W23107  41.882   2.525   1.210
54714W        W23108  16.275   9.380   4.530
54715W        W23109  12.056  39.839  14.357
54716W        W23110  11.679  44.387   2.820
54717W        W23111   9.625  19.231  14.753
54718W        W23112   2.774  40.434   0.783
54719W        W23113  24.627  37.113  13.032
54720W        W23114  10.269  20.450   1.301
54721W        W23115   4.194  23.239   4.090
54722W        W23116   2.400   5.533  14.008
54723W        W23117  13.859  37.562  14.024
54724W        W23118  19.728  35.840  12.810
54725W        W23119   4.669  15.299  11.116
54726W        W23120  41.096  14.516  14.583
54727W        W23121  12.886   5.269  14.084
54728W        W23122  25.198   2.738   4.523
54729W        W23123  30.686  21.423   2.820
54730W        W23124  32.863   0.950   2.738
54731W        W23125  19.447  41.279  12.535
54732W        W23126  32.027  16.593  12.014
54733W        W23127   1.821  13.555  11.240
54734W        W23128  15.270   6.917   0.398
54735W        W23129  37.951  26.533  14.305
54736W        W23130  31.504  19.546   0.103
54737W        W23131  10.517  42.377  10.864
54738W        W23132  33.579   8.727  10.758
54739W        W23133  39.284  18.224  14.406
54740W        W23134  36.955  31.572  11.646
54741W        W23135  30.531   7.947   2.357
54742W        W23136  36.603  16.807   2.741
54743W        W23137  29.230  43.457   3.035
54744W        W23138  19.238  19.193   3.863
54745W        W23139  25.704   0.752  12.940
54746W        W23140  36.595  23.316  13.535
54747W        W23141   2.167  15.020   3.499
54748W        W23142  43.401   9.253   4.652
54749W        W23143  22.532  32.887  12.373
54750W        W23144  32.166  29.975  11.844
54751W        W23145  30.879  35.696  13.119
54752W        W23146  31.650  27.639   1.964
54753W        W23147  42.026   7.489  12.032
54754W        W23148  12.661  16.953   4.516
54755W        W23149  20.573   0.885   0.297
54756W        W23150  38.177  40.731   0.365
54757W        W23151  17.427  29.259   1.413
54758W        W23152  32.013  27.970   3.405
54759W        W23153  21.674  18.964   4.796
54760W        W23154  25.478  21.499  14.881
54761W        W23155  27.721  44.811  12.320
54762W        W23156  15.089  38.597   5.525
54763W        W23157   3.976  28.019   4.123
54764W        W23158  12.604   7.694  12.605
54765W        W23159  38.972  23.017  13.826
54766W        W23160  40.461  28.220  11.170
54767W        W23161  43.731  25.044   1.807
54768W        W23162  30.597  23.264   0.748
54769W        W23163  20.300  21.584   4.629
54770W        W23164  18.252  30.207   3.205
54771W        W23165  14.196  21.130  13.024
54772W        W23166  22.622   9.368   3.670
54773W        W23167  30.209   0.500   1.352
54774W        W23168  12.226  25.215   1.411
54775W        W23169   9.944  27.449   2.472
54776W        W23170  43.525  19.900   1.921
54777W        W23171  28.160   7.794  13.381
54778W        W23172  15.268  12.287  11.672
54779W        W23173  24.408  12.861  10.719
54780W        W23174  38.283  20.630   4.366
54781W        W23175   0.731   4.050   4.304
54782W        W23176  18.572  29.987  13.301
54783W        W23177  42.478  30.644  12.926
54784W        W23178  38.963  25.452   4.705
54785W        W23179   5.663  27.981   3.199
54786W        W23180  24.454  20.275   1.739
54787W        W23181  35.360  32.479  14.286
54788W        W23182  25.683  36.981   3.147
54789W        W23183  37.977  18.202  12.490
54790W        W23184   8.747   3.857   4.172
54791W        W23185   1.448   0.707  13.845
54792W        W23186  29.544  34.384  10.623
54793W        W23187  22.967  24.515   3.636
54794W        W23188  41.574  13.696   3.656
54795W        W23189  36.662  43.852  10.681
54796W        W23190   9.337   3.831   0.833
54797W        W23191  34.863  43.576   2.862
54798W        W23192   4.996   1.717   0.845
54799W        W23193   1.435  44.315   2.068
54800W        W23194  22.157  29.376  14.074
54801W        W23195  19.510  24.577   4.108
54802W        W23196   8.294  31.071  13.954
54803W        W23197  30.465   1.915   3.802
54804W        W23198  39.747  43.880  13.854
54805W        W23199  41.799  26.637   2.765
54806W        W23200  18.925  19.302  11.094
54807W        W23201  42.052  18.797  14.347
54808W        W23202  20.029  10.933   0.366
54809W        W23203  26.627  40.449  14.968
54810W        W23204   4.921  23.756   2.410
54811W        W23205  39.619  43.901  11.977
54812W        W23206  44.020   2.914  11.533
54813W        W23207  31.164  23.567   3.258
54814W        W23208  36.033  23.013   4.767
54815W        W23209  19.893   4.736  11.522
54816W        W23210  12.507  16.572   2.831
54817W        W23211  12.652   1.920  14.768
54818W        W23212  21.482  41.925  11.103
54819W        W23213  27.994  19.493  12.633
54820W        W23214  14.231  33.213   1.240
54821W        W23215  36.973   1.558   3.415
54822W        W23216  10.769  32.020  13.922
54823W        W23217   9.433   6.685   3.858
54824W        W23218  33.149  27.769  11.553
54825W        W23219  42.932   3.476   4.954
54826W        W23220   7.708  13.213  13.885
54827W        W23221  21.096  26.156   4.530
54828W        W23222  17.142  43.846   2.203
54829W        W23223  30.688  13.130  14.427
54830W        W23224  29.890   5.990  14.339
54831W        W23225  31.728  26.035   2.154
54832W        W23226  30.726   6.623   0.625
54833W        W23227  14.316  34.403   2.610
54834W        W23228  19.766  41.487  12.901
54835W        W23229   8.684  12.045  14.271
54836W        W23230   8.823  25.553   1.131
54837W        W23231  23.978   5.679  13.335
54838W        W23232   5.576   8.937  11.944
54839W        W23233   1.030  29.852   3.267
54840W        W23234   6.481  38.273   0.773
54841W        W23235  17.633  30.403  13.451
54842W        W23236  20.838   6.349   2.887
54843W        W23237  41.593  11.498  10.634
54844W        W23238   0.901   0.680  11.792
54845W        W23239   3.452  12.280   0.396
54846W        W23240  15.861  32.135   2.313
54847W        W23241   6.205  36.156  12.050
54848W        W23242  44.260  32.348   0.869
54849W        W23243  10.756   5.432   1.318
54850W        W23244  36.431  25.614   0.934
54851W        W23245  44.279   4.161  10.541
54852W        W23246  17.384  34.726  13.462
54853W        W23247   8.514  35.458   1.309
54854W        W23248  39.528  34.443   2.701
54855W        W23249  15.394   5.376  14.242
54856W        W23250  28.469  24.227   4.564
54857W        W23251  15.506  27.516  14.749
54858W        W23252   3.473  19.593   0.284
54859W        W23253  22.631  27.121   2.210
54860W        W23254  40.461  28.096   1.945
54861W        W23255  43.068  31.081   1.997
54862W        W23256  36.793  33.973  12.932
54863W        W23257  34.115  14.820  13.482
54864W        W23258  25.479  11.765  13.383
54865W        W23259  16.706   2.520  14.410
54866W        W23260  11.394   9.169  13.410
54867W        W23261   0.390  28.591   2.835
54868W        W23262  31.151  42.515   1.887
54869W        W23263   0.543  37.159  10.180
54870W        W23264  43.079  36.919   0.544
54871W        W23265  41.550  19.012   1.377
54872W        W23266  16.340  22.300  11.507
54873W        W23267  35.582  25.818   0.813
54874W        W23268  21.580   1.912   0.406
54875W        W23269  12.912  22.623   1.969
54876W        W23270   5.795   8.687  13.029
54877W        W23271  15.135  23.560  11.126
54878W        W23272   3.620  44.301   5.194
54879W        W23273   2.447   0.306   3.677
54880W        W23274  30.039  44.802  10.968
54881W        W23275  14.231  35.858  12.513
54882W        W23276  35.006   2.637  13.328
54883W        W23277  26.219  31.576  11.596
54884W        W23278  33.768  39.517  12.542
54885W        W23279  27.968  21.208   5.328
54886W        W23280  38.429  27.111   4.756
54887W        W23281  28.985  30.688   3.211
54888W        W23282  26.833  16.184  12.083
54889W        W23283  34.076  27.100  10.951
54890W        W23284   5.225  43.340   1.822
54891W        W23285  15.937  20.986   0.759
54892W        W23286   6.843   6.235  13.367
54893W        W23287   4.190  44.057   3.601
54894W        W23288   7.928  31.184  14.995
54895W        W23289  21.040  26.209  13.002
54896W        W23290  14.175  19.020   1.682
54897W        W23291  15.047   3.844   3.433
54898W        W23292  29.330  25.718   1.484
54899W        W23293  20.768  25.868  13.472
54900W        W23294  23.456  18.835  11.666
54901W        W23295  28.368  14.685   3.547
54902W        W23296  39.902  13.396  11.938
54903W        W23297  34.299  41.596  14.713
54904W        W23298  36.474   4.159   3.144
54905W        W23299  22.207  36.361   1.381
54906W        W23300  13.125  31.883   3.215
54907W        W23301  24.021   7.234  13.554
54908W        W23302   6.702  12.618  13.747
54909W        W23303   5.022  26.414   2.817
54910W        W23304  21.338  40.884   4.969
54911W        W23305  30.448  41.394   2.095
54912W        W23306  44.955  21.147  11.703
54913W        W23307  30.893  38.845  10.738
54914W        W23308  41.466  40.977  10.932
54915W        W23309  26.466   4.331  13.425
54916W        W23310   3.819   5.460  13.732
54917W        W23311  35.170  35.881   4.510
54918W        W23312  40.862   7.160   1.194
54919W        W23313  31.367  24.719  11.493
54920W        W23314   5.964   1.694  14.108
54921W        W23315  23.367  21.122   3.460
54922W        W23316  43.377  21.002  14.905
54923W        W23317  13.174  43.278   0.544
54924W        W23318   8.223  37.300   3.244
54925W        W23319   2.744  10.676  11.901
54926W        W23320  22.776  39.413   0.821
54927W        W23321  30.440  38.295   2.217
54928W        W23322  44.034   3.737   0.802
54929W        W23323   1.893  12.139   3.710
54930W        W23324  24.876  26.974   3.551
54931W        W23325   4.215  35.302   1.682
54932W        W23326   6.388  33.992  11.897
54933W        W23327  36.853  30.928  10.400
54934W        W23328  26.153  39.407  11.004
54935W        W23329  43.304  22.390  12.739
54936W        W23330   8.799  32.197  12.154
54937W        W23331  37.759   0.709  14.914
54938W        W23332  14.768   0.264  13.028
54939W        W23333  25.609   0.326   2.316
54940W        W23334  41.274  25.498   4.141
54941W        W23335  23.120  13.487   1.094
54942W        W23336   6.954  22.635   4.252
54943W        W23337  26.461  26.442  14.719
54944W        W23338  16.145   8.339  13.513
54945W        W23339  10.455   4.961  12.845
54946W        W23340  14.203  29.526   0.463
54947W        W23341  23.250  10.916   2.753
54948W        W23342  12.044  39.009   1.801
54949W        W23343  40.990  36.838   0.550
54950W        W23344  30.821  41.528  11.225
54951W        W23345  43.447  32.830   1.361
54952W        W23346   5.407   8.331   4.267
54953W        W23347  19.139  41.716  12.520
54954W        W23348  32.998   8.689  12.523
54955W        W23349  11.627  43.525   3.126
54956W        W23350  19.687   4.760   5.044
54957W        W23351  38.830   7.509  14.408
54958W        W23352   6.534  43.207   9.800
54959W        W23353  27.622   2.912  10.407
54960W        W23354  16.731  15.526   4.751
54961W        W23355   6.687  40.997  14.508
54962W        W23356  43.021  24.563   3.116
54963W        W23357   9.496  14.669  10.723
54964W        W23358  12.653  11.869   4.639
54965W        W23359   9.612  30.491   3.762
54966W        W23360  28.817  41.993  11.664
54967W        W23361  44.702  40.411   0.876
54968W        W23362  14.135  32.168   0.395
54969W        W23363  23.325  29.363   0.089
54970W        W23364   7.494  39.738  12.362
54971W        W23365   1.787  37.352  14.717
54972W        W23366  30.069  42.953  14.792
54973W        W23367  18.350   2.465   1.430
54974W        W23368   2.426   2.078   3.264
54975W        W23369  10.374   1.308   1.425
54976W        W23370  10.441  38.036   0.738
54977W        W23371   0.005  18.181  12.025
54978W        W23372  27.651  41.358   2.558
54979W        W23373  25.661  38.802  11.549
54980W        W23374  44.888   5.859   2.185
54981W        W23375   6.651  18.019   2.961
54982W        W23376  23.894  13.605   2.115
54983W        W23377  28.693  32.209   5.150
54984W        W23378   0.316  24.665  14.634
54985W        W23379  35.683  24.482   3.686
54986W        W23380   5.181  43.990  12.979
54987W        W23381  35.499  35.537  10.719
54988W        W23382  15.245  23.266   4.403
54989W        W23383  32.541   8.433  12.540
54990W        W23384  34.347  10.642   4.405
54991W        W23385   3.727  29.059   3.449
54992W        W23386  31.708  26.989  14.358
54993W        W23387  31.023  35.032  12.508
54994W        W23388  35.680  35.914  14.484
54995W        W23389   1.998   7.103  12.162
54996W        W23390  26.189  22.975  11.437
54997W        W23391  31.616  39.496   4.105
54998W        W23392  10.129   7.866  13.845
54999W        W23393  14.042  43.202   0.298
55000W        W23394  11.297  35.444  11.286
55001W        W23395   1.244  27.874  11.910
55002W        W23396   4.702  25.209  14.283
55003W        W23397  26.060  42.918   1.233
55004W        W23398   4.545  26.325   1.851
55005W        W23399  12.989   9.964   4.700
55006W        W23400  35.053   5.973   4.104
55007W        W23401  32.443  39.469   0.296
55008W        W23402  44.527  39.909  14.840
55009W        W23403  40.824  11.306  14.364
55010W        W23404   5.595  43.997   3.770
55011W        W23405  20.558  19.476  14.021
55012W        W23406  43.362  37.446   3.965
55013W        W23407   8.650  23.229   0.856
55014W        W23408  16.280  22.024  14.008
55015W        W23409  31.985  17.622  12.850
55016W        W23410  30.360  11.761   5.012
55017W        W23411  23.565  24.362   2.255
55018W        W23412  13.549  29.158   4.630
55019W        W23413  43.002  40.304   1.297
55020W        W23414  42.319  22.064  12.426
55021W        W23415   5.920  28.164   2.750
55022W        W23416   4.407  25.371  12.576
55023W        W23417   2.678  11.711   3.198
55024W        W23418  13.560  38.608  12.547
55025W        W23419  41.623   8.171  12.537
55026W        W23420  20.024  21.995  11.200
55027W        W23421  20.767  39.617  13.531
55028W        W23422  24.678   9.740   2.196
55029W        W23423  26.012  44.438  11.924
55030W        W23424  32.183  13.752  13.775
55031W        W23425  14.654  35.297  14.728
55032W        W23426  16.780   0.061   2.161
55033W        W23427  41.516   5.790   2.189
55034W        W23428  25.196  42.846   2.418
55035W        W23429  25.055  39.233   0.973
55036W        W23430   6.779  22.013   4.637
55037W        W23431   7.738  17.277  12.423
55038W        W23432  15.245  34.901  12.845
55039W        W23433   2.358  39.491   4.756
55040W        W23434   5.515  14.616  13.930
55041W        W23435  15.836  44.845  14.422
55042W        W23436   2.395  22.720  13.966
55043W        W23437  13.766  31.896   1.505
55044W        W23438  44.800  27.542   0.835
55045W        W23439   2.350  28.458  12.667
55046W        W23440  26.785  26.564  12.461
55047W        W23441   8.501  28.452  14.504
55048W        W23442  38.489  40.714  10.996
55049W        W23443  36.681  26.655   0.933
55050W        W23444  18.649  19.253  14.995
55051W        W23445  19.097  28.890   2.263
55052W        W23446   4.796   1.300   0.596
55053W        W23447  40.071  37.038   4.159
55054W        W23448  43.777  44.865   2.752
55055W        W23449  25.703   5.939   1.228
55056W        W23450  38.551  25.071   2.770
55057W        W23451  14.101   3.664  10.730
55058W        W23452  41.781  29.361   3.349
55059W        W23453  39.506  40.778  13.043
55060W        W23454   5.671  29.100   1.300
55061W        W23455  37.049  18.595  11.555
55062W        W23456  33.139  10.767  12.888
55063W        W23457  13.036  35.005   4.303
55064W        W23458   9.254  14.317  12.148
55065W        W23459  30.657   5.191   2.712
55066W        W23460  31.713  30.655  12.928
55067W        W23461  32.847  22.322  13.457
55068W        W23462  22.432  23.975   1.233
55069W        W23463  27.973  42.348  12.435
55070W        W23464   3.644  23.783   4.541
55071W        W23465  32.139  26.720  14.236
55072W        W23466   4.198   9.448  11.768
55073W        W23467  16.860   9.875  11.868
55074W        W23468  28.464  24.112  13.411
55075W        W23469  44.985  20.613  10.393
55076W        W23470  42.812  21.252   4.283
55077W        W23471  17.601  16.081  12.988
55078W        W23472  44.279  44.785   4.120
55079W        W23473  23.473  33.132   2.859
55080W        W23474   9.309  29.394  11.240
55081W        W23475  20.519  26.545   3.928
55082W        W23476  44.883   2.777   4.279
55083W        W23477  30.318  28.076   1.307
55084W        W23478   4.316  31.366  12.095
55085W        W23479  34.537  10.064   1.356
55086W        W23480  31.736  33.637  13.673
55087W        W23481  28.415  31.858   2.436
55088W        W23482   2.346  17.191   3.676
55089W        W23483   0.968  42.364   2.881
55090W        W23484  22.000  44.384  13.725
55091W        W23485  12.354   8.628  13.429
55092W        W23486  20.799   5.886  13.350
55093W        W23487  33.100  41.602  12.084
55094W        W23488  35.994  29.601   3.564
55095W        W23489  24.632  18.591  11.056
55096W        W23490  38.423   0.582   1.745
55097W        W23491  18.134   3.851   0.139
55098W        W23492  23.644   7.339  13.041
55099W        W23493   5.722  34.251   2.863
55100W        W23494  19.708  41.023  11.684
55101W        W23495  41.419  38.838  12.174
55102W        W23496  40.331  30.667  11.305
55103W        W23497  28.885  18.177  10.853
55104W        W23498   2.568  27.353  14.553
55105W        W23499  39.537  36.278   2.222
55106W        W23500  26.052  12.999   2.288
55107W        W23501  17.545  30.613   3.735
55108W        W23502  11.059  36.996   2.103
55109W        W23503  22.754  22.410  11.429
55110W        W23504   7.323  12.309   0.334
55111W        W23505  11.907  38.498   2.613
55112W        W23506  34.121   8.246  13.300
55113W        W23507   8.761  21.888   3.995
55114W        W23508   4.355  32.600  13.353
55115W        W23509   8.301  13.051   2.775
55116W        W23510  21.932   5.418   3.239
55117W        W23511  40.456  41.513  12.094
55118W        W23512  30.022  40.456   1.688
55119W        W23513  14.452  28.563  14.919
55120W        W23514  17.060  13.339   1.798
55121W        W23515   6.655  34.026   3.252
55122W        W23516  39.057   4.713  14.876
55123W        W23517  16.836  44.343  10.948
55124W        W23518  35.452  28.113   2.047
55125W        W23519  43.246  19.825   1.104
55126W        W23520  17.511  10.343  11.484
55127W        W23521   9.087  37.361  12.857
55128W        W23522  33.508  42.540  13.821
55129W        W23523  43.267  43.494  14.000
55130W        W23524  17.821   8.319   2.213
55131W        W23525  21.616   0.888   0.334
55132W        W23526  40.873  32.401   1.263
55133W        W23527  14.634  44.042   2.285
55134W        W23528  26.143  38.101   3.313
55135W        W23529   2.377  32.813   2.519
55136W        W23530  17.715  39.810   4.509
55137W        W23531   6.947  36.850  14.899
55138W        W23532  29.579  31.548   4.207
55139W        W23533  30.389  19.702   0.706
55140W        W23534  32.813  24.131  11.211
55141W        W23535  18.707  31.025   2.760
55142W        W23536  18.664   8.631  11.274
55143W        W23537   5.271  31.643  13.575
55144W        W23538  24.823  12.629  11.994
55145W        W23539  26.728  27.043  13.194
55146W        W23540  21.207  22.911   4.333
55147W        W23541   8.246  22.842  13.854
55148W        W23542  33.437  36.419  11.639
55149W        W23543  18.317  43.079  11.941
55150W        W23544  30.219  27.678  14.998
55151W        W23545  25.256  18.250   0.595
55152W        W23546   4.784  19.410  11.560
55153W        W23547  44.524  38.977  10.661
55154W        W23548   8.659   0.700  13.429
55155W        W23549  19.051  25.508   0.167
55156W        W23550  14.872  22.553   3.156
55157W        W23551  20.481  32.307   5.062
55158W        W23552  26.457  14.395   1.542
55159W        W23553  40.419  23.731  12.953
55160W        W23554  14.689   0.551   0.697
55161W        W23555  16.619  30.890  14.536
55162W        W23556  16.460  40.513  11.880
55163W        W23557  21.418  43.956  14.840
55164W        W23558  36.583  39.507   3.287
55165W        W23559  14.820  42.029  12.840
55166W        W23560  42.274  10.332   3.775
55167W        W23561  33.447  44.240   4.606
55168W        W23562  22.037  20.898   3.745
55169W        W23563  26.209  32.157  11.275
55170W        W23564  15.496   1.514   3.112
55171W        W23565  37.698   9.893  13.741
55172W        W23566  40.252  16.541  13.844
55173W        W23567  30.196  37.432   2.247
55174W        W23568  34.870   8.317  11.178
55175W        W23569  11.915  33.405  11.176
55176W        W23570  31.969  24.658   3.156
55177W        W23571  42.541  15.564   4.541
55178W        W23572  11.282   1.257  12.658
55179W        W23573  12.770  35.841  10.891
55180W        W23574  25.379  16.585  13.050
55181W        W23575  36.443  27.897  12.134
55182W        W23576  28.864  20.590  14.914
55183W        W23577  17.067  11.279   3.326
55184W        W23578  14.321  23.976  11.171
55185W        W23579   8.318  39.405   2.015
55186W        W23580  40.395  41.467  10.276
55187W        W23581  39.520  14.088  11.604
55188W        W23582   1.472  20.914   0.812
55189W        W23583   2.492  26.990   1.939
55190W        W23584  38.474   0.759  10.709
55191W        W23585  20.876  32.433   2.260
55192W        W23586  22.789   7.867  12.155
55193W        W23587  17.090  36.987   2.711
55194W        W23588   3.761  21.218  14.346
55195W        W23589  16.429   9.371  14.798
55196W        W23590  40.141   9.309   2.333
55197W        W23591  11.152  42.173  13.951
55198W        W23592  12.132  32.069   3.117
55199W        W23593  30.537  24.330  14.998
55200W        W23594   5.997  25.669   1.259
55201W        W23595  12.944  15.189   1.377
55202W        W23596  22.577   9.839  11.424
55203W        W23597  13.876   9.523   5.004
55204W        W23598  38.872  40.001  11.187
55205W        W23599   2.740  21.814  13.525
55206W        W23600  25.384   6.875   2.887
55207W        W23601  36.570   6.001  14.950
55208W        W23602  35.599   7.774  11.647
55209W        W23603  24.229  13.593  13.466
55210W        W23604  36.249  22.138   1.221
55211W        W23605  11.612  24.480  14.468
55212W        W23606  27.435   5.415  12.496
55213W        W23607  29.949  35.046   1.366
55214W        W23608  11.021  28.012   3.642
55215W        W23609   2.829  14.783   9.484
55216W        W23610  39.583  43.948  11.100
55217W        W23611  44.640   3.310   3.213
55218W        W23612  15.143  24.497   1.200
55219W        W23613   7.467  25.159   0.293
55220W        W23614  11.555  43.813  12.094
55221W        W23615   3.528  40.204   1.681
55222W        W23616   9.887  10.267   2.368
55223W        W23617  33.979   4.134  11.897
55224W        W23618  35.735  36.818   2.317
55225W        W23619   1.041  40.340   2.744
55226W        W23620   7.247  25.056   0.809
55227W        W23621  26.883  25.183   1.628
55228W        W23622  30.498  24.145  14.329
55229W        W23623  12.578  42.678   0.454
55230W        W23624   3.808  40.483   0.792
55231W        W23625  38.389   4.295  14.511
55232W        W23626  19.328  19.497   0.850
55233W        W23627  20.559  33.770   3.296
55234W        W23628  19.557  13.832   0.882
55235W        W23629  13.260  21.219   2.232
55236W        W23630  19.858  27.043  11.219
55237W        W23631  11.131  40.238   3.617
55238W        W23632   1.345   9.954   1.668
55239W        W23633  29.080  39.540   4.541
55240W        W23634  17.615  10.890  14.042
55241W        W23635   6.882  32.559  10.695
55242W        W23636  39.154  34.223  10.332
55243W        W23637  31.908  18.269   2.434
55244W        W23638  35.164  43.076  11.639
55245W        W23639   3.335  10.456   5.124
55246W        W23640  33.912   0.863   2.791
55247W        W23641  21.579   9.460  12.406
55248W        W23642  20.779  32.235  13.975
55249W        W23643  24.495  35.076   0.477
55250W        W23644   1.485   2.799  13.931
55251W        W23645  35.238  32.644  13.368
55252W        W23646  22.129  32.630   1.660
55253W        W23647  20.092  42.844   1.998
55254W        W23648  10.675  17.185  13.633
55255W        W23649  41.538  29.088  13.853
55256W        W23650  10.959   1.747   4.610
55257W        W23651  27.005  33.833   1.374
55258W        W23652  33.995  39.395  14.003
55259W        W23653  39.099   4.117   1.743
55260W        W23654  34.587   2.843  11.527
55261W        W23655  24.825  33.117  12.558
55262W        W23656   5.260  26.033   0.981
55263W        W23657  36.479   8.143  12.964
55264W        W23658  39.368   7.549  10.691
55265W        W23659   9.120   2.633  13.703
55266W        W23660  31.938   6.898  13.829
55267W        W23661  18.617   3.408   3.717
55268W        W23662  21.107  42.060  14.926
55269W        W23663  41.970  24.062   0.822
55270W        W23664  24.313  41.891   3.534
55271W        W23665  29.959  31.846  13.081
55272W        W23666  16.225  28.089  11.513
55273W        W23667   7.844  38.325   4.359
55274W        W23668  30.974  21.093   2.139
55275W        W23669  24.770  18.754  12.442
55276W        W23670  27.091  18.138   0.379
55277W        W23671  10.644  23.450   1.790
55278W        W23672  37.035  16.049  12.173
55279W        W23673   1.238  28.076  14.505
55280W        W23674  26.773  22.800   0.348
55281W        W23675  27.945  19.518  14.046
55282W        W23676  33.400  34.811   3.264
55283W        W23677  32.149  22.569  13.929
55284W        W23678  18.064  43.036   4.110
55285W        W23679  23.911  42.764   2.115
55286W        W23680  41.074  30.783  11.593
55287W        W23681  23.775  42.502   3.825
55288W        W23682   1.257  37.399  10.890
55289W        W23683  20.764   0.374  12.086
55290W        W23684  22.221  11.811   3.152
55291W        W23685  25.423   5.750  11.039
55292W        W23686  24.588  43.163   3.062
55293W        W23687   2.756   5.914   1.636
55294W        W23688  28.452  41.331   1.325
55295W        W23689   8.503  12.605  11.525
55296W        W23690   8.325   5.499   4.592
55297W        W23691  33.599  26.988   1.158
55298W        W23692   7.209  18.786   4.088
55299W        W23693  30.437  16.186  11.642
55300W        W23694  30.286  42.237  14.958
55301W        W23695   8.844   5.978  14.425
55302W        W23696  37.876  20.194  10.321
55303W        W23697   3.827  42.315   4.424
55304W        W23698  13.821  17.603   3.767
55305W        W23699  27.696   8.782   2.562
55306W        W23700   3.444   0.661  14.930
55307W        W23701  21.002  35.077   4.381
55308W        W23702  44.435  34.147  13.530
55309W        W23703  28.167  14.347  10.707
55310W        W23704  26.230  37.114   0.233
55311W        W23705  14.129  15.161   2.175
55312W        W23706  25.710   4.779   3.385
55313W        W23707   3.447  43.461   4.667
55314W        W23708   8.805  30.660  12.399
55315W        W23709  20.138  30.538  13.288
55316W        W23710  11.022  44.686  12.155
55317W        W23711  27.183  38.254   4.049
55318W        W23712   7.705  10.329  12.038
55319W        W23713  14.704  22.938  13.589
55320W        W23714  17.552   4.887   3.238
55321W        W23715  14.122  28.931   3.790
55322W        W23716  16.685  42.111   3.128
55323W        W23717   3.393   6.383  12.052
55324W        W23718  13.727   3.355   2.357
55325W        W23719   8.198   9.842   2.452
55326W        W23720  40.340  35.604  10.831
55327W        W23721  14.757  30.053   4.051
55328W        W23722   5.157  34.412  12.263
55329W        W23723  27.967  34.343  13.386
55330W        W23724  32.151  25.073  11.090
55331W        W23725  28.943   8.304   4.793
55332W        W23726   9.291  40.385   2.214
55333W        W23727  42.824  38.446   4.210
55334W        W23728  28.870  30.259  13.904
55335W        W23729  44.030  12.885   0.747
55336W        W23730  13.799   0.731  10.841
55337W        W23731   5.832  42.937   2.253
55338W        W23732  24.672  44.388   2.145
55339W        W23733  13.180  23.091  13.563
55340W        W23734  39.034  16.910   4.964
55341W        W23735  40.052   4.241   1.893
55342W        W23736  26.615  17.222  14.902
55343W        W23737   7.223  20.245   4.457
55344W        W23738  22.725  11.589  12.529
55345W        W23739  44.594  25.103  14.884
55346W        W23740   1.226  41.847  11.936
55347W        W23741   9.040   5.409   2.543
55348W        W23742  37.921  32.641   4.283
55349W        W23743  32.236  11.338  10.334
55350W        W23744   9.870  44.488  12.739
55351W        W23745  37.876  26.018  14.412
55352W        W23746  44.375   8.140   2.785
55353W        W23747  16.205   5.180   3.704
55354W        W23748   2.927  10.157   4.540
55355W        W23749   3.901  37.305  14.326
55356W        W23750  44.879  43.430  13.251
55357W        W23751  31.956   7.940  12.971
55358W        W23752  22.785  13.144  13.993
55359W        W23753  10.681  16.887   1.245
55360W        W23754  28.461   7.837  12.939
55361W        W23755  26.644  41.805   3.711
55362W        W23756  40.956  12.291  11.830
55363W        W23757  30.398  41.290   2.772
55364W        W23758  11.055  40.155   4.530
55365W        W23759  20.340  24.682   5.439
55366W        W23760  21.118  23.785  13.813
55367W        W23761  39.468  16.029  12.364
55368W        W23762  43.296  37.513   1.729
55369W        W23763  44.717  35.520   0.593
55370W        W23764  22.670  40.446  12.540
55371W        W23765   2.454   2.347   1.298
55372W        W23766  26.426  39.321   0.909
55373W        W23767   4.990  13.585  14.481
55374W        W23768   7.357  30.921   0.988
55375W        W23769   4.987  41.778  14.865
55376W        W23770   5.473  31.140  11.654
55377W        W23771   5.130  19.305   3.136
55378W        W23772  27.564  25.930   4.355
55379W        W23773  35.330  29.551   1.623
55380W        W23774  17.773  31.611   2.620
55381W        W23775  11.898  29.986   2.753
55382W        W23776  24.959  18.421  11.617
55383W        W23777  26.091  16.682   0.977
55384W        W23778  34.138  41.081  13.402
55385W        W23779   6.183  42.750   0.240
55386W        W23780  37.556  23.444  13.688
55387W        W23781   0.814  16.010  13.542
55388W        W23782  39.884  41.177  14.724
55389W        W23783  43.363  43.013  14.422
55390W        W23784  37.993  32.483  11.225
55391W        W23785   0.940  26.740  12.199
55392W        W23786  34.612   6.723   2.908
55393W        W23787  21.573   9.810   1.390
55394W        W23788  25.224   7.220   1.836
55395W        W23789   3.036   1.023  12.526
55396W        W23790  33.208  21.654  10.994
55397W        W23791  10.758  32.138   1.360
55398W        W23792  32.955  35.855  13.120
55399W        W23793  13.851  31.266   4.991
55400W        W23794  34.555   9.313   3.891
55401W        W23795  30.488  34.415  12.105
55402W        W23796  26.178   9.637   2.654
55403W        W23797  41.488  39.379  12.138
55404W        W23798   8.331  43.850  10.629
55405W        W23799  43.361   1.201  11.530
55406W        W23800  27.101   1.440  14.441
55407W        W23801  37.031  20.305  12.060
55408W        W23802  31.437  39.461   2.521
55409W        W23803  26.160  25.539   2.213
55410W        W23804  21.297  44.979  11.483
55411W        W23805  29.774  25.176   2.866
55412W        W23806  36.110   9.972  11.906
55413W        W23807   8.666  30.808   0.497
55414W        W23808   3.926  31.495   0.811
55415W        W23809  39.105  29.575   4.745
55416W        W23810   7.239  38.756   0.600
55417W        W23811  39.519  13.599  11.378
55418W        W23812   5.700  26.350  14.438
55419W        W23813  43.294  42.894  11.960
55420W        W23814  19.213  16.363  10.984
55421W        W23815  23.250  26.567   1.879
55422W        W23816  29.197   2.218   4.120
55423W        W23817  35.291  39.410  10.575
55424W        W23818  18.903   9.425  12.948
55425W        W23819   8.894  18.585  11.146
55426W        W23820  16.411  39.195  14.785
55427W        W23821  10.291  29.632  13.563
55428W        W23822  28.504   0.010   0.830
55429W        W23823  27.996   6.755  13.521
55430W        W23824  31.202   5.669  14.699
55431W        W23825  10.732  27.154   2.385
55432W        W23826   7.879   7.165   0.232
55433W        W23827   4.930  38.084  14.840
55434W        W23828  15.180  24.754  14.828
55435W        W23829  28.236  37.054  14.271
55436W        W23830  41.214   3.460   4.567
55437W        W23831  14.668  39.358   9.899
55438W        W23832   5.953  32.663  11.546
55439W        W23833   5.893  27.644   0.743
55440W        W23834  28.627  33.585  12.710
55441W        W23835  21.298  27.913  12.571
55442W        W23836  43.268  30.121  13.383
55443W        W23837  18.749  26.987  12.484
55444W        W23838   2.969   1.701  13.316
55445W        W23839   4.353   1.099   0.013
55446W        W23840  39.815   1.397  13.824
55447W        W23841  24.491   7.846  14.462
55448W        W23842  10.243  12.884  13.080
55449W        W23843  10.194  17.106   1.295
55450W        W23844  43.513  33.893  14.856
55451W        W23845  18.167  11.716   2.626
55452W        W23846   4.757  22.000   1.150
55453W        W23847  26.136  29.131  12.199
55454W        W23848  39.492  27.531  13.536
55455W        W23849  23.254  32.891   3.344
55456W        W23850  43.897  42.351   0.887
55457W        W23851  37.922  29.164   4.434
55458W        W23852   5.508  14.829   2.310
55459W        W23853  25.035   7.308  11.959
55460W        W23854  41.481  24.663  13.369
55461W        W23855  10.633   9.144  10.478
55462W        W23856  44.253  22.145   2.124
55463W        W23857  43.358  33.139   0.417
55464W        W23858  30.867  35.308   4.199
55465W        W23859   4.046  43.096   2.759
55466W        W23860   6.156  35.136   1.366
55467W        W23861  13.872  34.146   2.457
55468W        W23862  10.599  37.729  12.907
55469W        W23863  21.718  34.962   2.307
55470W        W23864   0.434   0.460   3.399
55471W        W23865  11.094  17.587   3.088
55472W        W23866  22.652   4.789  10.675
55473W        W23867   8.756  43.848   4.869
55474W        W23868  10.093  15.274   1.676
55475W        W23869  25.683  33.446   1.413
55476W        W23870  26.015  30.314   3.320
55477W        W23871  17.718  14.612  13.186
55478W        W23872  36.555   7.840  14.335
55479W        W23873  35.256  20.072  11.075
55480W        W23874  17.359  30.099   4.107
55481W        W23875  13.130   1.524   0.925
55482W        W23876   3.142  24.556   1.870
55483W        W23877  36.731  33.522   1.728
55484W        W23878   3.834  27.481  12.041
55485W        W23879  41.104   5.697  13.462
55486W        W23880  28.695  34.883   2.151
55487W        W23881  32.511  22.291   4.789
55488W        W23882  11.321  43.228  11.206
55489W        W23883  19.529   6.877  11.961
55490W        W23884   2.975  16.776  10.595
55491W        W23885  27.105  41.350   5.125
55492W        W23886  32.214   8.387  13.877
55493W        W23887   6.923  14.145   5.067
55494W        W23888  43.042  37.981   1.848
55495W        W23889   4.313  29.979  13.158
55496W        W23890   7.109  36.578   3.012
55497W        W23891  36.543  22.203  12.692
55498W        W23892  33.494  27.692   0.879
55499W        W23893  32.991  28.543   0.785
55500W        W23894  13.732  13.269  10.403
55501W        W23895  34.266  22.193   0.297
55502W        W23896  17.295   3.410   0.573
55503W        W23897  44.310  25.752  12.066
55504W        W23898  41.693  32.447   0.170
55505W        W23899   9.250  12.212   2.330
55506W        W23900  41.325  27.975  11.620
55507W        W23901  12.143  41.739   4.624
55508W        W23902   4.264  28.646   1.764
55509W        W23903   7.841  30.231   3.709
55510W        W23904  44.702   7.723  14.953
55511W        W23905   3.970  29.631  14.478
55512W        W23906  24.344  27.822   4.041
55513W        W23907  16.953  41.289  14.998
55514W        W23908  11.845  41.824  12.473
55515W        W23909   5.071  20.566   4.210
55516W        W23910  13.340  12.220  13.091
55517W        W23911  40.471  18.349   4.087
55518W        W23912  38.058  20.792  13.960
55519W        W23913  43.959  13.662  12.332
55520W        W23914  18.177  21.784   3.566
55521W        W23915   7.894   6.956  14.204
55522W        W23916  35.941  43.817   0.964
55523W        W23917  23.556  28.587  11.205
55524W        W23918  35.279  32.119  13.841
55525W        W23919  42.746  32.364   4.157
55526W        W23920   4.140   9.235   3.111
55527W        W23921   1.263   8.573  11.041
55528W        W23922  40.683  36.575   1.673
55529W        W23923   4.185  10.119  14.831
55530W        W23924  37.104  23.204  12.695
55531W        W23925  35.470  17.415   1.882
55532W        W23926  39.956   1.931   4.529
55533W        W23927  35.927  38.602   4.523
55534W        W23928   8.192  43.343   0.262
55535W        W23929  38.765  33.089   0.924
55536W        W23930  29.541  41.245  11.490
55537W        W23931  13.408  25.666  12.699
55538W        W23932  20.714  24.896   0.615
55539W        W23933  27.068  34.160   3.990
55540W        W23934   8.391  41.308  11.550
55541W        W23935  10.956  39.535  11.238
55542W        W23936  13.205   9.637  12.826
55543W        W23937  17.812   7.754   3.259
55544W        W23938  26.931  11.176  10.761
55545W        W23939  30.649  39.315  11.979
55546W        W23940  30.745   4.946   4.017
55547W        W23941  44.971  27.560   0.358
55548W        W23942  10.921  22.007   2.793
55549W        W23943  21.722  39.401   2.174
55550W        W23944  21.374  40.339   4.190
55551W        W23945  14.218  41.709   1.593
55552W        W23946  15.639  43.557   0.457
55553W        W23947  32.535   7.352   0.636
55554W        W23948  10.147  33.487  10.574
55555W        W23949   0.404  19.168  14.701
55556W        W23950   6.155  16.325  10.723
55557W        W23951   2.224  38.977   3.044
55558W        W23952  43.860  24.192  12.470
55559W        W23953  21.045  23.657   4.980
55560W        W23954   1.195  36.897  12.974
55561W        W23955  40.008  29.627   4.847
55562W        W23956  36.147  33.031   0.406
55563W        W23957  16.692   3.724  10.752
55564W        W23958  23.209  20.598   4.678
55565W        W23959  29.023  26.025  13.436
55566W        W23960  41.298  42.351  14.088
55567W        W23961   4.770   1.433   3.235
55568W        W23962  18.211   9.677   3.231
55569W        W23963  13.543  11.793   1.869
55570W        W23964  26.485  16.510   4.153
55571W        W23965  30.068  34.124  14.339
55572W        W23966  42.431   2.876   2.437
55573W        W23967  32.058  33.443   4.537
55574W        W23968   4.743  17.748   4.189
55575W        W23969  21.516  35.569  10.802
55576W        W23970  11.692  44.470   2.280
55577W        W23971  19.504  16.049  12.020
55578W        W23972   8.114  19.717  11.575
55579W        W23973  35.041  37.124  14.298
55580W        W23974   8.203  42.523  12.918
55581W        W23975   9.307  40.880   4.487
55582W        W23976  34.990  33.680   5.008
55583W        W23977  32.215  40.441  13.298
55584W        W23978   8.664  37.600   0.197
55585W        W23979  12.217   2.704   1.174
55586W        W23980   6.178   4.855  14.487
55587W        W23981  36.884  19.075  11.205
55588W        W23982  30.889   0.031   1.858
55589W        W23983  37.933  35.521   3.804
55590W        W23984  36.116  44.536  14.863
55591W        W23985  38.725  21.619   0.960
55592W        W23986  31.224  22.691   2.816
55593W        W23987  28.132  27.341  10.076
55594W        W23988  14.917  14.481  14.712
55595W        W23989  37.895  16.327   2.965
55596W        W23990  14.628  20.456  10.927
55597W        W23991  32.053  24.014   2.303
55598W        W23992  38.608  17.658  12.288
55599W        W23993  20.794  11.106  14.847
55600W        W23994  28.083   3.181  12.111
55601W        W23995   4.674  10.034   2.133
55602W        W23996  19.183  29.540  10.093
55603W        W23997  43.504   8.852   1.260
55604W        W23998  18.121  11.672  10.255
55605W        W23999  33.401  29.376   0.252
55606W        W24000   2.150  14.160   3.807
55607W        W24001  24.895  16.417   2.381
55608W        W24002  14.404  36.130  13.147
55609W        W24003   4.729  37.847   1.234
55610W        W24004   5.610  39.292  11.018
55611W        W24005   6.335  36.030  14.640
55612W        W24006  14.758  31.000  14.806
55613W        W24007  17.601  13.308  12.829
55614W        W24008  33.893  23.845  13.993
55615W        W24009  36.973  32.523   4.048
55616W        W24010  44.490  10.780   2.366
55617W        W24011  12.036  10.618  11.445
55618W        W24012  23.743   1.451  13.935
55619W        W24013  19.788   6.852  14.562
55620W        W24014  33.926  33.523   1.361
55621W        W24015  44.791  12.353   2.505
55622W        W24016  22.012  24.694   3.651
55623W        W24017   5.668  20.560   2.803
55624W        W24018  24.059   8.180   4.287
55625W        W24019  28.438  26.079   0.484
55626W        W24020   1.845  32.338  11.982
55627W        W24021   1.543  26.493  13.053
55628W        W24022   8.102  40.565  12.908
55629W        W24023   8.598  22.479   4.987
55630W        W24024  31.768  27.774   2.437
55631W        W24025  42.416  12.650   3.272
55632W        W24026  27.706  18.719  12.066
55633W        W24027   2.368   8.092   4.311
55634W        W24028  21.705  44.426  11.900
55635W        W24029  21.521  41.074   1.153
55636W        W24030   8.434   3.995   1.769
55637W        W24031  40.416  19.122  12.985
55638W        W24032  24.511  30.992   0.573
55639W        W24033   9.905  38.001   0.747
55640W        W24034  12.277  31.651   4.647
55641W        W24035  16.627  27.525  14.433
55642W        W24036  22.725  14.119  10.737
55643W        W24037  38.975  35.374   0.018
55644W        W24038   3.946  23.711  14.893
55645W        W24039   1.278  24.290   0.097
55646W        W24040  29.781  21.772   3.251
55647W        W24041  30.467  31.720  12.408
55648W        W24042   8.933  10.338  11.151
55649W        W24043  37.391  18.828   1.692
55650W        W24044  23.255  37.009  13.043
55651W        W24045  25.851  33.674   3.759
55652W        W24046  43.750  25.364   3.672
55653W        W24047  43.028  12.641   3.536
55654W        W24048   1.801   4.564   0.635
55655W        W24049   1.379  38.867   2.161
55656W        W24050   3.433  15.563   1.813
55657W        W24051  44.987  14.191   2.549
55658W        W24052  13.270  19.546  14.323
55659W        W24053  25.991   6.151   0.401
55660W        W24054  35.972  27.315  12.393
55661W        W24055  28.112   2.887  11.168
55662W        W24056  19.588  36.358  10.736
55663W        W24057  25.492  38.401   2.814
55664W        W24058  39.210  37.409   2.713
55665W        W24059  28.964  28.538  13.356
55666W        W24060  29.729  42.819   4.527
55667W        W24061   5.946  12.433   5.032
55668W        W24062  42.520  11.396  12.075
55669W        W24063  21.717  30.170  11.561
55670W        W24064  23.610  30.587   2.446
55671W        W24065  14.089  34.156  13.090
55672W        W24066  30.460   0.865  11.667
55673W        W24067  13.632  24.143  14.940
55674W        W24068  15.497  35.007  13.967
55675W        W24069  38.907  40.939  13.968
55676W        W24070  22.275  39.043   2.651
55677W        W24071  41.717  42.829   4.265
55678W        W24072  27.693  35.537   0.009
55679W        W24073  38.092   7.626  11.069
55680W        W24074  22.213  27.446  14.195
55681W        W24075  26.966  42.539   2.225
55682W        W24076  26.133  34.539  13.944
55683W        W24077  12.568  38.576   4.139
55684W        W24078   5.872   7.266  13.951
55685W        W24079  12.959  43.968  11.640
55686W        W24080  19.116  28.376  13.133
55687W        W24081  25.419  35.071  13.623
55688W        W24082  28.594   6.934  14.814
55689W        W24083  14.892  31.109   0.846
55690W        W24084  17.138   2.842  14.167
55691W        W24085   8.330  27.333   1.189
55692W        W24086  39.526  33.497   2.710
55693W        W24087  17.122  24.681  13.716
55694W        W24088  12.879  22.001  11.274
55695W        W24089  34.395  13.685  12.601
55696W        W24090  31.082  15.087  13.060
55697W        W24091  16.359  16.340   3.341
55698W        W24092  42.690  34.343   4.040
55699W        W24093   1.907  34.005   4.928
55700W        W24094   3.908  20.422  13.929
55701W        W24095  30.137   7.166   4.585
55702W        W24096   5.051  27.915   0.666
55703W        W24097  20.844   4.217  10.652
55704W        W24098  26.996   8.265   3.019
55705W        W24099  28.907  23.123  13.570
55706W        W24100  35.911  33.872  14.152
55707W        W24101  38.576   2.793   2.432
55708W        W24102  11.867  31.533  12.593
55709W        W24103  31.903   7.421  12.055
55710W        W24104  13.100  37.508   0.897
55711W        W24105   5.140  21.926  12.453
55712W        W24106  14.919  40.595   4.103
55713W        W24107  20.821   0.774  11.313
55714W        W24108  14.728   2.494  14.777
55715W        W24109  41.853   0.818  11.170
55716W        W24110  33.257  20.996  14.526
55717W        W24111  27.550  23.239  10.905
55718W        W24112  32.087  43.135  13.949
55719W        W24113  13.631  39.076   0.183
55720W        W24114  12.771   8.247   0.835
55721W        W24115  15.196  11.798  11.589
55722W        W24116  33.186  26.240  11.075
55723W        W24117  18.893  11.337  11.882
55724W        W24118  19.587  31.767  14.393
55725W        W24119  25.720  17.638   0.156
55726W        W24120  38.479   1.545   2.727
55727W        W24121  42.808  32.587  13.644
55728W        W24122  41.818   7.978  12.058
55729W        W24123  16.767  26.110   1.257
55730W        W24124  41.788   0.027  14.600
55731W        W24125   8.736  16.291   1.222
55732W        W24126  21.161  30.570   3.046
55733W        W24127  24.613  14.838  14.721
55734W        W24128  34.118  11.092  12.956
55735W        W24129  35.591   9.931   1.163
55736W        W24130  29.028  15.025   1.256
55737W        W24131  23.271  38.700   2.279
55738W        W24132  26.542  41.590   2.351
55739W        W24133  28.072  23.635  12.785
55740W        W24134  17.934  24.541   4.383
55741W        W24135  30.518  20.791  11.010
55742W        W24136  28.141   9.740  12.199
55743W        W24137  22.791  39.845  14.913
55744W        W24138   3.901  24.410  13.024
55745W        W24139  37.782   9.703  14.216
55746W        W24140  25.669  33.046   2.264
55747W        W24141  13.754  39.279  11.928
55748W        W24142  12.930  13.252  12.571
55749W        W24143  27.636  24.209  13.939
55750W        W24144  23.472  32.508  14.468
55751W        W24145  42.583  23.190   1.364
55752W        W24146  10.336  38.381  11.728
55753W        W24147   2.449  14.202   1.526
55754W        W24148  29.617  21.982   4.845
55755W        W24149  26.125   2.939   0.896
55756W        W24150  19.321  14.932   1.307
55757W        W24151   3.695  25.470  11.536
55758W        W24152  15.220  25.722  10.712
55759W        W24153  11.080  26.225  13.522
55760W        W24154  10.442  37.287   0.245
55761W        W24155  43.501  22.027  13.811
55762W        W24156  40.836   8.716   1.423
55763W        W24157  36.636  35.490  11.599
55764W        W24158  31.233  18.013   3.296
55765W        W24159  30.912   5.851  14.310
55766W        W24160  29.785  43.290   3.789
55767W        W24161  18.105  10.352  10.602
55768W        W24162  26.088  42.289   3.207
55769W        W24163  16.050   4.934  13.991
55770W        W24164  24.038  39.845  10.397
55771W        W24165  26.085  16.211  13.298
55772W        W24166  34.126  34.168   4.311
55773W        W24167   0.699  34.839  14.844
55774W        W24168  14.307  17.269   0.782
55775W        W24169   1.848  27.152  12.012
55776W        W24170  27.009  33.104  12.838
55777W        W24171  22.037  37.462  11.173
55778W        W24172  27.571   7.603   0.249
55779W        W24173   3.503  23.005   1.379
55780W        W24174  13.082  23.407  10.699
55781W        W24175  15.150   4.149  12.506
55782W        W24176   1.930   1.822  13.613
55783W        W24177  17.804   5.785  14.460
55784W        W24178  17.072  44.698   1.902
55785W        W24179  26.455  22.732   0.749
55786W        W24180  11.063  38.377  13.515
55787W        W24181  15.049   4.642  14.098
55788W        W24182  16.227  12.533   1.380
55789W        W24183  18.767  24.572  12.530
55790W        W24184  22.215   3.277   4.616
55791W        W24185   5.021  29.544  13.142
55792W        W24186  43.035  16.652   0.725
55793W        W24187  28.641   8.349  11.099
55794W        W24188  11.623  17.198   1.216
55795W        W24189   3.759  21.169   1.877
55796W        W24190  10.801   0.435  10.665
55797W        W24191  24.666  35.377  12.543
55798W        W24192  15.850  36.990   3.834
55799W        W24193  17.056  33.085  12.090
55800W        W24194  21.104  38.635   1.830
55801W        W24195  31.949  21.022   3.213
55802W        W24196   6.368   6.373  13.866
55803W        W24197  33.615  33.101  10.250
55804W        W24198  30.915  13.749  11.109
55805W        W24199  30.565   8.232  12.084
55806W        W24200  13.878  30.676  14.064
55807W        W24201  40.880  44.143  12.500
55808W        W24202  23.025  24.242   3.196
55809W        W24203  18.333  10.226  11.802
55810W        W24204   3.313  21.577   4.332
55811W        W24205  21.170  28.307   9.850
55812W        W24206  11.791  18.145  12.876
55813W        W24207   4.925  34.147   1.894
55814W        W24208  40.398  36.259  13.925
55815W        W24209  11.678  11.724   2.431
55816W        W24210   2.257  10.097   2.212
55817W        W24211  22.223  11.418  12.471
55818W        W24212  18.495  11.103   4.605
55819W        W24213  44.553  28.851  13.366
55820W        W24214  15.758   6.836   2.162
55821W        W24215   9.814  44.218   2.212
55822W        W24216   2.761   1.817  12.850
55823W        W24217  25.091   0.019  13.860
55824W        W24218   8.150  19.535   1.266
55825W        W24219  31.068  20.584   0.695
55826W        W24220  17.358  36.492   0.796
55827W        W24221   4.807  13.631  12.754
55828W        W24222  24.234  39.789   4.235
55829W        W24223  40.841  29.893  13.024
55830W        W24224  21.469   7.430   4.194
55831W        W24225   7.353   5.810   3.409
55832W        W24226  19.787  28.409   4.597
55833W        W24227  14.783  13.591  12.575
55834W        W24228  37.459  17.291   0.269
55835W        W24229  29.771  42.800  10.319
55836W        W24230  29.926  30.940  12.841
55837W        W24231  13.956  43.021   4.156
55838W        W24232  29.704  23.460  12.103
55839W        W24233  39.747  40.961   3.690
55840W        W24234  21.641   8.752   2.967
55841W        W24235  22.177  37.792   0.493
55842W        W24236   8.163  15.770   3.265
55843W        W24237   0.148  10.118   3.974
55844W        W24238   6.682  27.734   3.629
55845W        W24239  38.528   7.254   2.454
55846W        W24240  39.109  32.869   0.391
55847W        W24241   4.352   2.658  14.734
55848W        W24242   6.612  22.615  12.375
55849W        W24243   3.335  21.315  10.124
55850W        W24244  40.512  37.055   1.834
55851W        W24245  11.872  19.787   1.416
55852W        W24246  31.037  21.065   0.290
55853W        W24247  28.695  17.151  13.144
55854W        W24248  12.386  16.144   3.134
55855W        W24249  26.700  29.370  11.656
55856W        W24250   9.247  11.279  14.071
55857W        W24251   1.837  10.673   1.719
55858W        W24252  24.177  10.665   2.363
55859W        W24253  14.252  36.997   2.831
55860W        W24254  35.922  38.328  10.812
55861W        W24255   8.789  33.188   1.907
55862W        W24256  32.541   2.088  11.236
55863W        W24257  40.368  18.851  12.543
55864W        W24258  40.788  35.169  14.228
55865W        W24259  26.434  23.782   1.792
55866W        W24260   5.864  23.607  12.535
55867W        W24261  39.863   5.724  12.945
55868W        W24262  20.112   2.777   0.229
55869W        W24263  36.896  24.818   4.259
55870W        W24264  17.987   7.859  14.238
55871W        W24265  32.880  31.128  13.427
55872W        W24266  25.001   8.432   2.262
55873W        W24267  39.349  14.127  12.116
55874W        W24268   2.388  23.233   1.647
55875W        W24269  21.207   7.653  13.889
55876W        W24270   2.805  35.075  14.590
55877W        W24271  20.688   5.409  13.556
55878W        W24272  35.634  21.251   4.483
55879W        W24273  17.734  16.073   1.244
55880W        W24274  30.487  14.627  10.776
55881W        W24275  10.805  42.600   1.008
55882W        W24276  42.104  25.644  12.413
55883W        W24277  32.848   7.976   4.102
55884W        W24278  25.239  28.459   1.695
55885W        W24279  21.560   1.740  13.330
55886W        W24280   8.142  17.773  10.683
55887W        W24281  39.116  43.591  14.532
55888W        W24282  39.494   2.995  11.721
55889W        W24283  34.317  37.298  11.114
55890W        W24284   2.327  38.550  12.145
55891W        W24285   5.597  28.980  14.399
55892W        W24286   1.220   7.749  14.804
55893W        W24287  17.008  25.950  14.348
55894W        W24288  12.158  11.768  11.154
55895W        W24289   1.823  43.215  13.866
55896W        W24290  44.054   8.752   0.047
55897W        W24291  26.720   4.778  13.357
55898W        W24292  41.835  44.230   4.614
55899W        W24293  17.639   6.808  13.602
55900W        W24294  28.163  37.933   4.920
55901W        W24295  16.743  25.569   2.151
55902W        W24296   8.237  20.211   4.613
55903W        W24297  13.564   8.960  11.630
55904W        W24298  43.112   0.271  11.807
55905W        W24299  20.329  35.226  13.432
55906W        W24300  17.196  29.016  14.944
55907W        W24301  41.694  10.611  13.097
55908W        W24302  15.031  22.921   4.076
55909W        W24303  12.745  37.833   3.096
55910W        W24304  41.947   6.465  14.918
55911W        W24305  24.669  26.130  13.705
55912W        W24306  24.337  24.500  10.729
55913W        W24307  35.843   0.082   2.798
55914W        W24308  19.576   9.708   2.069
55915W        W24309   1.265   3.714  14.189
55916W        W24310  26.643  41.987  12.397
55917W        W24311  19.981  29.123  12.488
55918W        W24312  43.963  26.658  11.595
55919W        W24313  28.075   1.478  13.945
55920W        W24314  14.028  37.029   3.726
55921W        W24315  11.900  23.971  12.924
55922W        W24316  33.610  43.897   3.303
55923W        W24317  36.537  15.118   3.343
55924W        W24318  19.804  39.965  12.036
55925W        W24319  35.841  22.016   2.635
55926W        W24320  11.774   5.225  10.851
55927W        W24321  42.010  19.853  12.391
55928W        W24322  14.269   0.292   2.425
55929W        W24323  30.259   3.824  14.862
55930W        W24324   7.233  22.192   5.414
55931W        W24325  10.598  43.208   0.321
55932W        W24326  38.574  30.604   0.459
55933W        W24327   6.698   5.915  14.919
55934W        W24328  12.890  36.892   4.555
55935W        W24329  38.457  29.464  12.013
55936W        W24330  15.241   3.869  12.944
55937W        W24331  16.046  26.546   0.387
55938W        W24332  18.330  40.079  10.518
55939W        W24333   6.478  44.483  11.128
55940W        W24334  26.919  30.376   0.447
55941W        W24335  13.756  32.195  14.249
55942W        W24336   2.646  37.999   1.853
55943W        W24337  28.212  34.650   0.218
55944W        W24338   3.318  18.060  11.184
55945W        W24339  41.147  22.387  14.844
55946W        W24340  30.962  20.004  13.526
55947W        W24341   8.683  15.782  10.820
55948W        W24342  10.072  25.558  11.957
55949W        W24343   4.145  39.210  14.672
55950W        W24344  38.895  27.590  11.869
55951W        W24345  23.776  22.802  12.088
55952W        W24346  15.433  31.966   0.775
55953W        W24347  22.457  35.344   0.292
55954W        W24348  38.908  22.336   3.922
55955W        W24349   7.324   2.493  14.871
55956W        W24350  29.093  20.158  14.741
55957W        W24351  43.364  34.660   4.528
55958W        W24352  34.434  28.101  13.908
55959W        W24353  40.912  33.639   0.667
55960W        W24354  26.838   2.655   4.722
55961W        W24355  34.494  43.848   1.561
55962W        W24356  18.294   9.491  13.529
55963W        W24357  42.819  43.478  10.728
55964W        W24358  34.896  32.849  10.513
55965W        W24359  33.365  22.104  13.524
55966W        W24360  17.179   5.745   1.740
55967W        W24361   1.300   4.248   3.240
55968W        W24362  29.333   9.238   1.685
55969W        W24363  17.925  42.831   3.665
55970W        W24364  39.013  14.687   0.330
55971W        W24365  19.575  30.101   0.367
55972W        W24366  22.633  30.147  11.676
55973W        W24367   2.578  20.324  13.376
55974W        W24368  21.234  17.093  14.077
55975W        W24369  39.106  24.732   3.142
55976W        W24370  24.228  30.012   4.665
55977W        W24371  11.642  31.018   3.699
55978W        W24372   9.824   3.429  13.558
55979W        W24373  11.157  40.481  13.454
55980W        W24374   3.665  42.994   3.073
55981W        W24375   3.390  39.775  10.282
55982W        W24376  29.197  18.203  11.806
55983W        W24377  25.237   2.482   3.183
55984W        W24378   0.297  35.209  14.715
55985W        W24379  38.919  28.481  14.073
55986W        W24380  44.699  12.808   3.148
55987W        W24381  14.016  25.427   5.059
55988W        W24382   2.810  27.097  11.651
55989W        W24383  19.800  23.200  12.344
55990W        W24384   1.855  39.335   3.080
55991W        W24385  17.736   4.729  10.685
55992W        W24386  17.580   0.982  14.750
55993W        W24387  21.287  28.112  14.487
55994W        W24388  34.131  17.197  11.663
55995W        W24389  24.511  29.684  12.027
55996W        W24390  33.436  32.539   1.872
55997W        W24391  44.378  29.373   1.798
55998W        W24392  40.179  32.670   0.507
55999W        W24393  43.010   2.886  10.780
56000W        W24394  10.632  33.166   4.698
56001W        W24395   1.804  37.113  11.247
56002W        W24396   1.673   4.979   4.906
56003W        W24397  31.571  40.770   4.472
56004W        W24398  41.208  18.635   2.840
56005W        W24399   7.061  29.210   4.596
56006W        W24400  38.174  37.171  10.779
56007W        W24401   8.860  37.722   1.179
56008W        W24402   5.908  25.534  14.544
56009W        W24403  40.098   4.693   1.170
56010W        W24404   3.367  27.083  14.295
56011W        W24405  12.327  19.288   4.179
56012W        W24406  15.479  35.825   3.364
56013W        W24407  12.746  37.052  11.124
56014W        W24408  35.451  41.737   0.528
56015W        W24409  32.087  11.918  10.744
56016W        W24410  25.638  23.714  10.638
56017W        W24411  19.441  22.611  14.020
56018W        W24412  33.502  25.750   2.209
56019W        W24413   0.532  21.938   4.447
56020W        W24414   1.836  29.568  11.581
56021W        W24415  12.769   1.678  12.091
56022W        W24416   5.680  19.391   1.429
56023W        W24417  43.759   7.202   4.055
56024W        W24418  32.053  42.549  11.068
56025W        W24419  36.990  39.508  12.807
56026W        W24420  13.704  35.263   0.861
56027W        W24421   3.504  13.813   2.294
56028W        W24422  20.532   8.861   4.067
56029W        W24423   7.366  38.270   2.372
56030W        W24424  40.614   2.459   0.847
56031W        W24425  24.929   2.227  10.750
56032W        W24426  21.245   6.469   1.060
56033W        W24427  27.578  21.115  13.566
56034W        W24428  23.736  36.592  11.073
56035W        W24429  44.291   2.267   4.525
56036W        W24430  22.531  35.847  10.643
56037W        W24431  34.498  10.119   4.499
56038W        W24432  44.997  29.265  12.525
56039W        W24433  16.816  41.889   2.130
56040W        W24434   7.448  22.401   4.998
56041W        W24435   0.315   8.215  10.994
56042W        W24436  12.383  35.603  13.995
56043W        W24437  35.024  32.090  12.434
56044W        W24438  37.385  16.513   3.682
56045W        W24439  24.449  42.196  10.309
56046W        W24440  21.695  31.865  10.598
56047W        W24441  42.235  17.296   0.749
56048W        W24442  18.962  25.074   1.879
56049W        W24443  17.312  24.147  11.529
56050W        W24444  22.667  29.480   1.340
56051W        W24445   2.355  28.258  11.533
56052W        W24446  13.223  18.876  11.460
56053W        W24447  10.925  27.188   3.665
56054W        W24448  28.503   4.827  11.642
56055W        W24449  10.995  41.036  10.535
56056W        W24450   2.370  30.308  13.075
56057W        W24451  20.547   8.082   3.175
56058W        W24452   9.230  16.993  10.764
56059W        W24453  37.476  10.200  10.653
56060W        W24454  35.821  34.794   4.057
56061W        W24455  10.319   6.256  12.537
56062W        W24456   5.033  14.079  12.516
56063W        W24457   3.895  41.081  14.411
56064W        W24458  42.057  17.754   0.972
56065W        W24459   6.183   3.732  10.724
56066W        W24460  22.107  23.516  11.240
56067W        W24461  33.444  23.718  11.978
56068W        W24462  38.015   3.960  14.350
56069W        W24463   2.448  15.301   1.004
56070W        W24464  13.679   5.881  14.297
56071W        W24465   9.183  21.183  14.819
56072W        W24466  18.679  24.506  14.990
56073W        W24467  24.274  33.556   2.657
56074W        W24468  38.041  26.832   2.898
56075W        W24469   1.814  26.044   1.192
56076W        W24470  28.119  17.498  10.659
56077W        W24471   0.090  14.451  12.134
56078W        W24472  19.455  32.992   5.036
56079W        W24473  27.139  31.201   2.702
56080W        W24474  35.853  29.401  13.193
56081W        W24475   1.497  12.247   4.644
56082W        W24476  34.445  21.213   3.264
56083W        W24477  31.632  28.612   2.448
56084W        W24478  37.519  23.806  10.175
56085W        W24479   7.258  21.128  14.695
56086W        W24480  25.917  26.496   0.943
56087W        W24481  39.663   7.317   3.200
56088W        W24482  19.235  14.704  14.919
56089W        W24483   0.246  37.818  13.758
56090W        W24484  14.389  14.888   4.246
56091W        W24485   7.437  44.889   4.488
56092W        W24486   6.415  38.581   1.178
56093W        W24487  44.962  40.395  14.527
56094W        W24488  34.482  11.682   4.525
56095W        W24489  23.715  35.397   2.181
56096W        W24490  27.981  38.522   0.775
56097W        W24491   2.814  21.691   4.244
56098W        W24492   5.832  23.682   1.911
56099W        W24493  37.329   0.016  10.419
56100W        W24494  35.094  19.625  10.868
56101W        W24495  36.853  40.493  13.532
56102W        W24496  10.383  30.132   1.252
56103W        W24497  42.548  21.220   1.771
56104W        W24498  20.999  31.189  14.563
56105W        W24499  11.256  29.101  11.604
56106W        W24500  19.625  24.810   1.475
56107W        W24501  16.716  16.263  12.480
56108W        W24502  28.481  33.497  13.724
56109W        W24503  30.356  35.034   0.740
56110W        W24504  12.620  36.015   0.502
56111W        W24505   8.296  44.745   1.417
56112W        W24506  11.669  27.627  13.367
56113W        W24507  43.419  13.465   3.101
56114W        W24508  15.497  22.299   1.334
56115W        W24509  39.716  31.353  11.632
56116W        W24510  21.893  23.653  10.736
56117W        W24511   0.248  24.708   0.834
56118W        W24512  31.949  38.103   0.773
56119W        W24513  13.695  35.500  12.990
56120W        W24514  19.152  42.787  12.429
56121W        W24515  41.433  31.977   4.839
56122W        W24516   9.560   2.405  13.795
56123W        W24517  32.804  41.482  14.954
56124W        W24518  21.752  43.107  13.144
56125W        W24519   7.536  36.903   3.763
56126W        W24520  10.367  31.393  11.816
56127W        W24521  41.077  29.584   3.644
56128W        W24522  13.806  28.512   0.485
56129W        W24523   5.808   5.023   1.368
56130W        W24524  41.503  32.485  11.960
56131W        W24525   3.807  37.189  11.966
56132W        W24526  41.822  13.122  14.191
56133W        W24527  17.684  25.066  11.413
56134W        W24528  15.306  40.894   1.844
56135W        W24529  21.011  43.854   1.121
56136W        W24530   3.430  13.884  11.178
56137W        W24531  29.482   5.969  11.810
56138W        W24532  36.502  28.406  14.358
56139W        W24533  35.590  35.052   1.749
56140W        W24534  36.491  10.853  13.278
56141W        W24535  33.570  28.532  12.654
56142W        W24536  33.952   8.126   2.842
56143W        W24537   2.306  25.081  14.328
56144W        W24538   9.952  17.543   3.721
56145W        W24539  28.695  19.708  11.501
56146W        W24540  31.678  32.544  12.476
56147W        W24541  35.464   5.737   2.681
56148W        W24542  37.047   4.345  11.489
56149W        W24543  41.233  43.170  10.696
56150W        W24544  39.040  12.884  14.349
56151W        W24545   9.389  26.153  10.572
56152W        W24546  38.007   0.732  10.461
56153W        W24547  44.365   9.771  11.839
56154W        W24548  34.375  36.815   2.335
56155W        W24549  16.831  34.029  10.894
56156W        W24550  21.570  36.389   4.902
56157W        W24551  38.006  34.005  10.593
56158W        W24552  22.578  23.680   2.239
56159W        W24553  32.443  15.309  13.518
56160W        W24554  19.208  37.938   2.830
56161W        W24555  19.192   2.689   0.323
56162W        W24556  11.927  40.507   4.010
56163W        W24557  25.432   1.846   0.302
56164W        W24558   2.901  14.171   2.711
56165W        W24559   8.265  26.808   0.956
56166W        W24560  39.551  19.696   2.686
56167W        W24561  28.540  39.993  14.820
56168W        W24562  14.142  13.869   0.931
56169W        W24563   6.421  20.849   0.100
56170W        W24564  10.802  16.617  13.069
56171W        W24565  19.489   6.349  10.769
56172W        W24566  21.515  10.163  11.317
56173W        W24567  11.846  36.765   0.218
56174W        W24568  36.964  22.437   0.983
56175W        W24569   9.700   6.469   1.283
56176W        W24570  26.402   3.803   0.967
56177W        W24571  22.662  36.347   1.179
56178W        W24572  41.850   6.732  13.114
56179W        W24573  25.412  27.631   3.186
56180W        W24574  30.126   7.969  11.981
56181W        W24575   4.264  40.395  14.572
56182W        W24576  35.609  25.559  14.219
56183W        W24577  36.635  33.448  14.441
56184W        W24578  20.816  10.658  14.228
56185W        W24579   5.275  40.058   4.697
56186W        W24580  18.900  20.218   3.068
56187W        W24581   6.178  30.691  14.782
56188W        W24582  26.638  42.862   5.502
56189W        W24583  33.683  37.529  14.391
56190W        W24584  34.316  38.585  11.456
56191W        W24585   9.487  21.928  14.343
56192W        W24586  17.688  21.939  11.642
56193W        W24587  32.549  12.130  10.592
56194W        W24588  39.749  14.237  11.144
56195W        W24589  12.265  20.496   3.793
56196W        W24590  41.939  41.349   1.148
56197W        W24591  40.092  18.173  12.576
56198W        W24592   1.871   2.265  13.269
56199W        W24593  21.074  30.299   4.009
56200W        W24594  27.058  13.168  11.981
56201W        W24595  30.591  29.772   1.893
56202W        W24596  33.678  32.405   2.813
56203W        W24597   8.267  24.029  10.379
56204W        W24598  14.620   2.805  10.685
56205W        W24599  19.099  18.391  13.468
56206W        W24600  25.547  38.088   3.885
56207W        W24601  33.326  24.774   4.215
56208W        W24602  35.119   3.693   2.274
56209W        W24603  17.560  13.846   0.402
56210W        W24604  13.233  26.978   5.016
56211W        W24605  34.074   6.332   0.744
56212W        W24606  20.631  18.663   4.846
56213W        W24607   5.337  44.405  12.058
56214W        W24608  20.226   3.422  12.825
56215W        W24609   6.862   4.241  12.678
56216W        W24610  38.292  18.662   2.386
56217W        W24611  35.020   6.348  14.253
56218W        W24612   9.772  13.625   0.559
56219W        W24613  15.245  44.851  14.695
56220W        W24614  14.774  39.004   0.371
56221W        W24615   6.290  41.720  11.469
56222W        W24616  30.011  25.725  12.030
56223W        W24617   9.262  24.282  10.374
56224W        W24618  36.905   8.748   0.634
56225W        W24619   6.927  31.008   4.775
56226W        W24620   0.048   5.681  14.042
56227W        W24621  25.334   2.172   2.760
56228W        W24622  39.223   3.255   4.781
56229W        W24623  19.816   1.782  11.422
56230W        W24624  21.288  22.752   0.756
56231W        W24625  13.757   3.683  13.859
56232W        W24626  27.695  33.101  10.365
56233W        W24627  19.557   1.859   2.329
56234W        W24628  26.518  35.929   1.147
56235W        W24629  20.652  44.757  10.869
56236W        W24630  39.888  30.483  11.538
56237W        W24631  11.156  41.896   3.669
56238W        W24632  23.013  29.529  14.066
56239W        W24633  19.278   7.801  14.804
56240W        W24634  35.481  37.493   1.753
56241W        W24635  42.384  25.796  14.649
56242W        W24636  33.006  14.658  13.370
56243W        W24637   7.364  25.537  13.940
56244W        W24638   9.980   1.890   1.791
56245W        W24639  36.626  31.920  10.293
56246W        W24640  31.185  36.308  11.125
56247W        W24641   9.826  11.077  11.647
56248W        W24642  10.744  38.888  11.745
56249W        W24643  37.527  36.415   2.492
56250W        W24644   5.819  10.799   4.484
56251W        W24645  35.411  15.124  11.174
56252W        W24646  27.079  28.586   3.516
56253W        W24647  24.764   4.985   3.212
56254W        W24648   9.065  30.985  11.871
56255W        W24649   6.954  28.354   2.857
56256W        W24650  12.410  43.053  12.636
56257W        W24651   7.616  14.631   3.077
56258W        W24652  44.298  10.668  10.538
56259W        W24653  18.199  29.141   4.646
56260W        W24654   6.867   1.054  14.876
56261W        W24655  21.511   3.303  14.442
56262W        W24656  23.652   7.380   2.812
56263W        W24657  32.909  21.267   4.206
56264W        W24658  21.268  20.083   3.268
56265W        W24659   8.340  23.267  10.968
56266W        W24660  33.063  26.303   4.191
56267W        W24661  41.931  32.775  13.376
56268W        W24662  16.394  28.005  12.862
56269W        W24663   6.938  17.731  12.421
56270W        W24664   3.069  11.334  13.056
56271W        W24665  18.108   0.626  13.101
56272W        W24666  43.070  21.791   1.241
56273W        W24667  10.827  28.327   3.264
56274W        W24668  11.454  17.641   1.435
56275W        W24669  21.584   1.089   0.956
56276W        W24670  27.402   5.772  11.150
56277W        W24671  32.534  14.714   3.169
56278W        W24672  23.219  10.199   1.800
56279W        W24673  25.528  33.914   1.214
56280W        W24674   4.682  27.508  13.871
56281W        W24675  24.036  30.843   2.243
56282W        W24676  13.031   5.250   4.097
56283W        W24677  12.610   4.728   0.351
56284W        W24678   6.938  29.547   4.180
56285W        W24679  41.413  43.113   2.381
56286W        W24680  20.013  28.106  13.569
56287W        W24681   1.805  11.844   4.805
56288W        W24682   0.746  33.065  11.624
56289W        W24683  18.399  28.651   4.640
56290W        W24684  30.625  20.826   0.524
56291W        W24685  36.057   9.816  11.282
56292W        W24686   4.500  11.239   0.404
56293W        W24687  12.711   2.947  14.877
56294W        W24688  34.907  27.014  13.407
56295W        W24689  14.398  10.190  10.581
56296W        W24690  35.668   2.908  11.514
56297W        W24691  15.703  23.708   1.084
56298W        W24692   5.198  38.067  11.559
56299W        W24693  29.817  38.350  12.621
56300W        W24694   2.338  32.379   3.402
56301W        W24695   0.886  24.202  10.774
56302W        W24696   5.965  11.429  11.818
56303W        W24697  13.270  13.563  11.555
56304W        W24698  28.335  19.789  12.905
56305W        W24699   2.300  27.805   2.580
56306W        W24700  26.038  12.046   4.067
56307W        W24701  24.703  38.353   1.744
56308W        W24702   4.520   4.913  11.478
56309W        W24703  31.981  17.874  12.362
56310W        W24704  35.404   6.638  12.129
56311W        W24705  23.110  15.404  13.880
56312W        W24706   6.977   6.289  14.711
56313W        W24707  16.909  16.702  12.689
56314W        W24708  12.941   2.014  12.418
56315W        W24709  23.262  29.612   1.931
56316W        W24710  21.529  33.899  13.314
56317W        W24711  24.653  25.653   4.557
56318W        W24712  28.887  20.257  10.775
56319W        W24713  27.733  12.206   0.289
56320W        W24714  22.182  35.057   3.290
56321W        W24715  29.527  25.657  13.366
56322W        W24716  32.184  30.983  14.821
56323W        W24717  24.648   5.361  11.840
56324W        W24718  29.420  15.787   2.168
56325W        W24719  17.142   1.876  14.576
56326W        W24720  35.213   7.414  11.478
56327W        W24721  33.680  43.854   4.231
56328W        W24722  22.993  10.340  13.997
56329W        W24723  24.577  34.472  12.077
56330W        W24724  27.949  30.019   4.703
56331W        W24725  37.087   4.812   2.677
56332W        W24726  13.748  28.601   3.697
56333W        W24727  37.073  33.277  13.816
56334W        W24728   6.960  10.135   3.358
56335W        W24729  20.734  20.109  11.085
56336W        W24730  33.594  39.975  14.529
56337W        W24731  20.173  34.928   0.644
56338W        W24732  13.322   5.644  11.032
56339W        W24733  24.488  44.255  11.983
56340W        W24734  14.310   0.775   0.390
56341W        W24735  20.467  25.171   1.907
56342W        W24736  28.254   7.761   3.756
56343W        W24737   8.701   9.966  11.782
56344W        W24738  20.087  25.519   2.158
56345W        W24739  32.998   4.871   0.763
56346W        W24740  23.785  29.096   0.738
56347W        W24741  23.188   0.205   3.915
56348W        W24742  29.972  33.786  13.095
56349W        W24743  22.199  15.790  10.642
56350W        W24744  35.535  12.571  10.640
56351W        W24745   5.058   3.225   2.859
56352W        W24746  31.543  42.829   2.242
56353W        W24747   2.240  11.084   4.272
56354W        W24748  18.504  15.503   3.695
56355W        W24749  38.389   9.152  13.760
56356W        W24750  30.424  17.091   4.085
56357W        W24751  30.524  34.402  11.232
56358W        W24752  31.076  11.402  13.512
56359W        W24753  26.115  30.268  12.884
56360W        W24754  32.438  42.759  14.670
56361W        W24755  10.230   2.513  10.668
56362W        W24756  38.006  23.655  13.923
56363W        W24757   8.864  15.145   5.034
56364W        W24758  26.486  28.016  11.879
56365W        W24759  41.644  11.623   0.992
56366W        W24760  12.128  27.394   1.576
56367W        W24761  33.940  15.536   2.385
56368W        W24762  44.015  32.836  14.252
56369W        W24763  15.157  31.121   3.811
56370W        W24764   3.204  23.569   0.434
56371W        W24765  11.223  24.890   0.391
56372W        W24766  30.638  38.853  13.422
56373W        W24767   7.923  24.376  13.992
56374W        W24768  35.006  33.546   0.367
56375W        W24769  23.172   9.629   0.961
56376W        W24770  41.814  44.689  14.987
56377W        W24771  18.071  19.528  11.008
56378W        W24772  18.338  15.051   0.305
56379W        W24773  14.557  30.253  13.454
56380W        W24774  38.589  19.642   0.940
56381W        W24775  12.852  43.817   4.412
56382W        W24776  14.969  15.272   3.392
56383W        W24777  33.729  18.742  14.441
56384W        W24778  35.191  27.135   3.747
56385W        W24779  38.494  42.300  12.626
56386W        W24780   8.459  41.426   3.229
56387W        W24781  38.317  22.956  12.664
56388W        W24782  38.146   6.904  12.547
56389W        W24783  41.842  44.408  11.664
56390W        W24784  28.399  42.657   1.306
56391W        W24785  42.506  28.889   0.957
56392W        W24786  22.507   5.160   4.494
56393W        W24787  19.955  42.952   0.430
56394W        W24788  38.568  20.561  14.892
56395W        W24789  12.166  27.373  11.830
56396W        W24790   6.285   8.660  14.763
56397W        W24791  43.554  21.996   3.653
56398W        W24792  29.495  36.993   1.960
56399W        W24793   0.361  22.708   0.443
56400W        W24794   9.068  33.120   1.484
56401W        W24795  41.053  28.734   2.521
56402W        W24796   0.856  35.575  12.914
56403W        W24797  10.912  17.956  11.127
56404W        W24798  40.428   2.933  14.294
56405W        W24799   4.678  44.155   2.635
56406W        W24800  15.136  10.752  13.933
56407W        W24801  43.926   0.257   1.805
56408W        W24802  27.555  28.656   1.425
56409W        W24803  35.772   1.260   3.572
56410W        W24804  16.438  43.553  10.809
56411W        W24805   0.979  32.299  10.525
56412W        W24806  39.426  22.459  11.052
56413W        W24807  26.518  18.559  14.141
56414W        W24808  26.697  33.206  12.231
56415W        W24809  17.839  24.133   1.836
56416W        W24810  13.166  32.981  13.853
56417W        W24811  33.365   7.985  11.481
56418W        W24812  14.748  35.436  11.962
56419W        W24813  24.236  38.092  12.385
56420W        W24814  37.065  27.214  12.068
56421W        W24815  17.637   0.215   2.266
56422W        W24816  15.555   6.838  12.625
56423W        W24817  28.662  21.743   4.240
56424W        W24818  18.074   5.288  11.489
56425W        W24819  32.693  15.642   1.986
56426W        W24820  29.092  24.634   2.688
56427W        W24821   5.853  21.245  12.453
56428W        W24822   4.371  31.755  14.788
56429W        W24823  32.708  12.884   0.709
56430W        W24824   2.433  33.447   0.311
56431W        W24825   4.599  26.043   3.116
56432W        W24826  25.064  15.370  12.941
56433W        W24827   0.425  18.968  13.817
56434W        W24828  14.659  19.493   2.230
56435W        W24829  15.153  12.101  12.112
56436W        W24830   2.731  16.225  11.559
56437W        W24831  40.759  19.215   4.148
56438W        W24832  20.532  21.773  13.278
56439W        W24833  32.424  32.416   3.717
56440W        W24834   9.683  10.132  12.709
56441W        W24835  39.758   3.811  13.887
56442W        W24836   6.935  25.542   5.578
56443W        W24837  38.433  30.394  14.606
56444W        W24838   2.988   4.946  12.875
56445W        W24839   1.977   6.678  13.123
56446W        W24840   1.531  24.646   3.371
56447W        W24841  24.124   2.746   3.745
56448W        W24842  19.739  41.872  10.662
56449W        W24843  29.346   7.092  10.672
56450W        W24844   1.825   4.416  13.345
56451W        W24845  42.479  22.682   2.590
56452W        W24846  11.827  39.374  14.428
56453W        W24847   4.521  23.432   2.263
56454W        W24848  33.511   8.685   3.706
56455W        W24849  36.034  13.208   4.509
56456W        W24850  26.900   5.691  13.392
56457W        W24851  31.180  43.036  12.981
56458W        W24852  43.241  18.960   3.582
56459W        W24853   9.287  19.198   1.487
56460W        W24854  19.544  16.270  12.906
56461W        W24855  37.628  30.490   3.988
56462W        W24856  11.101   1.929  13.383
56463W        W24857  24.093  26.524   3.728
56464W        W24858  13.870   4.006   1.094
56465W        W24859   0.317  31.513   2.237
56466W        W24860   9.253  37.570   4.036
56467W        W24861  33.519  40.547  11.233
56468W        W24862  14.515   6.454   3.276
56469W        W24863  27.703  20.947  14.538
56470W        W24864  16.918  35.689   1.983
56471W        W24865  23.153  19.999   3.505
56472W        W24866   6.193  32.046  10.310
56473W        W24867  25.525  34.691  12.839
56474W        W24868  39.667  39.032  10.968
56475W        W24869   9.227   2.017  10.607
56476W        W24870  11.910  36.520   0.721
56477W        W24871   8.400  15.680   9.976
56478W        W24872   2.780  21.655   2.105
56479W        W24873  17.054  43.352   0.314
56480W        W24874  19.594  28.683   0.213
56481W        W24875  30.954   5.747  12.519
56482W        W24876  11.673  13.724   5.014
56483W        W24877  28.397  31.637  12.061
56484W        W24878   1.852  36.241   2.599
56485W        W24879  19.167  36.509   3.866
56486W        W24880  14.056  21.277   4.905
56487W        W24881  31.392  35.553   0.285
56488W        W24882  14.117   0.215   2.924
56489W        W24883  43.832  19.497   1.820
56490W        W24884   1.262  10.881  12.435
56491W        W24885  24.164  44.950   4.719
56492W        W24886  10.224  15.369   4.294
56493W        W24887  12.132  16.678  12.725
56494W        W24888  42.924  35.826   9.862
56495W        W24889  31.272   9.594   4.151
56496W        W24890  35.456  34.514   2.617
56497W        W24891  11.837   1.486   2.253
56498W        W24892  22.213  32.180  13.068
56499W        W24893  15.267  31.372  11.191
56500W        W24894   8.347   8.279  12.396
56501W        W24895   0.898  41.824   4.510
56502W        W24896  14.704   4.299  13.316
56503W        W24897  11.236  14.644  11.817
56504W        W24898  33.843  18.592  14.910
56505W        W24899  30.675  36.351  11.216
56506W        W24900  14.179  35.415  14.529
56507W        W24901  39.568   2.263  12.031
56508W        W24902  27.879  17.983   2.317
56509W        W24903  44.393  10.632  12.321
56510W        W24904  14.805  22.748  11.075
56511W        W24905  29.242  33.741   1.210
56512W        W24906  38.598  30.420  13.553
56513W        W24907   8.383   7.884   3.636
56514W        W24908  10.966   2.348  14.786
56515W        W24909   2.711  11.334   4.049
56516W        W24910  15.411  27.424   0.431
56517W        W24911  13.098  41.381   0.266
56518W        W24912  34.113  40.876  14.446
56519W        W24913  43.799   3.350   4.489
56520W        W24914  26.466   6.856   2.246
56521W        W24915  27.660  44.387  12.604
56522W        W24916   4.518  26.541   2.927
56523W        W24917  25.193  22.230   2.857
56524W        W24918  29.677  41.967   4.401
56525W        W24919  26.952  34.021   4.467
56526W        W24920  41.401  30.616  11.095
56527W        W24921   6.512  33.859  12.909
56528W        W24922  13.686  13.420   1.228
56529W        W24923  24.187  13.704   2.535
56530W        W24924  19.992  19.077   2.858
56531W        W24925  18.253   7.237   3.040
56532W        W24926  42.911  14.405   3.228
56533W        W24927  36.381   1.838   3.858
56534W        W24928  14.168  14.254  14.010
56535W        W24929  12.767  43.887  10.788
56536W        W24930   0.289  19.009   0.713
56537W        W24931  15.676  26.194  13.952
56538W        W24932  43.915  11.546  11.421
56539W        W24933  31.396  30.073  14.396
56540W        W24934  12.167  13.347   4.425
56541W        W24935  14.244  21.120  11.073
56542W        W24936   3.728  15.177   0.168
56543W        W24937  22.296  30.722  13.488
56544W        W24938   3.534  44.356  10.635
56545W        W24939  36.814   6.623  11.968
56546W        W24940  37.339  39.799  12.021
56547W        W24941  17.649  18.605   3.169
56548W        W24942  30.397  36.221   5.154
56549W        W24943  31.875   8.668   0.880
56550W        W24944  43.300   4.867   4.199
56551W        W24945  25.647  36.955   1.334
56552W        W24946   7.250  17.446   0.837
56553W        W24947  38.927  41.861   4.123
56554W        W24948  40.252   6.710  12.892
56555W        W24949  23.931  38.574   5.133
56556W        W24950  30.857  14.231   0.440
56557W        W24951   8.972  36.411   1.429
56558W        W24952  14.137  36.878  10.511
56559W        W24953  28.187  41.908   2.413
56560W        W24954  36.946   0.987  13.905
56561W        W24955  16.032  23.989   4.532
56562W        W24956  20.164  20.186   4.775
56563W        W24957  33.033  26.655   0.305
56564W        W24958  39.478  20.912   4.069
56565W        W24959  12.071   7.662  12.673
56566W        W24960  35.571   3.857   4.838
56567W        W24961  17.007  42.913   4.085
56568W        W24962  25.111  25.669  11.806
56569W        W24963   3.923   0.692   2.747
56570W        W24964  28.041  32.310   4.470
56571W        W24965   3.502   7.578  11.616
56572W        W24966   1.876  17.340  11.675
56573W        W24967  19.182  14.651   1.724
56574W        W24968  15.352  42.374   1.322
56575W        W24969  25.704  11.830  14.759
56576W        W24970  40.060   2.051   2.426
56577W        W24971  13.725  33.992  12.792
56578W        W24972  37.282   7.275  12.372
56579W        W24973   7.784  37.913  10.639
56580W        W24974  39.196  11.675  14.776
56581W        W24975  35.516   0.957  10.762
56582W        W24976   6.549  11.976   0.359
56583W        W24977  32.217  28.443   3.303
56584W        W24978  33.469  43.747   0.410
56585W        W24979  13.712  11.755   2.375
56586W        W24980  17.282  40.132   2.892
56587W        W24981   8.339  15.365  14.044
56588W        W24982   7.354  30.087   1.890
56589W        W24983  11.687  15.861   1.230
56590W        W24984   7.344  26.016  13.740
56591W        W24985   0.854   2.098   3.748
56592W        W24986  22.741   6.915   1.557
56593W        W24987  25.063  28.699   4.139
56594W        W24988   0.756  20.195   3.713
56595W        W24989  11.223  12.781   1.893
56596W        W24990  28.071  29.100   4.790
56597W        W24991  22.544   6.408  12.458
56598W        W24992  11.942   5.252  13.661
56599W        W24993  41.898  36.401   4.409
56600W        W24994  11.854  26.545   0.697
56601W        W24995  30.012  11.498   0.798
56602W        W24996   0.374   2.976   3.679
56603W        W24997  30.985  34.120   0.270
56604W        W24998  13.225  18.508   3.352
56605W        W24999  38.110   9.155  11.195
56606W        W25000   1.897  37.791   4.309
56607W        W25001   5.240  32.969   3.299
56608W        W25002  11.126  42.062   2.072
56609W        W25003  13.721  36.097   1.265
56610W        W25004   2.072  31.966  13.148
56611W        W25005   1.527  34.807   1.248
56612W        W25006  20.709  11.164  11.191
56613W        W25007  39.970  21.098  11.917
56614W        W25008  40.894  12.736  14.052
56615W        W25009   0.596  21.637  12.113
56616W        W25010   6.806  40.551   0.501
56617W        W25011  30.061  39.124  11.314
56618W        W25012  12.775  32.971   4.394
56619W        W25013  36.494   1.990  10.992
56620W        W25014  28.466   8.408   0.954
56621W        W25015  15.711   4.975   1.385
56622W        W25016  41.544  28.442   1.638
56623W        W25017  34.140  22.018  10.531
56624W        W25018  37.808   1.132   0.321
56625W        W25019  11.821  32.441   0.962
56626W        W25020  19.003  11.892  11.153
56627W        W25021  36.620  28.565   3.290
56628W        W25022  35.170   6.221  13.768
56629W        W25023  31.032  29.746  11.127
56630W        W25024   6.923  12.301   2.794
56631W        W25025  39.868  43.292   4.721
56632W        W25026  26.018  21.187  11.669
56633W        W25027  25.491   2.528   0.994
56634W        W25028  44.678  33.682   4.743
56635W        W25029   1.403  26.304   4.084
56636W        W25030   4.735   5.187   3.679
56637W        W25031  19.779   8.125  11.462
56638W        W25032  14.238  21.949   3.968
56639W        W25033  32.970  28.734   4.318
56640W        W25034  19.651  10.644   1.394
56641W        W25035  12.842  12.785  10.830
56642W        W25036  39.916   7.767   4.378
56643W        W25037  13.387   9.428  14.326
56644W        W25038  22.985  37.006   2.218
56645W        W25039  16.779  21.771   3.750
56646W        W25040  13.633   5.841   4.954
56647W        W25041  23.991  23.949   0.375
56648W        W25042  13.811  34.926  11.963
56649W        W25043   2.563  31.922  11.484
56650W        W25044  26.971  30.332  11.351
56651W        W25045  26.955  19.615   4.201
56652W        W25046  36.423   5.453   2.309
56653W        W25047  37.171  34.147   3.685
56654W        W25048   6.968  17.280  11.230
56655W        W25049  19.135  10.638  11.536
56656W        W25050  40.588   5.804  11.650
56657W        W25051   6.861  14.276  11.020
56658W        W25052  33.604  23.075   0.015
56659W        W25053  42.380  16.197  13.646
56660W        W25054  10.153   8.413  14.882
56661W        W25055  22.452  30.439   4.227
56662W        W25056   6.132  30.117   4.143
56663W        W25057  14.079  28.674   0.955
56664W        W25058  37.132  35.625  11.582
56665W        W25059  24.183  21.759  12.563
56666W        W25060  32.087  16.756   1.207
56667W        W25061  27.855   8.312   2.711
56668W        W25062  25.724  18.077  11.582
56669W        W25063  35.825  11.591   3.779
56670W        W25064  42.215  40.456  13.006
56671W        W25065   6.831  20.326   0.725
56672W        W25066  33.407   4.035   2.260
56673W        W25067  33.665   1.689  12.549
56674W        W25068  43.421  25.460   0.262
56675W        W25069   6.456  14.514  11.223
56676W        W25070  39.859  28.424   4.201
56677W        W25071   2.739  17.738   4.096
56678W        W25072  11.548  14.844  13.941
56679W        W25073  39.279  35.987  13.611
56680W        W25074  11.085   8.967  10.648
56681W        W25075  23.753  42.057   2.636
56682W        W25076  14.785   1.958  14.844
56683W        W25077  10.035  37.815   3.662
56684W        W25078  18.217  18.186  12.377
56685W        W25079  20.762   9.705  14.939
56686W        W25080  18.983  28.486   1.249
56687W        W25081   4.237  19.624   4.711
56688W        W25082   5.450  25.600   4.515
56689W        W25083  36.434   5.232  13.950
56690W        W25084   1.872  13.518  12.016
56691W        W25085  29.152  13.564   0.429
56692W        W25086  32.192  33.411  12.545
56693W        W25087  14.637  26.118   2.128
56694W        W25088  44.461  20.752  10.450
56695W        W25089   2.387  29.293   1.229
56696W        W25090  27.009  15.466   2.328
56697W        W25091  24.156   7.358   0.035
56698W        W25092  26.337  38.642   4.974
56699W        W25093  32.741  34.405   2.127
56700W        W25094   1.779  20.961  13.277
56701W        W25095  21.137  15.010   0.853
56702W        W25096  15.217  33.176  13.984
56703W        W25097  12.396  15.813   0.522
56704W        W25098  39.036  10.654  12.397
56705W        W25099  26.632  42.807   3.682
56706W        W25100   4.829   3.584   3.161
56707W        W25101   7.174  19.315  11.819
56708W        W25102  28.440  20.845  11.815
56709W        W25103  31.981  39.065  13.622
56710W        W25104  18.835  43.904  12.930
56711W        W25105  18.846  41.880  10.625
56712W        W25106   8.473  39.429   3.863
56713W        W25107  13.619  17.376   2.141
56714W        W25108  25.581  32.252  11.149
56715W        W25109  25.718  11.311  13.320
56716W        W25110  20.088   4.544  12.000
56717W        W25111  18.940  11.502  14.998
56718W        W25112   9.763  16.467  14.487
56719W        W25113  31.582   6.504   4.103
56720W        W25114  23.067   6.582   3.415
56721W        W25115  11.252  41.210  10.942
56722W        W25116   8.558  42.046  12.121
56723W        W25117  41.327  36.821   1.200
56724W        W25118   5.571  26.426   2.722
56725W        W25119   5.208   2.301   1.671
56726W        W25120   2.248  22.561  13.489
56727W        W25121  39.121  41.575   0.985
56728W        W25122  17.125  13.134  14.090
56729W        W25123  36.601  34.658  13.433
56730W        W25124  19.606  18.759  11.235
56731W        W25125  26.677  41.368   0.881
56732W        W25126   8.474  32.621  13.990
56733W        W25127  20.076  26.598   3.244
56734W        W25128  44.911  36.856   4.440
56735W        W25129  41.883   2.298  13.353
56736W        W25130  34.686  35.520  11.125
56737W        W25131  38.108   2.471   4.254
56738W        W25132  11.349  35.548  14.927
56739W        W25133  20.995  31.111   4.233
56740W        W25134  19.417  44.458   0.896
56741W        W25135  40.037  25.773   0.357
56742W        W25136  22.974  26.176  13.632
56743W        W25137   0.761  34.626   3.772
56744W        W25138  35.808  15.033  10.822
56745W        W25139   0.181  19.582  14.493
56746W        W25140   9.234  20.068   1.395
56747W        W25141  39.518   1.096   1.899
56748W        W25142  18.618  15.249   1.881
56749W        W25143  19.493  26.621   3.657
56750W        W25144  13.652  24.991  13.508
56751W        W25145  44.603  11.208   2.711
56752W        W25146  26.462   9.876   3.925
56753W        W25147  20.051  17.830   3.667
56754W        W25148  21.540  19.458   4.003
56755W        W25149   2.483  39.085  12.009
56756W        W25150   0.793  26.377  11.104
56757W        W25151   4.159  21.992   3.727
56758W        W25152   4.684  19.003   2.849
56759W        W25153   2.868  36.355   4.291
56760W        W25154  32.503   3.164   1.727
56761W        W25155   6.097  43.709  11.296
56762W        W25156  18.497  31.077  12.563
56763W        W25157  42.218   7.628   1.345
56764W        W25158   1.445  42.037  10.692
56765W        W25159  27.004  36.548  14.438
56766W        W25160   5.779  32.021   9.904
56767W        W25161  19.683  17.722  14.346
56768W        W25162  20.549  27.631  13.028
56769W        W25163  15.260  30.108  14.523
56770W        W25164  15.208  41.350  10.542
56771W        W25165  14.475   3.717   5.009
56772W        W25166  26.964  37.140  12.894
56773W        W25167  24.660   6.658   0.339
56774W        W25168  31.081   6.464   1.803
56775W        W25169  15.381  13.058  10.587
56776W        W25170  20.783  33.463  13.945
56777W        W25171  17.766  32.514  14.627
56778W        W25172  19.980   4.886   2.142
56779W        W25173   3.846  10.356  11.055
56780W        W25174   2.861  28.887   3.363
56781W        W25175   4.900  24.129  12.947
56782W        W25176  43.495  28.501  11.954
56783W        W25177  43.436  17.544  11.535
56784W        W25178  19.947  18.502   0.460
56785W        W25179  31.584  35.226   2.164
56786W        W25180  20.678   0.256  14.986
56787W        W25181  34.062  20.514  14.296
56788W        W25182  33.551  26.670  13.982
56789W        W25183   1.911  34.920  11.535
56790W        W25184  19.726  21.010   3.353
56791W        W25185  16.378  29.903   1.707
56792W        W25186   7.443  12.703   4.916
56793W        W25187  11.428  20.007   2.694
56794W        W25188   5.516   7.113   0.858
56795W        W25189  38.281  32.463   0.514
56796W        W25190  23.522  33.393   3.627
56797W        W25191  24.408  26.978   2.622
56798W        W25192  38.121  15.961   1.409
56799W        W25193  30.711   2.397   3.739
56800W        W25194  24.139  25.972   4.431
56801W        W25195  28.259   5.257   3.184
56802W        W25196  25.763  27.577   1.816
56803W        W25197  43.750  27.728  14.782
56804W        W25198  43.791   2.742  12.535
56805W        W25199  14.669  42.867  11.410
56806W        W25200  36.457  33.919   1.958
56807W        W25201  10.821  14.302  14.437
56808W        W25202   4.927  32.447   3.330
56809W        W25203  15.787  41.240   0.945
56810W        W25204  19.713   6.468   3.443
56811W        W25205  24.044  15.098   2.308
56812W        W25206  26.008  30.681   3.704
56813W        W25207  42.301  21.842   2.521
56814W        W25208  13.172  23.016  12.123
56815W        W25209   5.811  24.575  13.303
56816W        W25210  39.919  42.273   3.253
56817W        W25211  24.227  18.160   1.365
56818W        W25212  44.738   1.060   3.688
56819W        W25213  31.043  13.749   1.387
56820W        W25214   8.675  31.523  13.460
56821W        W25215  39.536  26.413   0.016
56822W        W25216  23.711  42.559   9.870
56823W        W25217  36.839   6.765   2.277
56824W        W25218  39.551   0.431   0.786
56825W        W25219  34.868  11.815   4.198
56826W        W25220   5.967  44.268   2.112
56827W        W25221  41.754   8.052   3.323
56828W        W25222   7.317   8.395  11.513
56829W        W25223  41.480  18.266  13.048
56830W        W25224  29.012  16.103  12.062
56831W        W25225  37.999   9.442  12.478
56832W        W25226  31.016  10.534   3.175
56833W        W25227  15.334  40.423   2.081
56834W        W25228  12.649  17.004  11.278
56835W        W25229  13.368  14.992   0.298
56836W        W25230  23.620   8.398   4.417
56837W        W25231  38.824   6.056  11.289
56838W        W25232  14.773  20.402  10.442
56839W        W25233   7.851  34.610  11.563
56840W        W25234   0.776  18.712   4.583
56841W        W25235  35.278  14.665  14.299
56842W        W25236  11.344  33.349   0.278
56843W        W25237   3.963   1.808  14.923
56844W        W25238  12.575  20.481  11.043
56845W        W25239  30.362  27.691  13.463
56846W        W25240  38.245  17.815   0.133
56847W        W25241  31.439  20.330  12.576
56848W        W25242  15.424  23.109   2.273
56849W        W25243   5.568  43.084  14.420
56850W        W25244  13.894  19.299   0.507
56851W        W25245   7.493  29.545   4.226
56852W        W25246  10.472  22.235   3.672
56853W        W25247  25.023  12.946   5.148
56854W        W25248  19.136  31.481  10.531
56855W        W25249  17.066  24.439   4.147
56856W        W25250   1.076  25.180   0.008
56857W        W25251  25.669  39.024  12.011
56858W        W25252  25.207  36.646  14.767
56859W        W25253  15.580  18.671  14.321
56860W        W25254  44.773  15.571  11.186
56861W        W25255   7.887  11.795   4.656
56862W        W25256  31.160  20.729   4.587
56863W        W25257   8.104   7.690   1.129
56864W        W25258  41.074  44.747   3.580
56865W        W25259   5.403  39.002   4.303
56866W        W25260   4.294  29.175   1.772
56867W        W25261  26.557  36.598   5.023
56868W        W25262  24.687  32.179   3.281
56869W        W25263  26.298  27.382   0.420
56870W        W25264  28.658  12.722  13.627
56871W        W25265  37.302  43.519   0.827
56872W        W25266   9.986  38.599  11.409
56873W        W25267  25.230  29.449  11.648
56874W        W25268  15.778  16.268   4.046
56875W        W25269  12.898  13.187  13.466
56876W        W25270  35.403   6.820   3.290
56877W        W25271  15.801  15.154   0.361
56878W        W25272  24.447   7.175   1.289
56879W        W25273   9.981  43.461  13.634
56880W        W25274  16.301   0.008   3.340
56881W        W25275  28.965  22.268  14.121
56882W        W25276  22.423  28.227   4.501
56883W        W25277  11.546   9.784   3.292
56884W        W25278  26.632  14.183   0.595
56885W        W25279  42.029   9.198   2.428
56886W        W25280  22.287  30.949   4.612
56887W        W25281  41.028   0.531   2.241
56888W        W25282  40.976  17.143   4.485
56889W        W25283  20.585   0.915   4.253
56890W        W25284  38.157  11.209  10.462
56891W        W25285  36.526  27.585   3.411
56892W        W25286  16.278   1.729   4.124
56893W        W25287  40.755  11.028  12.246
56894W        W25288  44.824  17.662  14.487
56895W        W25289   7.965  44.109   0.807
56896W        W25290  21.720  11.966   9.762
56897W        W25291  17.632  36.392   0.355
56898W        W25292  38.669  10.228   0.207
56899W        W25293   9.407  25.650  14.436
56900W        W25294   7.746  39.337  14.361
56901W        W25295  38.667  11.690  14.866
56902W        W25296  10.473  22.139  14.465
56903W        W25297  25.095  32.915  14.461
56904W        W25298  22.648  34.541   2.864
56905W        W25299   8.536  32.856  11.397
56906W        W25300  20.432   2.256  10.713
56907W        W25301  11.158  23.623   2.107
56908W        W25302  27.938  14.238  10.258
56909W        W25303  37.102  31.137   0.366
56910W        W25304  15.096  35.339   0.966
56911W        W25305  18.694  12.458  10.406
56912W        W25306   0.914  10.055   3.556
56913W        W25307  43.342  38.838   1.838
56914W        W25308  29.943  36.900   4.710
56915W        W25309  23.184   5.657  14.410
56916W        W25310   8.380  38.395  10.735
56917W        W25311  14.963   7.714   4.848
56918W        W25312  17.258  29.017  10.221
56919W        W25313  25.745   2.678   4.734
56920W        W25314  35.460  38.856   2.110
56921W        W25315  30.489  12.604  10.634
56922W        W25316   6.229  24.069   2.779
56923W        W25317  36.406  34.035   4.386
56924W        W25318   3.972  34.679   1.373
56925W        W25319   4.213  21.472  12.288
56926W        W25320  21.990   2.199   2.801
56927W        W25321  31.535  43.221  11.574
56928W        W25322  37.851   3.379   0.209
56929W        W25323  15.565  43.433   1.826
56930W        W25324  15.155  29.111   3.723
56931W        W25325  34.061  11.823   0.491
56932W        W25326   8.585  20.301  12.618
56933W        W25327  11.090  11.921  14.453
56934W        W25328  20.359  37.024   9.675
56935W        W25329  41.226  25.122  13.472
56936W        W25330  24.721   8.839   0.327
56937W        W25331   6.607  26.954   1.003
56938W        W25332  16.819  11.028   2.384
56939W        W25333  35.569   7.373   1.998
56940W        W25334  18.774  44.778  11.167
56941W        W25335  41.530  31.513  10.912
56942W        W25336  23.830  17.717  10.649
56943W        W25337  25.499   4.155  13.326
56944W        W25338  24.003  27.168   1.701
56945W        W25339  26.422   2.949  13.333
56946W        W25340  31.201  29.622   4.677
56947W        W25341  24.667  28.666  10.729
56948W        W25342   8.930  18.618   0.267
56949W        W25343  29.070   1.261  10.642
56950W        W25344   0.032  41.233  12.544
56951W        W25345  38.242  33.145  11.746
56952W        W25346  22.521  35.312  10.591
56953W        W25347  39.363  15.580  14.919
56954W        W25348   7.402  42.599  12.464
56955W        W25349  38.457  42.896  11.076
56956W        W25350  29.425  16.293   4.644
56957W        W25351  33.359  36.379   1.962
56958W        W25352  26.053   7.711  11.100
56959W        W25353  13.246  25.717   1.242
56960W        W25354  22.732  24.092   1.878
56961W        W25355  34.241  42.914  11.558
56962W        W25356  18.835  32.600  13.880
56963W        W25357  43.270  29.973   2.277
56964W        W25358  29.133  40.576   4.228
56965W        W25359   4.938  24.530  13.901
56966W        W25360  21.980  34.740   1.849
56967W        W25361   3.368  32.094   1.835
56968W        W25362  21.545  40.577   1.263
56969W        W25363  18.590  39.094   1.381
56970W        W25364  14.856  43.359   3.556
56971W        W25365  26.708  12.221  10.917
56972W        W25366  36.007  21.432  13.573
56973W        W25367  32.573  41.070  11.645
56974W        W25368  40.737  44.267  13.343
56975W        W25369  39.348   2.745  12.137
56976W        W25370  28.601   6.795  12.711
56977W        W25371   2.717   8.716   1.674
56978W        W25372  32.145  37.065   3.269
56979W        W25373  21.966  20.037   1.756
56980W        W25374  42.358  16.272  13.127
56981W        W25375   1.655  24.482   1.834
56982W        W25376  21.479  44.894   1.855
56983W        W25377   6.131  25.985   3.236
56984W        W25378   2.858  43.964  10.724
56985W        W25379   6.699  18.201   1.243
56986W        W25380   8.039  43.909  12.482
56987W        W25381  42.151  43.874  11.220
56988W        W25382  20.489   4.893   2.181
56989W        W25383  42.986  37.076   4.114
56990W        W25384  28.810  28.062   3.244
56991W        W25385  43.955   8.303   4.061
56992W        W25386  10.440  13.657   2.689
56993W        W25387  15.001  33.479   5.114
56994W        W25388  38.108   8.694  14.276
56995W        W25389   3.441  32.628  13.460
56996W        W25390   5.523   8.267   1.502
56997W        W25391  10.084   1.710   1.297
56998W        W25392   5.635  14.419  11.438
56999W        W25393  30.634  29.134   1.177
57000W        W25394  20.993   0.743   2.179
57001W        W25395  28.439  41.204   0.440
57002W        W25396   5.677  41.184  14.755
57003W        W25397  35.040   7.851   4.587
57004W        W25398  32.000  19.368   1.080
57005W        W25399  11.173  27.601  12.544
57006W        W25400  43.697   6.927  11.114
57007W        W25401  32.249   3.248  11.544
57008W        W25402  12.985   1.224  13.955
57009W        W25403   4.701  44.099   5.076
57010W        W25404  26.230   6.567  12.422
57011W        W25405  36.163   9.719  12.375
57012W        W25406  11.827  43.595  14.251
57013W        W25407  37.565  28.547   4.890
57014W        W25408  37.027  24.103  11.926
57015W        W25409   3.841  32.047   0.066
57016W        W25410  37.031   0.810   1.863
57017W        W25411  10.176  21.534   4.595
57018W        W25412  34.629  32.259   2.393
57019W        W25413  11.337   1.325  11.644
57020W        W25414  17.645  30.337   3.288
57021W        W25415  20.133   0.297   3.767
57022W        W25416  41.454  20.544   2.097
57023W        W25417  29.169  42.134  13.129
57024W        W25418  22.801   7.412   3.198
57025W        W25419  39.030  27.091  10.678
57026W        W25420  22.752  18.266  14.689
57027W        W25421   4.942  17.557  14.578
57028W        W25422  20.981  33.930   3.634
57029W        W25423  18.066  18.853   2.407
57030W        W25424  41.970  13.363  12.608
57031W        W25425  20.254   9.264   2.704
57032W        W25426  38.307  13.536   0.872
57033W        W25427  18.799   4.703   0.551
57034W        W25428   3.718  34.425  13.465
57035W        W25429  16.682  43.715   1.958
57036W        W25430  19.658  29.854   4.604
57037W        W25431   3.430  15.335  12.451
57038W        W25432  28.220  13.260  13.122
57039W        W25433   1.299  10.639   2.399
57040W        W25434  21.077  22.796  12.378
57041W        W25435  19.275  31.322   0.573
57042W        W25436   9.702  31.538   2.829
57043W        W25437  17.512   4.875  11.155
57044W        W25438   4.641  42.848   1.142
57045W        W25439  33.600  26.531   4.446
57046W        W25440   1.330  36.936  11.161
57047W        W25441  42.961  12.756   4.042
57048W        W25442  18.004  19.735  14.359
57049W        W25443  34.649  16.595   2.662
57050W        W25444  40.827   2.744  13.453
57051W        W25445  10.635  13.597  12.523
57052W        W25446  27.652  37.014   0.450
57053W        W25447   6.655  39.443   3.712
57054W        W25448  17.721  28.113   3.756
57055W        W25449  40.963  24.698   4.564
57056W        W25450  43.514   6.497   3.122
57057W        W25451  26.476  29.401   0.767
57058W        W25452  12.292  16.217   0.832
57059W        W25453  16.023  25.539  12.980
57060W        W25454   1.303  41.342   0.688
57061W        W25455  31.325  24.173   0.798
57062W        W25456  34.892  40.095   4.626
57063W        W25457  33.839  41.211  11.659
57064W        W25458  24.966  17.264   0.587
57065W        W25459  34.046   0.386  14.798
57066W        W25460  13.719  21.575  12.569
57067W        W25461  13.340  31.530   4.663
57068W        W25462  25.609  25.086   3.875
57069W        W25463  18.125  36.619  11.535
57070W        W25464  40.875  39.578   5.140
57071W        W25465  25.474  33.709  12.550
57072W        W25466  11.996  29.973  11.298
57073W        W25467  29.372  35.361  11.196
57074W        W25468   2.814  11.414  14.360
57075W        W25469  20.661  35.343  12.417
57076W        W25470  14.259  22.228  10.477
57077W        W25471  15.243   6.257  11.598
57078W        W25472  20.821   9.126   3.307
57079W        W25473   5.714  24.681  14.344
57080W        W25474  18.121  13.837  14.348
57081W        W25475  26.738   0.933  12.571
57082W        W25476   1.849  36.322  14.131
57083W        W25477  10.145  41.994  10.074
57084W        W25478  41.986  32.874   0.221
57085W        W25479   8.384   3.239   0.930
57086W        W25480  30.025  21.734   4.260
57087W        W25481  26.209  15.477  13.536
57088W        W25482  37.330  44.733  12.414
57089W        W25483  43.468  19.167  13.129
57090W        W25484   7.638  18.184  12.806
57091W        W25485  22.473  36.841   4.683
57092W        W25486   2.205  41.351   3.669
57093W        W25487  44.867   1.490  14.961
57094W        W25488  30.998  26.255  12.566
57095W        W25489  21.522  17.675   1.910
57096W        W25490  19.590  22.135  11.455
57097W        W25491  10.872  39.286  13.000
57098W        W25492  35.359   6.826   0.860
57099W        W25493  20.653  36.999   2.887
57100W        W25494   6.944   1.983  11.638
57101W        W25495  16.900  31.637  14.758
57102W        W25496  16.054  35.499  14.374
57103W        W25497  41.724   5.355   2.446
57104W        W25498  27.503  28.063  11.057
57105W        W25499  20.132  37.300  12.816
57106W        W25500  13.701  28.385   1.727
57107W        W25501  31.037  24.870  10.059
57108W        W25502  44.718  19.017   2.913
57109W        W25503  38.831   5.244  10.251
57110W        W25504  28.927  27.006   0.064
57111W        W25505  42.286  10.145  13.338
57112W        W25506   9.409  27.588   4.308
57113W        W25507   5.802  35.157   4.050
57114W        W25508   1.709  10.553  13.999
57115W        W25509  30.639  25.219   2.658
57116W        W25510  33.730  29.008   4.627
57117W        W25511   2.449   2.144  13.113
57118W        W25512  13.358  32.531   2.917
57119W        W25513  25.817  20.117   0.521
57120W        W25514  29.126  27.781   0.876
57121W        W25515  42.902  22.526   3.424
57122W        W25516  12.110  37.437  12.565
57123W        W25517  15.366  11.969   2.798
57124W        W25518  20.097  22.192   2.972
57125W        W25519  38.284  18.647  13.370
57126W        W25520   8.475   8.178  10.936
57127W        W25521  17.264   2.475  11.007
57128W        W25522   3.390  17.367   4.619
57129W        W25523  21.160  13.266  12.906
57130W        W25524  38.608  16.518   4.153
57131W        W25525  33.819  23.462   0.754
57132W        W25526  23.462  39.360   4.483
57133W        W25527  24.188  26.474  14.320
57134W        W25528  22.807  43.515  13.937
57135W        W25529  16.050  35.106   2.686
57136W        W25530   0.973   3.271  12.725
57137W        W25531  23.577  28.088   1.954
57138W        W25532   1.249  37.859  11.159
57139W        W25533  13.227  20.373  12.264
57140W        W25534  15.126   0.730   1.958
57141W        W25535  35.397  34.566   0.876
57142W        W25536   2.703  20.075  12.928
57143W        W25537   0.512  13.199   2.734
57144W        W25538  43.573  25.569   2.279
57145W        W25539  14.728  29.467   3.371
57146W        W25540  32.025  29.290  12.440
57147W        W25541  16.524  21.500   4.217
57148W        W25542  27.752  42.944   0.672
57149W        W25543  11.136   5.279   3.659
57150W        W25544  19.000  39.886  13.354
57151W        W25545   4.819  15.664   2.342
57152W        W25546  10.950  32.031  11.710
57153W        W25547  43.476   0.873  13.332
57154W        W25548   5.647  15.593   1.821
57155W        W25549  27.551   8.147  11.567
57156W        W25550  31.108  42.018  12.108
57157W        W25551  23.830  13.461   4.648
57158W        W25552  26.432  19.185  12.088
57159W        W25553  17.072  36.448   4.799
57160W        W25554  38.010   4.673  11.806
57161W        W25555   6.891   7.650   2.390
57162W        W25556  42.806  40.698   2.213
57163W        W25557  21.992  12.715   0.773
57164W        W25558   2.683  39.547  12.888
57165W        W25559   7.141  16.151  12.442
57166W        W25560  23.227   0.052  12.298
57167W        W25561  18.554   0.133  12.452
57168W        W25562  33.918  36.813  13.775
57169W        W25563  26.566  23.823   4.653
57170W        W25564  34.737  14.247   2.767
57171W        W25565   2.218  33.452   3.224
57172W        W25566  43.882   6.316  14.364
57173W        W25567  30.637   5.872  12.942
57174W        W25568  38.938  17.219   1.957
57175W        W25569  16.181  26.069  10.814
57176W        W25570  27.510  43.810   3.239
57177W        W25571  36.101  14.569  11.973
57178W        W25572  20.072   6.216  11.525
57179W        W25573  13.952  28.682   0.009
57180W        W25574   0.746  16.621   4.859
57181W        W25575  25.577   3.224  12.396
57182W        W25576  42.096   1.722   9.926
57183W        W25577  41.452  15.017   2.839
57184W        W25578  36.298  19.328   2.799
57185W        W25579  10.193  26.458  12.168
57186W        W25580  14.703  21.958  10.642
57187W        W25581  36.332  37.140   1.580
57188W        W25582   4.869  12.255  12.564
57189W        W25583   0.040  17.769  14.014
57190W        W25584  32.035  25.803   2.531
57191W        W25585  29.041  20.978  13.998
57192W        W25586  16.175  10.329  14.474
57193W        W25587   7.406  16.924   0.821
57194W        W25588  43.190  19.481   4.194
57195W        W25589   7.150  18.199   0.018
57196W        W25590  21.578  37.459  11.371
57197W        W25591  21.767  34.725  10.762
57198W        W25592   2.638   2.246  12.036
57199W        W25593  42.742  44.376   2.164
57200W        W25594  26.700  15.637  11.893
57201W        W25595  33.528  33.627  13.774
57202W        W25596  19.649  43.393  13.906
57203W        W25597  22.826  24.942   1.388
57204W        W25598  11.113  34.012   3.769
57205W        W25599  23.534  14.363   2.177
57206W        W25600   6.190  26.533  13.267
57207W        W25601  29.441  17.440   2.278
57208W        W25602   5.279  41.522   2.854
57209W        W25603   6.967  27.557  13.376
57210W        W25604  38.413  16.764  14.361
57211W        W25605   0.535   8.332  13.836
57212W        W25606  33.003  24.058  13.378
57213W        W25607   9.368  10.867   1.717
57214W        W25608  33.875   9.923   1.917
57215W        W25609   9.194  19.794   4.472
57216W        W25610   4.588  24.784   4.939
57217W        W25611  40.319  26.217  14.369
57218W        W25612   6.029  34.889  12.446
57219W        W25613  11.873   7.726  10.578
57220W        W25614   4.259  17.329   3.662
57221W        W25615   3.966   8.789  13.289
57222W        W25616  29.041  42.053  14.510
57223W        W25617   5.486  39.942  14.126
57224W        W25618  18.598  28.218   0.847
57225W        W25619  20.528  28.470  11.996
57226W        W25620   8.458   3.866  11.171
57227W        W25621  40.973   3.160   1.345
57228W        W25622   9.801  35.132   1.211
57229W        W25623  10.161  32.508   2.365
57230W        W25624  15.901  24.246  13.354
57231W        W25625  40.338  20.913  11.580
57232W        W25626  20.457  18.802  10.134
57233W        W25627  23.942  22.956  10.314
57234W        W25628  38.457   4.507  11.576
57235W        W25629  33.084  17.256  12.632
57236W        W25630   4.485  15.358  11.856
57237W        W25631  10.117  29.058  14.217
57238W        W25632  35.379  40.261  14.254
57239W        W25633   1.181   9.258   2.322
57240W        W25634  12.125  14.683   1.807
57241W        W25635   3.154   8.555   1.254
57242W        W25636   3.561  21.317   3.622
57243W        W25637  32.258   1.566  14.980
57244W        W25638  37.786   8.189   3.638
57245W        W25639  14.754  16.360  11.562
57246W        W25640  12.549   7.686   4.764
57247W        W25641  23.563   9.833   2.228
57248W        W25642  19.943  30.936  10.702
57249W        W25643  23.425  39.561   4.017
57250W        W25644  44.952   0.426  11.923
57251W        W25645  11.409  18.305   1.892
57252W        W25646  23.219  14.639   2.495
57253W        W25647  29.514  10.883  14.343
57254W        W25648  28.055  22.462  10.366
57255W        W25649   7.175  31.404  13.443
57256W        W25650  40.478  12.459   4.967
57257W        W25651  12.350   7.662  14.433
57258W        W25652  10.716  15.201  13.066
57259W        W25653  40.842  42.809  12.237
57260W        W25654  20.511  32.396  14.521
57261W        W25655   6.233  28.502  11.137
57262W        W25656  31.220  26.622   1.402
57263W        W25657  44.747   8.845   0.685
57264W        W25658  39.032  41.002   4.087
57265W        W25659  43.868  28.039  11.812
57266W        W25660  40.430  43.024   3.180
57267W        W25661   1.723   3.203   4.026
57268W        W25662  16.734  20.122  10.230
57269W        W25663  26.068  31.200   0.991
57270W        W25664   9.130  34.072  14.390
57271W        W25665  16.394  12.233  11.194
57272W        W25666   9.725  30.860   1.944
57273W        W25667  13.835   0.523   0.498
57274W        W25668  42.632  39.321   1.416
57275W        W25669  21.482  17.282  12.434
57276W        W25670  22.121   1.308  14.280
57277W        W25671  42.899   6.888  12.410
57278W        W25672   4.424  28.362  12.938
57279W        W25673  37.962  28.732   0.795
57280W        W25674  11.643  24.141  13.343
57281W        W25675  24.128  42.167  11.446
57282W        W25676  16.435  29.227   3.281
57283W        W25677  15.979  29.524  11.131
57284W        W25678   7.831  41.029  10.460
57285W        W25679  43.190  29.795  11.158
57286W        W25680  44.935  29.158  14.784
57287W        W25681   9.884  31.830   1.738
57288W        W25682  19.840  26.996  13.134
57289W        W25683  13.488  11.496  10.531
57290W        W25684  37.788  42.492   1.297
57291W        W25685  15.996  15.696  13.367
57292W        W25686  15.544   2.757   0.233
57293W        W25687  30.451  11.818   2.218
57294W        W25688  42.435  15.271   0.040
57295W        W25689  11.329  27.633   3.853
57296W        W25690  18.172   6.354   3.126
57297W        W25691  39.792   9.108   2.748
57298W        W25692  39.825  26.215   4.301
57299W        W25693  14.754   4.409  10.697
57300W        W25694  19.059  16.308  11.896
57301W        W25695  23.128   8.416   3.678
57302W        W25696  10.725   6.651  14.577
57303W        W25697  30.908   9.210   4.116
57304W        W25698  29.141  21.351  14.457
57305W        W25699   9.610   0.944   1.741
57306W        W25700  23.186  20.203  11.723
57307W        W25701  35.602  44.983  14.462
57308W        W25702  41.483  29.604  13.962
57309W        W25703  36.892  34.611   3.703
57310W        W25704   9.471  36.501   1.271
57311W        W25705  42.824  13.863  14.883
57312W        W25706   6.954  12.744  10.599
57313W        W25707   1.312  35.529   3.701
57314W        W25708  33.548  31.448   4.161
57315W        W25709  34.426   4.675  11.619
57316W        W25710  39.491  10.158  14.837
57317W        W25711  33.634  30.634  12.676
57318W        W25712  34.969  33.409  12.147
57319W        W25713  37.426  24.433   3.206
57320W        W25714   4.527  17.869  11.608
57321W        W25715  32.087  32.455   4.515
57322W        W25716   8.635  29.035  12.825
57323W        W25717  40.859  29.094  11.980
57324W        W25718  15.494  26.016   0.959
57325W        W25719  11.847  19.391   5.060
57326W        W25720   2.980   3.315  11.032
57327W        W25721  30.527  26.202  12.375
57328W        W25722   3.358  11.337   3.513
57329W        W25723  44.293  17.203   3.644
57330W        W25724   0.297   8.499   1.233
57331W        W25725  41.472  36.299   3.695
57332W        W25726   0.921  36.083  12.669
57333W        W25727  44.298   3.557  14.355
57334W        W25728   6.322  10.744   1.443
57335W        W25729  34.012  39.513   3.741
57336W        W25730  28.829   7.834  11.095
57337W        W25731   1.695  20.205  10.684
57338W        W25732  23.496   6.985  14.284
57339W        W25733   4.376   7.943   0.844
57340W        W25734  24.590  38.617   0.352
57341W        W25735  14.585  30.057  11.529
57342W        W25736  38.947  34.505  12.450
57343W        W25737  36.981  24.205  10.622
57344W        W25738  32.137  43.319   2.679
57345W        W25739  24.998  21.260  14.883
57346W        W25740  23.320   0.267  12.869
57347W        W25741   5.190   2.474  10.693
57348W        W25742  11.769  21.816   4.797
57349W        W25743  18.491  20.994  14.225
57350W        W25744  44.504  22.116   2.576
57351W        W25745  22.708  42.016  10.970
57352W        W25746   3.977  27.982  12.122
57353W        W25747  37.346  32.368   4.386
57354W        W25748  14.758  17.287  10.813
57355W        W25749  28.707  11.283  12.004
57356W        W25750  40.323  23.023  13.265
57357W        W25751   1.422  32.034   4.532
57358W        W25752  29.026  40.721  14.784
57359W        W25753  34.616  24.127   1.624
57360W        W25754   3.690   5.135  10.751
57361W        W25755  24.444  14.076  14.897
57362W        W25756  25.741  20.747  12.068
57363W        W25757  34.431  38.185  14.743
57364W        W25758   8.634  12.965   0.339
57365W        W25759   6.426  30.883   4.674
57366W        W25760  20.175  39.253  14.812
57367W        W25761   7.101  11.125   0.926
57368W        W25762  11.679  30.692  10.974
57369W        W25763  19.513  34.058  12.935
57370W        W25764   4.755   7.996  14.822
57371W        W25765  25.023  40.360  11.995
57372W        W25766   3.812  14.546   1.795
57373W        W25767  40.839  37.129   2.377
57374W        W25768  17.132  42.508  12.785
57375W        W25769   2.453  15.750  11.651
57376W        W25770  19.252  25.121  10.339
57377W        W25771  13.545   6.799   3.667
57378W        W25772  29.406  26.646  10.689
57379W        W25773  21.020  23.181  13.569
57380W        W25774  43.528  34.692   0.383
57381W        W25775   0.891  38.849   5.029
57382W        W25776  30.605  27.115  11.015
57383W        W25777  25.051  14.320   2.462
57384W        W25778  41.875  18.166   3.653
57385W        W25779  29.476  27.692   2.353
57386W        W25780  32.161  27.860  10.966
57387W        W25781  31.813   1.342  12.157
57388W        W25782  19.687  41.012   0.080
57389W        W25783  28.413  31.395   0.779
57390W        W25784   5.708   2.824   2.800
57391W        W25785   9.294  42.687   3.590
57392W        W25786  25.594   8.729   0.225
57393W        W25787  17.733   3.763  14.834
57394W        W25788  34.039  27.936  14.745
57395W        W25789  40.079  26.408   5.058
57396W        W25790  18.686  28.024   2.788
57397W        W25791  27.298  27.593   0.570
57398W        W25792  33.119   1.324  11.976
57399W        W25793  29.989  31.843   0.763
57400W        W25794  42.520   3.893   1.713
57401W        W25795  26.667  17.105  11.651
57402W        W25796  25.019   9.461   3.229
57403W        W25797  35.443  27.519   2.826
57404W        W25798  32.933  34.963  13.385
57405W        W25799   4.801   2.505   3.253
57406W        W25800  41.577  35.366  13.345
57407W        W25801  40.920  14.169  13.320
57408W        W25802  25.592   1.052  13.381
57409W        W25803  33.451   9.933   1.270
57410W        W25804   7.279   6.776   3.393
57411W        W25805  27.024  42.962  14.075
57412W        W25806  23.913  10.134   4.929
57413W        W25807  38.282   4.119  13.541
57414W        W25808   8.329   5.981   4.789
57415W        W25809  28.716   4.648  13.595
57416W        W25810  32.470   0.653  14.147
57417W        W25811  32.244  44.823   0.201
57418W        W25812  17.110  22.949   3.221
57419W        W25813  30.236   9.760  11.151
57420W        W25814  27.409   8.430  11.143
57421W        W25815  39.583  35.883   1.799
57422W        W25816  13.014  22.817  10.523
57423W        W25817  40.257  14.055  11.157
57424W        W25818  19.078  43.351   3.682
57425W        W25819  27.486  38.116  12.195
57426W        W25820  34.919  32.117   3.365
57427W        W25821   6.377  36.633  13.552
57428W        W25822   9.262  40.382   4.313
57429W        W25823  38.542  15.760   4.481
57430W        W25824   5.779  34.212   4.951
57431W        W25825  14.097   3.628   1.955
57432W        W25826  20.085  14.002   4.334
57433W        W25827  38.028  17.141   3.900
57434W        W25828  12.669  42.851  13.544
57435W        W25829  39.027   0.725  12.564
57436W        W25830  19.339  18.620   1.398
57437W        W25831  19.437  39.803   4.606
57438W        W25832  41.716  25.351   2.332
57439W        W25833  11.179   0.156  10.432
57440W        W25834   8.044  28.774   2.263
57441W        W25835  12.133  30.439  12.733
57442W        W25836   2.940  28.398   0.966
57443W        W25837  20.229   1.395   1.242
57444W        W25838  40.025  23.956  12.118
57445W        W25839  26.530  35.794  12.556
57446W        W25840  25.069  14.539  14.728
57447W        W25841  19.699  37.880  11.518
57448W        W25842   2.540  38.204   4.088
57449W        W25843  38.277   1.822  14.738
57450W        W25844  42.032  40.927   1.468
57451W        W25845  30.083  35.594  13.460
57452W        W25846  42.435  38.428  12.203
57453W        W25847  25.760  36.765   4.471
57454W        W25848  28.366  10.828  11.649
57455W        W25849  37.764  19.044   3.653
57456W        W25850  24.180  37.355  11.965
57457W        W25851   9.644   9.676  12.485
57458W        W25852  22.982  12.040  10.189
57459W        W25853  14.658  36.588  10.360
57460W        W25854   2.922  39.113   0.367
57461W        W25855  38.307   2.753  12.997
57462W        W25856  34.101  24.823  13.737
57463W        W25857  43.212   9.661   2.163
57464W        W25858  30.648  27.152  12.392
57465W        W25859   3.688   5.166   1.278
57466W        W25860  15.486   6.690   4.079
57467W        W25861  25.196  36.931  14.325
57468W        W25862  35.281  29.137  12.043
57469W        W25863  37.036   2.717  10.527
57470W        W25864  23.246   6.698   1.679
57471W        W25865  34.444   9.149  14.720
57472W        W25866  27.339  16.831  14.267
57473W        W25867  43.229  14.236  10.754
57474W        W25868  28.679   6.879   1.091
57475W        W25869   0.835  30.558  12.633
57476W        W25870   1.633  23.080   1.989
57477W        W25871  10.196   9.071  11.183
57478W        W25872  43.466  38.977  14.834
57479W        W25873  25.095  18.981   4.881
57480W        W25874  11.636  40.863   4.355
57481W        W25875  37.391  34.131   2.451
57482W        W25876  20.323   6.210   1.802
57483W        W25877  12.231  24.039   4.820
57484W        W25878  15.160  10.507  11.198
57485W        W25879  36.404  42.461   2.650
57486W        W25880  12.324  29.457  14.274
57487W        W25881  29.250  36.471  10.638
57488W        W25882  35.184  17.086  14.237
57489W        W25883  30.567  34.989  13.280
57490W        W25884  31.511  35.499   2.878
57491W        W25885  28.593   6.640  13.542
57492W        W25886  11.701  22.575   2.794
57493W        W25887  23.597   8.932   0.521
57494W        W25888  27.522   6.180   1.344
57495W        W25889  22.541  43.998   0.358
57496W        W25890  20.112  13.139   0.026
57497W        W25891  44.333  13.901   3.789
57498W        W25892  17.077  38.447   3.249
57499W        W25893   5.489   7.712   4.621
57500W        W25894  27.033   5.145  11.142
57501W        W25895  35.613   4.622   4.131
57502W        W25896  16.566  10.756  13.377
57503W        W25897  22.115  37.163   1.746
57504W        W25898  31.660  30.986  13.900
57505W        W25899   3.928  12.395   1.673
57506W        W25900  28.530  16.058  10.648
57507W        W25901  36.428   6.297   3.924
57508W        W25902  31.246  10.119  11.994
57509W        W25903  29.932   0.509  13.827
57510W        W25904  40.939   1.448   2.150
57511W        W25905   8.340  11.266  10.700
57512W        W25906  40.457   2.630  12.476
57513W        W25907  15.144   4.294   1.707
57514W        W25908  32.597  30.489   4.595
57515W        W25909  18.908  31.057  10.803
57516W        W25910  34.554   5.512   2.223
57517W        W25911  43.242  27.277  10.792
57518W        W25912  44.522  19.282  14.876
57519W        W25913  32.974  41.769  10.581
57520W        W25914  13.352   7.978   3.676
57521W        W25915  20.467  23.986  13.951
57522W        W25916  33.738  10.830   2.857
57523W        W25917  40.468  24.662  10.752
57524W        W25918   6.412  15.803   2.139
57525W        W25919  42.505  14.161   4.116
57526W        W25920   0.783  27.967   3.719
57527W        W25921  23.746  27.610  12.383
57528W        W25922  35.871  33.524   0.520
57529W        W25923  18.253  17.668   3.606
57530W        W25924  10.208  37.956   2.367
57531W        W25925  17.789  36.420  10.088
57532W        W25926  36.829   4.936   3.798
57533W        W25927   7.701   9.320  10.727
57534W        W25928  40.564   4.648   4.125
57535W        W25929  39.532   8.631  14.571
57536W        W25930   1.601  23.329   4.730
57537W        W25931  17.296  33.258  13.520
57538W        W25932  11.117   2.620  11.585
57539W        W25933  14.404   4.276  11.540
57540W        W25934  10.935  19.195  11.576
57541W        W25935  38.841  31.507   4.403
57542W        W25936  10.751  17.335   2.331
57543W        W25937  31.396  42.515   4.274
57544W        W25938  15.987   0.276   4.378
57545W        W25939  15.094  42.568  11.241
57546W        W25940  20.639  44.308  13.832
57547W        W25941  16.181  24.215  14.602
57548W        W25942  23.553  15.171   1.744
57549W        W25943  13.629  33.500   3.612
57550W        W25944  22.514  21.077   3.612
57551W        W25945   8.133  28.019   4.793
57552W        W25946  14.635  28.203  13.501
57553W        W25947   2.567  31.062   0.781
57554W        W25948   9.350  30.216   2.641
57555W        W25949   3.069  38.038   0.399
57556W        W25950   0.543  15.083   1.447
57557W        W25951  40.399  36.729  13.740
57558W        W25952  29.441  33.001  10.946
57559W        W25953  21.250  19.007  14.515
57560W        W25954  13.345  36.489  12.586
57561W        W25955  12.809  28.743  14.339
57562W        W25956  26.028  18.509   1.287
57563W        W25957  17.426  11.746  12.109
57564W        W25958  44.885   9.751   4.672
57565W        W25959  26.224  17.551   3.321
57566W        W25960   7.157  14.873  10.681
57567W        W25961   1.311   8.125  11.265
57568W        W25962   9.391  32.015   4.567
57569W        W25963  28.243  26.649  11.475
57570W        W25964  39.969  36.392   0.689
57571W        W25965  19.168  40.242   2.737
57572W        W25966   7.280  18.076   4.270
57573W        W25967  41.502  41.277   0.867
57574W        W25968  42.485  38.278  13.177
57575W        W25969  29.437  18.297   0.472
57576W        W25970  21.924  30.995   3.339
57577W        W25971   4.839  34.466  10.270
57578W        W25972  23.524  31.569  11.683
57579W        W25973  26.510  21.279   3.722
57580W        W25974  21.580  25.767  14.866
57581W        W25975   5.672  39.267  12.639
57582W        W25976  36.038  39.659   4.134
57583W        W25977   2.619  24.486   4.416
57584W        W25978  32.481   5.911  11.525
57585W        W25979   9.283   1.776  11.919
57586W        W25980  32.148  12.683   2.955
57587W        W25981  19.023  27.265   2.720
57588W        W25982  31.526   2.807  13.354
57589W        W25983  26.582  40.551   2.227
57590W        W25984  38.809   7.419  13.895
57591W        W25985  41.965  39.609   0.764
57592W        W25986  41.733  24.430   4.145
57593W        W25987   0.753   5.770  13.407
57594W        W25988  19.596  14.841  13.823
57595W        W25989   1.265  44.988  10.775
57596W        W25990  39.812  10.786  10.590
57597W        W25991  39.919  25.639   2.730
57598W        W25992   6.130  11.666  12.636
57599W        W25993   0.819  14.397  10.483
57600W        W25994  31.202  26.120   1.262
57601W        W25995  25.923  27.091  13.914
57602W        W25996  44.433  42.283   1.793
57603W        W25997  44.328  39.743  11.364
57604W        W25998  33.770   1.072   3.694
57605W        W25999  25.015  20.647   0.696
57606W        W26000  14.623   4.553   0.860
57607W        W26001  40.115  21.078   2.863
57608W        W26002  18.782  40.070   1.391
57609W        W26003   9.272  20.105  12.075
57610W        W26004   9.656  10.743   2.272
57611W        W26005  21.646  25.262  14.963
57612W        W26006  14.673  14.154   3.768
57613W        W26007   9.376  39.081   4.682
57614W        W26008  36.418  18.060  13.405
57615W        W26009  21.549  20.523   3.089
57616W        W26010  21.122  10.225   2.609
57617W        W26011  28.587  22.002  12.853
57618W        W26012  44.270  12.801   4.764
57619W        W26013   4.500  17.264   3.174
57620W        W26014  40.778  11.396   3.191
57621W        W26015  19.092   4.006  14.860
57622W        W26016   5.210  37.270  11.944
57623W        W26017   7.166  26.558   2.792
57624W        W26018  42.326  12.264   1.401
57625W        W26019   4.272   9.729  12.827
57626W        W26020  33.219  16.830   2.613
57627W        W26021  43.360  41.620   2.672
57628W        W26022  28.429  22.109  11.401
57629W        W26023  22.234  30.575   3.195
57630W        W26024  35.971  43.984  12.344
57631W        W26025  14.046  40.797   1.226
57632W        W26026  12.835   4.640   3.225
57633W        W26027  40.558  39.367  11.981
57634W        W26028   0.050  19.137   4.842
57635W        W26029  36.902  34.023  10.896
57636W        W26030  44.367  28.098  12.668
57637W        W26031  34.604   6.323   0.010
57638W        W26032  21.175  23.850  14.955
57639W        W26033  25.123  27.561   4.199
57640W        W26034   8.662  37.260  13.911
57641W        W26035   9.872  22.167   1.828
57642W        W26036  16.397   7.741   0.215
57643W        W26037  34.909  13.456   3.580
57644W        W26038  43.553  31.204   1.901
57645W        W26039   6.352   0.462  10.644
57646W        W26040  33.486  27.019  12.064
57647W        W26041  39.122  19.573   2.079
57648W        W26042   7.359  10.159   4.102
57649W        W26043  34.624  34.887   4.624
57650W        W26044  14.106   9.810  12.853
57651W        W26045  39.470   1.457   0.953
57652W        W26046  25.106   1.672   2.726
57653W        W26047  30.967  34.175  13.098
57654W        W26048  16.016  28.702  10.703
57655W        W26049  31.897   4.929  14.618
57656W        W26050   5.033  19.992  14.758
57657W        W26051  33.580  20.171   2.343
57658W        W26052  31.975   7.705   0.005
57659W        W26053  40.530  25.442  13.338
57660W        W26054  33.985  43.026  11.124
57661W        W26055  32.073  11.234  13.583
57662W        W26056  22.504  31.025  11.109
57663W        W26057  29.834  44.475  12.018
57664W        W26058  34.564  34.053   0.793
57665W        W26059  24.728   5.653   0.394
57666W        W26060  37.790  33.991  13.126
57667W        W26061  19.917  11.357  14.976
57668W        W26062   0.090  22.801   3.741
57669W        W26063  15.134   1.815   0.976
57670W        W26064   3.011  27.566   4.644
57671W        W26065  40.242   9.406  12.655
57672W        W26066  14.453  41.295  11.924
57673W        W26067  31.986   1.770   1.336
57674W        W26068  17.003   0.808  11.537
57675W        W26069  37.618   7.432  11.122
57676W        W26070  28.150   8.827   3.776
57677W        W26071   8.406  18.117  14.435
57678W        W26072   2.765  30.537   4.406
57679W        W26073  13.126   0.014  11.370
57680W        W26074  33.379  34.659  11.856
57681W        W26075   4.239   0.917  14.522
57682W        W26076  19.239  27.305  13.927
57683W        W26077  39.236   1.978   0.773
57684W        W26078  33.000   3.384  13.912
57685W        W26079  29.169  32.849  12.514
57686W        W26080   3.840  15.266   1.690
57687W        W26081  13.335  32.111   5.083
57688W        W26082  28.184   1.581  13.059
57689W        W26083  12.189  16.790   2.455
57690W        W26084  29.948  39.634   4.072
57691W        W26085  27.395  41.475  11.043
57692W        W26086  24.525  38.977   4.550
57693W        W26087  42.292  32.124   4.170
57694W        W26088  18.765  26.593   4.290
57695W        W26089   9.398   8.761  10.253
57696W        W26090  10.749  15.309  14.016
57697W        W26091  37.804  39.805  13.829
57698W        W26092  23.468  29.479  11.190
57699W        W26093   4.204  34.488   0.023
57700W        W26094  43.976  16.133  11.549
57701W        W26095  17.165   7.619  12.986
57702W        W26096   2.412   8.791  13.834
57703W        W26097  17.953  12.375   1.402
57704W        W26098  11.867  33.591   1.187
57705W        W26099  12.369  41.867  11.531
57706W        W26100  44.464  44.948  13.160
57707W        W26101  21.664  40.223   0.896
57708W        W26102   7.693  15.078  14.793
57709W        W26103  27.500  23.761   3.650
57710W        W26104  14.845  44.036  13.796
57711W        W26105   1.441  25.089   2.107
57712W        W26106  25.882  23.969   1.195
57713W        W26107   2.215  19.099  13.896
57714W        W26108   0.012  13.252  10.503
57715W        W26109  22.589  39.027  10.730
57716W        W26110  26.480  30.962  14.302
57717W        W26111  44.761   9.812   0.398
57718W        W26112  32.109  25.199   0.182
57719W        W26113  18.475  36.105  11.942
57720W        W26114  20.162  29.901   1.648
57721W        W26115   4.367  30.512   2.572
57722W        W26116  38.362  32.637  14.063
57723W        W26117  28.065  36.400   2.124
57724W        W26118   2.880   0.846  13.503
57725W        W26119   4.170  44.845  11.111
57726W        W26120  28.142  33.920   3.688
57727W        W26121  10.492   1.567   2.224
57728W        W26122   1.199  22.711   4.196
57729W        W26123  29.116  23.675   4.023
57730W        W26124  43.316  10.987  12.630
57731W        W26125  39.481   7.169  12.023
57732W        W26126  29.960  13.351  14.996
57733W        W26127  31.659  39.852   1.231
57734W        W26128  20.170  16.088  13.499
57735W        W26129   7.248  25.557   2.014
57736W        W26130  43.246  27.593  12.442
57737W        W26131  10.301   0.444   4.251
57738W        W26132  22.493   8.670  13.844
57739W        W26133  11.971  17.103  12.468
57740W        W26134   5.913   1.299  13.338
57741W        W26135  20.911   2.260   0.916
57742W        W26136  25.035  41.035  12.336
57743W        W26137  23.670  24.115   4.212
57744W        W26138   6.300  21.058  10.228
57745W        W26139  38.327  33.968   2.004
57746W        W26140  36.467  20.171   0.679
57747W        W26141   6.506  44.382   0.491
57748W        W26142  14.340  29.495  12.580
57749W        W26143  44.017  41.321   0.912
57750W        W26144   9.133  33.469  12.465
57751W        W26145  42.603  17.034   2.341
57752W        W26146  33.088  31.223  13.904
57753W        W26147  43.602  12.514   2.154
57754W        W26148  38.354  44.828  12.500
57755W        W26149  27.069  27.130  14.703
57756W        W26150  18.467  14.493   3.244
57757W        W26151  39.390  38.648  12.333
57758W        W26152  23.301  30.367   2.088
57759W        W26153  30.338  17.622  14.376
57760W        W26154  11.357   9.739   2.191
57761W        W26155  32.325  40.293  14.232
57762W        W26156   3.056   3.286   2.884
57763W        W26157   5.177  10.332  12.150
57764W        W26158  41.944  14.839   0.953
57765W        W26159  21.095  22.136   4.695
57766W        W26160  30.979   8.596  11.207
57767W        W26161   9.470  26.743   3.329
57768W        W26162  25.103  30.887   5.081
57769W        W26163  31.483   6.619  13.825
57770W        W26164  43.743  37.381  12.890
57771W        W26165  25.285  34.991   0.875
57772W        W26166  35.751  37.234   1.379
57773W        W26167  43.770   3.149  10.534
57774W        W26168  22.647  16.160  11.874
57775W        W26169  43.999  25.283   1.428
57776W        W26170  33.976  36.528  13.302
57777W        W26171  17.993  27.614  14.755
57778W        W26172  18.480  19.011  11.719
57779W        W26173  39.497  39.524   3.564
57780W        W26174  18.050  44.785  10.674
57781W        W26175  28.471  30.103   1.420
57782W        W26176  35.954   5.086  14.100
57783W        W26177  31.921   6.462  13.070
57784W        W26178  43.418  11.154   4.632
57785W        W26179  38.058  12.227  11.228
57786W        W26180   4.495   1.163  11.550
57787W        W26181  43.657  17.080   1.639
57788W        W26182  24.131  23.425   0.400
57789W        W26183   4.669  41.555   1.719
57790W        W26184  24.423  21.428  12.898
57791W        W26185   3.979  36.545   2.099
57792W        W26186  44.907  42.522   1.686
57793W        W26187   2.634  18.148  13.796
57794W        W26188  40.245   2.221  11.645
57795W        W26189  27.599  44.860  11.803
57796W        W26190   9.079  14.532   4.135
57797W        W26191  11.811   5.660  11.897
57798W        W26192  10.334  22.565  11.671
57799W        W26193   3.103  24.928  13.068
57800W        W26194   2.969   4.066   3.493
57801W        W26195  22.141  26.560   5.067
57802W        W26196  16.617  22.802  11.188
57803W        W26197  15.889  12.280  11.157
57804W        W26198   2.928  20.232   1.215
57805W        W26199  21.438  14.170   0.947
57806W        W26200  24.062   5.224   3.118
57807W        W26201  43.987  19.185  13.071
57808W        W26202   3.306  37.032   1.231
57809W        W26203   8.954  23.005  12.067
57810W        W26204  22.134   3.456   4.141
57811W        W26205  14.046  36.311   5.069
57812W        W26206  13.198  43.912  10.491
57813W        W26207  21.612  37.286  10.890
57814W        W26208  30.025  17.261  13.621
57815W        W26209   2.480   4.565  10.773
57816W        W26210   0.045  17.593   0.378
57817W        W26211   6.726  17.777   0.168
57818W        W26212   1.459  36.164   0.861
57819W        W26213  28.271  23.770   1.409
57820W        W26214  27.521  42.966   4.593
57821W        W26215   0.780   7.262   2.670
57822W        W26216  18.029   3.340   2.845
57823W        W26217  26.594  23.200  14.548
57824W        W26218  10.346  27.148   4.527
57825W        W26219  15.885  11.528  13.256
57826W        W26220  29.655  24.028   1.455
57827W        W26221   1.229   9.678   0.354
57828W        W26222  27.049   8.677   0.877
57829W        W26223  23.591  29.758   0.314
57830W        W26224   8.761  31.088   0.084
57831W        W26225   3.755  13.844   3.215
57832W        W26226  12.750  38.311  11.215
57833W        W26227  23.762  28.145  13.810
57834W        W26228  21.640   8.593   2.468
57835W        W26229  39.254  13.351  14.477
57836W        W26230  17.798  23.457   0.253
57837W        W26231  40.265  31.150   3.829
57838W        W26232  37.971  14.836  13.152
57839W        W26233   5.257   2.794   3.143
57840W        W26234   9.301  27.508  10.920
57841W        W26235   3.498  37.071   2.237
57842W        W26236  10.913  27.564  12.102
57843W        W26237  19.068  41.685  13.966
57844W        W26238   6.831  23.412   5.517
57845W        W26239  37.738  44.414  12.402
57846W        W26240  25.212  16.203   2.019
57847W        W26241  31.038  34.080  12.496
57848W        W26242   5.067  24.144   2.114
57849W        W26243  24.264  15.680   3.589
57850W        W26244  20.095   3.065  11.041
57851W        W26245  10.498  26.138   0.055
57852W        W26246   2.886  22.301  12.359
57853W        W26247  21.495   8.159   0.332
57854W        W26248  43.455  37.589  14.321
57855W        W26249   3.623  28.137   3.204
57856W        W26250   2.426  37.468  10.644
57857W        W26251  27.925  36.795  12.909
57858W        W26252  24.128  33.494  10.167
57859W        W26253  23.102  29.548   2.832
57860W        W26254  13.312   2.215  10.955
57861W        W26255   3.958  31.500   1.725
57862W        W26256  11.839  43.960  12.528
57863W        W26257   4.357  13.829   2.540
57864W        W26258  43.924  40.798   4.702
57865W        W26259   2.847  36.041  10.425
57866W        W26260  32.650  28.587  10.646
57867W        W26261  38.810  33.143  12.880
57868W        W26262  28.746  42.298  12.855
57869W        W26263   2.770  12.662   3.724
57870W        W26264  13.753  43.050  13.956
57871W        W26265  41.369  27.056  11.194
57872W        W26266   3.720  17.331   3.658
57873W        W26267  16.160   0.048  14.035
57874W        W26268  40.792   4.485   3.677
57875W        W26269  37.584  24.554   1.404
57876W        W26270  39.365  27.831  12.531
57877W        W26271  33.413  39.276   0.863
57878W        W26272   1.745  22.791   2.395
57879W        W26273  25.083  39.599   1.771
57880W        W26274  23.724  31.482  12.644
57881W        W26275  35.977  38.883   2.879
57882W        W26276  20.055  39.457   3.368
57883W        W26277  26.467  14.499  12.493
57884W        W26278  17.778  23.729  12.603
57885W        W26279  31.685  36.282   1.285
57886W        W26280  23.133  26.065   2.749
57887W        W26281  27.072   2.280  12.096
57888W        W26282  12.721  28.586  10.727
57889W        W26283   6.718  43.814  13.783
57890W        W26284  13.539  17.571  10.450
57891W        W26285  30.684  43.423  11.754
57892W        W26286  41.203  31.793   3.502
57893W        W26287   3.022  14.348  13.878
57894W        W26288   3.000  33.134  14.292
57895W        W26289   3.737  11.138   3.808
57896W        W26290  43.859  13.614  11.597
57897W        W26291   2.176   3.185  10.735
57898W        W26292   4.000   5.459   3.162
57899W        W26293   8.832  17.166   0.819
57900W        W26294  22.207  19.548  10.392
57901W        W26295  18.952  41.249  12.664
57902W        W26296  40.262  32.036   1.900
57903W        W26297  40.392  20.246  10.352
57904W        W26298  11.857  42.075   0.313
57905W        W26299  34.611  27.334   2.759
57906W        W26300  14.442   5.304   2.576
57907W        W26301  35.451  33.322   2.325
57908W        W26302   8.423  44.539   1.871
57909W        W26303   8.240  42.004  11.175
57910W        W26304  12.292   1.682   3.080
57911W        W26305  40.820  26.573  11.744
57912W        W26306   6.406  19.239   0.801
57913W        W26307  34.160  19.449  13.326
57914W        W26308  24.780  12.234  11.633
57915W        W26309  22.051  16.289   2.154
57916W        W26310   0.264  44.366  13.372
57917W        W26311   0.241  27.993   0.296
57918W        W26312  38.695   5.661  14.374
57919W        W26313   8.173  12.706   9.852
57920W        W26314   8.666  25.265   2.255
57921W        W26315  33.385  33.952  11.009
57922W        W26316  36.533  30.414  14.305
57923W        W26317  33.571  15.608  13.200
57924W        W26318  16.736  17.754   2.262
57925W        W26319  19.743   2.544   4.041
57926W        W26320  44.448  28.180   4.186
57927W        W26321  26.653  18.156   4.692
57928W        W26322  26.995  44.940   5.472
57929W        W26323  41.455  37.437  13.911
57930W        W26324  43.881   3.252   4.001
57931W        W26325  12.129  41.847  12.902
57932W        W26326  11.772  41.270   1.645
57933W        W26327  36.049   5.168  13.588
57934W        W26328  28.660  42.503   3.607
57935W        W26329   2.252  33.138  11.553
57936W        W26330  37.353  41.798   3.699
57937W        W26331  42.778  28.072  14.871
57938W        W26332  12.317  42.530  14.709
57939W        W26333  10.366   3.352  14.731
57940W        W26334  18.574  27.102   0.976
57941W        W26335  30.775  30.413   1.267
57942W        W26336   0.392   5.360  13.366
57943W        W26337  37.797  42.255   2.778
57944W        W26338  38.306   1.036   0.360
57945W        W26339   3.326  19.575  10.326
57946W        W26340   4.674   7.102   3.851
57947W        W26341  26.876  16.869  13.502
57948W        W26342  28.467  26.632   4.192
57949W        W26343  44.036  40.377   4.979
57950W        W26344  26.679  16.231  12.558
57951W        W26345  13.166  41.808  11.955
57952W        W26346  31.127  33.975   4.179
57953W        W26347  31.438  39.463  13.051
57954W        W26348   7.111  41.499   1.864
57955W        W26349   5.429   2.378   2.870
57956W        W26350   2.257  38.794   2.203
57957W        W26351   7.989  32.090   1.631
57958W        W26352  19.293   2.312   2.295
57959W        W26353   7.917  41.697  14.580
57960W        W26354  15.429  20.097  12.912
57961W        W26355   4.286  10.250   3.090
57962W        W26356   4.845  34.914   1.173
57963W        W26357  22.359  37.642   1.715
57964W        W26358  18.724  44.990  14.941
57965W        W26359  33.316  42.236   3.660
57966W        W26360  11.776  43.748  13.358
57967W        W26361  18.173  28.364  12.347
57968W        W26362  19.077  15.872   1.448
57969W        W26363  11.814  27.383   2.844
57970W        W26364  26.120   4.637  12.737
57971W        W26365  26.444  34.637  11.331
57972W        W26366  20.159  19.232   3.859
57973W        W26367   1.892  22.932  11.638
57974W        W26368  30.616  35.450  13.517
57975W        W26369  43.058  27.040  13.515
57976W        W26370  41.553   5.359   2.950
57977W        W26371  32.948  30.412   2.382
57978W        W26372  11.680  38.013  14.099
57979W        W26373  15.970   8.462  14.027
57980W        W26374  19.584   7.093   0.569
57981W        W26375  35.788   3.111   4.343
57982W        W26376  24.476  40.781   1.946
57983W        W26377  37.501   6.987  14.427
57984W        W26378  18.954  20.140  12.958
57985W        W26379  29.034  40.374   0.680
57986W        W26380  30.933  12.907   2.541
57987W        W26381  17.439  23.063   0.968
57988W        W26382   2.676   6.756  11.370
57989W        W26383  31.080  15.073  11.951
57990W        W26384   9.317  36.731   3.700
57991W        W26385  34.694  25.913  11.218
57992W        W26386  39.354  24.262  10.933
57993W        W26387  19.461   2.852   3.728
57994W        W26388  23.270  24.050   3.607
57995W        W26389  28.845  32.888  11.687
57996W        W26390  23.613  31.105   2.396
57997W        W26391   5.337  18.310  12.654
57998W        W26392  16.408   0.374   2.900
57999W        W26393  12.212  23.633  14.917
58000W        W26394  13.250   3.875  12.965
58001W        W26395  20.359  14.110   2.744
58002W        W26396  28.036   3.147   3.274
58003W        W26397  42.385  28.350   1.827
58004W        W26398  39.691  12.684  12.591
58005W        W26399  14.204  37.127   1.907
58006W        W26400  29.684  42.521   2.338
58007W        W26401  37.080  40.256  14.889
58008W        W26402  15.718  44.468   1.781
58009W        W26403  33.674  42.972   4.100
58010W        W26404  10.286   7.621   1.689
58011W        W26405  37.533  27.085   3.744
58012W        W26406   0.471  13.108   4.141
58013W        W26407  36.028  24.181   4.732
58014W        W26408  21.561  42.309  13.549
58015W        W26409  35.979  22.487   0.965
58016W        W26410  37.581   4.959  10.595
58017W        W26411  21.358  32.965   2.565
58018W        W26412   2.997  35.570  14.442
58019W        W26413  15.533  31.951   2.731
58020W        W26414  43.318  22.889  10.360
58021W        W26415  33.799  11.926   3.502
58022W        W26416   9.270  28.435  10.874
58023W        W26417  15.279   9.822   4.511
58024W        W26418   7.747  39.087  13.852
58025W        W26419  26.915  35.408  11.959
58026W        W26420   7.690  14.370   1.291
58027W        W26421  28.232   5.846  11.418
58028W        W26422   3.723  26.055   1.343
58029W        W26423  33.141   4.395  11.622
58030W        W26424  10.446  21.750   4.220
58031W        W26425   9.645  38.233   3.713
58032W        W26426  18.012  20.545   1.476
58033W        W26427  35.489   2.953   4.742
58034W        W26428  43.885  35.862   4.442
58035W        W26429  40.184  42.512  13.030
58036W        W26430  32.439   8.103  12.926
58037W        W26431   9.624  13.224  10.919
58038W        W26432  30.136  22.718   3.179
58039W        W26433  38.851  14.309  11.056
58040W        W26434  44.987   0.567   1.765
58041W        W26435  39.456  12.327   1.854
58042W        W26436   3.759  28.999  12.967
58043W        W26437   0.018   6.267  13.053
58044W        W26438  24.734  20.583   3.762
58045W        W26439   1.183  32.479   4.373
58046W        W26440  16.352   9.166   4.076
58047W        W26441  10.923  13.837   2.486
58048W        W26442  37.851  31.154   3.433
58049W        W26443  38.071  23.218   3.104
58050W        W26444  18.918  33.357   1.685
58051W        W26445  26.557  26.534   4.658
58052W        W26446   9.309  11.394   1.727
58053W        W26447  36.854  12.051   2.476
58054W        W26448  18.611  18.624   4.401
58055W        W26449  30.189  11.626  13.746
58056W        W26450  19.646  40.084   2.881
58057W        W26451  28.552   8.732   2.465
58058W        W26452  15.310   2.416   4.674
58059W        W26453  12.957   1.946   0.162
58060W        W26454  34.129   7.787  11.218
58061W        W26455  12.836  17.797   1.211
58062W        W26456  14.899  39.821   2.787
58063W        W26457  44.472  31.544   0.341
58064W        W26458  16.589  16.077  14.682
58065W        W26459   0.846  25.063  10.968
58066W        W26460  17.734   7.782  12.949
58067W        W26461  31.492  38.949  12.980
58068W        W26462  35.706  30.200  14.421
58069W        W26463  10.742   8.295   2.238
58070W        W26464   8.597  29.842   0.414
58071W        W26465  26.285  23.582   0.899
58072W        W26466  16.787  33.261   2.684
58073W        W26467  40.967  36.104   3.575
58074W        W26468  27.493   3.614   0.361
58075W        W26469  42.495  43.369   1.114
58076W        W26470  30.534  33.562   3.732
58077W        W26471  10.204  11.898   1.714
58078W        W26472   6.010  36.614  11.833
58079W        W26473  36.893  31.691   1.393
58080W        W26474  28.900   9.930  10.664
58081W        W26475  14.286  18.112   4.136
58082W        W26476  26.252  29.214  14.840
58083W        W26477   9.704  25.290  14.768
58084W        W26478  37.381  27.500   0.771
58085W        W26479  31.380  36.314  14.554
58086W        W26480  14.821  32.426  13.861
58087W        W26481  11.651  38.067  11.913
58088W        W26482   7.702  14.685   0.881
58089W        W26483  13.183  18.288   3.828
58090W        W26484  25.165   8.887  13.380
58091W        W26485   7.902   6.412   1.858
58092W        W26486   3.740  42.487   0.358
58093W        W26487  28.049  20.287   1.824
58094W        W26488  27.143  41.449   2.429
58095W        W26489  19.007  34.891  14.012
58096W        W26490   0.405  15.308  12.923
58097W        W26491  41.792  42.534   2.661
58098W        W26492  24.187   6.883   4.120
58099W        W26493  18.640  41.031  13.557
58100W        W26494  38.860   0.029   0.181
58101W        W26495   3.187  31.703  13.516
58102W        W26496  29.088   1.969   3.373
58103W        W26497  26.427  29.973  11.837
58104W        W26498  27.386   7.903  11.153
58105W        W26499  15.039  39.643  13.023
58106W        W26500  35.040  11.507  11.177
58107W        W26501  31.145  10.747   1.828
58108W        W26502  32.556  28.030   3.208
58109W        W26503  37.378  30.550  13.060
58110W        W26504  22.573   8.669   3.985
58111W        W26505  10.265   2.701   3.673
58112W        W26506  12.074  23.279  14.564
58113W        W26507  37.329  40.403  14.422
58114W        W26508   6.142  13.240  11.716
58115W        W26509  26.758   3.089  14.908
58116W        W26510  20.413  14.351   9.988
58117W        W26511   1.906  27.619  11.144
58118W        W26512  43.093   3.947   4.791
58119W        W26513   4.207  24.470  14.515
58120W        W26514  30.312  29.002  11.372
58121W        W26515  26.916  18.271  12.076
58122W        W26516   6.228  21.726  11.413
58123W        W26517   5.368  28.227   3.563
58124W        W26518  31.601  33.413   2.811
58125W        W26519   7.624  35.625  14.016
58126W        W26520  21.040  27.955   0.323
58127W        W26521  42.954   4.467  14.476
58128W        W26522  26.584  36.019   1.647
58129W        W26523   3.833  21.985  13.854
58130W        W26524   4.822  10.249  13.554
58131W        W26525  40.422  20.100   3.922
58132W        W26526   0.832  10.633   0.200
58133W        W26527  10.755   7.823  10.553
58134W        W26528  27.055  13.642   4.878
58135W        W26529  38.467   2.287   1.776
58136W        W26530  40.917  21.948   3.137
58137W        W26531  41.958   2.479   3.909
58138W        W26532   7.379  39.924   4.186
58139W        W26533  25.663   7.381  12.389
58140W        W26534  43.141   3.634   9.993
58141W        W26535   0.286  33.865   2.155
58142W        W26536  27.475  19.225   3.569
58143W        W26537  19.452  33.001  13.922
58144W        W26538  12.710  24.603  13.095
58145W        W26539  18.483   7.896   2.712
58146W        W26540  34.121  21.617   2.228
58147W        W26541  25.747  41.299   3.747
58148W        W26542  21.938  34.124   2.809
58149W        W26543   4.739   7.212   0.450
58150W        W26544   7.224   1.726   2.568
58151W        W26545   3.269  39.032  14.947
58152W        W26546  21.923  19.666  14.632
58153W        W26547   6.758  21.510   2.754
58154W        W26548  35.613  41.852   2.676
58155W        W26549  24.211  30.333  11.090
58156W        W26550  30.765  39.837   0.475
58157W        W26551  27.922  36.341  12.558
58158W        W26552  36.462  37.605   5.046
58159W        W26553   7.155  36.610   1.743
58160W        W26554  18.311  11.931  14.410
58161W        W26555  36.041  28.860  10.761
58162W        W26556  19.513  27.079   2.698
58163W        W26557  33.362  21.124   1.662
58164W        W26558  27.697  36.736  13.398
58165W        W26559  44.919  44.735   4.267
58166W        W26560  15.262  33.957   4.851
58167W        W26561  19.486   1.875  14.790
58168W        W26562  27.063  27.599  14.463
58169W        W26563  21.512  17.097   4.561
58170W        W26564   4.804   9.178   2.387
58171W        W26565  42.961  12.597  11.077
58172W        W26566  18.302   9.639   2.244
58173W        W26567  28.549  34.552  11.620
58174W        W26568  44.009   9.210  12.502
58175W        W26569   6.872  22.028   2.778
58176W        W26570  40.410  13.236  12.576
58177W        W26571  31.445  16.064  12.427
58178W        W26572  18.586  26.084   4.545
58179W        W26573  15.861   9.267   4.162
58180W        W26574  29.735  31.424   0.279
58181W        W26575  42.946  38.283   2.333
58182W        W26576  36.009  28.551  14.481
58183W        W26577   0.624  25.267   3.171
58184W        W26578  41.263  39.677  14.466
58185W        W26579  26.278  15.277   2.819
58186W        W26580  34.477   7.619   4.567
58187W        W26581  19.279   4.225   1.500
58188W        W26582  38.358  21.724  12.981
58189W        W26583  32.559  17.312  14.418
58190W        W26584  38.809  40.834  11.608
58191W        W26585  33.067  24.135  14.406
58192W        W26586   7.686   4.407  12.893
58193W        W26587  19.302  18.190  13.053
58194W        W26588  33.598  39.060  11.230
58195W        W26589  31.076  23.541   4.646
58196W        W26590  38.465   3.850  14.840
58197W        W26591   0.889   2.435  14.492
58198W        W26592  44.030  22.363   4.494
58199W        W26593  39.864  42.519   2.795
58200W        W26594   4.839  38.641  11.203
58201W        W26595   4.430  18.181  11.010
58202W        W26596  29.532  32.270   1.783
58203W        W26597  43.443  23.002  14.837
58204W        W26598  37.020  17.863  12.440
58205W        W26599  25.657  25.052  14.269
58206W        W26600  37.780  24.998  11.522
58207W        W26601  31.693  11.987   1.769
58208W        W26602  31.305  26.948  14.049
58209W        W26603  33.292  29.936   1.158
58210W        W26604   3.630  30.074   2.131
58211W        W26605   3.398  30.071  12.962
58212W        W26606  10.757  23.754   2.479
58213W        W26607  21.379  27.393  12.509
58214W        W26608  31.132  36.122  10.595
58215W        W26609  36.898  37.476   1.947
58216W        W26610  22.176  32.651   2.907
58217W        W26611  26.115   9.852   5.051
58218W        W26612  40.867  32.597  10.733
58219W        W26613  34.889  20.218  14.380
58220W        W26614  41.964  40.013   4.331
58221W        W26615   6.648  16.397  10.319
58222W        W26616   5.789  12.936  11.996
58223W        W26617  19.986   4.227   0.455
58224W        W26618  15.318  16.749   1.334
58225W        W26619  41.336  31.947  14.883
58226W        W26620  37.993  44.373  14.868
58227W        W26621  18.957  37.945  14.469
58228W        W26622  19.764  23.237  12.877
58229W        W26623  16.319  36.589   0.900
58230W        W26624   4.551  24.001   2.131
58231W        W26625  20.548  33.078  12.847
58232W        W26626  15.914   6.269   2.722
58233W        W26627  32.844  27.425  12.881
58234W        W26628   6.703  27.751  11.077
58235W        W26629  35.428  30.386   4.046
58236W        W26630   7.841  12.101   2.906
58237W        W26631  32.577  24.998  11.574
58238W        W26632   7.566  22.914   4.153
58239W        W26633  23.517  17.539   4.317
58240W        W26634  34.102  16.621   2.292
58241W        W26635   3.317  43.951  14.111
58242W        W26636  20.647  36.310  12.503
58243W        W26637  41.913  13.918   3.315
58244W        W26638  21.683  24.686   0.914
58245W        W26639  23.095  18.625   3.855
58246W        W26640  25.646  30.143  12.582
58247W        W26641  15.019  21.910   0.504
58248W        W26642   5.691  44.860  13.623
58249W        W26643   6.460  44.177   1.911
58250W        W26644  39.602  24.938   2.576
58251W        W26645  15.958  44.412   5.344
58252W        W26646  15.305   3.308   3.610
58253W        W26647   1.677  11.076  13.990
58254W        W26648  13.068   6.435  12.157
58255W        W26649  22.511  39.633  13.629
58256W        W26650  40.918  14.107   4.208
58257W        W26651  25.675  44.756  12.907
58258W        W26652  38.050  12.623  13.403
58259W        W26653  44.345  29.775   3.227
58260W        W26654  26.643  13.969   2.749
58261W        W26655   4.469  42.538  13.982
58262W        W26656  22.623  11.777  14.333
58263W        W26657  29.484  33.435  13.660
58264W        W26658  33.557  13.679   0.036
58265W        W26659   7.979  12.679   3.651
58266W        W26660  37.156  11.273  10.586
58267W        W26661  14.140  22.247   2.244
58268W        W26662   6.472  38.515  11.965
58269W        W26663  44.929   5.623   3.487
58270W        W26664  40.741   9.667   3.128
58271W        W26665  11.859  16.168   3.194
58272W        W26666  42.260  12.579   0.076
58273W        W26667  44.861  29.394  11.470
58274W        W26668  38.950  16.548   0.792
58275W        W26669  22.255  38.370  12.558
58276W        W26670  35.403  41.693  14.664
58277W        W26671  20.737   3.077   0.416
58278W        W26672   7.281   4.460   0.315
58279W        W26673   8.198  18.149   3.740
58280W        W26674  38.366   5.263   2.991
58281W        W26675  10.211   5.476  10.485
58282W        W26676   5.369  23.891  13.762
58283W        W26677  31.960  33.359   0.953
58284W        W26678   3.170  36.621   2.345
58285W        W26679  34.107  13.278   1.664
58286W        W26680   8.647  33.064  13.756
58287W        W26681   3.317   4.237  12.664
58288W        W26682   0.777  40.971   1.218
58289W        W26683  24.584  27.518  12.164
58290W        W26684  20.236  20.728  13.981
58291W        W26685  33.409  11.297  13.956
58292W        W26686  37.789   7.851   1.284
58293W        W26687  10.725  33.916   3.420
58294W        W26688  10.089  41.545  14.324
58295W        W26689   2.191  12.088   4.124
58296W        W26690   9.379  34.297   4.436
58297W        W26691  17.959  43.412   0.707
58298W        W26692   1.017  14.066   2.413
58299W        W26693  13.751  21.636  13.413
58300W        W26694  21.970  14.215   2.371
58301W        W26695  27.732  16.376   3.630
58302W        W26696   0.504  21.439   4.334
58303W        W26697  10.298  34.312   2.306
58304W        W26698  10.911  31.575  14.718
58305W        W26699  38.107  31.171  14.829
58306W        W26700  31.633  28.933  11.166
58307W        W26701  27.119  14.152  14.778
58308W        W26702   4.882   6.371   4.236
58309W        W26703  12.644  43.207   0.397
58310W        W26704  31.353  25.222  14.821
58311W        W26705  11.629  42.059  12.882
58312W        W26706  35.568  37.641   3.578
58313W        W26707  23.699  44.264   0.970
58314W        W26708  39.563  14.631   1.779
58315W        W26709  31.464  29.592  14.836
58316W        W26710  21.195   5.700  10.421
58317W        W26711  16.796  33.648  14.913
58318W        W26712   8.813  35.154   3.742
58319W        W26713  24.212  33.982   2.151
58320W        W26714  24.617   8.726   2.795
58321W        W26715  35.967  43.517  14.373
58322W        W26716  19.530  37.328  14.413
58323W        W26717  23.439  41.570   0.352
58324W        W26718  15.111   0.335  14.255
58325W        W26719  16.806  33.026  10.484
58326W        W26720  26.561  39.568  11.922
58327W        W26721  19.387  12.881   2.726
58328W        W26722  39.085  23.405  11.632
58329W        W26723  43.506  36.073   2.748
58330W        W26724  35.265  17.658  11.657
58331W        W26725  27.994  37.562   0.632
58332W        W26726  14.357  37.735  13.310
58333W        W26727  35.613   4.478  13.128
58334W        W26728  25.716  35.143   4.514
58335W        W26729  32.021  34.923   2.288
58336W        W26730   3.789  16.002  14.383
58337W        W26731  33.533  28.991  10.658
58338W        W26732  41.322  32.233   3.273
58339W        W26733   9.831  20.639  12.364
58340W        W26734  26.429  28.810   4.039
58341W        W26735  40.485  19.745   2.613
58342W        W26736  16.261  23.010  14.434
58343W        W26737  33.722   9.621  10.728
58344W        W26738   6.488  11.574  14.404
58345W        W26739  22.733  26.596   0.756
58346W        W26740  13.406   5.271   2.232
58347W        W26741  29.197   2.852  11.514
58348W        W26742  14.282  38.608   3.809
58349W        W26743  26.499  15.599  13.136
58350W        W26744  31.816  23.091  13.890
58351W        W26745  39.528  44.255   1.005
58352W        W26746  34.863  33.924  11.897
58353W        W26747  21.245   5.253   3.638
58354W        W26748  42.804  27.935   0.826
58355W        W26749  20.576   1.044  12.040
58356W        W26750  25.480  10.849  12.464
58357W        W26751   3.471  19.557  12.880
58358W        W26752  15.643  36.627  12.375
58359W        W26753  35.970  15.515  10.875
58360W        W26754  41.644  34.038   2.206
58361W        W26755   5.566  11.618  12.122
58362W        W26756   6.722  41.488  12.412
58363W        W26757  13.521  15.285  14.848
58364W        W26758  32.253  11.316  13.112
58365W        W26759  31.129  35.930   9.822
58366W        W26760  36.926  14.812   3.029
58367W        W26761  11.325  43.316  12.076
58368W        W26762  13.616   8.149  13.747
58369W        W26763  32.692  29.823  12.194
58370W        W26764  43.844  36.265  14.356
58371W        W26765  43.047  10.101   1.306
58372W        W26766  15.341   7.982   4.574
58373W        W26767  37.308   9.273   3.025
58374W        W26768  37.466  14.340  12.404
58375W        W26769  20.995  39.024   3.212
58376W        W26770  39.692   9.722  14.454
58377W        W26771  15.862  42.980   1.825
58378W        W26772  30.242  36.073   1.310
58379W        W26773  25.122  28.638   0.847
58380W        W26774   0.758  18.215  10.289
58381W        W26775   3.341  10.237  10.273
58382W        W26776  24.066  27.638   1.427
58383W        W26777   2.744  21.775  10.690
58384W        W26778   5.399  39.993   4.189
58385W        W26779  17.589  43.899  10.900
58386W        W26780  19.537  22.076  10.446
58387W        W26781   1.868  41.200  13.942
58388W        W26782  40.982  14.396   2.427
58389W        W26783  23.074  39.020  10.884
58390W        W26784  40.280  17.352  12.388
58391W        W26785  26.535   3.746   1.851
58392W        W26786  20.148  16.217  10.063
58393W        W26787  36.329  28.043  11.285
58394W        W26788  40.016  25.985   3.854
58395W        W26789  13.644  34.474  13.430
58396W        W26790  41.077  32.372   4.780
58397W        W26791  12.319  14.035  13.487
58398W        W26792  42.488  11.146   0.996
58399W        W26793  32.791  19.595   1.278
58400W        W26794  26.955  10.421   3.148
58401W        W26795  28.077   1.410  14.934
58402W        W26796   3.204  39.803  11.617
58403W        W26797  16.243   6.735   3.552
58404W        W26798  28.568  21.546  12.551
58405W        W26799  16.848   5.179  10.481
58406W        W26800  12.640  13.680  12.587
58407W        W26801  36.553  25.698   3.617
58408W        W26802  24.105   7.245   2.051
58409W        W26803  16.007  16.295   2.927
58410W        W26804   4.159  33.426   1.578
58411W        W26805  23.358   4.822   4.165
58412W        W26806   0.737  38.231  14.595
58413W        W26807  44.584  13.563   4.123
58414W        W26808  34.499  41.655  12.282
58415W        W26809  32.208  31.615  11.996
58416W        W26810   6.470  12.433   5.009
58417W        W26811   0.919  28.468   0.601
58418W        W26812  14.142  26.768   1.602
58419W        W26813  40.990  18.010  14.863
58420W        W26814  28.990  29.257   0.825
58421W        W26815  21.100  30.634   4.399
58422W        W26816   1.499   4.926  14.870
58423W        W26817  29.723  34.458  13.459
58424W        W26818  44.410  30.373   3.688
58425W        W26819  22.282  13.656   4.269
58426W        W26820  43.413  33.370   1.314
58427W        W26821  28.993  37.946   3.663
58428W        W26822  42.810  14.629   4.188
58429W        W26823  11.820   3.176   0.318
58430W        W26824  30.581   0.464  10.867
58431W        W26825  38.935  35.486   3.858
58432W        W26826  38.015  18.220   2.349
58433W        W26827  20.754  17.727  10.716
58434W        W26828   4.548  14.845  13.865
58435W        W26829  18.017   1.499   0.444
58436W        W26830  18.205   7.218   0.486
58437W        W26831  20.642  15.067   3.287
58438W        W26832  17.401   0.839  13.084
58439W        W26833   0.431   5.892   2.898
58440W        W26834  16.888  39.914   2.019
58441W        W26835   6.855  38.455   4.033
58442W        W26836  41.333  18.279  10.773
58443W        W26837  10.492  15.121  11.724
58444W        W26838  27.206  28.939   0.239
58445W        W26839  25.993   5.778  14.435
58446W        W26840  21.157   7.498  13.395
58447W        W26841  28.004  31.076   2.366
58448W        W26842  31.456  33.839  12.677
58449W        W26843  13.223   6.289  12.628
58450W        W26844  36.587  36.806  11.174
58451W        W26845  33.553  14.283   1.274
58452W        W26846  13.227  36.936  10.964
58453W        W26847  13.737  19.108  10.711
58454W        W26848  25.093  38.050  12.421
58455W        W26849  17.174  11.354  14.424
58456W        W26850  30.492  38.855   4.940
58457W        W26851  43.200  31.133   3.630
58458W        W26852  21.746  29.667  13.897
58459W        W26853   3.040   2.504  12.508
58460W        W26854  10.892  43.739   1.357
58461W        W26855  42.993   1.392   0.204
58462W        W26856  25.155  26.718   2.402
58463W        W26857  16.663  27.277   0.226
58464W        W26858   6.925  36.508   2.445
58465W        W26859  41.213  44.710   4.707
58466W        W26860   7.580  41.523   0.985
58467W        W26861  34.898  26.569  10.662
58468W        W26862   9.196  18.117  12.474
58469W        W26863  37.440  28.197  13.855
58470W        W26864  22.969  39.961   1.237
58471W        W26865  43.243  25.151  13.511
58472W        W26866  40.437  18.307  10.648
58473W        W26867  30.078  35.388  14.879
58474W        W26868  41.347   5.002  11.928
58475W        W26869   3.418   2.772  10.684
58476W        W26870   7.200  20.568  14.475
58477W        W26871  15.933  36.842   4.309
58478W        W26872  13.731  33.083   3.307
58479W        W26873  22.271  17.236   4.931
58480W        W26874  33.912  16.891   0.538
58481W        W26875  18.648   3.266   4.640
58482W        W26876  25.394   3.271  10.506
58483W        W26877  37.356  33.657   3.776
58484W        W26878  36.931  44.284  10.646
58485W        W26879  16.655  37.455  12.447
58486W        W26880  43.605  24.175  11.189
58487W        W26881   8.202  31.449  11.462
58488W        W26882  32.437  41.279   4.843
58489W        W26883  44.419  31.452   1.307
58490W        W26884  27.626   9.850   1.736
58491W        W26885   0.418  42.781   1.919
58492W        W26886  35.546   5.619   0.452
58493W        W26887  37.851  17.321   1.368
58494W        W26888   4.161  34.080  14.709
58495W        W26889  18.328   7.414   2.471
58496W        W26890  21.096  30.246  14.294
58497W        W26891   4.237  14.328  11.238
58498W        W26892  38.566   7.322  11.053
58499W        W26893  16.284  12.381  12.464
58500W        W26894  30.947  38.283   1.767
58501W        W26895  16.558  16.577   4.210
58502W        W26896  20.304  30.635  11.973
58503W        W26897   1.312   0.910   4.513
58504W        W26898  17.626  43.858  12.567
58505W        W26899  28.176  34.126  12.050
58506W        W26900  44.873  20.090   2.684
58507W        W26901   2.742   7.628   2.281
58508W        W26902   1.525   3.979  13.232
58509W        W26903  40.706  15.180   1.737
58510W        W26904  30.193  10.173   0.700
58511W        W26905  43.691   6.355   0.296
58512W        W26906  20.002  38.471   0.947
58513W        W26907  12.883  22.177   1.693
58514W        W26908  12.598   6.651  11.134
58515W        W26909  26.136  30.073  10.570
58516W        W26910   1.864  22.237  12.539
58517W        W26911  19.319  18.324   3.325
58518W        W26912  17.041   6.806   0.913
58519W        W26913   4.213   7.945   2.391
58520W        W26914  32.525  32.607   1.896
58521W        W26915   1.218  21.709   0.328
58522W        W26916   4.376  26.018   2.319
58523W        W26917  31.431  21.697  11.810
58524W        W26918  42.385  29.980   1.317
58525W        W26919  26.338  17.727  12.635
58526W        W26920  16.499   7.718  14.365
58527W        W26921  10.364   8.704   4.268
58528W        W26922  10.754   5.050   3.096
58529W        W26923  42.071   6.224   3.132
58530W        W26924   5.700   2.176  12.846
58531W        W26925  25.002  22.518   0.427
58532W        W26926  39.270  20.528   1.318
58533W        W26927  26.510  41.896   2.787
58534W        W26928  23.677  31.080  12.982
58535W        W26929  13.816   8.182  11.864
58536W        W26930  19.012  31.527   2.436
58537W        W26931   0.382   6.881   1.885
58538W        W26932  26.181  33.958  10.575
58539W        W26933  43.772  31.966   3.230
58540W        W26934  11.665  42.053  12.008
58541W        W26935   7.138   9.672   0.713
58542W        W26936  13.780  40.988  10.650
58543W        W26937  42.528  38.090  13.646
58544W        W26938   9.678  19.021   1.795
58545W        W26939   1.258  28.344  12.304
58546W        W26940   4.494  15.174   4.582
58547W        W26941  25.900  41.452  11.095
58548W        W26942  39.284   7.209  12.566
58549W        W26943  40.320  15.424  10.167
58550W        W26944  39.500  42.486  10.761
58551W        W26945  30.170   3.573  11.093
58552W        W26946  26.276  21.158   3.301
58553W        W26947  18.658  25.977  10.306
58554W        W26948  38.702  31.521   3.139
58555W        W26949  33.424   1.338  11.539
58556W        W26950  36.993   7.737   3.855
58557W        W26951  25.421  29.176  13.306
58558W        W26952  35.249   5.270   2.866
58559W        W26953  20.565   7.459   4.323
58560W        W26954  24.179  37.859  12.850
58561W        W26955  32.528  14.323   4.495
58562W        W26956  29.940  17.061   4.299
58563W        W26957   7.419  34.662  12.107
58564W        W26958  10.667  44.344   2.387
58565W        W26959  44.822   4.655  13.264
58566W        W26960  38.445  22.061   2.397
58567W        W26961   8.734   2.842   2.643
58568W        W26962  20.676   0.059  14.521
58569W        W26963  18.568  39.823  11.486
58570W        W26964   1.359  41.346   0.167
58571W        W26965  38.211  25.006   4.912
58572W        W26966  15.202  35.305  10.738
58573W        W26967   6.337  38.143   2.057
58574W        W26968  10.578  31.077  12.541
58575W        W26969   5.333  30.852   4.548
58576W        W26970   0.481  30.897   2.382
58577W        W26971   5.387   0.503   4.196
58578W        W26972  18.223  41.608   2.234
58579W        W26973  12.995   5.425  13.156
58580W        W26974  29.602  11.634  14.853
58581W        W26975   2.994  36.460   1.903
58582W        W26976  21.269  39.888  11.738
58583W        W26977  39.911  32.480  13.741
58584W        W26978  23.650  12.691  11.181
58585W        W26979  22.357   0.578  10.416
58586W        W26980  39.980   3.245  10.520
58587W        W26981  21.115  34.568   0.866
58588W        W26982  35.668  40.531   1.951
58589W        W26983   5.444  15.330  12.203
58590W        W26984  14.364  13.387   4.494
58591W        W26985  28.156  35.880   3.917
58592W        W26986   8.802   7.292   3.293
58593W        W26987  37.857   7.155   4.692
58594W        W26988  29.170  11.419  11.663
58595W        W26989   4.384  32.025  14.320
58596W        W26990  21.542  19.681   4.825
58597W        W26991   7.137  14.316   2.799
58598W        W26992  40.144  27.194  14.496
58599W        W26993  28.638  25.647   2.790
58600W        W26994  32.913  23.170   4.682
58601W        W26995  41.949  25.543   1.881
58602W        W26996  24.090  28.922  13.419
58603W        W26997   6.961  41.882  13.887
58604W        W26998   4.676   8.349   3.674
58605W        W26999   9.274  31.718   4.970
58606W        W27000   8.676  12.745  12.164
58607W        W27001   5.160  33.447  11.171
58608W        W27002  13.699  32.096  13.753
58609W        W27003   5.546  15.807   2.696
58610W        W27004   9.210  15.164   4.611
58611W        W27005   3.169  12.692  10.659
58612W        W27006  24.568  16.683  14.346
58613W        W27007   1.211   6.619  14.412
58614W        W27008  41.988  40.363  10.454
58615W        W27009  32.662  39.167   3.663
58616W        W27010  30.838   8.878   0.843
58617W        W27011  13.073   6.442   9.855
58618W        W27012  20.939  30.752  14.905
58619W        W27013  44.451  29.137  12.056
58620W        W27014  29.935   2.932   4.668
58621W        W27015  23.573  16.838   3.250
58622W        W27016  19.269  42.809  13.527
58623W        W27017  18.774  11.646  12.947
58624W        W27018  40.396   8.103  14.358
58625W        W27019  15.821  41.922  14.408
58626W        W27020   5.811  32.140   0.756
58627W        W27021  13.713  37.543   0.638
58628W        W27022   2.310  16.535   1.909
58629W        W27023  17.920  11.808  12.122
58630W        W27024  40.408  30.095   2.681
58631W        W27025  36.860  12.218   1.997
58632W        W27026  16.565   4.527   4.203
58633W        W27027  22.790  29.412   1.833
58634W        W27028  23.325   5.945  13.017
58635W        W27029  35.607   2.037   2.225
58636W        W27030  12.944   7.925   2.398
58637W        W27031  19.295  37.799   1.295
58638W        W27032  42.875  31.857   4.109
58639W        W27033   4.364  33.128  11.521
58640W        W27034   8.156  17.687   3.931
58641W        W27035  30.563  35.384  12.144
58642W        W27036  43.328  25.413  11.296
58643W        W27037  28.903  35.640  12.025
58644W        W27038  28.115   5.836  14.795
58645W        W27039  19.959  29.563   4.281
58646W        W27040  35.610  16.248   2.366
58647W        W27041  14.567  21.118  11.717
58648W        W27042  44.760  32.948  11.130
58649W        W27043   3.623  26.264  12.950
58650W        W27044  25.250  10.325  13.369
58651W        W27045   8.173  39.126  14.150
58652W        W27046  27.441   7.854   4.264
58653W        W27047  22.511  28.704   5.011
58654W        W27048  30.394  15.740   2.331
58655W        W27049  27.987   6.321  14.938
58656W        W27050  27.850   9.251  14.316
58657W        W27051  25.381   7.802  14.250
58658W        W27052  11.851  22.053  14.057
58659W        W27053  31.684  31.988  13.750
58660W        W27054  31.841  12.730   2.505
58661W        W27055  26.736  13.644  14.945
58662W        W27056  26.638  30.543  11.700
58663W        W27057  16.277  43.572   3.089
58664W        W27058  24.588  36.989   2.137
58665W        W27059  10.773  10.351   3.142
58666W        W27060  18.520  26.298  13.525
58667W        W27061   2.973  17.665  10.573
58668W        W27062  29.090  31.846  12.463
58669W        W27063  18.609   0.779   1.845
58670W        W27064  25.181  23.116  11.648
58671W        W27065   4.625   5.940   4.200
58672W        W27066  17.312  31.027  11.056
58673W        W27067   6.902  20.130  14.374
58674W        W27068  24.000  32.163  13.962
58675W        W27069  33.671  15.258  11.165
58676W        W27070  13.718   9.789   3.910
58677W        W27071   4.772  29.793   0.026
58678W        W27072   0.814   9.786  10.922
58679W        W27073  18.274  43.412   0.305
58680W        W27074  22.756  33.220  10.620
58681W        W27075  10.609  18.210   2.463
58682W        W27076  13.728   9.295   0.493
58683W        W27077  22.694  43.242  11.079
58684W        W27078  40.672  10.068  14.454
58685W        W27079   6.865  12.306   1.878
58686W        W27080  23.728  16.571   2.838
58687W        W27081  21.449  37.357   4.113
58688W        W27082  37.843   2.094  12.338
58689W        W27083  40.037  28.711   0.938
58690W        W27084  39.057  37.038  14.923
58691W        W27085  32.674  40.963   1.853
58692W        W27086  30.508  22.607   2.320
58693W        W27087  12.382   7.199  14.663
58694W        W27088  15.672  20.714   1.160
58695W        W27089  32.933  37.774   4.258
58696W        W27090  19.491   5.683  13.207
58697W        W27091  11.939   2.209   1.360
58698W        W27092  33.816  17.506  14.939
58699W        W27093   8.901  23.796   1.811
58700W        W27094  11.385  43.407  14.878
58701W        W27095  13.378  14.531   4.514
58702W        W27096   9.418  34.022  10.838
58703W        W27097  42.551  36.838   4.262
58704W        W27098  44.364   5.122   4.613
58705W        W27099  37.534  24.173  12.931
58706W        W27100  12.247  18.562  14.861
58707W        W27101  38.106  34.686  14.727
58708W        W27102  20.322  33.336   2.270
58709W        W27103  13.376  22.120  14.540
58710W        W27104  41.306   4.471  11.906
58711W        W27105  17.274  12.683  11.128
58712W        W27106  13.823  16.235   2.400
58713W        W27107  38.102  32.933   0.371
58714W        W27108  12.677  32.830   0.384
58715W        W27109  41.522   6.792  12.344
58716W        W27110  35.625   7.548  14.894
58717W        W27111  32.441  10.170  10.253
58718W        W27112  16.703  40.759   4.412
58719W        W27113  42.108  10.461  14.370
58720W        W27114   9.322  23.560  13.026
58721W        W27115  15.615  19.060  12.556
58722W        W27116  32.340  13.758   2.969
58723W        W27117  11.753   4.256   1.201
58724W        W27118  36.295  40.945   0.380
58725W        W27119   9.728  14.762   4.877
58726W        W27120  18.194  18.654  11.464
58727W        W27121  24.019  44.636   3.773
58728W        W27122  17.801   5.396  13.053
58729W        W27123  26.466   1.878   3.166
58730W        W27124  20.292   6.131  13.048
58731W        W27125  38.560  36.965  11.231
58732W        W27126   2.219  35.181  11.848
58733W        W27127  22.187  34.938   0.442
58734W        W27128   4.622  13.324   3.142
58735W        W27129  16.349  11.784  14.326
58736W        W27130  23.090   3.768  13.380
58737W        W27131  12.269  19.765  14.445
58738W        W27132   4.887  22.924  11.363
58739W        W27133  26.753  21.208  14.922
58740W        W27134  15.197  12.059   2.284
58741W        W27135  29.474  24.387   3.230
58742W        W27136  43.289  10.217   3.703
58743W        W27137   4.792  15.119   0.211
58744W        W27138  29.863  13.294  13.564
58745W        W27139  29.605  33.938  13.458
58746W        W27140  24.205  14.381  12.051
58747W        W27141  33.188  37.800  10.159
58748W        W27142   3.321  37.524   2.434
58749W        W27143  10.619  42.329   3.290
58750W        W27144   3.378  28.878   4.555
58751W        W27145  20.838  29.575  12.515
58752W        W27146  36.854   7.764  13.038
58753W        W27147  37.083   3.359   3.369
58754W        W27148  29.216   4.228  13.417
58755W        W27149  12.251  23.753   3.195
58756W        W27150  18.728  20.567  14.448
58757W        W27151   6.968  28.481   2.339
58758W        W27152   4.344   0.624   0.798
58759W        W27153   1.199  35.962  14.007
58760W        W27154   3.239   6.326  10.181
58761W        W27155  22.579  41.581   1.331
58762W        W27156  20.055  17.300   2.792
58763W        W27157  31.812  23.307   4.304
58764W        W27158  12.610  10.416   2.780
58765W        W27159  40.376  39.654   4.924
58766W        W27160  35.834  33.071  13.984
58767W        W27161   5.249  41.289   0.471
58768W        W27162  20.458   0.894  13.940
58769W        W27163  23.520  23.505   2.761
58770W        W27164  18.599  11.794   4.345
58771W        W27165  26.947   3.371   4.232
58772W        W27166  24.582  39.786   1.556
58773W        W27167  26.089   5.894   0.848
58774W        W27168  34.754  10.624   0.431
58775W        W27169   9.521   0.762   2.835
58776W        W27170   3.860  35.181   1.334
58777W        W27171   4.399  38.221  14.817
58778W        W27172  39.390  15.536  11.020
58779W        W27173  22.724  27.369   1.361
58780W        W27174   1.999   4.098   2.349
58781W        W27175  14.255   2.425  11.944
58782W        W27176  25.632  18.767   1.522
58783W        W27177  16.752   3.334   2.323
58784W        W27178   2.949  30.159   1.323
58785W        W27179  41.540  20.253   0.775
58786W        W27180   6.684   5.433   5.476
58787W        W27181  40.812  13.330   4.036
58788W        W27182  26.862  17.692   4.547
58789W        W27183  17.769  29.454   1.730
58790W        W27184  41.735  30.943   3.656
58791W        W27185  14.131   7.728   0.830
58792W        W27186  11.018  38.506   3.500
58793W        W27187  22.057   8.092  11.045
58794W        W27188  28.544   9.450   1.034
58795W        W27189  16.051   4.269   1.768
58796W        W27190  38.308  20.679  12.828
58797W        W27191  44.985  39.384   2.802
58798W        W27192  36.041  44.047   0.252
58799W        W27193  20.219  38.323  13.312
58800W        W27194   6.672  25.028   0.032
58801W        W27195   1.174  23.601   0.159
58802W        W27196  22.978   8.262  12.655
58803W        W27197   4.354  17.074   4.583
58804W        W27198   1.033   4.413   4.099
58805W        W27199  44.629  19.067   4.553
58806W        W27200  28.453  10.890   0.756
58807W        W27201  17.817  19.024   2.842
58808W        W27202  35.841  25.430   2.741
58809W        W27203   2.819  26.659   0.292
58810W        W27204  34.442   2.149   3.220
58811W        W27205  12.445   8.296   4.400
58812W        W27206  36.910   0.302  11.951
58813W        W27207  10.283   7.296  10.006
58814W        W27208  29.701   1.476   2.375
58815W        W27209   0.230  29.840   1.519
58816W        W27210   5.317  35.384   4.744
58817W        W27211  13.662  43.041  12.919
58818W        W27212  17.311  10.118  11.033
58819W        W27213   3.122  17.728   1.311
58820W        W27214   5.129   9.593  11.563
58821W        W27215  17.502  20.648   0.284
58822W        W27216  28.086  14.504  11.557
58823W        W27217  10.966  12.316   1.921
58824W        W27218  21.634   8.876  13.776
58825W        W27219  33.360  23.234   2.697
58826W        W27220   5.870  40.588  12.122
58827W        W27221  31.589  30.149  12.997
58828W        W27222  24.657  28.732   0.233
58829W        W27223   8.782  32.581   3.669
58830W        W27224  12.106  37.616  10.742
58831W        W27225  14.313  24.985   2.687
58832W        W27226   3.223   2.866   0.256
58833W        W27227  36.575  40.870  13.872
58834W        W27228   8.276  28.471   4.603
58835W        W27229  11.692   2.960   3.223
58836W        W27230  33.019  22.797  14.448
58837W        W27231  37.741  10.910   0.404
58838W        W27232  17.185  37.841   1.881
58839W        W27233   9.866   0.369   2.374
58840W        W27234  36.108  15.859  11.234
58841W        W27235  24.378  24.506   1.063
58842W        W27236  39.885  33.049  11.577
58843W        W27237  21.812   0.788  12.591
58844W        W27238  11.581   7.667  12.857
58845W        W27239   2.826  35.462  13.519
58846W        W27240  32.738  35.444  13.379
58847W        W27241  14.594  42.918  13.291
58848W        W27242   9.248   4.594  14.745
58849W        W27243  13.809  12.290   0.383
58850W        W27244  15.646  37.357   5.025
58851W        W27245  23.768  25.104   1.124
58852W        W27246   8.824  37.039  10.922
58853W        W27247  30.481   1.056   3.851
58854W        W27248  30.048  31.916  12.585
58855W        W27249  12.674  16.044  14.423
58856W        W27250  30.689  17.215  14.435
58857W        W27251   0.818  21.103   4.087
58858W        W27252  33.145   0.053   1.405
58859W        W27253  32.099   6.762   4.139
58860W        W27254   9.768  20.823   3.410
58861W        W27255  40.138  16.855  12.427
58862W        W27256  39.522  24.916   3.566
58863W        W27257  13.588  20.634   4.454
58864W        W27258  35.937  20.989  10.457
58865W        W27259  41.091  28.262   4.279
58866W        W27260  27.074   7.467   0.383
58867W        W27261  18.830   7.757   3.226
58868W        W27262  23.605  36.402  13.822
58869W        W27263   0.591   2.514   0.857
58870W        W27264  15.566  24.384   3.723
58871W        W27265  18.986  12.733  10.738
58872W        W27266  18.489   5.437  10.598
58873W        W27267  28.259  39.032   2.438
58874W        W27268  41.827  29.341  12.102
58875W        W27269  31.400  14.163   2.742
58876W        W27270  27.008  22.246  11.514
58877W        W27271  29.372  35.072   0.939
58878W        W27272  14.656  28.245   3.914
58879W        W27273   6.282   0.184   3.648
58880W        W27274  25.467  12.718  10.628
58881W        W27275   4.545  13.071   4.512
58882W        W27276   7.227   7.307  11.918
58883W        W27277  43.400  24.738  13.077
58884W        W27278   7.972  22.738  11.859
58885W        W27279   6.649  26.548   2.699
58886W        W27280  12.818  40.346   1.924
58887W        W27281   4.250   1.813   1.324
58888W        W27282   3.217   6.867  11.917
58889W        W27283  39.259  12.711   4.577
58890W        W27284   1.721  31.116   1.730
58891W        W27285  29.015  41.525   4.562
58892W        W27286   5.640   6.743  11.510
58893W        W27287  38.061  29.617   4.661
58894W        W27288  19.534  16.339   5.005
58895W        W27289  29.061  28.946  12.030
58896W        W27290  25.922  16.659   2.350
58897W        W27291   0.691   0.788   0.458
58898W        W27292  38.975  26.556  12.931
58899W        W27293  16.278  20.408  10.947
58900W        W27294  32.150  29.055  11.222
58901W        W27295  33.132  28.439  13.845
58902W        W27296  41.345  35.574   0.389
58903W        W27297  38.526   6.430  11.462
58904W        W27298   9.337  27.942  14.378
58905W        W27299  15.224   9.381  11.283
58906W        W27300  35.994  23.522   0.778
58907W        W27301   0.281   9.496   3.156
58908W        W27302  17.005  19.010  12.548
58909W        W27303  35.003  20.080   3.614
58910W        W27304  19.619   3.966  14.828
58911W        W27305  12.190  25.593  12.001
58912W        W27306   9.569  30.500   1.413
58913W        W27307   6.798   8.695   3.203
58914W        W27308  39.745  15.564   2.202
58915W        W27309  29.403  22.339  11.433
58916W        W27310   4.395  14.663  11.604
58917W        W27311  41.587  30.554   0.375
58918W        W27312  15.489  13.680  14.590
58919W        W27313  17.431  27.497   3.890
58920W        W27314   4.492  22.595  13.500
58921W        W27315  21.306   9.218  11.593
58922W        W27316   0.898  42.024   0.233
58923W        W27317  25.295   6.909   3.394
58924W        W27318   0.710  19.634   3.219
58925W        W27319  10.364  32.352  12.885
58926W        W27320  26.806  35.349  11.149
58927W        W27321  24.755  35.997   1.948
58928W        W27322  10.860  21.988  10.321
58929W        W27323  29.476   3.196  14.442
58930W        W27324  35.436  31.957   4.576
58931W        W27325  33.949  30.032   1.781
58932W        W27326   1.800  30.036   2.152
58933W        W27327  28.173   0.785   3.982
58934W        W27328  11.594  34.875   3.694
58935W        W27329  23.373  31.431   0.686
58936W        W27330  27.086  40.420   2.187
58937W        W27331  42.896   1.342   4.660
58938W        W27332   9.001   6.780   4.405
58939W        W27333  15.335   5.428   3.784
58940W        W27334  21.089  42.306  12.846
58941W        W27335  25.440  16.398   3.890
58942W        W27336  33.455  31.939   2.801
58943W        W27337  31.610  24.665  12.378
58944W        W27338  41.030  44.682  13.226
58945W        W27339  12.531   8.997   2.310
58946W        W27340   9.599  12.070  11.097
58947W        W27341  34.457  36.712  12.510
58948W        W27342  10.734  10.685   3.739
58949W        W27343  19.838  22.331  12.965
58950W        W27344  41.249   1.287   0.379
58951W        W27345  35.980   2.661   4.219
58952W        W27346  27.660  42.467  11.096
58953W        W27347   9.772  43.956  13.456
58954W        W27348  24.122  32.653  11.343
58955W        W27349   9.803  34.596   1.140
58956W        W27350  17.644  13.615   0.866
58957W        W27351  14.119  43.520   1.649
58958W        W27352  39.040  10.289   3.588
58959W        W27353  28.921  32.371  11.462
58960W        W27354  36.672   6.955   1.147
58961W        W27355  31.610  41.049   2.053
58962W        W27356  27.461  33.690   0.173
58963W        W27357  40.411  11.013  14.506
58964W        W27358  22.453  31.408  12.506
58965W        W27359  16.246  22.957   2.697
58966W        W27360   7.734  19.146   3.331
58967W        W27361  26.515  19.512   3.395
58968W        W27362  40.767  19.202   0.675
58969W        W27363  23.392  26.189  10.669
58970W        W27364  20.680  23.466  11.622
58971W        W27365  10.581  23.463  12.065
58972W        W27366  41.294  15.992   1.812
58973W        W27367  34.922  21.246  14.194
58974W        W27368  37.122   3.012  13.991
58975W        W27369  30.108  12.383   3.791
58976W        W27370  15.018  41.904  11.589
58977W        W27371  26.214  31.515  13.641
58978W        W27372  11.584  23.175   0.484
58979W        W27373   0.008  28.145  13.336
58980W        W27374  31.886  42.936  14.411
58981W        W27375  16.832   4.989   1.739
58982W        W27376   7.442  14.738  11.395
58983W        W27377   8.686   9.860  11.248
58984W        W27378  18.136  16.253  10.371
58985W        W27379   0.541  11.333  14.460
58986W        W27380   8.087  10.045  12.874
58987W        W27381  10.177   5.800  11.063
58988W        W27382  28.985  42.416   4.862
58989W        W27383  10.261  28.893   3.064
58990W        W27384  27.023  16.023   4.752
58991W        W27385  10.631  35.923   4.350
58992W        W27386   9.429  21.029   0.372
58993W        W27387  27.685   0.693   1.268
58994W        W27388  10.767   4.817   2.636
58995W        W27389  16.118  39.353   3.361
58996W        W27390  10.745  44.352  12.521
58997W        W27391  41.947   0.768  11.687
58998W        W27392  18.580   3.756   0.951
58999W        W27393  35.805   2.948   0.880
59000W        W27394  25.433   2.405  10.802
59001W        W27395   5.428  40.610   2.310
59002W        W27396  39.025  18.438  13.130
59003W        W27397  22.999  13.388   4.084
59004W        W27398  30.888   1.290   0.424
59005W        W27399  14.016  10.157  10.224
59006W        W27400   3.472  34.894   5.036
59007W        W27401  31.398  20.233  14.308
59008W        W27402  38.912   4.733  12.837
59009W        W27403   6.609  30.487  12.124
59010W        W27404  41.575  35.938   0.986
59011W        W27405   0.756  26.653  13.562
59012W        W27406  11.243   5.165   0.437
59013W        W27407   5.908  31.163  10.794
59014W        W27408   9.407  40.870   2.309
59015W        W27409  42.148  37.963   2.651
59016W        W27410  44.733  26.944   4.543
59017W        W27411  43.634  41.361   5.143
59018W        W27412  19.682  43.489  12.507
59019W        W27413  11.892  12.412  12.900
59020W        W27414   2.817   5.246  11.185
59021W        W27415  11.030  11.087   3.706
59022W        W27416  14.741  42.225   4.254
59023W        W27417  16.152  38.364  11.863
59024W        W27418  28.997  14.098   4.171
59025W        W27419   2.456   0.969  12.951
59026W        W27420   0.389   4.038   0.464
59027W        W27421  37.193  36.128  11.713
59028W        W27422  36.801  35.538  13.373
59029W        W27423  28.382  34.367  13.973
59030W        W27424   4.856  37.371   3.370
59031W        W27425  24.693   1.886  13.996
59032W        W27426  28.101   3.326  13.368
59033W        W27427  42.045  26.966  13.508
59034W        W27428  36.996  10.406   3.336
59035W        W27429  38.064   1.445  14.448
59036W        W27430  20.035  38.484  10.721
59037W        W27431  32.553  35.767   1.109
59038W        W27432  13.322  31.131   0.421
59039W        W27433  21.259  22.490  13.394
59040W        W27434  22.685  20.312  12.372
59041W        W27435  38.615  24.133   0.781
59042W        W27436  28.664  25.781   3.647
59043W        W27437  33.119   7.201   1.799
59044W        W27438  37.823  35.092   0.846
59045W        W27439   2.250  35.443   4.527
59046W        W27440  39.828  24.200  11.153
59047W        W27441  28.257  33.482   1.408
59048W        W27442   5.844  34.345  11.161
59049W        W27443  27.107  34.413  11.392
59050W        W27444  21.117  22.248  11.036
59051W        W27445  44.047  25.077   4.306
59052W        W27446   9.644  18.187  12.128
59053W        W27447  34.863  23.735   1.848
59054W        W27448  41.833   8.977   4.173
59055W        W27449  25.182  37.940  14.475
59056W        W27450  37.884  26.073   2.618
59057W        W27451  14.694  43.581   4.051
59058W        W27452  10.560   9.841   0.064
59059W        W27453  12.366  10.190  14.426
59060W        W27454  35.674  33.449  14.309
59061W        W27455  25.949  16.568  14.384
59062W        W27456  16.630  39.262  13.846
59063W        W27457  35.505  11.093  12.075
59064W        W27458  10.832  42.507  14.318
59065W        W27459  28.046  27.365  12.881
59066W        W27460   7.851  25.522   0.335
59067W        W27461  32.511  32.641   2.401
59068W        W27462   7.842   2.834   2.875
59069W        W27463   3.492  14.881  13.865
59070W        W27464  17.129  32.885  11.630
59071W        W27465   4.839   4.885   0.858
59072W        W27466   7.596  19.840  12.762
59073W        W27467  38.899  20.999  10.569
59074W        W27468  16.518  41.254  10.822
59075W        W27469  20.973  40.548  11.955
59076W        W27470  37.553  32.469  13.793
59077W        W27471  26.722  16.421  14.787
59078W        W27472  38.286   1.801   1.868
59079W        W27473  35.111  14.143  12.856
59080W        W27474  43.158   4.964  14.427
59081W        W27475  18.128  35.913  11.581
59082W        W27476  28.114  37.025   1.920
59083W        W27477  31.492  32.339   3.727
59084W        W27478  28.964  41.066   4.826
59085W        W27479  10.642  24.695  12.490
59086W        W27480  39.043  29.631   2.138
59087W        W27481  32.062  42.226  10.643
59088W        W27482  26.213   6.414   4.270
59089W        W27483  43.389   5.845   1.918
59090W        W27484  30.928  25.462   0.025
59091W        W27485  13.820   5.724  12.956
59092W        W27486  21.286  38.091  11.101
59093W        W27487  11.111  43.700  14.046
59094W        W27488   6.700  24.113  11.210
59095W        W27489  27.420  15.787   4.989
59096W        W27490  23.223  11.175  14.911
59097W        W27491  37.895   1.043   1.321
59098W        W27492  41.883   5.477   0.903
59099W        W27493  27.287  44.313   0.328
59100W        W27494  18.040  25.604  13.168
59101W        W27495  18.561  39.098  14.530
59102W        W27496  11.591  24.702   4.343
59103W        W27497  41.028  17.169  11.584
59104W        W27498   8.349  10.748  10.768
59105W        W27499   3.679   6.832   3.627
59106W        W27500  29.644  21.551  14.578
59107W        W27501   8.180  39.289  13.590
59108W        W27502  38.481  13.014   4.858
59109W        W27503   5.166  11.540  14.356
59110W        W27504  32.859  42.478   3.521
59111W        W27505  24.007  36.788   0.463
59112W        W27506  11.753   6.178  14.053
59113W        W27507  28.367   4.821   0.465
59114W        W27508  42.891  12.187  12.462
59115W        W27509  42.027  17.092   3.758
59116W        W27510   9.312  43.969  14.848
59117W        W27511  12.271  37.768   1.523
59118W        W27512  23.767  37.900  12.533
59119W        W27513  44.333   6.683  13.035
59120W        W27514  31.599  14.853  12.021
59121W        W27515  30.557   7.337   3.413
59122W        W27516   9.207  11.608   1.245
59123W        W27517  23.155   2.218  11.690
59124W        W27518  23.043  11.360   2.462
59125W        W27519  20.528  35.589  10.534
59126W        W27520   9.614   5.831   0.010
59127W        W27521  12.936  43.223  14.786
59128W        W27522  28.946  37.818  11.458
59129W        W27523  44.833  16.807   3.738
59130W        W27524  12.504  31.048  11.500
59131W        W27525   6.733  15.870  12.343
59132W        W27526  44.467   6.960  13.887
59133W        W27527   7.432  26.647   2.342
59134W        W27528  12.677  15.116  14.493
59135W        W27529   0.389  37.550  11.383
59136W        W27530  12.114  14.157   1.819
59137W        W27531  39.549  38.396   3.024
59138W        W27532  28.971  23.191  13.031
59139W        W27533   1.411  16.876   2.666
59140W        W27534  24.656  21.316  11.011
59141W        W27535  30.043  40.932   0.541
59142W        W27536  16.741  44.847   4.642
59143W        W27537  42.783  16.134   3.347
59144W        W27538  41.586  42.422   0.507
59145W        W27539  28.333   0.888  14.762
59146W        W27540  13.295  38.717   3.818
59147W        W27541  40.675  36.411  11.059
59148W        W27542  36.443   1.752   3.353
59149W        W27543   1.009  24.820   2.204
59150W        W27544   0.718  11.113  10.797
59151W        W27545  39.058  18.093  11.210
59152W        W27546  20.001  16.655   0.720
59153W        W27547   9.113   8.791  13.879
59154W        W27548  15.711   9.152  12.573
59155W        W27549  39.548  38.600   1.723
59156W        W27550   7.883   1.689   0.164
59157W        W27551  35.640   7.799   0.934
59158W        W27552  44.300   4.569  13.539
59159W        W27553   8.848  20.702  11.895
59160W        W27554  37.507  35.796  14.238
59161W        W27555  28.866  36.499  12.523
59162W        W27556  28.454  40.420  13.093
59163W        W27557  43.929  23.224   2.674
59164W        W27558   1.406  15.680   1.439
59165W        W27559  20.531  14.389   0.908
59166W        W27560  22.764  34.906  12.908
59167W        W27561  11.429  33.806   2.229
59168W        W27562  12.778  27.392   3.828
59169W        W27563  31.657  43.617   1.191
59170W        W27564   2.981   8.522   0.767
59171W        W27565   6.049  26.552  13.792
59172W        W27566  19.233  39.949   1.949
59173W        W27567  14.756  36.070  10.249
59174W        W27568  41.435  22.133   2.408
59175W        W27569  35.172  18.220   1.904
59176W        W27570   8.613  10.897   1.356
59177W        W27571   9.355  24.294  10.974
59178W        W27572  27.817  29.995  11.180
59179W        W27573   2.106  22.811  14.812
59180W        W27574   8.889  17.151  14.913
59181W        W27575  30.125  25.645  10.615
59182W        W27576   4.552  21.561   3.619
59183W        W27577  22.130  41.304   1.416
59184W        W27578  28.119  12.619   3.297
59185W        W27579  30.598  13.451   3.206
59186W        W27580  26.728   1.979   1.215
59187W        W27581  44.286  27.666  12.389
59188W        W27582  10.782  17.435  12.416
59189W        W27583   6.835   9.196  14.079
59190W        W27584  12.263  40.781   1.391
59191W        W27585   9.937  36.858  12.297
59192W        W27586  11.807   2.062  13.809
59193W        W27587  34.346   3.394   0.822
59194W        W27588  17.140  20.745   2.464
59195W        W27589   2.725  26.233  11.557
59196W        W27590  25.427  12.284  14.792
59197W        W27591   2.934  40.054   3.605
59198W        W27592  28.056   5.981  12.048
59199W        W27593  20.703  16.334   1.929
59200W        W27594  37.093  23.683  10.633
59201W        W27595  34.946  26.005   2.246
59202W        W27596   0.514  13.913  11.298
59203W        W27597  23.066  27.451   0.269
59204W        W27598  14.717  20.735  11.358
59205W        W27599   2.031  24.715  12.029
59206W        W27600  30.353  25.677   1.330
59207W        W27601  40.340  44.577   4.440
59208W        W27602  29.672  21.591   2.745
59209W        W27603  39.327  44.284  11.441
59210W        W27604  38.596  14.075   3.100
59211W        W27605   0.349  27.717  14.439
59212W        W27606  21.130  19.550  11.637
59213W        W27607  16.356   6.208   3.683
59214W        W27608   4.423  38.898   4.012
59215W        W27609  30.328  25.547  13.328
59216W        W27610   9.923  10.314  10.918
59217W        W27611  40.001  25.581   2.050
59218W        W27612  25.879   3.983   0.867
59219W        W27613  38.981   9.478  14.664
59220W        W27614  41.766   0.339   4.237
59221W        W27615  21.394  35.333   3.845
59222W        W27616  33.464  19.718   2.047
59223W        W27617   6.335  14.376  12.916
59224W        W27618  33.848  26.922   3.634
59225W        W27619   9.531  14.589   3.444
59226W        W27620  30.319  23.770   3.177
59227W        W27621   0.351  21.786  13.128
59228W        W27622  15.440  39.912  10.749
59229W        W27623   1.887  43.027   3.788
59230W        W27624   1.349  10.363  14.743
59231W        W27625  15.660   3.423  10.675
59232W        W27626  42.317  14.628  14.259
59233W        W27627  15.730  29.885  14.666
59234W        W27628  10.987  31.369  11.210
59235W        W27629  34.009   2.193  13.886
59236W        W27630  24.499   1.978  13.519
59237W        W27631  37.944   6.683   0.985
59238W        W27632  16.281   3.427   1.299
59239W        W27633  22.090  12.842   3.342
59240W        W27634  26.707   3.910  13.610
59241W        W27635  27.978  37.868  13.844
59242W        W27636  32.662  41.893   2.338
59243W        W27637  26.054  15.745   0.901
59244W        W27638  22.963  19.027  13.075
59245W        W27639   1.992  14.568   2.699
59246W        W27640  37.536  15.272  10.908
59247W        W27641  22.984   8.254   3.188
59248W        W27642  42.014  27.439  14.489
59249W        W27643  20.595   8.938   4.577
59250W        W27644  22.092  38.024  11.206
59251W        W27645  20.770  21.530   4.829
59252W        W27646  42.339  21.108   1.305
59253W        W27647  19.971  22.198  10.716
59254W        W27648  17.278  10.376  13.507
59255W        W27649   0.383  12.698  10.705
59256W        W27650  29.227  19.768  12.158
59257W        W27651  18.221  36.039   2.622
59258W        W27652  24.460  36.549   0.365
59259W        W27653  15.343  37.308  10.687
59260W        W27654  23.078  43.013   0.785
59261W        W27655   1.232   8.836   4.116
59262W        W27656  11.326  19.250   4.581
59263W        W27657  24.453  15.238  11.652
59264W        W27658   9.058  18.648   1.630
59265W        W27659  34.077  29.551  11.842
59266W        W27660   3.516  23.189  11.610
59267W        W27661  18.744  15.149  10.963
59268W        W27662  26.661  42.894  10.486
59269W        W27663  32.352   8.673   3.333
59270W        W27664  18.519  41.335  10.639
59271W        W27665  11.685  42.483  10.598
59272W        W27666  33.023   4.716  11.196
59273W        W27667   3.305  20.477  10.873
59274W        W27668  23.025  15.182   4.596
59275W        W27669  21.776  39.987   0.209
59276W        W27670  25.713  19.964  11.245
59277W        W27671  40.399  41.404  11.147
59278W        W27672  34.195  43.470   3.509
59279W        W27673  37.827  41.145   0.272
59280W        W27674  17.049  14.634  13.777
59281W        W27675   8.310  25.794  11.260
59282W        W27676  21.611  30.550   1.500
59283W        W27677   4.695   8.926  10.624
59284W        W27678  17.850  20.242   3.212
59285W        W27679  31.500   7.425   2.826
59286W        W27680  12.635  35.424   0.427
59287W        W27681   1.800   4.413   1.116
59288W        W27682  33.861   8.919  10.348
59289W        W27683  42.480  19.349   0.177
59290W        W27684  40.904  27.212   2.893
59291W        W27685  42.218   9.732   0.376
59292W        W27686  36.327   6.084   0.429
59293W        W27687  36.785  29.095  13.888
59294W        W27688   3.008  21.310  10.745
59295W        W27689  30.160  19.892  13.079
59296W        W27690  16.563  24.513   4.259
59297W        W27691  15.686   1.877  10.390
59298W        W27692   8.786  25.427  13.782
59299W        W27693  20.509  41.975  12.350
59300W        W27694  44.204  33.222  12.444
59301W        W27695   6.485  37.973  13.962
59302W        W27696   4.483  17.987   2.551
59303W        W27697   8.379  43.299   3.834
59304W        W27698  40.310   7.648   3.213
59305W        W27699   7.212   7.767  12.670
59306W        W27700  28.705  12.302   0.441
59307W        W27701  34.383   3.160   1.301
59308W        W27702  13.216  42.057  12.408
59309W        W27703   9.308   4.086  14.578
59310W        W27704   4.456   5.193   2.831
59311W        W27705  10.010  30.844  11.095
59312W        W27706  18.420  10.036   0.002
59313W        W27707  41.260   6.230   5.202
59314W        W27708  28.026  44.888   2.504
59315W        W27709  34.938  29.638  10.739
59316W        W27710  37.508  13.175   3.121
59317W        W27711  21.685   6.357   4.617
59318W        W27712  28.488  15.024   5.036
59319W        W27713   5.143  27.670   2.365
59320W        W27714  22.167  32.124  13.979
59321W        W27715  11.627  18.973   0.939
59322W        W27716   1.365  16.029   4.332
59323W        W27717  11.556  35.078  14.934
59324W        W27718  34.531  31.598   0.419
59325W        W27719  10.556  43.560  11.483
59326W        W27720  43.914  33.446  11.529
59327W        W27721  27.986  44.066  13.773
59328W        W27722   0.765  20.559   1.195
59329W        W27723  38.787  13.372  13.525
59330W        W27724   3.443  12.187  10.647
59331W        W27725   7.394  22.036   1.251
59332W        W27726  31.376  10.100  14.994
59333W        W27727  38.947  22.496   0.458
59334W        W27728   5.933  34.172   3.894
59335W        W27729  10.103  30.097   0.783
59336W        W27730  14.771  23.233  13.994
59337W        W27731  42.360   1.506  13.573
59338W        W27732  25.604   4.889   2.857
59339W        W27733  32.231  13.619   3.535
59340W        W27734  34.404  13.351   3.609
59341W        W27735   8.229  28.501  12.154
59342W        W27736  24.555  29.033  14.819
59343W        W27737  12.774  16.757  12.152
59344W        W27738  19.995  11.652  10.220
59345W        W27739  33.911  35.418  10.673
59346W        W27740  17.370  36.316   1.742
59347W        W27741   9.370  16.516   0.443
59348W        W27742  42.801  34.361  12.751
59349W        W27743  18.133  32.985   3.678
59350W        W27744  39.377  22.488  13.292
59351W        W27745  27.899  40.325   0.308
59352W        W27746   7.168  17.387  11.720
59353W        W27747  25.020   6.073   0.325
59354W        W27748   0.024  10.368   1.869
59355W        W27749  25.948  13.571   3.172
59356W        W27750  20.745   8.731  14.189
59357W        W27751  14.147  16.851   4.543
59358W        W27752  30.875   5.470   1.439
59359W        W27753  42.780  18.806   1.838
59360W        W27754  16.043  13.714   4.412
59361W        W27755  15.185  39.379  13.440
59362W        W27756  33.694  25.041  10.994
59363W        W27757   7.235  27.674  11.127
59364W        W27758  11.195  27.496   1.708
59365W        W27759  23.215  19.535  13.971
59366W        W27760  19.207  13.861   1.305
59367W        W27761  20.165  36.535  13.804
59368W        W27762   3.391  22.189  11.673
59369W        W27763  18.735  19.400   2.702
59370W        W27764   4.012  28.162   2.384
59371W        W27765  20.648  28.422   0.310
59372W        W27766  24.698   2.975  10.663
59373W        W27767  44.129   0.250  12.118
59374W        W27768   3.477   3.057   3.084
59375W        W27769  39.339   2.811   3.191
59376W        W27770  15.310  34.942  12.319
59377W        W27771  26.121  10.849   1.675
59378W        W27772  37.840  32.515   0.208
59379W        W27773  21.248  14.620   3.765
59380W        W27774  12.348  12.596  10.786
59381W        W27775  32.071  39.428  10.760
59382W        W27776  28.871  32.881   0.414
59383W        W27777  12.566  38.071   0.031
59384W        W27778  42.300  21.497  11.638
59385W        W27779   8.317  28.552   0.001
59386W        W27780  11.348  44.730  14.938
59387W        W27781  18.681   2.144  13.331
59388W        W27782  31.530  19.933  14.732
59389W        W27783   1.215  14.787   2.729
59390W        W27784   6.334   1.012  14.437
59391W        W27785  18.646  39.005   4.068
59392W        W27786  29.505   5.878   2.227
59393W        W27787  10.665  14.109   1.865
59394W        W27788  39.914  29.597  14.808
59395W        W27789   6.537   7.392   5.065
59396W        W27790  36.782  44.987  13.947
59397W        W27791  34.438  34.250  11.840
59398W        W27792   5.503   4.245   0.868
59399W        W27793  25.268  15.597   3.729
59400W        W27794  37.816  23.501   0.502
59401W        W27795  32.904  12.901   3.080
59402W        W27796  24.993   3.247   4.501
59403W        W27797  20.559   4.493  10.972
59404W        W27798  30.566  38.988  14.851
59405W        W27799  17.670  17.809  13.915
59406W        W27800  13.763   1.012  13.369
59407W        W27801   2.470   1.852   1.840
59408W        W27802  41.757  19.231  11.615
59409W        W27803  18.060   7.856   2.324
59410W        W27804  19.795  44.781  12.566
59411W        W27805  33.624   6.990  12.661
59412W        W27806  20.421  21.481  11.096
59413W        W27807  18.914  12.999  13.111
59414W        W27808  27.116   8.912   4.570
59415W        W27809   4.839  11.294   3.573
59416W        W27810  34.932  18.472  14.983
59417W        W27811   6.362   6.179  10.122
59418W        W27812  15.574  33.976   0.961
59419W        W27813   3.484  43.976   0.395
59420W        W27814  31.101   9.093  11.217
59421W        W27815   9.697  18.763  14.473
59422W        W27816  22.988   3.302  13.189
59423W        W27817  37.844  39.988   2.178
59424W        W27818  21.309  14.145  14.402
59425W        W27819  32.353   3.333   5.168
59426W        W27820  12.898  20.825   2.582
59427W        W27821  44.244  33.569  10.571
59428W        W27822   0.408  38.303  11.595
59429W        W27823  35.584   9.380   1.756
59430W        W27824  24.639   7.383   4.632
59431W        W27825  44.807  40.594   4.686
59432W        W27826  34.034   2.277  13.364
59433W        W27827  38.548   5.114  12.641
59434W        W27828   8.355  40.001  12.932
59435W        W27829  14.250  42.430  13.400
59436W        W27830  11.465  31.011  14.321
59437W        W27831  26.488  14.239  13.339
59438W        W27832  16.598  13.156  11.201
59439W        W27833   3.339   8.319   2.154
59440W        W27834   2.369  24.474   3.061
59441W        W27835  36.362  15.232  13.667
59442W        W27836  17.086  25.914   2.410
59443W        W27837   5.579  26.585   2.240
59444W        W27838  18.082  17.205  13.388
59445W        W27839  12.625  43.591   2.571
59446W        W27840  29.649  21.534   4.574
59447W        W27841  18.027  14.298  12.205
59448W        W27842  25.871  29.358   4.996
59449W        W27843  34.571  38.094   2.659
59450W        W27844   1.740  44.846   4.290
59451W        W27845  24.083  34.962   3.798
59452W        W27846  36.367  36.555  11.618
59453W        W27847  18.595  26.620  11.165
59454W        W27848   9.240  17.811  11.496
59455W        W27849  32.159   1.319   4.276
59456W        W27850   0.080   9.790   0.877
59457W        W27851   4.855  12.123   4.988
59458W        W27852   9.787  25.768   3.065
59459W        W27853  31.031  41.973   4.947
59460W        W27854  22.596  20.528   1.813
59461W        W27855  27.640   4.876  13.809
59462W        W27856   6.743  14.930   2.911
59463W        W27857  35.627  10.608   1.028
59464W        W27858   6.805   0.792  12.635
59465W        W27859  40.806  43.670  11.644
59466W        W27860  13.172  21.240  14.513
59467W        W27861  12.865   7.685  11.459
59468W        W27862  27.375  11.860   3.228
59469W        W27863  11.124  12.059  12.561
59470W        W27864  28.807  16.284   1.849
59471W        W27865  15.840   4.552   2.165
59472W        W27866   1.882   3.571  11.675
59473W        W27867  13.860  32.539   3.879
59474W        W27868  27.297  41.864  10.223
59475W        W27869  25.341  29.162  13.803
59476W        W27870  15.566  13.251  11.149
59477W        W27871  11.899  28.930  10.676
59478W        W27872  15.384  44.155   2.006
59479W        W27873  22.056  17.339  11.885
59480W        W27874  16.026  34.800  11.392
59481W        W27875   5.714  36.873   0.452
59482W        W27876  24.762  15.009  11.240
59483W        W27877  39.171  35.089  13.632
59484W        W27878  22.747  23.004   2.854
59485W        W27879  14.687  28.435  11.513
59486W        W27880   8.984  23.446   2.823
59487W        W27881  31.004  42.581   0.283
59488W        W27882  36.471  25.136   0.753
59489W        W27883  16.754  24.542   2.225
59490W        W27884  28.134  21.758   4.065
59491W        W27885  11.281  18.051   4.666
59492W        W27886   1.439  40.906  14.888
59493W        W27887  32.347  41.188  14.030
59494W        W27888  39.566  38.938   2.320
59495W        W27889   5.161  42.453   1.437
59496W        W27890  21.502  23.644  11.874
59497W        W27891  10.946  42.854   1.434
59498W        W27892  11.954  37.832   0.873
59499W        W27893  37.381  18.487   1.193
59500W        W27894   5.366   3.453  12.998
59501W        W27895  22.233  17.844   0.445
59502W        W27896   9.399  15.742   0.844
59503W        W27897  40.227  23.782   3.933
59504W        W27898  14.130  39.779   3.038
59505W        W27899   3.232  16.185   0.343
59506W        W27900  17.245  29.689  13.403
59507W        W27901   6.923  33.661   1.782
59508W        W27902  44.983  43.408   2.957
59509W        W27903  10.217  35.183   2.012
59510W        W27904   7.600  11.611  10.793
59511W        W27905  17.307  19.850   5.494
59512W        W27906  18.572  34.014   0.955
59513W        W27907  43.425  32.889  13.578
59514W        W27908  29.934  31.340  13.168
59515W        W27909  12.095  30.085  14.981
59516W        W27910  14.670   4.880   1.746
59517W        W27911  41.312   5.472  14.354
59518W        W27912  19.361  42.571   3.282
59519W        W27913  11.124   3.190  14.290
59520W        W27914  43.507  23.995   2.104
59521W        W27915   9.597  25.161   5.161
59522W        W27916  40.760  41.505   4.254
59523W        W27917  40.574  20.934   4.715
59524W        W27918  44.483  25.490  14.537
59525W        W27919   7.553  29.948   0.221
59526W        W27920  23.564  12.491   4.685
59527W        W27921  23.702  20.491   4.864
59528W        W27922  39.812  13.402   1.318
59529W        W27923  36.074  16.573  10.756
59530W        W27924  21.014  22.066  13.930
59531W        W27925  31.640  34.594   2.855
59532W        W27926  12.678  37.835  14.298
59533W        W27927   5.665  28.410  11.964
59534W        W27928  17.581  27.450   1.147
59535W        W27929  41.694   1.490   1.351
59536W        W27930  36.358  44.528   3.276
59537W        W27931  18.812   2.731   1.879
59538W        W27932  15.093   7.366   2.341
59539W        W27933  41.061  42.671  10.658
59540W        W27934  35.301  25.167   1.206
59541W        W27935  16.672  23.240   2.670
59542W        W27936  43.819   8.812  13.562
59543W        W27937  20.666  40.104  12.776
59544W        W27938  37.527   6.495   1.468
59545W        W27939   4.388  11.272  10.939
59546W        W27940  39.455  33.173  14.423
59547W        W27941  34.140   2.966  13.431
59548W        W27942   5.683  16.371  14.587
59549W        W27943  38.133  41.940  12.577
59550W        W27944  38.793  13.315   1.280
59551W        W27945  44.351  26.460   1.483
59552W        W27946  38.521  44.730   3.016
59553W        W27947  15.676   3.433   4.875
59554W        W27948  21.190   7.128  13.940
59555W        W27949   1.542  43.563  14.812
59556W        W27950  10.714  21.658  14.587
59557W        W27951  44.010  35.460   3.251
59558W        W27952  34.690  36.522  11.066
59559W        W27953  24.960   8.262   3.830
59560W        W27954  34.816  13.495  12.270
59561W        W27955   7.807   5.272  11.825
59562W        W27956   6.671  30.663  10.798
59563W        W27957  27.517  37.640   2.154
59564W        W27958  29.049  23.766   2.739
59565W        W27959  25.174   1.288   1.052
59566W        W27960   9.750   4.860   4.559
59567W        W27961  35.587   9.652   0.732
59568W        W27962  41.821  11.732  11.032
59569W        W27963  43.357  39.132  13.480
59570W        W27964   5.920   3.160  11.926
59571W        W27965  33.360  18.753   2.714
59572W        W27966  28.740  32.901   4.626
59573W        W27967   7.679  26.592   1.890
59574W        W27968   7.932   8.908  14.848
59575W        W27969  33.884  29.491   1.653
59576W        W27970  11.866   1.488   4.225
59577W        W27971  30.747  34.577  12.509
59578W        W27972  37.572   7.531  12.801
59579W        W27973  18.530  30.929  11.674
59580W        W27974  35.509   7.220   4.149
59581W        W27975  15.210  24.200   4.069
59582W        W27976  29.602  29.964   0.913
59583W        W27977  40.031  24.609  14.980
59584W        W27978  29.188  32.086   3.700
59585W        W27979  27.128  32.610  12.826
59586W        W27980  32.826  28.150  11.499
59587W        W27981   7.797   7.334  11.061
59588W        W27982  41.978  33.108  10.765
59589W        W27983  24.237  30.530   3.190
59590W        W27984  15.362  44.405   4.633
59591W        W27985  35.878  38.195   2.344
59592W        W27986  21.143   5.984  14.332
59593W        W27987   3.126  18.545  11.163
59594W        W27988  22.904  39.423   4.516
59595W        W27989   0.294  17.274   2.441
59596W        W27990  38.017  41.148   1.861
59597W        W27991  10.340  12.284  10.669
59598W        W27992  34.072  32.358  13.898
59599W        W27993  20.189   4.294   0.944
59600W        W27994  17.501  14.079  14.948
59601W        W27995  31.923   5.256   2.367
59602W        W27996  43.356  13.112  14.998
59603W        W27997  26.462  19.477  12.510
59604W        W27998  35.825   7.314   0.765
59605W        W27999  41.995  22.153   3.741
59606W        W28000  14.407  21.011  13.476
59607W        W28001  32.887  19.956   1.927
59608W        W28002  44.875  13.356  13.550
59609W        W28003  40.520  42.248   4.905
59610W        W28004  22.017  15.880   1.749
59611W        W28005  24.279   0.295   0.405
59612W        W28006  39.576  25.449  12.533
59613W        W28007  13.595   7.778   0.863
59614W        W28008  27.450  18.270  12.153
59615W        W28009   0.228   8.365  13.384
59616W        W28010  31.850   3.779  13.014
59617W        W28011  19.625  23.655   4.072
59618W        W28012  19.023  12.901   2.316
59619W        W28013   5.269  33.585   0.447
59620W        W28014  37.309  25.200   9.970
59621W        W28015   9.309  16.573   4.654
59622W        W28016  19.730  26.759   1.851
59623W        W28017  38.112  16.366  11.574
59624W        W28018  27.170  30.706   4.056
59625W        W28019  18.858  44.770   2.921
59626W        W28020  18.003  28.593   2.613
59627W        W28021  19.238   6.825  10.645
59628W        W28022  42.330  39.902   2.582
59629W        W28023   9.923  15.825   0.820
59630W        W28024  13.007  21.601   2.761
59631W        W28025  34.055  32.631   4.638
59632W        W28026  37.532  30.133  14.614
59633W        W28027  34.831  25.743  13.089
59634W        W28028  31.088  19.956   4.147
59635W        W28029   6.423  10.816  14.865
59636W        W28030  25.720  28.506  10.718
59637W        W28031  30.099  26.178   4.038
59638W        W28032  24.221  31.739  12.869
59639W        W28033  31.892   6.034   4.644
59640W        W28034  34.025   1.858   3.960
59641W        W28035  24.284  23.225   4.161
59642W        W28036  30.115  19.666  10.519
59643W        W28037  35.074  20.491  13.630
59644W        W28038  27.632  20.009   1.922
59645W        W28039  38.410   4.845  13.047
59646W        W28040   1.985  28.321   1.844
59647W        W28041  43.509   4.010   3.604
59648W        W28042  11.068   0.686  14.709
59649W        W28043  23.318   1.465   2.191
59650W        W28044  23.168  13.424  12.932
59651W        W28045  16.743  35.550  11.665
59652W        W28046  41.478  36.299  12.901
59653W        W28047   0.490  38.839   1.241
59654W        W28048  37.017  16.201  10.745
59655W        W28049  21.062  28.523   3.604
59656W        W28050   3.153   4.422   3.161
59657W        W28051  30.668   7.743   4.630
59658W        W28052  23.026  21.210  11.920
59659W        W28053  16.954  28.497  14.028
59660W        W28054  24.599   4.703   0.018
59661W        W28055  14.299  43.150  11.654
59662W        W28056  29.686  30.858  11.003
59663W        W28057   0.023  18.197   1.959
59664W        W28058  37.774  28.712   1.656
59665W        W28059  10.654   3.038   0.900
59666W        W28060  10.025   7.172   2.690
59667W        W28061  14.046  43.291   2.132
59668W        W28062  23.188   7.502  14.117
59669W        W28063  35.520  37.855   2.115
59670W        W28064   6.409  42.015   2.750
59671W        W28065  13.827  30.509  11.638
59672W        W28066   8.369  25.353  14.907
59673W        W28067   2.920  22.334   3.216
59674W        W28068  42.231  36.520   3.383
59675W        W28069   2.009  13.086  11.111
59676W        W28070  13.929  11.372  10.948
59677W        W28071  43.455  34.993  14.960
59678W        W28072  12.786  26.940  12.906
59679W        W28073  11.246  26.759   2.489
59680W        W28074   7.651  24.070   0.016
59681W        W28075  38.468  32.083  12.835
59682W        W28076  20.222   2.553  11.076
59683W        W28077  39.535   9.624   1.827
59684W        W28078   2.147  19.565   1.007
59685W        W28079  25.061  14.116  11.142
59686W        W28080  16.155   1.454   0.548
59687W        W28081  39.373  15.243   4.230
59688W        W28082  37.626  31.092   4.545
59689W        W28083  17.654   8.219   9.804
59690W        W28084  12.281   8.111  13.511
59691W        W28085  37.451  36.272  11.271
59692W        W28086  12.685  11.151  10.763
59693W        W28087  15.150   2.967  14.411
59694W        W28088  34.912  27.767   4.512
59695W        W28089  39.275  43.622  13.846
59696W        W28090  30.233  29.353  10.934
59697W        W28091  33.565  38.664   0.004
59698W        W28092  29.494   6.965   1.366
59699W        W28093  14.937  36.847  10.014
59700W        W28094  20.388   5.313   0.783
59701W        W28095  11.854   5.678  10.525
59702W        W28096  16.806  40.071  14.169
59703W        W28097   0.263  12.900  13.041
59704W        W28098  43.002   2.696   0.921
59705W        W28099  37.608   5.084  10.070
59706W        W28100   6.072   5.346   1.811
59707W        W28101  19.797  26.449   2.776
59708W        W28102  22.473  26.029  12.324
59709W        W28103  24.719  34.455   4.755
59710W        W28104  18.073  40.065   0.874
59711W        W28105  19.063   5.715   0.767
59712W        W28106  34.513   0.672   2.740
59713W        W28107   1.253  34.877  11.201
59714W        W28108  26.174  27.652  13.114
59715W        W28109  43.518  20.069  10.673
59716W        W28110  39.475  30.716  13.197
59717W        W28111   3.216  31.920  14.851
59718W        W28112  23.824  24.605  10.686
59719W        W28113   1.708  19.660   1.320
59720W        W28114  36.048  27.406  12.910
59721W        W28115   4.998  35.878   0.807
59722W        W28116  36.065   7.017  13.248
59723W        W28117   9.823  14.660  11.740
59724W        W28118  36.650  13.771  12.111
59725W        W28119  39.815  14.205   0.381
59726W        W28120  37.087  40.383   4.733
59727W        W28121   5.688  43.995  12.949
59728W        W28122  17.656  10.316   1.242
59729W        W28123  23.283  27.687  13.209
59730W        W28124  25.911   1.652  10.982
59731W        W28125  17.861   0.633   0.868
59732W        W28126   7.631  27.600   4.040
59733W        W28127  22.635  17.858  12.511
59734W        W28128  13.236   1.699  11.458
59735W        W28129   7.323  40.112   2.788
59736W        W28130  32.870  20.510   0.731
59737W        W28131  40.387  34.867  12.623
59738W        W28132  31.967   8.761  14.861
59739W        W28133  27.969   9.627   2.062
59740W        W28134  40.717  36.115  11.953
59741W        W28135   2.303  34.912   0.818
59742W        W28136  28.153  18.101  14.154
59743W        W28137  14.076  17.738   0.808
59744W        W28138   4.381  24.538   4.562
59745W        W28139  24.475   3.318   4.696
59746W        W28140  37.862   0.928  14.457
59747W        W28141  34.383  24.151  11.093
59748W        W28142  25.233   4.209   3.622
59749W        W28143  35.973  17.780  14.262
59750W        W28144  19.408  36.911   5.081
59751W        W28145   6.753   2.804   5.406
59752W        W28146  25.219   6.412   5.112
59753W        W28147  32.380  17.080  12.334
59754W        W28148  43.818  25.865   3.737
59755W        W28149   6.304  20.995   0.577
59756W        W28150  44.865  35.091   4.108
59757W        W28151  42.263  28.555   4.697
59758W        W28152  33.531  42.840   2.406
59759W        W28153   3.395  38.035   4.407
59760W        W28154  24.262  37.489  14.662
59761W        W28155  27.369  34.798  11.132
59762W        W28156  40.324  29.157   0.875
59763W        W28157  39.976   9.086   1.403
59764W        W28158  39.265  21.666  13.986
59765W        W28159   9.941  33.389  11.225
59766W        W28160   9.289  37.771  13.115
59767W        W28161  11.416  28.537   2.279
59768W        W28162  35.117  26.412   0.184
59769W        W28163  28.240  23.546   4.110
59770W        W28164   5.498  15.868   4.127
59771W        W28165   7.416  35.561  11.093
59772W        W28166  11.887  22.056   4.319
59773W        W28167  17.171  37.240   1.819
59774W        W28168  24.725  21.621  12.506
59775W        W28169  12.778  23.550   0.422
59776W        W28170  29.023  14.372   4.625
59777W        W28171  11.648  37.238   0.279
59778W        W28172  21.962  39.094   4.853
59779W        W28173   1.309  31.020   2.836
59780W        W28174   6.742  43.870   4.106
59781W        W28175  15.028  15.505  11.548
59782W        W28176  12.127  37.552   3.370
59783W        W28177  44.302  44.358  14.815
59784W        W28178  28.666  24.515  11.078
59785W        W28179  41.612  12.306   3.669
59786W        W28180   2.832  39.488   2.582
59787W        W28181  25.606  35.726   1.920
59788W        W28182  35.768   4.139   0.283
59789W        W28183  31.585  17.845   4.913
59790W        W28184  27.677   2.765   0.680
59791W        W28185  18.333   1.527   3.701
59792W        W28186  14.898  24.814   3.194
59793W        W28187  16.290  15.684  11.020
59794W        W28188  40.273   3.697   0.826
59795W        W28189  20.610   6.382   1.396
59796W        W28190  34.584  13.813  13.968
59797W        W28191  22.234  35.967   3.608
59798W        W28192  11.622  13.805  14.661
59799W        W28193  22.628  21.950  13.495
59800W        W28194   2.599   0.562  14.979
59801W        W28195  39.318  38.428  10.549
59802W        W28196  13.175  29.591  10.975
59803W        W28197   6.441  33.342   4.129
59804W        W28198  29.427   3.752  13.224
59805W        W28199  11.862  26.044   2.609
59806W        W28200  17.754  24.986   1.383
59807W        W28201  30.454  29.319  10.481
59808W        W28202  43.764   2.973  13.650
59809W        W28203  21.730  35.427  12.525
59810W        W28204  30.489  11.773  12.020
59811W        W28205   5.886  20.220   0.775
59812W        W28206  24.530  36.161  14.294
59813W        W28207  13.199  23.530   0.738
59814W        W28208   6.163  32.516   0.895
59815W        W28209   4.226  35.578   1.158
59816W        W28210  23.333  16.614   4.254
59817W        W28211  16.419  15.421   1.161
59818W        W28212  33.327  29.458  14.515
59819W        W28213  42.848  17.632  10.823
59820W        W28214   0.405  20.358   2.145
59821W        W28215  19.580  19.366  12.083
59822W        W28216  28.059  10.656   1.383
59823W        W28217  28.520   2.786  13.252
59824W        W28218  18.601  44.082   1.516
59825W        W28219   5.953  17.552   0.561
59826W        W28220  44.871  16.548  11.029
59827W        W28221  23.707  14.481   2.676
59828W        W28222  22.992  23.479   2.768
59829W        W28223  34.871   9.798  12.117
59830W        W28224  38.459   6.921   1.704
59831W        W28225  17.639  31.399   3.243
59832W        W28226  21.713  20.646  13.734
59833W        W28227  28.645  13.883   1.719
59834W        W28228   5.378   1.295  11.175
59835W        W28229  33.999  40.471   3.387
59836W        W28230  26.618  24.198   2.802
59837W        W28231  17.764   6.888   1.363
59838W        W28232   1.655  27.395   3.559
59839W        W28233  37.269   0.861  13.031
59840W        W28234  35.407  37.510  11.006
59841W        W28235   6.898  22.849  14.657
59842W        W28236  11.655  29.963  14.690
59843W        W28237  29.067   8.057  14.354
59844W        W28238  18.558  36.976  12.357
59845W        W28239  24.940  16.856  12.936
59846W        W28240  12.697  10.213  14.840
59847W        W28241  32.654  30.564  10.656
59848W        W28242  18.361  15.134   2.848
59849W        W28243   7.249  37.621   0.773
59850W        W28244   9.599  27.936  14.866
59851W        W28245  21.076   1.920  13.332
59852W        W28246  25.557   5.808  12.390
59853W        W28247  29.503   4.477   2.117
59854W        W28248   5.285  34.480  12.751
59855W        W28249  43.347  16.140  11.281
59856W        W28250  33.887  19.182  12.939
59857W        W28251   8.634   5.809  11.952
59858W        W28252  18.947  35.004  14.963
59859W        W28253  23.005  25.822  13.978
59860W        W28254  39.846  23.518   2.696
59861W        W28255   8.386  43.534  13.938
59862W        W28256  43.401   3.308   4.787
59863W        W28257   4.248  29.922  14.156
59864W        W28258  24.630  33.199  14.509
59865W        W28259  36.839   5.336   0.895
59866W        W28260  22.682  35.750  12.098
59867W        W28261  16.223  27.697  13.419
59868W        W28262  27.132  18.329  11.220
59869W        W28263   9.729  20.654   0.166
59870W        W28264  12.783   9.744  11.823
59871W        W28265   8.074  18.223   1.401
59872W        W28266  25.459  23.613  10.135
59873W        W28267  28.868  10.737  12.109
59874W        W28268  43.356  31.523   1.456
59875W        W28269  28.424  13.507   0.005
59876W        W28270   8.695  26.255  13.446
59877W        W28271  19.260   8.995  14.518
59878W        W28272  29.772  26.615   1.414
59879W        W28273  10.320  25.674  10.453
59880W        W28274  41.049   6.104  11.678
59881W        W28275   7.532  12.429  13.357
59882W        W28276   2.295  16.866  12.890
59883W        W28277  15.059  24.964  14.360
59884W        W28278  33.597  38.853   2.668
59885W        W28279  34.472  26.478   3.123
59886W        W28280   7.823  28.121   0.700
59887W        W28281  33.329   6.464  11.229
59888W        W28282  34.922  42.245  14.298
59889W        W28283  18.089  32.602  14.241
59890W        W28284  15.288   6.893   2.344
59891W        W28285  17.454  32.495   4.670
59892W        W28286  21.058   7.625  10.764
59893W        W28287   0.438  38.618   1.703
59894W        W28288  41.803  33.664   3.289
59895W        W28289   7.767  31.827   4.111
59896W        W28290  27.671  44.002   0.129
59897W        W28291  13.775  38.351  13.548
59898W        W28292  20.325   6.575   4.161
59899W        W28293  32.847  44.478  13.419
59900W        W28294  15.149  27.570   1.987
59901W        W28295  21.541  33.018  11.104
59902W        W28296  11.330  23.806  12.370
59903W        W28297  36.157  13.372   3.228
59904W        W28298  42.325  24.698  11.165
59905W        W28299  31.686  19.527  12.259
59906W        W28300  40.876  18.997  11.538
59907W        W28301   9.344  14.723  13.017
59908W        W28302   1.762  17.154   2.341
59909W        W28303  30.918  26.468   2.270
59910W        W28304  19.035  10.093   3.129
59911W        W28305   4.434   5.863   1.394
59912W        W28306  13.029  17.724   4.103
59913W        W28307  24.605  29.758   0.433
59914W        W28308   0.899  42.107  13.767
59915W        W28309  24.226  20.730  14.048
59916W        W28310   3.258  37.478  11.971
59917W        W28311  10.087  39.576   2.872
59918W        W28312  12.011  21.672  10.849
59919W        W28313   6.735  26.477   1.754
59920W        W28314  22.045   1.805  11.157
59921W        W28315  35.545   7.859   1.845
59922W        W28316  41.713  11.002   1.792
59923W        W28317   6.423  27.067  12.425
59924W        W28318  18.229  27.883   3.695
59925W        W28319  32.532  16.971  11.868
59926W        W28320  34.475   1.113   2.476
59927W        W28321  36.922   6.258   2.114
59928W        W28322  31.704  44.297   5.159
59929W        W28323  18.237   2.050  12.596
59930W        W28324  14.808  43.562   2.374
59931W        W28325  22.601  34.550   0.939
59932W        W28326  27.283  24.626   3.753
59933W        W28327   2.467  20.649   3.436
59934W        W28328  40.703  17.067   3.178
59935W        W28329   7.454  33.813   3.411
59936W        W28330  39.006  22.269  10.802
59937W        W28331   6.514  27.115   2.291
59938W        W28332  32.558   3.458  13.304
59939W        W28333  27.296   3.113   3.393
59940W        W28334  19.690  38.808  10.458
59941W        W28335  17.118  31.073  13.745
59942W        W28336  25.473  36.004  14.307
59943W        W28337  33.089  14.396   1.927
59944W        W28338  34.482   7.124   1.879
59945W        W28339   0.521  39.662   1.685
59946W        W28340  18.513  38.284   0.647
59947W        W28341  27.954   7.439  14.048
59948W        W28342  40.934  22.127   1.637
59949W        W28343   2.227  10.880   1.396
59950W        W28344  20.962   5.952  14.830
59951W        W28345  30.241   8.585   1.454
59952W        W28346   4.961  24.750  13.112
59953W        W28347  21.847  10.162   4.639
59954W        W28348  40.355   0.311  10.706
59955W        W28349   4.314  32.342  12.049
59956W        W28350  30.517  33.493   0.438
59957W        W28351  30.931  20.548   0.190
59958W        W28352  17.620   1.473   4.518
59959W        W28353  18.238   4.823  14.289
59960W        W28354  22.573  14.074  13.635
59961W        W28355   1.854   1.174   0.484
59962W        W28356  10.186  40.557   1.307
59963W        W28357  38.483   7.416  12.968
59964W        W28358  30.604  42.264   5.079
59965W        W28359   7.185  20.039   0.384
59966W        W28360  26.313   9.658  13.012
59967W        W28361   1.179  21.951   2.682
59968W        W28362  14.075  10.002   5.019
59969W        W28363   9.412  19.446   4.150
59970W        W28364  41.084  38.469  12.993
59971W        W28365   8.704  34.548  10.527
59972W        W28366  15.039   2.818   4.870
59973W        W28367  19.629  28.673   2.412
59974W        W28368   6.672   3.948  12.294
59975W        W28369   7.397  38.216  12.407
59976W        W28370  23.525  11.282   1.325
59977W        W28371  37.768   4.959  14.548
59978W        W28372  40.035  31.825  12.042
59979W        W28373  34.902  11.900   3.286
59980W        W28374   3.410   5.540   3.670
59981W        W28375  33.034  13.519   4.758
59982W        W28376  29.353  15.358   4.641
59983W        W28377  40.926  18.858   3.784
59984W        W28378  27.935  12.075  13.507
59985W        W28379  41.800   4.411   0.053
59986W        W28380  21.233   8.583  12.434
59987W        W28381  32.140  28.651  11.576
59988W        W28382  43.630   4.277  11.149
59989W        W28383   0.747  13.252   1.261
59990W        W28384  14.559  21.301   1.776
59991W        W28385   7.326  33.909   2.002
59992W        W28386  39.096   4.953   1.240
59993W        W28387  28.127  35.535  10.025
59994W        W28388  16.002  14.243   0.802
59995W        W28389  37.492  43.998   4.245
59996W        W28390   5.378  20.024  13.316
59997W        W28391  16.141  27.637  12.559
59998W        W28392  25.603  19.639   1.922
59999W        W28393   1.155  18.973  13.033
60000W        W28394  34.796  12.775  13.383
60001W        W28395  41.743  24.955  10.763
60002W        W28396  31.011  12.534  10.763
60003W        W28397   5.417  43.496   3.256
60004W        W28398   0.979  26.721   1.267
60005W        W28399  43.114  17.162  14.842
60006W        W28400  13.280  14.807  14.688
60007W        W28401  35.855   0.458  13.331
60008W        W28402  35.316  26.808   2.699
60009W        W28403  23.504  21.642  11.136
60010W        W28404  17.803  32.128   1.254
60011W        W28405  26.972   2.935  14.356
60012W        W28406  43.475  39.070  10.680
60013W        W28407   2.890   0.394   2.112
60014W        W28408   1.475   1.401   1.405
60015W        W28409   9.424  36.404  10.698
60016W        W28410  16.603  42.146   5.400
60017W        W28411  21.458  35.411  12.088
60018W        W28412   9.955  23.158  13.296
60019W        W28413  42.253  35.912   4.991
60020W        W28414  34.147   3.714   1.832
60021W        W28415  28.649   1.942   4.785
60022W        W28416  35.149   5.723  12.161
60023W        W28417  12.273   9.493   4.662
60024W        W28418  41.771   1.279   0.353
60025W        W28419  26.719  15.360  10.794
60026W        W28420  13.859  11.277   1.313
60027W        W28421   4.632  27.902  12.973
60028W        W28422  17.241   2.384   2.250
60029W        W28423  21.288  23.621   0.942
60030W        W28424  25.967   1.161  12.389
60031W        W28425  22.463  40.038   1.302
60032W        W28426  14.072   8.302  13.516
60033W        W28427  16.007  10.803   9.992
60034W        W28428  42.855   7.974  12.077
60035W        W28429  14.186   3.957  11.196
60036W        W28430   8.799  43.386   3.539
60037W        W28431  21.247  12.393  10.892
60038W        W28432  44.917  43.940  13.568
60039W        W28433  38.480   3.050   1.042
60040W        W28434  17.157  31.350  14.424
60041W        W28435   0.856  24.974   5.010
60042W        W28436   2.807  14.707  14.940
60043W        W28437   8.462  21.610  14.248
60044W        W28438  40.500  17.675  10.627
60045W        W28439  37.552  32.505  10.948
60046W        W28440  14.098  27.742   1.253
60047W        W28441  32.705  11.831   2.664
60048W        W28442  16.752   7.593  14.824
60049W        W28443  40.675  42.390   3.837
60050W        W28444  29.525  13.605   3.778
60051W        W28445  12.596  34.222   1.365
60052W        W28446   1.272  11.411  11.571
60053W        W28447   7.368  28.180   4.072
60054W        W28448   1.716   8.260  14.496
60055W        W28449  29.972  18.718  10.743
60056W        W28450  30.119  42.431  11.628
60057W        W28451   5.546  25.729  10.724
60058W        W28452  29.524  26.071  12.759
60059W        W28453  13.291  40.916   2.634
60060W        W28454  40.511  43.405   0.261
60061W        W28455  28.762  40.055  10.764
60062W        W28456  12.103  34.445  11.649
60063W        W28457  11.781  41.566  14.039
60064W        W28458  28.435   0.474  12.556
60065W        W28459  17.118  30.919  11.518
60066W        W28460  11.325  41.699  13.825
60067W        W28461   1.098  36.938   3.752
60068W        W28462  17.536  17.242   0.353
60069W        W28463  22.304   7.883   4.365
60070W        W28464  24.501  43.953   4.759
60071W        W28465  42.200  19.625  13.792
60072W        W28466  43.931  35.812   0.258
60073W        W28467  21.173   2.793   2.770
60074W        W28468  25.964  19.301   3.846
60075W        W28469  27.161  36.005   0.237
60076W        W28470   6.360  32.432   3.722
60077W        W28471  38.189  43.391   1.454
60078W        W28472  21.539  19.266   2.701
60079W        W28473   8.076  40.901  14.728
60080W        W28474  37.364  34.958   1.818
60081W        W28475  36.416  12.009  13.832
60082W        W28476   8.194  38.673   2.625
60083W        W28477  43.260  29.475  12.213
60084W        W28478  42.031  34.410   2.802
60085W        W28479  32.905  41.608   2.822
60086W        W28480  42.640  37.520   2.324
60087W        W28481  37.803  12.527  13.844
60088W        W28482  15.073  23.276  10.705
60089W        W28483  36.978  33.643  13.435
60090W        W28484  14.789   0.416   4.241
60091W        W28485   0.365  37.346   3.865
60092W        W28486  38.076   9.856  13.393
60093W        W28487  40.881   0.299  14.585
60094W        W28488   9.198   1.220   1.885
60095W        W28489   2.492  26.623   3.123
60096W        W28490  43.539  40.999  11.518
60097W        W28491  32.405   2.435  11.634
60098W        W28492  15.513   9.812   3.194
60099W        W28493  29.696   7.692   2.699
60100W        W28494  21.618   7.193   3.732
60101W        W28495  22.439  16.629   0.934
60102W        W28496  36.714   4.792  13.881
60103W        W28497   3.761   6.437  10.079
60104W        W28498  43.883  43.048  14.529
60105W        W28499  29.175  16.600   1.323
60106W        W28500  31.459  27.711  12.078
60107W        W28501  32.139   9.080   4.598
60108W        W28502  26.489   2.901   0.374
60109W        W28503  28.196  20.031   4.100
60110W        W28504  32.651   2.330   1.374
60111W        W28505  44.440  31.070  13.959
60112W        W28506  23.209  13.161  10.624
60113W        W28507  20.310   1.457   2.697
60114W        W28508  35.361  19.137  13.899
60115W        W28509  18.306  34.807   0.215
60116W        W28510   1.861  42.585   2.360
60117W        W28511  26.125  12.348   3.638
60118W        W28512  36.585   2.434  12.699
60119W        W28513  25.180  39.922  12.986
60120W        W28514  28.971  17.812  14.845
60121W        W28515   9.881  26.885   2.419
60122W        W28516  18.623  26.948   2.688
60123W        W28517  30.330  17.253   0.466
60124W        W28518  22.934  37.413  14.482
60125W        W28519  40.658   5.229  11.585
60126W        W28520  19.953  20.623   0.562
60127W        W28521  19.672   2.789   4.856
60128W        W28522  30.985  23.629  12.988
60129W        W28523  30.321   3.771  12.997
60130W        W28524  37.187   3.757  12.778
60131W        W28525  42.571  23.464  13.578
60132W        W28526  11.291   5.645   2.696
60133W        W28527  30.392  40.017   3.359
60134W        W28528  33.957  33.980  10.854
60135W        W28529  10.705  24.087   1.460
60136W        W28530   5.357  10.233   3.146
60137W        W28531  11.173  36.176  13.639
60138W        W28532   8.709   1.801  13.820
60139W        W28533  21.757  12.625   1.649
60140W        W28534  34.115  43.591  13.740
60141W        W28535  40.652   8.355  11.556
60142W        W28536   0.574  24.673  12.858
60143W        W28537  35.628  34.838  12.592
60144W        W28538   7.406  37.972   4.435
60145W        W28539  31.989  43.420  11.801
60146W        W28540  29.056  16.785  14.842
60147W        W28541  26.102  21.576   3.099
60148W        W28542  10.785  19.815  12.636
60149W        W28543   3.845  39.038   3.266
60150W        W28544   3.429  28.537   1.372
60151W        W28545  11.434  38.232   3.678
60152W        W28546  42.347  41.699  12.402
60153W        W28547  26.884  44.419  14.028
60154W        W28548  37.289  42.477  11.700
60155W        W28549   0.564   6.992   0.736
60156W        W28550  20.896   8.576  10.050
60157W        W28551  15.990   3.272   0.901
60158W        W28552   7.531   0.283   4.166
60159W        W28553  16.217  33.287  11.352
60160W        W28554  18.353  23.054   0.704
60161W        W28555  12.785  18.768   3.286
60162W        W28556  11.654  39.747   2.869
60163W        W28557  28.660  19.835  10.963
60164W        W28558   3.223  43.306   1.685
60165W        W28559  44.393  21.957  13.475
60166W        W28560  21.004   3.079  11.792
60167W        W28561  19.822   6.885   1.399
60168W        W28562  28.624  20.643  13.563
60169W        W28563  37.085  15.245  14.348
60170W        W28564  41.323  37.157  14.848
60171W        W28565  26.647  39.822   4.847
60172W        W28566  31.126  36.846   3.571
60173W        W28567   0.904  43.563  14.125
60174W        W28568  41.847  29.386   1.861
60175W        W28569  39.755  37.361  11.855
60176W        W28570   3.456  17.408  14.827
60177W        W28571  21.000   7.947   2.448
60178W        W28572  35.819  20.441  13.486
60179W        W28573   7.912  44.619  10.441
60180W        W28574   5.426  24.130   0.737
60181W        W28575   3.840  38.406   0.799
60182W        W28576  15.677  41.008   3.715
60183W        W28577  17.555  17.151   3.701
60184W        W28578  33.580  43.369   1.262
60185W        W28579  43.256  16.684  10.677
60186W        W28580  32.958  36.076   1.002
60187W        W28581  30.596  21.255   1.815
60188W        W28582  26.062  35.132  12.303
60189W        W28583  13.641  35.445  14.434
60190W        W28584  34.155  19.683  11.140
60191W        W28585  31.716  26.444   5.112
60192W        W28586  33.389  20.761  12.484
60193W        W28587   0.909  15.567   2.352
60194W        W28588  13.094  26.233   4.851
60195W        W28589   1.696  15.806   3.396
60196W        W28590   3.358  38.977   3.720
60197W        W28591  12.046  38.618  12.664
60198W        W28592   4.499  12.719  10.482
60199W        W28593  38.760   9.611   2.264
60200W        W28594  29.454   3.729   1.482
60201W        W28595  15.715  41.396   4.654
60202W        W28596  40.400  18.751  13.950
60203W        W28597   2.765  12.648   4.706
60204W        W28598  35.128  25.677  11.650
60205W        W28599  35.113  38.876   0.846
60206W        W28600  21.161  44.770   2.256
60207W        W28601  33.243  22.487  11.091
60208W        W28602   2.340  15.010   2.443
60209W        W28603  13.201   8.214  12.536
60210W        W28604   8.664  32.955   4.739
60211W        W28605  32.924  37.328  10.244
60212W        W28606  13.583  16.847  11.042
60213W        W28607  42.301   7.818   4.035
60214W        W28608  11.923  30.940   4.123
60215W        W28609   2.771  41.228   1.042
60216W        W28610  37.812  42.102  12.961
60217W        W28611  29.740  44.886   4.213
60218W        W28612   3.020  19.739   0.059
60219W        W28613  31.964  21.525  11.711
60220W        W28614  11.614   3.922   2.471
60221W        W28615  36.553  16.116  13.291
60222W        W28616  18.755  23.798   1.729
60223W        W28617  42.031  30.963  13.923
60224W        W28618  20.584  44.509   0.322
60225W        W28619  39.181  35.541   1.385
60226W        W28620  19.766  24.066  11.870
60227W        W28621   7.960   6.274  12.451
60228W        W28622  22.701  33.338  14.351
60229W        W28623  30.086  20.947  13.016
60230W        W28624  30.227  34.613  13.441
60231W        W28625  10.396  25.566   2.382
60232W        W28626  39.008   5.690   0.839
60233W        W28627  21.216  12.367  14.714
60234W        W28628   8.616  34.869  14.390
60235W        W28629  40.894  25.580  14.123
60236W        W28630  37.572  40.503   2.734
60237W        W28631  14.379   7.678   1.307
60238W        W28632  19.213  27.398   4.321
60239W        W28633  28.238  40.624   4.572
60240W        W28634  25.809  35.050   3.991
60241W        W28635  29.158  24.956  12.476
60242W        W28636   2.908  18.509  13.504
60243W        W28637   8.212  25.848  14.896
60244W        W28638  44.483   6.169  13.183
60245W        W28639  28.046   9.178   0.877
60246W        W28640  24.517  28.951  11.139
60247W        W28641  33.865  11.407   0.959
60248W        W28642  41.507  22.628  12.798
60249W        W28643   6.385   9.465  12.851
60250W        W28644   2.499  11.276   1.118
60251W        W28645  38.563  23.194  13.590
60252W        W28646  14.382  39.743  12.476
60253W        W28647  32.829  29.217   4.477
60254W        W28648  34.812  19.601  10.447
60255W        W28649   8.923   8.717  11.974
60256W        W28650  24.181  22.625  10.689
60257W        W28651  38.836  44.490  11.245
60258W        W28652  15.149  40.619  12.107
60259W        W28653   1.898  25.839   4.724
60260W        W28654  32.457  16.608   1.543
60261W        W28655  28.514  30.639  13.778
60262W        W28656   0.225  41.348   4.808
60263W        W28657   1.437  34.023  14.126
60264W        W28658   5.850   1.237  12.838
60265W        W28659  22.627   3.819  13.842
60266W        W28660  37.921  29.089   4.957
60267W        W28661  16.757  34.000   4.653
60268W        W28662  20.424  43.116   0.542
60269W        W28663  27.528  10.588   1.464
60270W        W28664   8.013  30.196   4.597
60271W        W28665   8.847   5.944   4.819
60272W        W28666  21.139  20.799   3.810
60273W        W28667  10.764  23.357   2.850
60274W        W28668  40.609  31.421   3.534
60275W        W28669  12.776   9.359  10.694
60276W        W28670  22.212  26.598   4.067
60277W        W28671  14.072   2.991   0.298
60278W        W28672  34.848  15.098   2.414
60279W        W28673  24.592  17.657  14.370
60280W        W28674  15.723  12.174   4.691
60281W        W28675  30.292  29.706   3.864
60282W        W28676   9.441   0.402  12.616
60283W        W28677   3.377  40.454  11.560
60284W        W28678  14.408   2.817  11.663
60285W        W28679  14.763  40.045  11.578
60286W        W28680  36.139   4.877  11.503
60287W        W28681  16.777  12.119  10.461
60288W        W28682   9.407  42.355   0.441
60289W        W28683  29.966  37.623   0.283
60290W        W28684   1.157  22.000  11.526
60291W        W28685  18.722  36.484  14.467
60292W        W28686   4.514  11.107  13.463
60293W        W28687  25.132  16.121  14.728
60294W        W28688   3.422   3.516  11.156
60295W        W28689  30.571  34.018   0.553
60296W        W28690  29.452  19.334  12.060
60297W        W28691  19.734  10.386  10.687
60298W        W28692  25.645  14.191   4.963
60299W        W28693  19.011  36.928  14.420
60300W        W28694  15.810  28.071  14.583
60301W        W28695  30.971  13.268   2.911
60302W        W28696  24.898   5.814  13.120
60303W        W28697  14.275  40.489  13.058
60304W        W28698  43.359  13.721  11.493
60305W        W28699  28.616  29.391  14.798
60306W        W28700  34.131   9.384  12.814
60307W        W28701   1.162  13.567   2.368
60308W        W28702  23.715   7.858  12.336
60309W        W28703   1.026  37.340   2.646
60310W        W28704  29.732  38.972   2.343
60311W        W28705  41.245   6.794  12.798
60312W        W28706  13.745  27.491  12.302
60313W        W28707   6.245   5.904  10.534
60314W        W28708  44.181  24.180   4.018
60315W        W28709  14.573   0.057   3.123
60316W        W28710  22.288  17.700  10.754
60317W        W28711  11.937  23.346   3.241
60318W        W28712  12.827  33.379  13.794
60319W        W28713   9.881   6.337  14.354
60320W        W28714  13.144  39.015  13.372
60321W        W28715  20.805   0.279   5.011
60322W        W28716  25.925  38.373   3.721
60323W        W28717  24.001  14.188  10.292
60324W        W28718  32.087   1.456   2.224
60325W        W28719   2.947  27.543  12.447
60326W        W28720  31.180  10.136   4.303
60327W        W28721  34.786  34.985   5.321
60328W        W28722   7.861  17.766  12.587
60329W        W28723  39.908  35.924  10.200
60330W        W28724  44.792  34.564   0.909
60331W        W28725  36.353  23.116   0.431
60332W        W28726  28.390   6.104  10.535
60333W        W28727  30.105   1.143   3.317
60334W        W28728  29.652  28.615   3.154
60335W        W28729   1.999  40.387  11.480
60336W        W28730   6.261  43.026   4.937
60337W        W28731  18.915  40.668   9.992
60338W        W28732  23.015  29.820  13.618
60339W        W28733  23.059  13.020  11.939
60340W        W28734  17.559  44.255  12.997
60341W        W28735  41.150  42.939  13.630
60342W        W28736  27.364  44.930  11.350
60343W        W28737  18.077  44.442   4.167
60344W        W28738   2.367  21.636  11.462
60345W        W28739  11.157  13.131  11.581
60346W        W28740   0.919  38.336   4.697
60347W        W28741  26.055  39.829  11.728
60348W        W28742   6.361   7.655   4.622
60349W        W28743  34.103   1.344   4.038
60350W        W28744  17.123  13.900  14.609
60351W        W28745  20.069  22.722  10.673
60352W        W28746  44.572  10.305   1.356
60353W        W28747  31.457  23.424  11.704
60354W        W28748  42.834  13.098   4.436
60355W        W28749  38.861  43.463  10.765
60356W        W28750   4.963  26.573  14.006
60357W        W28751  14.344  12.600  11.137
60358W        W28752  40.002  35.370  12.492
60359W        W28753   9.450   5.107   2.724
60360W        W28754  32.242  34.810   2.757
60361W        W28755  28.737  23.800   3.234
60362W        W28756  44.489  13.317   2.869
60363W        W28757  39.434  33.321  10.686
60364W        W28758  40.902  41.275   3.331
60365W        W28759   9.443  15.774  11.168
60366W        W28760  13.094  41.304  12.905
60367W        W28761  22.148  31.972   0.488
60368W        W28762   8.538  39.571  13.820
60369W        W28763  17.052  19.059  13.414
60370W        W28764   5.887   6.467  11.173
60371W        W28765   6.662  28.254  11.030
60372W        W28766  32.791   9.770  11.923
60373W        W28767  24.593   3.353   4.172
60374W        W28768   0.129  30.643   1.346
60375W        W28769   0.854  18.205  13.917
60376W        W28770  28.479   2.434   0.876
60377W        W28771  22.548  28.214  10.898
60378W        W28772  26.921   3.195   0.446
60379W        W28773  19.746  19.987   4.081
60380W        W28774   4.010  38.551   1.766
60381W        W28775   6.482  11.751   4.461
60382W        W28776  33.356  41.104  10.490
60383W        W28777  19.906  14.273   3.920
60384W        W28778   5.470   6.891  11.059
60385W        W28779  38.848  21.031   1.834
60386W        W28780  30.511  41.874  12.855
60387W        W28781  40.401  29.351  13.625
60388W        W28782  29.365  19.570   2.648
60389W        W28783   7.700  10.694   2.146
60390W        W28784   7.660  34.020  12.009
60391W        W28785  35.002   1.874  13.195
60392W        W28786  35.995  40.246   2.274
60393W        W28787  31.974  15.178  12.891
60394W        W28788  12.265  18.120   2.484
60395W        W28789  31.880  25.465  12.017
60396W        W28790   7.731  24.725  13.624
60397W        W28791   8.138  32.967  13.083
60398W        W28792  23.575  10.875   0.494
60399W        W28793  21.497  43.745   2.526
60400W        W28794  31.657  38.922  13.998
60401W        W28795  19.588   1.988   0.743
60402W        W28796  11.269  19.050  13.421
60403W        W28797   1.432  36.542  10.509
60404W        W28798  21.171  31.599   1.840
60405W        W28799  39.857  43.487   4.232
60406W        W28800  43.936  42.533  14.535
60407W        W28801  13.970  28.942   4.813
60408W        W28802   1.519   1.338   4.153
60409W        W28803  29.492  31.875   0.303
60410W        W28804  12.376  19.215   3.217
60411W        W28805  11.241   0.651  10.572
60412W        W28806  39.041  14.598  14.821
60413W        W28807  14.079   2.442   3.791
60414W        W28808  20.458  38.261   4.071
60415W        W28809  19.568  44.258   1.355
60416W        W28810  14.655  12.932   4.092
60417W        W28811  36.256  32.110   0.513
60418W        W28812   7.620  16.518  14.808
60419W        W28813  43.728  10.826   3.290
60420W        W28814  44.942  28.548  11.431
60421W        W28815   1.251  21.534  12.620
60422W        W28816  43.885  13.802   2.351
60423W        W28817  41.506  35.423   3.249
60424W        W28818  26.675   6.321  12.492
60425W        W28819  35.701  42.816  13.658
60426W        W28820  21.297  29.331  12.581
60427W        W28821   4.058  28.718   3.774
60428W        W28822  36.160  21.658   2.422
60429W        W28823  19.192  16.094   2.773
60430W        W28824  15.662  28.550  14.511
60431W        W28825  21.757  18.775  10.917
60432W        W28826   8.006  15.183  13.347
60433W        W28827  20.653   5.336  12.069
60434W        W28828  24.313  14.241   0.882
60435W        W28829  11.369  13.750   0.717
60436W        W28830   5.929   7.783   4.885
60437W        W28831  31.391  35.855   1.938
60438W        W28832   9.810  41.032   0.370
60439W        W28833   7.051  16.055  10.490
60440W        W28834  31.453  20.782   4.149
60441W        W28835  37.798  34.962   3.634
60442W        W28836  28.629  21.067  14.865
60443W        W28837  26.010  27.660  12.626
60444W        W28838   3.716  18.546  14.401
60445W        W28839  29.834  39.975   1.735
60446W        W28840  31.382   8.244  11.264
60447W        W28841  15.297  40.774  10.612
60448W        W28842  36.795  40.351   2.684
60449W        W28843  29.521  24.934  14.864
60450W        W28844  19.576   7.792   3.725
60451W        W28845   8.223  33.458   1.228
60452W        W28846  38.808  39.557   2.275
60453W        W28847  11.385  20.755  10.417
60454W        W28848  35.611  36.616   0.886
60455W        W28849   4.246   7.421   3.113
60456W        W28850  19.481  23.241  13.333
60457W        W28851  38.330  18.816   0.255
60458W        W28852  35.513  24.780   2.174
60459W        W28853  12.301  29.098   4.329
60460W        W28854   6.885   8.434  14.820
60461W        W28855  23.932   8.307  10.228
60462W        W28856  23.700   1.341   1.776
60463W        W28857  32.582  10.658   1.659
60464W        W28858  41.765  39.919  14.351
60465W        W28859  41.302   2.450  13.540
60466W        W28860  32.988  14.712   3.417
60467W        W28861   6.795  44.158  14.546
60468W        W28862  35.673  18.223   3.312
60469W        W28863  20.204  44.859  14.443
60470W        W28864   4.049  14.445   1.303
60471W        W28865  10.630  18.805  11.439
60472W        W28866  23.732   8.860   2.216
60473W        W28867  30.719  34.589   2.635
60474W        W28868  11.507  36.885   4.323
60475W        W28869  11.611  25.208  13.437
60476W        W28870  19.023  20.295   4.851
60477W        W28871  37.848   7.119   1.942
60478W        W28872  30.947  38.433   3.227
60479W        W28873  21.025  23.045   3.876
60480W        W28874  20.649  44.985   2.217
60481W        W28875  16.312   0.048  12.987
60482W        W28876  11.422   2.210  11.640
60483W        W28877  43.525  30.718   3.726
60484W        W28878  15.633  38.438  11.969
60485W        W28879   4.904  32.014   2.372
60486W        W28880  38.096  20.126  10.899
60487W        W28881   9.464  15.786  14.923
60488W        W28882  35.588  14.119  14.878
60489W        W28883  40.323  13.346   4.474
60490W        W28884  13.756  28.394  11.383
60491W        W28885  28.964  43.125  11.958
60492W        W28886  39.342   8.553   2.552
60493W        W28887  20.808  33.342   4.232
60494W        W28888  36.517  42.260  11.095
60495W        W28889   8.785  11.072   3.243
60496W        W28890  34.632   9.265  12.905
60497W        W28891  27.941  16.026   1.734
60498W        W28892  32.993  26.548  10.122
60499W        W28893   5.971  27.510  11.369
60500W        W28894  13.713  34.055   4.467
60501W        W28895  21.585  23.465   2.196
60502W        W28896  34.397  16.028  14.537
60503W        W28897  20.812  33.865  12.504
60504W        W28898  37.589  24.703  14.947
60505W        W28899  42.852  34.258   2.158
60506W        W28900  44.137  27.089  11.819
60507W        W28901  38.844  35.409   1.914
60508W        W28902  41.245  40.858   3.730
60509W        W28903  14.077  29.732   1.845
60510W        W28904  33.635  19.547  11.208
60511W        W28905  19.698  14.118   2.187
60512W        W28906  32.406  26.648  13.287
60513W        W28907  24.119  35.006  10.018
60514W        W28908  39.965  25.827  14.476
60515W        W28909  39.295  16.015  10.840
60516W        W28910  11.660   7.857   1.059
60517W        W28911  43.121  25.998  10.739
60518W        W28912   4.391  31.852  11.969
60519W        W28913   2.904   3.288  12.024
60520W        W28914  23.205  16.709   2.869
60521W        W28915  31.122  28.415  13.869
60522W        W28916  25.527  22.767   1.800
60523W        W28917  12.622  13.502  12.099
60524W        W28918   5.410  10.593  14.531
60525W        W28919  11.635  33.359   4.097
60526W        W28920   2.120  27.311   2.671
60527W        W28921  29.022  28.157  14.411
60528W        W28922  24.193  17.087   1.921
60529W        W28923  28.191  13.478   3.432
60530W        W28924  27.414  19.023   3.102
60531W        W28925  13.122  19.826   4.664
60532W        W28926   5.371  14.714   1.828
60533W        W28927  13.718  37.007  10.794
60534W        W28928  27.662  32.045   0.836
60535W        W28929  17.699  16.358  10.123
60536W        W28930  23.221  42.647   1.570
60537W        W28931  32.470  41.701   1.025
60538W        W28932  26.665  10.266  14.331
60539W        W28933  21.117  32.076   4.106
60540W        W28934  12.780   9.117   0.474
60541W        W28935  43.476  23.927   2.623
60542W        W28936  16.229  18.527   2.192
60543W        W28937  23.759   3.850  11.096
60544W        W28938  11.150   3.685  12.357
60545W        W28939  24.693   8.830  13.631
60546W        W28940  34.106   3.896  14.033
60547W        W28941  27.941  26.635   4.180
60548W        W28942  41.373  26.657  12.036
60549W        W28943   8.365  43.255  14.380
60550W        W28944  11.584  21.191   3.740
60551W        W28945  24.692  18.149   4.762
60552W        W28946   7.170  21.428   3.365
60553W        W28947  29.026  23.635  11.416
60554W        W28948   1.210  13.852   0.653
60555W        W28949  40.600  32.402   1.690
60556W        W28950  42.201  35.431   2.859
60557W        W28951  34.910  43.361   1.359
60558W        W28952  44.246   5.938   1.616
60559W        W28953  24.608  11.280   3.389
60560W        W28954  39.940   2.363   0.176
60561W        W28955  26.994   3.905   4.521
60562W        W28956   5.020  12.815   0.507
60563W        W28957  25.040  17.809   0.828
60564W        W28958  15.544  24.374  13.006
60565W        W28959  27.701  34.677   0.343
60566W        W28960   3.196   6.457   0.229
60567W        W28961  21.716  22.692  13.524
60568W        W28962  10.467  24.194   0.862
60569W        W28963  31.494   0.714   4.705
60570W        W28964   2.924   1.444   2.162
60571W        W28965  37.287  18.347   4.037
60572W        W28966  37.883   4.164   4.350
60573W        W28967   8.122  28.510   0.494
60574W        W28968  40.751  29.599   0.882
60575W        W28969  26.557  42.030  12.904
60576W        W28970   8.367  23.129   1.877
60577W        W28971  11.222  22.158  11.553
60578W        W28972  24.484  40.276   3.343
60579W        W28973  26.966   1.201   2.896
60580W        W28974   0.009  38.550  10.255
60581W        W28975  35.791  13.395  12.518
60582W        W28976  18.248  29.723   4.795
60583W        W28977  17.096   1.898  14.068
60584W        W28978  13.510  40.568  10.839
60585W        W28979  22.123  37.243  13.325
60586W        W28980  37.320  37.788   4.086
60587W        W28981  34.096  41.300   1.844
60588W        W28982  23.742   8.443  13.515
60589W        W28983  11.934   8.152  12.077
60590W        W28984  39.095  20.118   3.880
60591W        W28985  23.729   1.385   0.810
60592W        W28986  37.896  35.918  12.906
60593W        W28987  15.779   3.446   2.177
60594W        W28988   4.632  25.893   1.595
60595W        W28989  23.167  24.155  14.527
60596W        W28990  19.263  31.574   4.887
60597W        W28991  30.484  35.036   2.127
60598W        W28992  42.731   6.901   0.307
60599W        W28993  33.913  21.076   4.725
60600W        W28994  41.752   6.094  11.198
60601W        W28995  36.404  32.911  11.456
60602W        W28996  31.650   9.267   4.591
60603W        W28997   1.251   7.208   2.484
60604W        W28998  41.100   1.821  12.387
60605W        W28999  20.297  23.689  14.354
60606W        W29000  15.778   0.302  13.496
60607W        W29001   6.838  19.902  13.923
60608W        W29002  35.360  23.561  13.514
60609W        W29003  28.215  36.546  14.086
60610W        W29004  27.066  32.872  12.388
60611W        W29005  29.482  42.330   1.885
60612W        W29006  32.400  23.662  13.290
60613W        W29007  33.891   2.980   3.254
60614W        W29008  40.893  44.379   0.017
60615W        W29009  15.573  17.271  13.149
60616W        W29010  41.036   5.426   1.736
60617W        W29011  13.619  16.073  14.421
60618W        W29012  43.730   7.800   4.266
60619W        W29013  34.048  10.732   1.219
60620W        W29014  32.075  34.667  13.967
60621W        W29015  34.677  20.237   2.208
60622W        W29016   2.917  23.300  13.542
60623W        W29017  31.953  21.629   0.522
60624W        W29018   5.176  10.099  12.611
60625W        W29019  14.130  12.066   2.460
60626W        W29020   4.943  12.960  11.214
60627W        W29021  43.490  14.165  11.195
60628W        W29022   4.707  40.387  12.971
60629W        W29023  36.655   2.953   0.358
60630W        W29024   4.760  11.050  10.614
60631W        W29025  18.371   0.280  11.888
60632W        W29026  35.761  43.813   2.474
60633W        W29027   1.266  37.924   4.528
60634W        W29028  43.060  19.360   1.257
60635W        W29029  10.391   7.780   4.101
60636W        W29030  27.206  14.756   1.226
60637W        W29031  37.931  12.167  14.805
60638W        W29032   0.054  34.958  12.529
60639W        W29033  19.539  25.552  10.291
60640W        W29034  21.461  33.825  11.874
60641W        W29035  16.429  37.221  14.420
60642W        W29036   8.781  26.028   3.801
60643W        W29037  24.248   8.158   1.248
60644W        W29038  27.962  15.758  14.876
60645W        W29039  30.930  23.276   4.187
60646W        W29040  17.273  32.246   0.371
60647W        W29041  44.468  13.670  13.494
60648W        W29042  26.699   9.423   2.622
60649W        W29043  26.005   7.128  14.122
60650W        W29044  13.431  14.052   5.276
60651W        W29045   5.935  25.079   4.121
60652W        W29046   8.822   0.467  13.895
60653W        W29047  44.337  35.606   4.606
60654W        W29048  25.140  39.499   3.553
60655W        W29049  29.560  23.181  12.512
60656W        W29050  41.691  30.679   2.743
60657W        W29051  13.627  17.634   0.571
60658W        W29052  25.031  27.382  10.417
60659W        W29053  32.410  29.512  11.924
60660W        W29054  28.404  20.366   0.543
60661W        W29055  30.694  29.318  11.164
60662W        W29056  29.467   1.415  12.151
60663W        W29057  20.786  10.652   3.945
60664W        W29058  43.057  43.090  13.588
60665W        W29059  42.151   6.676  13.558
60666W        W29060  39.283   3.980   4.176
60667W        W29061  36.567  15.336  14.314
60668W        W29062  38.563   7.876  13.851
60669W        W29063  39.055  13.363  10.658
60670W        W29064   5.327  35.120  13.579
60671W        W29065  33.832  36.093   3.179
60672W        W29066  38.251  19.820  14.962
60673W        W29067   6.957  20.009  12.243
60674W        W29068  22.694  27.192  14.830
60675W        W29069  18.996  36.813  11.803
60676W        W29070  10.365  20.233   4.549
60677W        W29071   6.423   1.969  14.684
60678W        W29072  40.459  44.339   0.785
60679W        W29073  16.721   4.366  10.241
60680W        W29074  39.356  12.421   1.202
60681W        W29075   5.114  35.978   3.630
60682W        W29076  11.164  12.893  11.098
60683W        W29077  20.460   5.737   2.602
60684W        W29078  18.406  38.221   1.201
60685W        W29079  19.275  19.447  11.694
60686W        W29080   7.871  21.033  13.992
60687W        W29081   9.284  37.206  13.323
60688W        W29082  39.586   1.587   1.981
60689W        W29083  24.475   7.725   3.360
60690W        W29084  28.835   0.708   3.225
60691W        W29085   9.360  26.649  10.239
60692W        W29086   8.158  21.279   2.828
60693W        W29087  21.525  17.507  11.984
60694W        W29088   9.713  41.276  12.848
60695W        W29089  20.449  17.123   1.303
60696W        W29090  34.480  27.006   1.194
60697W        W29091  24.645  25.075   1.631
60698W        W29092  24.121  28.144  14.992
60699W        W29093   3.572  17.837   3.715
60700W        W29094  31.130  29.942   0.755
60701W        W29095  15.341   7.411   5.045
60702W        W29096  37.923   6.448  12.501
60703W        W29097  18.213  34.591   1.444
60704W        W29098  19.610  39.260  10.204
60705W        W29099  31.490  44.737   4.627
60706W        W29100  11.273   9.289   1.955
60707W        W29101  15.480   3.381   1.767
60708W        W29102   9.219   8.143  13.509
60709W        W29103   7.138  15.563  11.229
60710W        W29104   1.784  33.190  12.219
60711W        W29105  30.405  23.969   4.261
60712W        W29106  21.458  42.587  13.084
60713W        W29107  20.074  34.844   2.670
60714W        W29108   0.899   0.250   4.709
60715W        W29109  31.074  38.587  13.563
60716W        W29110  16.975   2.304   1.809
60717W        W29111  38.866  39.483  13.465
60718W        W29112   0.723  26.539   0.862
60719W        W29113   7.702  33.515   1.278
60720W        W29114  14.002  14.078  12.050
60721W        W29115   9.597  31.759   4.145
60722W        W29116  19.989  15.772   4.966
60723W        W29117   8.450  31.791   1.815
60724W        W29118   2.940  18.783   4.105
60725W        W29119   8.564  22.675   2.670
60726W        W29120  12.762  17.075   2.798
60727W        W29121   0.967  26.251  10.614
60728W        W29122  34.387  40.406  10.563
60729W        W29123  34.836  16.663  12.174
60730W        W29124  23.661  37.627  10.110
60731W        W29125  16.612  26.994  12.836
60732W        W29126  29.595  39.301  12.491
60733W        W29127  41.580  31.591   3.838
60734W        W29128  21.038  32.484   4.764
60735W        W29129  29.087  16.073  14.363
60736W        W29130  36.261  30.234  12.637
60737W        W29131  31.668  15.608  11.173
60738W        W29132  40.777  38.879  12.996
60739W        W29133  41.952  16.576   4.634
60740W        W29134  21.162  27.717   0.781
60741W        W29135  28.726  30.497   2.244
60742W        W29136  12.362  40.465   4.342
60743W        W29137   6.929  25.712   2.433
60744W        W29138  28.347  22.543   1.782
60745W        W29139  29.461   0.887  10.722
60746W        W29140  13.742  11.166  11.379
60747W        W29141   0.853  10.337  12.002
60748W        W29142  23.378   9.498  11.049
60749W        W29143  12.330  31.580  10.751
60750W        W29144  34.199  22.683  13.392
60751W        W29145   1.298  10.599  12.001
60752W        W29146  27.058  27.588  14.986
60753W        W29147  20.471  12.889  14.779
60754W        W29148   9.364  40.283  13.026
60755W        W29149  41.255  13.979  11.196
60756W        W29150  10.193  16.258   3.448
60757W        W29151  33.554  29.176   0.737
60758W        W29152   8.759  33.580   4.964
60759W        W29153  44.856  28.031  12.848
60760W        W29154  32.340  14.770  11.004
60761W        W29155  23.974  42.882   3.513
60762W        W29156  41.503  15.186   2.339
60763W        W29157  38.436   2.990   5.101
60764W        W29158  43.761  11.273  12.590
60765W        W29159  41.552  44.812  11.650
60766W        W29160   9.646   1.698  14.842
60767W        W29161  20.264  20.299  11.022
60768W        W29162  28.074  23.182   3.179
60769W        W29163  41.054  43.388   0.370
60770W        W29164  17.040  17.124   0.263
60771W        W29165  41.836  11.752   0.519
60772W        W29166  19.629  32.277  12.067
60773W        W29167  39.229  43.808   4.780
60774W        W29168   1.948  32.540   2.400
60775W        W29169  37.220  15.750   5.469
60776W        W29170  13.652  23.033  13.345
60777W        W29171  39.777  43.483  10.775
60778W        W29172  25.231   9.252   2.779
60779W        W29173  41.550  37.646  14.819
60780W        W29174  21.557  44.531  11.428
60781W        W29175  18.107   2.155  11.291
60782W        W29176  31.176  37.313  14.314
60783W        W29177  21.964  36.280  12.400
60784W        W29178  35.918  30.966  14.875
60785W        W29179  22.540  24.785   0.959
60786W        W29180   0.853  15.041   2.439
60787W        W29181  25.719  15.036  14.277
60788W        W29182  19.317  18.136   2.146
60789W        W29183   8.911  21.734   0.976
60790W        W29184  30.051  27.721  13.020
60791W        W29185   9.396  32.532   4.500
60792W        W29186   6.451  41.296  11.732
60793W        W29187   8.235  19.267   2.617
60794W        W29188  10.140  13.968  10.656
60795W        W29189  29.079  35.411  10.723
60796W        W29190  18.671   1.811   4.558
60797W        W29191  29.247   2.471  14.376
60798W        W29192  11.460  15.909  14.447
60799W        W29193  13.406  31.085   2.155
60800W        W29194  12.116   0.212  14.722
60801W        W29195  41.555  27.870   0.346
60802W        W29196   0.465   0.254   3.859
60803W        W29197  22.001  21.019  14.005
60804W        W29198   0.487  37.032  14.168
60805W        W29199  10.436  41.034  12.178
60806W        W29200  37.229  16.071   0.295
60807W        W29201  12.180  24.802  12.462
60808W        W29202   5.803   0.025   0.451
60809W        W29203  39.045  42.064   1.190
60810W        W29204   1.799  31.034   0.297
60811W        W29205  12.280  42.797  11.133
60812W        W29206  44.327   2.733   4.296
60813W        W29207  37.769   0.513   1.299
60814W        W29208  21.323   0.406   4.011
60815W        W29209  32.716   6.367   0.028
60816W        W29210  38.008  36.800  11.974
60817W        W29211   8.929  22.047   0.567
60818W        W29212   7.872  10.506  12.882
60819W        W29213   9.135  42.215   3.451
60820W        W29214   4.638  32.353  11.195
60821W        W29215  25.503  42.584   3.216
60822W        W29216  28.013   7.055  10.360
60823W        W29217  15.804  16.886  10.197
60824W        W29218  43.636  35.702  11.681
60825W        W29219  14.652  14.437   4.212
60826W        W29220  26.029  19.779   5.063
60827W        W29221   0.450  17.342  12.452
60828W        W29222   0.397   5.327  13.899
60829W        W29223  43.362  44.200  12.506
60830W        W29224  27.924  42.909  14.578
60831W        W29225  17.647  39.409   1.124
60832W        W29226   7.164  39.146  11.580
60833W        W29227  12.627  43.452   1.616
60834W        W29228  16.241  19.808  10.270
60835W        W29229  25.395  27.466  11.802
60836W        W29230  39.293  15.064  11.681
60837W        W29231   2.630   4.842   4.732
60838W        W29232  39.979  39.298   3.656
60839W        W29233   1.446  44.316   0.626
60840W        W29234  23.169  44.820   1.733
60841W        W29235  29.122   0.451   1.229
60842W        W29236  31.214  14.652   2.629
60843W        W29237  20.450  44.119  12.435
60844W        W29238  30.917  24.107   0.470
60845W        W29239  35.256  30.837   2.742
60846W        W29240  12.727  44.494  13.399
60847W        W29241  35.851  10.136  12.328
60848W        W29242  37.056  15.122  11.181
60849W        W29243  38.854  39.507  12.639
60850W        W29244  22.590  24.457   1.357
60851W        W29245   6.749   6.131   5.542
60852W        W29246  32.615  15.075  13.966
60853W        W29247  39.398   0.783   3.221
60854W        W29248  24.990   4.552   3.340
60855W        W29249  37.051  35.062  10.695
60856W        W29250  18.073  42.727   4.537
60857W        W29251  24.448  22.691  13.521
60858W        W29252  15.063  17.504   2.694
60859W        W29253  19.249   3.596   4.886
60860W        W29254  32.022   6.146  12.662
60861W        W29255  35.154  31.126  12.450
60862W        W29256  13.037  22.020   4.550
60863W        W29257   1.927   4.696   0.157
60864W        W29258  32.157  33.838  14.256
60865W        W29259  15.769  17.376   4.667
60866W        W29260  34.697  12.835   2.668
60867W        W29261  16.085  41.044   2.632
60868W        W29262  41.660  43.127   3.244
60869W        W29263  25.329  26.972  11.938
60870W        W29264  10.981  23.076  13.388
60871W        W29265   7.384   6.215   5.123
60872W        W29266   9.687  29.536  10.929
60873W        W29267   0.212  32.428   0.900
60874W        W29268  39.060  23.193  12.903
60875W        W29269   0.614   1.731   1.147
60876W        W29270  42.194  15.366   1.799
60877W        W29271  29.040  14.724  14.772
60878W        W29272  29.013  24.143  12.050
60879W        W29273   3.032   5.288   3.413
60880W        W29274  36.065   9.028  14.069
60881W        W29275   0.918  33.841  13.477
60882W        W29276  35.005  24.716   0.819
60883W        W29277   7.103   7.654   3.087
60884W        W29278  22.852  44.507  13.747
60885W        W29279  41.246  20.946  10.984
60886W        W29280  40.247  16.896   3.402
60887W        W29281  20.169  18.541   3.142
60888W        W29282  19.097   2.499  13.389
60889W        W29283  16.077  18.215   5.450
60890W        W29284  43.015   2.823   3.591
60891W        W29285  26.946  30.885   0.385
60892W        W29286  13.337  23.951  14.114
60893W        W29287   5.726  22.175   2.296
60894W        W29288  31.595  38.351   1.527
60895W        W29289  12.373  29.415  13.749
60896W        W29290  17.691  24.243  12.590
60897W        W29291  17.279  24.260   3.277
60898W        W29292  19.678   5.352  13.632
60899W        W29293  17.295   4.746   3.747
60900W        W29294  39.995  36.448  11.859
60901W        W29295   1.935  30.924   4.557
60902W        W29296   6.258   4.350  13.063
60903W        W29297   3.119  37.073   2.585
60904W        W29298  26.613  26.477   2.257
60905W        W29299  41.467  20.310  14.818
60906W        W29300   6.476  23.874  13.146
60907W        W29301  10.419  30.501   0.912
60908W        W29302  35.156  31.591  12.202
60909W        W29303   7.939   6.183   2.334
60910W        W29304  34.085  24.406  14.068
60911W        W29305  37.985   3.128   3.167
60912W        W29306  36.054  30.395  14.045
60913W        W29307   0.948  39.143   4.060
60914W        W29308  23.940  40.497   1.226
60915W        W29309  29.079  37.064   4.190
60916W        W29310   5.346  11.210   4.990
60917W        W29311  15.023  26.041   1.206
60918W        W29312  44.945   1.331   1.045
60919W        W29313  22.042  18.335   0.402
60920W        W29314  38.235  14.806   3.723
60921W        W29315  38.570  40.371   1.846
60922W        W29316  10.348   2.246  13.257
60923W        W29317  21.428  21.602  12.134
60924W        W29318   3.281  22.542  12.595
60925W        W29319   5.939  44.943  11.622
60926W        W29320  30.798  36.938  14.341
60927W        W29321   5.295  25.627  12.118
60928W        W29322  36.035   8.240  10.452
60929W        W29323  25.064  17.268  13.196
60930W        W29324  11.171  28.070   2.226
60931W        W29325  24.383   2.929  11.068
60932W        W29326  16.044   5.004  12.854
60933W        W29327   1.001  15.110   3.850
60934W        W29328  38.882   4.282  13.102
60935W        W29329   7.195  24.986   1.915
60936W        W29330  37.170  44.324  11.104
60937W        W29331  28.421  43.443   3.656
60938W        W29332  42.777  36.137  12.353
60939W        W29333  11.796  13.104   0.338
60940W        W29334  12.373  30.571  13.163
60941W        W29335  10.316  25.073  12.631
60942W        W29336  42.582   1.722   0.359
60943W        W29337  41.578  34.459   0.756
60944W        W29338   9.408  42.596  13.457
60945W        W29339  26.000  43.992  12.425
60946W        W29340  10.663  29.546  13.981
60947W        W29341  31.510   0.986  11.245
60948W        W29342  36.663  44.491  11.061
60949W        W29343   4.309  40.272  11.031
60950W        W29344  32.153  11.310  11.625
60951W        W29345  42.619  34.379   5.279
60952W        W29346   8.317  43.029  11.027
60953W        W29347   6.835  15.412   4.310
60954W        W29348  34.023   5.979  14.174
60955W        W29349  32.890  36.886   3.828
60956W        W29350  28.580  35.619  11.534
60957W        W29351  32.296  34.093   0.406
60958W        W29352  42.070  29.725   3.575
60959W        W29353  18.318   8.471   3.705
60960W        W29354  43.621   1.424  14.027
60961W        W29355  11.436   3.332  13.870
60962W        W29356  25.163   6.207   0.806
60963W        W29357  34.966  10.278  14.059
60964W        W29358  32.448   8.267  12.050
60965W        W29359   6.436  36.047   1.823
60966W        W29360  31.525  31.806  10.680
60967W        W29361  25.906  32.080   3.937
60968W        W29362  35.320   2.035   4.724
60969W        W29363  22.502   5.978   1.329
60970W        W29364   8.597  18.182  13.923
60971W        W29365   1.881   9.626   0.858
60972W        W29366   1.380  28.733  11.372
60973W        W29367  28.998  34.494   1.866
60974W        W29368  23.467   1.322  12.300
60975W        W29369   6.897  27.001   2.743
60976W        W29370  38.001  35.539  10.683
60977W        W29371   9.666  30.240  12.526
60978W        W29372  10.832   4.683  10.748
60979W        W29373  21.693  23.215   1.765
60980W        W29374  10.914  10.194  11.509
60981W        W29375  44.295  44.058   3.269
60982W        W29376  18.990   1.418  12.613
60983W        W29377  39.715   9.571   3.563
60984W        W29378  38.017  28.259   1.616
60985W        W29379  21.876   0.125  14.288
60986W        W29380  30.241  38.573  10.851
60987W        W29381   2.933  15.773  13.014
60988W        W29382  24.876  25.659  10.520
60989W        W29383  23.718  29.181  11.564
60990W        W29384  37.992  40.949   4.981
60991W        W29385  36.024  24.809   2.743
60992W        W29386  17.658  23.517  12.168
60993W        W29387  40.616   0.703  14.859
60994W        W29388  40.310   5.129  11.135
60995W        W29389  43.867   2.218  12.523
60996W        W29390   3.667  42.308  12.441
60997W        W29391  15.269  44.275   0.893
60998W        W29392  17.054  38.353   3.748
60999W        W29393  25.201  34.999  14.087
61000W        W29394  23.114   0.165   0.122
61001W        W29395  17.459  43.375   3.353
61002W        W29396  36.057  35.340  12.858
61003W        W29397  36.548  19.799   2.726
61004W        W29398  12.703   3.415   4.460
61005W        W29399  20.969  20.357   3.622
61006W        W29400  23.514  40.873  14.079
61007W        W29401  39.572  17.822   1.434
61008W        W29402  36.693  24.518  13.875
61009W        W29403  27.452  36.140   1.250
61010W        W29404  43.139  12.059   2.857
61011W        W29405   4.239  14.297  14.292
61012W        W29406  24.859  20.971   1.842
61013W        W29407  23.870  44.881  10.682
61014W        W29408  26.908  22.438  13.409
61015W        W29409  35.833  14.535  12.911
61016W        W29410  44.174   9.164   1.848
61017W        W29411  30.601  21.817  13.569
61018W        W29412  44.402  10.641   2.866
61019W        W29413  15.790   7.302  11.871
61020W        W29414  25.198  30.705  13.922
61021W        W29415   2.421   2.960  14.790
61022W        W29416   5.516  34.577   1.408
61023W        W29417   4.274  17.584   4.401
61024W        W29418  21.043   6.329   0.186
61025W        W29419  16.521  44.463  14.778
61026W        W29420   7.661  41.454   2.760
61027W        W29421   7.813   9.534  12.282
61028W        W29422  38.676  40.875   0.066
61029W        W29423  44.496  40.743   3.638
61030W        W29424  24.195   8.537  11.973
61031W        W29425  21.478  24.215   3.373
61032W        W29426  19.475  39.517   4.041
61033W        W29427  15.528   4.715  11.099
61034W        W29428  24.071  17.157  12.998
61035W        W29429  18.841  13.444  12.370
61036W        W29430  14.708  15.157  12.353
61037W        W29431  10.833  24.999  12.887
61038W        W29432   0.386  17.565  14.356
61039W        W29433  11.905  19.908  14.035
61040W        W29434   1.017  31.580   1.240
61041W        W29435  17.509  25.156  14.564
61042W        W29436  24.121  21.196  14.841
61043W        W29437  27.736   8.383   3.221
61044W        W29438  29.222   3.175  11.029
61045W        W29439  12.225  12.751  13.077
61046W        W29440  39.981  21.672  11.231
61047W        W29441  43.222   0.716   3.882
61048W        W29442  21.618  43.547  12.849
61049W        W29443   4.611   6.730  14.088
61050W        W29444  22.940  15.745   3.124
61051W        W29445  13.521   2.304   3.103
61052W        W29446  39.357  37.020   3.855
61053W        W29447  13.379  20.605   0.371
61054W        W29448  12.059  43.430   2.870
61055W        W29449  20.173  33.925  11.514
61056W        W29450  35.795  17.580  14.691
61057W        W29451  23.639  40.608   3.646
61058W        W29452  34.938   2.638   0.738
61059W        W29453  10.867  23.896  11.880
61060W        W29454  44.784   9.751  10.547
61061W        W29455   9.157  34.435   3.989
61062W        W29456  27.145   9.569   4.387
61063W        W29457  23.984   6.860   4.594
61064W        W29458  23.062   7.730   0.600
61065W        W29459   5.940  42.036   1.934
61066W        W29460  31.369  15.540   1.317
61067W        W29461  37.282  44.764   4.657
61068W        W29462   8.816  43.988  12.228
61069W        W29463  22.137  32.079  14.940
61070W        W29464  27.684  22.476   1.238
61071W        W29465  42.326  31.445  14.328
61072W        W29466  29.158   8.781  13.603
61073W        W29467  22.277  12.562   0.293
61074W        W29468   9.443  21.537  12.018
61075W        W29469   2.016  20.363   3.185
61076W        W29470   9.185  43.490  11.474
61077W        W29471   6.311   5.808   4.366
61078W        W29472  28.287   8.926   3.248
61079W        W29473  34.687  31.641  11.967
61080W        W29474  19.675   8.888  13.034
61081W        W29475  11.933  17.186  14.848
61082W        W29476  37.068   3.353  12.450
61083W        W29477   7.385  22.154   2.814
61084W        W29478  20.732  24.283  10.686
61085W        W29479  36.578  43.002  10.246
61086W        W29480  23.571  37.806   2.985
61087W        W29481  12.318  29.137  12.441
61088W        W29482   7.747  38.017  12.958
61089W        W29483   2.225  20.708   0.132
61090W        W29484  11.759  17.882  11.084
61091W        W29485   3.415  32.617   0.718
61092W        W29486  44.476  14.155   2.380
61093W        W29487  12.799  19.774  12.141
61094W        W29488   3.322  31.262  11.140
61095W        W29489  30.862  24.685  11.471
61096W        W29490  10.030   0.764   2.679
61097W        W29491  11.496  10.078   2.802
61098W        W29492  25.124  17.650  14.252
61099W        W29493  11.603  39.010  11.460
61100W        W29494  13.580  25.104   2.776
61101W        W29495  42.014   7.375   2.742
61102W        W29496  10.681  28.711  10.980
61103W        W29497  33.584  35.478  13.944
61104W        W29498   8.972  13.416   3.208
61105W        W29499  20.823   8.586   1.793
61106W        W29500  14.722  10.453   3.130
61107W        W29501  21.677  11.378  12.486
61108W        W29502   3.832  16.033   2.428
61109W        W29503  16.050   9.277  14.417
61110W        W29504   5.760  11.241   0.420
61111W        W29505  31.625   2.790   3.686
61112W        W29506  31.939  41.809   1.004
61113W        W29507   8.027   4.123   0.650
61114W        W29508   6.325  22.180  13.269
61115W        W29509   9.226  29.599   3.761
61116W        W29510  36.646  26.563   1.439
61117W        W29511  19.609  43.987  11.842
61118W        W29512  35.999  28.444   0.991
61119W        W29513  34.967  27.079  14.278
61120W        W29514  39.529  19.617   4.735
61121W        W29515  22.163  28.873  13.911
61122W        W29516  11.362   1.399  14.604
61123W        W29517  44.977  22.142   3.422
61124W        W29518   0.166   9.239  13.406
61125W        W29519  15.602   7.299  14.397
61126W        W29520  19.623  25.572   5.581
61127W        W29521   4.139  16.338   0.551
61128W        W29522  29.671  26.063  11.841
61129W        W29523  28.634  17.664   4.512
61130W        W29524  12.097  16.215   0.360
61131W        W29525  26.477  32.025  12.488
61132W        W29526  36.889  41.920  11.232
61133W        W29527  29.956  21.493  10.764
61134W        W29528  40.670  21.761   3.784
61135W        W29529  21.169   6.243  13.453
61136W        W29530  23.711  14.633   1.749
61137W        W29531  10.406   3.064  12.935
61138W        W29532  28.004  32.930  10.734
61139W        W29533  37.123  15.071  12.222
61140W        W29534  28.427   1.362   2.747
61141W        W29535   1.295  38.386   0.270
61142W        W29536  16.755  44.321   4.742
61143W        W29537   1.921   6.894  12.644
61144W        W29538  40.874  10.067  12.874
61145W        W29539  15.351  37.897  13.294
61146W        W29540  10.055   3.752  12.381
61147W        W29541  12.829  34.932   0.678
61148W        W29542  41.575  22.690  13.293
61149W        W29543  39.585  30.930  14.295
61150W        W29544  33.539  27.744   3.623
61151W        W29545  29.160  41.712  13.552
61152W        W29546  24.229  34.233   3.136
61153W        W29547  38.795  12.495   4.045
61154W        W29548  44.746   5.133  10.709
61155W        W29549  27.520  31.344   2.357
61156W        W29550  28.146  22.189  12.201
61157W        W29551  24.601  39.979   1.050
61158W        W29552  17.608   0.359  12.436
61159W        W29553   7.911  30.560  10.106
61160W        W29554   3.669   6.367  11.054
61161W        W29555   3.702  11.776   9.943
61162W        W29556  43.894  23.689  13.386
61163W        W29557  18.552  41.021   0.526
61164W        W29558  10.160  14.343  13.927
61165W        W29559  43.324  30.654  12.550
61166W        W29560  23.107  30.722   0.385
61167W        W29561  11.639  44.475   4.461
61168W        W29562  41.400  25.492   2.778
61169W        W29563  30.015  26.684  14.881
61170W        W29564  24.122  28.850  12.040
61171W        W29565  41.946   5.822  10.497
61172W        W29566   8.225   2.254   1.248
61173W        W29567  24.218  41.322   0.754
61174W        W29568  43.307  44.427  12.027
61175W        W29569  34.379  26.737   3.575
61176W        W29570  40.371  15.388   2.711
61177W        W29571  20.262   8.238  10.734
61178W        W29572  40.856  17.628  12.016
61179W        W29573  28.460  18.650  12.532
61180W        W29574   7.623   4.414   1.870
61181W        W29575   8.606  29.259   2.793
61182W        W29576   9.360  37.075   4.115
61183W        W29577  10.589  26.506   2.970
61184W        W29578   4.792  26.935  13.083
61185W        W29579  30.327  37.947   0.025
61186W        W29580  38.422   7.849   1.800
61187W        W29581  11.140  18.993   3.580
61188W        W29582  40.470  38.125   1.942
61189W        W29583  38.451  32.612   3.812
61190W        W29584   0.283   2.878   4.592
61191W        W29585   6.360   7.783  11.072
61192W        W29586  10.683  20.243  12.897
61193W        W29587  16.261  16.350   0.487
61194W        W29588  29.477   2.230  12.898
61195W        W29589  29.116  16.367  11.605
61196W        W29590   9.601  40.803  11.156
61197W        W29591  26.724  32.860  14.428
61198W        W29592  24.016  29.480  10.695
61199W        W29593  29.028  16.992   0.323
61200W        W29594  23.977   3.449   4.854
61201W        W29595  40.086  12.329   4.641
61202W        W29596  38.339  15.190   1.648
61203W        W29597  37.832  30.737   4.973
61204W        W29598  11.392   4.478  12.071
61205W        W29599  15.798  11.048  12.431
61206W        W29600  30.686  42.733   3.756
61207W        W29601  18.845  15.711   2.907
61208W        W29602  41.994  19.980  11.100
61209W        W29603  37.518   0.890  14.055
61210W        W29604  38.699  44.034   0.930
61211W        W29605  22.585  38.439   4.606
61212W        W29606  19.233  34.556  14.962
61213W        W29607  36.088  32.965   4.407
61214W        W29608  38.349  12.228  13.506
61215W        W29609  19.540  36.017   2.353
61216W        W29610  18.089  35.653  10.636
61217W        W29611  28.003   2.264  10.419
61218W        W29612  14.269  41.496   0.479
61219W        W29613  20.322   4.313  13.861
61220W        W29614  36.565  19.949   1.858
61221W        W29615  18.717  41.701   4.262
61222W        W29616   1.796  22.718  12.798
61223W        W29617   5.282   5.671  13.573
61224W        W29618   1.836  27.563   0.182
61225W        W29619  12.302  15.586  12.564
61226W        W29620  30.564  35.509   2.959
61227W        W29621   5.871   1.199  14.282
61228W        W29622  43.566  27.152   1.510
61229W        W29623  42.389  29.546   4.673
61230W        W29624  27.497  39.501   1.195
61231W        W29625  31.372  41.209   5.202
61232W        W29626  15.246  44.664   1.977
61233W        W29627  35.005  10.317   3.247
61234W        W29628  20.196  37.868  13.574
61235W        W29629  13.859  22.307  10.809
61236W        W29630  40.237  26.502  10.484
61237W        W29631   8.842  43.845   3.335
61238W        W29632  11.791  43.302   4.605
61239W        W29633  44.974  17.312   4.920
61240W        W29634   2.197  24.567   4.108
61241W        W29635   0.028  16.348  11.563
61242W        W29636   3.015  23.690  14.939
61243W        W29637  44.896   6.389  14.472
61244W        W29638  21.025  26.491   2.286
61245W        W29639   9.775  29.985   3.733
61246W        W29640   8.358  10.779  11.603
61247W        W29641  42.752  17.334  12.995
61248W        W29642  20.837  36.562   3.349
61249W        W29643  37.934  12.857   0.149
61250W        W29644   7.749  14.016   4.666
61251W        W29645  21.183   7.256  10.421
61252W        W29646  11.184  20.302  10.628
61253W        W29647  35.438  22.623  14.803
61254W        W29648  34.401  25.433  13.292
61255W        W29649  21.669  21.013   2.923
61256W        W29650   9.298  22.448  10.745
61257W        W29651  39.219  27.344  12.491
61258W        W29652  31.049  13.708  10.623
61259W        W29653  13.603  19.872   4.058
61260W        W29654  18.747  11.222  13.610
61261W        W29655  21.890  37.229  11.716
61262W        W29656   8.725  11.462   4.181
61263W        W29657  39.426   8.208  14.289
61264W        W29658  31.450  29.746  13.518
61265W        W29659   3.438   1.416   1.458
61266W        W29660  36.081  25.558   2.305
61267W        W29661  28.894  16.829  10.728
61268W        W29662  20.792  13.217  12.473
61269W        W29663  39.911  27.743  13.846
61270W        W29664  12.635  27.706  13.418
61271W        W29665  19.451  19.130  13.426
61272W        W29666  30.552  24.737   3.304
61273W        W29667  35.948  22.411  11.051
61274W        W29668  14.831  34.224   4.763
61275W        W29669  26.229  40.370  13.987
61276W        W29670  42.621   2.209  14.530
61277W        W29671  21.993  42.846   4.730
61278W        W29672  21.325  29.670   4.641
61279W        W29673  27.500   7.626  11.565
61280W        W29674  21.103  17.608   1.132
61281W        W29675  14.842   9.300  10.933
61282W        W29676  40.279   1.424  12.158
61283W        W29677  18.462   4.379   3.699
61284W        W29678  40.015  41.772  12.958
61285W        W29679  25.861  23.089   2.304
61286W        W29680  23.975  29.814   1.455
61287W        W29681  35.933  22.499  14.911
61288W        W29682   0.543  16.330   1.711
61289W        W29683  22.272  41.425  12.686
61290W        W29684  28.210  32.797  13.405
61291W        W29685  31.201  34.988  14.412
61292W        W29686   9.748  15.661   0.357
61293W        W29687  18.285  32.178  12.601
61294W        W29688  19.701  24.866   4.519
61295W        W29689  31.903  29.477   0.649
61296W        W29690  15.865  35.486   3.138
61297W        W29691  34.517  26.423   5.084
61298W        W29692  35.472  18.299  12.889
61299W        W29693   7.889   5.487   1.355
61300W        W29694  18.042  43.520  11.915
61301W        W29695  24.532  15.611  13.892
61302W        W29696  25.477  22.480  11.068
61303W        W29697  40.248  39.462  14.797
61304W        W29698  21.081   6.154   0.672
61305W        W29699  10.372  33.203  10.936
61306W        W29700  37.922  14.980  12.668
61307W        W29701  18.175  35.111   4.620
61308W        W29702   2.000  23.300   3.264
61309W        W29703  34.028   4.684   1.583
61310W        W29704   6.186  33.477  12.668
61311W        W29705  18.632  31.476  11.722
61312W        W29706  14.668  10.151   3.545
61313W        W29707  35.215  17.397   0.722
61314W        W29708  21.701  16.308   0.794
61315W        W29709  39.756  34.359  10.677
61316W        W29710  16.323   8.682   0.438
61317W        W29711   2.688   2.970   0.274
61318W        W29712  20.586  35.131  11.933
61319W        W29713  34.943  27.677   2.946
61320W        W29714   6.751  44.357  12.512
61321W        W29715  43.309  41.493   2.163
61322W        W29716  43.472   7.713  14.317
61323W        W29717  31.356  26.950   1.038
61324W        W29718  29.060  26.809  14.091
61325W        W29719  24.476   1.411  11.014
61326W        W29720   2.019  33.404  12.938
61327W        W29721   0.200  38.777  13.340
61328W        W29722  41.388  34.554   3.025
61329W        W29723  20.200  10.246  10.486
61330W        W29724  20.816  11.630  12.344
61331W        W29725  14.021  30.221   1.563
61332W        W29726  37.217  11.886  11.116
61333W        W29727  23.737  36.349  14.750
61334W        W29728  21.001  39.860  13.099
61335W        W29729  12.428  30.327   4.589
61336W        W29730  34.066   3.653  12.120
61337W        W29731  21.911  36.497  11.143
61338W        W29732  20.658  11.227  12.601
61339W        W29733  19.110  22.663   3.621
61340W        W29734  38.978  21.510   4.583
61341W        W29735  16.221  38.011   4.363
61342W        W29736  37.290  13.239  11.014
61343W        W29737  32.134  19.546  12.026
61344W        W29738  24.534   4.272   1.463
61345W        W29739  14.602  15.170  14.238
61346W        W29740  21.589  10.262   2.854
61347W        W29741  14.092  24.711   4.625
61348W        W29742  16.126   9.304   1.762
61349W        W29743  30.204  16.716   1.455
61350W        W29744   0.375   0.359  11.170
61351W        W29745  21.106  36.953   2.650
61352W        W29746  11.811  20.129   1.025
61353W        W29747  25.308  33.287   2.561
61354W        W29748   4.698  41.501   0.745
61355W        W29749  39.704  10.444   3.465
61356W        W29750  19.518   2.891   1.315
61357W        W29751  38.850  42.856   2.401
61358W        W29752  11.260  36.063  13.135
61359W        W29753  41.250  33.956   3.166
61360W        W29754  19.174   3.968   4.134
61361W        W29755  20.923  40.960  13.507
61362W        W29756  31.715   5.286   3.195
61363W        W29757  22.718  19.359  14.040
61364W        W29758  12.252  32.674  12.068
61365W        W29759   2.296  39.567  13.607
61366W        W29760  10.131  43.950  13.858
61367W        W29761  28.524   3.981  12.204
61368W        W29762  23.741  15.668   3.595
61369W        W29763  34.742  26.593  13.140
61370W        W29764   7.590  42.497  11.542
61371W        W29765   4.268   3.677   2.379
61372W        W29766  44.387  34.802  10.918
61373W        W29767  36.565  16.665  13.172
61374W        W29768  18.137  10.765  14.998
61375W        W29769   1.507  24.618   2.350
61376W        W29770  23.114  36.131  11.764
61377W        W29771  43.467  42.504  14.301
61378W        W29772   6.375  21.807   0.974
61379W        W29773  12.838   0.181  10.886
61380W        W29774   0.235  23.719  12.673
61381W        W29775  43.757  15.217   1.633
61382W        W29776   6.389  42.515  11.008
61383W        W29777  13.847  12.929  12.219
61384W        W29778   5.202  16.904  11.407
61385W        W29779   4.039   7.707   3.830
61386W        W29780   2.928   8.585   3.156
61387W        W29781  39.933  43.929  14.484
61388W        W29782   8.703  12.480   4.111
61389W        W29783  12.207  33.346   4.944
61390W        W29784  17.040  19.533  13.609
61391W        W29785  26.167  10.406  12.627
61392W        W29786  38.916  41.221   0.362
61393W        W29787  41.448  11.113   0.767
61394W        W29788   8.862  29.643  11.075
61395W        W29789  17.723  15.878   0.339
61396W        W29790   0.878  37.581   1.232
61397W        W29791  34.589  35.364   0.343
61398W        W29792   4.973  35.359  10.740
61399W        W29793   3.943  37.828  12.913
61400W        W29794  39.824  34.196   0.482
61401W        W29795   1.271  34.653   0.807
61402W        W29796   3.892  11.576  11.996
61403W        W29797  44.807  40.786  10.671
61404W        W29798  20.901  26.882  14.503
61405W        W29799  17.141  22.494  11.151
61406W        W29800   0.561  34.590   0.395
61407W        W29801  25.045   6.174  12.313
61408W        W29802  38.390  16.637  14.891
61409W        W29803  23.912  26.601   3.254
61410W        W29804  44.155  43.219   3.675
61411W        W29805  36.510  43.748   1.349
61412W        W29806  32.625   0.651   2.367
61413W        W29807  27.958  11.120  13.935
61414W        W29808  14.246   0.735   2.837
61415W        W29809   3.503  30.057  12.003
61416W        W29810  36.890  25.231  11.185
61417W        W29811  16.455   8.537  13.872
61418W        W29812  41.268  26.450  13.890
61419W        W29813  10.720  26.233  14.283
61420W        W29814  20.965  17.961   4.046
61421W        W29815  27.197  44.038   1.808
61422W        W29816  37.571   5.580   0.432
61423W        W29817  20.133  32.166  14.865
61424W        W29818  22.212  42.300  13.595
61425W        W29819   4.886  44.395  14.893
61426W        W29820   1.896  21.247   0.678
61427W        W29821  17.344  37.981   0.364
61428W        W29822   3.677  19.659   1.433
61429W        W29823   9.188   4.156   2.311
61430W        W29824  34.259  39.458  14.506
61431W        W29825  36.010  37.410  11.218
61432W        W29826  37.073  39.374  11.886
61433W        W29827   3.449  17.276  12.487
61434W        W29828  43.018  32.976  11.556
61435W        W29829   7.152  26.929   3.200
61436W        W29830   2.367  20.753  10.470
61437W        W29831  15.081  30.124   2.373
61438W        W29832  13.317  38.511  14.416
61439W        W29833  35.757   8.669   1.034
61440W        W29834  37.233   8.210   3.682
61441W        W29835  25.225  13.188  10.775
61442W        W29836  37.837  32.480  14.686
61443W        W29837  37.610  14.847   2.847
61444W        W29838  22.696  10.113  10.217
61445W        W29839  29.812  40.272   1.220
61446W        W29840  21.101  10.497   0.359
61447W        W29841  31.528  39.380  12.072
61448W        W29842  15.674  33.590   4.954
61449W        W29843  22.639   0.307   0.770
61450W        W29844  17.236   4.285   4.986
61451W        W29845  10.588  12.421   4.548
61452W        W29846   6.442  32.013  14.951
61453W        W29847   6.599  25.865   1.499
61454W        W29848   6.623  23.220   0.887
61455W        W29849  26.234   6.644  13.978
61456W        W29850  29.019   3.377  11.456
61457W        W29851  29.985  37.663  13.380
61458W        W29852  36.563  39.946  11.588
61459W        W29853  31.910  29.797  13.291
61460W        W29854   2.200  24.949  10.339
61461W        W29855  31.189  29.551  13.915
61462W        W29856  33.204  18.381   2.403
61463W        W29857  24.593  13.232  14.444
61464W        W29858  13.280  43.809   4.107
61465W        W29859  16.030  12.603   2.723
61466W        W29860  38.468   9.659  12.569
61467W        W29861  14.741  14.665  11.160
61468W        W29862  20.243   7.088   4.098
61469W        W29863   2.006  12.442  14.889
61470W        W29864   7.034  30.367   2.200
61471W        W29865  13.138  42.434   3.061
61472W        W29866  35.124  10.604  13.672
61473W        W29867  25.741   9.982   0.857
61474W        W29868  15.682  35.615   1.290
61475W        W29869   5.429  13.994   1.325
61476W        W29870  23.541  19.675   0.407
61477W        W29871   6.769   0.728  14.491
61478W        W29872  40.530  16.119   3.095
61479W        W29873   4.942  41.893  11.339
61480W        W29874  11.179   9.463  11.124
61481W        W29875   3.880  26.911   1.651
61482W        W29876   2.756  13.398   4.273
61483W        W29877  12.299  20.209  13.814
61484W        W29878  11.868  29.545   4.515
61485W        W29879  42.587  30.459   2.401
61486W        W29880  21.390  22.054  10.581
61487W        W29881  20.563  27.221   1.902
61488W        W29882  36.368   3.186   4.665
61489W        W29883  23.438  18.559  11.207
61490W        W29884  26.267   5.468   2.298
61491W        W29885  15.088  43.956  14.538
61492W        W29886  38.339  23.625   0.894
61493W        W29887   1.533  19.680   3.567
61494W        W29888  29.460  40.743  11.566
61495W        W29889  14.624  40.103  14.467
61496W        W29890  11.541  39.580   3.348
61497W        W29891  27.102  37.466   4.364
61498W        W29892  22.282  44.430  14.937
61499W        W29893  40.807  32.044  13.393
61500W        W29894   6.781  26.849   4.541
61501W        W29895  31.675  36.980  11.549
61502W        W29896  38.334  26.763   2.112
61503W        W29897  19.919  44.634  11.192
61504W        W29898  32.465  20.995   4.150
61505W        W29899  44.470  38.441   4.558
61506W        W29900  12.625  20.050   4.646
61507W        W29901   8.134  15.796  11.023
61508W        W29902   3.450  26.022  13.410
61509W        W29903  23.744   5.843  11.717
61510W        W29904  38.595  19.647   5.179
61511W        W29905  35.082  42.104   2.892
61512W        W29906  27.877  36.969   1.430
61513W        W29907  30.022  38.754   1.660
61514W        W29908  26.087  35.347   2.454
61515W        W29909   4.360  18.021  12.464
61516W        W29910  26.127   4.726   1.698
61517W        W29911  38.594  39.948  12.568
61518W        W29912   3.709  37.979  11.586
61519W        W29913  27.066  23.034   1.894
61520W        W29914   2.339  13.612   1.703
61521W        W29915   8.121  40.892   2.185
61522W        W29916  38.956   5.972   0.408
61523W        W29917   9.131  38.906   3.263
61524W        W29918  40.803   8.846   0.350
61525W        W29919   4.104   5.024   2.232
61526W        W29920  38.743  43.538   0.877
61527W        W29921  42.283   7.298   2.276
61528W        W29922   5.809  36.807  10.583
61529W        W29923  41.444   8.911  11.947
61530W        W29924  22.554  11.405  13.362
61531W        W29925  40.011  43.423  14.509
61532W        W29926   4.849  20.406   3.427
61533W        W29927  18.172   7.327  11.129
61534W        W29928  12.666   6.140   9.940
61535W        W29929  23.004  15.566   0.074
61536W        W29930   3.229  34.352  14.736
61537W        W29931   3.127  11.100  12.580
61538W        W29932   4.990  31.653   4.235
61539W        W29933  37.029   1.971   3.710
61540W        W29934   8.109  14.093   1.376
61541W        W29935  44.885  12.073   2.083
61542W        W29936   3.088  36.207   1.140
61543W        W29937  18.281   3.157   4.976
61544W        W29938   9.916  29.770  14.910
61545W        W29939   7.970  14.869  11.470
61546W        W29940  43.518  31.406  13.103
61547W        W29941  38.324  36.789  12.657
61548W        W29942   1.888  28.176   4.215
61549W        W29943  35.122  24.986  13.478
61550W        W29944   4.703  26.266  14.306
61551W        W29945  17.765  22.982   2.251
61552W        W29946   5.942   2.710  10.566
61553W        W29947  11.224   4.654  12.575
61554W        W29948  22.656  32.102  13.319
61555W        W29949  14.124  18.208   3.648
61556W        W29950   6.144  12.747   3.215
61557W        W29951   7.396  36.844  11.162
61558W        W29952   2.159  38.871  11.553
61559W        W29953  31.105  22.677  13.589
61560W        W29954  17.127  36.528   1.330
61561W        W29955  37.814  17.170   3.406
61562W        W29956  17.803  40.919  13.806
61563W        W29957  27.596   5.265  11.573
61564W        W29958   5.222  11.414   3.860
61565W        W29959  18.355  30.928   3.656
61566W        W29960   1.201  35.266   2.077
61567W        W29961   7.865  23.020   2.031
61568W        W29962  25.605  16.591   0.744
61569W        W29963   5.203   0.732  14.863
61570W        W29964  14.146  20.097   1.899
61571W        W29965  31.465  29.238  12.050
61572W        W29966  24.746  28.522  12.049
61573W        W29967  23.764   7.966  13.349
61574W        W29968  25.896  38.966   3.148
61575W        W29969   2.629  18.629  11.094
61576W        W29970  32.832  17.488   3.056
61577W        W29971  27.439  43.010   1.653
61578W        W29972  19.329   1.257   3.789
61579W        W29973  17.496  12.031  14.953
61580W        W29974  17.215  44.309  10.581
61581W        W29975  27.939   7.854   4.420
61582W        W29976  32.965  33.640  13.097
61583W        W29977  31.122  40.527  14.364
61584W        W29978  17.510   1.633   3.303
61585W        W29979  16.267  16.087   4.059
61586W        W29980   1.396  11.786  14.769
61587W        W29981  35.554   1.922  12.447
61588W        W29982  38.979  23.072   3.223
61589W        W29983   0.414   3.437  12.029
61590W        W29984  24.138  35.754   5.320
61591W        W29985  15.375  34.456   3.709
61592W        W29986   0.682  24.021   4.173
61593W        W29987  32.204  14.234   1.872
61594W        W29988   0.603  12.201   3.635
61595W        W29989  19.038  22.045  13.096
61596W        W29990  38.199   3.644  13.824
61597W        W29991   0.307  21.519  14.996
61598W        W29992  30.577  28.012  11.910
61599W        W29993  32.012  20.040   1.772
61600W        W29994  28.465   4.740   3.293
61601W        W29995   0.102   7.968  11.373
61602W        W29996  25.031  10.956   4.103
61603W        W29997  15.154  27.544   4.251
61604W        W29998  18.069  43.455  13.286
61605W        W29999  18.343  13.122  13.803
61606W        W30000   7.008   1.194   9.628
61607W        W30001   2.814   1.501   4.972
61608W        W30002  32.862  44.927   3.695
61609W        W30003  38.058  13.338   4.857
61610W        W30004  28.265  40.658   2.865
61611W        W30005   5.518  11.630   2.581
61612W        W30006   6.823  26.980   0.513
61613W        W30007  42.048  44.265  14.828
61614W        W30008  22.002   9.301  13.469
61615W        W30009   1.938  25.213   0.715
61616W        W30010  42.839   8.760  12.457
61617W        W30011  36.230  27.248   3.010
61618W        W30012   0.193  43.750  10.848
61619W        W30013   9.351   8.763  10.800
61620W        W30014  22.444  28.395   2.926
61621W        W30015  28.027  10.091  14.024
61622W        W30016   9.322  17.849   0.980
61623W        W30017   2.267  32.330   1.903
61624W        W30018  22.538  16.505   3.725
61625W        W30019  26.729   0.862   3.234
61626W        W30020  15.761  31.597   3.493
61627W        W30021   0.413   6.509   0.839
61628W        W30022  13.276  35.466   4.204
61629W        W30023  32.020  17.217   3.168
61630W        W30024  11.357   2.247  13.074
61631W        W30025   6.695  12.826   1.935
61632W        W30026  13.538  14.585  14.220
61633W        W30027  24.544  16.312  10.739
61634W        W30028  40.889  14.859   3.720
61635W        W30029  37.761  12.136  13.507
61636W        W30030  12.323  38.330   2.890
61637W        W30031   4.745   9.825   0.866
61638W        W30032  38.726   0.206   3.074
61639W        W30033  39.873  18.621   1.555
61640W        W30034  30.443  31.865  13.337
61641W        W30035  15.518  39.775  10.237
61642W        W30036   5.745   7.855   1.183
61643W        W30037  19.571  27.528   3.517
61644W        W30038  43.865  33.947  10.638
61645W        W30039  27.692  19.503   1.725
61646W        W30040  29.717  25.943  10.713
61647W        W30041  22.480  28.219  12.044
61648W        W30042  16.306  19.725  11.601
61649W        W30043  10.136  25.072   3.662
61650W        W30044  27.578  18.328   0.829
61651W        W30045  19.946   1.361  12.838
61652W        W30046  28.914  33.120  12.917
61653W        W30047  19.997  39.414  11.531
61654W        W30048  16.758  32.174   1.063
61655W        W30049  27.529   9.708   2.318
61656W        W30050  39.357   9.306  12.536
61657W        W30051  21.986   6.436   3.658
61658W        W30052   3.101   8.737  12.028
61659W        W30053  14.712  19.150  12.316
61660W        W30054  42.281  21.730  13.049
61661W        W30055  37.277  13.901  13.552
61662W        W30056  31.439  19.132  12.097
61663W        W30057  10.613  17.570  13.289
61664W        W30058  24.995  16.338  10.445
61665W        W30059  41.976  31.485   3.091
61666W        W30060  22.526  25.621   3.117
61667W        W30061  19.660  29.458   1.887
61668W        W30062  10.513   4.917   4.170
61669W        W30063  21.786  35.629  11.234
61670W        W30064  41.841  21.834   2.305
61671W        W30065  26.896  20.859   1.243
61672W        W30066  10.723   8.465  13.308
61673W        W30067   0.840  19.495   2.480
61674W        W30068  18.540   8.751   2.161
61675W        W30069  39.876  29.915   3.355
61676W        W30070   6.562  22.666   5.003
61677W        W30071  26.862  31.996  10.535
61678W        W30072  38.731   0.289  10.751
61679W        W30073   2.685  35.380   2.305
61680W        W30074  23.303   7.417   2.261
61681W        W30075   9.739  14.762  14.873
61682W        W30076  33.224  38.363  14.245
61683W        W30077  19.593   3.449  10.759
61684W        W30078   5.690   1.218  11.582
61685W        W30079  21.262   1.707   4.224
61686W        W30080  33.775  18.139  10.491
61687W        W30081   1.600  36.422  14.560
61688W        W30082  33.390  24.386  13.274
61689W        W30083   9.729   3.764  12.920
61690W        W30084   0.944   9.750   2.352
61691W        W30085  41.849  29.861  12.126
61692W        W30086  11.313  43.242   4.385
61693W        W30087  36.623   3.096  13.958
61694W        W30088  44.468  28.144  12.180
61695W        W30089  43.372  41.877   4.436
61696W        W30090  36.665  16.260  11.570
61697W        W30091  21.783  23.539  13.280
61698W        W30092  36.450  15.280   4.747
61699W        W30093   6.703  43.377  13.487
61700W        W30094  42.629  25.357   4.390
61701W        W30095  10.224  33.475   5.191
61702W        W30096   3.423  26.141  10.900
61703W        W30097   1.334  31.239   3.340
61704W        W30098   1.313  31.226  12.586
61705W        W30099  11.833   4.767  12.946
61706W        W30100   5.256  40.402  11.935
61707W        W30101  19.057  43.905   0.198
61708W        W30102  44.862  20.218   1.582
61709W        W30103  17.414  33.694  10.309
61710W        W30104  17.292  37.333   4.630
61711W        W30105  30.020  31.369   1.018
61712W        W30106  38.178  27.243  14.527
61713W        W30107  25.452  28.152  13.518
61714W        W30108  28.494  22.947  10.925
61715W        W30109  24.012  34.826   1.789
61716W        W30110  27.924   5.264   3.587
61717W        W30111  29.666  26.146  13.815
61718W        W30112   9.424  37.637  13.591
61719W        W30113  13.776  26.759  14.073
61720W        W30114  24.494  16.222  14.097
61721W        W30115   3.658  26.005   4.744
61722W        W30116   5.687  36.607  13.909
61723W        W30117   2.084  19.629  13.533
61724W        W30118  24.825  32.002  11.559
61725W        W30119  16.557  42.545  12.037
61726W        W30120  21.029  44.924  11.936
61727W        W30121  43.273  31.776  14.069
61728W        W30122  18.599  21.962  13.876
61729W        W30123  21.718  38.981   4.380
61730W        W30124  26.129   4.932   0.725
61731W        W30125  15.783  26.973   4.539
61732W        W30126  27.728  40.401   0.784
61733W        W30127  42.877  25.163   4.798
61734W        W30128   1.512  12.288  13.440
61735W        W30129   6.641  22.143  11.540
61736W        W30130  42.401  10.643  13.406
61737W        W30131  18.289  40.195   1.324
61738W        W30132  13.362   3.524   9.982
61739W        W30133  14.078  26.647   3.526
61740W        W30134  36.169  40.917   1.269
61741W        W30135  43.045  37.385  14.041
61742W        W30136  34.116   1.444  12.314
61743W        W30137  30.934  41.921   1.819
61744W        W30138  18.708  23.053   4.703
61745W        W30139   5.294  21.340  13.021
61746W        W30140  39.453   1.046  11.264
61747W        W30141  39.036   8.470   4.132
61748W        W30142  12.800  25.098  11.092
61749W        W30143   5.413   0.626   1.812
61750W        W30144  38.359  31.383  12.023
61751W        W30145  30.623  12.217   4.982
61752W        W30146  42.153  43.010  13.306
61753W        W30147  13.805  43.773   4.429
61754W        W30148  16.351   8.661  14.355
61755W        W30149   5.222  11.302   2.289
61756W        W30150  34.905  12.052   4.647
61757W        W30151  43.080  39.984  14.807
61758W        W30152  36.324   5.860   3.674
61759W        W30153  11.817  44.435  11.631
61760W        W30154  23.424  16.621  13.330
61761W        W30155  16.946  37.146  14.473
61762W        W30156  21.390   0.930   4.657
61763W        W30157  38.712  23.244   4.062
61764W        W30158  44.813   2.948   0.067
61765W        W30159  19.564  26.968  11.633
61766W        W30160  10.732  19.090   1.446
61767W        W30161  37.857  29.413  13.919
61768W        W30162  39.763  21.472  12.193
61769W        W30163   7.797  37.672  11.092
61770W        W30164  23.693  18.036   4.261
61771W        W30165  35.653  35.074   4.482
61772W        W30166  10.620  30.023   0.780
61773W        W30167  35.935   6.644  11.140
61774W        W30168  29.395  43.955  13.568
61775W        W30169  11.116  41.991   2.793
61776W        W30170  11.613  25.383  13.991
61777W        W30171  34.600  28.459   1.466
61778W        W30172   9.849  29.549  11.655
61779W        W30173  37.845  26.445   0.248
61780W        W30174  13.775  10.560   2.766
61781W        W30175  27.261  39.424   4.654
61782W        W30176  38.339  27.009  12.353
61783W        W30177   8.764   2.866   1.629
61784W        W30178  22.537  13.604   1.812
61785W        W30179  11.671  30.641   4.483
61786W        W30180  24.547   4.341   0.415
61787W        W30181  40.343  13.624   0.854
61788W        W30182  17.541  29.827   3.294
61789W        W30183   8.510  32.976  12.728
61790W        W30184  24.706  12.171  13.981
61791W        W30185  19.167  24.275  14.918
61792W        W30186   7.370  18.053  12.362
61793W        W30187   0.803  34.310   4.173
61794W        W30188   5.880  43.642   1.431
61795W        W30189  40.049  33.149   0.359
61796W        W30190   8.308   3.366   5.080
61797W        W30191  29.069  19.098   2.634
61798W        W30192  26.616  10.755   2.443
61799W        W30193   5.039  20.749   3.081
61800W        W30194  15.120   3.263   2.725
61801W        W30195  35.487  29.275   2.964
61802W        W30196   7.166  32.892  11.960
61803W        W30197   7.191  20.828   2.544
61804W        W30198   2.013  33.068   2.837
61805W        W30199  16.575  40.243   3.746
61806W        W30200   6.424  41.300   1.308
61807W        W30201   0.517  24.343  14.252
61808W        W30202  28.366  42.842  14.343
61809W        W30203  10.400  28.013   2.750
61810W        W30204  24.099  29.476  14.474
61811W        W30205   1.319  41.782   0.419
61812W        W30206  42.658  26.779  11.106
61813W        W30207  21.060  23.200   0.765
61814W        W30208   6.951  11.734   3.604
61815W        W30209  10.991  34.079   0.684
61816W        W30210  32.208  30.215  13.998
61817W        W30211  34.068  39.921  14.305
61818W        W30212  28.439  43.461   0.940
61819W        W30213  35.618  27.582  11.623
61820W        W30214   2.275  26.530  14.706
61821W        W30215  20.489  40.441   2.000
61822W        W30216  21.120  43.988  10.755
61823W        W30217  43.861   4.872  13.440
61824W        W30218  41.938  37.572  11.111
61825W        W30219  33.014  24.064   0.324
61826W        W30220  31.447   6.629   3.592
61827W        W30221  42.864  40.983  11.101
61828W        W30222  16.559   7.667  12.562
61829W        W30223  41.252   8.378   1.006
61830W        W30224   6.371  23.245   5.345
61831W        W30225   7.406  39.598   4.738
61832W        W30226  20.681  33.406  10.646
61833W        W30227  33.708   4.882  10.621
61834W        W30228  42.483  15.204  12.453
61835W        W30229   9.299  39.905   1.306
61836W        W30230  38.581  25.945  14.906
61837W        W30231  29.443  14.674  13.488
61838W        W30232  28.585  20.855   0.348
61839W        W30233  26.111  27.536  12.133
61840W        W30234  33.985  21.769  13.900
61841W        W30235   4.283  43.071  11.894
61842W        W30236   3.219   9.307   3.117
61843W        W30237  11.638  36.659  14.411
61844W        W30238   5.964  24.078  12.056
61845W        W30239  42.812  14.369  14.919
61846W        W30240  36.628  22.089   4.379
61847W        W30241  34.047   7.446   1.775
61848W        W30242  40.274  14.994  11.113
61849W        W30243  27.179  34.993   3.821
61850W        W30244   3.391  34.938   1.250
61851W        W30245  42.406  15.081   2.269
61852W        W30246   0.727  10.307  10.212
61853W        W30247  41.844   8.198   2.281
61854W        W30248  11.049   4.927  11.173
61855W        W30249  24.633  38.692   1.321
61856W        W30250  20.193  16.852   4.852
61857W        W30251  30.018  39.185   1.951
61858W        W30252  34.869  12.095   3.772
61859W        W30253   0.413   1.658   2.479
61860W        W30254  11.562  29.027  14.691
61861W        W30255  24.579  27.494  10.734
61862W        W30256  34.092   2.812   2.369
61863W        W30257   0.799  38.974  12.524
61864W        W30258   9.487   1.722   3.575
61865W        W30259  28.686  42.615   2.182
61866W        W30260  42.038   3.408  10.272
61867W        W30261  40.582   8.356  10.763
61868W        W30262  30.033   4.866   3.726
61869W        W30263  34.050   6.726  12.608
61870W        W30264  28.106  13.701   4.341
61871W        W30265  24.486   6.665  14.505
61872W        W30266   9.132  33.195   0.357
61873W        W30267  18.775  35.962   3.693
61874W        W30268  12.845  30.037  10.911
61875W        W30269  22.577   3.381  12.884
61876W        W30270  17.746  25.864  12.278
61877W        W30271  43.872   1.671  13.051
61878W        W30272  27.170  21.248   1.417
61879W        W30273   3.757  18.147  12.176
61880W        W30274  25.607  24.758   0.288
61881W        W30275  44.266  10.024  13.780
61882W        W30276  24.446  41.952  14.856
61883W        W30277  19.626  10.445  11.597
61884W        W30278  40.946  17.952   1.939
61885W        W30279   0.519  26.117   3.171
61886W        W30280   3.434  27.445  11.735
61887W        W30281  26.241  23.817  12.478
61888W        W30282  16.263  33.478   4.183
61889W        W30283   0.511   3.205  14.350
61890W        W30284  16.090  35.432   0.705
61891W        W30285  39.913  38.286  13.376
61892W        W30286  35.384  37.503  14.249
61893W        W30287  21.737  15.162  14.431
61894W        W30288  31.423   8.281  13.456
61895W        W30289   3.544  28.426   4.743
61896W        W30290  35.017  40.001  11.030
61897W        W30291  19.175  25.035   1.399
61898W        W30292  30.045   8.232  10.925
61899W        W30293  16.641  20.703   2.192
61900W        W30294  37.051  17.541   3.668
61901W        W30295  30.378  15.772  13.972
61902W        W30296  23.570  30.152   0.656
61903W        W30297  30.892  16.080   3.536
61904W        W30298  24.784   2.008  14.491
61905W        W30299  26.509  30.233  12.258
61906W        W30300  39.524  44.401  14.982
61907W        W30301   8.626  11.414  11.119
61908W        W30302  20.059  26.054   3.609
61909W        W30303   8.762   6.994   1.164
61910W        W30304  44.326   4.433   4.022
61911W        W30305  10.107  22.679   1.764
61912W        W30306  19.949   0.477  13.305
61913W        W30307  38.952  17.849   3.254
61914W        W30308  18.677   1.477  10.928
61915W        W30309  19.043   5.426  11.480
61916W        W30310  28.457   3.796   1.401
61917W        W30311   2.524  41.569   4.365
61918W        W30312  32.947  19.590  11.632
61919W        W30313  18.311  14.552   0.387
61920W        W30314  37.069  24.460   1.297
61921W        W30315  18.207  41.818  14.544
61922W        W30316  37.874  37.588  10.825
61923W        W30317  30.501  21.572   0.034
61924W        W30318  14.593  24.196   2.412
61925W        W30319   1.753   0.073  11.893
61926W        W30320  19.843   7.876   3.299
61927W        W30321   0.647  44.451   0.056
61928W        W30322  18.517  17.057   2.732
61929W        W30323  29.571  30.158   4.187
61930W        W30324  26.813  42.395  11.596
61931W        W30325   0.861  12.319   2.214
61932W        W30326   2.738   7.268  10.661
61933W        W30327  10.892  21.663   1.044
61934W        W30328  38.374   5.198  10.993
61935W        W30329  24.075  44.645  12.536
61936W        W30330   6.788  22.172   5.137
61937W        W30331  34.050  40.376  14.001
61938W        W30332  37.346  16.239   4.691
61939W        W30333  24.000   1.301  14.357
61940W        W30334   2.224  21.230   3.099
61941W        W30335  31.897  16.097  11.081
61942W        W30336  29.916  26.564  10.668
61943W        W30337  14.624  30.526  11.248
61944W        W30338  17.226  27.078   0.017
61945W        W30339  26.972  35.479  12.485
61946W        W30340  44.557  33.464  10.986
61947W        W30341   7.247  29.667  12.969
61948W        W30342  20.251  22.197  13.413
61949W        W30343   5.659  28.922   0.273
61950W        W30344  19.019   7.360  13.992
61951W        W30345  34.883   7.411  13.479
61952W        W30346   2.173  29.924  12.473
61953W        W30347  38.940  23.516   4.848
61954W        W30348  44.168  16.620  11.595
61955W        W30349  39.317  38.233  12.651
61956W        W30350  14.360  38.128   2.114
61957W        W30351   0.359  43.749   3.104
61958W        W30352  32.134  32.135   0.013
61959W        W30353  37.064   8.192  12.776
61960W        W30354   2.751  33.567  14.466
61961W        W30355  12.849  27.009   1.334
61962W        W30356  34.915  28.644  11.827
61963W        W30357   7.791  43.492   1.456
61964W        W30358  29.592   1.857  10.345
61965W        W30359  13.401  38.823  13.827
61966W        W30360  29.718  31.673  14.422
61967W        W30361  26.534  10.978  11.601
61968W        W30362  36.189  27.129  14.084
61969W        W30363   9.187  44.828  13.561
61970W        W30364  37.042   3.758   0.051
61971W        W30365   8.697  33.626   2.160
61972W        W30366  37.317   9.709  11.400
61973W        W30367  31.085  40.691   0.403
61974W        W30368  24.352  19.506  10.460
61975W        W30369  39.995  13.180  12.915
61976W        W30370  14.098  38.845   0.286
61977W        W30371  21.583  10.732   5.038
61978W        W30372   9.989  13.187   0.716
61979W        W30373  10.770  44.448   4.347
61980W        W30374  28.422  29.416   2.136
61981W        W30375  26.242  22.440  13.952
61982W        W30376  29.525   7.611  10.623
61983W        W30377   5.354  18.625   1.393
61984W        W30378   8.332   9.424   3.716
61985W        W30379  11.859   6.673  13.501
61986W        W30380  27.845  35.391  11.082
61987W        W30381  12.891  10.128  10.646
61988W        W30382   3.122  44.968  13.800
61989W        W30383  38.822  18.753   3.311
61990W        W30384  39.795   2.915  12.518
61991W        W30385  21.009  21.456   1.264
61992W        W30386  37.517   2.476  13.122
61993W        W30387  39.100  25.018   2.727
61994W        W30388   7.284  40.756   0.377
61995W        W30389  44.212  34.844   2.348
61996W        W30390  21.520  14.781  13.823
61997W        W30391   4.949   3.237   4.529
61998W        W30392   7.972  39.769   1.816
61999W        W30393   3.374  29.749   4.228
62000W        W30394  43.887  31.444   1.350
62001W        W30395  20.115  24.833  13.791
62002W        W30396  33.986  33.992  11.786
62003W        W30397  33.271  16.662  12.427
62004W        W30398  40.895  38.228  11.658
62005W        W30399  36.293  36.414  12.124
62006W        W30400  13.325  11.999  10.640
62007W        W30401  22.774   9.337   0.764
62008W        W30402  13.229   8.654   1.854
62009W        W30403  11.896  32.805   2.747
62010W        W30404  18.686   1.497  11.944
62011W        W30405   8.166  32.479  11.489
62012W        W30406   3.128  24.484  11.265
62013W        W30407  42.223  18.321  11.016
62014W        W30408  41.930  39.795  11.421
62015W        W30409  27.590  17.834  13.456
62016W        W30410  22.491  11.660  13.842
62017W        W30411   7.316  16.126   4.765
62018W        W30412  24.846  33.180   2.374
62019W        W30413  11.276  35.863  14.536
62020W        W30414  26.955  18.667  11.575
62021W        W30415   1.738  41.566   3.594
62022W        W30416  17.300   7.026  12.493
62023W        W30417  35.432  12.249  12.863
62024W        W30418  17.105  33.191  14.928
62025W        W30419  23.203  17.369   1.764
62026W        W30420   6.309  15.088  12.517
62027W        W30421   3.235   0.589  11.105
62028W        W30422  38.585  32.363  12.008
62029W        W30423  24.776  11.022   0.861
62030W        W30424   1.504  26.960   0.898
62031W        W30425  40.574  21.407   1.120
62032W        W30426  22.114  30.552  13.999
62033W        W30427   0.856  27.122   4.740
62034W        W30428  39.925  13.507  12.512
62035W        W30429  23.247   9.653  13.866
62036W        W30430  30.111  19.164  11.095
62037W        W30431   8.812  29.736   2.827
62038W        W30432  24.384   5.828  13.023
62039W        W30433  33.502  21.287  10.742
62040W        W30434   9.726  37.659  11.695
62041W        W30435  31.263  16.195  13.809
62042W        W30436   3.283   6.659   1.637
62043W        W30437  41.941  22.033   1.837
62044W        W30438   7.758  33.534  12.156
62045W        W30439  40.020  15.166   2.411
62046W        W30440  13.766   7.032   3.273
62047W        W30441  38.470   8.780   0.242
62048W        W30442  18.612   6.545   4.620
62049W        W30443  14.898   8.386   4.063
62050W        W30444  34.643   0.822  13.562
62051W        W30445  15.337   8.911   4.709
62052W        W30446  40.469  29.391  10.244
62053W        W30447   1.835  14.952   3.943
62054W        W30448  10.844  28.452   2.079
62055W        W30449  12.880  12.462   1.569
62056W        W30450  26.453  22.486   1.370
62057W        W30451   6.417  37.177  12.361
62058W        W30452  26.584  44.216  14.412
62059W        W30453  40.307  34.333   0.336
62060W        W30454   2.494  26.724  11.426
62061W        W30455  20.778  31.109   1.888
62062W        W30456   6.733  15.859   4.566
62063W        W30457  32.602  16.599   4.783
62064W        W30458  31.239  13.056   4.883
62065W        W30459   5.357  30.635  11.558
62066W        W30460  41.064  27.724  10.799
62067W        W30461  15.199   4.149  10.624
62068W        W30462   5.203  27.133  11.674
62069W        W30463  28.700  11.633  11.593
62070W        W30464   9.021  18.607  12.483
62071W        W30465  39.453   1.675  13.591
62072W        W30466  27.027  43.061   3.842
62073W        W30467  31.992   0.838  11.397
62074W        W30468  31.557  39.991   4.036
62075W        W30469  43.930  33.646   3.356
62076W        W30470  27.416  33.300   4.173
62077W        W30471  13.895  42.382  14.554
62078W        W30472  38.525  11.069   2.085
62079W        W30473  32.335  17.267  14.920
62080W        W30474  26.165  33.169  12.989
62081W        W30475   5.054   5.299   1.669
62082W        W30476  33.875  36.406   0.734
62083W        W30477   4.350   6.627  11.393
62084W        W30478   2.542  28.424  11.057
62085W        W30479   3.172  21.633   2.435
62086W        W30480  37.351  31.968   0.504
62087W        W30481  15.191  37.370  13.249
62088W        W30482  39.314  29.206  12.039
62089W        W30483  21.340   0.923  12.737
62090W        W30484  43.421  24.478   1.894
62091W        W30485   8.832  34.747  13.955
62092W        W30486   2.308  17.492   0.882
62093W        W30487   1.891  30.546   0.979
62094W        W30488  33.592  17.626   4.428
62095W        W30489  28.277  30.839   3.879
62096W        W30490  12.716  33.990   0.213
62097W        W30491  24.921  22.563   3.172
62098W        W30492  43.674  21.840   4.394
62099W        W30493  30.502   0.337  11.845
62100W        W30494  44.497  37.411   1.362
62101W        W30495  38.270  36.916  13.296
62102W        W30496  22.038  39.392   4.376
62103W        W30497  18.481  37.411  11.268
62104W        W30498  26.677  25.073  10.698
62105W        W30499  10.115  30.943  11.871
62106W        W30500  35.382  36.885  13.409
62107W        W30501  41.482  32.382   0.875
62108W        W30502  37.975  31.917  12.846
62109W        W30503  36.703   6.773   3.674
62110W        W30504   5.816  15.024   3.192
62111W        W30505  42.224  15.641   2.668
62112W        W30506   1.467  37.067  12.579
62113W        W30507  42.011  30.523   3.864
62114W        W30508  19.286  28.410   4.415
62115W        W30509   6.762   4.780  10.892
62116W        W30510  37.004  37.833   3.149
62117W        W30511  43.325  30.197   0.316
62118W        W30512  38.561  42.319  13.462
62119W        W30513   8.691   0.101  11.459
62120W        W30514   3.007  38.559   0.383
62121W        W30515   4.728  24.438  12.198
62122W        W30516  20.778   6.395   1.952
62123W        W30517  42.944  17.673   3.835
62124W        W30518  36.375  21.237  12.618
62125W        W30519  38.931  32.891   4.628
62126W        W30520  26.131  32.994   0.737
62127W        W30521  26.231   7.133   4.577
62128W        W30522  36.519  40.481   4.130
62129W        W30523  32.404  44.603   3.595
62130W        W30524   8.627   2.487   4.249
62131W        W30525  30.249  34.412   2.840
62132W        W30526  10.316  33.690   1.925
62133W        W30527  18.855  22.636  12.842
62134W        W30528  23.533  30.479   0.232
62135W        W30529  32.632   6.473   2.187
62136W        W30530  39.045  33.600  12.893
62137W        W30531  21.618  39.588   3.506
62138W        W30532  29.992  40.580  11.667
62139W        W30533  44.828   2.379   1.313
62140W        W30534  29.465  10.747   2.345
62141W        W30535  22.830  20.230  13.622
62142W        W30536   7.200  22.032  14.832
62143W        W30537  14.314   5.492   4.420
62144W        W30538   4.358   5.477   4.132
62145W        W30539  13.227  16.822   2.700
62146W        W30540  39.619  15.844  14.082
62147W        W30541  35.293  10.666  12.843
62148W        W30542  40.634   0.585   0.869
62149W        W30543  10.609  34.541  11.630
62150W        W30544  15.811  18.577   9.776
62151W        W30545  36.366  23.830   0.974
62152W        W30546  22.065  20.939  11.760
62153W        W30547  33.636  31.473   2.685
62154W        W30548  24.681  15.312  14.319
62155W        W30549  11.401  23.086   3.813
62156W        W30550  10.833   9.304   2.255
62157W        W30551  24.655   7.347   2.146
62158W        W30552  18.768   4.694   2.666
62159W        W30553   5.849  16.725  10.559
62160W        W30554  27.462  35.649   2.208
62161W        W30555  11.120  38.926  13.450
62162W        W30556   9.320  16.729   2.741
62163W        W30557   9.690  11.107   3.632
62164W        W30558  29.453  14.015  11.107
62165W        W30559  38.520  14.747   2.411
62166W        W30560  44.164  31.132   2.681
62167W        W30561  13.738  44.851  11.181
62168W        W30562  40.744  31.522   0.271
62169W        W30563  39.994  16.516  14.388
62170W        W30564  28.072  18.993   3.298
62171W        W30565  10.273   5.118   3.711
62172W        W30566  27.955  25.815  12.250
62173W        W30567  28.060   3.383  10.180
62174W        W30568  23.161  14.841   0.396
62175W        W30569   1.777  19.279   1.937
62176W        W30570  32.539   4.912   0.403
62177W        W30571  23.502   0.287   1.782
62178W        W30572  14.067  21.461   4.046
62179W        W30573  14.755  33.472   1.928
62180W        W30574  26.655   8.795   3.699
62181W        W30575  19.235  11.716  12.176
62182W        W30576  28.251  31.761  10.543
62183W        W30577   1.174   9.649  13.562
62184W        W30578  25.719  42.187   4.594
62185W        W30579  11.290   7.930  14.560
62186W        W30580  26.673   6.808   3.839
62187W        W30581   9.883   6.849  12.800
62188W        W30582  32.542  23.619   0.998
62189W        W30583  15.346  44.150  13.836
62190W        W30584  18.085  34.829  10.942
62191W        W30585  16.896  44.199   3.247
62192W        W30586  41.721  11.346   1.421
62193W        W30587  27.568   6.634  14.889
62194W        W30588   5.421  43.496  12.091
62195W        W30589  30.941  21.665   4.288
62196W        W30590  31.904  17.037  11.054
62197W        W30591  11.035  18.132   0.935
62198W        W30592  18.187  36.598  10.733
62199W        W30593  36.451   0.789   0.159
62200W        W30594   7.907   4.658   2.285
62201W        W30595   2.350  26.964  11.871
62202W        W30596   7.825  36.722   4.162
62203W        W30597  37.937  32.622   2.929
62204W        W30598  36.156  16.721   1.657
62205W        W30599  16.806  37.043   2.286
62206W        W30600  36.661  23.105  12.454
62207W        W30601  18.306  18.618  13.901
62208W        W30602  12.589   6.648  11.644
62209W        W30603  22.723   9.173  14.260
62210W        W30604  31.417  43.322   2.082
62211W        W30605  31.178  12.075   1.654
62212W        W30606  34.866  32.921  12.868
62213W        W30607  34.414  14.819  11.431
62214W        W30608  21.668   6.426   3.250
62215W        W30609  15.159   4.318  11.119
62216W        W30610  26.176  38.450  12.455
62217W        W30611  10.640   7.877   1.956
62218W        W30612  42.358   9.234  12.530
62219W        W30613  39.266   5.415   3.297
62220W        W30614  12.010  43.944  11.584
62221W        W30615  32.920  29.676   4.133
62222W        W30616  24.488  11.636   5.356
62223W        W30617  15.769  43.004  10.655
62224W        W30618   3.242  44.205  11.514
62225W        W30619  39.943  17.810   4.550
62226W        W30620  39.480  17.035  10.725
62227W        W30621  35.054  27.453   2.478
62228W        W30622   4.567  13.673  11.691
62229W        W30623  20.585  19.062   3.582
62230W        W30624  24.673  39.522   0.774
62231W        W30625  42.380  21.139   2.758
62232W        W30626  12.485  10.505   3.717
62233W        W30627  34.596  36.097   3.678
62234W        W30628  36.184   6.171  11.192
62235W        W30629  34.968  32.112  14.282
62236W        W30630  19.800   3.421  13.936
62237W        W30631  20.020  14.589  14.034
62238W        W30632  41.977  11.906   0.024
62239W        W30633   7.310  37.468   4.215
62240W        W30634  23.725  28.115  13.178
62241W        W30635  30.766   1.719   4.652
62242W        W30636   1.420  16.477   0.004
62243W        W30637  41.454   3.985  11.955
62244W        W30638  27.389   3.245   0.724
62245W        W30639   8.579  30.506  14.401
62246W        W30640  34.150  44.834   4.146
62247W        W30641  17.443  14.373  10.813
62248W        W30642  35.894  11.507  12.852
62249W        W30643  27.642  35.629  11.475
62250W        W30644  18.823   7.439  13.468
62251W        W30645  43.709  42.998   1.494
62252W        W30646  17.148   7.426   4.008
62253W        W30647   6.603  15.287   0.950
62254W        W30648  18.112   0.407  12.309
62255W        W30649   4.096  24.770   4.217
62256W        W30650  36.736  21.983   1.163
62257W        W30651  40.206  11.187   2.360
62258W        W30652  25.203  25.243   2.947
62259W        W30653  18.273  41.890   9.779
62260W        W30654  33.932  15.070  13.905
62261W        W30655  41.493  24.572   4.593
62262W        W30656  21.730  34.288   1.917
62263W        W30657  43.369  15.219  14.079
62264W        W30658  43.228  23.725   3.294
62265W        W30659   5.472  31.007   1.267
62266W        W30660   1.977  21.771   0.680
62267W        W30661  38.625   0.551  12.842
62268W        W30662  17.348  17.277  11.992
62269W        W30663  37.041  36.023  14.339
62270W        W30664  40.198  31.044   0.880
62271W        W30665   5.341  39.086   4.802
62272W        W30666  20.158   5.509  11.897
62273W        W30667  17.261  41.256  14.518
62274W        W30668  19.430   0.384   3.246
62275W        W30669  28.450  42.431   1.760
62276W        W30670  30.420   0.798   2.485
62277W        W30671  43.395  17.490   2.599
62278W        W30672  22.239   7.176   1.243
62279W        W30673  36.313  30.379  11.453
62280W        W30674  16.754  32.936   3.642
62281W        W30675  26.040  21.375   0.432
62282W        W30676  15.590  39.833   4.869
62283W        W30677  11.725  26.604  11.171
62284W        W30678  14.569  34.440  14.501
62285W        W30679  29.934  35.722  12.013
62286W        W30680  28.196  20.519   4.894
62287W        W30681  28.535  28.216   0.384
62288W        W30682  20.162  28.623   3.395
62289W        W30683   1.344  26.576  13.541
62290W        W30684  25.236  12.006   1.356
62291W        W30685  23.188  17.226   2.743
62292W        W30686  15.707  22.270  12.543
62293W        W30687  12.407  12.169  12.911
62294W        W30688  42.740  21.624  12.140
62295W        W30689  43.218  15.214   1.862
62296W        W30690  35.415  41.016  11.559
62297W        W30691  12.828  33.552   2.143
62298W        W30692  44.795  11.090  13.430
62299W        W30693   3.166   6.243  14.777
62300W        W30694  40.450   4.410   4.666
62301W        W30695  36.394  30.948  10.658
62302W        W30696   0.929  11.278   1.319
62303W        W30697  33.296  26.951   2.742
62304W        W30698   0.338  22.101   3.012
62305W        W30699  32.048  14.016   3.836
62306W        W30700  14.341  26.169   3.398
62307W        W30701   0.385   2.921  12.142
62308W        W30702  39.570  21.840   4.107
62309W        W30703   2.290  15.588   1.419
62310W        W30704  38.388  16.107  14.989
62311W        W30705  43.868  11.302   2.693
62312W        W30706  28.979  36.979   3.657
62313W        W30707  24.425   2.747  12.480
62314W        W30708  17.643  11.768  10.438
62315W        W30709  34.005  31.913   2.868
62316W        W30710  17.907  27.640  13.882
62317W        W30711  34.363  24.540   3.378
62318W        W30712  35.761  30.588   0.760
62319W        W30713   8.491  25.329  11.161
62320W        W30714  41.573   2.323   4.262
62321W        W30715   6.576  43.914  11.228
62322W        W30716   2.447  28.180   0.057
62323W        W30717  21.160  10.005   5.093
62324W        W30718   8.444   9.390  11.038
62325W        W30719   9.652  17.079   0.379
62326W        W30720  27.935  21.629   0.360
62327W        W30721  12.102   6.590  13.013
62328W        W30722   1.528  13.691  14.122
62329W        W30723  14.859  42.067   0.013
62330W        W30724  25.770  36.407  13.776
62331W        W30725  16.038  29.663   0.330
62332W        W30726   6.185  21.583  14.031
62333W        W30727  39.981  17.597  11.143
62334W        W30728  27.863  12.354  13.097
62335W        W30729  30.311   1.196  14.597
62336W        W30730  17.003  29.035  10.679
62337W        W30731  31.451   9.422  12.491
62338W        W30732   2.959   4.164  12.313
62339W        W30733  40.388  11.789   0.478
62340W        W30734  20.796  14.391   2.757
62341W        W30735   8.925  17.034  12.937
62342W        W30736  39.494  23.577   2.280
62343W        W30737   9.215   9.844   1.763
62344W        W30738  39.574  19.167  13.442
62345W        W30739  19.246  34.354   0.436
62346W        W30740  17.599  15.676  13.571
62347W        W30741   4.351  21.686   1.239
62348W        W30742  43.980   8.338  10.673
62349W        W30743  12.119  36.047   0.775
62350W        W30744  39.288  20.013   1.332
62351W        W30745  38.236  18.247  14.359
62352W        W30746  31.024  18.738   3.662
62353W        W30747  10.218   3.672  11.341
62354W        W30748  29.637   0.559   0.463
62355W        W30749   5.675  38.884   0.730
62356W        W30750  27.437  17.330  14.412
62357W        W30751  22.785  19.492   2.609
62358W        W30752  15.282  14.628   2.678
62359W        W30753   7.323   4.748  11.507
62360W        W30754   8.366   7.945  14.757
62361W        W30755  42.068  13.658   1.221
62362W        W30756  11.670  44.448  10.634
62363W        W30757   5.446  21.196   0.227
62364W        W30758  29.122  43.327  11.451
62365W        W30759  18.313  20.660  10.087
62366W        W30760  43.146  32.069   2.743
62367W        W30761   1.858  10.312  14.903
62368W        W30762  15.012  23.767   3.842
62369W        W30763   9.192   9.406  12.523
62370W        W30764  24.643  37.831  12.572
62371W        W30765  42.604   5.853  14.397
62372W        W30766  19.565  42.404  12.970
62373W        W30767   4.904  18.256   2.358
62374W        W30768  35.796  13.592  13.005
62375W        W30769  12.170  33.600   3.871
62376W        W30770  38.449  33.864   3.440
62377W        W30771  22.515  38.886   2.134
62378W        W30772  26.707   4.753  12.482
62379W        W30773  34.533  15.218   1.358
62380W        W30774  37.500  23.262  13.176
62381W        W30775  36.923  36.483   0.715
62382W        W30776  22.958   3.887   0.105
62383W        W30777  35.525  21.590   1.137
62384W        W30778  44.235  39.446  11.759
62385W        W30779  31.890  32.583   0.015
62386W        W30780   7.885  42.842  10.816
62387W        W30781  37.733  43.851   0.813
62388W        W30782  13.416  16.350  12.881
62389W        W30783  22.212  34.899   0.975
62390W        W30784  29.165  34.926   0.456
62391W        W30785   6.501   3.659  11.503
62392W        W30786  44.899  27.502   3.195
62393W        W30787  36.826   4.185   1.369
62394W        W30788   5.782  44.531  10.333
62395W        W30789  43.078  31.100  11.979
62396W        W30790  35.593   7.866  12.501
62397W        W30791  43.901  11.040  10.555
62398W        W30792   0.574  12.998  13.953
62399W        W30793  31.843  12.445   4.517
62400W        W30794  42.015  21.632  12.582
62401W        W30795   5.347   6.164  11.971
62402W        W30796  13.194  30.061   2.071
62403W        W30797  15.801  37.395  11.087
62404W        W30798  33.512  28.610  14.163
62405W        W30799  31.435  42.040   1.819
62406W        W30800  18.237   1.559  11.232
62407W        W30801  37.496  37.911   0.525
62408W        W30802   9.072  22.734   4.947
62409W        W30803  44.096  19.743   1.049
62410W        W30804  30.019  12.145  13.861
62411W        W30805  42.153  34.391  10.624
62412W        W30806  41.263  13.704  12.603
62413W        W30807  39.397  28.999  11.023
62414W        W30808  43.498  44.989  11.011
62415W        W30809   4.150  29.343  12.932
62416W        W30810   3.186   5.878   3.326
62417W        W30811  43.198  19.768  10.351
62418W        W30812  10.056  43.432  11.242
62419W        W30813  30.687  20.739  13.388
62420W        W30814   4.670   9.111  13.941
62421W        W30815   0.912  41.835   1.704
62422W        W30816  40.319  16.591   4.421
62423W        W30817  29.042  25.660   1.011
62424W        W30818  25.569  14.063  11.191
62425W        W30819  37.550  36.872  14.357
62426W        W30820  16.705   2.759  13.906
62427W        W30821  36.315  32.886  14.041
62428W        W30822  43.836  12.376  13.916
62429W        W30823  19.222  32.430  14.826
62430W        W30824   1.348  21.311  14.461
62431W        W30825  24.152  13.741   3.044
62432W        W30826  16.187  39.930  14.900
62433W        W30827   6.143  27.094  10.676
62434W        W30828   5.295  40.335  13.861
62435W        W30829  43.036   9.418  10.917
62436W        W30830  38.630  20.247   1.749
62437W        W30831  25.983  14.652   4.558
62438W        W30832  30.141  25.528  14.417
62439W        W30833  14.790  18.128  12.950
62440W        W30834  14.489   4.302   0.331
62441W        W30835  44.011  41.746   2.198
62442W        W30836  38.172  11.693   4.276
62443W        W30837   3.706  14.429  13.436
62444W        W30838  35.826  10.763   2.751
62445W        W30839  36.887  12.369   1.486
62446W        W30840  42.899  11.690  12.291
62447W        W30841  37.413  41.819  12.793
62448W        W30842  21.104  42.797   1.134
62449W        W30843   5.628  30.397   2.345
62450W        W30844  33.841  14.652  13.037
62451W        W30845   8.886  41.711  12.360
62452W        W30846  23.666  16.166   4.249
62453W        W30847  42.304   8.812   0.542
62454W        W30848  12.766   4.629   4.554
62455W        W30849  41.285  39.479   3.287
62456W        W30850   3.008  29.941  14.458
62457W        W30851  33.005  17.799  10.884
62458W        W30852  31.533  18.316  14.316
62459W        W30853  29.932  41.552   1.366
62460W        W30854  23.157   2.914  14.078
62461W        W30855  43.409  39.168   9.715
62462W        W30856  27.189  21.717  11.315
62463W        W30857   3.919  31.871   2.410
62464W        W30858   1.462  44.377   3.802
62465W        W30859  41.261   7.617   3.412
62466W        W30860  38.892  32.537   0.767
62467W        W30861  42.890   4.016   1.328
62468W        W30862   0.321   7.311  14.239
62469W        W30863  36.018  12.745   0.713
62470W        W30864   8.872  31.997  10.986
62471W        W30865  44.882  27.417  14.497
62472W        W30866  37.098  15.396  10.215
62473W        W30867   2.421  15.498   2.280
62474W        W30868  12.885   8.204   1.850
62475W        W30869  19.800  33.215   2.238
62476W        W30870  19.320  26.134  11.070
62477W        W30871   9.913  13.737  12.093
62478W        W30872   1.243  24.223  12.012
62479W        W30873  20.647  31.551  12.941
62480W        W30874  10.949  31.133  14.344
62481W        W30875   2.489  38.491  11.587
62482W        W30876  13.265  21.159   2.742
62483W        W30877  33.927  44.443   4.885
62484W        W30878   5.481  40.408   0.751
62485W        W30879  10.999  10.238   3.590
62486W        W30880  31.872  42.494   3.236
62487W        W30881   3.695   1.926  14.441
62488W        W30882   3.804   7.229   2.911
62489W        W30883  34.025  35.399  12.354
62490W        W30884  15.342  38.188  10.680
62491W        W30885  26.757  10.766  14.398
62492W        W30886   1.609  31.072  10.579
62493W        W30887   0.084  31.215  11.992
62494W        W30888  18.650  10.714   3.672
62495W        W30889   9.140  21.556  13.412
62496W        W30890  27.918   2.958   2.352
62497W        W30891  13.900  44.440   1.940
62498W        W30892   5.330   3.267   0.559
62499W        W30893   6.856  25.611   0.713
62500W        W30894  33.292  12.118   0.915
62501W        W30895  10.757  32.640   1.156
62502W        W30896  28.759  11.786   1.745
62503W        W30897  17.279  13.717  12.402
62504W        W30898  22.703  17.965  14.273
62505W        W30899  34.029  13.584   2.376
62506W        W30900  29.152  18.537   1.177
62507W        W30901  23.057  19.203   1.923
62508W        W30902   0.468   6.296  10.949
62509W        W30903  39.261  40.624   4.400
62510W        W30904  40.935  32.861   4.554
62511W        W30905  35.710  39.606   1.762
62512W        W30906  26.350   9.239   1.265
62513W        W30907  10.193  26.354  14.446
62514W        W30908   9.381  17.723   0.294
62515W        W30909  25.077  19.328  14.760
62516W        W30910  38.882  25.141   0.752
62517W        W30911  43.876  25.920   2.848
62518W        W30912  29.891  20.993  12.522
62519W        W30913  42.357   2.428  13.095
62520W        W30914  37.393   6.840  13.576
62521W        W30915  41.077  18.392  12.653
62522W        W30916  28.506  17.451  13.512
62523W        W30917  42.136  26.158  12.452
62524W        W30918   0.655  18.723   0.939
62525W        W30919  15.075  33.431  14.749
62526W        W30920  38.805   2.292   3.662
62527W        W30921  11.758  31.838  12.209
62528W        W30922  30.732  18.076  12.107
62529W        W30923  44.350  36.475  10.658
62530W        W30924  22.064  28.411  11.114
62531W        W30925  36.607   7.289   4.301
62532W        W30926  30.665  31.873  10.681
62533W        W30927  36.284  43.476   1.753
62534W        W30928  44.665   6.312   2.817
62535W        W30929  36.306  34.805  11.121
62536W        W30930   6.672  31.361  12.641
62537W        W30931  26.215  20.046   2.171
62538W        W30932  30.660   6.711   1.131
62539W        W30933  13.462  14.640  12.818
62540W        W30934   9.356  27.964   2.868
62541W        W30935  23.229  24.520  14.167
62542W        W30936   9.971   6.715   0.757
62543W        W30937  44.566  38.417  11.253
62544W        W30938   1.799  43.994   3.614
62545W        W30939  28.504   8.188   3.639
62546W        W30940  26.913  29.189  13.462
62547W        W30941  26.613   1.307   2.355
62548W        W30942  21.055   1.684  10.705
62549W        W30943  42.016   7.466   0.584
62550W        W30944   7.934   3.296  12.101
62551W        W30945  18.122   2.017   1.296
62552W        W30946  16.490  42.794   3.260
62553W        W30947  27.735  43.039  10.300
62554W        W30948  42.507  42.177   0.174
62555W        W30949  30.544  10.203  12.601
62556W        W30950  21.905  26.783  13.447
62557W        W30951   9.784  33.533   0.632
62558W        W30952   4.188  10.901  11.249
62559W        W30953  32.656  26.764   3.496
62560W        W30954  44.379  43.740  10.704
62561W        W30955  37.531  10.401  11.160
62562W        W30956  18.573   5.533   4.795
62563W        W30957  29.560  12.039   0.212
62564W        W30958  40.552   0.309  13.626
62565W        W30959   2.342  41.136   0.274
62566W        W30960  28.621   9.655   3.929
62567W        W30961  13.879   9.364  11.722
62568W        W30962  28.429  43.215   4.565
62569W        W30963  18.203  13.666   1.444
62570W        W30964  18.636  29.203   2.425
62571W        W30965  31.555   3.394   2.732
62572W        W30966  43.801  24.265   4.379
62573W        W30967   7.140  23.150  11.873
62574W        W30968  42.006  35.418  10.602
62575W        W30969   3.724   7.318   0.946
62576W        W30970  19.335  23.762   4.834
62577W        W30971   1.514   8.731   1.127
62578W        W30972  17.051  35.327   4.262
62579W        W30973   6.966  25.209   0.408
62580W        W30974   1.008  16.602  10.586
62581W        W30975   3.801  15.249  12.107
62582W        W30976  19.232  17.693  12.950
62583W        W30977  28.004  41.553   4.242
62584W        W30978  18.103  16.247  12.142
62585W        W30979   5.889   1.539   2.114
62586W        W30980  15.578   4.706  14.905
62587W        W30981  28.170   5.414   4.622
62588W        W30982  41.768  41.362   4.126
62589W        W30983   9.702  19.668   4.529
62590W        W30984  42.369  12.205  12.336
62591W        W30985   2.771  17.541  13.221
62592W        W30986   0.971  17.898   1.278
62593W        W30987  38.581  44.516  12.148
62594W        W30988   2.501  38.789   0.399
62595W        W30989  27.752   3.806  14.944
62596W        W30990  18.063  42.482  14.864
62597W        W30991  44.507  14.722  12.961
62598W        W30992  16.996  33.050  12.601
62599W        W30993  18.771  31.486  14.865
62600W        W30994   2.975  25.851  11.097
62601W        W30995   6.248  30.162  11.514
62602W        W30996   3.260  19.857  14.339
62603W        W30997  33.864  44.946  13.018
62604W        W30998  23.968  22.181   0.837
62605W        W30999  16.133   1.669   0.080
62606W        W31000  10.110   2.441   0.115
62607W        W31001   0.956  13.265   3.232
62608W        W31002   4.846  21.453  14.956
62609W        W31003   7.811   4.850  13.560
62610W        W31004  30.474  12.651  11.531
62611W        W31005  42.401   1.472   4.845
62612W        W31006  34.609  20.260  12.955
62613W        W31007  12.113  13.785   4.142
62614W        W31008  42.848  31.654   1.215
62615W        W31009   6.881  20.128  11.242
62616W        W31010  10.672  11.105  14.248
62617W        W31011  35.403  40.965   0.920
62618W        W31012  23.455  10.246   0.277
62619W        W31013  25.480  25.963  11.562
62620W        W31014   0.782  25.654   1.931
62621W        W31015   2.890  17.773   0.787
62622W        W31016  16.670  30.112   3.148
62623W        W31017  20.190  34.459   0.043
62624W        W31018  20.938  34.551  11.205
62625W        W31019  21.927  28.159  13.200
62626W        W31020  18.429  35.956   1.596
62627W        W31021  22.434   6.775  14.980
62628W        W31022  44.732  40.039   2.088
62629W        W31023  33.067  20.061   1.459
62630W        W31024  16.558  16.643   5.554
62631W        W31025  42.440  38.459  12.708
62632W        W31026  37.376  27.251  12.502
62633W        W31027  24.543   9.635   4.236
62634W        W31028  22.812   2.533   0.842
62635W        W31029  18.249  19.305  14.175
62636W        W31030  40.720  21.670  13.999
62637W        W31031   6.740  34.071   4.570
62638W        W31032  40.771  40.964   4.694
62639W        W31033  22.329   9.223  13.887
62640W        W31034  22.554  22.237  10.982
62641W        W31035  21.030  38.216  12.448
62642W        W31036  30.031   2.620   3.135
62643W        W31037  38.096  31.912   4.086
62644W        W31038  26.045  33.728   4.517
62645W        W31039  15.307  19.792  14.398
62646W        W31040  11.406   5.836  12.837
62647W        W31041  33.364  32.405  11.681
62648W        W31042  38.424  33.438   1.196
62649W        W31043  34.940   7.950  10.812
62650W        W31044  35.083  25.996  13.970
62651W        W31045  18.272   4.275  14.816
62652W        W31046  10.291  17.771   1.249
62653W        W31047   5.177  44.907  10.933
62654W        W31048  29.117  41.570  11.564
62655W        W31049   9.271  42.111   2.977
62656W        W31050  12.257  26.664   3.736
62657W        W31051   5.727  43.519   3.656
62658W        W31052  22.213  30.047   4.745
62659W        W31053  41.284  43.777  11.499
62660W        W31054  32.019  39.254   0.525
62661W        W31055   4.151   2.851  13.493
62662W        W31056  34.834  40.808   2.355
62663W        W31057   6.368  35.704   2.511
62664W        W31058   2.593  13.701  11.517
62665W        W31059  37.329  15.130   1.796
62666W        W31060  17.500  20.712   4.767
62667W        W31061   9.675  39.255  11.141
62668W        W31062   8.791   5.050  12.672
62669W        W31063  44.949  20.017  12.946
62670W        W31064  39.009  31.567  10.767
62671W        W31065  43.306  29.696   1.712
62672W        W31066  27.755   0.462   1.898
62673W        W31067  35.392  33.460   0.716
62674W        W31068  22.408  14.069  12.271
62675W        W31069  33.731  26.573   1.412
62676W        W31070   4.914  36.021   3.133
62677W        W31071  18.683  42.481  11.442
62678W        W31072  14.691  40.784   3.675
62679W        W31073  20.271   6.339   0.868
62680W        W31074  36.579   3.722   2.673
62681W        W31075  24.010   7.332   0.529
62682W        W31076  31.103  17.276   0.754
62683W        W31077   8.729   9.670   4.680
62684W        W31078  23.476  10.157  13.997
62685W        W31079  29.574  32.481   4.765
62686W        W31080  30.572   3.912  13.894
62687W        W31081  13.386  11.650   2.769
62688W        W31082  28.051  12.275   2.003
62689W        W31083  25.952   9.906   4.560
62690W        W31084  36.944  26.842  13.192
62691W        W31085  32.430  15.553  11.733
62692W        W31086   0.478  19.455  13.660
62693W        W31087  10.904  24.706  11.552
62694W        W31088  42.074  12.188  11.101
62695W        W31089  42.086  41.933   3.671
62696W        W31090  25.215  29.058  12.353
62697W        W31091   9.412  14.024   0.342
62698W        W31092  29.511   5.419  13.036
62699W        W31093  13.504  40.950  11.524
62700W        W31094  32.637  35.541  11.074
62701W        W31095  24.253  41.416  12.531
62702W        W31096  28.595  23.001  10.419
62703W        W31097  19.454  29.706  11.280
62704W        W31098  21.562  44.916   2.823
62705W        W31099  17.811  42.922  14.350
62706W        W31100  19.500  21.738   3.721
62707W        W31101  32.476   8.104  14.338
62708W        W31102  15.758   2.216   2.143
62709W        W31103  19.260  39.281  13.997
62710W        W31104  37.627  25.669   1.487
62711W        W31105  22.267  33.706   4.218
62712W        W31106  42.812  38.738   4.978
62713W        W31107  21.106  39.332  10.543
62714W        W31108  20.083   2.881  12.811
62715W        W31109  12.405  17.116   4.043
62716W        W31110  39.445  17.770   4.451
62717W        W31111   6.388  21.186  14.297
62718W        W31112  22.029  12.232   1.868
62719W        W31113  38.339  35.161  14.758
62720W        W31114  19.339  43.355  12.140
62721W        W31115   9.820  37.817  13.263
62722W        W31116  17.851  30.010   2.913
62723W        W31117   7.726   3.121   0.411
62724W        W31118  21.425   4.847   4.913
62725W        W31119  23.035  16.842   1.818
62726W        W31120  38.168   9.123   1.880
62727W        W31121   4.806  31.456  14.920
62728W        W31122  12.121  43.824   3.194
62729W        W31123  12.663  31.438  11.984
62730W        W31124  29.458  27.032  13.318
62731W        W31125  38.118  38.790  11.132
62732W        W31126  14.318  19.521   3.130
62733W        W31127  31.603   0.200   0.703
62734W        W31128  28.694  24.618  13.764
62735W        W31129  32.725  17.367   1.777
62736W        W31130   2.346  17.638   4.433
62737W        W31131  24.044   4.398   0.563
62738W        W31132  20.586  30.035   0.077
62739W        W31133  12.267  42.786   3.413
62740W        W31134  20.755  40.617   0.978
62741W        W31135  12.975   1.500  12.588
62742W        W31136  22.189  26.022   1.409
62743W        W31137   0.266   5.312   0.904
62744W        W31138  25.967   2.703  12.049
62745W        W31139  23.035  42.992  12.559
62746W        W31140  16.862   4.247   4.566
62747W        W31141   9.651  30.754  12.472
62748W        W31142  14.832  11.212  11.609
62749W        W31143  16.394   0.364  14.830
62750W        W31144  11.393  21.233   2.238
62751W        W31145  28.131  14.526  12.090
62752W        W31146  13.414  18.986   0.854
62753W        W31147  17.574  19.513   4.584
62754W        W31148  38.024  22.509  13.514
62755W        W31149  32.410   6.097   1.876
62756W        W31150  33.976   9.397   0.318
62757W        W31151  24.481  13.698  10.780
62758W        W31152   8.744  22.571  11.454
62759W        W31153  27.944   1.502   2.880
62760W        W31154  10.307  10.585  11.119
62761W        W31155  35.593   0.915   3.236
62762W        W31156   5.275  25.715  11.609
62763W        W31157   6.879  41.620  12.892
62764W        W31158  44.027  22.046   1.301
62765W        W31159  13.045   2.735  11.927
62766W        W31160   8.290  19.777   1.712
62767W        W31161  21.936  34.504   0.315
62768W        W31162  38.798  13.667   0.860
62769W        W31163   3.728  13.246  14.453
62770W        W31164  35.183  41.937  13.322
62771W        W31165  23.312   7.730   4.372
62772W        W31166  31.152  41.072   3.893
62773W        W31167   8.794   4.011  12.485
62774W        W31168   2.350   4.403   0.970
62775W        W31169  41.855  41.551  10.793
62776W        W31170  19.068  21.776  10.975
62777W        W31171  38.070  24.674  14.778
62778W        W31172  18.846  44.515  14.426
62779W        W31173  17.554  40.846   0.664
62780W        W31174  23.813  24.624   4.053
62781W        W31175  34.280  12.299   0.760
62782W        W31176  21.059   5.813  13.778
62783W        W31177   5.715  37.425  11.941
62784W        W31178  41.541  43.741   4.692
62785W        W31179  19.079  27.405  14.504
62786W        W31180  10.206  20.421  14.810
62787W        W31181  44.642   1.880  10.745
62788W        W31182   5.178  16.604  12.491
62789W        W31183  31.916  26.416  13.323
62790W        W31184  20.113  17.645   0.844
62791W        W31185  27.916  25.730  10.310
62792W        W31186  23.234   5.359  11.349
62793W        W31187  32.598  17.805  11.582
62794W        W31188  20.088  26.261  11.535
62795W        W31189  33.392   0.127  13.183
62796W        W31190  30.594  23.790  13.868
62797W        W31191   2.993  29.379   2.036
62798W        W31192  31.762   9.461   4.125
62799W        W31193  15.218  39.766   4.124
62800W        W31194  26.193  38.505  10.813
62801W        W31195   0.893   4.317   3.616
62802W        W31196  37.559  31.298   3.855
62803W        W31197  43.782  16.590  13.970
62804W        W31198  44.676   0.409  13.292
62805W        W31199  41.619  11.849   3.008
62806W        W31200  11.116  43.389   0.328
62807W        W31201   8.837  29.189   4.538
62808W        W31202  26.042  13.707   0.500
62809W        W31203  38.373   2.317   2.302
62810W        W31204  11.728  26.682   1.709
62811W        W31205   3.970  26.684  13.003
62812W        W31206  15.784  41.920  12.957
62813W        W31207  30.923  32.465  13.022
62814W        W31208   8.228  29.975  10.830
62815W        W31209  14.601  33.465  13.778
62816W        W31210  14.168  28.086  10.729
62817W        W31211  17.393  24.605   0.134
62818W        W31212  34.989  28.608  13.325
62819W        W31213  38.757  34.353  11.147
62820W        W31214   8.371  33.025  12.205
62821W        W31215  35.190   4.538  13.455
62822W        W31216  42.240  40.021  10.744
62823W        W31217  14.776  41.334  11.117
62824W        W31218  17.696  39.480   4.923
62825W        W31219   0.994  26.445   1.708
62826W        W31220  16.774  12.449   4.181
62827W        W31221   6.413   8.682  12.447
62828W        W31222  28.863   9.040  11.554
62829W        W31223  20.325  21.185  14.269
62830W        W31224  34.591  27.200   3.635
62831W        W31225  30.492  42.581   3.297
62832W        W31226  31.946  40.360   1.368
62833W        W31227  23.964  17.221   0.352
62834W        W31228  20.214  35.930   0.869
62835W        W31229  10.257  41.888  12.455
62836W        W31230  29.950  10.918  12.607
62837W        W31231  43.390  12.600  14.993
62838W        W31232  12.243  24.595   4.714
62839W        W31233  27.935  35.895  13.143
62840W        W31234   5.397   6.489  10.460
62841W        W31235   4.546   4.694   3.600
62842W        W31236  35.484  25.327   0.738
62843W        W31237  38.548  39.591  13.055
62844W        W31238  38.835  36.802  12.566
62845W        W31239  19.910  22.702  14.879
62846W        W31240  31.974   1.998   3.418
62847W        W31241  43.341   1.730  14.717
62848W        W31242  25.609   4.555   1.256
62849W        W31243  42.453   0.777   1.363
62850W        W31244  34.489  37.408  14.375
62851W        W31245  44.177   4.596   4.507
62852W        W31246  12.866   0.782   2.041
62853W        W31247   0.223  25.234   0.771
62854W        W31248  32.778  28.207  12.503
62855W        W31249   9.524  18.293   4.377
62856W        W31250  30.149  34.361  13.886
62857W        W31251  31.671  25.950   1.133
62858W        W31252   1.875   8.709  12.574
62859W        W31253  32.777   4.322  11.949
62860W        W31254  25.481   0.933   0.002
62861W        W31255  41.732  28.719   1.241
62862W        W31256  21.680  41.781  11.960
62863W        W31257  30.905  18.511   0.475
62864W        W31258   0.182   6.916  12.087
62865W        W31259  11.213   0.735  12.974
62866W        W31260  33.422  19.685  12.544
62867W        W31261  21.224   9.444  12.030
62868W        W31262  15.892   1.400   1.893
62869W        W31263  12.866  29.041   1.431
62870W        W31264   7.386  32.096  12.324
62871W        W31265  33.400  10.635   2.017
62872W        W31266   7.145  39.223   3.824
62873W        W31267  33.890  10.801  13.363
62874W        W31268   4.269  14.120   3.371
62875W        W31269  29.696  11.854  12.422
62876W        W31270  10.839   3.398  11.596
62877W        W31271  36.100  26.505   1.614
62878W        W31272  21.398  25.063  12.956
62879W        W31273  37.580  43.183  13.613
62880W        W31274  12.033  43.490  10.602
62881W        W31275  34.705  23.031  11.610
62882W        W31276   7.425  22.750  10.163
62883W        W31277  32.387  39.404  14.264
62884W        W31278   2.403  25.002   3.907
62885W        W31279   8.959  33.599   0.048
62886W        W31280  13.338  35.598   0.916
62887W        W31281  37.511   3.279  12.081
62888W        W31282  41.571  38.753   0.363
62889W        W31283  42.387  38.797  14.271
62890W        W31284  20.769  20.931   4.193
62891W        W31285  38.394  38.599   2.705
62892W        W31286  41.836  41.246  12.993
62893W        W31287  31.119  30.880   3.908
62894W        W31288  11.300  30.702  12.540
62895W        W31289  22.083  33.484  12.939
62896W        W31290   5.015  19.689   0.460
62897W        W31291  32.591  35.464   4.089
62898W        W31292  25.725   0.162   1.774
62899W        W31293  12.155  17.109  11.979
62900W        W31294  31.144   9.188   0.265
62901W        W31295  37.775  37.563   1.667
62902W        W31296  22.694  17.831  13.371
62903W        W31297  30.570  36.976   4.196
62904W        W31298  22.759   3.433  14.927
62905W        W31299  10.186  39.366  13.361
62906W        W31300  39.032  31.665  10.261
62907W        W31301   7.821  36.010  10.224
62908W        W31302  10.353  26.409   1.343
62909W        W31303  28.619  35.984   3.719
62910W        W31304  27.740  13.743  14.717
62911W        W31305  11.813  38.507   1.594
62912W        W31306  25.044  31.461  11.242
62913W        W31307   6.387  25.551   3.334
62914W        W31308   9.006   1.797   3.729
62915W        W31309   5.858  19.662   3.184
62916W        W31310  19.577  30.993   2.298
62917W        W31311  38.753  24.659   0.261
62918W        W31312  15.800   3.757   2.939
62919W        W31313  41.442  30.537  10.585
62920W        W31314  17.733  33.541   2.493
62921W        W31315  24.099  21.949  12.083
62922W        W31316  11.111   3.386   1.784
62923W        W31317   8.092  35.582   4.065
62924W        W31318  16.822  21.518  12.137
62925W        W31319  17.661  34.883   4.613
62926W        W31320  29.612   3.433   2.988
62927W        W31321  18.281  36.059   3.658
62928W        W31322  26.541  30.866   2.806
62929W        W31323   2.907   9.622  12.832
62930W        W31324   5.260  22.550   3.006
62931W        W31325  31.637   3.688  14.000
62932W        W31326  33.093  38.867  14.928
62933W        W31327   5.678  42.389   0.031
62934W        W31328  21.402  44.044  12.845
62935W        W31329   2.799  28.874  11.550
62936W        W31330   0.661  15.980  12.436
62937W        W31331  37.959  23.233  12.403
62938W        W31332  17.161  10.217   4.570
62939W        W31333  36.426  14.619   3.247
62940W        W31334  14.636  12.337   2.295
62941W        W31335   8.430   4.627   4.688
62942W        W31336  29.473   3.614  11.259
62943W        W31337   7.867   4.043   3.630
62944W        W31338  43.821  37.769   3.938
62945W        W31339  27.474  13.157  14.983
62946W        W31340  14.102   6.200   3.503
62947W        W31341  21.009   3.566  11.973
62948W        W31342  31.024  10.698   4.648
62949W        W31343  25.239  40.528  10.801
62950W        W31344  19.709  20.523   0.078
62951W        W31345  28.583   6.234  11.620
62952W        W31346  10.831  36.917  11.845
62953W        W31347  38.762  27.154   2.237
62954W        W31348  10.104  10.394   1.871
62955W        W31349  22.286   1.962  14.903
62956W        W31350  35.439  33.676   3.217
62957W        W31351  39.267  12.746   0.752
62958W        W31352  36.993  38.644   4.140
62959W        W31353  12.114   6.416  11.668
62960W        W31354  22.008  40.477   1.805
62961W        W31355  10.283  19.141   1.147
62962W        W31356  24.993  27.648   1.320
62963W        W31357   6.741  23.238   2.274
62964W        W31358  24.710  26.971  14.788
62965W        W31359   1.035  37.897  14.312
62966W        W31360   3.201  33.851   3.062
62967W        W31361  32.332  29.522   0.945
62968W        W31362  10.124  31.775  13.529
62969W        W31363  33.948  14.546   2.115
62970W        W31364  13.209  27.490   2.688
62971W        W31365  27.999  37.778   4.004
62972W        W31366  42.464  15.078  14.540
62973W        W31367   2.663   4.319   0.128
62974W        W31368  20.079   2.423   1.880
62975W        W31369  16.546  44.799  10.884
62976W        W31370   4.931  34.687   3.102
62977W        W31371  19.782  23.078   1.017
62978W        W31372  27.721  20.720   2.746
62979W        W31373  16.752   8.638  12.430
62980W        W31374  39.252  30.088   0.329
62981W        W31375   5.177  31.236  13.914
62982W        W31376   1.264  14.386   3.692
62983W        W31377  23.643  31.573  14.681
62984W        W31378  28.464   5.421  14.862
62985W        W31379   0.325  33.594   2.687
62986W        W31380  33.142   3.267   3.446
62987W        W31381  17.708   9.751   3.442
62988W        W31382   0.481  39.395  12.625
62989W        W31383  21.037   1.358   3.293
62990W        W31384   9.448  14.125  11.044
62991W        W31385  17.431  32.042  13.511
62992W        W31386  29.477  11.909  14.428
62993W        W31387  25.602  35.234  11.448
62994W        W31388  29.745  14.027   1.996
62995W        W31389  24.909  35.522  11.941
62996W        W31390  30.561  23.832  14.727
62997W        W31391  30.869  28.664  12.048
62998W        W31392   0.446  39.071   4.252
62999W        W31393  29.963  42.326  13.504
63000W        W31394   5.806  28.385   2.292
63001W        W31395   0.959  44.802  11.927
63002W        W31396   9.638  30.578   0.505
63003W        W31397  34.655  12.133   2.226
63004W        W31398  36.871  33.531  11.102
63005W        W31399  25.459  28.005   3.812
63006W        W31400  28.098  28.748   0.773
63007W        W31401  19.127  23.199  14.825
63008W        W31402  22.152  16.343   4.859
63009W        W31403   0.360  32.977  11.949
63010W        W31404  10.425  25.772  11.620
63011W        W31405  38.957   2.896   2.797
63012W        W31406  15.310  31.548  12.934
63013W        W31407  20.226  23.179  12.613
63014W        W31408   7.177   1.204   3.959
63015W        W31409  32.959  14.238  14.253
63016W        W31410  14.704  23.963   4.235
63017W        W31411   9.929  23.826   9.746
63018W        W31412   4.779  41.921  11.844
63019W        W31413  23.484  36.893  13.824
63020W        W31414  24.361  36.628   4.100
63021W        W31415   1.141   3.200   4.162
63022W        W31416  17.472  17.091  12.848
63023W        W31417  38.629  42.797  11.560
63024W        W31418  39.770  42.226  12.876
63025W        W31419  15.709  18.778  13.482
63026W        W31420   4.300  18.547  13.128
63027W        W31421  32.460  17.143  13.255
63028W        W31422  11.807  12.176   4.373
63029W        W31423   0.977  35.073  10.772
63030W        W31424  21.598   3.889  13.806
63031W        W31425  32.298  28.090  14.173
63032W        W31426  44.845  21.849   0.149
63033W        W31427  19.518  15.955   3.656
63034W        W31428  38.346  18.073   1.196
63035W        W31429  27.110  38.373  10.971
63036W        W31430   2.891  37.043   1.550
63037W        W31431  27.511  19.325   4.068
63038W        W31432  28.028  10.610  14.004
63039W        W31433  41.320   6.548   1.223
63040W        W31434   8.322   2.395  11.553
63041W        W31435  44.824  17.834  12.502
63042W        W31436  39.308  13.327  13.636
63043W        W31437  21.061  16.074   0.849
63044W        W31438  14.178   0.344   3.815
63045W        W31439  32.932  43.693  14.308
63046W        W31440  31.988  12.425   1.720
63047W        W31441  15.077  42.344   2.526
63048W        W31442  28.865  43.393   1.290
63049W        W31443   6.677   9.395   1.447
63050W        W31444  43.372  23.746  14.421
63051W        W31445  34.138  23.728  13.534
63052W        W31446  19.076  17.852   3.335
63053W        W31447   6.642  33.867   0.887
63054W        W31448  11.362  31.897   4.819
63055W        W31449  18.610   1.866   1.372
63056W        W31450   9.735  31.101   0.405
63057W        W31451  35.433  28.100  11.999
63058W        W31452   9.098  21.282  12.976
63059W        W31453  10.437   4.375  11.220
63060W        W31454   7.445  17.598  12.116
63061W        W31455  39.927  30.345  12.053
63062W        W31456  10.398  16.214  11.669
63063W        W31457   2.422  26.792   4.361
63064W        W31458   5.037  10.232  14.500
63065W        W31459  24.131  20.883   2.938
63066W        W31460  36.104  44.966  14.557
63067W        W31461   3.817   9.246  13.452
63068W        W31462  15.415  27.661  13.844
63069W        W31463  30.916  33.134   0.417
63070W        W31464   7.968   7.556  12.932
63071W        W31465   8.709  28.205  14.949
63072W        W31466  19.675   6.981  12.876
63073W        W31467  21.302  23.448   3.706
63074W        W31468  12.190  17.651   1.858
63075W        W31469  25.121  21.691   0.229
63076W        W31470  35.076  37.052  11.517
63077W        W31471  22.262  23.502  13.063
63078W        W31472   4.701  39.554  14.058
63079W        W31473   5.323  13.080  13.864
63080W        W31474  27.661  41.875   2.638
63081W        W31475   2.453  16.037   2.164
63082W        W31476   1.475   5.893  14.783
63083W        W31477  40.424  16.142   2.169
63084W        W31478   9.318  19.324   4.641
63085W        W31479  23.462  31.374   2.817
63086W        W31480   0.262  24.089   2.865
63087W        W31481  25.237  26.561   0.430
63088W        W31482  36.416  22.711   3.671
63089W        W31483   8.179  41.490   2.778
63090W        W31484  17.396   0.462  11.979
63091W        W31485  24.463  10.155  13.067
63092W        W31486  17.637  19.265   1.001
63093W        W31487  24.037  40.840  11.306
63094W        W31488  10.125  14.081   2.759
63095W        W31489  17.333  15.772   1.387
63096W        W31490  26.191  11.815  14.910
63097W        W31491  20.228  36.350   2.726
63098W        W31492  13.374  35.011  14.667
63099W        W31493  43.039   5.696   0.338
63100W        W31494  22.510  24.941  11.579
63101W        W31495  41.691  43.400  11.584
63102W        W31496  37.354   4.173   5.034
63103W        W31497  41.561   0.599   2.136
63104W        W31498  25.537  31.369   3.539
63105W        W31499   1.914   6.658   1.641
63106W        W31500  33.122   0.469   2.788
63107W        W31501  23.087  33.388  14.924
63108W        W31502   1.352  19.609  13.140
63109W        W31503  31.203  32.266   1.875
63110W        W31504   9.468  16.118  13.465
63111W        W31505   5.779  36.503   3.886
63112W        W31506   8.648  27.692  12.673
63113W        W31507  19.227   5.739   3.225
63114W        W31508   1.665   9.054  11.854
63115W        W31509  14.517   1.046   0.832
63116W        W31510  35.935  36.958  14.526
63117W        W31511  11.888   7.431   4.705
63118W        W31512  34.930  38.399  12.865
63119W        W31513  35.446  29.755   2.715
63120W        W31514   5.957  30.428  10.347
63121W        W31515  27.044  41.150  11.267
63122W        W31516  10.652  13.863  11.644
63123W        W31517  16.424  22.499  14.466
63124W        W31518  10.321  15.157   3.800
63125W        W31519  10.295   8.651  13.074
63126W        W31520  42.830  18.361   5.155
63127W        W31521  26.387   8.407  12.416
63128W        W31522  32.843  11.634  14.309
63129W        W31523  16.264  31.107   4.609
63130W        W31524  21.608   4.489   2.656
63131W        W31525  11.208  22.633  12.213
63132W        W31526   3.896  38.051  13.840
63133W        W31527  22.078  20.634  11.038
63134W        W31528  29.320  25.708  10.957
63135W        W31529  14.282  42.739   4.849
63136W        W31530  25.233  26.608  14.021
63137W        W31531  24.571   3.249  13.264
63138W        W31532   6.543  27.995  11.585
63139W        W31533  18.803  25.508  14.324
63140W        W31534   6.397  35.196  14.670
63141W        W31535  10.857  14.848  11.502
63142W        W31536  17.721  30.410  14.857
63143W        W31537   5.722   7.958   3.662
63144W        W31538   2.811   5.426  12.961
63145W        W31539  16.618  15.141   2.142
63146W        W31540  32.098   7.436   3.645
63147W        W31541   4.933  27.253  14.319
63148W        W31542  20.291   5.414   2.196
63149W        W31543   4.150   8.740   1.713
63150W        W31544   5.395   9.825  13.758
63151W        W31545  17.570  21.510   1.381
63152W        W31546  19.999  11.361  14.131
63153W        W31547   6.532   0.206  13.418
63154W        W31548  25.574  18.023   0.938
63155W        W31549  24.233  28.034   0.654
63156W        W31550  15.656  12.445   4.184
63157W        W31551  36.033  31.743   4.214
63158W        W31552  24.144   8.342  14.837
63159W        W31553  26.456  16.061  11.720
63160W        W31554  41.461   5.174  14.750
63161W        W31555  10.255  36.578  10.313
63162W        W31556  22.282  37.946  12.893
63163W        W31557  39.540  11.229   4.417
63164W        W31558   7.427  24.025   0.765
63165W        W31559  43.151  23.610   1.678
63166W        W31560  19.384  39.051   5.316
63167W        W31561   8.288  26.917  12.454
63168W        W31562  39.058  31.066   0.076
63169W        W31563   6.296   8.561  12.964
63170W        W31564  29.999  28.968  13.600
63171W        W31565  41.791  10.833  11.835
63172W        W31566   0.876  43.313   1.473
63173W        W31567  10.568  13.253  12.148
63174W        W31568  43.332  14.110  14.856
63175W        W31569  22.102  11.969  14.371
63176W        W31570   6.302  15.889  12.070
63177W        W31571  30.807  23.964   3.198
63178W        W31572  20.310   5.807  13.528
63179W        W31573  35.531  43.416   2.218
63180W        W31574  28.555  19.525   1.804
63181W        W31575   2.295   8.022  11.210
63182W        W31576   9.859  14.321   3.168
63183W        W31577  23.196  30.442   0.858
63184W        W31578  41.419  22.944  10.636
63185W        W31579   3.451  19.364  14.288
63186W        W31580  43.119  19.759   1.609
63187W        W31581  12.840  10.191   0.354
63188W        W31582  10.192   6.234   1.342
63189W        W31583  43.497  26.396  14.374
63190W        W31584   9.927  13.840  11.142
63191W        W31585  36.299   0.735  14.195
63192W        W31586  17.462  23.131   0.458
63193W        W31587  25.339  36.758   0.310
63194W        W31588  26.114  14.762   3.653
63195W        W31589  33.535   9.373  13.938
63196W        W31590   1.477  24.491  12.490
63197W        W31591  30.903  30.165   1.730
63198W        W31592  34.696  15.824  11.526
63199W        W31593  33.374  33.988   0.352
63200W        W31594  41.930   9.868   3.665
63201W        W31595  31.479  29.592   3.246
63202W        W31596  32.420   7.935  14.874
63203W        W31597  43.343  28.353   2.559
63204W        W31598  15.333   3.367  13.057
63205W        W31599  23.633  20.655   2.900
63206W        W31600  27.265   4.154   0.789
63207W        W31601  29.712   2.713  12.432
63208W        W31602   6.471  11.885   4.962
63209W        W31603  20.341  39.875   4.593
63210W        W31604  43.587  21.456  14.688
63211W        W31605  19.876  37.596  10.247
63212W        W31606  12.690   3.833  13.023
63213W        W31607  26.157  35.613  11.154
63214W        W31608  30.351  12.413  14.935
63215W        W31609  32.734  24.017   4.938
63216W        W31610  41.993  12.898   3.096
63217W        W31611  29.410  18.327  10.659
63218W        W31612  14.766  42.424   3.788
63219W        W31613  14.034  16.449   0.399
63220W        W31614   4.688   3.094  11.506
63221W        W31615   6.295  37.385  12.816
63222W        W31616  36.903   0.603   0.356
63223W        W31617  15.706   3.472   0.468
63224W        W31618   4.007  39.269   2.787
63225W        W31619   4.268  10.315   5.021
63226W        W31620  38.846  27.074   5.093
63227W        W31621   1.346  27.037  14.370
63228W        W31622  44.253  40.050   0.819
63229W        W31623  27.275  30.034   3.592
63230W        W31624  31.103  41.543  12.897
63231W        W31625  31.621  37.981   2.187
63232W        W31626   3.484  40.418   4.660
63233W        W31627  12.277  20.575  11.960
63234W        W31628  41.054  20.039   0.047
63235W        W31629   4.049  17.567   1.127
63236W        W31630   7.126  40.021   1.849
63237W        W31631   0.412  33.098   4.121
63238W        W31632   5.869   0.969  10.519
63239W        W31633  31.313  29.299   2.870
63240W        W31634  26.629  14.743   3.450
63241W        W31635   4.202  11.130  12.088
63242W        W31636  26.435  26.078  13.537
63243W        W31637  22.964  10.292   0.439
63244W        W31638   7.618   2.055   4.184
63245W        W31639   1.962  11.218  12.105
63246W        W31640   5.242  40.020  11.547
63247W        W31641  12.102  35.656  11.971
63248W        W31642   4.263  44.776   3.006
63249W        W31643   8.141  41.349  13.477
63250W        W31644  12.861  37.028  13.359
63251W        W31645  16.518  22.029  10.681
63252W        W31646  20.450  10.181   4.600
63253W        W31647  21.212  40.522  13.442
63254W        W31648  15.235  12.240   3.235
63255W        W31649  17.129  43.321  14.439
63256W        W31650  42.857  13.206  13.560
63257W        W31651  41.520  35.110  11.224
63258W        W31652  42.906   1.750  12.142
63259W        W31653  22.329  41.894   2.913
63260W        W31654  37.790  40.136   3.179
63261W        W31655  21.068  17.733   2.172
63262W        W31656   5.800  35.045   0.847
63263W        W31657   6.762  26.240   9.904
63264W        W31658  41.985  43.284   4.167
63265W        W31659  11.299  28.134   4.063
63266W        W31660  41.252  19.283   1.710
63267W        W31661  16.468  36.930  10.205
63268W        W31662  33.615  32.918  12.367
63269W        W31663   4.666  13.070  11.625
63270W        W31664  43.336  34.576  11.117
63271W        W31665  44.676   6.608   3.953
63272W        W31666  18.094  12.376  14.260
63273W        W31667  20.711   7.630  13.172
63274W        W31668  42.481  43.193   1.614
63275W        W31669   9.708  29.135  10.615
63276W        W31670  13.773  32.528  12.849
63277W        W31671   1.928  16.665   0.729
63278W        W31672  19.528  43.121   4.531
63279W        W31673  36.140  31.527   3.766
63280W        W31674  43.894   9.410   2.708
63281W        W31675  40.518  36.495  10.569
63282W        W31676  38.303  14.767   4.675
63283W        W31677   5.833  13.399  14.215
63284W        W31678  35.413  13.393   3.662
63285W        W31679  13.146  17.517  13.461
63286W        W31680  14.098  12.849   1.822
63287W        W31681  12.750  20.308   1.182
63288W        W31682  29.260  28.611  14.318
63289W        W31683  27.274  12.672  12.003
63290W        W31684  12.423  34.933   0.355
63291W        W31685   8.387   0.254   1.427
63292W        W31686  27.911  15.039   4.189
63293W        W31687  33.155  11.316   4.411
63294W        W31688  16.096  10.091   9.377
63295W        W31689   4.276  19.732   3.230
63296W        W31690  26.475   3.408   0.219
63297W        W31691   9.816  41.044   4.531
63298W        W31692  39.349  19.215   2.689
63299W        W31693  36.403  22.198  11.182
63300W        W31694  18.074  15.568  13.804
63301W        W31695  32.512   9.229   0.376
63302W        W31696  21.735  34.439   2.409
63303W        W31697  33.832   9.782  12.146
63304W        W31698  25.435  34.512   2.810
63305W        W31699   3.209  31.867   3.213
63306W        W31700  30.269  14.813  11.205
63307W        W31701  14.670  17.075  14.461
63308W        W31702  26.234   9.350   5.108
63309W        W31703  32.597  16.014  12.043
63310W        W31704  24.594   9.271  13.902
63311W        W31705  36.076  21.243   0.407
63312W        W31706  34.046  29.185  13.535
63313W        W31707  43.520  43.839   2.106
63314W        W31708   4.803  31.181   2.719
63315W        W31709  42.392  15.528  11.156
63316W        W31710  13.693  18.605   2.746
63317W        W31711  27.614  19.031  14.765
63318W        W31712  11.180  44.992   0.874
63319W        W31713  14.153  32.525   2.559
63320W        W31714  10.089  34.324   0.382
63321W        W31715  28.120   5.191  10.290
63322W        W31716  29.488  12.349  14.739
63323W        W31717  21.276  27.778   9.977
63324W        W31718  36.638  16.796   1.889
63325W        W31719  38.628  23.185   4.558
63326W        W31720  43.451  43.345   4.427
63327W        W31721  32.984  24.717   4.602
63328W        W31722   0.608  21.421   0.916
63329W        W31723  26.882  31.145   4.027
63330W        W31724  44.968  24.609  10.390
63331W        W31725  43.786  29.501   0.404
63332W        W31726   0.632  41.916  12.915
63333W        W31727  15.839  33.872   3.636
63334W        W31728   6.438  32.898  11.395
63335W        W31729  24.221  11.640  10.743
63336W        W31730  36.638  44.996   3.218
63337W        W31731  39.054  21.040   4.382
63338W        W31732  32.709  22.098  12.121
63339W        W31733  19.559  11.749  14.985
63340W        W31734  12.197   2.805   2.195
63341W        W31735   1.754  18.793   4.914
63342W        W31736  40.954   1.999  14.948
63343W        W31737  36.305  18.548  11.892
63344W        W31738  16.022  40.830   0.321
63345W        W31739   3.284  15.662   4.070
63346W        W31740  13.082  29.438  13.559
63347W        W31741  15.295  19.584   4.631
63348W        W31742   0.038  20.145  13.451
63349W        W31743  34.347  32.863   1.745
63350W        W31744  35.107  44.920   0.382
63351W        W31745  42.265  42.424   1.900
63352W        W31746  24.085  39.482  11.196
63353W        W31747  12.723  14.296  13.240
63354W        W31748   2.852   6.860   4.740
63355W        W31749  22.614  33.501  13.022
63356W        W31750   8.554  12.616   0.760
63357W        W31751  25.710  43.803  12.808
63358W        W31752  31.467   9.405  14.465
63359W        W31753   0.029  13.176   3.240
63360W        W31754  24.473  15.570  12.081
63361W        W31755  21.049  13.707   4.632
63362W        W31756  27.477  42.102   1.222
63363W        W31757  21.481  26.096   1.723
63364W        W31758  39.021  41.660  11.022
63365W        W31759  25.537   6.323  13.586
63366W        W31760  11.355   0.921   0.487
63367W        W31761  33.594  11.761   0.718
63368W        W31762  26.097  40.215   2.577
63369W        W31763  14.125  21.819   2.529
63370W        W31764  25.591  27.111   1.672
63371W        W31765  33.895   6.297  12.357
63372W        W31766  13.648  36.588  10.518
63373W        W31767  14.725   1.743   0.347
63374W        W31768  31.367  30.635  12.563
63375W        W31769  40.529  30.924   4.224
63376W        W31770  42.503  35.782  12.027
63377W        W31771  25.091  20.998  13.838
63378W        W31772   0.987  20.512  14.339
63379W        W31773   7.775  39.311  12.428
63380W        W31774  37.927  19.276   0.943
63381W        W31775  30.002  10.173  11.422
63382W        W31776  34.447  22.991  14.088
63383W        W31777   5.881   8.929  14.517
63384W        W31778  32.535  36.539  11.028
63385W        W31779  43.281  26.539   4.245
63386W        W31780  35.415  26.829   3.232
63387W        W31781  38.072  16.870  11.568
63388W        W31782  28.766  31.833   4.798
63389W        W31783  18.373  40.418  14.370
63390W        W31784   4.970   0.859  11.198
63391W        W31785  24.314  41.759  14.373
63392W        W31786  10.367  36.655   5.020
63393W        W31787   4.950  22.639  10.374
63394W        W31788  29.039  14.206   3.634
63395W        W31789  20.281  27.090   3.167
63396W        W31790   0.717  11.107   0.835
63397W        W31791  44.492  15.313   3.329
63398W        W31792   5.902  29.413  13.545
63399W        W31793  24.784  33.490  10.660
63400W        W31794  39.851   9.606   0.333
63401W        W31795   4.055  40.953   1.000
63402W        W31796  38.096  34.421  13.106
63403W        W31797  41.575   4.814   1.212
63404W        W31798  22.878  19.337  11.112
63405W        W31799  25.156   6.708   1.688
63406W        W31800  28.142  39.121   4.377
63407W        W31801   2.783  26.716   2.705
63408W        W31802  31.540  43.143  14.055
63409W        W31803  24.206  37.950  14.362
63410W        W31804   8.021  21.742  14.480
63411W        W31805  43.903  26.743   1.346
63412W        W31806  23.520  35.540   0.721
63413W        W31807  39.482  37.914  11.248
63414W        W31808   4.325  26.994   2.750
63415W        W31809   2.247  14.323  10.926
63416W        W31810  33.054   3.579  11.217
63417W        W31811  44.917  39.162   4.198
63418W        W31812  17.089  14.189   1.713
63419W        W31813   2.305  20.694  10.982
63420W        W31814   4.002   8.103  13.063
63421W        W31815  33.466  11.992  14.765
63422W        W31816  15.294  11.228   1.870
63423W        W31817  36.328   2.757   2.494
63424W        W31818  32.180  18.222   9.920
63425W        W31819   3.745  17.708   0.148
63426W        W31820  34.192  43.448   2.094
63427W        W31821  37.944   4.506  11.311
63428W        W31822  26.892  32.971   2.106
63429W        W31823  35.787   5.888   1.252
63430W        W31824  26.453  24.646  10.507
63431W        W31825  41.474  36.305   5.518
63432W        W31826  15.609  26.538  11.713
63433W        W31827  13.264  12.575  11.550
63434W        W31828  16.687  28.747  11.098
63435W        W31829   5.438  41.453  11.981
63436W        W31830  36.800  15.156  14.797
63437W        W31831   3.858  38.096   4.162
63438W        W31832  26.565  28.937  10.797
63439W        W31833  12.325  11.767   2.667
63440W        W31834  39.795   4.942  12.571
63441W        W31835  35.596  39.775  14.300
63442W        W31836  10.693   8.678   2.863
63443W        W31837   9.311  26.451   1.244
63444W        W31838   4.099  18.517   3.310
63445W        W31839  43.041   4.156   0.457
63446W        W31840  25.822  23.296  11.141
63447W        W31841  20.734  41.009  14.011
63448W        W31842  44.049  24.553  14.474
63449W        W31843  31.346   8.920  12.477
63450W        W31844   5.939  18.960  12.814
63451W        W31845  27.199  35.461   3.060
63452W        W31846  42.525  41.255  11.424
63453W        W31847   8.801  34.597   2.161
63454W        W31848  21.295  33.511  14.870
63455W        W31849  43.376  24.748  12.152
63456W        W31850  37.470   7.999   3.243
63457W        W31851  10.297  40.833   4.484
63458W        W31852  41.531  29.078   2.203
63459W        W31853  11.430  13.644  12.056
63460W        W31854  28.573  17.752   0.383
63461W        W31855  40.802  19.469   1.867
63462W        W31856   5.590  41.920   2.766
63463W        W31857  28.695  39.875   0.502
63464W        W31858  40.506  31.307  13.926
63465W        W31859  40.007  30.506  13.911
63466W        W31860   5.406   4.769  14.098
63467W        W31861  22.753  16.663  10.754
63468W        W31862  24.628  31.902   3.809
63469W        W31863  32.165  20.159   2.718
63470W        W31864  17.927  20.767   3.868
63471W        W31865   5.496   1.343   0.379
63472W        W31866  20.460   1.475  11.795
63473W        W31867  22.941  21.658   4.083
63474W        W31868  25.932  14.295   3.578
63475W        W31869   9.931  16.782  13.811
63476W        W31870  17.406  27.351  11.078
63477W        W31871   4.144   4.470  10.237
63478W        W31872  32.050  35.923   3.647
63479W        W31873   3.167   3.053  14.738
63480W        W31874  30.448  24.131   1.855
63481W        W31875  13.335  28.041  13.311
63482W        W31876  29.562  41.034   0.793
63483W        W31877  29.665  22.030   2.361
63484W        W31878  44.356  42.115   0.942
63485W        W31879  35.720   4.631  14.008
63486W        W31880   4.295  39.285   2.344
63487W        W31881  36.559  20.223  14.702
63488W        W31882  33.063  42.451  10.300
63489W        W31883  14.790  25.854   4.279
63490W        W31884  28.647  23.090   2.456
63491W        W31885  33.991  34.916   4.582
63492W        W31886  30.514   4.994   4.970
63493W        W31887  12.479   7.812  13.100
63494W        W31888  22.794  34.944   5.122
63495W        W31889   6.128  35.578  14.438
63496W        W31890  40.060  40.255  13.529
63497W        W31891  29.540  23.022   1.412
63498W        W31892   5.396   0.005  12.806
63499W        W31893  33.159   4.298   4.657
63500W        W31894  41.872   9.220  11.713
63501W        W31895  25.190   3.748  13.180
63502W        W31896  13.348  10.223  11.569
63503W        W31897  15.248  32.428   2.669
63504W        W31898  41.783  37.979  10.822
63505W        W31899   8.284   4.789   3.470
63506W        W31900  11.840  13.743   2.321
63507W        W31901  10.602  14.385   3.338
63508W        W31902  26.955   6.812  14.434
63509W        W31903   2.369  31.088  13.760
63510W        W31904  44.308  37.937  13.313
63511W        W31905  34.978  18.172  13.528
63512W        W31906  35.133   1.456   1.401
63513W        W31907  32.907  29.599   1.166
63514W        W31908  39.295  31.655  11.585
63515W        W31909  41.549  34.601  11.358
63516W        W31910  41.728  26.440  11.717
63517W        W31911  35.625  12.828   4.514
63518W        W31912  23.712   0.788  14.642
63519W        W31913  15.135  10.217   1.736
63520W        W31914   2.687  14.919  11.477
63521W        W31915  29.798  36.615  12.115
63522W        W31916  13.174  13.927  11.917
63523W        W31917  15.124  24.183   3.560
63524W        W31918   4.870   7.690   0.656
63525W        W31919  37.197  39.166  11.289
63526W        W31920  40.762  15.173  11.173
63527W        W31921  21.660  37.566   3.698
63528W        W31922  28.948   4.937  11.417
63529W        W31923  14.891  38.853   9.824
63530W        W31924  22.372  43.543  11.853
63531W        W31925  18.724   3.346   1.229
63532W        W31926  15.318  38.559  11.556
63533W        W31927  19.669  23.053   4.886
63534W        W31928  24.123   6.659   3.158
63535W        W31929  10.182  32.375  10.629
63536W        W31930   6.167   2.384  14.902
63537W        W31931   5.221   2.814  12.432
63538W        W31932   5.987  17.637   4.198
63539W        W31933  42.490  38.625  13.566
63540W        W31934  21.260  44.416   0.893
63541W        W31935  20.607   0.815  12.920
63542W        W31936  25.617   6.309  14.093
63543W        W31937  42.490  21.526  13.458
63544W        W31938  10.346  44.601   4.084
63545W        W31939  31.940  17.288   2.672
63546W        W31940  12.256   2.167  12.966
63547W        W31941  19.571   2.759   2.286
63548W        W31942  29.695  39.182  10.425
63549W        W31943  36.946  11.676  13.500
63550W        W31944  11.754  31.840   4.040
63551W        W31945  26.163   1.524   2.232
63552W        W31946   0.237  18.418   0.962
63553W        W31947  13.159  38.408   0.833
63554W        W31948  38.739  36.117  14.322
63555W        W31949  39.360  28.943   0.896
63556W        W31950   7.752  17.223   2.341
63557W        W31951   1.026  27.588  10.580
63558W        W31952   3.305  20.122   4.234
63559W        W31953   6.345  11.602   2.947
63560W        W31954  37.591   8.182   0.462
63561W        W31955  18.028   3.660   4.093
63562W        W31956   9.330  35.643  12.565
63563W        W31957   2.527  33.893  14.029
63564W        W31958  37.565  28.596  14.863
63565W        W31959  29.476  19.158  14.804
63566W        W31960   0.958  27.290  12.978
63567W        W31961  39.420  10.453  14.396
63568W        W31962  12.100  32.128  14.404
63569W        W31963  28.896  15.127   4.270
63570W        W31964  40.595   7.304   0.425
63571W        W31965  22.605   1.419   2.921
63572W        W31966  15.381  43.270   2.291
63573W        W31967  32.894  32.900  10.459
63574W        W31968   9.601  12.451   4.470
63575W        W31969  20.275  19.901   2.294
63576W        W31970  26.875  21.170   4.772
63577W        W31971   2.388  29.378  11.104
63578W        W31972   3.962  19.568   4.279
63579W        W31973  14.344  24.475  11.070
63580W        W31974  17.379   8.375   5.163
63581W        W31975   3.972  30.586  13.496
63582W        W31976  19.085   5.356   3.580
63583W        W31977  39.570  32.555   2.912
63584W        W31978  23.315  17.740   2.768
63585W        W31979   5.146   5.914  11.191
63586W        W31980  13.403   6.270  13.101
63587W        W31981  31.602  31.136   3.401
63588W        W31982  36.549   5.785  11.049
63589W        W31983   6.441  36.502   1.500
63590W        W31984  16.126  12.101  14.913
63591W        W31985  12.695  23.057   0.745
63592W        W31986  27.040   4.786   1.530
63593W        W31987  20.755  26.011  10.639
63594W        W31988  29.122   7.157  12.243
63595W        W31989   1.599   9.758   4.000
63596W        W31990  35.744  25.866  12.523
63597W        W31991  20.855  31.544  12.043
63598W        W31992  13.898  10.249  10.722
63599W        W31993   6.217  42.370  13.221
63600W        W31994  32.939  43.831   4.713
63601W        W31995  32.143  35.562  11.006
63602W        W31996  31.825  27.922  14.258
63603W        W31997   1.235   6.127   1.913
63604W        W31998  22.627  30.662   3.773
63605W        W31999   9.114  36.162   5.004
63606W        W32000   8.380  24.570   3.152
63607W        W32001   4.400  44.365  13.143
63608W        W32002  22.081  21.645   0.305
63609W        W32003  28.624   2.719  12.741
63610W        W32004  43.664  28.167  14.433
63611W        W32005   0.342  37.401   2.853
63612W        W32006  11.602  26.969   0.861
63613W        W32007  32.674  37.910   0.424
63614W        W32008  31.415  41.039   0.814
63615W        W32009  12.858  10.409   0.845
63616W        W32010   7.877  37.886   1.624
63617W        W32011   6.045   2.138   9.755
63618W        W32012  30.144  12.890   1.401
63619W        W32013   4.792  35.605   3.455
63620W        W32014  15.158  29.990   4.863
63621W        W32015  39.359  31.609  14.505
63622W        W32016   2.989   9.662   2.356
63623W        W32017  40.036  13.844   2.192
63624W        W32018  17.285  28.491  12.180
63625W        W32019  10.844  11.702  13.520
63626W        W32020  23.071  31.604   3.740
63627W        W32021  34.442  10.754   3.437
63628W        W32022  32.892  11.267  13.955
63629W        W32023  27.959  39.020  12.033
63630W        W32024  12.261  12.802  14.525
63631W        W32025   1.021   6.735   0.739
63632W        W32026  13.033  41.069   4.534
63633W        W32027  44.775  43.946  12.454
63634W        W32028  35.943   6.399   1.264
63635W        W32029  30.135   2.122   3.038
63636W        W32030  40.100  17.093  11.116
63637W        W32031  42.991  27.901   0.340
63638W        W32032  25.869  29.071  13.569
63639W        W32033  10.075  34.903   4.212
63640W        W32034  21.606  12.922   3.155
63641W        W32035  25.904  28.466   2.756
63642W        W32036  24.171  11.683   3.277
63643W        W32037   4.780  31.848  13.553
63644W        W32038  43.787   2.340   4.383
63645W        W32039  18.679  13.545   1.213
63646W        W32040  28.434  20.278  11.132
63647W        W32041   6.784  36.670   3.828
63648W        W32042  42.018  27.142  12.366
63649W        W32043   9.123   7.470  10.766
63650W        W32044  24.547   4.859  11.548
63651W        W32045  31.401   0.498   0.341
63652W        W32046  37.861  35.389  12.891
63653W        W32047  34.517   0.731   3.264
63654W        W32048  32.684  20.771  12.108
63655W        W32049   8.397  26.739  14.960
63656W        W32050  39.610  24.723   3.060
63657W        W32051   2.764  29.267  12.852
63658W        W32052  36.584  11.247   4.073
63659W        W32053  40.481  43.459  12.936
63660W        W32054  42.909   7.295  11.625
63661W        W32055  23.070  15.058   0.904
63662W        W32056   8.626  31.457  12.949
63663W        W32057  29.524   4.972   3.741
63664W        W32058  23.507  41.232  10.717
63665W        W32059  25.494  26.335   3.150
63666W        W32060   8.805  14.506  10.316
63667W        W32061  38.824  35.172  13.257
63668W        W32062   1.522  32.930   2.721
63669W        W32063  30.538  44.478   2.966
63670W        W32064  23.877  18.720  12.482
63671W        W32065   8.283  39.419   2.912
63672W        W32066  42.175  10.116  12.444
63673W        W32067  15.071   7.180   3.309
63674W        W32068   7.576  26.042   1.199
63675W        W32069  23.640  32.375  12.443
63676W        W32070  17.222   4.389  14.979
63677W        W32071   8.891  32.901  11.036
63678W        W32072  20.595  18.628   3.840
63679W        W32073  11.680  39.521  13.925
63680W        W32074  17.330   1.204   2.749
63681W        W32075  29.008  36.020  12.356
63682W        W32076   7.280  39.130   1.896
63683W        W32077  14.091  18.709   3.829
63684W        W32078  29.715  25.683  14.116
63685W        W32079  15.377  33.018   1.844
63686W        W32080  24.158   3.276   3.852
63687W        W32081  29.292  37.505  10.669
63688W        W32082  16.050  33.239   2.417
63689W        W32083  42.820  26.956  14.304
63690W        W32084  33.507  34.463  12.867
63691W        W32085  43.755  25.221  11.642
63692W        W32086  44.319  39.929   4.656
63693W        W32087  11.996   3.212   1.459
63694W        W32088  21.123  39.751  13.967
63695W        W32089  12.201  42.014  14.785
63696W        W32090   0.825   4.995  10.711
63697W        W32091  27.083   3.663  13.331
63698W        W32092  42.867  35.822   1.483
63699W        W32093  39.220  34.557  11.245
63700W        W32094   6.680  18.114  14.766
63701W        W32095  32.708  32.662   3.365
63702W        W32096  29.457   5.890   4.621
63703W        W32097   0.077  15.558  13.784
63704W        W32098   1.516  30.905   0.739
63705W        W32099  11.626   0.934  14.592
63706W        W32100  20.693  14.788  14.580
63707W        W32101   7.864   5.666  14.115
63708W        W32102  11.766  43.221   4.108
63709W        W32103   1.897  19.582  12.874
63710W        W32104  32.711  33.395  10.385
63711W        W32105  40.246   6.886  10.637
63712W        W32106  39.522  18.810  11.607
63713W        W32107  12.782  24.059   2.264
63714W        W32108  44.482   8.251   9.935
63715W        W32109  39.882  19.300   2.721
63716W        W32110  19.807  19.850  10.942
63717W        W32111  13.244   4.826  13.411
63718W        W32112  33.034  32.629   2.307
63719W        W32113  17.180   2.957   5.001
63720W        W32114  42.317  19.187  10.526
63721W        W32115   3.255   1.920   1.352
63722W        W32116  43.543  32.363   1.589
63723W        W32117   6.908  28.812  12.863
63724W        W32118  21.718   0.865  13.100
63725W        W32119  43.841  34.921   4.885
63726W        W32120  12.368  28.479  14.591
63727W        W32121  33.058   2.059  13.397
63728W        W32122  22.025  19.671   3.175
63729W        W32123  22.235  14.648   2.247
63730W        W32124  35.403  30.983   0.703
63731W        W32125  19.170  36.376   2.391
63732W        W32126  42.779  35.174   3.699
63733W        W32127  39.647   3.936  14.733
63734W        W32128   3.304  32.253   4.224
63735W        W32129  39.284   7.120   4.982
63736W        W32130  27.192   9.310   0.322
63737W        W32131  17.590  20.625  13.797
63738W        W32132  35.013  21.363   4.968
63739W        W32133  17.153  18.985  14.868
63740W        W32134  10.343  38.787  14.832
63741W        W32135  37.794   1.665  13.950
63742W        W32136  42.096  11.246   3.633
63743W        W32137  25.628  11.691   1.453
63744W        W32138  39.394  36.618  10.704
63745W        W32139  34.586  41.126  13.112
63746W        W32140  32.056   2.473  13.454
63747W        W32141  28.046  37.249   4.073
63748W        W32142  13.315  29.611  12.624
63749W        W32143  29.528  34.431  12.076
63750W        W32144  42.904  28.556  14.211
63751W        W32145  10.249  31.869   1.344
63752W        W32146  26.616  43.278   4.575
63753W        W32147  38.820  29.396  13.916
63754W        W32148   0.870   0.967   3.394
63755W        W32149  19.104  22.816   4.938
63756W        W32150  26.026   2.358  13.864
63757W        W32151  26.129  33.374  11.499
63758W        W32152  42.053  11.333  11.269
63759W        W32153  36.470  30.469   0.239
63760W        W32154   9.175  29.202  11.909
63761W        W32155  22.880  25.711  14.750
63762W        W32156   7.904  31.244   2.485
63763W        W32157  13.205  41.073   0.986
63764W        W32158  35.517  41.501   1.867
63765W        W32159  38.308  26.203   0.341
63766W        W32160  19.373  23.062   3.382
63767W        W32161  18.682   2.032  12.003
63768W        W32162  34.971  29.372  13.795
63769W        W32163  23.087  35.870   5.238
63770W        W32164  18.121  13.304  12.822
63771W        W32165  36.600  44.851   2.290
63772W        W32166  38.101  17.155   0.000
63773W        W32167  21.254  31.919  12.095
63774W        W32168  44.487   8.416  11.632
63775W        W32169   1.518   8.490   4.933
63776W        W32170   6.658  31.739  12.267
63777W        W32171   3.447  12.388  12.076
63778W        W32172  16.805   8.734   1.634
63779W        W32173  23.763   9.865   1.224
63780W        W32174  30.115  18.985   2.213
63781W        W32175  43.256  35.997   2.251
63782W        W32176  14.228   3.330  10.341
63783W        W32177  26.397  42.087   4.133
63784W        W32178  18.062  34.323  12.441
63785W        W32179   8.882  37.442  12.266
63786W        W32180  31.064   6.132   2.186
63787W        W32181  13.789  35.868  13.386
63788W        W32182  30.002  38.290   1.906
63789W        W32183  34.460  33.591   2.421
63790W        W32184   2.348  38.911   3.554
63791W        W32185  12.559   5.441   4.199
63792W        W32186  28.955  42.297   1.876
63793W        W32187  30.937   1.479  13.392
63794W        W32188   6.664  34.182  12.271
63795W        W32189  13.750   2.814   3.899
63796W        W32190  37.439   2.183  11.182
63797W        W32191  42.566   2.523   0.697
63798W        W32192  19.076  32.072  11.560
63799W        W32193  27.127  40.012  12.628
63800W        W32194  38.181  13.864   2.763
63801W        W32195  38.181  30.899  12.119
63802W        W32196  32.652  18.331   1.774
63803W        W32197   2.980   9.871  11.095
63804W        W32198  42.324   2.338  14.122
63805W        W32199  41.568   8.225   1.371
63806W        W32200  28.641  44.876  13.529
63807W        W32201  34.373  12.653  12.375
63808W        W32202  23.975   3.295  12.150
63809W        W32203  16.146  44.529  13.933
63810W        W32204   5.789   8.816  11.466
63811W        W32205  21.887   5.232  10.938
63812W        W32206   6.347  27.363   1.418
63813W        W32207  18.771   7.835   4.128
63814W        W32208  13.885  14.182   3.127
63815W        W32209   4.928  39.975  13.864
63816W        W32210   4.495  26.997   9.923
63817W        W32211  44.281  44.388  11.015
63818W        W32212  20.533  38.561  12.956
63819W        W32213  40.601  13.194  11.510
63820W        W32214  24.079   4.900   1.881
63821W        W32215  36.783  43.546   2.738
63822W        W32216  33.045  29.579  12.758
63823W        W32217  20.725   4.582  13.216
63824W        W32218  33.042  44.420  13.908
63825W        W32219   9.314   0.450   1.555
63826W        W32220  40.621  33.408  10.295
63827W        W32221  29.741  35.758   2.361
63828W        W32222  43.780  33.583   4.290
63829W        W32223  33.115  20.322   3.695
63830W        W32224  41.017   1.411   3.142
63831W        W32225  27.137   3.588   3.267
63832W        W32226  44.222  20.258  11.583
63833W        W32227  28.146   9.654   9.650
63834W        W32228  41.535  37.289   1.189
63835W        W32229  10.321  13.159   2.781
63836W        W32230  33.510   4.707  13.583
63837W        W32231  10.575  44.820  12.382
63838W        W32232  10.716  10.589   2.348
63839W        W32233  16.791   3.238   3.639
63840W        W32234  36.463  10.106  11.540
63841W        W32235  39.976  32.776   3.188
63842W        W32236  18.618  24.190   4.643
63843W        W32237   1.902   8.502  13.044
63844W        W32238  15.155  10.375   3.610
63845W        W32239  25.630   6.730  11.659
63846W        W32240  10.032  14.160   4.188
63847W        W32241   9.695   2.470  11.327
63848W        W32242  34.387  34.553  13.845
63849W        W32243  41.034  13.613  14.538
63850W        W32244  37.434  27.193  14.906
63851W        W32245   5.242  16.254  14.288
63852W        W32246   3.035  27.435   1.332
63853W        W32247  37.946  17.570   0.930
63854W        W32248  29.698  39.310   2.749
63855W        W32249  14.762  35.195  11.018
63856W        W32250  43.934  14.392  14.002
63857W        W32251  14.572  37.586   1.235
63858W        W32252   8.835  31.251   1.372
63859W        W32253  26.980  34.551  12.246
63860W        W32254  14.683  16.667   4.701
63861W        W32255  26.922   0.521   1.435
63862W        W32256  36.245  26.568   9.861
63863W        W32257  15.009  10.724  11.656
63864W        W32258  31.956   1.242   1.760
63865W        W32259  18.299  37.383   3.635
63866W        W32260   3.760  25.514  14.420
63867W        W32261   7.963  21.568   4.250
63868W        W32262  23.691  12.973   4.570
63869W        W32263  31.502  41.008  10.801
63870W        W32264  23.514   8.355  13.977
63871W        W32265  40.338  11.706  13.133
63872W        W32266  37.476  22.026  13.730
63873W        W32267   9.874  16.185   0.402
63874W        W32268  26.696  24.264   2.294
63875W        W32269   8.049  36.523   4.607
63876W        W32270  31.117  36.016   0.363
63877W        W32271  43.279  16.992   9.961
63878W        W32272   9.799  36.435   3.059
63879W        W32273  21.206  41.360  13.327
63880W        W32274   5.933   4.416  14.978
63881W        W32275  26.084  32.030   2.453
63882W        W32276  25.969  43.395  12.997
63883W        W32277  18.473  40.368   1.814
63884W        W32278   1.271  35.146   0.918
63885W        W32279  20.691  23.971  11.542
63886W        W32280  30.571  27.514  10.692
63887W        W32281  40.036   9.711   3.957
63888W        W32282  33.051  16.459   4.112
63889W        W32283   3.440  34.380   3.307
63890W        W32284  27.145  28.002   0.285
63891W        W32285  23.423  26.626   3.322
63892W        W32286  35.420  41.928   2.211
63893W        W32287  36.451   4.451   2.171
63894W        W32288  18.556  43.326   2.747
63895W        W32289  30.995  21.766   2.005
63896W        W32290  24.164  34.541  11.421
63897W        W32291  15.892  32.248   5.012
63898W        W32292   7.861  42.090   3.773
63899W        W32293  38.539  20.152   4.616
63900W        W32294  28.953  31.635  13.744
63901W        W32295  32.468   1.568  11.453
63902W        W32296  36.362  25.201   1.249
63903W        W32297  15.853  29.409  14.479
63904W        W32298  20.519  21.832  11.905
63905W        W32299  23.167  32.125   3.772
63906W        W32300  36.564  32.557   1.372
63907W        W32301  21.765  38.069  12.924
63908W        W32302  42.284   2.169   0.334
63909W        W32303   0.354  21.182  12.042
63910W        W32304  26.016  17.103  13.228
63911W        W32305  15.688  21.640   4.148
63912W        W32306   1.370  25.065  14.570
63913W        W32307   9.618   7.855  13.034
63914W        W32308  39.024  43.735   1.361
63915W        W32309   8.409  15.625   0.883
63916W        W32310  42.692  13.028   3.584
63917W        W32311   2.907   1.500   3.857
63918W        W32312  17.665  24.908   0.475
63919W        W32313   1.517  37.927  10.724
63920W        W32314   1.857   3.711   1.357
63921W        W32315  37.350  14.312  10.324
63922W        W32316  35.941  16.967  14.884
63923W        W32317  35.320  22.678  12.533
63924W        W32318  15.427  29.653  13.247
63925W        W32319  21.258   0.880   3.292
63926W        W32320  41.480  43.446  12.120
63927W        W32321   5.206  14.111   3.577
63928W        W32322  25.097  30.168  14.831
63929W        W32323   1.410  17.236  14.271
63930W        W32324   1.013   1.436   1.195
63931W        W32325   8.416   5.989   2.202
63932W        W32326  38.638  43.041   3.525
63933W        W32327  29.639   7.448  13.987
63934W        W32328   7.772  33.338   4.347
63935W        W32329  40.945  10.738  10.749
63936W        W32330   9.251   4.624   3.690
63937W        W32331  29.983  19.044  14.749
63938W        W32332   3.494  36.635   1.944
63939W        W32333  12.773   7.223  11.244
63940W        W32334  31.910  13.581  13.385
63941W        W32335  23.315  22.267  14.398
63942W        W32336  22.443   5.704   4.514
63943W        W32337  31.095  36.420   4.455
63944W        W32338  29.403  31.661   3.289
63945W        W32339  12.729   7.382   1.429
63946W        W32340  12.510   2.344   1.465
63947W        W32341  42.375   2.020   2.310
63948W        W32342  28.411   2.431   4.560
63949W        W32343  42.507   0.403   0.969
63950W        W32344  21.881   3.285   3.323
63951W        W32345  18.253  17.149   2.290
63952W        W32346   1.392  28.927  14.582
63953W        W32347  29.226  30.979   0.846
63954W        W32348   7.166  23.480   1.476
63955W        W32349  10.379   4.740  14.802
63956W        W32350   7.766   9.366   4.449
63957W        W32351  21.765  39.496  13.390
63958W        W32352   4.694   1.779  14.359
63959W        W32353  22.079  37.963   3.362
63960W        W32354  31.520  39.720  14.346
63961W        W32355  28.854  39.997  12.010
63962W        W32356  21.496  36.806  14.683
63963W        W32357   3.258  26.940  12.496
63964W        W32358  32.622  36.720  12.909
63965W        W32359  12.105  36.797   1.920
63966W        W32360  13.227  39.708   4.001
63967W        W32361   9.504   5.408   1.717
63968W        W32362  43.424   8.351  12.788
63969W        W32363   4.892  11.170  13.123
63970W        W32364  26.095  34.200  12.936
63971W        W32365  11.075   9.462   3.363
63972W        W32366  29.981   0.844   2.167
63973W        W32367  42.358   2.494   2.088
63974W        W32368  31.455  35.532  13.064
63975W        W32369   5.224  44.251   1.726
63976W        W32370  33.895  13.877   1.367
63977W        W32371  24.211  14.757   3.458
63978W        W32372  36.352  13.243  11.151
63979W        W32373  34.408   4.450   3.210
63980W        W32374  15.733  25.758  10.608
63981W        W32375  38.515  39.642   3.618
63982W        W32376  22.413  32.884  11.002
63983W        W32377   4.473  36.901  12.106
63984W        W32378  26.010   0.768   2.726
63985W        W32379  23.789  14.923   1.257
63986W        W32380  10.802  37.452   4.841
63987W        W32381  12.734  26.399   4.492
63988W        W32382  44.353  24.177   0.699
63989W        W32383  25.551  34.189  13.015
63990W        W32384  26.934  37.437   2.973
63991W        W32385  36.603  36.098   0.146
63992W        W32386  13.479  13.270   4.102
63993W        W32387  37.976  35.071  14.380
63994W        W32388   3.265  29.654  11.146
63995W        W32389  26.780   8.934   2.210
63996W        W32390  27.215  29.080   3.470
63997W        W32391  15.826  41.393   2.316
63998W        W32392   7.788  33.616  10.635
63999W        W32393  44.399  43.531   0.758
64000W        W32394  38.129  39.016  11.622
64001W        W32395   9.531  19.031   2.306
64002W        W32396  18.080   8.927   0.739
64003W        W32397  27.507  38.419   3.676
64004W        W32398  24.576  34.134   1.812
64005W        W32399  12.228  28.041  11.069
64006W        W32400  37.935  32.815  13.841
64007W        W32401  36.079  15.612  12.477
64008W        W32402  21.031  34.529   4.595
64009W        W32403   7.172  35.913   1.401
64010W        W32404  32.958   7.170  13.283
64011W        W32405  25.954  36.557  14.426
64012W        W32406  44.533  37.590  10.799
64013W        W32407  22.820  20.250   3.165
64014W        W32408  30.166  26.511   2.744
64015W        W32409  28.078  34.559  14.360
64016W        W32410  13.705  30.001  12.006
64017W        W32411  19.790  28.205   1.392
64018W        W32412  33.136  15.837   4.710
64019W        W32413  43.372  34.044  10.423
64020W        W32414  18.741  41.472   0.316
64021W        W32415   2.709  13.172  11.521
64022W        W32416  41.466  13.856  13.895
64023W        W32417  38.574  10.422   3.178
64024W        W32418  27.377  31.144  14.462
64025W        W32419  21.215  13.143  10.310
64026W        W32420  36.882  44.567  12.605
64027W        W32421  37.457  23.083  10.823
64028W        W32422  16.115  24.402   2.823
64029W        W32423  44.042  38.049   2.618
64030W        W32424  26.003  15.889  14.857
64031W        W32425  13.213  10.163  14.972
64032W        W32426  26.243   3.016  14.942
64033W        W32427  15.676  43.706  11.191
64034W        W32428  41.342   3.350   2.774
64035W        W32429   3.219   3.796   2.419
64036W        W32430  42.051  39.455   1.334
64037W        W32431  15.296  13.259  13.861
64038W        W32432   7.386  14.230   4.359
64039W        W32433  40.650  24.405  14.845
64040W        W32434   2.200  16.709  13.867
64041W        W32435  27.499  37.390   4.673
64042W        W32436   5.900  15.274  10.033
64043W        W32437  27.205  14.736   2.754
64044W        W32438  41.424  44.167   2.434
64045W        W32439  32.003  43.867  12.100
64046W        W32440   1.502   9.898  14.882
64047W        W32441  17.767   3.220  14.893
64048W        W32442   1.074  10.393   1.335
64049W        W32443  18.744  33.012   4.296
64050W        W32444  21.356  23.546   4.540
64051W        W32445  12.020  20.725  11.014
64052W        W32446  24.320  30.971   3.612
64053W        W32447  36.588  40.482   3.157
64054W        W32448  16.162  24.471  11.482
64055W        W32449  40.739   6.489  12.630
64056W        W32450  15.288  37.124  11.970
64057W        W32451   3.302  26.149  14.977
64058W        W32452  41.603  39.830   2.070
64059W        W32453  39.555  33.328  13.912
64060W        W32454   1.056  12.128  11.115
64061W        W32455  24.497   0.961   2.746
64062W        W32456   1.414  44.766  11.661
64063W        W32457  35.157  41.603   2.730
64064W        W32458  27.671  44.517   0.016
64065W        W32459  11.913  44.249   4.835
64066W        W32460  19.547  25.640   0.035
64067W        W32461  18.330   2.938   2.747
64068W        W32462  25.472  11.498  13.811
64069W        W32463  12.807  21.634   3.253
64070W        W32464   9.189  14.380  13.989
64071W        W32465   4.705  29.909  13.470
64072W        W32466  23.217   3.700  11.198
64073W        W32467  21.298   7.390   3.312
64074W        W32468  11.613  43.493  10.894
64075W        W32469   4.000  15.178   3.073
64076W        W32470  41.537   7.175   2.847
64077W        W32471  42.857  33.136  14.965
64078W        W32472   7.946  12.712  10.671
64079W        W32473   4.022   2.217  11.037
64080W        W32474   0.685  40.016   1.318
64081W        W32475  28.100  24.179  14.891
64082W        W32476  31.603  22.129  11.595
64083W        W32477  20.756  41.511  13.123
64084W        W32478  34.448  34.467  14.361
64085W        W32479  37.324  16.762  11.154
64086W        W32480   9.638  24.998   3.619
64087W        W32481  23.730  39.383  10.375
64088W        W32482  15.147  25.168   0.807
64089W        W32483   9.058  42.361  11.648
64090W        W32484   4.944   4.242  11.941
64091W        W32485  27.423  12.349  12.411
64092W        W32486  31.314  28.043   5.232
64093W        W32487  36.774  11.360  11.545
64094W        W32488  23.888  44.747   2.329
64095W        W32489   8.275  10.245  14.861
64096W        W32490  38.905  25.893  11.981
64097W        W32491   4.148  20.371  13.023
64098W        W32492  34.922  10.715   2.245
64099W        W32493  11.702   0.393   3.995
64100W        W32494  44.453  34.709  14.581
64101W        W32495  41.723  29.946   1.661
64102W        W32496   6.432  24.056  14.883
64103W        W32497  31.398   9.080   4.175
64104W        W32498   8.726  12.995   2.470
64105W        W32499  26.888   7.317  12.577
64106W        W32500   8.803  43.745  11.274
64107W        W32501  14.583  25.795   1.119
64108W        W32502  33.570  30.699   1.394
64109W        W32503  14.570  33.624   3.675
64110W        W32504  26.660  41.377  11.579
64111W        W32505  30.133  19.713  11.043
64112W        W32506  20.909  31.783   1.268
64113W        W32507  29.532  43.602  11.297
64114W        W32508  32.226  15.833   2.715
64115W        W32509  26.529  37.148  10.454
64116W        W32510  27.590  12.203  11.957
64117W        W32511  31.464  34.953  11.078
64118W        W32512  10.084  21.157  14.376
64119W        W32513  39.439  28.076   2.801
64120W        W32514  39.347  34.947  14.521
64121W        W32515  27.303  24.183  11.055
64122W        W32516  34.073   5.195   2.393
64123W        W32517  38.485  20.674  10.690
64124W        W32518  20.246  16.374   2.377
64125W        W32519   0.474  10.286  13.362
64126W        W32520  22.928   8.719   1.909
64127W        W32521  20.738  41.845   3.142
64128W        W32522  22.228   0.122   4.128
64129W        W32523  18.249  12.039  12.442
64130W        W32524  34.673   8.926   2.002
64131W        W32525   8.419   4.467  13.868
64132W        W32526   7.999   0.936   4.951
64133W        W32527   1.819  34.483   4.565
64134W        W32528  25.035  15.771   0.695
64135W        W32529   2.476  13.654   0.719
64136W        W32530  27.743  11.330  11.176
64137W        W32531  37.405  25.575   4.631
64138W        W32532  33.275  36.975   4.234
64139W        W32533  35.483  34.299   1.318
64140W        W32534  10.817  29.449   4.545
64141W        W32535   9.448  21.067  11.611
64142W        W32536  42.800  30.733   2.802
64143W        W32537   0.450   8.429   1.697
64144W        W32538  37.742   6.470  10.848
64145W        W32539  39.469  40.005  10.712
64146W        W32540  14.266  17.719   3.421
64147W        W32541  35.842   0.868  14.480
64148W        W32542  10.666  37.319  10.567
64149W        W32543  33.155   7.373  12.805
64150W        W32544   9.643  19.721  10.887
64151W        W32545  20.824   6.434   4.239
64152W        W32546   3.051  23.458  11.549
64153W        W32547  32.365   7.729   0.346
64154W        W32548   1.622  23.712  13.003
64155W        W32549  38.162  23.641  10.632
64156W        W32550  41.988  35.900   2.680
64157W        W32551   9.740   8.201  13.471
64158W        W32552  36.655   5.543   1.811
64159W        W32553  34.805  30.110  10.481
64160W        W32554  29.410   3.731  12.518
64161W        W32555  32.695  32.979  12.680
64162W        W32556  11.720   2.925   2.344
64163W        W32557  44.182  39.930  10.636
64164W        W32558   9.879   9.404  13.879
64165W        W32559  40.576  27.583   3.234
64166W        W32560   2.710  44.454  14.435
64167W        W32561   0.678   7.685   0.899
64168W        W32562  29.964  22.201  12.111
64169W        W32563  29.419  27.292  11.188
64170W        W32564   8.424  20.178  14.432
64171W        W32565   5.312  28.477  13.854
64172W        W32566  21.193  40.970   3.148
64173W        W32567  19.794   9.311  12.063
64174W        W32568   7.877   4.744   3.133
64175W        W32569  20.599  43.897  10.733
64176W        W32570  35.098   2.887  13.785
64177W        W32571  18.340   5.789   1.243
64178W        W32572  31.990  41.006   3.675
64179W        W32573  32.132  35.952   2.300
64180W        W32574  38.939   5.182  13.104
64181W        W32575  33.414  25.255   0.554
64182W        W32576  36.832  22.656  10.654
64183W        W32577  21.950  14.298   0.964
64184W        W32578  31.475   6.679   0.614
64185W        W32579  40.930  26.095  12.973
64186W        W32580  30.894  29.693  11.954
64187W        W32581  38.169  29.595   1.276
64188W        W32582   0.793  29.690  12.288
64189W        W32583  37.992   9.203  14.196
64190W        W32584  18.865  44.273   3.117
64191W        W32585  29.561  13.328   2.959
64192W        W32586  26.195  21.075   2.351
64193W        W32587  15.562   2.949  10.914
64194W        W32588  44.303  11.175  10.275
64195W        W32589  36.282   6.024   1.186
64196W        W32590   2.833  32.088   4.110
64197W        W32591   2.608  24.959  12.941
64198W        W32592  34.446  40.343   4.595
64199W        W32593  33.074  33.777  10.502
64200W        W32594  37.161  26.392   4.356
64201W        W32595  26.976  14.810  12.158
64202W        W32596  19.964  37.552   2.313
64203W        W32597  22.675   8.152   4.089
64204W        W32598   1.491  39.325  11.020
64205W        W32599   3.255  33.626   1.666
64206W        W32600  16.251  30.320   3.352
64207W        W32601  17.705   1.605  13.415
64208W        W32602   1.330  22.621   1.666
64209W        W32603  25.441   9.962   4.563
64210W        W32604  29.473  21.469  11.141
64211W        W32605  42.011   9.933  11.406
64212W        W32606  32.618  39.960   0.336
64213W        W32607  22.463  21.610   1.494
64214W        W32608  34.541  28.619  13.003
64215W        W32609  10.154  41.823   2.780
64216W        W32610  16.043   8.562   3.599
64217W        W32611  40.394  36.394  11.519
64218W        W32612   5.119  12.085  11.532
64219W        W32613  33.849  16.207   1.107
64220W        W32614  27.936  17.775   3.746
64221W        W32615   4.546  15.325  13.328
64222W        W32616  26.164  33.225   4.463
64223W        W32617  36.021   4.079   2.888
64224W        W32618   7.442  16.727   0.299
64225W        W32619  29.711  27.211   2.325
64226W        W32620  26.542  30.871   1.877
64227W        W32621  27.820  44.417  11.988
64228W        W32622   2.213   9.654  14.319
64229W        W32623  36.417  31.313   0.690
64230W        W32624  43.938   1.235   2.242
64231W        W32625  19.988  44.753   0.926
64232W        W32626  19.773  30.889   3.743
64233W        W32627  43.478   9.383  14.015
64234W        W32628   0.453  21.035   1.677
64235W        W32629   1.871  34.821   1.646
64236W        W32630   3.995  11.400   1.317
64237W        W32631  32.394  12.595  10.799
64238W        W32632   2.171  40.868  11.003
64239W        W32633  39.550  32.354  14.972
64240W        W32634   7.453   6.193   2.651
64241W        W32635   6.973  18.152  13.368
64242W        W32636  21.686  43.260  10.929
64243W        W32637  30.393  37.023  13.424
64244W        W32638  20.407  30.576  10.077
64245W        W32639  10.212  15.330  13.959
64246W        W32640  34.394  38.081  11.479
64247W        W32641  35.907  11.604   4.499
64248W        W32642  20.278   3.717   2.685
64249W        W32643  25.682   5.401  13.986
64250W        W32644  17.840  35.619  11.097
64251W        W32645  31.854   7.811   3.389
64252W        W32646  19.242  21.134   3.641
64253W        W32647   3.207  21.300  14.363
64254W        W32648  24.915   4.492  10.407
64255W        W32649  25.504  34.492  14.878
64256W        W32650  25.720  23.787   0.216
64257W        W32651  21.231   4.085   0.936
64258W        W32652  20.531  30.246   2.052
64259W        W32653  23.810   7.155   5.162
64260W        W32654  21.653  13.189  14.553
64261W        W32655  42.918  35.640   0.490
64262W        W32656   8.678  34.695  11.547
64263W        W32657   5.411  11.822  13.438
64264W        W32658  26.957  13.032   2.133
64265W        W32659  25.326  16.871  13.888
64266W        W32660  10.147  29.683   1.266
64267W        W32661  16.633  29.952   3.780
64268W        W32662  29.920  15.715   1.341
64269W        W32663   8.917   5.597  11.575
64270W        W32664  18.546  31.916   5.062
64271W        W32665  42.556  44.306   3.635
64272W        W32666  19.474  43.830  14.267
64273W        W32667  25.183  11.909  11.621
64274W        W32668   4.478  34.312  11.047
64275W        W32669  37.443  23.020   1.427
64276W        W32670   8.299  31.404   2.159
64277W        W32671   8.055   7.330  11.521
64278W        W32672  36.997   5.063  11.113
64279W        W32673   8.236  40.455  14.945
64280W        W32674  33.416  31.008   1.777
64281W        W32675   1.281  13.686  12.648
64282W        W32676  26.964  37.082  10.698
64283W        W32677  31.852  28.942   4.600
64284W        W32678  43.541  23.046   0.461
64285W        W32679  22.545   4.591  13.508
64286W        W32680  39.560  16.441   1.220
64287W        W32681  14.662  22.515   1.419
64288W        W32682  30.498  35.342  14.012
64289W        W32683  24.326  17.560   2.094
64290W        W32684  21.173   6.739   2.729
64291W        W32685  42.771  36.912   4.712
64292W        W32686  31.746  16.792   4.031
64293W        W32687  30.352  36.751  11.150
64294W        W32688  36.537   0.945   1.158
64295W        W32689   0.491  42.915  11.212
64296W        W32690  34.269  35.416   2.904
64297W        W32691   3.516  40.759  14.581
64298W        W32692  16.833  43.782  12.972
64299W        W32693   5.401  24.447  12.531
64300W        W32694  30.143  30.261  10.749
64301W        W32695   3.373   0.216   0.910
64302W        W32696   6.691  27.182   1.797
64303W        W32697  17.173  39.078   2.769
64304W        W32698  31.232  31.649  10.144
64305W        W32699  31.824   7.810  11.243
64306W        W32700   5.801  18.308   3.415
64307W        W32701   0.026  40.062   0.691
64308W        W32702  39.460  26.085  13.853
64309W        W32703  18.002  37.227  13.534
64310W        W32704  37.389   1.890  12.512
64311W        W32705  25.083  18.544   2.851
64312W        W32706  36.460  39.787   2.809
64313W        W32707   0.787   3.038   4.651
64314W        W32708  33.332  37.564   2.583
64315W        W32709  37.615  15.757  12.507
64316W        W32710   3.461  41.671   3.263
64317W        W32711  26.914  35.947  13.431
64318W        W32712  14.697  37.622   4.094
64319W        W32713   0.465   0.479  13.001
64320W        W32714  44.329  21.768  10.675
64321W        W32715  21.250   9.309  13.227
64322W        W32716  33.398  32.937   4.570
64323W        W32717  37.386  37.789  14.702
64324W        W32718  35.436  26.800   0.345
64325W        W32719  41.040  14.946   2.526
64326W        W32720   9.615  32.608  10.766
64327W        W32721  18.599  12.537   3.289
64328W        W32722  15.163  32.041   3.445
64329W        W32723  13.086   0.732  13.813
64330W        W32724  18.463  41.539  13.950
64331W        W32725  24.556   4.978  12.561
64332W        W32726  35.445   6.444   4.749
64333W        W32727  25.930  38.672   2.696
64334W        W32728  24.863  23.199  12.050
64335W        W32729   6.336  10.854   2.401
64336W        W32730  10.683  24.581   2.734
64337W        W32731  11.740  28.197   0.749
64338W        W32732  22.975  11.657  12.047
64339W        W32733  22.979  21.357  12.962
64340W        W32734  37.958  35.626   2.188
64341W        W32735  21.189  30.644  11.181
64342W        W32736  28.979  39.924  12.903
64343W        W32737   9.271  10.587  14.951
64344W        W32738   8.248   6.400   4.118
64345W        W32739  18.320  32.488   3.730
64346W        W32740  34.632  24.285  10.664
64347W        W32741   4.286  14.286   2.330
64348W        W32742  23.900  14.351   4.177
64349W        W32743  26.387  18.293  12.073
64350W        W32744  10.410  15.141   1.278
64351W        W32745  25.247  18.307   4.979
64352W        W32746  19.426   8.351   4.475
64353W        W32747   6.731  12.210   4.643
64354W        W32748  44.362  25.191   0.806
64355W        W32749  42.406   4.231  10.528
64356W        W32750  44.407  27.970  13.158
64357W        W32751   5.689  16.771  11.544
64358W        W32752  29.564  17.004  13.728
64359W        W32753  21.658   8.236  13.140
64360W        W32754   8.695  43.240  11.308
64361W        W32755   8.006   1.021  13.954
64362W        W32756   5.304  39.801  12.007
64363W        W32757  42.220  34.441   1.508
64364W        W32758  37.563  44.715  14.923
64365W        W32759  14.366  15.911   5.074
64366W        W32760   2.267  12.855   3.686
64367W        W32761  30.383  29.169   3.136
64368W        W32762  30.233  26.759  12.975
64369W        W32763  32.251   3.426   4.668
64370W        W32764  14.359  31.566  14.551
64371W        W32765  35.219  21.293  11.964
64372W        W32766  37.167  34.630   1.207
64373W        W32767   9.210  17.479  12.464
64374W        W32768  38.638  16.127  13.089
64375W        W32769  31.981  43.910  14.395
64376W        W32770   5.184  34.894  12.085
64377W        W32771  18.740   0.477  11.607
64378W        W32772  18.775  43.878   1.951
64379W        W32773  41.582  19.597  13.521
64380W        W32774   3.038  38.721  10.285
64381W        W32775  15.600  17.667  13.590
64382W        W32776   1.403   9.772   3.513
64383W        W32777  39.048  37.979  10.621
64384W        W32778  11.901  21.192   2.424
64385W        W32779  14.621  36.617   4.785
64386W        W32780  22.819  28.401  13.327
64387W        W32781  26.382  26.625   3.179
64388W        W32782  32.672  35.927  12.692
64389W        W32783  12.204  14.999   4.439
64390W        W32784  35.661   6.910  12.587
64391W        W32785  29.762   0.074  11.288
64392W        W32786  37.375   7.836   5.437
64393W        W32787  10.167  15.652   2.164
64394W        W32788  25.154  30.155  11.478
64395W        W32789  31.110   6.112  11.612
64396W        W32790  20.069  19.277   3.344
64397W        W32791   8.454  37.062   4.993
64398W        W32792  26.906  35.843  11.118
64399W        W32793   7.658  40.310  12.768
64400W        W32794  11.684  24.286  11.621
64401W        W32795  30.001  18.643  12.424
64402W        W32796  20.457  33.180   4.611
64403W        W32797  25.263  12.258   2.937
64404W        W32798  25.479  39.732   0.246
64405W        W32799  29.374  24.179   2.721
64406W        W32800  32.218   7.732   1.837
64407W        W32801  43.037  34.842   0.381
64408W        W32802  16.805  33.554  12.509
64409W        W32803  36.352   5.788  13.058
64410W        W32804   3.758  39.581   1.060
64411W        W32805  43.728  18.739  12.064
64412W        W32806  24.897  30.646  14.805
64413W        W32807  44.123  25.605  11.608
64414W        W32808  16.115  39.158  13.052
64415W        W32809   8.307  15.287  12.276
64416W        W32810  39.008  12.388  10.552
64417W        W32811  26.049  17.181   0.794
64418W        W32812  42.106  43.644   0.918
64419W        W32813  32.980  36.340   3.810
64420W        W32814  30.803  21.858  14.707
64421W        W32815  16.112  27.066   0.959
64422W        W32816  41.382  42.815  14.337
64423W        W32817   1.492  24.184  12.896
64424W        W32818  29.921   9.590  10.751
64425W        W32819  12.382   4.248  14.406
64426W        W32820  15.609  25.268  10.844
64427W        W32821  30.209   4.784   1.832
64428W        W32822  30.905   4.030   4.808
64429W        W32823  19.810   3.215   5.177
64430W        W32824   9.565  38.621  12.383
64431W        W32825  19.616   8.681   2.231
64432W        W32826  23.250  10.549  13.291
64433W        W32827  25.762  39.646  11.205
64434W        W32828  16.342  20.725  12.474
64435W        W32829  32.657  12.204   4.286
64436W        W32830  28.019  27.152  11.916
64437W        W32831  39.521   9.960   2.673
64438W        W32832   2.220  34.493   4.000
64439W        W32833  24.188  19.310   3.652
64440W        W32834  31.090  32.137   0.344
64441W        W32835   1.972  11.836   1.375
64442W        W32836  12.118  36.549  12.857
64443W        W32837   4.372  25.994   0.824
64444W        W32838  40.868   8.131  14.094
64445W        W32839  28.919   0.593  13.456
64446W        W32840  27.471   5.829   4.381
64447W        W32841  39.705  10.600   2.754
64448W        W32842  29.282  18.551  11.125
64449W        W32843   6.628  31.177  13.953
64450W        W32844  20.038  14.068   1.782
64451W        W32845  34.019  12.585  12.818
64452W        W32846  37.028  27.250  12.908
64453W        W32847  38.408  42.526   0.054
64454W        W32848  36.785  18.132  11.543
64455W        W32849  43.265  41.217  12.884
64456W        W32850  20.554   1.061  14.443
64457W        W32851   2.552  26.379   4.064
64458W        W32852  19.987  34.864  13.596
64459W        W32853  19.323   1.966   1.884
64460W        W32854  34.825  21.892  12.504
64461W        W32855  36.159   5.517   1.291
64462W        W32856  31.933  18.658   1.641
64463W        W32857  26.703  17.755   0.181
64464W        W32858  38.080  32.050   0.280
64465W        W32859  24.230  36.803  12.942
64466W        W32860   8.584  21.995  14.586
64467W        W32861  19.698   3.228  11.722
64468W        W32862  27.876  28.547  13.714
64469W        W32863   5.383  26.462   4.526
64470W        W32864  21.472  14.136   3.770
64471W        W32865  16.417  11.086   2.733
64472W        W32866  23.074   3.096   3.194
64473W        W32867  40.953   1.295  12.590
64474W        W32868  42.389  18.767  13.927
64475W        W32869  19.432  23.360   2.628
64476W        W32870  25.626  33.206   0.254
64477W        W32871  22.683  26.675   4.195
64478W        W32872  42.217   0.272   1.968
64479W        W32873  30.056  11.862   3.690
64480W        W32874  37.131   7.282  11.139
64481W        W32875   4.809   8.111   0.325
64482W        W32876  43.340  27.160  12.151
64483W        W32877  19.679   3.250  12.638
64484W        W32878  13.859  12.297   4.096
64485W        W32879  34.610  39.963   2.453
64486W        W32880  22.607   3.667   1.735
64487W        W32881   9.865   1.335  11.486
64488W        W32882  29.114  22.258  14.631
64489W        W32883   0.141  10.167   4.486
64490W        W32884  28.960  21.649  10.398
64491W        W32885  18.226  23.512  12.483
64492W        W32886  31.317   6.270   3.207
64493W        W32887  25.538  35.994   1.480
64494W        W32888   4.156  13.464   0.390
64495W        W32889   7.753   1.307   0.497
64496W        W32890   6.986   3.332   4.066
64497W        W32891  29.912  17.535   0.887
64498W        W32892  33.441  14.375  13.233
64499W        W32893  40.463  42.423   0.244
64500W        W32894  35.886  20.811  14.312
64501W        W32895   9.733  15.041   2.616
64502W        W32896  23.047  21.989  14.766
64503W        W32897   9.627  20.773  13.345
64504W        W32898  41.220  21.015   0.320
64505W        W32899  30.377  20.921   1.431
64506W        W32900  18.301  37.395  12.573
64507W        W32901   3.481   2.242  12.475
64508W        W32902  11.640  30.101   0.855
64509W        W32903  35.876   0.110   1.484
64510W        W32904  21.249  24.660   1.836
64511W        W32905  36.864  37.917  12.968
64512W        W32906   5.069  27.106  10.743
64513W        W32907  33.551  43.312  12.914
64514W        W32908  34.908   0.452   1.289
64515W        W32909   5.404   4.436  14.969
64516W        W32910   6.420  21.176  13.776
64517W        W32911  31.534  24.435  14.309
64518W        W32912   8.149   8.361   2.273
64519W        W32913  34.699  21.353  13.141
64520W        W32914  40.829  16.211   1.857
64521W        W32915   0.500  28.447  13.650
64522W        W32916  23.247  12.611   1.333
64523W        W32917  41.911  34.372  12.610
64524W        W32918  36.795   1.324   2.348
64525W        W32919  42.353  12.769   1.846
64526W        W32920  12.260  32.589   1.162
64527W        W32921  24.170  40.951   4.537
64528W        W32922  14.802  42.842  10.910
64529W        W32923  29.181  37.390  14.963
64530W        W32924  12.219  42.242  14.283
64531W        W32925  34.564  36.160  12.534
64532W        W32926  12.655  33.403   4.699
64533W        W32927  37.558  14.984   3.694
64534W        W32928  36.627  26.412  11.980
64535W        W32929   0.411  35.305   4.398
64536W        W32930  21.544  44.306   4.474
64537W        W32931  11.869  31.478   3.687
64538W        W32932  41.884  17.609  11.913
64539W        W32933  24.544  36.396   2.834
64540W        W32934  36.918  19.335   3.204
64541W        W32935  13.245  29.970  10.584
64542W        W32936   0.839   7.872   4.752
64543W        W32937  22.996  35.546  14.891
64544W        W32938  44.267   4.403   2.264
64545W        W32939   1.393  29.460  13.945
64546W        W32940  26.061  35.938   1.743
64547W        W32941  30.959  31.521  13.662
64548W        W32942   0.197  29.740  11.169
64549W        W32943  31.314  13.752   0.001
64550W        W32944  33.527  14.063   1.758
64551W        W32945  17.231  40.413   2.316
64552W        W32946  17.570  34.014  14.239
64553W        W32947  31.224  40.611  11.985
64554W        W32948  39.259  31.415   1.271
64555W        W32949   1.321   6.726  11.468
64556W        W32950  11.332  22.054   0.044
64557W        W32951  40.495  10.599  13.596
64558W        W32952   3.286  32.531   3.752
64559W        W32953   6.439   7.200   0.903
64560W        W32954  23.480   4.174   1.579
64561W        W32955  33.995  37.050  13.315
64562W        W32956  21.462  42.893   3.861
64563W        W32957  32.144   5.386   0.860
64564W        W32958  43.347   8.965  13.737
64565W        W32959  23.749  42.427   4.853
64566W        W32960   5.982  26.993   4.203
64567W        W32961   4.373  37.805   4.946
64568W        W32962   3.508  42.510  11.596
64569W        W32963  28.470  14.770   4.051
64570W        W32964  42.702  33.899  12.966
64571W        W32965  15.331  17.736  11.196
64572W        W32966  40.466  30.382   1.346
64573W        W32967   5.395  21.475   2.718
64574W        W32968   3.018   5.152  13.374
64575W        W32969  15.933  20.095  13.100
64576W        W32970   0.596  16.840   1.796
64577W        W32971  39.054  42.595  14.276
64578W        W32972  31.179  39.915   1.493
64579W        W32973  39.632   0.104   2.669
64580W        W32974  10.175  33.976  12.865
64581W        W32975   6.234  30.813  10.595
64582W        W32976  31.910  37.344   3.728
64583W        W32977  21.683  26.122   0.250
64584W        W32978   4.051  41.028  13.914
64585W        W32979  10.292   2.619   2.219
64586W        W32980  23.209  32.866  11.877
64587W        W32981  30.841   2.097   1.543
64588W        W32982  26.540  10.815   0.982
64589W        W32983  38.010  31.823  11.936
64590W        W32984  17.684  34.880   3.739
64591W        W32985  19.038  19.958   2.650
64592W        W32986  14.019  38.085  14.858
64593W        W32987  37.327  22.916   4.110
64594W        W32988  18.639   5.419  11.112
64595W        W32989  36.933  15.456   4.544
64596W        W32990  43.013  28.209  10.708
64597W        W32991  33.052  11.749  12.907
64598W        W32992   0.887  41.519   0.426
64599W        W32993  13.575  28.950   4.022
64600W        W32994  12.844  18.461  11.080
64601W        W32995   8.298  39.791   4.751
64602W        W32996  13.335  31.336  14.379
64603W        W32997  37.840  40.590   2.288
64604W        W32998  36.856  16.999  11.074
64605W        W32999  13.170  27.169   2.282
64606W        W33000  14.255  18.111   2.620
64607W        W33001  30.807   4.340  12.426
64608W        W33002  32.597  18.837   0.351
64609W        W33003  43.689  22.458  13.117
64610W        W33004  43.782  37.944   1.494
64611W        W33005   0.536  30.058   3.241
64612W        W33006  32.530  28.936   2.169
64613W        W33007  36.468  13.178  11.946
64614W        W33008  19.834  26.068   4.083
64615W        W33009  21.780   4.775   0.193
64616W        W33010  22.975   9.032  13.215
64617W        W33011  43.254  26.356   1.885
64618W        W33012  36.126  24.146  11.820
64619W        W33013  18.532  35.039  13.044
64620W        W33014  20.836  21.030   5.017
64621W        W33015  34.639  35.718  11.623
64622W        W33016  30.444  29.176   4.546
64623W        W33017  24.645   4.867  10.637
64624W        W33018  10.632  38.197   3.639
64625W        W33019  17.782  22.489  10.701
64626W        W33020  11.158   5.380  12.623
64627W        W33021  13.599  33.541  11.556
64628W        W33022  26.690  15.727  10.410
64629W        W33023  36.470  35.152  13.597
64630W        W33024  17.981   4.365   0.212
64631W        W33025  21.860  33.084   3.417
64632W        W33026  24.224  37.561   3.749
64633W        W33027  26.632   2.698  13.985
64634W        W33028  22.176  41.035  11.373
64635W        W33029   0.630   3.148   4.153
64636W        W33030   6.198   9.721   2.994
64637W        W33031  18.083  19.244  10.138
64638W        W33032   9.292  24.379   1.454
64639W        W33033  17.125  20.282   2.801
64640W        W33034  32.979  26.226  14.489
64641W        W33035  25.020  32.657   3.763
64642W        W33036  25.252  23.064  13.896
64643W        W33037  33.494   6.154   0.850
64644W        W33038  27.455  21.447   0.435
64645W        W33039  10.391  39.079  12.967
64646W        W33040  25.127  11.798   0.874
64647W        W33041   5.784  24.662   1.812
64648W        W33042   4.775  42.929  13.830
64649W        W33043  23.720   9.146  11.208
64650W        W33044  17.507   2.253   1.797
64651W        W33045  23.486  37.015  14.940
64652W        W33046  23.052  23.161  10.421
64653W        W33047  25.376  18.207  13.398
64654W        W33048  24.350  26.977   3.582
64655W        W33049  40.773   8.354   3.121
64656W        W33050  32.455  35.596   2.625
64657W        W33051  11.073  11.574   2.306
64658W        W33052   0.861   5.294  13.124
64659W        W33053   5.907  37.299  10.735
64660W        W33054   5.233  23.896  11.517
64661W        W33055   3.608  36.263   2.336
64662W        W33056  20.813  37.096  14.187
64663W        W33057  36.457  12.505   0.469
64664W        W33058   5.724  36.651  12.995
64665W        W33059  37.661   9.811   4.636
64666W        W33060  38.339  29.604   2.729
64667W        W33061  12.382  25.626  14.546
64668W        W33062  43.978  21.122  11.977
64669W        W33063   7.824  24.231   0.472
64670W        W33064  14.947  38.971   2.215
64671W        W33065  34.111   9.830  13.593
64672W        W33066  16.257  23.840  10.739
64673W        W33067  26.523   6.148  13.910
64674W        W33068  13.108  43.735  12.070
64675W        W33069  30.952  44.470   4.663
64676W        W33070   5.538  34.123  13.028
64677W        W33071  43.769  27.558   0.765
64678W        W33072   9.397  34.386   2.942
64679W        W33073  40.751   5.745   0.245
64680W        W33074  42.581   8.381   0.385
64681W        W33075  16.569  19.123   3.214
64682W        W33076  10.157  12.661   4.342
64683W        W33077  38.546  36.156  12.160
64684W        W33078  33.566   4.609   0.756
64685W        W33079  28.690  41.244  14.168
64686W        W33080   7.174  35.789  11.668
64687W        W33081  30.566  17.256  13.079
64688W        W33082  32.341  41.339  13.532
64689W        W33083  44.737   1.176  11.548
64690W        W33084  34.573   9.552   1.401
64691W        W33085  42.091  37.548  11.602
64692W        W33086  25.518  10.176  12.893
64693W        W33087  14.751  11.301  10.593
64694W        W33088   0.463  20.508   1.638
64695W        W33089   7.413  38.970  13.082
64696W        W33090   0.893   3.389   5.013
64697W        W33091  14.501  17.705   4.400
64698W        W33092   7.857  28.823  10.727
64699W        W33093  37.246  31.514   4.813
64700W        W33094  12.731  15.563  14.221
64701W        W33095  19.734  21.387  13.522
64702W        W33096  26.986   1.544  10.119
64703W        W33097  21.712  12.283  10.172
64704W        W33098  33.710  18.577   3.036
64705W        W33099  41.171  29.954   1.614
64706W        W33100  25.972  20.174  13.375
64707W        W33101  39.978  30.127  13.449
64708W        W33102  28.281  19.395  11.584
64709W        W33103  17.983  25.141   0.809
64710W        W33104  34.855  36.937   4.205
64711W        W33105  24.200  36.484  10.719
64712W        W33106  20.016  31.454   2.754
64713W        W33107   0.705  12.535  14.850
64714W        W33108   8.077  14.423  12.465
64715W        W33109   2.816  44.498   4.115
64716W        W33110  19.202  12.350  14.801
64717W        W33111  30.120  27.184  14.940
64718W        W33112  16.907  26.452   3.049
64719W        W33113  42.112  31.038  12.067
64720W        W33114  22.130   0.976   3.100
64721W        W33115  33.642   4.311   2.853
64722W        W33116  20.582  41.988  14.238
64723W        W33117  33.750  15.593   1.689
64724W        W33118  30.026  33.855   2.251
64725W        W33119  14.113  35.806   3.304
64726W        W33120  10.019   6.897   0.115
64727W        W33121  32.480  16.466  11.843
64728W        W33122  39.424  22.150   0.906
64729W        W33123  32.504  33.089   0.240
64730W        W33124  27.961   5.667  10.442
64731W        W33125   4.738  12.144  13.052
64732W        W33126  23.922   4.144   4.082
64733W        W33127  44.326  25.107  10.673
64734W        W33128   5.724  36.455  14.735
64735W        W33129  27.326  21.298   0.914
64736W        W33130  35.295   5.251  11.986
64737W        W33131  11.019  21.680  10.960
64738W        W33132  22.231  38.883  12.468
64739W        W33133  10.637  36.377   4.652
64740W        W33134  25.140  15.675   1.239
64741W        W33135  41.888  23.038   3.615
64742W        W33136  25.544   3.291   9.995
64743W        W33137  22.033  18.216   3.166
64744W        W33138  24.221  37.451  10.447
64745W        W33139  18.929   8.245  11.585
64746W        W33140  23.454  13.606  10.795
64747W        W33141   9.819  17.861   0.034
64748W        W33142  39.464  34.156  11.055
64749W        W33143  29.947  18.901  13.070
64750W        W33144   7.457  22.710  11.549
64751W        W33145  10.145  38.441   0.876
64752W        W33146   7.782  38.171  14.925
64753W        W33147   8.744  21.242   0.965
64754W        W33148   0.070  15.337  12.518
64755W        W33149  20.083   2.514   4.738
64756W        W33150  30.854  27.972   3.360
64757W        W33151  40.460   8.431  12.499
64758W        W33152  24.380  14.318   5.084
64759W        W33153  14.793  23.362   3.577
64760W        W33154  19.220  43.824   3.801
64761W        W33155  35.472  27.620  12.190
64762W        W33156  26.709  35.513   1.769
64763W        W33157  38.549  37.471  11.117
64764W        W33158   6.854  19.048   2.840
64765W        W33159   1.833   6.776   3.612
64766W        W33160  34.141   6.000   4.128
64767W        W33161  20.758  16.492  12.048
64768W        W33162  30.593   5.876   2.291
64769W        W33163  31.080  31.578  10.657
64770W        W33164  27.578  17.627  10.735
64771W        W33165   1.208  16.320   4.755
64772W        W33166   1.225  26.606  11.325
64773W        W33167   2.447  37.531  14.050
64774W        W33168   9.188  18.187   0.424
64775W        W33169  29.199   1.031  13.502
64776W        W33170  33.929   3.490  14.284
64777W        W33171  15.281  18.189  12.826
64778W        W33172  43.879  26.366  12.534
64779W        W33173  31.805  34.084  12.935
64780W        W33174  44.442  26.964   0.730
64781W        W33175  41.930  36.092  14.390
64782W        W33176   0.232   9.689   4.269
64783W        W33177  21.651   9.816  13.381
64784W        W33178  43.060  11.159   3.858
64785W        W33179  24.039   5.262   0.612
64786W        W33180  34.337  40.426  11.594
64787W        W33181  18.167  18.973  11.022
64788W        W33182  24.588  41.868   1.163
64789W        W33183  22.250  31.261  12.976
64790W        W33184  27.256  14.027  12.240
64791W        W33185   7.961  30.585  10.834
64792W        W33186   9.492   6.680   4.365
64793W        W33187  44.735   3.919  14.403
64794W        W33188  44.837  34.050  10.738
64795W        W33189   4.026   9.799   2.396
64796W        W33190  11.426  33.497   1.794
64797W        W33191  32.985   6.442  11.881
64798W        W33192  37.742  11.825  11.995
64799W        W33193  16.345  31.032  11.055
64800W        W33194   2.296  17.819  11.958
64801W        W33195  35.115  44.401  13.900
64802W        W33196  20.485  14.804   4.579
64803W        W33197   8.438  10.263   0.377
64804W        W33198  31.459  33.416   2.158
64805W        W33199  25.184   1.679  10.572
64806W        W33200   6.385  27.229   5.482
64807W        W33201   8.964   0.208   0.767
64808W        W33202  17.711   9.108   1.739
64809W        W33203  23.389  38.849   3.096
64810W        W33204  33.840  44.463  13.369
64811W        W33205  13.655  17.815  11.411
64812W        W33206  33.500   5.626   0.829
64813W        W33207  20.217  29.155   0.556
64814W        W33208  23.529  17.552  11.044
64815W        W33209  40.185  25.199  14.575
64816W        W33210   7.848   4.903  10.140
64817W        W33211  10.757  27.325   3.168
64818W        W33212  21.267   7.977   0.770
64819W        W33213  12.146  26.521  14.368
64820W        W33214  22.104  43.181  13.544
64821W        W33215  27.514  31.827  11.110
64822W        W33216  23.221   5.429   2.094
64823W        W33217  13.386  10.841  11.137
64824W        W33218  39.369  24.966  14.517
64825W        W33219  27.672   8.103   0.189
64826W        W33220  23.449  35.646   2.563
64827W        W33221   1.863  25.115   1.209
64828W        W33222   4.768  13.751   2.892
64829W        W33223  22.254  19.575   1.740
64830W        W33224  34.051   9.828   1.392
64831W        W33225  34.960  15.993  12.889
64832W        W33226  33.495  25.645  13.145
64833W        W33227  33.995  26.486   3.862
64834W        W33228  43.007  25.339  13.998
64835W        W33229  44.832  11.602   2.991
64836W        W33230  10.459  42.830  11.127
64837W        W33231  14.601  18.225  14.760
64838W        W33232   1.315  12.627  10.295
64839W        W33233   0.873   1.780   4.163
64840W        W33234   4.422  25.517   1.311
64841W        W33235  17.289  17.031   0.748
64842W        W33236   5.206  16.885   0.218
64843W        W33237   4.779  15.795  11.210
64844W        W33238   6.918   5.700  12.446
64845W        W33239   3.741  13.856   0.256
64846W        W33240  24.745  42.447   3.701
64847W        W33241  38.536  14.624  10.615
64848W        W33242   7.766   1.496  10.720
64849W        W33243   8.273  40.978   2.677
64850W        W33244   2.954  28.735  11.078
64851W        W33245  13.686   2.773   4.938
64852W        W33246  26.281  18.908  12.935
64853W        W33247   4.704  11.133  12.154
64854W        W33248   3.522  36.482  14.254
64855W        W33249  24.757   0.065   4.221
64856W        W33250  26.340   5.249   3.154
64857W        W33251  37.940  27.649  11.914
64858W        W33252   0.467  41.797   4.861
64859W        W33253  35.486  41.901   3.169
64860W        W33254  14.907  44.789  11.756
64861W        W33255   9.692  23.065   4.976
64862W        W33256  11.573  19.247   3.680
64863W        W33257  37.048   3.933   4.667
64864W        W33258  25.963  24.101  12.106
64865W        W33259  30.607  12.615   4.032
64866W        W33260  34.961  11.963   1.830
64867W        W33261  11.570  42.556  12.964
64868W        W33262  18.777  39.861   0.503
64869W        W33263   9.621   7.941   2.319
64870W        W33264  42.743  34.989  13.953
64871W        W33265   3.263  16.634   4.148
64872W        W33266  22.490  26.565   3.597
64873W        W33267  31.841  35.910  13.110
64874W        W33268  15.013  28.538  13.607
64875W        W33269   6.923  32.440  13.847
64876W        W33270  41.925  16.565   1.461
64877W        W33271  30.659  28.194  13.793
64878W        W33272  41.314   9.397  11.779
64879W        W33273   0.918  20.717   1.676
64880W        W33274   2.779   2.872  11.184
64881W        W33275  38.744   2.415   2.737
64882W        W33276  34.583  24.720  12.229
64883W        W33277   4.392  18.049  10.492
64884W        W33278  33.445  25.074  11.991
64885W        W33279   2.937  38.841   0.801
64886W        W33280   4.192  12.497  14.458
64887W        W33281   4.094   7.854  11.619
64888W        W33282  24.436  16.691   3.538
64889W        W33283  39.901  44.941   4.351
64890W        W33284   9.624  16.238   1.707
64891W        W33285  13.111   7.726  12.710
64892W        W33286  16.130  38.310  14.295
64893W        W33287  20.765  12.375  11.058
64894W        W33288  15.072  30.402  13.386
64895W        W33289  31.460  39.927  13.330
64896W        W33290  19.104  32.484   4.903
64897W        W33291  19.284   4.731  14.264
64898W        W33292  20.545  30.634   0.890
64899W        W33293  44.199   1.920  13.481
64900W        W33294  17.196  18.021  13.782
64901W        W33295  15.896  39.765   2.602
64902W        W33296  20.644  31.018   4.857
64903W        W33297  22.067  32.147   2.769
64904W        W33298   6.357  13.258   3.249
64905W        W33299  19.978  26.321  12.390
64906W        W33300  18.534  44.601   3.330
64907W        W33301  22.613  36.014  11.641
64908W        W33302   9.622  17.391   4.215
64909W        W33303  38.477   0.549  12.000
64910W        W33304   2.515   0.697  12.075
64911W        W33305  10.859  24.658   0.016
64912W        W33306  23.195  28.580  12.340
64913W        W33307  27.549  40.830   4.534
64914W        W33308  22.415   8.559   1.143
64915W        W33309  38.126  34.742  13.516
64916W        W33310  37.314   9.755   4.237
64917W        W33311  40.472  10.428   3.133
64918W        W33312  39.576   6.940   0.872
64919W        W33313  20.371  19.124   4.894
64920W        W33314  34.032  15.901   4.743
64921W        W33315  22.481  30.133  14.467
64922W        W33316  31.035  37.660  14.714
64923W        W33317  40.545  32.523  13.564
64924W        W33318   7.834  11.218  10.555
64925W        W33319   0.534  28.992  13.512
64926W        W33320   0.691  33.254   9.946
64927W        W33321  36.780   2.882   1.649
64928W        W33322   2.433  19.771  11.973
64929W        W33323   1.471   8.876   3.139
64930W        W33324  18.524  22.476  12.035
64931W        W33325  39.591  16.326   0.305
64932W        W33326  27.888  25.510  11.832
64933W        W33327  24.136  10.233   2.820
64934W        W33328  13.175   0.767   3.295
64935W        W33329   1.337  35.344  14.483
64936W        W33330   5.372   3.891   1.757
64937W        W33331   5.750  35.912  14.571
64938W        W33332  44.378  27.271  11.033
64939W        W33333  35.218  13.909   3.558
64940W        W33334   1.950   1.837   1.857
64941W        W33335  20.753  33.362  12.449
64942W        W33336  21.161  23.231   1.607
64943W        W33337  21.579  36.537   3.859
64944W        W33338  22.281  34.449  11.611
64945W        W33339   4.924   4.475  12.378
64946W        W33340  38.647  26.412   4.193
64947W        W33341  21.668  33.987  13.807
64948W        W33342   0.921  18.298  11.166
64949W        W33343  10.850  22.573  13.450
64950W        W33344  23.594  20.214  14.570
64951W        W33345  25.258  14.403  13.028
64952W        W33346  25.380  27.209   1.203
64953W        W33347  21.656   9.750  11.959
64954W        W33348   6.169   7.986   0.420
64955W        W33349  38.051  25.650   3.810
64956W        W33350  38.337  35.047   1.736
64957W        W33351  21.981  35.077   2.770
64958W        W33352   2.896  41.970  12.019
64959W        W33353   6.289  30.416  13.920
64960W        W33354  40.882  44.630  10.732
64961W        W33355  36.052   8.396   2.557
64962W        W33356  12.209   0.985  12.018
64963W        W33357   9.168  28.728   4.007
64964W        W33358   2.097   3.974   0.983
64965W        W33359   3.775  31.313   1.289
64966W        W33360  16.823   9.353   0.900
64967W        W33361  25.402  41.980  13.288
64968W        W33362  14.588  14.158   0.948
64969W        W33363  26.653  24.083  14.568
64970W        W33364  30.722   0.968  11.223
64971W        W33365  24.489  39.323   4.159
64972W        W33366  17.592  33.635   2.985
64973W        W33367  34.565  27.184  10.814
64974W        W33368  16.756  16.024   3.339
64975W        W33369  29.645  22.035   3.790
64976W        W33370   6.964  18.609  12.816
64977W        W33371   9.858  32.087   3.646
64978W        W33372  38.558  30.384   1.382
64979W        W33373  11.335  35.995  10.658
64980W        W33374   7.610  43.770   0.887
64981W        W33375  20.762  35.497  13.292
64982W        W33376   3.842  43.405  13.893
64983W        W33377  40.513  11.901  14.094
64984W        W33378  26.433  14.324   3.695
64985W        W33379  20.672   0.071   1.352
64986W        W33380   8.700  26.688   4.636
64987W        W33381  24.391   4.585  10.300
64988W        W33382   0.193  37.498  14.158
64989W        W33383  44.248  30.084   2.823
64990W        W33384   6.880  14.669  10.295
64991W        W33385  31.197  30.656   0.304
64992W        W33386  17.771  27.720  11.054
64993W        W33387  41.359   9.846  12.045
64994W        W33388  43.336  41.908  12.476
64995W        W33389  14.319  13.433   2.996
64996W        W33390  30.463  12.351  14.060
64997W        W33391  19.109   1.333  11.160
64998W        W33392   4.467  15.600   4.089
64999W        W33393  44.868  26.727  13.549
65000W        W33394  42.485  14.854   0.328
65001W        W33395  18.533  15.205  12.804
65002W        W33396   6.971  19.722   3.130
65003W        W33397  20.680  18.193  13.453
65004W        W33398  18.354  29.507  10.683
65005W        W33399  36.942  15.616   2.708
65006W        W33400   4.917  14.386  14.727
65007W        W33401  34.874  36.621  13.432
65008W        W33402  11.066  32.190  10.861
65009W        W33403  21.152  29.918   3.664
65010W        W33404  19.358  18.164   1.634
65011W        W33405   8.316  22.844   1.446
65012W        W33406   3.302  34.996   1.745
65013W        W33407  16.741  16.348  10.706
65014W        W33408  26.696  33.571   3.689
65015W        W33409   3.076  13.063   4.613
65016W        W33410  10.291  43.933   2.912
65017W        W33411  42.308  22.843   1.616
65018W        W33412   6.467  43.511  14.502
65019W        W33413  32.542  14.592   2.665
65020W        W33414  21.623   5.724   1.827
65021W        W33415   6.810   7.918  14.812
65022W        W33416   9.499  28.073   0.374
65023W        W33417  11.547  24.377   2.266
65024W        W33418   6.760  38.045  10.921
65025W        W33419  23.247   2.425  13.856
65026W        W33420  27.573   8.762  13.875
65027W        W33421   4.854  38.362   0.285
65028W        W33422  22.083  10.202   2.583
65029W        W33423  18.513  16.267  11.695
65030W        W33424   0.872  21.060   5.066
65031W        W33425  11.618  29.203  12.873
65032W        W33426  18.789  19.272  13.983
65033W        W33427  28.266  38.006   3.119
65034W        W33428   3.432   0.028   1.812
65035W        W33429  25.180  18.732   3.727
65036W        W33430  40.483  33.000  14.345
65037W        W33431   0.346  20.881   2.148
65038W        W33432  17.015  27.536  14.897
65039W        W33433  20.548  32.580   2.626
65040W        W33434   4.015  17.376  11.029
65041W        W33435  43.905  25.402   0.929
65042W        W33436  11.514  36.589  10.675
65043W        W33437  33.147   0.204   2.332
65044W        W33438  43.818   4.619  13.893
65045W        W33439   4.215  33.895   0.642
65046W        W33440   8.016  14.311   3.155
65047W        W33441  32.808  38.388   2.837
65048W        W33442  30.976  22.683  13.016
65049W        W33443  10.958  11.050   2.394
65050W        W33444   8.319  34.571  12.853
65051W        W33445  28.541   7.323  12.983
65052W        W33446   4.702  15.710   3.237
65053W        W33447  41.869  40.094   0.631
65054W        W33448  24.562  24.292   2.346
65055W        W33449  30.079   6.811  13.924
65056W        W33450  34.505  14.301  11.186
65057W        W33451   8.390  29.376  12.416
65058W        W33452  32.700  35.312   1.327
65059W        W33453  16.096  13.606   2.875
65060W        W33454  14.833  33.737  11.868
65061W        W33455   2.409   9.085   4.217
65062W        W33456   9.717  26.266  12.335
65063W        W33457   5.709  36.307  10.389
65064W        W33458  29.370  14.636   3.667
65065W        W33459   6.108   1.555   5.051
65066W        W33460  38.790  17.205   4.625
65067W        W33461  31.197  38.303   4.566
65068W        W33462  41.565  13.639   1.155
65069W        W33463  30.686  29.361   3.888
65070W        W33464  18.464  14.111  11.575
65071W        W33465  17.745  38.940   3.490
65072W        W33466  12.179  25.708   0.024
65073W        W33467  22.781  24.263  12.598
65074W        W33468  20.222  23.684  11.634
65075W        W33469  42.984  12.030  13.366
65076W        W33470  26.432  11.771  13.465
65077W        W33471   6.459  36.120   0.165
65078W        W33472  25.639  12.072   2.333
65079W        W33473  11.765  31.720   4.539
65080W        W33474  26.549   7.329  14.291
65081W        W33475  34.924  41.649  11.988
65082W        W33476  16.303  27.747  11.907
65083W        W33477  21.161   1.951  11.127
65084W        W33478   8.783  10.910   4.149
65085W        W33479  20.670  33.924   1.678
65086W        W33480   4.371  31.973   4.970
65087W        W33481   0.992   5.861   1.398
65088W        W33482  17.814  44.990   2.752
65089W        W33483  25.886  16.610  13.037
65090W        W33484   5.676  26.935  13.004
65091W        W33485  11.749  37.996  14.613
65092W        W33486  33.945  37.463  10.689
65093W        W33487   6.142  33.801  11.507
65094W        W33488   0.270   4.213   0.020
65095W        W33489   7.149  16.769   4.087
65096W        W33490  44.338  28.410  13.951
65097W        W33491  29.672  42.821  12.977
65098W        W33492  11.620  36.355  11.111
65099W        W33493  28.675  33.185  11.217
65100W        W33494  21.596  31.927  11.106
65101W        W33495  43.902   2.461  14.865
65102W        W33496  25.537  30.600   5.061
65103W        W33497   9.494   9.825   0.841
65104W        W33498  26.121  23.936  13.911
65105W        W33499  40.622  27.091   3.381
65106W        W33500  36.479  12.571   1.918
65107W        W33501   1.270  22.074   4.022
65108W        W33502  40.494   7.116   5.318
65109W        W33503  16.527   6.376  14.297
65110W        W33504  39.554  38.230   4.448
65111W        W33505  28.933  19.048  12.855
65112W        W33506  39.287   4.640   0.336
65113W        W33507  32.181   9.474  13.071
65114W        W33508   5.361  39.541   0.859
65115W        W33509  38.733  26.754  10.367
65116W        W33510  40.364   8.398   4.494
65117W        W33511  40.875  16.966   0.752
65118W        W33512  33.396  31.619  14.795
65119W        W33513  14.506  18.582  11.728
65120W        W33514  27.632   5.266  10.505
65121W        W33515  33.193   1.174   4.098
65122W        W33516  38.954  42.368  11.643
65123W        W33517  39.909  36.975   5.092
65124W        W33518  30.773   7.896   0.674
65125W        W33519  30.585  17.330   3.103
65126W        W33520  31.903  16.034   1.914
65127W        W33521  34.525  27.523   3.230
65128W        W33522  10.571  38.748   1.963
65129W        W33523  15.185  12.186   0.025
65130W        W33524  37.351  24.659  13.553
65131W        W33525  17.835   9.708  13.492
65132W        W33526  32.458  11.299  12.632
65133W        W33527  27.406  29.226   3.027
65134W        W33528  44.270   0.053  12.679
65135W        W33529  35.569   9.362  11.565
65136W        W33530  24.950  36.712  12.134
65137W        W33531  11.074  35.639   1.079
65138W        W33532   0.804  16.968  12.556
65139W        W33533   9.563  22.227  13.634
65140W        W33534  14.086  26.257  11.075
65141W        W33535  33.007   9.889   3.792
65142W        W33536  20.271  33.555  14.958
65143W        W33537  18.774  12.421   2.269
65144W        W33538  12.712  33.909   4.539
65145W        W33539   5.224   9.227  13.330
65146W        W33540   5.402  35.510   1.496
65147W        W33541  38.453  15.936   1.830
65148W        W33542   2.302   7.011   3.635
65149W        W33543  27.931  34.600  13.856
65150W        W33544  14.965   2.422  13.447
65151W        W33545  16.766  31.198  14.954
65152W        W33546   7.340  16.875  13.411
65153W        W33547  34.858   1.709   3.346
65154W        W33548  10.962  35.439  14.093
65155W        W33549  33.149  24.628  14.115
65156W        W33550  13.386  19.600   1.834
65157W        W33551  18.692  35.312   2.944
65158W        W33552  30.906  16.392  11.661
65159W        W33553   8.899   3.377  10.682
65160W        W33554  16.114  14.803   0.907
65161W        W33555   9.372  33.532   1.441
65162W        W33556  43.424  29.062   3.841
65163W        W33557  18.565  27.738   3.202
65164W        W33558  30.673  33.613  12.406
65165W        W33559   6.351  40.719   2.821
65166W        W33560  41.534   3.259   0.065
65167W        W33561  10.207  44.800   1.266
65168W        W33562  38.365  16.273   3.695
65169W        W33563  23.993  23.076  11.693
65170W        W33564  29.064  31.673   1.339
65171W        W33565  22.088  44.958  11.043
65172W        W33566  29.236   6.308  14.426
65173W        W33567  17.304  28.601   3.779
65174W        W33568  12.616  34.973  11.511
65175W        W33569  11.249  43.592   4.784
65176W        W33570   7.184   6.649   4.904
65177W        W33571  12.337   2.216   3.072
65178W        W33572  25.571  21.180   2.738
65179W        W33573  41.125  40.333  13.975
65180W        W33574  13.788  21.564   3.176
65181W        W33575  15.694  39.125   1.819
65182W        W33576  43.978  23.156  10.581
65183W        W33577  16.482  12.622  13.986
65184W        W33578  39.626  41.156   3.195
65185W        W33579  18.033  30.829  13.896
65186W        W33580  10.321  16.100   2.417
65187W        W33581  20.554  36.202   2.347
65188W        W33582   2.301  25.507  13.164
65189W        W33583   8.734  22.573  13.900
65190W        W33584  24.902   4.723   0.483
65191W        W33585   0.056  26.764  11.931
65192W        W33586  40.788  34.946   0.814
65193W        W33587  19.723  13.230  12.415
65194W        W33588   8.560  19.655  10.630
65195W        W33589  29.237  36.520  14.971
65196W        W33590   9.452  42.056   4.246
65197W        W33591  17.627  21.910   1.727
65198W        W33592  24.177   2.784   0.306
65199W        W33593   3.156   2.295  12.044
65200W        W33594   8.664   6.307   4.448
65201W        W33595  40.333  12.137  14.555
65202W        W33596  17.693  38.380  12.462
65203W        W33597   6.398  14.902  10.322
65204W        W33598  30.012  40.967  12.848
65205W        W33599  20.188  29.404   1.917
65206W        W33600  15.475  25.729   3.762
65207W        W33601  18.539  13.807   2.850
65208W        W33602   1.847  42.796   2.835
65209W        W33603   0.259  33.674  11.347
65210W        W33604  29.171  26.962  14.591
65211W        W33605  10.226  32.005  14.519
65212W        W33606   4.304  35.160   4.983
65213W        W33607  35.383  21.712  11.674
65214W        W33608  38.123  16.671   4.158
65215W        W33609  21.493  16.300  14.053
65216W        W33610  19.037  26.927   2.329
65217W        W33611  42.480  25.024   1.197
65218W        W33612  21.508  31.129  14.479
65219W        W33613  42.882  27.049  14.808
65220W        W33614  31.183  40.324  12.498
65221W        W33615  13.261   8.101  13.054
65222W        W33616   9.488   8.316   3.320
65223W        W33617  18.493  32.541  11.982
65224W        W33618  38.781  10.980  10.646
65225W        W33619  16.498   3.300  12.450
65226W        W33620  26.755   9.740  10.219
65227W        W33621   9.379  27.523  11.958
65228W        W33622  40.270  42.575   0.712
65229W        W33623  24.733  37.900  13.588
65230W        W33624  35.103   0.715  12.066
65231W        W33625  41.572  12.884   4.210
65232W        W33626  26.637  31.966   4.495
65233W        W33627  16.000   0.992  11.110
65234W        W33628  17.484   4.939   0.950
65235W        W33629  26.555  32.232  12.033
65236W        W33630  10.055   3.327  10.278
65237W        W33631  41.579  33.137   0.467
65238W        W33632  36.909  44.723  14.397
65239W        W33633   8.125  35.200   2.771
65240W        W33634  21.549  23.190  13.598
65241W        W33635  41.310   7.634  13.096
65242W        W33636  36.354  16.744   1.170
65243W        W33637  12.369  36.005   1.231
65244W        W33638  11.716  16.675  12.388
65245W        W33639   2.952  12.079   2.961
65246W        W33640   4.664   7.295   1.257
65247W        W33641  36.683   0.906   4.867
65248W        W33642  14.365  33.130   1.753
65249W        W33643  30.653  43.027  11.444
65250W        W33644  20.105   4.244  12.436
65251W        W33645  13.752  12.626   4.568
65252W        W33646  24.885   8.131   2.663
65253W        W33647  29.565  22.814  11.563
65254W        W33648  38.289   6.101   3.302
65255W        W33649  31.161  11.261   1.310
65256W        W33650  32.565  39.405  11.495
65257W        W33651  20.496   9.247   3.716
65258W        W33652   3.456  16.821  11.518
65259W        W33653  19.126  32.640  13.446
65260W        W33654  40.779  33.698  13.395
65261W        W33655  12.398  42.038   4.226
65262W        W33656  28.401  19.371   3.384
65263W        W33657  22.607  29.647  11.931
65264W        W33658  10.405  33.157  14.903
65265W        W33659   5.473  20.372   0.444
65266W        W33660  36.495   8.450   2.302
65267W        W33661  10.736  30.757   1.855
65268W        W33662  37.590   6.972   1.193
65269W        W33663   7.599  15.772  11.129
65270W        W33664  17.005  28.189  11.902
65271W        W33665  20.097  42.435  12.991
65272W        W33666  26.569  37.813   3.389
65273W        W33667  17.680   5.477  13.557
65274W        W33668  31.557  30.888  10.737
65275W        W33669   9.310   3.207  14.518
65276W        W33670  32.947  42.744  14.008
65277W        W33671  33.603   5.220   3.722
65278W        W33672  22.237  27.022  10.380
65279W        W33673   8.813  24.369   0.180
65280W        W33674  33.568  37.875  13.013
65281W        W33675  26.104   4.965   4.075
65282W        W33676  12.837  23.814  13.114
65283W        W33677  18.969  34.139  14.740
65284W        W33678  11.731  20.919  14.840
65285W        W33679  13.214  11.862   1.433
65286W        W33680  25.034   5.182  12.592
65287W        W33681  28.419  13.867   3.108
65288W        W33682  28.707  28.352  11.472
65289W        W33683  17.643   9.583   1.521
65290W        W33684   9.095   9.676   0.321
65291W        W33685  18.129  36.382  13.535
65292W        W33686  38.519  36.379  13.511
65293W        W33687   6.779   1.126  11.718
65294W        W33688   3.840  25.650   4.027
65295W        W33689   1.164  20.321   1.420
65296W        W33690  14.468   8.875   1.434
65297W        W33691  39.883  38.894   0.888
65298W        W33692  17.801  41.518  12.427
65299W        W33693  16.501  25.962   9.782
65300W        W33694  13.823   3.643  12.444
65301W        W33695  14.105  23.128  10.759
65302W        W33696   0.752  36.275   4.578
65303W        W33697  33.169   3.818  13.708
65304W        W33698  36.965   6.330   3.646
65305W        W33699   2.751  25.675   2.657
65306W        W33700  14.899   0.265  11.560
65307W        W33701  28.477  30.993   1.458
65308W        W33702   4.237  30.519   3.081
65309W        W33703  13.210  28.783   4.508
65310W        W33704  16.087  35.108   1.259
65311W        W33705  40.376  44.305  12.460
65312W        W33706  40.244  19.049   4.923
65313W        W33707  16.634  42.846  11.111
65314W        W33708   3.442  12.261   9.887
65315W        W33709   7.677  13.768   3.291
65316W        W33710  29.971  21.286   3.309
65317W        W33711  38.928  15.279  13.052
65318W        W33712  11.388  13.115  13.338
65319W        W33713  42.785   4.270   3.217
65320W        W33714  38.816   9.235   2.617
65321W        W33715  12.338  38.887  13.844
65322W        W33716  20.080  28.420   2.391
65323W        W33717  37.408  24.608  14.470
65324W        W33718  15.019  37.844  10.940
65325W        W33719  26.419  35.466  12.095
65326W        W33720   6.842  16.873  12.108
65327W        W33721  40.767  31.860   3.244
65328W        W33722   4.975  10.670   1.196
65329W        W33723  25.044  26.119   3.049
65330W        W33724  39.609  25.699  11.178
65331W        W33725  23.284   4.712   2.273
65332W        W33726  34.094  20.569  13.508
65333W        W33727  36.800   6.129  14.486
65334W        W33728  25.634  23.543   2.355
65335W        W33729  30.135  37.254  11.116
65336W        W33730  11.191  31.386  10.625
65337W        W33731  13.026   9.115  12.430
65338W        W33732  12.460  25.502  11.095
65339W        W33733   2.856   2.445   4.038
65340W        W33734  31.462  24.955   1.563
65341W        W33735  19.282   6.855   1.390
65342W        W33736  16.645  35.758   3.287
65343W        W33737  29.616  12.605  12.098
65344W        W33738   6.384  24.110   0.838
65345W        W33739  40.451  18.778  14.847
65346W        W33740   3.321   6.565  10.722
65347W        W33741  29.473   1.920  13.317
65348W        W33742  31.783  42.724  13.875
65349W        W33743  30.980  43.512  12.919
65350W        W33744  13.713  44.644  12.569
65351W        W33745  33.565  14.592   1.724
65352W        W33746  26.859   6.498   0.242
65353W        W33747   4.517  10.214   2.609
65354W        W33748  43.205  41.864   1.726
65355W        W33749  30.524  10.739  13.333
65356W        W33750  33.917  24.209   4.533
65357W        W33751  27.529  13.633  12.905
65358W        W33752  39.497  21.256   0.795
65359W        W33753  38.324  27.503  12.560
65360W        W33754  42.453   5.680  10.614
65361W        W33755  15.794   2.741   1.046
65362W        W33756  35.510  24.722  12.824
65363W        W33757   1.329  23.178   2.934
65364W        W33758   1.423   7.959   4.211
65365W        W33759  12.772   7.139   0.002
65366W        W33760  37.974  35.571  14.269
65367W        W33761  33.651  32.934   2.135
65368W        W33762  35.622   5.950   1.742
65369W        W33763  24.182  11.312  14.139
65370W        W33764   9.687  10.294  13.678
65371W        W33765  26.435   0.921  10.242
65372W        W33766  42.223  42.517  13.964
65373W        W33767   3.284   1.434   4.748
65374W        W33768  30.643  10.946   0.322
65375W        W33769  16.702  27.568   1.403
65376W        W33770  27.646  23.158  10.390
65377W        W33771  31.974  44.638   4.403
65378W        W33772  16.265  35.412   3.488
65379W        W33773  12.692  32.305   2.451
65380W        W33774  23.702  35.505   1.209
65381W        W33775  23.031  22.403   1.167
65382W        W33776  22.733  16.564  10.250
65383W        W33777  11.182   0.585  13.910
65384W        W33778   6.155  38.917  10.738
65385W        W33779  39.850  21.277  14.526
65386W        W33780  12.676  33.633   3.207
65387W        W33781  34.462   5.658  12.434
65388W        W33782  42.106   8.261  12.381
65389W        W33783  19.954  38.717  14.617
65390W        W33784  11.092   2.418   4.842
65391W        W33785  37.519  35.419   2.044
65392W        W33786  10.458   1.763   1.673
65393W        W33787  22.735  30.136   3.886
65394W        W33788  24.802   5.718   3.635
65395W        W33789   5.190  25.255   0.470
65396W        W33790  25.932  23.243   2.813
65397W        W33791  34.326  21.331   4.229
65398W        W33792  41.972   7.008   4.272
65399W        W33793  29.296   0.964   0.445
65400W        W33794  37.234  16.932  12.367
65401W        W33795  27.729  30.960  14.807
65402W        W33796  25.594  13.596  10.960
65403W        W33797   3.796  40.429   3.681
65404W        W33798  39.394  33.648  11.083
65405W        W33799  22.964  42.424   3.339
65406W        W33800  32.387  40.067  11.510
65407W        W33801  30.039  32.178  13.486
65408W        W33802  40.983   3.535  13.876
65409W        W33803  32.800   6.973   0.930
65410W        W33804  21.101  20.748   3.260
65411W        W33805  23.517  11.737   2.702
65412W        W33806  40.186   1.746  13.956
65413W        W33807  20.732  16.917   4.187
65414W        W33808  31.559  25.628   3.493
65415W        W33809   9.276  36.347   0.811
65416W        W33810   8.688   5.545  12.810
65417W        W33811   3.777  40.227   1.233
65418W        W33812  23.703  44.338   3.139
65419W        W33813  33.185  19.092   1.429
65420W        W33814  16.617  34.040  12.810
65421W        W33815  20.488  41.250  11.946
65422W        W33816  44.132   8.166   0.969
65423W        W33817  35.689   1.389  14.276
65424W        W33818  25.462  32.658  11.495
65425W        W33819   9.645  11.264   2.152
65426W        W33820  34.016  20.364  11.756
65427W        W33821  35.163  18.176   4.740
65428W        W33822   3.705  13.742  12.373
65429W        W33823   7.893  39.992  11.118
65430W        W33824   6.562  25.059   4.128
65431W        W33825  12.419  32.935  12.498
65432W        W33826  13.085   7.180   2.598
65433W        W33827   0.451  14.654  13.456
65434W        W33828  24.103   9.038  11.954
65435W        W33829   3.799   8.106   2.899
65436W        W33830  13.841  38.914   1.228
65437W        W33831  18.218  17.617  13.063
65438W        W33832  10.466  10.291   3.575
65439W        W33833  27.110  25.839  11.363
65440W        W33834  14.880  33.227   4.390
65441W        W33835  39.818  40.571  11.152
65442W        W33836  18.525  22.989  11.979
65443W        W33837  38.380   0.738  13.667
65444W        W33838   2.757  39.032   1.647
65445W        W33839  35.157   1.060   1.929
65446W        W33840  23.059  37.869  14.679
65447W        W33841   2.714  43.601   0.393
65448W        W33842  28.754  41.465   3.386
65449W        W33843  38.821  22.991  11.475
65450W        W33844  26.007  25.766  14.251
65451W        W33845  41.006  21.086  11.945
65452W        W33846  18.593  32.560  14.323
65453W        W33847  12.607  38.854  10.686
65454W        W33848  25.353   6.900  12.075
65455W        W33849   9.641  24.978   2.223
65456W        W33850  12.753  42.557   3.399
65457W        W33851   7.364  41.074  10.740
65458W        W33852  40.474  24.897  14.911
65459W        W33853  12.943  41.950  10.664
65460W        W33854  11.351   6.482  14.015
65461W        W33855  35.738  32.142  14.088
65462W        W33856  38.486   0.378   3.927
65463W        W33857  39.724  17.278   0.322
65464W        W33858  27.482   9.785   5.054
65465W        W33859  39.061  19.218  14.914
65466W        W33860  35.593  38.222   3.573
65467W        W33861  39.689  25.246  11.960
65468W        W33862  40.974  22.154  13.873
65469W        W33863  31.411  39.384  13.936
65470W        W33864  27.131  19.695   3.683
65471W        W33865  12.268   6.454  10.710
65472W        W33866  42.045  42.272  13.039
65473W        W33867  39.773  42.932  14.763
65474W        W33868  20.209  24.982   2.315
65475W        W33869  39.944  17.605   1.737
65476W        W33870  43.239  28.180   4.762
65477W        W33871  25.966  22.685   4.112
65478W        W33872  23.094   2.422   2.453
65479W        W33873  33.313   4.850  11.605
65480W        W33874  25.592  11.630  11.413
65481W        W33875  35.435  23.122   4.103
65482W        W33876  17.280  42.005   1.357
65483W        W33877  42.974  39.930   0.315
65484W        W33878  43.438  12.315   0.433
65485W        W33879   3.088   1.038   5.053
65486W        W33880  38.619  17.851   3.869
65487W        W33881  37.540  30.255  12.663
65488W        W33882  20.169  13.298   3.735
65489W        W33883   8.686  15.336   3.357
65490W        W33884  41.784  28.728   3.986
65491W        W33885  44.553  20.419  11.221
65492W        W33886  12.152  39.106  10.638
65493W        W33887  30.708   1.454   2.738
65494W        W33888  17.990  31.200  14.287
65495W        W33889   3.327  40.465  13.793
65496W        W33890  41.550   0.443  12.003
65497W        W33891   4.364  37.973  10.724
65498W        W33892  33.913  27.018  14.788
65499W        W33893  24.357  19.612   0.831
65500W        W33894   9.196  41.863   3.823
65501W        W33895  37.253   6.714   3.908
65502W        W33896  23.811  29.675   4.642
65503W        W33897  33.947  44.664  11.657
65504W        W33898   1.269  37.801   2.673
65505W        W33899  32.128  40.013   3.627
65506W        W33900  42.928  39.999   3.229
65507W        W33901  39.517  43.378  14.779
65508W        W33902   8.164   1.941  14.767
65509W        W33903   0.547  14.095  13.306
65510W        W33904   7.365  21.202   0.630
65511W        W33905  24.358  37.418   0.946
65512W        W33906  43.850  13.108   3.974
65513W        W33907  24.844  30.049   2.256
65514W        W33908  36.540   7.614  13.872
65515W        W33909  20.719  39.574   2.248
65516W        W33910  34.449  38.423   3.056
65517W        W33911  13.613  27.003   4.651
65518W        W33912  27.204  44.250  12.818
65519W        W33913  32.549  11.532  14.709
65520W        W33914  26.664  26.072  12.533
65521W        W33915  32.549  41.316   0.391
65522W        W33916   8.866  11.183   0.826
65523W        W33917  34.605  17.023   3.421
65524W        W33918  19.009  11.199  12.915
65525W        W33919  41.458   5.252  11.077
65526W        W33920  13.547  40.939   4.577
65527W        W33921  17.170  28.654  14.468
65528W        W33922  31.162   5.787  13.001
65529W        W33923  21.657  29.904  11.123
65530W        W33924  39.297  37.338   1.000
65531W        W33925   4.505   2.892   1.890
65532W        W33926   0.933  23.396  11.676
65533W        W33927  19.403  35.333  12.792
65534W        W33928  13.899  18.413  12.919
65535W        W33929  31.292  26.955   4.747
65536W        W33930  31.660  32.959   1.217
65537W        W33931  41.276  38.612   3.812
65538W        W33932   4.894  14.874  10.869
65539W        W33933   6.113  36.061   2.224
65540W        W33934   9.084  43.299   4.938
65541W        W33935   6.773  42.397  13.912
65542W        W33936  10.978  41.975   1.600
65543W        W33937  22.682  37.350   4.666
65544W        W33938   7.428  18.370  11.115
65545W        W33939  24.617   3.783   0.554
65546W        W33940   4.935  12.767   5.053
65547W        W33941  32.405  43.895   3.795
65548W        W33942  40.582   1.008  11.997
65549W        W33943  13.166  32.635   0.325
65550W        W33944  29.519  30.566   3.854
65551W        W33945  30.138  21.609   0.453
65552W        W33946  25.679  29.757   4.701
65553W        W33947  34.884  12.207  11.758
65554W        W33948  21.674  16.770   1.445
65555W        W33949  32.806   4.763   3.686
65556W        W33950  31.569   5.306  14.828
65557W        W33951  30.499  21.127   0.954
65558W        W33952  34.696  22.209  12.871
65559W        W33953   1.896  13.039  10.602
65560W        W33954  35.033  22.215  10.920
65561W        W33955  16.275  40.551   1.904
65562W        W33956   1.273  43.647  10.644
65563W        W33957  13.702   0.952   2.381
65564W        W33958  28.428  42.876   4.140
65565W        W33959  19.071   4.693  10.207
65566W        W33960   7.395   9.790  10.749
65567W        W33961   0.232  18.269  12.483
65568W        W33962   8.308   7.834  12.672
65569W        W33963  14.419  44.607  11.678
65570W        W33964  38.568  22.702  13.047
65571W        W33965  25.615  20.076   4.291
65572W        W33966  32.064  25.861   0.796
65573W        W33967  42.843  36.506   3.995
65574W        W33968  33.439  26.475   2.645
65575W        W33969   5.240  34.000   3.606
65576W        W33970  29.047  14.803  10.524
65577W        W33971  27.172  22.884   2.958
65578W        W33972  31.814  44.580   3.729
65579W        W33973  41.022   3.758   2.866
65580W        W33974  37.333  10.680   4.272
65581W        W33975  14.537  42.792  11.915
65582W        W33976  24.202  10.179  12.628
65583W        W33977  24.625  27.430   4.316
65584W        W33978  43.969  41.839  13.930
65585W        W33979  11.866  29.517  14.521
65586W        W33980  36.914  44.407  11.544
65587W        W33981  37.995  17.235   4.424
65588W        W33982  22.622  15.138  10.610
65589W        W33983  38.474   3.248   1.665
65590W        W33984   4.159  33.266  11.064
65591W        W33985  24.955  23.992  13.528
65592W        W33986  16.560  25.631   4.632
65593W        W33987  37.593   3.973  12.503
65594W        W33988  29.192  39.091  12.791
65595W        W33989  15.620  24.129   0.398
65596W        W33990  31.128  31.422   4.272
65597W        W33991  32.859   0.882   1.864
65598W        W33992  27.691  11.247   2.252
65599W        W33993  15.074  24.878   4.372
65600W        W33994  12.531  34.955   2.412
65601W        W33995  14.643  13.228   1.344
65602W        W33996  21.246  17.317   4.944
65603W        W33997  27.881   8.825   4.245
65604W        W33998  40.734  17.230   0.323
65605W        W33999   0.806   1.032   1.958
65606W        W34000  39.762  28.972   1.289
65607W        W34001  19.534  30.188  12.516
65608W        W34002   8.487  26.716  14.083
65609W        W34003  40.900  40.609  12.111
65610W        W34004  32.180  44.065  10.720
65611W        W34005  13.359  44.472   4.523
65612W        W34006  21.617  41.004   3.978
65613W        W34007   2.853  14.657   3.678
65614W        W34008  33.673  33.408   4.563
65615W        W34009   1.426  32.915  11.925
65616W        W34010   1.117  22.193   2.214
65617W        W34011  31.977  30.374   0.484
65618W        W34012  24.908   8.044   0.358
65619W        W34013  20.194  11.211   4.574
65620W        W34014  13.320  42.222  11.556
65621W        W34015  23.300  14.847   1.430
65622W        W34016   3.665  44.779  11.036
65623W        W34017  14.736  12.717  13.278
65624W        W34018  44.433  36.593   0.370
65625W        W34019  11.905  12.466   1.766
65626W        W34020  44.405  34.908   0.062
65627W        W34021  18.488  35.054   3.333
65628W        W34022  20.204  10.264  11.948
65629W        W34023  39.475  31.330  10.642
65630W        W34024  31.094  43.002  11.717
65631W        W34025  38.275  31.217  11.226
65632W        W34026  32.994  25.285   0.220
65633W        W34027   7.393  42.959  10.627
65634W        W34028  43.876  37.089   1.045
65635W        W34029  28.532   2.858  14.729
65636W        W34030  18.328   9.315   0.968
65637W        W34031  39.939  21.677   3.206
65638W        W34032  20.000   1.971  14.067
65639W        W34033  36.764  31.933  10.847
65640W        W34034   1.933  10.866   4.677
65641W        W34035  42.245  33.605  11.932
65642W        W34036  37.246  19.763   0.317
65643W        W34037  40.485  36.229   1.989
65644W        W34038  31.362  19.811   3.502
65645W        W34039   0.216  40.884   4.598
65646W        W34040  26.771  14.456   2.759
65647W        W34041  28.534   2.936   3.161
65648W        W34042   1.541   4.310   4.125
65649W        W34043  36.620  23.255  14.492
65650W        W34044  39.600   0.943   0.940
65651W        W34045  23.199  26.728   4.175
65652W        W34046  41.856  33.958  11.855
65653W        W34047   1.103  40.049  14.066
65654W        W34048  17.720  20.186   0.841
65655W        W34049  27.813  40.048  11.074
65656W        W34050   4.381  32.356   1.668
65657W        W34051  39.788  13.399   2.202
65658W        W34052  17.147   0.758  10.633
65659W        W34053  25.515  11.176   3.273
65660W        W34054   4.446  18.603  14.886
65661W        W34055  16.190   7.855   1.132
65662W        W34056  34.650  35.864   4.579
65663W        W34057  21.183  11.707  10.605
65664W        W34058  19.125  16.620   0.810
65665W        W34059  32.450   3.340   1.242
65666W        W34060  18.369  29.709  12.040
65667W        W34061   7.201  40.870   3.259
65668W        W34062  32.583  10.479   2.640
65669W        W34063   4.456  24.796  11.984
65670W        W34064   7.424  10.902   3.966
65671W        W34065  41.819  24.421  12.889
65672W        W34066   7.046  14.781   4.966
65673W        W34067  19.100  42.832   4.576
65674W        W34068   9.349  44.330  13.551
65675W        W34069   3.657  12.180   5.018
65676W        W34070   8.998   7.496  14.343
65677W        W34071   6.870  20.238   3.263
65678W        W34072  12.814  21.667  13.636
65679W        W34073  14.562  18.448   3.850
65680W        W34074  21.610   2.420   0.038
65681W        W34075  26.378  21.057  10.435
65682W        W34076   2.913   1.448   4.375
65683W        W34077  35.848  33.522  14.942
65684W        W34078  28.057  29.282  11.998
65685W        W34079   3.469   5.307   5.506
65686W        W34080  23.578  23.649  12.373
65687W        W34081  24.978  43.121  11.678
65688W        W34082  32.497  35.548   4.593
65689W        W34083  22.972  13.597  11.558
65690W        W34084   8.901   9.482  12.959
65691W        W34085   6.697   4.247   2.893
65692W        W34086  17.366  36.041   4.638
65693W        W34087  34.873  28.172   3.116
65694W        W34088  32.367  40.563  14.694
65695W        W34089  38.795   1.455  13.750
65696W        W34090  40.343   8.181  11.172
65697W        W34091  32.436  42.757   0.182
65698W        W34092  43.487  32.411   2.978
65699W        W34093  13.852   7.833   0.393
65700W        W34094  17.267  33.637   3.798
65701W        W34095  27.860  32.414   0.529
65702W        W34096  13.666   8.394   1.184
65703W        W34097  41.970   9.091  11.236
65704W        W34098   7.002   3.751  11.441
65705W        W34099  38.957  23.948   1.451
65706W        W34100  29.963  32.649  11.102
65707W        W34101  44.228  38.378  12.048
65708W        W34102  12.736  44.770   2.156
65709W        W34103  38.302   6.099  12.415
65710W        W34104  11.703   0.751   1.030
65711W        W34105  35.962  24.013   2.426
65712W        W34106  16.158  18.286   4.573
65713W        W34107  14.336  31.143  13.434
65714W        W34108   1.118  14.188  14.887
65715W        W34109  26.058  19.126  10.985
65716W        W34110  23.133  39.470  13.410
65717W        W34111   7.760  36.473   0.917
65718W        W34112  32.108  43.240   4.488
65719W        W34113  12.188   8.640   3.593
65720W        W34114   9.789   6.716  12.282
65721W        W34115  33.641  19.653   2.877
65722W        W34116  20.459  28.713   4.981
65723W        W34117  19.182  40.766   2.729
65724W        W34118  13.682  19.635   2.949
65725W        W34119  27.036   1.987   4.106
65726W        W34120  42.850   0.345   2.652
65727W        W34121  36.283   9.914   3.962
65728W        W34122  34.548   7.195   1.330
65729W        W34123  41.548  19.037  12.504
65730W        W34124  44.919  34.289  13.370
65731W        W34125  33.444  22.298  11.561
65732W        W34126  12.680  20.361   2.639
65733W        W34127  42.958  38.394  14.918
65734W        W34128  33.198  43.362  12.549
65735W        W34129   9.631   2.705  11.801
65736W        W34130  22.560  25.334  14.946
65737W        W34131  27.183   9.448  10.233
65738W        W34132  33.596  26.975   1.723
65739W        W34133  22.978  42.906   3.773
65740W        W34134  39.575  23.889   0.969
65741W        W34135  11.140  12.892  12.953
65742W        W34136  18.179  19.894   1.627
65743W        W34137  29.855  34.919  10.421
65744W        W34138  28.559  25.075   0.033
65745W        W34139  17.282   4.696   1.877
65746W        W34140   8.317  28.074  11.854
65747W        W34141  13.958   1.900  14.429
65748W        W34142  11.172   5.728  13.586
65749W        W34143  42.031   9.625  12.370
65750W        W34144  22.636  36.043   2.498
65751W        W34145  21.498  18.733   2.251
65752W        W34146  19.258  21.026   2.655
65753W        W34147   1.979  38.016  10.985
65754W        W34148  21.718  38.884  12.577
65755W        W34149  16.347  32.632  12.920
65756W        W34150   9.298  21.036   4.147
65757W        W34151  34.007  31.219  11.410
65758W        W34152  39.121  16.455   4.212
65759W        W34153  31.411  18.533  13.374
65760W        W34154  40.564  30.901   1.250
65761W        W34155  26.109  43.730   0.309
65762W        W34156  28.396  23.402  14.787
65763W        W34157  42.452  44.576   2.879
65764W        W34158  35.411  20.027   0.344
65765W        W34159  28.875  27.699   1.331
65766W        W34160  36.862  32.436  12.011
65767W        W34161  19.301  26.575  13.354
65768W        W34162  28.977  37.726  14.173
65769W        W34163  24.757   6.470  14.105
65770W        W34164   7.710  26.745   4.549
65771W        W34165  23.209  20.746  12.003
65772W        W34166  23.321  44.774  14.845
65773W        W34167  15.645  29.356  10.263
65774W        W34168  19.744  13.439  10.754
65775W        W34169  34.277  27.603  10.770
65776W        W34170  26.636  18.652  13.660
65777W        W34171  29.480   0.665  12.661
65778W        W34172  23.597  27.207   0.948
65779W        W34173  24.112  16.273  12.885
65780W        W34174  22.069  26.291  13.485
65781W        W34175  32.016  10.263  14.505
65782W        W34176  19.306  24.501   4.576
65783W        W34177  19.078  27.762   2.610
65784W        W34178   1.156  30.500  14.867
65785W        W34179   2.194  33.046  12.534
65786W        W34180  32.704  22.185   2.474
65787W        W34181   7.171  25.168   3.400
65788W        W34182   5.430   6.181  13.605
65789W        W34183  11.718  27.851   4.118
65790W        W34184   1.547  37.477  13.434
65791W        W34185   4.915  37.204   2.863
65792W        W34186  37.992  42.066   4.559
65793W        W34187   4.193  12.623  10.886
65794W        W34188  38.305   7.338  13.876
65795W        W34189   6.566  38.278   4.434
65796W        W34190  11.454  27.952  14.455
65797W        W34191   0.482  20.217   0.267
65798W        W34192  10.765   7.443  13.399
65799W        W34193  43.054   8.674   2.278
65800W        W34194  24.905   0.597  10.748
65801W        W34195   1.858  13.898   1.891
65802W        W34196  15.066  43.522  12.022
65803W        W34197  11.112  43.292   1.209
65804W        W34198  24.209   8.566   2.188
65805W        W34199   2.964  24.958   0.393
65806W        W34200  28.482   5.934   1.298
65807W        W34201  22.458  11.769   0.938
65808W        W34202  29.424  35.606  12.007
65809W        W34203  42.774  16.568   1.190
65810W        W34204   0.553  36.505   3.289
65811W        W34205  31.506  41.403  11.123
65812W        W34206  35.339   7.368  10.790
65813W        W34207  10.510  31.916  14.948
65814W        W34208  29.564  24.227   3.736
65815W        W34209  41.959  35.361  11.123
65816W        W34210  22.447  26.613  10.095
65817W        W34211  29.505  41.723  11.246
65818W        W34212  19.945  11.751  11.109
65819W        W34213  17.255  10.392   1.916
65820W        W34214  31.407  44.374   2.385
65821W        W34215  43.405   1.279   0.516
65822W        W34216  35.056  14.312   0.244
65823W        W34217  43.855   3.098   2.170
65824W        W34218  19.236   3.294  12.012
65825W        W34219  44.002  17.726  12.710
65826W        W34220  25.722  17.176   0.392
65827W        W34221  40.023  39.238   4.611
65828W        W34222   4.400  16.464   0.094
65829W        W34223   2.742  15.119   4.175
65830W        W34224   9.131  18.794  11.602
65831W        W34225  12.047   2.857  12.110
65832W        W34226  11.234  35.592   4.193
65833W        W34227   7.936   4.860  13.070
65834W        W34228  30.833  17.189  13.831
65835W        W34229  16.165  41.314   0.585
65836W        W34230  38.938   3.248   4.350
65837W        W34231  23.977  22.745  11.152
65838W        W34232   4.692  44.787  13.862
65839W        W34233  17.613  15.906   4.584
65840W        W34234  31.473  18.340  11.565
65841W        W34235   8.181  18.858  10.600
65842W        W34236  36.599   1.225  12.488
65843W        W34237  22.566  16.824   0.448
65844W        W34238  40.325  16.748   2.404
65845W        W34239   4.871   8.850  12.554
65846W        W34240  17.634  19.740  11.157
65847W        W34241  27.496   0.358  11.631
65848W        W34242   6.340  42.852   1.342
65849W        W34243  31.956  27.908  12.022
65850W        W34244   6.449  43.827  12.463
65851W        W34245  23.625  42.900  13.934
65852W        W34246  30.918   8.326   2.106
65853W        W34247  27.758   2.235   1.886
65854W        W34248  44.369  31.534  13.021
65855W        W34249  13.711  11.919  13.668
65856W        W34250   7.260  11.233  10.683
65857W        W34251  15.807  40.894  12.525
65858W        W34252  30.020   9.672   3.925
65859W        W34253  12.097  26.985  13.605
65860W        W34254  26.671  41.334  14.840
65861W        W34255   6.696  37.899  13.460
65862W        W34256  22.430  42.914   3.721
65863W        W34257  30.675   9.166   3.203
65864W        W34258  11.790  11.755   1.402
65865W        W34259  30.935  38.934   4.675
65866W        W34260  29.903  24.767  12.990
65867W        W34261  36.510  40.094  13.383
65868W        W34262  22.619  29.012   0.724
65869W        W34263  11.109  16.263  11.630
65870W        W34264  12.291   6.948  10.861
65871W        W34265  11.177  43.863   3.045
65872W        W34266  44.833  43.877  10.473
65873W        W34267  34.861   9.884   1.739
65874W        W34268   5.913  38.580  11.405
65875W        W34269  27.071  24.274  12.467
65876W        W34270  30.461  17.291  12.033
65877W        W34271   3.292  12.810   0.298
65878W        W34272  21.261  17.702  13.814
65879W        W34273  20.269  34.392  14.068
65880W        W34274  14.638   4.899   2.805
65881W        W34275  31.666  33.599  14.182
65882W        W34276  28.040  19.305  11.122
65883W        W34277  25.282  44.371  11.157
65884W        W34278  37.082  37.255  12.194
65885W        W34279   4.323  14.800  14.336
65886W        W34280   4.691  11.802  13.452
65887W        W34281  26.590   7.316  11.496
65888W        W34282   7.788  21.215  13.335
65889W        W34283  16.194  18.081   4.099
65890W        W34284  32.951  21.718   3.086
65891W        W34285  19.630  15.147  11.263
65892W        W34286  32.428  16.805  14.471
65893W        W34287  23.046  30.351  13.728
65894W        W34288   5.709  24.992  12.465
65895W        W34289   1.807   8.206  11.358
65896W        W34290  18.278  22.992  12.443
65897W        W34291  34.063   0.761   0.330
65898W        W34292  37.964  13.559   1.824
65899W        W34293  35.956  12.192  12.073
65900W        W34294   8.422  17.546  14.961
65901W        W34295  28.520  23.087  14.401
65902W        W34296   8.542  23.816   1.455
65903W        W34297  17.027  44.260  13.007
65904W        W34298  27.539   5.945  13.758
65905W        W34299  20.657  16.057  13.189
65906W        W34300  41.530   2.970   1.953
65907W        W34301  37.607  38.110  14.335
65908W        W34302  17.045  15.040   3.911
65909W        W34303  27.448  38.031  13.934
65910W        W34304   6.333  15.269  14.812
65911W        W34305  12.895  31.370  11.530
65912W        W34306  24.124  28.158   3.676
65913W        W34307  22.801  32.617  14.973
65914W        W34308  43.561  19.763  13.481
65915W        W34309  13.802  17.827   2.337
65916W        W34310  28.518   6.444   1.334
65917W        W34311  11.267   7.415  14.468
65918W        W34312  26.133  24.554   4.716
65919W        W34313  25.621   2.252   3.750
65920W        W34314  15.711  16.093  12.381
65921W        W34315  13.074  44.266   4.151
65922W        W34316  41.348  17.355   3.229
65923W        W34317  42.229   5.648   4.752
65924W        W34318  41.060  35.396  12.575
65925W        W34319   8.441   8.942   2.851
65926W        W34320  12.246   4.671   4.713
65927W        W34321  15.554   7.017   4.488
65928W        W34322  16.232   3.768  11.623
65929W        W34323  40.449  12.751  11.311
65930W        W34324  40.163   6.654   4.072
65931W        W34325  33.207  18.754  13.405
65932W        W34326  13.893  16.754  14.788
65933W        W34327   7.948  43.854   2.849
65934W        W34328   7.220  38.582   2.755
65935W        W34329  38.129  26.963  10.542
65936W        W34330   7.356   0.955   1.210
65937W        W34331  44.378   7.282   1.325
65938W        W34332  24.124  27.173  12.774
65939W        W34333   1.972  40.548   3.680
65940W        W34334  34.038  26.457   2.296
65941W        W34335  21.320  25.079  13.701
65942W        W34336  24.544  13.103   3.797
65943W        W34337  30.251  44.643  11.443
65944W        W34338  38.961   7.205  11.981
65945W        W34339  34.994  39.576  13.930
65946W        W34340   8.627   5.015   3.869
65947W        W34341   3.629  26.527  10.299
65948W        W34342  10.314  16.682  11.441
65949W        W34343  15.178  24.657   0.662
65950W        W34344   7.670  23.733  13.394
65951W        W34345  25.457  35.132  14.544
65952W        W34346  30.610  31.633   4.128
65953W        W34347  14.349  38.847   1.376
65954W        W34348  38.511  36.942   4.399
65955W        W34349  17.289  35.937  10.568
65956W        W34350  44.750  12.631   3.630
65957W        W34351  17.053   8.279   1.781
65958W        W34352  42.872   1.663  10.375
65959W        W34353  40.316  13.406   1.321
65960W        W34354  24.264  36.104   4.133
65961W        W34355  18.511  17.290   0.374
65962W        W34356   3.850  42.355  11.951
65963W        W34357  30.057  25.984  12.518
65964W        W34358  43.240  24.282  13.555
65965W        W34359  23.964  29.867   2.983
65966W        W34360   3.745  33.976   0.878
65967W        W34361  16.349  15.296   3.131
65968W        W34362  19.939  30.242  14.303
65969W        W34363  44.875  24.561  14.883
65970W        W34364   7.648  26.624  13.220
65971W        W34365  40.515   4.631  14.756
65972W        W34366   5.052  19.240   1.475
65973W        W34367  40.541  17.639   3.637
65974W        W34368  20.251   4.286   3.875
65975W        W34369  26.698  25.941   0.915
65976W        W34370  35.606   9.735   2.146
65977W        W34371   7.850  21.617  10.757
65978W        W34372   1.747  36.754   2.641
65979W        W34373  20.790  39.955  11.872
65980W        W34374  41.787  15.894   2.362
65981W        W34375  26.445  18.522   4.997
65982W        W34376  30.990  25.879  12.206
65983W        W34377  35.588  44.189   0.009
65984W        W34378   0.892   7.739   3.935
65985W        W34379  38.823  26.473  14.375
65986W        W34380  15.071  34.403  12.912
65987W        W34381   3.688  27.078  13.895
65988W        W34382  10.940  38.625  11.137
65989W        W34383   9.130  40.371   4.893
65990W        W34384  37.355  28.167   0.019
65991W        W34385  32.785  29.401   0.691
65992W        W34386  37.989  36.624  14.218
65993W        W34387  25.448  19.235   3.730
65994W        W34388  25.610  42.139  12.843
65995W        W34389  12.308  24.058  12.182
65996W        W34390   0.816  17.134   3.198
65997W        W34391  15.592  31.033   2.839
65998W        W34392  14.329  36.421  10.705
65999W        W34393   6.532  24.472  13.832
66000W        W34394   4.785  24.217  14.749
66001W        W34395  42.802  33.805  11.912
66002W        W34396  34.478  30.069   1.828
66003W        W34397  22.653   1.319   4.256
66004W        W34398   8.785  34.567  12.020
66005W        W34399  18.506   1.059   1.380
66006W        W34400  38.671  18.825   1.433
66007W        W34401  41.635  13.186   3.610
66008W        W34402  40.854  31.481  10.633
66009W        W34403  12.364  22.270   2.881
66010W        W34404  23.965   7.903  14.357
66011W        W34405  16.767   0.742   0.308
66012W        W34406  15.865  34.967   0.805
66013W        W34407  21.507  20.964  12.492
66014W        W34408  19.128  25.717  14.694
66015W        W34409  11.690  13.252   1.353
66016W        W34410  40.067  25.571  13.151
66017W        W34411  32.076  24.385  10.775
66018W        W34412  29.797  36.572   4.323
66019W        W34413  41.746  23.656  14.856
66020W        W34414  22.666  27.404   2.806
66021W        W34415  11.577  20.892  11.285
66022W        W34416  22.404  25.489  14.487
66023W        W34417  26.172   1.534  13.808
66024W        W34418  27.192  27.152  13.435
66025W        W34419  26.986   1.751   3.132
66026W        W34420  21.083  19.254   0.909
66027W        W34421  17.710  40.891  11.730
66028W        W34422  21.723  20.217  11.144
66029W        W34423  19.037  37.310   4.226
66030W        W34424  14.615   1.292  14.410
66031W        W34425   5.203   9.621  12.439
66032W        W34426  41.210  43.979  14.995
66033W        W34427  31.121   4.804  13.993
66034W        W34428   4.457  16.218  13.388
66035W        W34429  25.351  16.629  10.705
66036W        W34430  22.046  21.386   2.815
66037W        W34431   9.293  12.270  13.125
66038W        W34432   3.068  31.261  11.584
66039W        W34433  14.303  26.451  10.670
66040W        W34434  12.186  22.143  14.888
66041W        W34435  39.532  18.091  14.844
66042W        W34436  13.164  27.804  11.051
66043W        W34437   1.908  34.072  12.249
66044W        W34438  15.764  41.447  13.187
66045W        W34439   4.952  30.333  13.602
66046W        W34440  15.820  33.696   0.608
66047W        W34441  14.707  20.573  12.112
66048W        W34442  22.066   0.443  14.657
66049W        W34443  10.442   1.375  13.578
66050W        W34444  20.737  43.449   0.305
66051W        W34445  30.940  29.998   4.878
66052W        W34446  34.581   8.567  12.348
66053W        W34447  21.145  15.135   1.754
66054W        W34448   1.717   4.059  11.659
66055W        W34449  33.533   1.828   3.632
66056W        W34450   7.428  22.199   2.126
66057W        W34451  38.805  27.065  13.127
66058W        W34452  25.416  36.834   3.595
66059W        W34453  30.522  22.315   3.189
66060W        W34454  10.933  17.298  14.553
66061W        W34455  25.762  29.418  11.605
66062W        W34456   9.416  37.247   2.817
66063W        W34457  24.035   9.469  14.313
66064W        W34458  24.679  34.034  12.354
66065W        W34459   2.764  16.462   0.387
66066W        W34460  42.927  18.357  11.545
66067W        W34461   3.776  20.062   3.608
66068W        W34462  25.483  35.486   4.080
66069W        W34463  24.864  38.619  12.046
66070W        W34464  42.555   9.444  13.863
66071W        W34465  17.334   2.344   4.462
66072W        W34466  23.240  37.099   4.500
66073W        W34467  28.205  36.438  14.963
66074W        W34468   8.285   8.633  11.149
66075W        W34469   6.819  43.327   1.885
66076W        W34470   8.886  44.527   2.137
66077W        W34471  25.618  41.443   1.452
66078W        W34472  15.057  33.373  10.927
66079W        W34473  26.955   8.196  11.168
66080W        W34474  12.989  42.408  13.705
66081W        W34475   4.603  33.617  11.562
66082W        W34476  39.480  42.424  11.585
66083W        W34477  28.697  34.632  10.579
66084W        W34478  28.710  29.508  10.745
66085W        W34479  37.604  29.428  11.121
66086W        W34480  30.206  24.660   3.694
66087W        W34481  11.023  29.442   3.282
66088W        W34482  44.320   0.282   2.459
66089W        W34483  17.625  29.724   2.166
66090W        W34484  24.469  33.818   4.639
66091W        W34485  17.506  39.394  14.387
66092W        W34486   7.250  24.022  11.372
66093W        W34487   8.408  30.425  10.631
66094W        W34488  22.570  40.816  10.751
66095W        W34489  44.347  23.998  11.422
66096W        W34490  33.185  28.950  14.960
66097W        W34491  19.791  28.075  14.049
66098W        W34492  34.069  34.438  11.514
66099W        W34493  34.396  18.006   4.396
66100W        W34494   0.403  18.123   1.605
66101W        W34495  40.522  27.345  11.442
66102W        W34496  19.396  10.890  13.036
66103W        W34497  34.376  28.922  12.598
66104W        W34498  43.014  43.597   0.471
66105W        W34499   6.309  20.734  13.522
66106W        W34500  37.536   3.815   4.557
66107W        W34501  30.654  19.550  13.771
66108W        W34502  28.200  25.371   2.813
66109W        W34503  25.792  31.541  13.990
66110W        W34504  18.236   8.600  13.842
66111W        W34505  39.655  42.438   2.336
66112W        W34506  38.124  20.527   0.644
66113W        W34507  44.466  13.730  10.529
66114W        W34508   4.482  44.960  14.313
66115W        W34509   6.895   9.357  12.636
66116W        W34510  33.548  27.268  13.406
66117W        W34511  12.147  30.825  11.183
66118W        W34512  30.134   0.245  13.400
66119W        W34513  25.072  18.219   1.608
66120W        W34514  39.049  11.422   3.801
66121W        W34515  23.738  18.062   1.529
66122W        W34516  37.987  31.572  10.991
66123W        W34517  12.989  35.620   3.315
66124W        W34518  38.357  37.629  10.597
66125W        W34519   3.310  44.915   1.342
66126W        W34520  30.950  42.213   2.269
66127W        W34521  26.183   3.666   2.777
66128W        W34522  21.071  10.241  11.039
66129W        W34523  24.309   2.241  11.600
66130W        W34524   7.293  21.909  13.278
66131W        W34525  43.219   1.604  13.763
66132W        W34526   0.812   4.097   3.140
66133W        W34527  23.031  35.861   2.215
66134W        W34528  12.285  15.805  10.651
66135W        W34529   9.179  44.192   0.322
66136W        W34530  41.406  42.322   1.803
66137W        W34531   8.451   1.723  14.332
66138W        W34532   0.965  42.429   0.873
66139W        W34533   5.824   1.087   2.827
66140W        W34534  28.679  23.741  12.476
66141W        W34535   3.322  38.138  10.636
66142W        W34536  18.548   0.600  11.146
66143W        W34537  25.962  23.392  12.347
66144W        W34538  44.920  28.836   1.322
66145W        W34539  24.269  27.582   1.891
66146W        W34540  42.204   8.859  12.902
66147W        W34541   1.347  12.368  13.992
66148W        W34542   4.181   2.262  11.880
66149W        W34543  28.545  38.618   2.716
66150W        W34544  42.891  19.384   3.635
66151W        W34545  33.142  33.301  10.671
66152W        W34546   0.230   4.423  11.904
66153W        W34547  35.730   8.297   4.878
66154W        W34548  18.374  26.000   2.789
66155W        W34549  23.804  17.567   3.557
66156W        W34550  30.064  39.433  12.715
66157W        W34551   8.079  35.942   0.115
66158W        W34552  32.024   5.625  14.292
66159W        W34553  44.576  27.223   4.132
66160W        W34554  22.920   3.751   4.162
66161W        W34555  34.168   1.435   2.725
66162W        W34556  41.825  18.721   3.896
66163W        W34557  38.687  16.411   1.860
66164W        W34558   1.981  37.152   3.580
66165W        W34559  35.383  30.206   0.339
66166W        W34560  36.574  24.805   2.562
66167W        W34561  37.582  32.955   0.341
66168W        W34562  37.145  32.762   2.251
66169W        W34563  15.806  37.636  12.406
66170W        W34564  23.049  18.717   1.455
66171W        W34565   4.216  14.684   3.184
66172W        W34566  35.945   7.821  12.147
66173W        W34567   3.801  20.421   4.451
66174W        W34568   8.026  34.962   1.937
66175W        W34569   3.740   5.973  13.783
66176W        W34570  28.069  44.068  12.611
66177W        W34571   7.778  32.964  14.083
66178W        W34572  28.964  13.303   0.928
66179W        W34573  26.271   4.094  12.891
66180W        W34574  43.951   1.356   3.571
66181W        W34575  27.967  32.915  14.843
66182W        W34576  10.903  39.215  10.278
66183W        W34577  38.760   9.678   1.388
66184W        W34578  41.542   4.891   2.672
66185W        W34579  21.554  36.171  12.858
66186W        W34580  34.891  13.115   2.277
66187W        W34581  43.945  13.340   2.977
66188W        W34582  22.722  36.103   0.718
66189W        W34583  36.950   6.048  11.345
66190W        W34584  37.306  38.833   1.360
66191W        W34585  12.832  22.125   3.036
66192W        W34586  43.466  28.996  11.211
66193W        W34587  27.058  34.067  10.650
66194W        W34588  38.494  28.912  11.189
66195W        W34589  36.022  15.595  13.820
66196W        W34590  36.975   4.277   4.294
66197W        W34591   0.501  35.734   0.895
66198W        W34592  30.152  42.517   1.638
66199W        W34593  17.653  21.571  10.708
66200W        W34594  15.088  21.381  11.564
66201W        W34595  33.645  17.679  13.999
66202W        W34596  44.877  33.441  12.991
66203W        W34597   1.915   9.141   3.699
66204W        W34598  11.950  31.154  11.575
66205W        W34599  27.509   8.160   4.705
66206W        W34600  23.571  40.470   4.131
66207W        W34601  31.571   8.307   4.609
66208W        W34602  35.432  20.037   4.798
66209W        W34603  34.405  32.230   1.066
66210W        W34604  16.761  32.090  12.475
66211W        W34605  35.633  25.659  11.587
66212W        W34606  18.183  33.894  11.310
66213W        W34607  33.352  25.140  14.051
66214W        W34608  26.415  25.548  11.584
66215W        W34609  40.403  27.212   4.780
66216W        W34610  13.418  32.651  13.552
66217W        W34611  33.181  14.514  11.238
66218W        W34612  29.950   5.026   0.495
66219W        W34613  27.013   1.677  11.942
66220W        W34614  39.207  17.199   0.231
66221W        W34615   3.783  43.708  14.337
66222W        W34616  13.406  29.635   0.020
66223W        W34617   4.186  10.612   0.003
66224W        W34618  26.611  14.562  14.051
66225W        W34619   1.461  24.490  14.142
66226W        W34620  40.760  18.896   2.956
66227W        W34621  37.316  41.352  13.372
66228W        W34622  29.955  15.646   3.348
66229W        W34623  38.984  21.214   0.799
66230W        W34624   2.745  10.829   3.150
66231W        W34625  28.079   9.572  13.946
66232W        W34626  38.811   4.803   3.660
66233W        W34627  18.981  35.108  10.504
66234W        W34628  33.510  31.126   0.467
66235W        W34629  41.538  16.180   2.800
66236W        W34630  24.398   7.863   2.816
66237W        W34631  30.272  12.913   4.713
66238W        W34632   1.983  38.960   4.238
66239W        W34633  41.126  10.176   1.144
66240W        W34634  42.790  22.143   1.904
66241W        W34635  21.481  44.935  10.551
66242W        W34636  10.287   3.214  11.143
66243W        W34637   6.889  28.195   3.794
66244W        W34638   3.316   3.007  10.228
66245W        W34639   2.542  34.104   1.511
66246W        W34640  32.891   9.579   3.384
66247W        W34641   8.186  33.522   2.151
66248W        W34642   3.639  33.573   2.825
66249W        W34643  17.299  36.436  13.218
66250W        W34644  39.280   4.208  14.443
66251W        W34645  32.638  13.794  13.511
66252W        W34646  30.354   7.107   1.686
66253W        W34647  33.558  11.824  13.059
66254W        W34648   2.877  28.349  11.443
66255W        W34649  39.532  42.458  14.796
66256W        W34650  38.020   5.800   1.126
66257W        W34651  39.513   5.887  14.247
66258W        W34652   7.435   0.836   3.652
66259W        W34653  13.532  23.525   4.616
66260W        W34654   4.677  41.837   1.124
66261W        W34655  23.322   2.738   0.826
66262W        W34656  18.974  39.461   3.939
66263W        W34657  43.752  24.013  13.908
66264W        W34658  19.805  15.722  10.671
66265W        W34659  44.197   6.106   2.840
66266W        W34660  20.404  35.301   0.311
66267W        W34661  14.172  20.236  10.887
66268W        W34662  29.288  36.840  14.262
66269W        W34663   5.270  24.204   5.374
66270W        W34664  25.135  32.566  13.594
66271W        W34665  33.626   1.932   1.382
66272W        W34666   6.296  30.640   2.869
66273W        W34667  12.206  44.402   2.707
66274W        W34668   0.332  25.631   1.701
66275W        W34669  12.950  34.067   2.204
66276W        W34670   0.304   0.471   2.159
66277W        W34671  31.553  13.766  10.777
66278W        W34672  31.149  17.742   4.090
66279W        W34673  43.776  20.658   1.447
66280W        W34674   1.727  13.960  10.265
66281W        W34675  36.714  19.726   0.490
66282W        W34676  39.980  33.008   1.729
66283W        W34677  12.428  32.669  13.441
66284W        W34678  11.353  36.001   2.895
66285W        W34679  37.897  28.230   0.737
66286W        W34680  15.732   6.834  13.659
66287W        W34681  22.472  34.859  14.405
66288W        W34682  34.601  39.133  14.809
66289W        W34683  38.284  10.849   3.380
66290W        W34684   6.798  37.094  10.636
66291W        W34685  24.213  18.383   3.630
66292W        W34686  11.260  13.074   2.321
66293W        W34687   5.672  16.231  10.443
66294W        W34688  10.933   3.981  11.993
66295W        W34689  25.526  12.278  13.451
66296W        W34690  15.712  24.129   4.167
66297W        W34691  14.327  40.828   1.686
66298W        W34692  23.084  13.183  14.418
66299W        W34693   3.240  32.114  10.757
66300W        W34694   2.873  30.433   0.874
66301W        W34695  39.814  30.699   4.065
66302W        W34696  25.731  28.412  12.135
66303W        W34697  16.710  19.275   0.892
66304W        W34698  29.037   7.500   0.479
66305W        W34699  27.617   5.030   2.192
66306W        W34700  17.029  14.359  12.991
66307W        W34701  42.007   8.424  14.674
66308W        W34702  26.851  24.544   0.034
66309W        W34703   5.433   4.469  11.171
66310W        W34704   6.122   1.139   2.409
66311W        W34705  12.653  23.071   1.250
66312W        W34706  23.292  19.549   4.604
66313W        W34707  17.266  42.054   1.887
66314W        W34708  17.773   2.428  13.056
66315W        W34709  42.464  30.654  13.868
66316W        W34710   2.000  31.016   2.259
66317W        W34711  37.096  36.809   4.627
66318W        W34712   4.236  12.596  13.475
66319W        W34713   0.578  11.438   2.705
66320W        W34714  29.108  41.928  14.021
66321W        W34715  44.401  12.887   0.360
66322W        W34716   7.205  37.368   4.751
66323W        W34717  27.993  21.192  13.253
66324W        W34718  40.470  43.157   2.244
66325W        W34719  34.869  32.940   1.780
66326W        W34720  10.163  15.987  10.748
66327W        W34721  40.418  25.711   2.892
66328W        W34722  42.772  17.309   0.830
66329W        W34723   7.678  41.026   1.078
66330W        W34724  40.478  42.028  12.849
66331W        W34725  29.577  22.090   2.882
66332W        W34726  15.556  26.617  11.169
66333W        W34727   1.029  10.223   0.465
66334W        W34728  36.063   3.735  11.026
66335W        W34729  33.134  20.468   4.535
66336W        W34730   1.526  21.200  12.052
66337W        W34731  28.567  23.241   3.346
66338W        W34732  29.543  38.492  14.224
66339W        W34733  30.802  18.226  13.842
66340W        W34734  13.387  24.552   0.844
66341W        W34735  22.457   2.983  14.933
66342W        W34736  18.595  33.180   0.272
66343W        W34737   7.245  13.734  10.608
66344W        W34738   4.808  30.310  12.524
66345W        W34739   3.808  15.282  11.232
66346W        W34740  34.979  40.894  13.358
66347W        W34741  44.497   0.417   0.927
66348W        W34742   4.384  22.118   1.508
66349W        W34743  27.538  13.273   4.748
66350W        W34744   1.809  26.811  13.446
66351W        W34745  40.922   5.424   3.782
66352W        W34746  19.076   5.895   3.691
66353W        W34747  42.002  22.893   2.593
66354W        W34748  37.067  11.619   2.313
66355W        W34749  37.508  38.804   4.005
66356W        W34750  33.595   0.514   2.510
66357W        W34751   7.758   1.223   2.878
66358W        W34752   8.214  40.810   3.524
66359W        W34753   9.090  18.669   3.570
66360W        W34754  16.119   5.527  12.820
66361W        W34755  24.119  43.355   0.195
66362W        W34756   6.819  23.755  14.997
66363W        W34757  16.346  15.621   4.290
66364W        W34758   1.655  31.978  11.671
66365W        W34759   9.702  19.267  11.138
66366W        W34760   4.358   0.214   4.154
66367W        W34761  28.807  25.700  10.729
66368W        W34762  40.072  43.690  13.172
66369W        W34763   9.364  31.960  13.888
66370W        W34764  17.127  37.321   5.667
66371W        W34765   1.121  10.830  13.030
66372W        W34766  10.850  20.281   1.035
66373W        W34767  28.583  16.750   1.539
66374W        W34768  37.181  36.699   2.231
66375W        W34769  34.410  10.244   3.585
66376W        W34770  21.192   0.914  10.964
66377W        W34771   4.271  29.676  14.891
66378W        W34772  11.574  14.318  13.976
66379W        W34773  25.910  20.883  14.853
66380W        W34774  12.144  25.553  12.927
66381W        W34775   6.368  14.089   3.092
66382W        W34776  32.167  25.782   4.110
66383W        W34777   1.807   6.990   1.261
66384W        W34778  39.981  13.029  12.336
66385W        W34779  35.929  30.765   3.403
66386W        W34780  11.244  38.886   1.431
66387W        W34781  24.025  44.383  10.915
66388W        W34782  23.953   2.852  13.516
66389W        W34783   5.309  18.110  10.774
66390W        W34784  16.857  26.098   0.253
66391W        W34785  17.550   7.293  12.869
66392W        W34786  40.841  14.825  12.477
66393W        W34787   4.544  25.641  10.107
66394W        W34788  18.790  34.003   4.728
66395W        W34789  44.238  22.561   0.294
66396W        W34790  28.031  33.150  12.016
66397W        W34791  20.573  32.418   4.563
66398W        W34792  25.208  36.363  10.764
66399W        W34793   9.891  11.692  13.654
66400W        W34794  16.277   3.440  11.241
66401W        W34795   1.905  39.876   4.192
66402W        W34796  34.189  43.841  10.676
66403W        W34797  17.656   7.966   5.015
66404W        W34798  23.915  36.363   3.192
66405W        W34799   9.773  22.041  12.617
66406W        W34800  37.480  16.519   0.489
66407W        W34801  19.207  18.980  13.854
66408W        W34802  42.424  27.894   4.938
66409W        W34803  43.234  40.446   2.428
66410W        W34804  17.045  11.638  11.098
66411W        W34805  35.240  26.680  13.203
66412W        W34806  35.412  40.413   1.000
66413W        W34807  16.165  34.621  14.031
66414W        W34808  27.142  26.093   2.226
66415W        W34809   9.113  13.118   1.772
66416W        W34810  29.444  36.547   1.306
66417W        W34811   5.769  16.610  11.045
66418W        W34812  15.632   3.417   4.342
66419W        W34813  15.501  31.066  13.814
66420W        W34814  25.511   6.065   0.160
66421W        W34815  13.590  17.252   0.195
66422W        W34816  37.589  30.552  13.529
66423W        W34817  30.423  41.776  14.464
66424W        W34818   3.455  35.132  12.641
66425W        W34819  22.501  12.374   4.037
66426W        W34820  21.042  14.616   1.795
66427W        W34821  30.015  16.331   0.450
66428W        W34822  34.061  11.293   2.898
66429W        W34823   3.396  14.447  13.008
66430W        W34824   3.351  10.882  13.005
66431W        W34825  44.994  39.089   0.394
66432W        W34826  43.200  34.362   4.141
66433W        W34827   4.621  18.118  14.862
66434W        W34828  26.407  21.042   5.009
66435W        W34829  36.868  34.023   1.657
66436W        W34830  28.149  13.103  11.613
66437W        W34831  31.621   2.481  13.764
66438W        W34832   1.880  34.087  14.801
66439W        W34833  23.769   3.932   0.413
66440W        W34834   5.864   6.432  13.457
66441W        W34835  23.232   4.777   3.205
66442W        W34836   7.819  26.933  13.573
66443W        W34837   0.873   4.851   1.426
66444W        W34838  21.314   2.613   0.866
66445W        W34839   2.689  32.576   4.132
66446W        W34840  14.675  18.288   2.946
66447W        W34841  40.469  29.395   2.280
66448W        W34842  23.802  15.341  14.862
66449W        W34843  34.902  39.940  13.417
66450W        W34844  15.534   9.198  14.451
66451W        W34845  34.576  38.391  11.911
66452W        W34846  37.763  31.094  14.391
66453W        W34847  16.323   7.294  14.975
66454W        W34848   9.725  43.450  13.179
66455W        W34849  34.473  25.099  14.895
66456W        W34850  27.682  21.718   0.848
66457W        W34851  43.001  20.241   0.305
66458W        W34852  22.932  39.375   3.983
66459W        W34853   0.692  24.306  12.469
66460W        W34854   5.976  21.147   0.201
66461W        W34855  17.772  10.861  12.047
66462W        W34856  14.910   4.205  11.563
66463W        W34857  42.864  13.572  12.370
66464W        W34858  15.692   3.413  13.466
66465W        W34859   1.438  36.139  14.949
66466W        W34860  34.611  38.827  11.086
66467W        W34861  35.987  40.387   1.029
66468W        W34862  12.311  42.038  12.452
66469W        W34863  28.950  27.082   3.600
66470W        W34864  17.623  38.568   0.672
66471W        W34865  44.388  33.504  14.800
66472W        W34866  22.266   8.303  13.485
66473W        W34867  12.715  38.025   4.089
66474W        W34868  37.354   4.716  14.392
66475W        W34869  32.624  23.805   0.089
66476W        W34870  37.782  12.159  10.784
66477W        W34871  14.091  15.877  13.535
66478W        W34872  34.966  33.593  10.623
66479W        W34873  23.036  27.914   0.934
66480W        W34874  43.105  42.881  14.937
66481W        W34875  33.548  29.732  10.074
66482W        W34876  29.128  38.197   3.242
66483W        W34877  27.990  13.815   0.973
66484W        W34878  39.505  13.123  10.615
66485W        W34879   1.431  10.261   2.781
66486W        W34880  23.509  20.785  13.270
66487W        W34881   8.248  41.324   3.687
66488W        W34882  42.422  36.900  11.990
66489W        W34883  24.374   3.979   3.634
66490W        W34884  33.892  40.712  11.623
66491W        W34885   3.500  16.750  10.603
66492W        W34886  28.685  24.037  10.778
66493W        W34887  23.114  35.123   3.728
66494W        W34888  31.892   7.114  10.767
66495W        W34889  25.075   5.482   3.237
66496W        W34890  30.331  30.646  11.117
66497W        W34891   4.255  34.391   3.701
66498W        W34892  20.952  35.498  12.010
66499W        W34893  35.006  23.473   4.685
66500W        W34894   3.528  26.733   0.796
66501W        W34895   5.574  42.283   1.160
66502W        W34896  10.036  43.351   0.588
66503W        W34897  20.533   9.383  10.944
66504W        W34898  16.680  21.602   0.908
66505W        W34899  42.264  18.171   3.291
66506W        W34900  33.642  13.901  11.611
66507W        W34901  41.891  23.763   0.345
66508W        W34902  37.480   9.491  14.892
66509W        W34903  36.879  35.534   3.758
66510W        W34904  28.589  18.687   2.873
66511W        W34905  25.060  36.902  11.599
66512W        W34906  23.319   1.918  14.921
66513W        W34907  19.166  35.148  13.568
66514W        W34908  30.651  21.712  11.451
66515W        W34909  23.474  18.786   4.162
66516W        W34910  19.328  14.578   4.210
66517W        W34911  36.753  20.224   4.054
66518W        W34912  40.885   2.479   3.673
66519W        W34913   7.553  41.334  11.160
66520W        W34914  12.924  22.502   3.862
66521W        W34915  34.186  18.981  11.666
66522W        W34916   8.848  10.853  13.555
66523W        W34917  16.009  29.855   4.604
66524W        W34918  26.452  21.727   2.405
66525W        W34919   7.000  15.655   0.292
66526W        W34920   3.866   3.280   3.328
66527W        W34921  16.806  15.094   1.256
66528W        W34922  28.592   2.281  13.110
66529W        W34923  30.194   5.660   4.260
66530W        W34924   3.836  12.933  13.359
66531W        W34925  23.759  32.838  11.061
66532W        W34926  31.461  36.454   3.688
66533W        W34927  24.792  18.794  14.860
66534W        W34928  22.142   2.020   3.257
66535W        W34929  41.147   7.225   0.337
66536W        W34930  33.565  29.013  13.395
66537W        W34931   2.756  19.702   4.571
66538W        W34932  16.030   6.049   0.845
66539W        W34933  15.468   6.475   0.252
66540W        W34934  31.889  29.740   1.120
66541W        W34935  20.313  31.982   4.666
66542W        W34936   7.196  44.091   4.299
66543W        W34937  44.780  43.920   2.870
66544W        W34938  26.181  22.076  13.586
66545W        W34939  30.133  13.220  13.100
66546W        W34940  22.808  16.350   1.837
66547W        W34941  25.981   9.139   1.833
66548W        W34942  11.647   6.312  11.129
66549W        W34943  16.554  44.936  11.724
66550W        W34944   5.943  13.217  13.397
66551W        W34945  37.649  17.545  12.929
66552W        W34946  38.538   0.518  11.190
66553W        W34947  29.106  37.665  13.677
66554W        W34948  24.031  37.314  13.806
66555W        W34949   5.948  15.213  10.540
66556W        W34950   4.397  20.683  11.573
66557W        W34951  43.257   0.872  14.224
66558W        W34952  13.041  39.381  12.979
66559W        W34953  44.680  29.096   2.673
66560W        W34954  14.903  39.819  12.550
66561W        W34955  13.758  20.532  13.426
66562W        W34956  27.314   8.145   3.392
66563W        W34957  11.861  37.901   3.683
66564W        W34958   8.867   8.170  11.279
66565W        W34959  32.901   4.663   2.629
66566W        W34960  42.812  37.141   0.906
66567W        W34961  10.861  25.723  12.441
66568W        W34962   9.354  13.048   4.408
66569W        W34963  23.640   7.646  14.836
66570W        W34964   1.895  17.151   3.344
66571W        W34965  42.795  15.642   0.228
66572W        W34966   0.033   8.276   3.899
66573W        W34967   7.878   2.827   4.875
66574W        W34968  41.021  21.452  11.117
66575W        W34969   0.727  30.583   2.774
66576W        W34970   4.160  10.797   3.055
66577W        W34971  19.011  35.379   0.727
66578W        W34972  28.430  40.433   3.703
66579W        W34973  31.034   2.670   3.095
66580W        W34974   5.769   9.332   1.674
66581W        W34975  35.633  16.577   2.946
66582W        W34976  16.673   6.590   2.937
66583W        W34977  36.080   9.768   0.819
66584W        W34978  23.020  19.118   0.822
66585W        W34979   3.926  39.846   1.538
66586W        W34980  19.748  22.805  13.188
66587W        W34981  37.879  10.781  13.320
66588W        W34982  40.279  12.825   4.591
66589W        W34983  28.400  27.534  12.461
66590W        W34984  35.092  22.732  10.979
66591W        W34985   0.526   8.747   2.887
66592W        W34986   4.025  18.087   3.610
66593W        W34987  19.598  21.005   0.192
66594W        W34988  23.030   4.992   1.890
66595W        W34989  34.679  40.559  14.862
66596W        W34990  36.012  16.614  12.403
66597W        W34991  37.694  10.075   4.132
66598W        W34992  19.827   3.820   2.919
66599W        W34993   8.182   9.179  11.822
66600W        W34994  30.401  41.811   1.724
66601W        W34995  42.027  25.231  12.997
66602W        W34996   6.134  15.444   1.863
66603W        W34997  19.971  24.582  12.807
66604W        W34998   7.940  18.473   0.161
66605W        W34999  30.856  28.849  13.753
66606W        W35000  13.297  17.289  14.204
66607W        W35001  34.890  23.167  14.543
66608W        W35002  38.782  19.195  14.443
66609W        W35003  41.855  28.709   3.488
66610W        W35004   6.348  13.610  14.307
66611W        W35005  26.025   7.774  14.898
66612W        W35006  10.345  18.201   3.260
66613W        W35007  21.690  42.407   2.623
66614W        W35008  37.080  18.830   4.023
66615W        W35009  10.246  38.451   2.221
66616W        W35010  31.800   0.110  13.873
66617W        W35011   2.889   1.401  11.613
66618W        W35012  29.947  33.544  10.931
66619W        W35013  35.006  19.623  13.078
66620W        W35014  11.187  25.203   1.392
66621W        W35015  14.351  32.499  12.091
66622W        W35016  29.889  40.484   3.830
66623W        W35017  15.838   4.382   1.296
66624W        W35018  27.089   0.913   1.841
66625W        W35019   3.129  16.226  12.866
66626W        W35020  29.474  12.337   3.250
66627W        W35021  18.120  14.385   4.537
66628W        W35022  40.736   2.431  10.778
66629W        W35023  18.217  28.085   2.588
66630W        W35024  30.470  24.676   0.815
66631W        W35025  16.107   1.253   4.275
66632W        W35026   8.774  22.123  11.149
66633W        W35027  15.160  21.458   0.679
66634W        W35028  17.716  27.075   2.710
66635W        W35029   0.855  39.073  11.661
66636W        W35030  18.282  32.249  11.565
66637W        W35031  11.192  42.912  12.368
66638W        W35032  32.809   1.982   4.699
66639W        W35033  44.285  24.075   2.729
66640W        W35034   5.103  41.443  11.573
66641W        W35035   5.833   2.617   9.784
66642W        W35036  25.749   3.064  12.867
66643W        W35037  30.719  25.790  11.425
66644W        W35038   6.602  27.318   4.562
66645W        W35039  31.701  15.654   4.559
66646W        W35040  38.969  15.839  12.354
66647W        W35041  44.793  33.432   0.910
66648W        W35042   8.486   8.797  14.572
66649W        W35043  29.742  25.592  11.603
66650W        W35044  18.493  22.890   2.576
66651W        W35045   0.051  29.736   2.347
66652W        W35046  22.960   9.428  12.865
66653W        W35047  36.446   2.029  10.474
66654W        W35048  24.420  44.401   5.457
66655W        W35049  38.510   1.798   1.405
66656W        W35050   8.916  17.721   1.268
66657W        W35051   0.821  10.404  14.727
66658W        W35052  27.179   4.343  14.451
66659W        W35053  28.075   4.514  11.621
66660W        W35054  32.064  11.316  10.823
66661W        W35055  10.727  17.591   1.856
66662W        W35056   8.685  38.293  11.161
66663W        W35057  15.014  12.023  11.136
66664W        W35058   1.206  12.794  13.187
66665W        W35059   4.689   3.779  11.076
66666W        W35060  23.481  13.207   0.193
66667W        W35061  33.491  17.144   4.615
66668W        W35062  13.257  26.164  12.563
66669W        W35063   3.429  23.925  12.804
66670W        W35064   7.873  38.572   1.198
66671W        W35065  11.295   1.178  11.158
66672W        W35066  22.782  44.806  12.303
66673W        W35067  22.469  24.114  12.983
66674W        W35068  28.603   9.253   4.745
66675W        W35069  23.158  10.106  13.576
66676W        W35070  34.894   8.718  13.091
66677W        W35071  41.415  42.365   4.300
66678W        W35072  19.261  34.457  13.979
66679W        W35073  25.242  28.995  12.864
66680W        W35074   7.185  11.325   2.254
66681W        W35075  35.829  30.377   1.252
66682W        W35076  35.817  20.319   3.674
66683W        W35077  14.574  40.063  13.413
66684W        W35078  36.460  14.614   1.786
66685W        W35079  31.644  18.610  11.979
66686W        W35080  15.935   6.365  11.647
66687W        W35081  10.573  42.907  12.019
66688W        W35082  16.927  23.131  12.802
66689W        W35083  42.996  42.069   0.943
66690W        W35084  43.913  17.024  13.312
66691W        W35085   0.186  30.173  13.391
66692W        W35086  33.602  17.532   1.326
66693W        W35087  43.886   7.138  11.569
66694W        W35088  30.026  15.334  11.578
66695W        W35089   5.254  44.253  13.543
66696W        W35090   1.683  32.417   4.293
66697W        W35091  42.975  39.702   1.275
66698W        W35092  20.544  17.496  14.942
66699W        W35093  27.440  24.517   0.652
66700W        W35094  25.174  30.536  11.090
66701W        W35095   3.902  41.074   0.504
66702W        W35096  40.212  32.774  11.878
66703W        W35097  20.383  25.958   2.266
66704W        W35098   0.168  34.442  11.756
66705W        W35099  26.428  28.942  13.510
66706W        W35100  33.409  35.990  11.989
66707W        W35101  15.121   0.530  13.468
66708W        W35102  39.032  32.080  10.645
66709W        W35103  36.984  24.956  14.442
66710W        W35104  42.280  32.481   2.368
66711W        W35105  18.008   7.632   2.793
66712W        W35106  28.026  37.579  14.276
66713W        W35107  10.390  17.588  13.790
66714W        W35108  27.899  29.049   1.498
66715W        W35109   6.876  25.250   2.708
66716W        W35110   2.519  17.822  12.867
66717W        W35111  29.982  33.302   0.290
66718W        W35112  15.160  29.630  11.290
66719W        W35113  27.408  31.490   4.644
66720W        W35114   4.039   5.448   4.886
66721W        W35115  16.840  26.660  10.675
66722W        W35116   2.191  15.855  11.195
66723W        W35117  21.557  39.591   0.505
66724W        W35118  12.300  28.569   3.727
66725W        W35119  38.030  22.531   2.903
66726W        W35120   5.386  13.195   1.955
66727W        W35121  24.100  32.215   2.708
66728W        W35122  34.571  39.788  11.138
66729W        W35123  29.110  37.821  14.674
66730W        W35124   8.873  28.391   4.289
66731W        W35125  40.858  17.400   4.050
66732W        W35126   4.655  39.080  14.797
66733W        W35127  22.675   5.123  13.468
66734W        W35128  31.581  16.356  12.833
66735W        W35129  31.560  19.266  12.693
66736W        W35130  22.698  43.711   2.305
66737W        W35131  42.339  20.970   4.285
66738W        W35132  24.011  23.657   2.716
66739W        W35133  33.029  39.220  11.657
66740W        W35134  38.304  22.468  12.518
66741W        W35135  21.522  25.890   4.686
66742W        W35136  39.157  20.211  14.765
66743W        W35137  13.710  34.943  13.641
66744W        W35138  31.596  14.861  13.046
66745W        W35139  32.307  13.501  11.206
66746W        W35140  19.593  32.829  14.389
66747W        W35141  42.511  16.119  14.146
66748W        W35142  31.379  12.623  11.541
66749W        W35143  13.089   0.419  12.191
66750W        W35144  11.395  25.754  14.362
66751W        W35145   7.756  42.094  12.016
66752W        W35146  30.671  10.266  13.089
66753W        W35147  28.462   7.771   4.268
66754W        W35148  31.247  19.944   2.770
66755W        W35149  26.595  22.360  10.676
66756W        W35150  21.815  30.688  12.502
66757W        W35151   2.352   4.782   2.365
66758W        W35152  10.347  39.781   1.924
66759W        W35153   8.839  27.455   0.399
66760W        W35154  12.136   2.481   2.618
66761W        W35155  21.192  31.212  10.983
66762W        W35156  43.733   9.878  10.481
66763W        W35157  12.366  43.497  12.922
66764W        W35158  37.129  21.593   4.709
66765W        W35159  40.916  26.831  14.925
66766W        W35160  26.633  41.840   1.798
66767W        W35161  26.277   9.573  10.115
66768W        W35162  39.900  23.977  11.608
66769W        W35163   5.121  28.557   3.873
66770W        W35164  38.463  39.191  11.275
66771W        W35165  12.302  37.109  13.461
66772W        W35166   6.408   4.995  14.033
66773W        W35167  11.779  21.576  13.310
66774W        W35168  25.561   5.807   4.112
66775W        W35169  19.599  37.368   1.323
66776W        W35170  38.083   0.916   2.199
66777W        W35171  44.743  25.011  12.080
66778W        W35172  10.611  32.512   2.091
66779W        W35173  37.495   8.251   2.268
66780W        W35174  35.360  19.546   1.204
66781W        W35175  22.423  21.523   2.407
66782W        W35176  10.701  42.598   4.895
66783W        W35177  17.604  18.909  13.407
66784W        W35178   2.233  35.016  13.523
66785W        W35179  41.238  20.479   0.405
66786W        W35180  16.589  30.499   3.702
66787W        W35181  41.903   8.550   3.294
66788W        W35182  21.235  28.341  11.580
66789W        W35183  37.444  29.954   4.704
66790W        W35184  20.276  15.768   0.952
66791W        W35185  44.427  21.532   3.802
66792W        W35186  37.020  40.750  14.816
66793W        W35187  38.041  35.027  11.543
66794W        W35188  25.768  28.896  13.054
66795W        W35189   3.646  41.343  13.806
66796W        W35190  42.771   0.411  10.420
66797W        W35191  21.237  35.122  11.135
66798W        W35192  26.116  21.008   1.307
66799W        W35193  41.895  12.748   3.707
66800W        W35194  28.510   5.217   2.176
66801W        W35195  40.496   6.223   2.367
66802W        W35196  13.301  22.499   4.577
66803W        W35197  38.112  23.635   1.469
66804W        W35198  11.079  42.557  14.763
66805W        W35199  15.357  32.185   1.435
66806W        W35200  41.276  16.670  11.588
66807W        W35201  29.718  22.991  12.956
66808W        W35202  13.871  33.451   0.427
66809W        W35203  29.689  20.739   0.671
66810W        W35204  19.574  40.361   3.720
66811W        W35205  18.174  24.853   2.260
66812W        W35206  28.626  20.319  11.623
66813W        W35207  15.599  18.442  12.483
66814W        W35208  25.622  44.260   1.286
66815W        W35209   1.453   5.347  11.875
66816W        W35210  10.590   1.358  11.027
66817W        W35211  43.599  36.316   1.114
66818W        W35212  13.653  29.677  11.215
66819W        W35213   4.387  29.396  12.462
66820W        W35214  19.221  26.409   4.038
66821W        W35215   3.279  30.350  10.243
66822W        W35216  25.505  29.940   3.607
66823W        W35217  42.777  27.114  13.047
66824W        W35218  13.879  10.238   4.116
66825W        W35219  20.006  35.476   0.036
66826W        W35220  24.566  15.147  12.889
66827W        W35221  31.236  24.790  10.989
66828W        W35222  42.042   5.717  10.991
66829W        W35223  16.112   4.964   2.303
66830W        W35224  25.716  23.025   3.229
66831W        W35225  17.723  39.759   9.971
66832W        W35226  38.319  31.661  13.117
66833W        W35227  16.598  16.475   1.734
66834W        W35228  25.222  21.225  13.351
66835W        W35229   9.006  29.070   2.095
66836W        W35230  16.293   5.176  12.412
66837W        W35231  39.999  26.622   1.188
66838W        W35232  10.018  11.484   3.759
66839W        W35233  16.145  44.956  11.198
66840W        W35234   5.735   8.189   2.672
66841W        W35235  33.213   5.252  13.558
66842W        W35236  18.767  28.512   4.299
66843W        W35237  37.148  27.296  10.749
66844W        W35238   2.436  38.072  13.969
66845W        W35239  13.007  11.583  10.712
66846W        W35240  28.582   0.747  11.813
66847W        W35241  13.021  22.234  14.891
66848W        W35242  31.930  37.913  14.910
66849W        W35243  36.159  33.085  12.689
66850W        W35244  29.640   2.891   1.723
66851W        W35245  44.988   2.350  11.905
66852W        W35246  28.635  40.257   4.663
66853W        W35247  19.817  27.290   3.119
66854W        W35248  27.551  15.804  10.932
66855W        W35249  34.567  26.182  12.902
66856W        W35250  44.500  33.226   4.605
66857W        W35251   4.928  39.133  13.062
66858W        W35252   0.307  10.478   2.834
66859W        W35253  37.353  27.447   2.387
66860W        W35254   3.985  27.774   0.251
66861W        W35255  10.354  32.129   9.860
66862W        W35256  38.816  13.502   0.004
66863W        W35257  25.572   2.675  11.276
66864W        W35258   7.289  42.761   4.968
66865W        W35259  41.513  28.953  12.530
66866W        W35260  43.752  13.800   1.853
66867W        W35261  42.963  10.586  13.892
66868W        W35262  27.604  21.156   1.772
66869W        W35263   7.877   9.620  13.760
66870W        W35264   5.897  12.452  13.775
66871W        W35265  36.428  39.616  14.379
66872W        W35266  14.294  35.202  11.301
66873W        W35267  25.224  35.251  11.089
66874W        W35268  27.949   6.950   3.230
66875W        W35269  29.731  24.661   0.284
66876W        W35270  32.063  26.915  12.436
66877W        W35271   1.780   6.502   1.109
66878W        W35272  29.029   1.982  13.086
66879W        W35273  36.412  42.272   3.851
66880W        W35274  21.227  24.225  13.551
66881W        W35275  35.376  25.644   4.202
66882W        W35276  30.831  15.612   1.380
66883W        W35277  18.868  44.698   3.725
66884W        W35278  13.126  41.612   1.920
66885W        W35279   1.718  14.214   4.576
66886W        W35280  35.800   3.478   0.925
66887W        W35281   3.294  40.427   2.484
66888W        W35282  10.158  10.166  12.910
66889W        W35283  19.601   8.144  14.104
66890W        W35284  31.916  37.953   1.753
66891W        W35285  29.894   0.861  14.774
66892W        W35286  25.766  38.461  14.558
66893W        W35287  13.080  14.327   2.865
66894W        W35288  18.885   4.917  11.501
66895W        W35289  31.781   9.882   1.348
66896W        W35290   4.483  23.663  14.845
66897W        W35291  44.330  24.610   2.056
66898W        W35292  32.038  40.738   4.126
66899W        W35293  29.151  44.029  13.121
66900W        W35294  39.012  25.756  13.894
66901W        W35295   1.403  39.533  11.528
66902W        W35296  39.024  29.648  11.438
66903W        W35297  39.801  41.492  14.208
66904W        W35298   9.656  14.133   1.369
66905W        W35299  30.066   9.060   1.428
66906W        W35300  22.864   8.318   1.209
66907W        W35301   4.255   0.460   3.633
66908W        W35302  32.638  10.607  14.741
66909W        W35303  13.422  26.252  13.066
66910W        W35304  21.939   4.900   3.872
66911W        W35305   3.006   8.386  13.285
66912W        W35306  24.383  22.244  13.793
66913W        W35307   7.302  13.644  14.445
66914W        W35308  29.750  17.936  10.061
66915W        W35309   6.276  12.798   2.344
66916W        W35310  23.233  22.054  12.489
66917W        W35311  15.021  19.541   2.630
66918W        W35312  15.120  19.564  10.925
66919W        W35313  41.509  44.547   4.283
66920W        W35314   8.171  38.889  11.598
66921W        W35315   9.967  18.652   3.152
66922W        W35316  22.195   5.772   4.066
66923W        W35317  44.474  20.314  10.738
66924W        W35318   6.468  17.062  14.892
66925W        W35319  39.447  25.446  14.694
66926W        W35320  35.564   3.837   2.774
66927W        W35321  10.208   2.185   3.659
66928W        W35322  32.527  19.842   0.062
66929W        W35323  16.798  37.699  10.729
66930W        W35324   8.604  43.212  14.880
66931W        W35325  42.870  36.640  12.104
66932W        W35326   7.129  18.167   2.849
66933W        W35327  20.208   8.385  13.458
66934W        W35328  36.777  10.332   2.462
66935W        W35329  37.603  16.760  10.716
66936W        W35330  33.488  37.748   2.117
66937W        W35331   1.922   0.497   1.109
66938W        W35332   9.668  25.478  11.567
66939W        W35333  26.916  39.400   0.718
66940W        W35334  37.888  43.246   0.656
66941W        W35335  27.452  40.513  14.462
66942W        W35336  24.200  38.051   1.735
66943W        W35337  21.452  19.105   3.647
66944W        W35338  14.131  27.677  11.065
66945W        W35339  42.565  29.680  10.529
66946W        W35340  17.887  36.933   5.562
66947W        W35341   3.476   5.569  10.591
66948W        W35342  16.407  17.008  11.660
66949W        W35343  29.046  14.140   2.581
66950W        W35344  41.493  29.054  14.772
66951W        W35345  41.964  34.623   2.336
66952W        W35346  29.696   6.189   1.835
66953W        W35347  24.592   2.008   3.736
66954W        W35348  34.920  38.033  14.779
66955W        W35349  19.908  17.247   4.048
66956W        W35350  38.859  16.377  14.932
66957W        W35351  23.287  25.926   0.687
66958W        W35352   6.853  34.155   4.057
66959W        W35353  15.286  17.529   3.165
66960W        W35354  39.000  30.488  12.009
66961W        W35355  19.313  28.064   1.294
66962W        W35356  21.581   0.230  13.424
66963W        W35357   5.705   2.981   3.319
66964W        W35358  38.807   7.742  14.877
66965W        W35359   1.234  12.833   0.648
66966W        W35360  17.843   9.678   2.459
66967W        W35361  38.007  32.869   4.761
66968W        W35362  41.047  20.190   3.161
66969W        W35363  14.789  29.462  14.865
66970W        W35364   2.713  39.325  13.389
66971W        W35365  33.010  40.267   2.927
66972W        W35366  15.709  37.796   3.306
66973W        W35367   1.932   9.533  13.901
66974W        W35368  41.315  13.967  12.150
66975W        W35369  37.945  17.646   2.577
66976W        W35370   1.832  26.551   0.016
66977W        W35371  25.774  35.539   1.455
66978W        W35372  26.589  37.551   0.471
66979W        W35373  22.361  33.057  13.053
66980W        W35374  21.020  10.252  14.455
66981W        W35375  32.970  34.893  13.942
66982W        W35376   1.394  39.961  14.544
66983W        W35377  10.755  29.374  13.504
66984W        W35378  21.286   8.847  11.953
66985W        W35379  14.035  10.878   3.763
66986W        W35380   9.330  26.971  11.082
66987W        W35381  32.500  43.933  14.125
66988W        W35382  16.605  20.610   3.178
66989W        W35383  19.679  29.647  10.218
66990W        W35384  35.580  16.531   4.229
66991W        W35385  36.349  13.400  13.341
66992W        W35386  27.343  38.907  10.987
66993W        W35387  10.154   7.670   2.646
66994W        W35388   2.491   5.702   2.938
66995W        W35389  26.663   7.460   3.065
66996W        W35390  17.016  33.600  11.121
66997W        W35391   2.014  37.096   1.239
66998W        W35392   1.787   7.822   4.555
66999W        W35393   4.974  25.200  12.846
67000W        W35394  34.544  43.043  12.962
67001W        W35395  32.901   3.600  12.063
67002W        W35396  12.150  28.947   1.840
67003W        W35397  25.035  28.239   1.220
67004W        W35398   4.879  17.023   2.791
67005W        W35399  31.247  30.175   2.408
67006W        W35400  25.275  19.987  12.997
67007W        W35401  42.824  12.268   1.314
67008W        W35402  40.751  21.267  11.525
67009W        W35403  38.823  19.200   1.774
67010W        W35404  39.367  36.450  13.882
67011W        W35405  15.009   4.142   0.346
67012W        W35406  25.716  33.090  11.388
67013W        W35407  14.208   9.906   3.670
67014W        W35408   4.989  21.786   2.669
67015W        W35409  15.708  40.774   2.834
67016W        W35410  22.269  21.115  10.879
67017W        W35411  38.839   6.793  13.283
67018W        W35412  15.651  38.806   2.996
67019W        W35413  19.852   7.301  14.267
67020W        W35414  23.035  32.944  12.343
67021W        W35415   9.730  24.540   1.169
67022W        W35416  41.968  20.650   2.199
67023W        W35417  22.796  19.615   1.756
67024W        W35418  37.664  33.489  14.143
67025W        W35419   1.492  31.504   2.938
67026W        W35420   7.377  28.166  12.592
67027W        W35421  11.792  23.761  11.613
67028W        W35422  43.387  44.697   3.057
67029W        W35423  24.394  25.705  14.836
67030W        W35424  43.921  35.510  10.537
67031W        W35425   1.719   6.387  10.544
67032W        W35426  32.074  23.050  10.926
67033W        W35427   5.178  38.505  14.005
67034W        W35428  24.163  37.743   4.610
67035W        W35429  17.826  13.252   1.380
67036W        W35430  19.810  43.479  11.978
67037W        W35431   1.989  27.069   4.238
67038W        W35432  37.479  24.077  11.382
67039W        W35433  24.909  26.177   4.577
67040W        W35434  36.891  22.422  11.111
67041W        W35435  39.038  15.382  10.180
67042W        W35436  33.620  22.183  10.611
67043W        W35437  18.112  22.185  11.928
67044W        W35438  25.576  22.772  10.658
67045W        W35439  25.707  38.689  13.824
67046W        W35440  41.837   0.754   4.545
67047W        W35441  12.672  18.546  11.909
67048W        W35442   1.184  43.417  13.235
67049W        W35443  15.094  44.403  12.408
67050W        W35444  25.125   9.213  14.737
67051W        W35445   3.985  33.152  13.986
67052W        W35446  12.250   6.066   1.748
67053W        W35447  37.541  24.131  11.881
67054W        W35448  10.699  16.101  12.952
67055W        W35449  13.640  14.603   2.946
67056W        W35450   4.469  39.871   4.159
67057W        W35451  20.822  27.160  13.013
67058W        W35452  37.020  42.782   3.212
67059W        W35453  10.181   9.909   4.727
67060W        W35454  23.610  27.416   1.443
67061W        W35455  15.547  12.715  14.972
67062W        W35456   1.554   5.378   2.139
67063W        W35457  33.425  16.420   0.009
67064W        W35458  37.114  31.149  12.721
67065W        W35459  24.560   8.390   0.544
67066W        W35460   1.764  20.974  14.830
67067W        W35461  14.477  28.706   4.047
67068W        W35462  32.113  21.547   1.003
67069W        W35463   5.403  15.913  13.012
67070W        W35464  21.609  14.040   4.603
67071W        W35465   3.738  19.137  11.630
67072W        W35466  32.741  32.190   2.396
67073W        W35467  20.201  21.757   2.695
67074W        W35468  12.748  22.592   0.978
67075W        W35469   5.081  19.754  10.240
67076W        W35470   7.189  34.826  10.500
67077W        W35471  16.786  30.694  13.714
67078W        W35472  22.810  38.929   1.675
67079W        W35473  30.869  15.052   1.769
67080W        W35474  17.940   8.761  10.697
67081W        W35475  17.627  21.147   3.646
67082W        W35476   2.971  12.558  11.925
67083W        W35477  40.729  24.582   4.100
67084W        W35478  24.587  44.157   3.228
67085W        W35479  34.250  26.654  14.941
67086W        W35480  11.885  17.525  12.187
67087W        W35481  19.114  35.658  11.022
67088W        W35482   3.892  44.354  10.207
67089W        W35483  21.121   9.717   4.102
67090W        W35484   0.498  30.989   4.079
67091W        W35485   3.977  36.573   0.145
67092W        W35486  30.794  29.541   4.358
67093W        W35487  31.484  23.210  12.642
67094W        W35488  25.542  22.160  11.463
67095W        W35489  12.586  31.117  11.000
67096W        W35490  10.989  40.762   3.238
67097W        W35491  31.470  35.852   0.988
67098W        W35492   8.179  35.080  14.195
67099W        W35493  37.408  38.468  12.513
67100W        W35494  16.537   2.700  14.923
67101W        W35495  27.122   4.405   2.232
67102W        W35496   9.889  11.291   0.888
67103W        W35497  31.670  12.789  12.096
67104W        W35498   9.624   9.488   4.198
67105W        W35499  28.688  26.652   3.720
67106W        W35500   1.692  16.068   2.908
67107W        W35501   1.684  41.496  12.050
67108W        W35502   4.905   3.313   0.271
67109W        W35503  39.300  15.693   1.891
67110W        W35504   5.438  37.300   2.856
67111W        W35505   3.237  15.781  12.142
67112W        W35506  44.724  19.495  14.240
67113W        W35507  40.449  33.513  14.553
67114W        W35508  41.872  30.330  11.348
67115W        W35509  18.871  28.056  14.874
67116W        W35510  21.150  10.997   0.256
67117W        W35511   4.795  37.562  12.136
67118W        W35512  14.052  34.322  14.417
67119W        W35513  26.433  21.152   4.522
67120W        W35514   5.954  20.016  11.118
67121W        W35515  14.118  10.247   4.574
67122W        W35516   5.868   5.572   1.387
67123W        W35517  13.278  43.697  13.340
67124W        W35518  20.500  35.605  13.744
67125W        W35519   8.508   3.111  13.545
67126W        W35520  30.033  12.831  14.987
67127W        W35521  22.797  41.500   2.367
67128W        W35522  26.153  44.881  14.629
67129W        W35523  34.424   0.472  12.491
67130W        W35524   1.825  25.069  10.724
67131W        W35525   2.460  23.590   3.233
67132W        W35526  21.457  36.406  12.348
67133W        W35527  43.378   2.457  12.611
67134W        W35528  21.511  22.808   1.491
67135W        W35529   0.891  29.985  10.951
67136W        W35530  35.604  39.962   4.246
67137W        W35531  11.144   7.614  13.088
67138W        W35532  16.316  18.623   3.079
67139W        W35533  35.021  39.847   0.489
67140W        W35534  27.574  41.265  11.501
67141W        W35535  19.636  39.787  11.587
67142W        W35536  29.591   2.919   3.902
67143W        W35537  10.861  18.329   4.435
67144W        W35538  25.708  15.843  13.492
67145W        W35539  27.451  21.715  12.296
67146W        W35540  42.853  32.346   0.434
67147W        W35541   6.230   0.836   1.776
67148W        W35542  32.995   1.191  12.856
67149W        W35543   7.179  20.520   2.140
67150W        W35544   4.395  31.485  14.345
67151W        W35545   6.970   1.326  12.201
67152W        W35546  17.002  12.138  14.784
67153W        W35547  13.721  35.086   3.642
67154W        W35548  14.372  15.160  13.795
67155W        W35549   9.609   4.285   4.591
67156W        W35550  26.064  14.260  11.209
67157W        W35551  25.864  34.234   4.510
67158W        W35552   4.134  23.564   0.888
67159W        W35553  10.757  28.481  13.703
67160W        W35554  39.373   6.670   0.433
67161W        W35555  10.728  13.194   1.203
67162W        W35556   4.803  24.603   3.610
67163W        W35557  25.539  38.205  13.842
67164W        W35558  13.348   7.449   4.448
67165W        W35559  36.616   0.220  13.049
67166W        W35560  20.445  16.230   1.491
67167W        W35561  19.233  43.061   4.106
67168W        W35562   4.724  10.250  11.033
67169W        W35563  27.169  41.110   3.742
67170W        W35564  26.250  18.089   3.311
67171W        W35565  22.131  30.242   1.222
67172W        W35566  15.606   9.275   1.269
67173W        W35567  32.532  44.653   0.888
67174W        W35568  31.238  43.952  12.996
67175W        W35569  38.768  32.957  14.978
67176W        W35570  12.790  20.662  11.473
67177W        W35571  40.503  22.158   2.837
67178W        W35572  40.930   1.722  10.884
67179W        W35573   0.444  25.564   2.305
67180W        W35574  19.369  43.813  12.838
67181W        W35575  37.963  36.498   3.811
67182W        W35576  26.575   5.958  10.261
67183W        W35577  44.419  33.112  14.462
67184W        W35578  12.341   9.701   1.288
67185W        W35579  15.299  43.315   1.278
67186W        W35580  24.133  41.105   0.270
67187W        W35581  35.588  15.618  11.273
67188W        W35582  44.200  43.952   1.470
67189W        W35583  44.098  28.555  14.372
67190W        W35584   5.603  18.765  11.421
67191W        W35585  11.295  13.236   0.360
67192W        W35586   7.248   0.235  14.911
67193W        W35587  43.886   2.446   3.579
67194W        W35588  31.271   8.838  10.811
67195W        W35589  19.294   6.220  14.033
67196W        W35590   2.453   2.833   4.686
67197W        W35591  41.050  32.700   0.004
67198W        W35592  41.993  41.021  12.560
67199W        W35593  44.420  15.065  10.724
67200W        W35594  17.629   6.583   0.090
67201W        W35595  12.569  22.431  14.672
67202W        W35596  13.107   9.919   2.402
67203W        W35597  16.569  12.775   2.748
67204W        W35598  11.806  38.950   2.365
67205W        W35599  37.298   3.008   2.725
67206W        W35600  25.028  21.203  14.347
67207W        W35601  31.783  13.587  14.803
67208W        W35602  22.700  31.916   4.498
67209W        W35603  38.545  19.576   4.654
67210W        W35604   8.296  30.644  12.638
67211W        W35605   3.876  28.584  13.779
67212W        W35606  15.535  35.139   1.270
67213W        W35607  22.511  15.754   0.871
67214W        W35608  30.200   2.430   1.103
67215W        W35609   1.483   4.931  12.174
67216W        W35610  40.502  31.658   1.653
67217W        W35611  13.713  16.259   4.613
67218W        W35612  36.901  24.795  11.628
67219W        W35613   9.269  40.797  14.022
67220W        W35614  22.618  14.266  11.653
67221W        W35615  25.736  12.462  12.029
67222W        W35616  13.953  30.989  11.483
67223W        W35617  33.088  32.069  13.042
67224W        W35618  40.985  32.616   2.132
67225W        W35619   2.114   1.416  14.294
67226W        W35620  11.046  20.987   4.429
67227W        W35621  24.639   7.867  14.957
67228W        W35622  17.282  42.020  12.536
67229W        W35623  43.319  28.558  11.463
67230W        W35624  28.464   8.731   1.434
67231W        W35625  29.007  10.596   3.729
67232W        W35626  14.591  36.152  13.785
67233W        W35627  39.436  33.674  14.262
67234W        W35628  17.286  29.214   1.918
67235W        W35629  24.270  33.105  13.187
67236W        W35630  17.742  44.555  12.037
67237W        W35631  24.261  31.073  11.593
67238W        W35632  20.479  17.291  10.671
67239W        W35633  16.786  10.638  12.412
67240W        W35634  28.700  11.219   2.400
67241W        W35635   8.563   5.231   0.054
67242W        W35636   7.933  39.365  10.712
67243W        W35637  14.875  10.114   2.189
67244W        W35638  30.091  34.116   0.395
67245W        W35639  12.610  37.361   0.763
67246W        W35640  41.303   1.695   2.755
67247W        W35641  19.000  39.951  12.417
67248W        W35642  20.065  11.861  14.293
67249W        W35643   4.595  19.549   3.725
67250W        W35644  40.853   8.802  12.436
67251W        W35645  40.574   6.668  10.956
67252W        W35646   0.268  23.361   4.560
67253W        W35647   1.685   0.282  13.480
67254W        W35648   3.247  26.545  12.139
67255W        W35649   6.858  38.346  13.994
67256W        W35650  34.297  35.257   3.431
67257W        W35651  12.586   7.782   0.773
67258W        W35652  27.641  37.710  14.917
67259W        W35653   3.266   8.931   0.554
67260W        W35654   2.951  28.292  13.052
67261W        W35655  11.074  36.090   0.803
67262W        W35656   2.863   4.853  11.528
67263W        W35657  11.435  33.987   0.940
67264W        W35658  27.582   3.243   5.198
67265W        W35659  41.968   3.948  10.365
67266W        W35660  38.560  17.667  12.834
67267W        W35661  23.574   7.941  10.535
67268W        W35662  36.438  11.091   0.265
67269W        W35663  33.582  23.219  11.307
67270W        W35664  35.698  24.149  11.545
67271W        W35665  38.585  28.572   4.610
67272W        W35666  25.909  37.258   4.351
67273W        W35667  11.849  40.742   2.644
67274W        W35668  28.629  21.269  14.360
67275W        W35669  13.981  44.414  12.968
67276W        W35670  36.890   2.416   4.971
67277W        W35671  41.280  32.668  11.548
67278W        W35672  24.636   8.415   1.910
67279W        W35673   1.495  25.296   4.117
67280W        W35674  39.958  39.861  10.586
67281W        W35675  34.780  35.252  12.596
67282W        W35676  28.833  14.200  13.966
67283W        W35677   7.583  43.301   3.998
67284W        W35678   9.674  15.089  12.047
67285W        W35679  35.316  20.724   2.460
67286W        W35680  22.075  32.865   3.870
67287W        W35681   7.044  17.915  11.951
67288W        W35682   6.897   4.169   3.756
67289W        W35683   7.833  19.284  13.512
67290W        W35684   3.227  35.968  12.975
67291W        W35685  22.762  12.128   0.688
67292W        W35686  32.933  40.068   0.759
67293W        W35687  39.543  29.367  13.426
67294W        W35688  16.212   4.809   3.340
67295W        W35689  35.150  43.048  11.139
67296W        W35690  16.247  37.291   1.785
67297W        W35691  28.291  23.568  14.285
67298W        W35692  30.933   6.223  11.097
67299W        W35693  15.372   8.936   2.732
67300W        W35694   9.519  43.965   4.122
67301W        W35695   2.879  11.374  13.544
67302W        W35696  23.582  41.790  13.067
67303W        W35697  42.392  20.793  11.127
67304W        W35698   0.777  44.061  10.744
67305W        W35699  37.474  32.689   2.673
67306W        W35700  14.622  28.668  11.976
67307W        W35701  42.206  21.148   2.207
67308W        W35702  28.730  18.659  12.076
67309W        W35703  28.160  39.262   2.922
67310W        W35704  25.653  30.125  13.538
67311W        W35705  27.744  37.416  13.886
67312W        W35706  15.193  33.472   1.655
67313W        W35707   4.819  31.190  10.738
67314W        W35708  28.307  22.796   5.089
67315W        W35709  19.760  36.843   3.666
67316W        W35710   4.686   0.689   3.786
67317W        W35711   6.955  43.348  11.945
67318W        W35712  20.740   1.660  12.901
67319W        W35713  12.817   3.155   0.347
67320W        W35714  32.286  28.099  13.346
67321W        W35715  36.035  12.757   2.123
67322W        W35716   5.922  44.744  14.439
67323W        W35717  12.381  25.701  13.421
67324W        W35718   1.719  39.410  14.835
67325W        W35719  11.906  29.682  11.723
67326W        W35720  16.228   8.761  12.410
67327W        W35721  14.639  12.689   2.689
67328W        W35722  25.985  34.718  13.108
67329W        W35723  15.375  28.190   1.168
67330W        W35724  43.493  31.161  12.648
67331W        W35725  20.168   6.260   3.303
67332W        W35726  25.377   0.370   4.253
67333W        W35727  28.678  12.096   2.789
67334W        W35728   9.234  19.494  11.139
67335W        W35729  36.612   2.722   3.966
67336W        W35730  27.536  10.676  10.627
67337W        W35731  33.773   2.633  13.628
67338W        W35732  20.705  27.509   0.733
67339W        W35733  33.259  39.933   3.323
67340W        W35734  16.030   9.404   5.006
67341W        W35735  23.516  16.689   1.652
67342W        W35736  25.566  29.164   0.368
67343W        W35737  32.985   5.320  12.609
67344W        W35738  26.226  13.828   0.985
67345W        W35739   7.715  37.860   2.875
67346W        W35740  34.385  13.215  14.789
67347W        W35741  29.136  23.527  10.913
67348W        W35742  27.747  43.321  11.540
67349W        W35743  19.951  10.190   4.661
67350W        W35744  34.166   7.194   0.343
67351W        W35745  35.484  35.369  13.454
67352W        W35746  17.813  14.048   2.188
67353W        W35747  14.073  13.248  11.838
67354W        W35748   3.459   3.840   0.385
67355W        W35749  38.823   6.212   1.752
67356W        W35750  36.151   6.878   1.124
67357W        W35751   3.947  38.490  11.652
67358W        W35752  18.451  40.322  11.458
67359W        W35753  22.239  18.582  13.869
67360W        W35754  37.868  43.684   2.768
67361W        W35755  37.104   3.244  13.490
67362W        W35756  25.014  20.677  13.336
67363W        W35757  33.630  29.558   2.155
67364W        W35758  36.476   2.740   1.236
67365W        W35759   7.913  30.658   4.397
67366W        W35760  20.192  14.933  11.692
67367W        W35761   8.409  17.287  13.781
67368W        W35762  35.813  34.030  11.663
67369W        W35763  37.879  25.672  11.929
67370W        W35764  22.105  31.720   1.901
67371W        W35765  10.183  21.820  11.103
67372W        W35766  44.380  24.247   1.679
67373W        W35767  13.832  35.466  14.916
67374W        W35768  30.058  43.781   4.945
67375W        W35769  21.757  33.351   0.037
67376W        W35770  24.136   6.168  11.884
67377W        W35771  18.614  29.222  14.492
67378W        W35772  18.200  27.562  14.291
67379W        W35773  42.336  17.279  11.131
67380W        W35774  14.154  19.275   1.204
67381W        W35775  30.751  32.512   3.179
67382W        W35776  12.366  26.985   0.386
67383W        W35777  30.091  29.749   4.834
67384W        W35778  33.654  17.218  10.764
67385W        W35779  40.864  10.981  14.861
67386W        W35780  40.522  34.439  13.583
67387W        W35781   5.265   2.305  12.581
67388W        W35782  25.951   8.615   1.765
67389W        W35783  35.614  22.164  14.588
67390W        W35784   3.500  41.828   4.755
67391W        W35785   1.742  40.654   3.228
67392W        W35786  22.469  34.176   3.684
67393W        W35787  13.050  17.249  11.510
67394W        W35788  21.105  36.543   4.183
67395W        W35789  38.527  28.938  13.710
67396W        W35790  29.559   1.474   0.871
67397W        W35791   6.237   6.136  10.997
67398W        W35792  28.066  18.440  10.983
67399W        W35793  21.556  33.339  11.992
67400W        W35794  23.512  42.383  13.034
67401W        W35795  25.517   2.722   0.138
67402W        W35796  28.472  27.220  13.533
67403W        W35797  24.073   5.394   4.655
67404W        W35798  37.437  27.567  11.555
67405W        W35799   3.492  17.071  13.301
67406W        W35800  22.468  43.570  12.832
67407W        W35801  36.008  22.008  14.994
67408W        W35802  26.290   3.311  13.002
67409W        W35803  28.434  21.995  13.349
67410W        W35804  22.276  30.367   2.268
67411W        W35805  11.690   4.825   4.130
67412W        W35806  15.266  29.291   3.247
67413W        W35807  29.716   5.823  13.793
67414W        W35808  21.551  37.198  12.105
67415W        W35809  33.664  43.418   2.181
67416W        W35810  40.754   0.010  12.020
67417W        W35811  44.703  29.708   1.388
67418W        W35812  35.636   5.826   3.161
67419W        W35813  35.567  42.267   1.375
67420W        W35814  20.104  14.994  12.939
67421W        W35815  14.362  29.937   3.737
67422W        W35816  15.223   5.744   4.175
67423W        W35817  14.482   2.982   2.116
67424W        W35818  16.774   7.467   5.015
67425W        W35819   0.837  29.353   0.410
67426W        W35820  39.113  13.772   3.870
67427W        W35821  15.334  20.836  14.400
67428W        W35822  11.473  31.432   1.673
67429W        W35823   6.986  17.222  12.571
67430W        W35824  31.656  23.119  11.236
67431W        W35825  31.669  11.792  12.421
67432W        W35826  15.647  38.549   1.404
67433W        W35827  41.716  34.189   3.216
67434W        W35828  15.552  36.669   2.167
67435W        W35829  14.520  20.085  11.256
67436W        W35830  34.734  44.321   1.497
67437W        W35831   5.461  28.951  12.502
67438W        W35832  11.103  12.189  14.917
67439W        W35833  15.799  38.903  13.578
67440W        W35834  26.091  11.627  13.071
67441W        W35835  15.806  10.828  14.641
67442W        W35836  25.679  36.313   2.812
67443W        W35837   0.212   3.955  11.622
67444W        W35838   6.387  27.339  11.110
67445W        W35839  39.552  39.025   4.733
67446W        W35840  30.266  37.484   3.224
67447W        W35841  36.336  35.988   3.944
67448W        W35842  29.616  24.223  11.225
67449W        W35843   8.398  16.739  14.287
67450W        W35844  16.037  42.847  11.112
67451W        W35845  19.266  34.213   2.698
67452W        W35846  40.796  13.198  13.835
67453W        W35847  34.986  20.599  10.755
67454W        W35848  34.006  39.933  12.306
67455W        W35849  35.337  43.799  12.155
67456W        W35850  11.654   7.113   4.390
67457W        W35851  15.621  33.218  12.399
67458W        W35852  36.385  42.171   0.627
67459W        W35853  20.798  27.421  14.775
67460W        W35854   9.647  19.595  13.110
67461W        W35855  39.127   1.417  10.656
67462W        W35856  19.143  15.873   2.303
67463W        W35857  38.931   6.690   4.560
67464W        W35858   0.229   4.240   4.249
67465W        W35859  43.867  35.757  13.866
67466W        W35860  12.609  29.273   0.433
67467W        W35861   3.810  35.420   0.865
67468W        W35862  31.963  15.698  13.814
67469W        W35863  24.454  32.843  12.797
67470W        W35864  19.984  10.181   0.993
67471W        W35865  17.712  15.076  14.982
67472W        W35866   2.006   5.713   1.436
67473W        W35867  44.682  29.908   3.666
67474W        W35868  33.435   9.097   4.089
67475W        W35869   5.825  18.516   4.409
67476W        W35870  12.825  10.438   4.811
67477W        W35871   0.346  17.603  13.291
67478W        W35872   0.012   8.274  13.860
67479W        W35873  42.906   3.267  11.124
67480W        W35874  21.806   7.336   3.255
67481W        W35875  30.017  17.604  14.816
67482W        W35876   2.777   3.334  13.953
67483W        W35877   4.856  12.506   4.625
67484W        W35878  28.734  32.804   3.716
67485W        W35879  27.059   8.669  12.950
67486W        W35880   9.804  37.394   3.920
67487W        W35881  21.343  10.929   1.666
67488W        W35882   9.356   2.382  12.823
67489W        W35883  33.213   6.947   1.300
67490W        W35884  13.086  10.134   1.806
67491W        W35885   7.434  38.324   3.597
67492W        W35886  13.176  32.516   2.416
67493W        W35887  26.942   0.060   4.952
67494W        W35888  23.320  35.954   4.184
67495W        W35889   3.217  21.101   4.630
67496W        W35890  12.093  41.398  13.636
67497W        W35891   9.877   7.397  11.251
67498W        W35892  31.653  34.519   0.700
67499W        W35893  23.591  19.575  10.769
67500W        W35894   9.290  25.072   4.551
67501W        W35895  16.054  39.634   4.391
67502W        W35896   3.399  32.378   4.720
67503W        W35897  18.183  37.048   2.613
67504W        W35898  28.481  37.164   2.236
67505W        W35899  36.369  19.277  10.761
67506W        W35900  12.188   8.760  14.340
67507W        W35901  14.068  20.250   0.977
67508W        W35902   0.756  44.828   3.855
67509W        W35903  11.101  32.631  12.429
67510W        W35904  11.103  38.574   4.700
67511W        W35905  36.514   8.684   4.864
67512W        W35906  42.908  44.017   3.867
67513W        W35907  17.798  13.447   3.099
67514W        W35908  25.600  20.017   0.068
67515W        W35909  39.350  27.400   4.020
67516W        W35910  18.486  21.529   0.427
67517W        W35911  32.632   8.063   1.773
67518W        W35912   1.546  14.096   5.493
67519W        W35913  21.570   4.697   1.689
67520W        W35914  19.132   7.768  10.633
67521W        W35915  38.117  24.875  10.725
67522W        W35916  32.588  44.460   0.398
67523W        W35917  27.944  22.060  10.681
67524W        W35918  30.159  10.173  12.253
67525W        W35919  36.445   2.574  14.529
67526W        W35920   1.129  43.738   3.072
67527W        W35921  32.179  29.047  10.326
67528W        W35922  13.780  30.693   4.599
67529W        W35923   8.833  21.464   1.425
67530W        W35924  15.674  22.821   3.636
67531W        W35925  34.416  12.517  13.633
67532W        W35926  23.124  18.230  14.308
67533W        W35927   3.672  22.496   1.386
67534W        W35928  43.536   1.778  12.395
67535W        W35929  43.640  18.161  14.005
67536W        W35930  23.636  13.678  12.970
67537W        W35931  15.883  19.691  13.572
67538W        W35932  24.125  15.799  13.621
67539W        W35933   7.039  41.242  11.155
67540W        W35934  43.274  13.105   0.863
67541W        W35935   2.956   8.905  13.329
67542W        W35936  21.638  24.373   4.529
67543W        W35937  16.916   4.319   1.441
67544W        W35938  43.788  28.676  14.752
67545W        W35939  17.869  23.302   0.752
67546W        W35940   3.851   3.832  11.217
67547W        W35941  25.939  39.153   0.874
67548W        W35942  27.324  16.663  10.749
67549W        W35943  13.874  24.740   0.868
67550W        W35944  34.556  15.840  12.574
67551W        W35945  20.229  42.010   3.259
67552W        W35946  13.682   5.195  13.723
67553W        W35947  14.439  42.934   0.582
67554W        W35948  39.961  33.045  14.345
67555W        W35949  38.992  33.520   1.865
67556W        W35950  24.539  11.227  11.651
67557W        W35951  23.292  17.498  13.012
67558W        W35952  22.086  20.956   4.599
67559W        W35953  14.605  22.989  13.073
67560W        W35954  11.222   0.978  14.272
67561W        W35955  41.419  26.224   3.849
67562W        W35956   4.160  21.068  13.414
67563W        W35957  32.824  15.661  13.088
67564W        W35958  41.406   9.698  13.853
67565W        W35959  38.396  18.599  10.652
67566W        W35960  25.927   5.446   3.793
67567W        W35961  19.212  33.607   4.350
67568W        W35962  44.613  31.699  11.691
67569W        W35963   0.994  40.551  12.842
67570W        W35964  32.417   6.665   1.158
67571W        W35965  11.673  36.111  11.573
67572W        W35966  19.546   1.779   3.234
67573W        W35967  38.915  39.819   1.842
67574W        W35968  43.440  43.875   0.726
67575W        W35969  10.095  30.468  14.433
67576W        W35970  34.974  29.136  13.332
67577W        W35971  20.855  21.570  13.637
67578W        W35972   6.901   3.900  13.750
67579W        W35973  15.605  43.730   1.394
67580W        W35974  11.614  13.112  12.041
67581W        W35975  43.821   7.673  11.586
67582W        W35976  42.811  43.544  12.416
67583W        W35977  30.176  38.659   0.014
67584W        W35978  35.329  39.683   3.889
67585W        W35979  11.566  11.759   4.213
67586W        W35980  12.625   1.860  14.267
67587W        W35981  29.435  18.725  13.071
67588W        W35982  32.982  40.968   4.670
67589W        W35983  21.971  35.878  12.721
67590W        W35984  21.161   3.017   0.142
67591W        W35985   8.191  17.514   2.380
67592W        W35986  11.689  43.553  11.412
67593W        W35987   2.001  42.865  11.554
67594W        W35988  14.322  27.266   1.375
67595W        W35989  30.249  18.186  10.984
67596W        W35990  23.786  15.040  12.614
67597W        W35991   6.738   6.406  12.891
67598W        W35992  17.752  25.942   5.018
67599W        W35993  20.471  14.775  12.433
67600W        W35994  44.379  18.601   2.913
67601W        W35995  37.503   2.393  14.676
67602W        W35996  44.727  34.562  12.438
67603W        W35997  43.759  38.956  14.382
67604W        W35998  38.005   2.211  11.433
67605W        W35999  16.622  22.031   3.317
67606W        W36000  19.021   1.210   0.246
67607W        W36001   9.817  42.421  14.308
67608W        W36002  32.584  32.002   1.360
67609W        W36003  14.806  36.285   3.811
67610W        W36004  10.341  21.206   2.624
67611W        W36005  17.956  28.562   4.917
67612W        W36006  21.499  15.837   0.757
67613W        W36007  13.883  41.896   3.149
67614W        W36008  38.033  11.123  10.969
67615W        W36009   7.731  19.053   1.828
67616W        W36010  35.409  27.252  14.507
67617W        W36011   7.308   0.772  14.850
67618W        W36012  25.263  17.332   2.399
67619W        W36013  22.100   9.714   1.689
67620W        W36014  37.404  33.123  12.073
67621W        W36015  32.600  14.816  14.412
67622W        W36016  21.990  16.745   1.877
67623W        W36017   8.389  20.956  11.679
67624W        W36018  27.985  23.027   2.618
67625W        W36019  35.578  11.698  14.849
67626W        W36020   9.477  37.151  11.585
67627W        W36021  34.525  18.970  12.049
67628W        W36022  33.952  29.761  11.382
67629W        W36023  29.026  21.500  13.974
67630W        W36024   9.520  14.196   4.262
67631W        W36025  15.071  35.589   1.911
67632W        W36026  17.654  27.739   2.007
67633W        W36027  30.732  37.327   1.410
67634W        W36028   8.363  44.565  11.152
67635W        W36029   2.776  33.702   4.309
67636W        W36030  18.055  27.082   0.976
67637W        W36031  10.745   4.423  12.644
67638W        W36032  42.075  35.935   0.778
67639W        W36033   8.404  26.754  12.943
67640W        W36034  12.239  18.135   4.258
67641W        W36035  34.518  37.680  14.807
67642W        W36036  36.025  41.483   2.563
67643W        W36037  19.870  26.949   0.822
67644W        W36038   4.982  29.761  10.739
67645W        W36039  42.829   1.685  13.435
67646W        W36040  38.507  32.816   4.926
67647W        W36041  34.785  26.860   2.687
67648W        W36042  18.785  26.156  11.149
67649W        W36043  43.495  29.870  13.000
67650W        W36044   6.106  22.509  14.919
67651W        W36045  23.570  32.188   2.676
67652W        W36046  32.087  14.953   1.288
67653W        W36047  44.382  32.333  14.359
67654W        W36048  19.035  22.128  13.606
67655W        W36049  42.134   2.379  14.638
67656W        W36050  38.922  44.001  13.841
67657W        W36051  14.719  42.927  12.358
67658W        W36052  34.422  27.585   1.897
67659W        W36053  18.774  25.215   0.532
67660W        W36054   2.319  16.324   4.256
67661W        W36055  33.174  14.348   3.125
67662W        W36056  11.230  21.493   0.675
67663W        W36057   7.835  31.543   4.575
67664W        W36058  35.835   4.367  14.834
67665W        W36059   2.382  30.581  13.972
67666W        W36060  30.003  27.176   0.892
67667W        W36061   1.472  35.530  11.986
67668W        W36062   5.060  16.715   4.945
67669W        W36063   1.025  42.346  10.619
67670W        W36064  16.299  17.296   1.921
67671W        W36065  20.077  22.577  14.377
67672W        W36066  42.750  40.402   0.249
67673W        W36067  22.043  16.198  14.846
67674W        W36068  21.026  19.700  13.771
67675W        W36069   0.306  20.083  14.440
67676W        W36070  24.133   0.735  11.696
67677W        W36071   7.642  18.563   1.942
67678W        W36072  33.641  44.535   1.894
67679W        W36073   9.796   9.648   3.629
67680W        W36074  30.295  26.597   1.402
67681W        W36075  23.446  43.452   5.067
67682W        W36076  20.200  38.262   5.449
67683W        W36077  30.350   2.107  12.360
67684W        W36078  11.863   3.447   4.652
67685W        W36079  10.424   0.399   0.694
67686W        W36080  29.376  41.236  13.532
67687W        W36081  26.837  42.364  13.181
67688W        W36082  44.789   3.390  14.232
67689W        W36083  27.082  14.526  11.291
67690W        W36084  39.754   2.272   1.101
67691W        W36085   2.772  24.369  14.397
67692W        W36086  36.694  18.546   2.805
67693W        W36087  34.469  17.513  14.386
67694W        W36088  42.164  15.723   4.842
67695W        W36089  34.893   0.712  11.582
67696W        W36090  16.805   6.057  11.636
67697W        W36091   8.061  23.020   4.325
67698W        W36092  41.753  39.965  11.863
67699W        W36093  27.500  29.426   3.759
67700W        W36094  14.723  20.140  13.125
67701W        W36095  28.958  43.569   9.561
67702W        W36096  28.419   3.870   2.173
67703W        W36097  20.941  33.845   2.977
67704W        W36098  30.750  16.218  13.868
67705W        W36099  25.761  29.393  13.991
67706W        W36100  35.047  32.085   1.806
67707W        W36101   8.300   0.753   1.405
67708W        W36102  37.941   4.365   0.852
67709W        W36103  13.836  19.212   4.680
67710W        W36104   8.359  27.627   0.495
67711W        W36105   3.389  44.510  11.959
67712W        W36106  37.624  42.429   0.399
67713W        W36107  31.039  40.805  13.626
67714W        W36108  40.298   8.163   3.219
67715W        W36109  33.237  15.614   1.403
67716W        W36110   6.645   3.020  14.777
67717W        W36111  37.072  10.566   0.727
67718W        W36112  32.951  30.558   0.718
67719W        W36113  37.546  31.125   1.972
67720W        W36114  35.494   7.789  13.827
67721W        W36115  12.666  13.870   3.768
67722W        W36116  37.146  27.210   0.409
67723W        W36117  21.428  31.826  11.604
67724W        W36118  15.408  27.226   2.824
67725W        W36119  41.016  16.682   1.215
67726W        W36120  17.466  38.592   1.387
67727W        W36121  37.862  27.752   1.668
67728W        W36122  28.661  38.360  12.405
67729W        W36123  17.756   7.284   3.103
67730W        W36124  27.727   0.023   2.883
67731W        W36125   2.413   2.747   1.869
67732W        W36126  16.197  21.598  14.953
67733W        W36127  33.052  31.177   4.125
67734W        W36128  34.184  31.480   3.199
67735W        W36129  36.528  36.544  10.732
67736W        W36130  27.099  10.561  13.873
67737W        W36131  37.788  13.016  13.598
67738W        W36132  21.147  11.304  10.273
67739W        W36133   1.380  19.290   1.197
67740W        W36134  25.403  36.451   3.249
67741W        W36135   3.780   5.056  14.854
67742W        W36136  32.228  15.945   3.724
67743W        W36137  29.943  13.146   1.854
67744W        W36138  38.845  14.074  11.967
67745W        W36139   8.955  28.909  11.512
67746W        W36140   2.841   3.808   4.814
67747W        W36141  44.705  38.149  13.018
67748W        W36142  18.797   1.546  10.038
67749W        W36143  24.767  33.704  11.977
67750W        W36144  35.269  26.528   1.550
67751W        W36145  40.040  10.301  13.436
67752W        W36146  19.304  40.312  12.624
67753W        W36147   3.344  23.741  11.862
67754W        W36148   2.248  37.389   0.480
67755W        W36149  35.762  11.743  11.912
67756W        W36150  13.651  13.701   3.302
67757W        W36151   8.473  27.070   2.453
67758W        W36152  39.473   5.975   4.497
67759W        W36153  33.562  28.983   1.274
67760W        W36154  14.591  33.567   2.691
67761W        W36155  44.150  29.906   3.678
67762W        W36156  11.672  14.639   3.766
67763W        W36157  33.583  29.525  13.524
67764W        W36158  40.776  20.693   0.452
67765W        W36159  40.413  44.425  10.935
67766W        W36160   1.440  43.071   2.635
67767W        W36161  42.553  32.797  11.514
67768W        W36162   4.752  18.424   0.279
67769W        W36163  29.547  22.003  14.850
67770W        W36164   6.980   2.762  11.730
67771W        W36165  24.760  38.806  11.564
67772W        W36166  43.808  34.049  12.164
67773W        W36167  14.324  16.546  11.360
67774W        W36168  17.268   4.403  11.126
67775W        W36169  14.231  24.432  13.895
67776W        W36170  18.579  16.106  14.558
67777W        W36171   7.145  13.167   4.880
67778W        W36172   1.543  27.577  10.448
67779W        W36173  41.122  12.283  11.297
67780W        W36174  35.862  20.433  12.625
67781W        W36175  23.960  35.099  14.452
67782W        W36176  41.900   3.877   1.027
67783W        W36177  28.120  37.045   4.574
67784W        W36178  31.631  16.650   0.926
67785W        W36179  18.590  30.452  13.499
67786W        W36180  26.039  33.167   3.137
67787W        W36181  39.802  11.345   1.982
67788W        W36182  10.398   8.985   3.832
67789W        W36183  37.452  14.825   1.102
67790W        W36184  31.047  10.124  11.177
67791W        W36185  17.069   7.628   3.515
67792W        W36186  28.426  17.606   3.600
67793W        W36187  32.687  20.730   4.561
67794W        W36188  18.611   0.334   2.200
67795W        W36189  29.220   0.405   4.536
67796W        W36190  29.240  37.840  12.849
67797W        W36191  22.754  13.873  10.021
67798W        W36192  13.015   9.509   0.722
67799W        W36193  24.173  34.366  13.890
67800W        W36194  36.836  16.042   1.924
67801W        W36195  41.797  16.109  11.001
67802W        W36196  38.611  22.966   3.617
67803W        W36197  40.943  11.310  13.397
67804W        W36198  23.514  19.267   1.695
67805W        W36199  29.801  40.506  12.883
67806W        W36200  28.510  16.875  11.061
67807W        W36201  40.472  26.304  13.184
67808W        W36202   9.443  23.609   1.241
67809W        W36203  12.839   3.948  14.932
67810W        W36204  29.626  11.848   0.745
67811W        W36205   6.234  31.004  12.920
67812W        W36206  37.647   5.432   1.329
67813W        W36207  25.664  25.452   2.962
67814W        W36208  19.586  38.608  14.977
67815W        W36209   8.243  14.588   1.308
67816W        W36210   5.228  22.496   4.133
67817W        W36211  40.548  39.492   1.219
67818W        W36212  40.421  35.610  14.887
67819W        W36213   1.961   7.859  10.685
67820W        W36214  17.900  43.130   3.234
67821W        W36215  28.395   9.284  11.578
67822W        W36216  41.449   3.778   0.791
67823W        W36217  18.137  22.120  13.631
67824W        W36218   8.665  33.772  13.773
67825W        W36219  38.887  38.203  12.354
67826W        W36220  31.004  24.251   2.774
67827W        W36221  26.630  33.406  12.970
67828W        W36222  44.912   3.967  11.154
67829W        W36223  13.436  18.706  13.017
67830W        W36224  19.674  13.566   2.209
67831W        W36225  40.072  16.759  11.500
67832W        W36226   4.889  37.146   1.849
67833W        W36227  41.327   2.048   0.611
67834W        W36228   6.040  18.500  14.546
67835W        W36229  38.363  39.135   3.628
67836W        W36230   9.174  41.116  11.136
67837W        W36231  22.500  22.224  13.958
67838W        W36232   1.423  20.779  14.501
67839W        W36233   1.362   8.433   4.431
67840W        W36234  32.362   4.342   1.351
67841W        W36235  31.093  33.616   0.312
67842W        W36236  32.511  12.398   1.825
67843W        W36237  33.179  33.115   2.276
67844W        W36238  32.069  12.046   1.380
67845W        W36239  35.844   4.669  11.096
67846W        W36240  33.556  44.492  13.830
67847W        W36241  37.908  32.222   1.777
67848W        W36242  15.043   5.208  11.598
67849W        W36243  31.316  27.778  14.309
67850W        W36244  30.344  27.982  10.897
67851W        W36245  18.785  14.111   4.777
67852W        W36246  32.205  11.795   2.765
67853W        W36247   3.492  16.858  14.903
67854W        W36248  25.023  36.853   0.720
67855W        W36249   8.683   9.255   2.214
67856W        W36250  36.173  18.654  13.765
67857W        W36251  30.114  32.465   4.026
67858W        W36252   2.057  29.617   0.425
67859W        W36253  37.919  40.281  10.280
67860W        W36254  39.235   8.776  12.581
67861W        W36255  44.924  27.286  11.149
67862W        W36256  36.667  13.732   4.165
67863W        W36257  44.905  31.061   3.231
67864W        W36258  38.026  41.631   0.255
67865W        W36259  22.709  16.635   1.399
67866W        W36260   2.599  13.201  13.078
67867W        W36261  41.351  38.661   4.312
67868W        W36262   7.227  13.453  13.427
67869W        W36263  20.676  20.484  11.740
67870W        W36264  27.606   9.131  12.466
67871W        W36265   7.320   1.176   0.737
67872W        W36266  44.699  19.547   1.247
67873W        W36267  23.696  11.332  14.318
67874W        W36268  20.127  40.326  13.857
67875W        W36269   9.436  17.396   0.776
67876W        W36270  17.019   9.058  11.981
67877W        W36271  18.353  26.596   0.281
67878W        W36272  16.571  18.308  11.552
67879W        W36273   1.743  38.362  13.062
67880W        W36274   4.706  14.198   0.827
67881W        W36275  28.399  44.227   2.819
67882W        W36276  30.680   4.391   4.266
67883W        W36277  41.362   4.962  14.259
67884W        W36278  21.534  20.218   0.837
67885W        W36279  44.485  21.116   0.398
67886W        W36280   2.739  27.074   0.584
67887W        W36281   4.783  41.293   4.622
67888W        W36282  25.443  31.775  14.382
67889W        W36283   3.505  33.001  14.345
67890W        W36284  11.136  25.978   4.332
67891W        W36285  15.897   6.391   3.852
67892W        W36286  38.981  34.685  13.317
67893W        W36287  42.548  11.378   1.872
67894W        W36288  12.404  20.749  10.646
67895W        W36289  25.988  25.309   1.198
67896W        W36290  13.536   7.492   3.217
67897W        W36291  33.901  26.039  14.471
67898W        W36292  44.778  25.529   0.857
67899W        W36293  12.238   8.357  11.383
67900W        W36294   8.637  12.760  13.982
67901W        W36295  12.104  26.057   0.510
67902W        W36296  30.519   8.555  13.461
67903W        W36297  17.560  31.199   4.077
67904W        W36298  34.420  15.335   2.269
67905W        W36299  26.241  31.757   3.190
67906W        W36300  24.705  35.029   0.000
67907W        W36301   9.406   4.589   2.779
67908W        W36302  29.574   4.906  13.936
67909W        W36303  23.036  11.254  13.510
67910W        W36304  22.730  19.023   2.275
67911W        W36305  34.100  15.475   5.044
67912W        W36306  34.928  43.912  13.915
67913W        W36307   0.915  30.097   2.818
67914W        W36308   4.440  36.680   2.260
67915W        W36309  35.967  15.075   3.817
67916W        W36310  13.781  26.513   0.414
67917W        W36311   3.785  27.726   1.140
67918W        W36312  15.763  16.176   1.762
67919W        W36313  37.483  18.306   1.725
67920W        W36314   5.037   6.811   0.590
67921W        W36315  32.739   1.565  14.399
67922W        W36316   5.242  41.355  11.059
67923W        W36317  19.218  44.024   2.838
67924W        W36318  25.234  37.895   0.351
67925W        W36319   8.648  17.779   4.114
67926W        W36320  28.259  33.306   4.477
67927W        W36321  32.907  41.504   3.392
67928W        W36322  18.118  42.207   1.431
67929W        W36323  20.623  30.933   1.378
67930W        W36324   2.483  39.612   2.945
67931W        W36325   4.098  39.968  13.468
67932W        W36326   6.318   8.795   2.985
67933W        W36327   8.344  32.701   2.205
67934W        W36328  29.871   9.190  12.427
67935W        W36329  38.312   1.696   4.404
67936W        W36330  30.793  24.628   0.403
67937W        W36331   5.871  37.710   3.289
67938W        W36332  20.824  38.479   3.126
67939W        W36333  29.050  34.381  14.265
67940W        W36334  38.552  40.527  14.710
67941W        W36335  44.986  32.905   3.879
67942W        W36336  24.290  23.503   3.709
67943W        W36337   8.565  39.155   0.425
67944W        W36338  38.901  22.210   2.955
67945W        W36339  17.542  36.353   5.038
67946W        W36340  18.092  20.560   0.973
67947W        W36341  11.351  41.860  13.329
67948W        W36342  25.955   1.859   3.249
67949W        W36343  13.823  21.132   3.474
67950W        W36344  44.383  26.238  11.309
67951W        W36345  31.206  25.597   3.893
67952W        W36346  37.299  44.136  13.918
67953W        W36347  40.956  18.685   2.404
67954W        W36348   8.720  35.105  12.101
67955W        W36349  12.413  26.194   0.119
67956W        W36350   5.666  40.125   3.761
67957W        W36351   6.862  37.050  14.427
67958W        W36352  18.103  24.973   4.104
67959W        W36353  23.024  17.295  11.718
67960W        W36354  33.995  40.936   2.588
67961W        W36355  24.695  35.839  12.291
67962W        W36356  15.966  16.330  14.081
67963W        W36357  21.773  26.068   5.158
67964W        W36358  37.090  35.186   0.462
67965W        W36359  16.669  23.799  12.048
67966W        W36360  40.766   0.210   0.470
67967W        W36361  44.942   4.349  14.108
67968W        W36362  37.153   3.380  11.505
67969W        W36363  20.738  40.497  13.656
67970W        W36364   5.147  37.866  14.390
67971W        W36365  31.964  16.767  14.756
67972W        W36366   2.529   9.644   2.113
67973W        W36367  20.660  43.795  12.799
67974W        W36368   7.004  26.024   4.156
67975W        W36369  25.714  36.891  10.931
67976W        W36370   7.982  12.642  11.518
67977W        W36371  40.358  28.168   0.715
67978W        W36372  43.391  41.283  14.379
67979W        W36373  22.480  16.184   1.222
67980W        W36374  24.009  24.100  10.752
67981W        W36375  38.854  34.121   3.578
67982W        W36376  44.702  18.704  10.947
67983W        W36377   2.447  27.084   3.947
67984W        W36378   8.598  18.166  10.798
67985W        W36379  43.582  21.965  14.740
67986W        W36380  38.650  40.105   3.773
67987W        W36381   5.291  28.363   0.490
67988W        W36382   9.372  21.845   0.745
67989W        W36383  12.519  36.639  13.473
67990W        W36384  15.058  43.346  13.051
67991W        W36385   5.654  40.828   1.264
67992W        W36386  15.827   6.016   1.350
67993W        W36387   3.524  36.462  12.013
67994W        W36388   8.632  28.461   0.407
67995W        W36389  44.851   7.108   3.113
67996W        W36390  29.753  37.515   3.256
67997W        W36391   6.184  27.243   0.915
67998W        W36392  38.508  32.136   2.411
67999W        W36393  28.905  28.178   2.247
68000W        W36394  44.889  37.255   4.102
68001W        W36395  10.675  41.187   0.761
68002W        W36396   8.333   7.123  14.409
68003W        W36397  44.294  42.013  14.434
68004W        W36398  27.143  17.582   1.145
68005W        W36399  19.070  22.695  10.937
68006W        W36400  39.834  19.811   0.445
68007W        W36401   5.349   0.975   4.349
68008W        W36402  27.708  34.018  11.914
68009W        W36403  23.212   6.310   2.126
68010W        W36404  40.840  28.503   4.899
68011W        W36405  40.917   6.941   0.737
68012W        W36406  26.265  32.472  14.963
68013W        W36407  14.631  10.189   4.618
68014W        W36408   4.788  40.878   3.922
68015W        W36409  36.817  25.559   4.773
68016W        W36410  37.877  12.925  14.157
68017W        W36411  35.869  16.649   0.288
68018W        W36412   6.529  39.360  14.921
68019W        W36413   6.211  15.461  11.161
68020W        W36414  21.964  29.021   3.323
68021W        W36415  11.473  38.503   3.248
68022W        W36416  42.332   3.460   3.309
68023W        W36417  20.452  39.018   0.367
68024W        W36418   8.839  43.869  10.785
68025W        W36419  43.369   0.589   2.799
68026W        W36420  11.069  16.269  14.443
68027W        W36421  10.233   1.145   3.748
68028W        W36422  42.567  41.327   4.861
68029W        W36423  10.011  44.734   0.028
68030W        W36424  10.906   7.811  12.017
68031W        W36425   2.467  23.167  10.831
68032W        W36426   8.427  42.487  12.456
68033W        W36427  32.238   9.267   4.133
68034W        W36428  34.218   0.372  10.640
68035W        W36429  24.754  44.676   9.775
68036W        W36430  15.574  13.113   3.638
68037W        W36431  23.751  17.062  13.400
68038W        W36432  35.356  16.747  13.059
68039W        W36433  29.588  12.826   3.121
68040W        W36434  16.742  19.016   0.443
68041W        W36435  14.337  44.765   4.659
68042W        W36436  37.373  26.420   0.447
68043W        W36437  29.703   2.271  11.107
68044W        W36438  43.922  34.413   1.565
68045W        W36439  22.611   4.449  14.989
68046W        W36440  27.444  11.410   1.750
68047W        W36441  17.658  40.122   2.123
68048W        W36442  29.905   1.701  13.500
68049W        W36443  12.562   9.631  13.638
68050W        W36444  24.240  25.455   2.762
68051W        W36445  21.463  38.995  14.900
68052W        W36446  28.907  35.294   0.199
68053W        W36447   0.496   4.734  11.044
68054W        W36448  37.931  35.642  13.351
68055W        W36449  26.679  15.009  14.324
68056W        W36450   1.486  35.878  11.004
68057W        W36451  13.148  22.620   2.417
68058W        W36452  20.309  43.817   4.762
68059W        W36453  11.398  38.244   2.288
68060W        W36454  28.765   5.200   3.286
68061W        W36455  14.812  34.464   3.787
68062W        W36456  12.188  32.064   2.052
68063W        W36457   0.648  14.078   4.286
68064W        W36458  19.971  40.564  14.316
68065W        W36459  12.957  21.904   0.300
68066W        W36460   6.014  28.604   9.954
68067W        W36461  31.712  26.758  11.677
68068W        W36462   8.711  20.101   1.661
68069W        W36463  13.410  17.003   1.868
68070W        W36464   8.338  44.569   3.124
68071W        W36465  39.057  32.010   0.766
68072W        W36466   0.888  25.252  14.491
68073W        W36467  11.600  10.584   2.783
68074W        W36468  26.049  14.543  13.349
68075W        W36469  42.299   3.725   0.213
68076W        W36470   2.021  32.313  14.403
68077W        W36471   1.081   7.991  12.464
68078W        W36472   2.274  11.642  12.167
68079W        W36473  11.102   3.945  14.775
68080W        W36474  12.169   4.650  11.376
68081W        W36475  18.309  25.645  14.452
68082W        W36476   8.664  27.745  12.142
68083W        W36477  11.414  41.200  13.942
68084W        W36478  10.290   7.387  14.074
68085W        W36479   2.802  10.835  10.904
68086W        W36480  17.364  42.512  12.325
68087W        W36481  22.980   5.697   4.492
68088W        W36482  11.560   1.802  12.532
68089W        W36483  14.710  31.684   4.889
68090W        W36484  41.370   5.524  11.980
68091W        W36485  44.403   0.370  11.252
68092W        W36486  29.620  44.786  13.775
68093W        W36487  30.931  38.539  13.088
68094W        W36488  23.727  41.397   1.879
68095W        W36489  11.385   9.677  12.873
68096W        W36490   2.875  39.627   0.291
68097W        W36491  27.621  40.925   4.018
68098W        W36492  43.986  34.943  11.910
68099W        W36493   6.240   2.420   0.838
68100W        W36494  29.535  44.191   3.639
68101W        W36495  12.717  12.730  13.606
68102W        W36496   9.188  13.091  10.630
68103W        W36497  42.323  43.294  12.465
68104W        W36498  38.267  29.051  14.581
68105W        W36499   3.224  18.315  11.620
68106W        W36500  18.765  14.212   3.839
68107W        W36501  36.102  38.105   4.619
68108W        W36502  14.861  31.517  14.732
68109W        W36503  31.931  34.679   1.826
68110W        W36504   3.438  12.854  11.147
68111W        W36505  30.818  43.187  13.327
68112W        W36506  18.449  38.039  14.473
68113W        W36507  20.027  39.818  11.181
68114W        W36508  30.908  37.769   2.612
68115W        W36509  27.734   8.323   4.270
68116W        W36510  22.524  44.619  10.558
68117W        W36511  23.304  39.988   2.348
68118W        W36512  21.758  35.487   1.426
68119W        W36513  43.515   1.494  11.059
68120W        W36514  40.829   3.990   4.236
68121W        W36515  24.619  18.617  13.335
68122W        W36516   0.477  38.857  12.915
68123W        W36517  10.712  36.048   3.827
68124W        W36518  21.910   2.618  13.739
68125W        W36519  43.979  40.071  14.386
68126W        W36520  38.359   4.798   4.664
68127W        W36521  42.933   4.572   2.807
68128W        W36522  23.536   4.607  12.497
68129W        W36523  15.870  32.839   4.178
68130W        W36524  35.037  18.587  14.484
68131W        W36525  42.112  19.105  12.909
68132W        W36526  18.757   2.979  10.465
68133W        W36527   2.763  38.237   1.392
68134W        W36528   3.046  32.559  12.607
68135W        W36529  41.893  16.366  12.882
68136W        W36530  35.624  30.975  14.407
68137W        W36531  14.802   6.504  13.671
68138W        W36532  41.296  18.754  12.986
68139W        W36533  32.401  40.895   3.320
68140W        W36534  13.318  30.489  14.886
68141W        W36535  38.378  25.690  14.448
68142W        W36536  40.928   5.448   0.940
68143W        W36537   8.900  34.486   3.111
68144W        W36538  24.506  36.830   1.639
68145W        W36539  30.415   7.451   1.279
68146W        W36540  11.990  39.626  14.846
68147W        W36541  27.453   4.733   4.432
68148W        W36542  21.915  31.735   4.042
68149W        W36543  34.505  16.474  14.305
68150W        W36544  21.202   1.550   0.322
68151W        W36545   6.159   6.835  13.922
68152W        W36546  42.104  35.021   1.327
68153W        W36547  13.148  41.817  14.966
68154W        W36548  34.200  36.057   0.505
68155W        W36549   6.596  27.273  12.888
68156W        W36550  44.280  13.162   4.262
68157W        W36551  43.721  34.954  10.501
68158W        W36552   7.345  19.440  13.640
68159W        W36553  24.785  37.740   2.746
68160W        W36554  34.745  34.740  12.540
68161W        W36555  26.679  33.561  11.243
68162W        W36556  41.684  23.269  14.535
68163W        W36557  36.813  13.420  11.003
68164W        W36558  17.796  44.492  11.086
68165W        W36559  39.671  32.773  11.176
68166W        W36560  14.222  37.012  12.958
68167W        W36561  36.091   0.323   4.548
68168W        W36562  16.869  34.863   0.940
68169W        W36563  33.936  17.710  14.447
68170W        W36564  27.361  14.249   2.605
68171W        W36565  34.967  33.076   4.357
68172W        W36566  29.220  10.076  11.072
68173W        W36567  11.729  38.991   1.380
68174W        W36568  34.102  44.122  11.106
68175W        W36569  32.888   4.239  13.887
68176W        W36570  40.325  29.596   1.776
68177W        W36571  34.986  27.453   0.800
68178W        W36572  18.054  11.251  11.027
68179W        W36573  30.616  30.862  10.734
68180W        W36574   3.868  44.295   4.323
68181W        W36575  11.711  30.685  12.894
68182W        W36576   0.874  33.349  10.565
68183W        W36577   8.621   8.160   2.302
68184W        W36578  16.080   6.845  14.857
68185W        W36579  10.038  39.910  12.635
68186W        W36580  22.828  33.574   1.824
68187W        W36581  36.571   9.083  13.983
68188W        W36582  23.427  43.734  11.204
68189W        W36583  39.625   6.065   2.860
68190W        W36584  13.722  43.855   3.878
68191W        W36585  40.558  13.757   4.291
68192W        W36586  20.050  32.027   1.004
68193W        W36587  28.277  25.285  11.555
68194W        W36588  42.065  41.780  14.310
68195W        W36589   0.312  25.022  13.696
68196W        W36590  10.250  22.639  10.402
68197W        W36591  17.649  33.072   1.745
68198W        W36592   7.893   2.841   3.375
68199W        W36593   9.444  29.405  12.599
68200W        W36594  41.013  26.946  14.395
68201W        W36595  34.118  15.039  11.085
68202W        W36596  43.449  10.813   3.749
68203W        W36597  39.068  40.439  13.762
68204W        W36598   3.237   4.306   0.878
68205W        W36599  43.857  39.306  13.499
68206W        W36600  12.477  16.426  14.859
68207W        W36601  20.495  18.213   4.115
68208W        W36602  33.350  13.902  10.453
68209W        W36603   7.357  12.970  12.538
68210W        W36604  36.507  24.022  10.674
68211W        W36605  37.611  29.524   1.255
68212W        W36606  20.965  28.631   5.085
68213W        W36607  33.424  24.980  11.475
68214W        W36608  22.591  30.399   2.697
68215W        W36609  36.429  40.003   3.266
68216W        W36610  32.788  28.044   1.685
68217W        W36611  44.703   1.973  13.587
68218W        W36612  25.045  27.124  11.550
68219W        W36613  10.649  37.470  12.442
68220W        W36614   1.925  19.862   3.220
68221W        W36615  34.378  38.684  14.715
68222W        W36616   4.755  24.582   1.887
68223W        W36617  37.451  27.304  13.429
68224W        W36618   2.293  17.730  13.349
68225W        W36619  38.854  43.052   0.797
68226W        W36620   3.953  21.505  14.951
68227W        W36621  38.561  23.236  13.071
68228W        W36622  25.514  36.570   2.337
68229W        W36623  35.380  16.833  14.944
68230W        W36624  30.779  11.104  11.165
68231W        W36625  27.335  10.856  13.036
68232W        W36626   0.936   7.356   1.620
68233W        W36627  33.384  26.702  11.054
68234W        W36628  26.579  19.086  14.844
68235W        W36629  11.764  40.887   4.892
68236W        W36630   1.271  30.729  12.385
68237W        W36631   7.503  26.453  13.960
68238W        W36632  44.902  33.666   3.406
68239W        W36633   3.033  29.425  12.420
68240W        W36634  16.084  32.135   3.706
68241W        W36635  13.553  30.397   1.780
68242W        W36636  28.432   8.860  13.807
68243W        W36637  36.000  34.031  11.176
68244W        W36638  35.880  41.942  14.462
68245W        W36639   1.155  25.480   0.975
68246W        W36640  29.861  33.658   3.136
68247W        W36641  40.990  27.214   2.029
68248W        W36642  12.060   9.861   3.311
68249W        W36643  36.978  30.030   4.389
68250W        W36644  19.851  28.387  14.849
68251W        W36645  13.436  38.010  13.287
68252W        W36646   5.747  20.839   3.797
68253W        W36647   0.309  40.879   3.200
68254W        W36648   3.097  12.883  10.143
68255W        W36649  32.376   0.850   2.890
68256W        W36650  33.034  33.067  13.583
68257W        W36651  11.018   5.379  14.892
68258W        W36652   6.136   2.169  14.306
68259W        W36653  28.704   7.397  12.044
68260W        W36654  28.940   0.752   1.729
68261W        W36655   5.378   7.324   3.291
68262W        W36656  41.153  10.387   2.359
68263W        W36657  12.334   2.657   4.409
68264W        W36658  44.472  43.018   4.554
68265W        W36659   9.192  31.001   2.204
68266W        W36660  18.279  11.635  12.973
68267W        W36661   2.174  27.339   1.684
68268W        W36662  15.727  18.077   2.280
68269W        W36663   0.361  33.854   3.589
68270W        W36664  26.230  15.585  14.493
68271W        W36665  20.991  21.051  13.524
68272W        W36666  11.992  10.835  11.931
68273W        W36667  40.415  28.833  13.510
68274W        W36668  28.009  18.941  11.541
68275W        W36669  34.329  35.137   4.253
68276W        W36670  43.751  29.002  10.551
68277W        W36671  17.566  40.377  12.972
68278W        W36672   8.743  19.818   0.896
68279W        W36673  28.609  30.594   0.429
68280W        W36674  28.679  12.537  14.866
68281W        W36675   9.278  12.167   3.810
68282W        W36676   0.299  10.230   2.310
68283W        W36677  10.187   7.745  12.381
68284W        W36678  22.489   5.696  12.061
68285W        W36679  35.509  35.546   4.315
68286W        W36680   6.875  28.213  12.386
68287W        W36681  14.834  25.706   2.929
68288W        W36682   2.870  23.076   4.859
68289W        W36683   7.624  23.004  13.950
68290W        W36684   1.214   2.953  11.510
68291W        W36685   5.764  25.067  14.779
68292W        W36686  44.234   4.204   0.951
68293W        W36687  27.552  35.899  12.800
68294W        W36688  20.807  44.741  14.928
68295W        W36689   7.928  42.827  11.333
68296W        W36690  20.352  20.727   1.430
68297W        W36691   5.838   2.018   4.615
68298W        W36692  22.612  15.574  10.149
68299W        W36693  32.567  27.559   0.087
68300W        W36694  34.574  15.674  13.082
68301W        W36695  28.013  30.764   1.386
68302W        W36696  11.394  24.046   4.265
68303W        W36697  12.275  44.648  14.995
68304W        W36698  21.541  41.911   4.425
68305W        W36699   2.801  12.262   4.048
68306W        W36700  39.365  44.175  13.632
68307W        W36701  13.283  36.137  11.719
68308W        W36702  38.136   2.236   0.515
68309W        W36703  18.503  41.718   1.782
68310W        W36704  35.532  21.438   1.693
68311W        W36705  32.034   5.810   0.554
68312W        W36706  15.713  14.246   3.371
68313W        W36707   0.307  18.000   0.606
68314W        W36708   3.707  12.697   0.620
68315W        W36709  23.985   0.537  11.229
68316W        W36710   7.617   7.510   1.152
68317W        W36711  34.371  34.890   3.063
68318W        W36712  25.685   0.021   0.023
68319W        W36713  32.282  43.896   2.271
68320W        W36714  20.133  39.862   3.066
68321W        W36715  28.955  28.888   3.676
68322W        W36716  27.151  16.588  13.853
68323W        W36717  18.687  19.734   2.330
68324W        W36718  38.539  13.788   2.398
68325W        W36719   5.779  41.422  10.626
68326W        W36720  40.379  38.849   4.630
68327W        W36721  41.781  18.018   3.173
68328W        W36722  27.727  29.559  10.746
68329W        W36723  13.687  22.816   0.829
68330W        W36724  20.210   8.338   4.057
68331W        W36725  43.115  40.243  11.343
68332W        W36726  30.338  27.543  11.167
68333W        W36727  17.345  39.120  12.820
68334W        W36728   9.788  30.154   2.364
68335W        W36729  32.979   7.193   0.406
68336W        W36730  40.331  24.247  11.457
68337W        W36731  38.829  23.092   1.781
68338W        W36732  31.668  13.781  14.014
68339W        W36733  16.655  44.100  13.351
68340W        W36734  37.391  20.694  14.343
68341W        W36735   3.382   7.284  13.882
68342W        W36736  31.904  13.748   0.702
68343W        W36737   2.386   0.383   4.553
68344W        W36738  15.649   9.831  10.059
68345W        W36739  10.748  35.037   4.910
68346W        W36740   1.624  38.668  11.488
68347W        W36741  38.041  41.505  14.337
68348W        W36742  26.974  26.408  14.536
68349W        W36743   5.913  39.755  14.400
68350W        W36744  15.112  10.421   2.668
68351W        W36745  41.992   0.289  13.277
68352W        W36746   0.046  31.035   0.524
68353W        W36747  39.626  30.468   0.410
68354W        W36748   9.341   2.774  10.983
68355W        W36749  41.523  20.249  10.433
68356W        W36750  23.603  16.748  12.014
68357W        W36751  24.513  27.125   1.781
68358W        W36752  40.558  30.035  12.570
68359W        W36753  30.411  22.900  14.370
68360W        W36754  38.895  15.333  12.528
68361W        W36755  30.580  42.227   3.694
68362W        W36756  40.591   4.639   2.475
68363W        W36757  38.944  19.725  13.872
68364W        W36758  13.190  42.367  14.164
68365W        W36759  35.096  39.056  13.955
68366W        W36760  41.836  34.561   1.191
68367W        W36761  31.671  28.005  11.133
68368W        W36762  28.358  44.211   0.471
68369W        W36763  43.922  33.870   1.929
68370W        W36764  42.283  40.446  14.933
68371W        W36765   1.825  15.418  10.293
68372W        W36766  44.814  34.113   0.384
68373W        W36767  25.023  35.062   0.437
68374W        W36768  17.014  28.980   4.969
68375W        W36769  39.099  36.523  14.314
68376W        W36770  11.263  35.841  14.033
68377W        W36771  35.254  37.112  12.077
68378W        W36772  40.242  44.407  13.200
68379W        W36773  36.484  24.065  12.625
68380W        W36774  33.992  14.707  11.745
68381W        W36775  18.114  44.954   4.303
68382W        W36776  44.210   7.872  13.826
68383W        W36777  29.536  20.761  13.852
68384W        W36778  21.103  23.215  11.657
68385W        W36779  25.951  40.488   0.373
68386W        W36780   2.465   7.384   1.734
68387W        W36781  38.593   1.415  14.628
68388W        W36782  26.146  18.279   4.631
68389W        W36783  42.963   3.489   1.365
68390W        W36784  12.975  42.964  11.614
68391W        W36785   7.653  37.103  13.770
68392W        W36786  16.306  30.100   0.389
68393W        W36787  13.639   5.935   5.470
68394W        W36788  28.185  20.992  14.251
68395W        W36789  44.739   8.368   2.448
68396W        W36790  20.688  31.059   3.802
68397W        W36791  43.511  20.023  12.113
68398W        W36792  22.370  37.372  11.545
68399W        W36793   9.079   4.308  10.126
68400W        W36794  39.309  44.630   4.929
68401W        W36795   8.625  31.009   3.073
68402W        W36796  43.581  22.821  13.480
68403W        W36797   6.367  36.326  11.574
68404W        W36798  36.379  26.680  11.602
68405W        W36799  28.219  43.254   3.216
68406W        W36800  20.084  19.601  13.592
68407W        W36801  41.027  25.530  14.606
68408W        W36802  33.134  40.068  14.770
68409W        W36803   2.531  21.991  13.094
68410W        W36804  30.974  17.234  14.895
68411W        W36805  24.991  16.291  11.444
68412W        W36806  18.274   6.776   1.329
68413W        W36807  29.720  28.672  12.911
68414W        W36808  22.572  17.094  12.975
68415W        W36809   9.627  13.285  11.905
68416W        W36810  23.631  25.052   4.354
68417W        W36811  29.121  25.559   1.913
68418W        W36812  38.038  33.621   0.882
68419W        W36813  23.004  20.997   3.830
68420W        W36814   7.247   6.110   0.680
68421W        W36815  34.229  31.579   3.714
68422W        W36816  29.863   6.220   1.334
68423W        W36817   5.131  35.739  11.052
68424W        W36818  26.674   8.885  13.366
68425W        W36819  25.723   7.338  14.980
68426W        W36820  14.562   8.633   2.331
68427W        W36821  36.929  28.684  14.256
68428W        W36822  41.302  21.671  13.129
68429W        W36823  10.778   4.012   1.145
68430W        W36824  37.013  28.432  14.720
68431W        W36825  18.981  41.811   2.975
68432W        W36826  31.385  32.606   4.565
68433W        W36827  11.334  35.303  14.445
68434W        W36828  10.115  11.229  13.581
68435W        W36829  11.389  17.045  13.335
68436W        W36830  29.306  17.342  14.035
68437W        W36831  39.373  12.254  12.524
68438W        W36832  29.956  28.601  14.915
68439W        W36833  14.750  26.421  14.982
68440W        W36834  17.120   1.344  12.305
68441W        W36835   2.570  40.582   2.801
68442W        W36836  29.548  36.387   2.800
68443W        W36837   5.265  20.061  10.655
68444W        W36838   0.848  33.076  12.143
68445W        W36839  39.148  41.752  12.449
68446W        W36840  13.120  25.353   2.105
68447W        W36841   9.102  42.983  12.204
68448W        W36842   4.796  24.067  10.137
68449W        W36843  18.254  27.662   1.636
68450W        W36844  42.001   2.119  12.847
68451W        W36845  34.682   2.998   0.381
68452W        W36846  30.430   5.277   0.056
68453W        W36847   3.397  42.830   1.885
68454W        W36848   9.654  42.854  11.135
68455W        W36849   3.516  21.506   4.796
68456W        W36850  40.973  43.380  11.104
68457W        W36851  26.244   6.683   3.089
68458W        W36852  40.293   6.401   1.483
68459W        W36853  21.478  38.848   2.190
68460W        W36854  20.804  15.063   0.433
68461W        W36855  33.874  25.043   0.700
68462W        W36856  12.280  38.064  14.537
68463W        W36857  13.724  11.046  14.981
68464W        W36858   7.887   5.762   0.457
68465W        W36859  12.498  41.805  14.404
68466W        W36860  19.384   6.370   1.040
68467W        W36861  29.543  35.138  10.771
68468W        W36862  23.581  27.026  13.800
68469W        W36863  42.260  44.715   3.786
68470W        W36864  40.648  22.288  14.737
68471W        W36865  36.321   9.709  12.880
68472W        W36866  26.632  42.311   3.740
68473W        W36867  15.653  30.182   1.744
68474W        W36868  32.049  44.946   4.008
68475W        W36869  14.585  23.997  12.990
68476W        W36870  33.952  16.211   2.630
68477W        W36871   6.700  18.320  14.267
68478W        W36872  10.830  17.806  13.706
68479W        W36873  16.891  27.077  12.424
68480W        W36874  19.556   2.889   4.372
68481W        W36875   8.631  15.719  13.340
68482W        W36876  39.305   2.848   4.481
68483W        W36877   5.340  26.456   1.269
68484W        W36878  16.684  40.815   2.869
68485W        W36879  42.933  39.618   5.192
68486W        W36880  39.610  38.581  11.881
68487W        W36881  26.982   1.447   1.997
68488W        W36882  39.154  21.735  14.926
68489W        W36883  13.307  25.435  10.829
68490W        W36884  42.755  17.819  13.116
68491W        W36885  22.132  29.034  13.016
68492W        W36886  33.795  28.083  12.516
68493W        W36887  42.764  39.918   4.635
68494W        W36888  11.947  22.550   4.089
68495W        W36889  42.050  22.891  11.833
68496W        W36890   5.285  26.409  14.787
68497W        W36891  23.546  15.777  11.742
68498W        W36892  13.848  18.579   1.601
68499W        W36893  39.960  33.636  13.869
68500W        W36894  34.400   8.381   0.764
68501W        W36895  22.683  12.068   3.097
68502W        W36896   5.430  40.610  13.458
68503W        W36897  41.131  24.207   4.649
68504W        W36898  35.864  36.018  11.874
68505W        W36899  35.491   1.499   1.984
68506W        W36900  40.750  26.366  12.567
68507W        W36901  40.318  32.521  14.537
68508W        W36902  22.388   3.277  10.166
68509W        W36903   8.688   2.777  11.542
68510W        W36904  33.069  44.000   1.262
68511W        W36905  22.569  24.279  11.177
68512W        W36906  20.038  36.861   4.518
68513W        W36907  36.432  43.303  14.512
68514W        W36908  25.452  39.539  10.812
68515W        W36909   8.731  18.509  14.308
68516W        W36910  16.340   5.345  14.639
68517W        W36911  28.975   9.835  13.600
68518W        W36912  32.023  40.895  13.498
68519W        W36913   1.061  31.463   2.667
68520W        W36914  21.453  25.163   4.201
68521W        W36915  26.679   3.462   1.390
68522W        W36916  11.682   0.206   0.928
68523W        W36917  43.434  12.569   4.310
68524W        W36918  15.852  15.752   4.151
68525W        W36919  42.997  34.686   3.788
68526W        W36920  31.557  24.690   1.110
68527W        W36921  17.571   2.895   1.407
68528W        W36922  33.457   2.017   4.123
68529W        W36923  38.088   6.641  14.895
68530W        W36924  23.640  27.051   3.116
68531W        W36925   0.477   7.168  11.112
68532W        W36926  15.809  13.954  13.022
68533W        W36927  38.692  18.456  11.351
68534W        W36928  18.553  20.614  13.481
68535W        W36929  23.129  44.688  11.936
68536W        W36930  23.867  33.833   1.765
68537W        W36931  19.068   2.783   2.350
68538W        W36932  10.148  27.311   5.084
68539W        W36933  22.206  10.610  11.086
68540W        W36934   9.085  34.825   2.760
68541W        W36935  11.547  14.142   1.021
68542W        W36936  43.579  30.138  13.832
68543W        W36937   4.242  37.099   1.330
68544W        W36938  30.901   6.977  11.558
68545W        W36939  39.025  29.134   0.277
68546W        W36940  22.602  18.524  11.242
68547W        W36941  30.983   4.322  11.928
68548W        W36942  33.739  22.475  13.547
68549W        W36943   6.778  22.666   0.524
68550W        W36944  11.238  30.635  14.823
68551W        W36945  21.513   2.173  13.083
68552W        W36946  33.870  32.090  12.366
68553W        W36947  32.171  14.335   2.927
68554W        W36948  36.669   8.909   2.417
68555W        W36949  28.749  43.324   3.261
68556W        W36950  11.343  35.187  12.552
68557W        W36951  39.388   2.369  12.918
68558W        W36952  11.338  25.235  14.453
68559W        W36953  44.586   5.873   0.306
68560W        W36954  10.135  40.047  11.306
68561W        W36955  37.453  22.036  14.743
68562W        W36956  13.407  24.669   3.087
68563W        W36957   7.951  29.720  14.873
68564W        W36958  37.522  27.797   4.201
68565W        W36959  32.880  23.689  11.460
68566W        W36960  27.138  25.565   4.921
68567W        W36961  23.492  16.046   4.718
68568W        W36962  36.201   1.224   0.809
68569W        W36963   3.809  40.612   0.270
68570W        W36964  44.735  21.498  10.895
68571W        W36965   9.210  39.414   3.358
68572W        W36966  17.199  43.485   1.345
68573W        W36967  16.646  17.843  13.103
68574W        W36968  18.253  13.361   2.877
68575W        W36969   0.056  41.309  14.840
68576W        W36970  12.066  10.761  10.651
68577W        W36971  10.356  26.906   2.642
68578W        W36972  42.007  13.030  10.750
68579W        W36973  26.477  25.137   1.272
68580W        W36974  21.220  31.050   4.701
68581W        W36975  44.193  23.575  14.789
68582W        W36976  22.328  31.565   4.404
68583W        W36977  44.440  26.519   0.454
68584W        W36978  40.864  10.601  11.983
68585W        W36979  10.773  39.741   2.308
68586W        W36980  12.593  31.344   2.138
68587W        W36981  44.951  27.693  11.906
68588W        W36982   0.490  37.548   0.831
68589W        W36983  24.327   5.852  10.240
68590W        W36984   3.701  12.340   4.106
68591W        W36985  34.955   3.121  13.127
68592W        W36986  38.475  38.323   4.014
68593W        W36987   5.388  15.280  11.694
68594W        W36988  23.576  13.883  10.390
68595W        W36989  28.989  43.822  14.983
68596W        W36990   1.438  38.958   4.147
68597W        W36991   4.823  20.514  14.109
68598W        W36992  16.282  10.717   1.834
68599W        W36993  43.234   8.807   0.300
68600W        W36994   6.204   0.891   0.822
68601W        W36995   5.979  34.674   1.197
68602W        W36996  37.857  33.152   4.345
68603W        W36997   3.829  21.085  10.170
68604W        W36998  26.236   7.511   0.858
68605W        W36999  36.937  27.271   4.183
68606W        W37000  37.614  41.476  11.443
68607W        W37001   8.778   0.831   0.680
68608W        W37002  35.636   2.629   0.495
68609W        W37003   8.191   1.414   0.734
68610W        W37004   7.418  25.679   4.961
68611W        W37005  30.974  40.565   2.245
68612W        W37006   8.748  17.861   4.616
68613W        W37007   6.869  39.114  12.391
68614W        W37008  40.957  35.659  14.264
68615W        W37009  26.752  42.064   2.275
68616W        W37010   8.277  15.143  12.796
68617W        W37011  32.163  29.029   0.855
68618W        W37012  25.312  35.027   4.170
68619W        W37013   6.981  21.576  14.541
68620W        W37014  21.549  31.592  12.990
68621W        W37015  26.905   4.949  12.052
68622W        W37016  40.452  40.607  10.821
68623W        W37017  43.823  25.422   2.719
68624W        W37018  12.783  11.206   3.303
68625W        W37019  30.257   9.817  14.375
68626W        W37020   9.133  15.866  12.147
68627W        W37021  39.294  25.079   0.029
68628W        W37022   9.743  40.557  12.093
68629W        W37023  18.979  19.138   0.733
68630W        W37024  18.017  12.834  13.497
68631W        W37025  20.738  29.658  10.497
68632W        W37026  38.939  40.379  12.802
68633W        W37027  10.131  44.686   3.608
68634W        W37028  13.797  40.928  14.973
68635W        W37029  13.025  28.639   0.987
68636W        W37030  25.710  18.970   2.512
68637W        W37031   5.538  13.936   2.260
68638W        W37032  22.923  14.243   3.920
68639W        W37033   6.746  15.733   0.733
68640W        W37034  41.776  19.611   0.330
68641W        W37035   7.160  38.681  12.483
68642W        W37036  25.498   9.167  12.965
68643W        W37037   0.788  36.101  13.161
68644W        W37038   0.640  32.131  12.493
68645W        W37039  17.612  36.374  13.628
68646W        W37040  22.404  36.464  11.205
68647W        W37041   0.635  22.962   3.146
68648W        W37042  22.721  35.369  14.320
68649W        W37043  32.641  37.356  10.691
68650W        W37044   6.278   7.909  10.333
68651W        W37045  13.899  13.107   0.766
68652W        W37046   5.834  14.400   2.390
68653W        W37047  36.703   1.328   0.827
68654W        W37048  17.988  37.679  11.803
68655W        W37049   7.304  30.897  14.437
68656W        W37050  44.877  24.937  14.470
68657W        W37051   1.138  11.901   0.285
68658W        W37052  34.889  16.098  14.309
68659W        W37053   1.852   7.350  11.577
68660W        W37054  10.098  18.582  10.660
68661W        W37055  40.956  29.943  10.790
68662W        W37056  43.231  14.647  12.264
68663W        W37057  20.020  12.063   1.677
68664W        W37058   4.349  30.441   0.335
68665W        W37059  16.065   3.914   1.317
68666W        W37060  10.938   6.246  11.933
68667W        W37061  38.587  33.554  13.990
68668W        W37062  34.826  11.628   1.390
68669W        W37063  28.610  40.080   3.375
68670W        W37064  19.158  31.994  12.097
68671W        W37065  32.138  19.277   4.577
68672W        W37066  21.073  39.402  14.352
68673W        W37067   5.899  26.452   3.118
68674W        W37068   8.561  15.195   1.871
68675W        W37069  41.615  19.742  11.676
68676W        W37070  26.843  21.952  14.440
68677W        W37071   3.030  38.775   4.056
68678W        W37072  34.036  27.690   3.283
68679W        W37073  40.153  22.983   0.782
68680W        W37074   0.229  40.483   4.200
68681W        W37075  31.645   4.672  11.531
68682W        W37076  11.371  43.265   0.756
68683W        W37077  34.457   6.794  14.791
68684W        W37078   5.096  28.673  11.424
68685W        W37079  29.147  12.610   4.057
68686W        W37080   2.857  12.754  14.002
68687W        W37081  25.665  39.326   0.476
68688W        W37082  24.081  25.704  12.201
68689W        W37083  21.477  43.963  12.016
68690W        W37084  14.883   5.883   1.524
68691W        W37085  20.291  24.533  12.353
68692W        W37086  29.358   6.608   1.983
68693W        W37087  31.070  26.641  12.933
68694W        W37088   0.493  43.999   2.283
68695W        W37089   9.942  14.896  14.412
68696W        W37090  30.387  15.028   1.989
68697W        W37091  29.289  16.815  12.470
68698W        W37092  41.655  22.953   4.630
68699W        W37093  34.427  30.193  11.212
68700W        W37094  13.062  32.469  13.908
68701W        W37095  11.473  15.982   2.154
68702W        W37096  33.834  35.123   4.120
68703W        W37097  35.350   1.469  11.171
68704W        W37098  11.884  17.219   4.099
68705W        W37099   4.977  36.548   4.342
68706W        W37100   6.983  21.098  13.850
68707W        W37101  39.396   3.540   3.193
68708W        W37102   5.711   5.995   4.106
68709W        W37103  21.209   5.350  13.626
68710W        W37104  31.698  32.731  10.823
68711W        W37105   9.294  40.370   0.048
68712W        W37106  15.857  36.408  10.955
68713W        W37107  28.427  30.036  14.136
68714W        W37108  13.351  40.168   4.196
68715W        W37109   7.464  18.657  12.982
68716W        W37110  12.748  38.891   2.156
68717W        W37111   4.783  43.969   3.509
68718W        W37112  33.120  41.997  11.591
68719W        W37113   2.500  32.561   4.630
68720W        W37114  42.456  20.203   1.015
68721W        W37115   0.427  12.761  11.288
68722W        W37116  21.245  33.654  12.336
68723W        W37117   7.569  11.311   0.411
68724W        W37118  36.122  25.731  11.392
68725W        W37119  44.617  39.182   2.234
68726W        W37120  22.004  13.654  14.435
68727W        W37121  34.592  14.071   4.149
68728W        W37122  30.433  16.498  14.459
68729W        W37123  24.545  34.978   4.692
68730W        W37124  42.314  34.572  12.871
68731W        W37125  19.727  17.099   0.380
68732W        W37126  16.770  12.106   3.755
68733W        W37127  30.952  20.547   3.300
68734W        W37128   6.956  37.542  14.334
68735W        W37129  42.837   9.262   0.983
68736W        W37130  36.357   0.734  12.537
68737W        W37131  38.298  36.540  11.464
68738W        W37132   6.141  31.419  13.856
68739W        W37133   0.739  36.467  10.966
68740W        W37134   2.487  42.503   4.768
68741W        W37135  18.110  40.977  10.724
68742W        W37136   1.291  38.302  12.122
68743W        W37137  35.588  35.053  10.933
68744W        W37138  19.460  15.672  12.455
68745W        W37139  40.508  18.610  11.664
68746W        W37140  13.720  23.441  10.567
68747W        W37141  13.290  19.761   1.369
68748W        W37142  21.683  26.602  12.050
68749W        W37143  27.485  39.959   3.750
68750W        W37144  11.668  32.124  14.088
68751W        W37145  39.542   6.468  13.006
68752W        W37146  17.546  24.640  14.602
68753W        W37147  19.096  35.360  11.495
68754W        W37148   9.641  11.784   0.992
68755W        W37149   3.746   9.394  12.108
68756W        W37150  17.019  37.501   2.270
68757W        W37151  23.815  38.860   1.647
68758W        W37152  40.040   5.923  14.236
68759W        W37153  16.647   4.016   4.136
68760W        W37154  27.669  10.139  14.406
68761W        W37155  24.716  26.451   0.424
68762W        W37156  33.503   6.917  14.904
68763W        W37157  24.790  39.319  11.435
68764W        W37158  29.872  14.169   4.222
68765W        W37159  16.097  43.105   4.399
68766W        W37160  32.380   6.881   2.406
68767W        W37161   9.209   2.925   1.920
68768W        W37162  38.823   7.675  13.427
68769W        W37163  14.996  32.127   1.048
68770W        W37164   0.907  21.300   0.508
68771W        W37165  21.979  38.597   1.750
68772W        W37166   3.847   3.875   5.040
68773W        W37167   3.267  30.501   4.432
68774W        W37168  42.333  36.404   2.888
68775W        W37169  44.772  38.029   4.692
68776W        W37170  21.100  19.578   3.181
68777W        W37171  14.201  24.139  10.686
68778W        W37172  16.688  20.616   2.689
68779W        W37173  25.223   1.832  13.968
68780W        W37174  21.085  33.865   2.488
68781W        W37175  21.622  39.507  14.997
68782W        W37176  24.701  10.238  12.562
68783W        W37177  37.599  20.433  14.766
68784W        W37178   1.755  10.920  14.867
68785W        W37179  34.578  34.440  11.395
68786W        W37180  10.306  35.953   0.502
68787W        W37181  15.226   7.214  12.506
68788W        W37182  25.573  25.143  12.850
68789W        W37183  33.419  28.871  12.069
68790W        W37184  41.347  13.187   2.310
68791W        W37185   3.332  23.202  14.392
68792W        W37186  18.796  24.625  13.413
68793W        W37187  36.622  27.038  14.788
68794W        W37188  17.245  31.915  13.985
68795W        W37189  16.322  25.877   1.423
68796W        W37190  16.715  11.147   4.656
68797W        W37191   0.526  26.986  14.821
68798W        W37192   6.265  41.246  10.737
68799W        W37193  23.277  33.047  12.824
68800W        W37194  11.699  20.159  10.757
68801W        W37195  32.013   9.578   0.601
68802W        W37196  18.238  29.994  10.777
68803W        W37197  20.129  22.305  12.130
68804W        W37198  15.032  29.484   4.636
68805W        W37199   4.048   0.573   0.392
68806W        W37200  37.544  15.259  12.453
68807W        W37201  27.556  29.001  13.749
68808W        W37202  26.479  27.744  14.939
68809W        W37203   1.067  25.439  12.469
68810W        W37204   2.525  37.188   4.124
68811W        W37205  22.210  25.788  13.582
68812W        W37206   5.165   9.360   2.725
68813W        W37207  31.098  38.419  11.855
68814W        W37208   6.822  40.752  13.476
68815W        W37209  43.577  26.719   4.625
68816W        W37210  42.435   6.771   2.360
68817W        W37211  17.930  27.587   4.004
68818W        W37212  37.305  18.833   0.254
68819W        W37213  16.295  42.736  14.367
68820W        W37214  13.708   2.732   0.002
68821W        W37215  35.422  10.616   3.056
68822W        W37216  31.633  23.185  10.170
68823W        W37217  28.469  35.882   2.671
68824W        W37218  36.735  23.515  12.864
68825W        W37219  26.955   7.176   0.852
68826W        W37220  16.199   9.760   2.388
68827W        W37221   4.259  41.471   1.131
68828W        W37222  18.298  12.149  11.446
68829W        W37223   8.284   2.222   2.385
68830W        W37224  24.801  24.252   4.887
68831W        W37225  26.704   5.141  14.078
68832W        W37226  24.573  31.123  12.038
68833W        W37227  25.521  12.666   1.513
68834W        W37228  28.452  26.518  10.311
68835W        W37229  35.853  27.854  11.194
68836W        W37230  37.967   1.676   2.825
68837W        W37231  28.938  18.560  13.063
68838W        W37232  18.639  28.991   0.521
68839W        W37233  38.683   9.735   4.679
68840W        W37234  30.972  31.324   4.808
68841W        W37235  33.040  38.013  11.620
68842W        W37236  40.876   0.793   4.682
68843W        W37237   7.404  10.450  13.807
68844W        W37238  11.732  35.789   3.671
68845W        W37239  10.776  38.315   3.081
68846W        W37240  33.362   3.393   3.906
68847W        W37241  39.018  10.408  12.865
68848W        W37242  34.521  16.670   0.691
68849W        W37243  19.354  44.962   2.959
68850W        W37244  10.290  14.531   2.980
68851W        W37245  33.908  43.303   3.094
68852W        W37246  13.369  25.164  10.390
68853W        W37247  23.598  10.722   4.040
68854W        W37248  17.333   7.228   0.766
68855W        W37249  39.614  35.199   3.104
68856W        W37250   2.964  40.790  12.519
68857W        W37251  33.341  34.730  14.938
68858W        W37252  15.755  24.369   2.198
68859W        W37253   8.318   3.486   1.812
68860W        W37254  34.564  43.386  14.673
68861W        W37255  33.134  16.076  12.029
68862W        W37256   9.840  33.015  14.360
68863W        W37257   6.387  23.759   5.401
68864W        W37258  12.618  36.075  12.509
68865W        W37259  24.957  35.889   0.046
68866W        W37260  11.407  30.677   0.764
68867W        W37261  16.052  34.398  10.497
68868W        W37262  32.833  30.481   2.889
68869W        W37263  19.616  20.008   1.923
68870W        W37264  35.853  31.349  12.981
68871W        W37265  25.539   6.875  14.726
68872W        W37266  31.976  11.830  12.838
68873W        W37267  14.683   4.714  10.294
68874W        W37268  33.456  21.646  12.874
68875W        W37269   4.763  16.250  10.284
68876W        W37270  21.160  32.983   2.066
68877W        W37271  30.528  32.777   1.245
68878W        W37272  29.078  26.262  12.950
68879W        W37273   4.961  15.766   4.085
68880W        W37274  26.224   5.927  12.925
68881W        W37275  24.190   4.890   4.596
68882W        W37276  31.878  43.542   2.188
68883W        W37277  39.992  16.630   0.455
68884W        W37278  19.472  37.363   2.415
68885W        W37279  26.508  36.306   0.771
68886W        W37280  39.453  14.295   4.537
68887W        W37281  16.352  17.769   3.079
68888W        W37282  22.746  35.771   0.307
68889W        W37283   4.414  40.961  11.705
68890W        W37284  43.043  31.363  13.842
68891W        W37285   9.741  25.844   0.725
68892W        W37286  39.297   1.302  14.712
68893W        W37287   1.195  37.074  13.453
68894W        W37288   8.167   6.443   4.613
68895W        W37289  32.026  38.189   4.281
68896W        W37290  11.338   7.726   3.146
68897W        W37291  40.860  43.592  13.812
68898W        W37292  26.489   9.257   3.572
68899W        W37293  24.690  26.226  12.010
68900W        W37294  19.827  41.040  11.185
68901W        W37295  44.749  15.123   0.742
68902W        W37296  24.777  41.216   3.381
68903W        W37297  42.977  31.842   0.365
68904W        W37298  22.826  12.160  12.094
68905W        W37299  30.807  12.856  13.291
68906W        W37300   0.791   1.729  11.996
68907W        W37301  27.558  27.382  11.897
68908W        W37302  15.288  10.330  12.568
68909W        W37303  44.549  42.155  11.842
68910W        W37304  25.619  19.756   3.810
68911W        W37305   6.627  11.616  11.250
68912W        W37306  13.182   0.965   2.398
68913W        W37307  25.074  23.349  10.412
68914W        W37308   7.839   3.700   3.220
68915W        W37309   7.303  43.258   1.648
68916W        W37310  41.321   9.146  14.799
68917W        W37311   7.278  27.677   2.212
68918W        W37312  27.401   4.460   3.373
68919W        W37313  18.045  25.670  12.660
68920W        W37314  13.583  30.526  11.170
68921W        W37315  25.150   9.927   3.053
68922W        W37316  20.591   4.261   1.752
68923W        W37317  27.833  15.683  12.994
68924W        W37318  39.522  18.348  11.167
68925W        W37319   5.129  11.585   2.960
68926W        W37320   7.963   6.498  14.452
68927W        W37321  19.771   4.310  11.268
68928W        W37322  35.491  26.711  11.864
68929W        W37323  17.691  13.231   4.025
68930W        W37324  31.307  11.419   4.202
68931W        W37325  23.520  39.584  12.147
68932W        W37326  28.367  44.895   2.109
68933W        W37327   8.790  10.321  12.184
68934W        W37328  11.906  19.726  10.559
68935W        W37329  29.610  15.079   1.840
68936W        W37330  37.458  36.636   2.962
68937W        W37331  19.650  30.991   0.721
68938W        W37332  43.941  35.299  14.125
68939W        W37333   8.152  35.502   0.952
68940W        W37334  37.964  40.564  13.037
68941W        W37335   1.723   7.228   2.263
68942W        W37336  39.100  38.065   1.899
68943W        W37337  21.654   4.088   3.375
68944W        W37338  41.899   1.536  12.268
68945W        W37339   6.893   3.120   3.603
68946W        W37340  11.891   3.313  10.952
68947W        W37341  18.287  16.793  11.194
68948W        W37342  12.016  11.655  10.500
68949W        W37343  18.839  18.296   3.124
68950W        W37344  22.124  37.384   3.605
68951W        W37345  25.951  29.253   2.420
68952W        W37346  16.661  44.739   1.176
68953W        W37347   2.411   9.596  12.551
68954W        W37348   5.195   8.174  11.128
68955W        W37349   8.128  44.298  10.784
68956W        W37350   7.655  27.490   0.951
68957W        W37351   8.402   1.563  11.640
68958W        W37352  22.619  17.518   2.344
68959W        W37353  33.539  44.555   2.807
68960W        W37354  31.058  20.213   3.694
68961W        W37355  30.579  30.196  11.032
68962W        W37356  44.516  44.649   4.591
68963W        W37357  12.066  31.455   4.193
68964W        W37358  13.377  33.062   3.666
68965W        W37359  17.376  26.944   3.118
68966W        W37360  37.108  43.659  10.920
68967W        W37361  43.665  19.300  11.575
68968W        W37362  38.443  37.281   1.044
68969W        W37363  42.734  42.063   3.322
68970W        W37364  32.898   7.583   2.115
68971W        W37365   7.359   6.294  13.752
68972W        W37366  30.472  18.869  10.867
68973W        W37367  37.856  20.500  13.036
68974W        W37368  19.086  18.356  14.300
68975W        W37369  29.024  36.062  14.809
68976W        W37370  14.172   3.619  14.486
68977W        W37371  20.795  29.368  13.385
68978W        W37372  28.438  23.726  13.782
68979W        W37373  40.357  33.070   3.376
68980W        W37374  10.948  27.109  11.553
68981W        W37375  33.376  32.622  14.892
68982W        W37376  36.018  24.936   0.929
68983W        W37377  16.103   7.893   2.543
68984W        W37378  15.203   0.371   3.652
68985W        W37379  18.672  20.211  14.062
68986W        W37380  37.844   9.172  14.682
68987W        W37381  34.020  27.927  12.942
68988W        W37382  27.281  33.828  12.080
68989W        W37383  23.804  32.583  14.862
68990W        W37384   8.571  32.572   2.815
68991W        W37385  44.384   9.155   0.927
68992W        W37386   2.109  43.723  12.922
68993W        W37387   8.769   8.930  11.057
68994W        W37388  20.899  25.811   4.860
68995W        W37389  29.559  29.894  11.935
68996W        W37390  25.007  44.265   4.031
68997W        W37391  23.794  22.550  11.609
68998W        W37392  12.335  21.678   2.150
68999W        W37393  14.091   1.951  11.417
69000W        W37394  14.308  35.762   2.178
69001W        W37395   4.195  42.327   3.233
69002W        W37396  25.393   1.453  13.657
69003W        W37397  23.072  35.676  14.047
69004W        W37398   4.982  17.951   4.621
69005W        W37399   6.675   3.040   2.446
69006W        W37400  27.164  38.534  13.553
69007W        W37401  31.880  33.858   2.801
69008W        W37402   7.189   5.826  13.881
69009W        W37403  23.872  18.244  10.120
69010W        W37404  44.002  42.705  11.498
69011W        W37405  16.129   1.580  13.847
69012W        W37406  24.399  43.316  12.082
69013W        W37407  10.652  41.426  10.398
69014W        W37408  39.065  37.718  13.479
69015W        W37409  31.515  15.331  12.099
69016W        W37410  32.109   1.257  11.722
69017W        W37411  40.428  44.272   0.237
69018W        W37412  16.641  31.466  10.686
69019W        W37413  20.437  14.230   3.916
69020W        W37414  38.914  17.550   2.834
69021W        W37415  43.835  11.841  14.805
69022W        W37416  34.143  26.003   2.648
69023W        W37417  13.956   3.582   4.986
69024W        W37418  35.971  32.991  11.182
69025W        W37419   6.336   6.879   2.225
69026W        W37420  37.003   1.884  13.610
69027W        W37421  25.674  10.098  10.612
69028W        W37422   9.646  17.461   3.266
69029W        W37423  13.353   0.071  10.928
69030W        W37424  42.258  37.137   4.569
69031W        W37425  31.816  42.348  12.544
69032W        W37426  41.592  38.395  13.094
69033W        W37427  25.206  26.057   0.577
69034W        W37428  43.447   2.186  14.956
69035W        W37429  37.976  21.969  14.581
69036W        W37430   6.137  36.135   2.718
69037W        W37431   4.465  12.261   0.907
69038W        W37432  32.007  29.678  12.797
69039W        W37433  43.336   5.750  14.890
69040W        W37434  44.808  29.452  10.955
69041W        W37435  15.591  36.245   0.499
69042W        W37436  38.483   9.749  11.685
69043W        W37437  17.869   8.101   5.480
69044W        W37438  31.482   6.950   4.358
69045W        W37439  36.701  36.420   3.276
69046W        W37440  32.342  31.246  13.473
69047W        W37441   8.185   5.764  13.493
69048W        W37442  32.883  43.258   1.778
69049W        W37443   4.722  41.879   3.839
69050W        W37444   2.956  42.781   4.781
69051W        W37445  34.181   4.846  10.779
69052W        W37446  39.628   6.412   0.813
69053W        W37447  22.711  28.806  12.280
69054W        W37448  18.915  29.589   1.339
69055W        W37449  25.307  25.893   2.203
69056W        W37450  32.920  42.905   2.874
69057W        W37451   0.797   2.438   3.333
69058W        W37452  40.735  12.234  10.913
69059W        W37453  36.457   5.094   4.143
69060W        W37454   1.650  41.885   3.177
69061W        W37455  28.197  42.436  11.986
69062W        W37456  27.165  43.517   4.060
69063W        W37457  16.295  33.008   3.881
69064W        W37458  40.922  41.035  13.472
69065W        W37459  28.405   7.742   4.874
69066W        W37460  33.582   8.812   0.779
69067W        W37461  24.615  24.152   0.770
69068W        W37462  44.521   2.123   2.135
69069W        W37463  15.005  41.998  13.344
69070W        W37464   0.317  36.556   4.619
69071W        W37465  33.913  23.063   2.432
69072W        W37466  36.673  10.097  12.937
69073W        W37467  13.296  28.745  12.055
69074W        W37468  41.895  22.805   0.433
69075W        W37469  41.448  19.825   3.145
69076W        W37470  14.478  31.642  13.411
69077W        W37471  31.585   8.882   0.272
69078W        W37472  41.040  22.455  12.609
69079W        W37473  43.311  42.123  10.847
69080W        W37474  13.175  17.658  11.231
69081W        W37475  40.980  12.254   0.239
69082W        W37476  24.562  22.038   2.170
69083W        W37477  28.671  37.875  14.962
69084W        W37478  17.762  32.102   0.303
69085W        W37479  36.109   7.942  12.635
69086W        W37480  30.684  28.480   3.318
69087W        W37481  10.266  43.975   4.751
69088W        W37482   7.431  33.505   0.849
69089W        W37483  44.607  23.715  10.509
69090W        W37484  41.117  11.364  10.838
69091W        W37485  37.992  44.006   3.696
69092W        W37486   1.251  37.000   4.799
69093W        W37487  28.366  24.414   0.849
69094W        W37488  40.850  31.906   4.690
69095W        W37489  18.147  35.620   3.859
69096W        W37490  23.946   9.742  13.319
69097W        W37491  38.644   6.366   0.902
69098W        W37492  14.600  32.045  11.506
69099W        W37493  26.036  42.403  10.507
69100W        W37494  24.138  11.634   0.930
69101W        W37495  37.899  44.476  13.517
69102W        W37496  14.648  43.093  13.765
69103W        W37497  43.148  42.371   4.973
69104W        W37498  43.575  24.582   1.404
69105W        W37499  12.149  19.743   2.350
69106W        W37500  43.199  17.031   1.837
69107W        W37501  37.434   4.246  12.060
69108W        W37502  37.220   6.354  13.645
69109W        W37503  27.168  22.500  14.943
69110W        W37504  23.311  43.493   2.224
69111W        W37505  32.313   6.799   4.630
69112W        W37506  23.034  15.106  11.381
69113W        W37507  41.392  31.863   1.912
69114W        W37508  38.060  15.471   1.278
69115W        W37509  39.361   4.485  12.989
69116W        W37510  29.087  41.809  12.066
69117W        W37511  41.861  21.227   1.444
69118W        W37512  21.663  28.489   2.394
69119W        W37513  10.838  32.412  12.025
69120W        W37514  31.027  32.325   0.910
69121W        W37515  23.690   5.684   0.857
69122W        W37516  24.587  13.583   4.638
69123W        W37517   6.339   1.756   3.716
69124W        W37518  29.370  19.506  13.642
69125W        W37519  24.006  15.708   3.134
69126W        W37520  44.581  38.944   4.615
69127W        W37521  29.525  35.300   2.366
69128W        W37522   6.612  43.018   0.353
69129W        W37523   2.532  15.660   3.587
69130W        W37524  24.319   5.415  10.602
69131W        W37525  39.545  24.039  12.434
69132W        W37526  37.258  33.824   4.274
69133W        W37527   9.971   8.703   3.920
69134W        W37528  35.988  44.809   4.575
69135W        W37529   0.699  27.123   3.390
69136W        W37530  10.977   8.104  13.818
69137W        W37531   2.500  42.355  12.899
69138W        W37532   8.708  11.184  12.615
69139W        W37533  18.543  10.449   2.204
69140W        W37534  33.536  22.733   2.666
69141W        W37535  21.930   7.707   4.028
69142W        W37536  34.985   0.201  10.680
69143W        W37537  29.499  26.639   0.107
69144W        W37538  20.706  33.918   5.084
69145W        W37539   9.790  35.034   4.607
69146W        W37540  18.139  44.773  14.982
69147W        W37541  31.218  32.868  14.938
69148W        W37542  11.558  13.594  13.389
69149W        W37543  12.239  30.465   5.051
69150W        W37544   1.065   8.325  12.091
69151W        W37545  26.869  17.655  12.499
69152W        W37546  39.520  35.423  13.403
69153W        W37547   7.894  25.751   3.683
69154W        W37548  16.118  23.189   4.222
69155W        W37549  26.176  12.187   0.290
69156W        W37550   1.477  33.959   4.624
69157W        W37551  26.590  40.020  13.952
69158W        W37552   2.354  36.356   1.537
69159W        W37553   4.180  37.855  13.451
69160W        W37554   7.313  20.384  10.975
69161W        W37555  26.528  17.047  10.811
69162W        W37556  31.305  12.722   0.645
69163W        W37557  23.621  30.892   0.555
69164W        W37558  13.217   1.405   4.565
69165W        W37559  19.964  18.561   2.260
69166W        W37560  13.117  20.350   2.929
69167W        W37561  44.979   4.953   2.374
69168W        W37562  16.193  22.576   4.896
69169W        W37563   6.874  39.881  11.111
69170W        W37564  19.081  21.306  10.379
69171W        W37565  28.236  19.782  11.246
69172W        W37566  39.090  34.532   0.878
69173W        W37567  20.712  35.471   4.632
69174W        W37568  33.689  13.638  14.539
69175W        W37569   9.251  36.397  12.071
69176W        W37570  26.052   7.629   4.630
69177W        W37571  13.546   4.855   0.064
69178W        W37572  38.932  20.819   2.729
69179W        W37573  35.130  31.590  11.693
69180W        W37574   7.442  40.533   4.143
69181W        W37575  43.037  36.196  10.369
69182W        W37576  42.404  20.002  11.435
69183W        W37577  34.709  27.309  12.094
69184W        W37578  29.688  42.921   0.758
69185W        W37579  27.237  36.954   3.158
69186W        W37580  35.032  11.549   4.599
69187W        W37581  19.193  22.285   1.348
69188W        W37582  43.128   9.811  13.288
69189W        W37583  27.980  24.068  12.555
69190W        W37584  10.269  33.003   4.362
69191W        W37585   7.805  44.529   0.571
69192W        W37586  18.621  12.327   3.758
69193W        W37587  17.118  12.765   4.476
69194W        W37588  41.708   9.802   0.440
69195W        W37589  30.397  17.238   2.279
69196W        W37590   8.886  13.562   0.216
69197W        W37591  25.867  30.562  14.601
69198W        W37592  11.654  12.725  12.382
69199W        W37593   3.963  31.351   4.202
69200W        W37594  42.853  26.058   0.902
69201W        W37595  29.074  32.819  11.246
69202W        W37596   9.770  16.621   0.131
69203W        W37597  34.018   0.989  12.058
69204W        W37598  11.663  17.390  11.226
69205W        W37599  29.017   8.700  13.104
69206W        W37600   3.066  40.334   4.937
69207W        W37601  23.278   3.932  13.832
69208W        W37602  24.140  29.233  13.848
69209W        W37603   3.332  35.437  13.913
69210W        W37604  37.465  23.302   0.984
69211W        W37605  33.609   8.527   5.228
69212W        W37606  39.903   1.317  11.803
69213W        W37607  21.175   3.222   1.189
69214W        W37608   1.507  27.950   0.898
69215W        W37609  43.745  33.291  14.405
69216W        W37610   0.452  39.463  12.127
69217W        W37611  24.207   8.918   3.603
69218W        W37612   4.908  13.256   0.762
69219W        W37613  27.124  41.087  12.623
69220W        W37614  38.175  20.274   3.686
69221W        W37615  32.814  11.741   3.158
69222W        W37616  43.578  25.065   4.064
69223W        W37617   6.833  38.310  12.977
69224W        W37618  40.128  33.517  10.175
69225W        W37619  37.346  37.665  12.968
69226W        W37620  31.532  34.404  11.924
69227W        W37621  19.301   8.399   3.887
69228W        W37622  18.998  43.130   0.778
69229W        W37623  22.516  43.104  12.593
69230W        W37624   0.212  10.377  13.807
69231W        W37625  20.750  17.064  11.089
69232W        W37626  11.461  10.929   3.277
69233W        W37627  41.851  40.910   1.956
69234W        W37628  27.860  11.196   4.045
69235W        W37629  16.091  19.481   1.329
69236W        W37630  30.120   1.492   0.976
69237W        W37631  36.247  13.143  12.416
69238W        W37632  26.119  29.869   1.284
69239W        W37633  38.062  39.181   3.207
69240W        W37634  14.445   3.257   3.411
69241W        W37635  15.262  44.340  13.321
69242W        W37636  31.591  21.406   0.809
69243W        W37637  19.321  43.563   3.263
69244W        W37638  31.999   4.165  10.890
69245W        W37639  33.752  22.824   1.847
69246W        W37640   0.712  40.727  11.542
69247W        W37641  15.164   8.215  14.425
69248W        W37642  26.029   3.589   5.040
69249W        W37643   1.994   9.091  11.452
69250W        W37644  18.849  31.123   3.715
69251W        W37645  14.078  38.036  11.175
69252W        W37646   4.756  13.621  13.763
69253W        W37647  32.431  20.780   1.970
69254W        W37648   7.749  17.850   3.644
69255W        W37649  12.716  30.559  11.540
69256W        W37650  10.749  44.953  14.304
69257W        W37651   3.427  29.043  11.192
69258W        W37652   0.055  24.137   2.381
69259W        W37653  36.081  29.211   3.194
69260W        W37654  27.450  22.197   2.389
69261W        W37655  16.206   5.785  11.040
69262W        W37656  18.145  24.328  11.986
69263W        W37657   9.319  42.774   2.213
69264W        W37658  10.609  30.214  12.400
69265W        W37659  15.749  15.247   3.791
69266W        W37660  31.585  33.533   3.681
69267W        W37661   6.186  28.631   0.900
69268W        W37662   1.375  34.829  14.478
69269W        W37663  23.006   0.760   3.242
69270W        W37664  36.930  40.454   0.847
69271W        W37665  19.262  16.792   4.909
69272W        W37666  28.611   2.749   4.183
69273W        W37667   2.179   2.322   3.795
69274W        W37668  14.777   2.037  10.382
69275W        W37669   1.361  13.119  10.466
69276W        W37670   9.297  20.607   1.396
69277W        W37671  30.753  43.389  12.451
69278W        W37672  42.945  14.939  11.436
69279W        W37673   4.186  40.041  11.622
69280W        W37674  38.533  35.293   4.124
69281W        W37675  33.466  14.613   3.645
69282W        W37676  37.787  13.980   1.244
69283W        W37677  11.275  17.680  13.908
69284W        W37678   9.930  11.170  14.963
69285W        W37679  22.407  36.450   2.206
69286W        W37680  27.485  20.266  11.748
69287W        W37681  21.077  37.133  12.568
69288W        W37682  11.028  15.898  10.556
69289W        W37683   7.925   2.682   0.211
69290W        W37684  11.512  42.527   0.269
69291W        W37685  20.663  33.140  11.978
69292W        W37686   1.221   7.368   0.136
69293W        W37687   9.013  21.290   4.493
69294W        W37688  40.012  35.368   2.388
69295W        W37689  23.937  35.637  10.697
69296W        W37690  37.101  33.238   1.466
69297W        W37691   4.291  41.584  13.063
69298W        W37692   0.074  31.982   2.239
69299W        W37693  13.399  13.102  12.415
69300W        W37694  21.788  13.282  12.626
69301W        W37695  23.756   9.492   4.922
69302W        W37696  34.560  12.345  13.162
69303W        W37697  14.151  27.605   4.446
69304W        W37698  10.308  36.146  12.192
69305W        W37699  40.782  41.584  10.743
69306W        W37700  18.398  20.132  13.622
69307W        W37701   4.385   0.252  10.865
69308W        W37702  19.353   3.223   3.348
69309W        W37703   9.867  34.825   1.634
69310W        W37704  11.608  26.078   4.652
69311W        W37705  42.345  43.413   2.096
69312W        W37706  43.041  18.164  10.854
69313W        W37707  31.924  28.226   2.248
69314W        W37708   9.728  22.950  14.303
69315W        W37709  32.068  18.077  10.427
69316W        W37710  24.855   9.192   4.980
69317W        W37711   6.661  35.835  11.587
69318W        W37712  11.578  28.786  11.352
69319W        W37713  32.993  25.296  11.433
69320W        W37714  26.118  36.971  12.591
69321W        W37715   2.405  18.303   0.435
69322W        W37716  44.258  20.219  12.506
69323W        W37717  38.377  40.097  12.998
69324W        W37718  36.896   6.950   1.638
69325W        W37719  35.919   2.893   2.815
69326W        W37720  18.198  21.797   0.892
69327W        W37721  25.563  39.866  11.621
69328W        W37722  37.984   9.362   4.664
69329W        W37723  17.059  10.335  10.638
69330W        W37724   4.142  20.875   2.890
69331W        W37725  36.337  44.943  12.083
69332W        W37726  19.255  25.596   9.857
69333W        W37727   2.600  23.690   2.565
69334W        W37728   4.139  42.995   1.179
69335W        W37729  21.766  39.953  12.316
69336W        W37730  28.583  13.837   0.378
69337W        W37731  25.975  22.045   3.265
69338W        W37732   9.152  10.218   0.932
69339W        W37733   6.095  15.482  13.430
69340W        W37734  13.191  10.848   4.155
69341W        W37735  15.163  19.638   0.190
69342W        W37736  25.299   6.417  14.802
69343W        W37737   8.644  29.081   0.811
69344W        W37738  15.652  20.228   2.783
69345W        W37739  35.881  10.318  13.438
69346W        W37740  17.238  24.312  10.649
69347W        W37741  33.787  29.628   0.807
69348W        W37742   3.693  30.877  11.129
69349W        W37743  28.141  41.303  13.045
69350W        W37744  29.121  32.208   4.805
69351W        W37745  44.877  20.734   2.336
69352W        W37746  42.538   5.656  12.807
69353W        W37747  30.061  41.777   2.363
69354W        W37748  33.494  20.913   4.982
69355W        W37749  27.402  24.178   4.547
69356W        W37750  15.188  15.427  14.818
69357W        W37751  10.215   8.486   0.941
69358W        W37752   1.382  37.508   4.807
69359W        W37753  20.390   7.758   1.789
69360W        W37754  14.663  31.151   3.169
69361W        W37755  35.252   1.356  14.558
69362W        W37756   3.751  24.559  10.446
69363W        W37757  12.870  30.436  10.605
69364W        W37758  16.639   9.685  10.657
69365W        W37759   2.691  17.213  12.836
69366W        W37760  27.413  25.502  14.718
69367W        W37761  24.309  35.129   4.243
69368W        W37762  20.192  40.382   4.612
69369W        W37763  22.751  22.776   0.890
69370W        W37764  30.633  34.959   3.859
69371W        W37765  36.224  12.655   1.177
69372W        W37766  28.548   0.885  12.829
69373W        W37767  14.126   0.457   4.373
69374W        W37768  36.595  38.042  10.654
69375W        W37769   3.190  12.544   2.779
69376W        W37770   4.760  31.924   3.266
69377W        W37771  41.392   2.918   0.964
69378W        W37772  13.296  26.852   3.728
69379W        W37773  31.387  12.797   3.391
69380W        W37774  25.712  41.924  11.211
69381W        W37775  28.250  20.636   2.801
69382W        W37776  19.374  18.208  14.712
69383W        W37777  12.523  12.641   2.934
69384W        W37778   7.115  29.179  13.160
69385W        W37779  34.910   1.780  10.840
69386W        W37780  11.825  40.346  14.794
69387W        W37781  43.000  18.720  13.107
69388W        W37782  18.012  40.776  12.563
69389W        W37783  35.406  13.229  12.834
69390W        W37784  25.515  41.043   2.236
69391W        W37785  14.803  15.627  14.043
69392W        W37786  12.757  20.476   2.141
69393W        W37787  19.162  40.067  10.887
69394W        W37788  41.014  21.705   4.203
69395W        W37789  19.551  40.544   1.853
69396W        W37790  30.935  39.951   4.762
69397W        W37791  38.063  35.090   3.108
69398W        W37792  10.364   8.891  12.625
69399W        W37793   9.250  16.541   3.222
69400W        W37794  32.265  39.833  13.916
69401W        W37795  39.187  15.608   0.788
69402W        W37796  16.771  20.086  10.773
69403W        W37797  42.504  10.142   0.457
69404W        W37798   5.902  36.867  13.521
69405W        W37799  26.747  21.727   3.714
69406W        W37800   7.745   9.910   4.395
69407W        W37801   3.145  16.750  13.640
69408W        W37802  25.355  23.052   2.321
69409W        W37803  17.510  40.854  12.739
69410W        W37804   4.456  24.996   1.731
69411W        W37805  33.886  12.907   4.276
69412W        W37806  31.011  38.414   0.446
69413W        W37807  24.969  36.444  14.211
69414W        W37808  37.577   8.841   4.647
69415W        W37809  17.548  36.376  10.551
69416W        W37810  42.206  26.661   4.175
69417W        W37811  25.562  29.477   1.728
69418W        W37812  40.396  19.692   1.586
69419W        W37813  41.036   6.746   3.867
69420W        W37814   4.649  19.654   2.306
69421W        W37815  20.590  14.280   4.447
69422W        W37816   7.005  23.465   0.399
69423W        W37817  41.792  33.430   2.823
69424W        W37818  23.986   6.750   2.189
69425W        W37819   4.755  40.517  11.188
69426W        W37820  22.250  26.868   1.237
69427W        W37821  12.952  39.464   0.903
69428W        W37822  22.340   9.907   2.890
69429W        W37823  23.177  42.102   4.142
69430W        W37824   1.020  13.810  11.591
69431W        W37825  30.304   6.519   3.023
69432W        W37826  37.276  17.557  14.856
69433W        W37827  15.779  18.662   2.398
69434W        W37828   9.736  38.201  14.607
69435W        W37829  18.823  24.128  13.806
69436W        W37830  18.400  43.531   3.252
69437W        W37831   5.289  36.470   3.193
69438W        W37832  34.098  35.151   0.407
69439W        W37833  14.686   2.837  13.475
69440W        W37834  29.961  21.727   1.333
69441W        W37835  12.417  25.242  13.789
69442W        W37836   2.597  16.805   5.000
69443W        W37837  19.366  30.189   2.551
69444W        W37838  10.133  38.035  12.037
69445W        W37839  14.261  29.602  11.565
69446W        W37840  16.278  21.939  11.918
69447W        W37841  16.179  11.200   4.083
69448W        W37842  44.231  12.014  12.342
69449W        W37843  40.655  29.572  13.999
69450W        W37844  16.709   7.720   4.129
69451W        W37845  33.470   7.682  10.525
69452W        W37846  19.012   2.828   1.253
69453W        W37847  29.230  32.973   0.837
69454W        W37848   7.025  22.626   5.246
69455W        W37849  27.201  23.607   4.067
69456W        W37850  26.201  29.743  12.982
69457W        W37851  20.663  35.456   2.664
69458W        W37852  17.706  20.160   0.296
69459W        W37853  21.642  38.099   0.307
69460W        W37854  33.673   0.451  12.900
69461W        W37855  29.905  40.713   0.993
69462W        W37856  27.523  21.737   2.666
69463W        W37857  20.592  22.746   3.935
69464W        W37858  29.951  33.605  11.427
69465W        W37859  15.602  17.091  14.487
69466W        W37860   0.329  10.086  14.767
69467W        W37861  33.289   2.658  11.103
69468W        W37862   2.073  40.990   1.145
69469W        W37863  32.763   3.417   4.787
69470W        W37864  14.804  31.617  11.283
69471W        W37865  15.729  40.029   3.883
69472W        W37866   3.844  12.182   3.106
69473W        W37867  10.157   0.792   1.299
69474W        W37868  42.780  40.347  12.555
69475W        W37869   7.560  23.601  11.367
69476W        W37870  25.542  10.631  11.986
69477W        W37871  30.940  23.273   1.833
69478W        W37872  27.669  34.610   1.257
69479W        W37873  18.192   5.409   3.614
69480W        W37874  11.216  23.584  13.986
69481W        W37875  34.388   9.228   1.039
69482W        W37876   2.943  18.595  14.011
69483W        W37877  24.446   7.899  10.739
69484W        W37878  41.235   2.222   2.779
69485W        W37879  11.130  27.477  10.757
69486W        W37880  24.786  28.492  13.002
69487W        W37881  35.822  11.357   1.819
69488W        W37882  43.744  40.375  12.678
69489W        W37883  13.772   8.658  14.418
69490W        W37884  12.926  23.459   4.008
69491W        W37885  24.539   7.611  11.191
69492W        W37886  13.256  11.931  13.935
69493W        W37887  32.590  13.529  14.013
69494W        W37888  23.037  37.795   3.403
69495W        W37889  13.098  44.486  14.219
69496W        W37890  16.871  36.630  10.084
69497W        W37891  44.479   7.787   0.804
69498W        W37892  35.858  10.254  13.962
69499W        W37893  36.637   3.230  11.592
69500W        W37894  28.502  30.685  12.866
69501W        W37895  11.462   6.765  11.034
69502W        W37896  31.499  40.428   2.158
69503W        W37897  11.624  26.164  10.872
69504W        W37898  34.952   3.632  13.041
69505W        W37899  21.006  14.913   2.215
69506W        W37900   1.905  12.038   0.881
69507W        W37901  32.614   2.282   2.347
69508W        W37902  41.379   0.233  12.462
69509W        W37903  18.039  35.130  12.856
69510W        W37904  34.603  37.016   0.838
69511W        W37905  18.945  10.163  14.904
69512W        W37906  20.159  24.418   3.750
69513W        W37907  32.997  32.882  14.521
69514W        W37908  31.237  14.657   1.271
69515W        W37909  23.780  12.344   5.138
69516W        W37910  18.556   6.409   3.483
69517W        W37911  14.139  23.442   3.372
69518W        W37912  43.312  22.017  12.411
69519W        W37913  33.816  44.994  12.111
69520W        W37914  29.127  13.056   0.501
69521W        W37915   5.650   3.630  14.927
69522W        W37916  44.737   9.052  14.970
69523W        W37917  10.580  40.521  12.425
69524W        W37918  27.228  42.518  14.386
69525W        W37919  12.116   2.473   1.761
69526W        W37920  19.783  18.221   1.343
69527W        W37921  41.733  33.443  10.202
69528W        W37922   6.266  40.929   4.159
69529W        W37923   2.192  20.198   2.724
69530W        W37924  38.623   3.201  13.214
69531W        W37925  26.543  19.351  10.284
69532W        W37926  37.820  22.669   2.273
69533W        W37927  33.053  28.144   3.069
69534W        W37928  37.830  37.603  13.746
69535W        W37929  26.570   9.125  13.852
69536W        W37930  16.273  26.961   2.237
69537W        W37931  30.056  23.257   1.374
69538W        W37932  42.840  30.287  13.606
69539W        W37933  10.168  13.817  13.921
69540W        W37934  37.354  42.195   1.253
69541W        W37935  38.370  42.457   4.595
69542W        W37936  37.799  27.006   3.312
69543W        W37937  23.314  41.157  14.813
69544W        W37938  38.013  14.175   0.806
69545W        W37939  43.841  25.395  11.173
69546W        W37940   0.848  43.852   4.338
69547W        W37941  38.645  13.078  10.497
69548W        W37942  21.649   9.862   1.910
69549W        W37943  28.486  25.833  13.484
69550W        W37944  31.104  12.168  14.456
69551W        W37945  39.411  10.908  11.121
69552W        W37946  38.623  41.299  11.706
69553W        W37947  28.324  18.120   1.395
69554W        W37948  26.054  14.293   1.210
69555W        W37949  20.704  29.872   2.400
69556W        W37950  39.297   2.476   0.938
69557W        W37951   0.504  23.298  13.418
69558W        W37952   0.226  29.920   3.685
69559W        W37953  39.060  10.167   4.673
69560W        W37954  22.129  26.208  10.344
69561W        W37955  42.928   4.848   0.854
69562W        W37956  27.710  30.765   4.133
69563W        W37957  39.646   0.879  11.705
69564W        W37958  12.332  11.190  12.079
69565W        W37959  11.364  35.372  11.810
69566W        W37960   3.804  18.745  12.945
69567W        W37961  14.212  23.138   2.752
69568W        W37962   9.742  21.678   2.150
69569W        W37963  15.821  39.521  10.900
69570W        W37964  43.460   4.217  12.467
69571W        W37965   5.775  15.058   1.840
69572W        W37966  18.056  11.596   0.298
69573W        W37967   8.438   3.159  10.548
69574W        W37968   7.212  24.915   2.464
69575W        W37969  38.522  27.947   4.425
69576W        W37970  30.312   5.620   2.677
69577W        W37971  16.661   2.139  12.337
69578W        W37972  19.015  38.065   4.633
69579W        W37973  36.923  42.480   1.217
69580W        W37974  44.726  43.056  11.497
69581W        W37975  13.163  12.750  13.336
69582W        W37976  15.955  38.848   3.394
69583W        W37977  36.129  33.490  13.022
69584W        W37978   8.406  30.077  13.055
69585W        W37979  33.637   9.610  14.468
69586W        W37980  35.521  40.431   3.227
69587W        W37981  37.591  11.543   4.807
69588W        W37982   5.867  41.285   3.460
69589W        W37983  35.052   6.445  11.117
69590W        W37984  19.055   9.731   4.544
69591W        W37985  42.458  33.652   0.471
69592W        W37986   6.024   0.322  11.041
69593W        W37987  31.044  32.837   0.843
69594W        W37988  26.973  12.035  10.526
69595W        W37989  39.429   1.294   0.209
69596W        W37990  20.759  26.983   0.033
69597W        W37991  35.252   3.793   3.222
69598W        W37992  37.732  10.171   2.674
69599W        W37993  21.784  18.765   0.449
69600W        W37994  31.850   3.837  10.527
69601W        W37995   3.710  34.340  12.560
69602W        W37996  43.654   2.229  14.454
69603W        W37997  29.946  36.129  13.449
69604W        W37998  35.020  34.059   0.274
69605W        W37999  20.940  33.567  11.044
69606W        W38000  32.418   7.104  10.746
69607W        W38001  19.714   2.749  14.861
69608W        W38002  17.693  40.433   2.540
69609W        W38003  19.141  27.042   3.171
69610W        W38004  43.878  17.294   2.572
69611W        W38005   0.473  30.691  14.756
69612W        W38006  11.239  37.937  12.241
69613W        W38007   5.344  23.610   3.143
69614W        W38008  11.748  11.104   0.727
69615W        W38009  15.805  44.438   0.917
69616W        W38010  38.506  31.159   0.929
69617W        W38011  13.697   5.157  10.228
69618W        W38012   3.494  11.407  12.784
69619W        W38013  17.488  19.000   2.463
69620W        W38014   0.873  41.393   1.476
69621W        W38015   1.914  35.404  13.624
69622W        W38016  32.692  16.723   3.827
69623W        W38017  34.174  30.691   3.848
69624W        W38018  37.336  24.510   0.865
69625W        W38019  36.159  32.938   3.875
69626W        W38020  35.410   1.921  10.963
69627W        W38021  25.712  29.936  13.058
69628W        W38022  25.763  25.188  12.368
69629W        W38023  41.381  36.762  13.971
69630W        W38024  16.308  41.963   2.302
69631W        W38025  42.149  21.162  14.332
69632W        W38026   5.759   5.794   1.852
69633W        W38027   8.940  25.692   2.188
69634W        W38028   4.585   3.405   2.743
69635W        W38029  13.390   5.876  11.513
69636W        W38030  33.602  38.757   3.544
69637W        W38031  44.847  14.713  10.598
69638W        W38032   0.163  40.845  14.312
69639W        W38033   5.528  11.692   4.271
69640W        W38034  41.877   6.035   4.565
69641W        W38035  24.314  30.114   3.934
69642W        W38036  41.807  17.317   1.840
69643W        W38037  43.746  37.508   0.765
69644W        W38038  22.437  43.889  14.867
69645W        W38039   1.850  29.504   0.883
69646W        W38040  29.978   9.331   2.608
69647W        W38041  35.136  12.828  14.966
69648W        W38042  40.462  31.151  14.420
69649W        W38043  21.278  28.412  10.713
69650W        W38044  16.257   8.248  10.734
69651W        W38045  31.123  12.373  12.506
69652W        W38046  38.392  39.562   1.209
69653W        W38047  40.025   1.935   0.441
69654W        W38048  24.183  31.493  12.407
69655W        W38049   0.991  44.405   4.027
69656W        W38050  38.383  33.135  13.181
69657W        W38051   0.791  16.451  11.539
69658W        W38052  33.610  42.463  14.340
69659W        W38053  40.300  15.633   1.686
69660W        W38054   7.186  29.979  11.647
69661W        W38055   3.851  14.203  12.973
69662W        W38056  22.181   6.696   4.233
69663W        W38057  22.051   1.952  14.446
69664W        W38058  32.136  29.201   2.375
69665W        W38059  35.083   8.824  14.540
69666W        W38060  17.207  37.553  14.596
69667W        W38061   8.570  24.969   3.936
69668W        W38062  11.112  25.448  14.007
69669W        W38063  40.438  19.766   2.103
69670W        W38064  31.471  18.474   3.708
69671W        W38065  27.692   6.934   3.781
69672W        W38066  19.090  34.865   1.795
69673W        W38067  18.997  10.212  10.621
69674W        W38068  15.377   8.419  11.199
69675W        W38069  16.677  13.623   0.962
69676W        W38070  36.359  32.441  14.293
69677W        W38071  16.118   2.167  12.229
69678W        W38072  26.152  27.723  14.516
69679W        W38073  44.672  22.522  10.652
69680W        W38074  31.873  26.313  14.485
69681W        W38075  20.058  36.969  10.519
69682W        W38076  35.175  16.555  13.502
69683W        W38077  19.649   0.544  13.842
69684W        W38078   4.493   2.966  13.895
69685W        W38079  41.500  30.502   3.798
69686W        W38080   5.927   0.229   2.515
69687W        W38081  37.577  41.275  14.376
69688W        W38082  24.578  36.467   2.312
69689W        W38083  27.087   8.765  14.548
69690W        W38084  40.577   7.326   1.953
69691W        W38085  27.691   5.653  12.911
69692W        W38086   2.234  27.575  13.251
69693W        W38087  28.232  22.513   3.509
69694W        W38088  30.705  23.274  11.638
69695W        W38089  31.130   4.396  14.302
69696W        W38090  33.283   5.432   2.800
69697W        W38091  20.812  28.225   1.376
69698W        W38092  16.737  41.944  14.402
69699W        W38093  15.811  18.855  12.979
69700W        W38094  22.198   3.549  12.045
69701W        W38095  39.815   8.655   0.355
69702W        W38096  22.537  19.323  13.282
69703W        W38097  33.424  36.568  12.639
69704W        W38098  44.463  28.399   2.179
69705W        W38099  12.730   8.731   4.452
69706W        W38100   5.347  15.375   4.075
69707W        W38101  38.317   9.367   1.441
69708W        W38102  29.696  15.616  12.830
69709W        W38103  35.122  24.405  14.822
69710W        W38104  34.467  21.996   2.420
69711W        W38105   3.694   0.928  14.545
69712W        W38106   0.896  18.691   0.392
69713W        W38107  43.004   8.420   0.061
69714W        W38108   7.476  36.170   1.746
69715W        W38109  33.586   3.407   4.386
69716W        W38110  26.389   4.176  13.947
69717W        W38111  16.737  23.754   1.726
69718W        W38112   3.958  18.323   1.788
69719W        W38113  34.543  18.506  11.840
69720W        W38114  31.364  22.966   1.768
69721W        W38115  33.348  21.004  11.157
69722W        W38116  26.689   3.151   4.677
69723W        W38117  26.770  35.581  13.804
69724W        W38118  13.276  33.427  14.082
69725W        W38119  28.267  43.275  11.461
69726W        W38120   1.247  37.031   4.271
69727W        W38121  38.354  28.956   3.649
69728W        W38122  28.020  34.333  14.829
69729W        W38123  27.966   9.324   3.427
69730W        W38124  19.010   1.903  14.975
69731W        W38125  32.124  38.500  12.384
69732W        W38126  21.540  34.561   3.363
69733W        W38127   9.987  41.040   3.247
69734W        W38128  13.100   6.932  12.024
69735W        W38129  33.201  27.762   2.749
69736W        W38130  28.765   1.009   4.642
69737W        W38131  27.026  41.828  12.089
69738W        W38132  41.296  39.883  12.088
69739W        W38133  37.756  43.172   2.710
69740W        W38134  34.651   6.949  13.415
69741W        W38135  21.726  39.978   1.893
69742W        W38136  14.049   7.520   3.209
69743W        W38137  40.153  39.732  13.649
69744W        W38138  20.712  18.794   1.113
69745W        W38139  43.619  25.709  11.630
69746W        W38140  25.702   1.708   3.727
69747W        W38141  23.056  19.675   1.300
69748W        W38142  37.962  15.031  11.101
69749W        W38143  36.373  37.607  11.547
69750W        W38144  13.672  28.253   0.001
69751W        W38145  37.986  34.315   1.856
69752W        W38146   0.933  13.242  12.896
69753W        W38147  25.974  41.737   4.147
69754W        W38148  25.182  12.882  12.948
69755W        W38149  10.124   0.929   4.203
69756W        W38150  42.829  23.216   1.871
69757W        W38151   1.171  19.779   1.347
69758W        W38152  43.283   9.660  11.423
69759W        W38153  27.456  23.727  13.879
69760W        W38154  17.026  36.363  10.496
69761W        W38155  29.936  34.920   4.600
69762W        W38156  10.258  39.852   0.443
69763W        W38157  25.114   2.484   4.078
69764W        W38158   8.435  22.696  10.653
69765W        W38159  17.084  22.957   1.792
69766W        W38160  25.902  11.538   4.036
69767W        W38161  38.347  12.783  11.239
69768W        W38162  33.290  18.559   0.627
69769W        W38163  26.969  38.225  12.059
69770W        W38164  29.189  11.042   3.300
69771W        W38165  20.274  23.151  12.088
69772W        W38166   6.265   9.350   4.214
69773W        W38167   3.885  20.865  10.657
69774W        W38168  39.980  17.969   0.812
69775W        W38169  38.396  10.662   0.315
69776W        W38170   5.825  12.969  13.872
69777W        W38171   6.406  14.933   0.264
69778W        W38172  11.787   4.858  10.466
69779W        W38173  39.016  30.212  10.750
69780W        W38174  35.064  22.911   2.675
69781W        W38175  39.916  14.273   4.257
69782W        W38176  26.950  11.765  11.010
69783W        W38177  43.735   0.219  12.991
69784W        W38178  28.444  15.508  14.844
69785W        W38179  18.017  20.578  14.932
69786W        W38180   7.493  37.002  12.913
69787W        W38181  16.262  31.638   3.689
69788W        W38182  28.905  35.598  12.926
69789W        W38183   7.118  31.643  12.459
69790W        W38184   8.247  37.416  11.119
69791W        W38185  35.303   7.182   3.668
69792W        W38186  38.017  34.207   0.786
69793W        W38187  38.725   6.847  10.690
69794W        W38188  10.205  25.064  13.580
69795W        W38189  19.349  33.511   3.840
69796W        W38190  40.750   3.937  12.918
69797W        W38191  26.496  14.981  11.023
69798W        W38192   7.412  23.117   2.252
69799W        W38193  17.956   9.282  10.805
69800W        W38194  27.150  18.119  12.526
69801W        W38195  23.589  20.059   0.053
69802W        W38196  21.829  22.569  11.715
69803W        W38197  37.763  23.967   3.494
69804W        W38198  31.566  18.662   1.231
69805W        W38199   6.714  44.872   0.626
69806W        W38200  10.925  11.400   2.777
69807W        W38201  21.675  16.074  10.709
69808W        W38202  23.579   8.944   1.385
69809W        W38203  30.647  17.270  12.552
69810W        W38204  18.896  15.183   2.752
69811W        W38205  39.416  26.188   2.194
69812W        W38206  37.190  22.375  11.998
69813W        W38207  14.430   4.277   4.119
69814W        W38208  44.850   6.860  11.477
69815W        W38209  18.250  22.287   1.641
69816W        W38210  42.765  17.492  11.314
69817W        W38211  34.099  14.429  12.640
69818W        W38212  27.295  19.635  11.407
69819W        W38213   0.941  22.307  12.368
69820W        W38214   3.338   1.944   3.741
69821W        W38215  43.806  28.620   2.701
69822W        W38216  15.835   4.362   0.259
69823W        W38217  20.328  16.322   0.443
69824W        W38218  30.941   9.263  12.441
69825W        W38219  37.503  42.951   1.817
69826W        W38220  11.453  10.729  12.585
69827W        W38221  10.739   2.720   4.598
69828W        W38222   3.411   1.507  11.652
69829W        W38223  35.653  12.704   1.755
69830W        W38224  32.659  12.403   0.439
69831W        W38225   6.628  37.981  11.946
69832W        W38226  33.149  31.496   2.860
69833W        W38227   2.844  17.983  11.370
69834W        W38228   9.850  28.425  12.131
69835W        W38229  25.605  28.516   3.807
69836W        W38230  39.475  30.564  12.199
69837W        W38231  36.577  43.982  11.680
69838W        W38232  24.083  20.507  12.098
69839W        W38233  40.680  17.103  12.048
69840W        W38234  43.330  31.529  14.522
69841W        W38235  44.489   8.350  13.862
69842W        W38236  10.832  26.038   1.676
69843W        W38237  23.647   8.061   5.094
69844W        W38238   5.625   5.786  13.954
69845W        W38239  41.536  19.085  11.170
69846W        W38240  34.235  12.773  11.112
69847W        W38241  11.618  35.995  14.941
69848W        W38242  27.471  34.034   2.297
69849W        W38243   0.708  42.354  14.371
69850W        W38244  12.409  25.044   0.472
69851W        W38245  12.840  12.078   1.912
69852W        W38246  22.222  35.221  11.374
69853W        W38247  10.818   6.367  12.414
69854W        W38248  11.779  30.256   3.216
69855W        W38249  32.828  13.771   0.403
69856W        W38250  16.455  33.137   2.077
69857W        W38251  30.410   6.236   0.470
69858W        W38252   5.968  19.572   2.699
69859W        W38253  17.351   6.160   3.690
69860W        W38254  33.549  15.930   0.199
69861W        W38255  28.337  16.610  10.656
69862W        W38256  34.573   0.309  14.780
69863W        W38257   1.562  27.994   1.771
69864W        W38258   5.275  16.927  12.925
69865W        W38259  33.436  20.946  14.044
69866W        W38260  15.839  25.876   0.559
69867W        W38261  18.765   6.149   1.856
69868W        W38262  36.938  42.170  13.888
69869W        W38263  12.594   8.730  11.586
69870W        W38264  10.339  19.526   4.249
69871W        W38265   5.281  26.212  14.126
69872W        W38266  28.216   7.437  12.001
69873W        W38267  21.062  30.328  13.422
69874W        W38268  13.669  37.087  13.983
69875W        W38269  29.858  37.395   4.559
69876W        W38270  38.060  28.672  14.250
69877W        W38271  18.213  21.551   4.033
69878W        W38272   6.476  29.982  11.938
69879W        W38273  25.499  34.826  11.110
69880W        W38274   6.421  17.249  10.168
69881W        W38275   4.785   7.785   3.117
69882W        W38276  40.897  28.424  12.828
69883W        W38277  39.428  27.986  13.813
69884W        W38278  33.549   6.695   4.356
69885W        W38279  44.014   1.021  13.354
69886W        W38280  37.435  27.582  12.977
69887W        W38281  35.400  32.876   2.898
69888W        W38282  13.721  14.017   3.692
69889W        W38283  37.988   6.769  14.379
69890W        W38284  36.927  42.601   2.743
69891W        W38285   5.750  16.746   2.364
69892W        W38286  10.310  25.413   4.260
69893W        W38287  25.203  35.075  12.114
69894W        W38288   6.100  26.608  10.906
69895W        W38289  28.664  39.065   3.637
69896W        W38290  42.901  14.792   1.879
69897W        W38291   6.346  42.570  12.240
69898W        W38292   0.946  23.177   3.943
69899W        W38293  29.149  24.159   0.770
69900W        W38294  26.483  38.824  13.233
69901W        W38295  39.553  34.191  12.469
69902W        W38296  36.638  24.346  11.060
69903W        W38297   1.979  44.531   1.829
69904W        W38298  11.894  36.408   1.658
69905W        W38299   7.410   9.959   2.393
69906W        W38300   1.279   7.966  13.394
69907W        W38301  24.526   8.786   4.788
69908W        W38302   7.833  11.317   4.879
69909W        W38303  20.643  42.373  13.107
69910W        W38304  24.938  35.355  10.667
69911W        W38305   0.269  14.251  13.713
69912W        W38306  40.716   1.018  12.975
69913W        W38307  26.895   4.306   1.766
69914W        W38308  14.104  31.397   0.846
69915W        W38309   8.905  39.248   0.037
69916W        W38310  14.321  26.651   0.157
69917W        W38311  18.789   0.284  10.804
69918W        W38312  26.200  26.239   0.309
69919W        W38313  40.892  20.058  14.004
69920W        W38314  10.775  24.228   4.718
69921W        W38315  24.429  10.704   0.353
69922W        W38316  44.323   2.721  13.855
69923W        W38317  25.025  41.540   2.793
69924W        W38318  27.898   0.083   3.690
69925W        W38319  42.301  40.992   3.766
69926W        W38320  42.332  34.091  12.682
69927W        W38321  13.110   4.532   0.448
69928W        W38322  31.111  28.649  14.905
69929W        W38323  29.024  25.510  13.406
69930W        W38324   3.245  41.340   0.842
69931W        W38325  23.997   0.138   1.253
69932W        W38326  14.604  10.174   1.745
69933W        W38327  12.195  32.181   4.704
69934W        W38328   4.827  31.195   0.419
69935W        W38329  19.028   1.652  10.529
69936W        W38330  24.275  33.499  10.687
69937W        W38331  37.364  10.788   2.895
69938W        W38332  16.765   2.009   3.420
69939W        W38333  32.321   6.424   0.522
69940W        W38334  21.025  32.560  10.931
69941W        W38335  29.474  35.040   2.823
69942W        W38336   0.592  14.394  12.866
69943W        W38337  38.086  40.503   0.930
69944W        W38338  11.412   0.507  14.376
69945W        W38339  43.696   7.431  11.145
69946W        W38340   5.178   2.337   4.694
69947W        W38341   3.380  12.668  13.462
69948W        W38342  43.803  22.003   1.808
69949W        W38343   9.560  26.991   0.033
69950W        W38344  34.901  16.202   3.089
69951W        W38345  44.961   3.270  13.752
69952W        W38346  32.101  22.536   4.081
69953W        W38347  18.140  29.427   2.369
69954W        W38348  23.095  22.471   3.074
69955W        W38349  17.223  22.834  14.273
69956W        W38350  43.810  39.776   0.930
69957W        W38351   8.782  37.381  11.308
69958W        W38352  39.106   3.006  13.095
69959W        W38353  16.234  41.322  12.581
69960W        W38354   2.672  32.455   2.830
69961W        W38355  38.056   2.991  14.899
69962W        W38356  19.532  30.636  14.871
69963W        W38357  26.896  28.647  13.459
69964W        W38358  31.848  37.980   3.189
69965W        W38359  25.271  28.166   0.731
69966W        W38360   1.991  23.768   2.342
69967W        W38361   9.861  31.600   0.282
69968W        W38362   3.365  36.956  12.090
69969W        W38363  34.095  31.481   1.701
69970W        W38364  19.082  10.917   3.479
69971W        W38365  30.429  19.200   0.046
69972W        W38366   9.119   7.621  12.470
69973W        W38367  33.348  38.285   0.919
69974W        W38368  15.157  21.020   2.922
69975W        W38369  13.945  33.156  11.552
69976W        W38370  16.506   7.768  11.640
69977W        W38371  44.975   0.859  13.438
69978W        W38372  36.822  24.064   5.217
69979W        W38373  22.177  25.726   2.689
69980W        W38374  19.579  24.251   0.201
69981W        W38375  41.000  25.003   2.238
69982W        W38376  21.710  41.308  14.528
69983W        W38377   3.276   5.002   0.442
69984W        W38378  38.323  33.219  14.954
69985W        W38379  33.162  39.494   3.839
69986W        W38380  24.515  34.898   5.344
69987W        W38381  26.436  28.937   0.943
69988W        W38382  22.495  30.425  13.093
69989W        W38383  25.201  33.130   3.662
69990W        W38384  35.938   4.795  12.550
69991W        W38385  13.191   6.498  13.915
69992W        W38386  31.377  11.145  13.888
69993W        W38387  11.123   2.629   0.185
69994W        W38388  26.139  38.922  11.709
69995W        W38389  23.798  24.396  11.598
69996W        W38390  18.720  34.413  13.363
69997W        W38391  33.492  33.424   2.016
69998W        W38392  35.121  21.273   0.733
69999W        W38393  40.684  44.403   3.221
70000W        W38394  41.321  35.979   0.069
70001W        W38395  14.737  22.325   1.898
70002W        W38396  19.727  42.301  10.982
70003W        W38397  18.695  39.886  13.798
70004W        W38398  25.069   0.136   9.839
70005W        W38399  42.015  12.226   0.415
70006W        W38400   2.219   8.292  11.665
70007W        W38401  35.280  36.603  12.120
70008W        W38402   2.459  36.674  11.630
70009W        W38403  21.531   6.723  14.743
70010W        W38404  30.228  15.037  13.426
70011W        W38405  14.328  20.367   5.155
70012W        W38406  21.827   5.222   0.500
70013W        W38407  27.536  41.968   3.708
70014W        W38408  13.716   0.660  10.335
70015W        W38409  34.983   1.447   0.003
70016W        W38410   7.892  19.446  11.206
70017W        W38411  10.604  12.692   3.553
70018W        W38412  33.018  18.646   1.123
70019W        W38413   5.875   7.492  13.499
70020W        W38414  30.030   0.243   0.325
70021W        W38415   6.361  21.266  11.267
70022W        W38416  21.185  32.640   3.270
70023W        W38417  16.962   3.538  12.436
70024W        W38418  27.716  36.372  14.887
70025W        W38419  31.287  36.026   4.154
70026W        W38420   5.674  14.079   3.338
70027W        W38421  17.722  32.979  13.365
70028W        W38422   2.341  41.948   3.507
70029W        W38423  42.481  25.307  14.731
70030W        W38424  24.128  39.058   2.834
70031W        W38425  43.743  38.029  11.117
70032W        W38426  43.493  34.976  12.051
70033W        W38427  11.922   9.751   4.882
70034W        W38428  32.382   7.272  11.964
70035W        W38429   5.675  38.956  11.659
70036W        W38430  12.676   9.251  13.973
70037W        W38431   5.916   6.376  14.823
70038W        W38432   8.033   6.414  11.606
70039W        W38433  14.784  17.851   3.929
70040W        W38434  10.649  38.844   2.981
70041W        W38435  16.552  30.003  11.498
70042W        W38436  26.076  39.900  13.842
70043W        W38437  15.353   8.126   3.162
70044W        W38438  22.023  17.793   4.402
70045W        W38439   0.723   6.996  14.329
70046W        W38440  44.311  36.248  12.559
70047W        W38441  14.089  42.495   1.386
70048W        W38442  13.863  18.872   4.271
70049W        W38443  30.884  23.801  14.303
70050W        W38444   1.500  40.538  10.564
70051W        W38445  23.489  41.391   4.537
70052W        W38446   4.941  36.169  13.820
70053W        W38447  21.737  15.985  12.043
70054W        W38448  33.114  44.498   1.918
70055W        W38449  37.228   5.271  10.387
70056W        W38450  27.224  22.219   1.473
70057W        W38451  32.512  30.088  12.604
70058W        W38452  43.922   0.708  11.062
70059W        W38453   2.516  31.695   1.289
70060W        W38454  23.547  20.565  14.184
70061W        W38455  34.906  44.802  12.481
70062W        W38456  43.206   7.262  12.608
70063W        W38457  30.665  44.222  12.362
70064W        W38458  17.648  13.690  13.455
70065W        W38459  21.560  14.573  12.788
70066W        W38460  10.753  13.612  13.987
70067W        W38461  17.773  21.112   4.948
70068W        W38462  33.143  28.623   3.847
70069W        W38463   6.818  13.880  14.411
70070W        W38464   6.453  11.806   3.429
70071W        W38465  32.021  18.205   3.870
70072W        W38466   5.105  37.540  14.842
70073W        W38467  41.733   1.659   4.977
70074W        W38468  34.381  28.082   1.756
70075W        W38469  44.888  21.939  13.310
70076W        W38470  14.756  35.069   3.127
70077W        W38471   8.089   4.489  11.909
70078W        W38472  19.780  32.034   4.557
70079W        W38473  29.157  39.396  13.664
70080W        W38474  18.438   5.060   0.496
70081W        W38475   9.398  23.941  14.810
70082W        W38476  18.333  40.526  10.773
70083W        W38477  15.548  18.934   4.066
70084W        W38478  36.106  32.420  13.843
70085W        W38479  37.336   5.318  13.709
70086W        W38480  43.768  20.262   4.542
70087W        W38481  13.589   2.415   3.600
70088W        W38482  19.440  38.793  14.478
70089W        W38483  10.849   0.243   5.034
70090W        W38484   9.382   5.651   2.214
70091W        W38485  27.921  10.175   2.626
70092W        W38486  32.495   5.427   3.129
70093W        W38487  17.340  19.780   1.553
70094W        W38488  32.199   5.791  11.090
70095W        W38489  30.489  35.722   3.541
70096W        W38490  36.487  35.747   1.128
70097W        W38491  17.700  22.175  13.349
70098W        W38492  41.540  15.363   3.214
70099W        W38493  10.620  20.723  13.131
70100W        W38494  15.227  13.943   4.952
70101W        W38495  18.137  41.696   1.401
70102W        W38496  21.251  37.381   2.325
70103W        W38497  39.018  16.762   2.205
70104W        W38498  23.633  24.484  12.965
70105W        W38499  10.103  37.324  11.568
70106W        W38500  15.418   2.504  10.623
70107W        W38501  15.737  39.376  13.959
70108W        W38502   8.221   7.846   1.601
70109W        W38503   6.474  37.826   1.670
70110W        W38504   3.650   2.900   2.190
70111W        W38505  25.138  18.693  13.431
70112W        W38506   9.745  20.612   2.941
70113W        W38507  17.665  22.093   3.545
70114W        W38508  26.684  26.292   0.532
70115W        W38509  20.100  26.576  11.123
70116W        W38510  41.726  24.022   1.773
70117W        W38511  39.562   2.886  11.228
70118W        W38512  34.046  20.380   1.399
70119W        W38513  17.594  25.423   0.532
70120W        W38514  10.743  36.996  13.288
70121W        W38515  41.797  40.189  12.832
70122W        W38516   9.760   3.837  11.524
70123W        W38517  41.493   8.318   0.307
70124W        W38518  35.608  14.654  11.114
70125W        W38519  21.990  11.369  13.365
70126W        W38520  33.170  10.853   0.842
70127W        W38521  19.009  36.867   1.374
70128W        W38522  23.089   6.187  14.337
70129W        W38523   0.237  33.899   1.254
70130W        W38524  37.102  30.035   3.884
70131W        W38525  12.068   6.305   4.554
70132W        W38526  17.348   6.377  10.367
70133W        W38527  33.459  33.738  14.698
70134W        W38528  14.608  42.581   1.462
70135W        W38529  36.706   3.310   1.280
70136W        W38530  25.310   3.307  11.963
70137W        W38531   9.443  18.702   0.418
70138W        W38532  37.622  39.967   2.666
70139W        W38533  37.438  12.739   2.364
70140W        W38534  39.451  17.839   3.864
70141W        W38535  39.028   9.880   4.243
70142W        W38536  11.617  15.982   0.306
70143W        W38537   9.105  28.372   0.239
70144W        W38538  41.563  30.563  14.855
70145W        W38539   1.368  12.847   2.775
70146W        W38540  17.189  10.832   2.737
70147W        W38541  33.161  41.789   2.329
70148W        W38542  37.602  35.147   0.397
70149W        W38543  44.228  40.525   4.024
70150W        W38544  36.976   0.180   4.476
70151W        W38545  36.620  32.385  13.837
70152W        W38546  42.039  41.298  14.119
70153W        W38547  11.202  41.735  12.851
70154W        W38548  14.627  16.148   2.783
70155W        W38549   6.802  29.579  13.234
70156W        W38550  39.006  44.881  10.937
70157W        W38551  16.798  25.022  12.493
70158W        W38552   9.184  34.530  13.649
70159W        W38553  43.237  33.134  14.462
70160W        W38554  15.997   3.373   1.728
70161W        W38555  15.906  23.853   2.087
70162W        W38556  42.535  27.154   1.977
70163W        W38557   7.383  23.343  12.629
70164W        W38558  25.433  12.432   3.393
70165W        W38559  20.776  32.619   0.949
70166W        W38560  42.050  18.104  11.856
70167W        W38561  29.514  40.830  14.270
70168W        W38562  19.188  41.141  10.566
70169W        W38563  14.344  16.344   1.711
70170W        W38564  43.692  40.585  14.863
70171W        W38565  23.443   6.271  10.935
70172W        W38566   1.401  11.801   1.348
70173W        W38567   2.234  41.396   4.780
70174W        W38568  22.669  27.889   1.486
70175W        W38569  19.543  27.187  13.509
70176W        W38570  28.688  10.162   3.661
70177W        W38571  13.595   6.272   0.736
70178W        W38572  40.458  17.658   0.248
70179W        W38573  31.568  24.315   1.459
70180W        W38574  26.188  19.000  10.475
70181W        W38575  33.701  14.772   1.176
70182W        W38576   4.706  33.401   4.484
70183W        W38577   7.906  14.734   2.224
70184W        W38578  43.395   4.009   4.108
70185W        W38579  41.350  12.505   0.492
70186W        W38580   6.693  43.570   3.447
70187W        W38581  22.156  33.093   4.328
70188W        W38582  38.017   7.345   2.387
70189W        W38583   0.441  43.451   1.219
70190W        W38584  29.551  42.922  14.709
70191W        W38585  20.053  40.564   5.074
70192W        W38586  15.151  43.730  14.082
70193W        W38587   2.248   9.375   1.761
70194W        W38588  12.443   1.741   0.203
70195W        W38589   9.225  41.883   0.310
70196W        W38590  12.597  16.489  12.574
70197W        W38591   7.722   6.801   3.638
70198W        W38592  15.631  35.966   4.120
70199W        W38593  28.472   6.511   4.057
70200W        W38594  30.435  39.487   4.227
70201W        W38595  31.840  27.444  13.570
70202W        W38596  27.645   8.341  14.170
70203W        W38597  24.649  44.413   4.987
70204W        W38598  30.217  21.954   2.237
70205W        W38599  29.702  23.894   2.282
70206W        W38600   1.038  13.902  10.817
70207W        W38601  40.276  14.551  12.019
70208W        W38602  29.384  39.946  13.280
70209W        W38603   3.209  12.958   1.881
70210W        W38604  41.581  38.949   2.146
70211W        W38605  36.365  38.134   1.795
70212W        W38606   0.418   7.404   1.828
70213W        W38607  12.476  12.594  12.145
70214W        W38608   2.318   5.153  11.440
70215W        W38609  11.242  19.758  13.860
70216W        W38610   0.769  42.336  12.633
70217W        W38611   9.136  35.968  10.633
70218W        W38612   4.800  32.569   1.419
70219W        W38613   4.550   6.541  12.806
70220W        W38614  27.029  13.197   4.632
70221W        W38615  35.602  34.847   2.226
70222W        W38616  28.953  40.502   3.698
70223W        W38617  27.791  37.575   5.052
70224W        W38618  17.740  43.983   2.858
70225W        W38619   2.369  17.963  10.658
70226W        W38620  38.350  43.821  12.438
70227W        W38621  37.677  14.749   4.607
70228W        W38622  15.253  33.510   2.159
70229W        W38623  31.113  28.123  14.808
70230W        W38624  29.403  12.175   4.245
70231W        W38625  25.654  28.475  11.622
70232W        W38626  19.686  13.356  12.925
70233W        W38627  34.119  30.453  14.906
70234W        W38628  35.925  15.736  10.382
70235W        W38629  34.311  13.567   1.256
70236W        W38630  31.981  14.037  10.651
70237W        W38631  41.528  24.110   0.512
70238W        W38632  17.085   8.630   3.290
70239W        W38633  25.602  14.040   1.195
70240W        W38634  31.703   5.969  11.082
70241W        W38635   8.962  24.435  12.920
70242W        W38636  36.638  38.185   1.346
70243W        W38637  10.664  34.603  11.068
70244W        W38638  19.040  41.944  11.106
70245W        W38639   5.337  21.025   4.122
70246W        W38640  27.910  37.074  11.019
70247W        W38641  44.850   8.391  11.279
70248W        W38642   3.558  40.716  11.160
70249W        W38643  44.267  19.692   2.020
70250W        W38644  10.894  14.328   2.331
70251W        W38645  31.432  37.403   0.526
70252W        W38646  24.374  27.840   3.073
70253W        W38647  31.680  19.973   0.350
70254W        W38648  25.581  31.475   4.033
70255W        W38649  26.638  19.166  13.851
70256W        W38650  28.417  14.302   0.263
70257W        W38651  19.252  14.783  12.206
70258W        W38652  35.922   2.432   0.932
70259W        W38653   8.394  32.243   3.675
70260W        W38654   5.295  12.612   2.834
70261W        W38655   9.860  41.434   4.894
70262W        W38656   3.901   7.743   0.246
70263W        W38657   2.856   0.519   4.313
70264W        W38658  35.669  35.634  13.058
70265W        W38659  17.564  15.287  14.476
70266W        W38660  31.770  20.753   2.343
70267W        W38661  12.768  31.959   3.948
70268W        W38662   4.376  22.601   0.315
70269W        W38663  34.704  32.427   0.685
70270W        W38664   8.349  28.874   1.296
70271W        W38665  19.272  39.561  14.797
70272W        W38666   9.093  12.192  14.597
70273W        W38667  42.376  14.292  10.884
70274W        W38668  37.506  31.569  14.257
70275W        W38669  13.613  38.642   2.442
70276W        W38670  27.669  12.739  12.650
70277W        W38671  37.127  43.296   4.503
70278W        W38672  29.567  17.200  10.580
70279W        W38673  20.603  21.973   1.741
70280W        W38674   1.232   1.913   3.408
70281W        W38675   8.103  32.678  12.638
70282W        W38676   7.765   8.130   0.308
70283W        W38677   7.311  40.382   3.239
70284W        W38678  22.163  14.604   2.766
70285W        W38679   1.728  27.029   1.710
70286W        W38680   4.159  41.529   0.625
70287W        W38681  31.342  27.576  11.123
70288W        W38682   8.311  20.311  10.862
70289W        W38683   2.769  24.851   4.740
70290W        W38684  23.218  32.370  12.105
70291W        W38685  43.538  33.050   0.909
70292W        W38686  25.779  27.991  11.195
70293W        W38687  29.056  26.888   0.587
70294W        W38688  26.029   5.381   0.989
70295W        W38689  25.622  27.169   3.349
70296W        W38690  33.895  31.782  14.796
70297W        W38691  35.871  18.281  14.128
70298W        W38692  25.199   9.198   3.637
70299W        W38693  33.938   4.431  12.843
70300W        W38694  41.609  13.704   4.187
70301W        W38695  36.333  31.988  13.593
70302W        W38696   4.206   5.971   0.936
70303W        W38697  17.641  42.377   1.289
70304W        W38698  15.296  36.984   3.724
70305W        W38699   3.298   2.924   2.600
70306W        W38700   4.107  14.158   4.363
70307W        W38701  39.032  23.975  11.745
70308W        W38702  16.177  22.000  11.105
70309W        W38703  20.650  25.020  12.430
70310W        W38704  40.563  34.455   0.773
70311W        W38705   4.137  40.369   3.248
70312W        W38706  40.806   3.678   1.507
70313W        W38707  44.353  30.025  12.104
70314W        W38708  39.514   6.549  11.562
70315W        W38709   1.062  32.001  12.985
70316W        W38710  20.801  34.543  11.816
70317W        W38711  38.336   2.913   3.458
70318W        W38712  14.341  40.083   0.847
70319W        W38713  17.695  34.623  14.878
70320W        W38714   7.221  11.089  11.178
70321W        W38715   2.759  25.364   2.205
70322W        W38716  13.557  39.042   1.662
70323W        W38717  38.082  38.877  14.777
70324W        W38718   8.625  24.452  14.342
70325W        W38719  43.405  38.528  12.506
70326W        W38720  31.143  17.959   1.313
70327W        W38721  10.698  28.350  10.588
70328W        W38722   3.879  21.215  11.065
70329W        W38723  17.656  15.573   3.238
70330W        W38724   8.596  13.223  11.960
70331W        W38725  20.730  32.388  11.699
70332W        W38726  15.659  22.572  14.474
70333W        W38727  12.478  17.012  14.861
70334W        W38728  42.736   1.846   4.766
70335W        W38729  42.376  26.075  11.221
70336W        W38730   4.438   8.077  10.691
70337W        W38731  32.428  10.704   4.858
70338W        W38732  16.833   6.800  11.745
70339W        W38733  36.805  14.289  13.575
70340W        W38734  15.266  17.047  14.877
70341W        W38735   1.336   3.506  13.047
70342W        W38736  41.925  11.389  12.600
70343W        W38737  18.580  22.143   0.759
70344W        W38738  11.947  29.234  12.017
70345W        W38739  13.805   3.289  14.200
70346W        W38740  23.804   6.294  14.741
70347W        W38741  11.305  42.965   2.914
70348W        W38742  28.949   4.692  11.864
70349W        W38743   9.803  34.992  11.116
70350W        W38744  11.091  18.210  13.908
70351W        W38745  37.379  33.665   0.128
70352W        W38746  35.561   2.052   3.662
70353W        W38747   1.718   5.968   1.009
70354W        W38748  17.562  23.770  13.911
70355W        W38749   8.739  18.988   3.270
70356W        W38750  15.800  20.343  10.787
70357W        W38751   4.923  21.286   0.462
70358W        W38752  21.544   6.525   2.400
70359W        W38753  36.888   2.500   0.442
70360W        W38754   0.940  29.146  13.838
70361W        W38755  17.696  20.002  11.574
70362W        W38756  41.096   6.685   2.900
70363W        W38757  31.616  25.602  12.422
70364W        W38758  36.614  28.593  13.866
70365W        W38759  28.527   4.322   1.671
70366W        W38760  43.879   7.697   1.696
70367W        W38761   3.825  17.421  14.128
70368W        W38762  40.796  31.548  14.315
70369W        W38763  17.293  26.180   2.821
70370W        W38764  36.987  29.559  14.086
70371W        W38765  35.516  28.748  14.483
70372W        W38766   7.181  24.429   2.652
70373W        W38767   3.595  36.003  11.141
70374W        W38768  16.861  11.606   3.673
70375W        W38769  29.548  44.106  11.486
70376W        W38770   0.400  36.844  12.815
70377W        W38771  15.805  35.618  13.043
70378W        W38772  36.937  32.964   4.335
70379W        W38773  17.463  20.192  14.043
70380W        W38774  35.402   3.008  13.370
70381W        W38775   3.812  10.612   3.697
70382W        W38776  20.093  10.081  12.411
70383W        W38777  30.925  15.345  12.631
70384W        W38778  32.496  14.487  12.874
70385W        W38779  35.294  27.312   0.403
70386W        W38780  15.377  12.424  11.203
70387W        W38781  37.823   7.509  13.672
70388W        W38782  12.391  26.611  14.814
70389W        W38783  24.056  10.503  13.425
70390W        W38784  42.053   2.976   3.823
70391W        W38785  18.920   9.659  10.672
70392W        W38786  26.476  24.069  12.107
70393W        W38787  25.772  15.334  13.310
70394W        W38788  39.372  42.951   0.693
70395W        W38789  29.067  33.322  11.504
70396W        W38790  22.191  42.783  13.855
70397W        W38791  43.401  12.486   2.625
70398W        W38792  13.641  11.796   0.419
70399W        W38793   7.919   7.116  11.973
70400W        W38794  15.564   1.196  10.950
70401W        W38795  26.478  11.623   2.461
70402W        W38796  14.078   3.464  11.223
70403W        W38797   0.352  40.357   1.488
70404W        W38798  34.994  37.759   0.525
70405W        W38799  37.319  22.769   2.303
70406W        W38800  11.059  11.753  10.661
70407W        W38801  40.479  38.598  11.586
70408W        W38802  25.374  18.249  11.900
70409W        W38803  14.810  23.726   0.139
70410W        W38804   3.796   2.945   2.696
70411W        W38805  41.378  37.319  12.028
70412W        W38806  21.024   6.788  12.996
70413W        W38807  32.326  22.557  10.276
70414W        W38808   0.946  36.015   0.831
70415W        W38809  11.958  41.371   4.002
70416W        W38810  29.004  17.527  13.405
70417W        W38811  30.398  28.459  12.128
70418W        W38812   0.610  27.813  11.239
70419W        W38813  19.621   9.442  11.621
70420W        W38814  12.750  24.248  14.762
70421W        W38815  15.234  11.414   3.660
70422W        W38816   1.702   9.444  14.957
70423W        W38817  26.948   3.877  14.504
70424W        W38818  25.478  41.929  13.820
70425W        W38819  25.700  30.125   1.888
70426W        W38820  12.714   9.562  12.674
70427W        W38821  16.492  42.870   4.638
70428W        W38822  18.908  25.255   4.511
70429W        W38823  23.388  19.188  11.060
70430W        W38824  38.651  37.602   1.412
70431W        W38825  29.705  29.557  11.576
70432W        W38826  13.736  37.533  13.064
70433W        W38827   7.573  14.576  10.537
70434W        W38828  39.203  44.184   1.827
70435W        W38829   7.157  27.690  12.540
70436W        W38830   7.347   4.795   3.120
70437W        W38831  21.512  13.202   4.120
70438W        W38832  34.578   2.520  11.112
70439W        W38833   2.088  41.589   3.208
70440W        W38834  17.059  41.931  11.321
70441W        W38835  22.584  10.486  14.973
70442W        W38836  21.278  44.526  14.973
70443W        W38837   1.741  31.620  13.385
70444W        W38838  13.834  42.526   4.364
70445W        W38839   6.805   9.395   2.005
70446W        W38840  15.845  15.152  11.355
70447W        W38841  34.608  30.951  11.651
70448W        W38842  38.866  29.089   4.695
70449W        W38843  44.916  21.467   3.097
70450W        W38844  22.342  32.516  14.753
70451W        W38845  30.290  14.943   4.559
70452W        W38846  44.703   7.725  13.080
70453W        W38847  37.193  35.457   3.352
70454W        W38848  29.645  33.927  10.377
70455W        W38849  28.806  32.608   1.372
70456W        W38850  24.283  43.767   3.566
70457W        W38851  23.516  40.790   1.899
70458W        W38852  11.249  36.010   3.881
70459W        W38853  18.330  14.848  14.381
70460W        W38854  10.578   1.076  11.823
70461W        W38855  36.469  35.066  13.076
70462W        W38856  13.891  39.597  12.361
70463W        W38857  42.046  14.123  12.646
70464W        W38858   9.657  23.836   4.659
70465W        W38859   5.914  23.851  14.031
70466W        W38860  29.189  27.028   4.099
70467W        W38861   7.904  13.414  11.490
70468W        W38862   0.536   4.928   0.049
70469W        W38863  40.777   3.771   0.976
70470W        W38864  36.824  21.501   3.782
70471W        W38865  24.512  15.596   0.320
70472W        W38866  33.159  16.579   3.621
70473W        W38867   0.532  38.460  10.153
70474W        W38868  32.997  16.170   3.284
70475W        W38869   7.661  37.805   1.155
70476W        W38870  14.768   7.789   2.891
70477W        W38871  14.593  33.710   0.970
70478W        W38872  11.616   8.762  13.637
70479W        W38873   3.740  36.930   4.664
70480W        W38874   3.479   1.457   3.845
70481W        W38875  17.436  28.099  11.041
70482W        W38876  19.490  35.430   4.167
70483W        W38877  29.979  30.462   3.023
70484W        W38878  16.991   2.948   3.191
70485W        W38879  14.193   1.888  13.408
70486W        W38880   6.847  25.753  11.169
70487W        W38881  20.749  19.054  12.778
70488W        W38882  40.489  26.235  12.137
70489W        W38883  41.435  22.298   0.774
70490W        W38884   2.883  34.033   0.345
70491W        W38885  11.023   2.980  12.043
70492W        W38886  41.306   3.218  12.618
70493W        W38887  38.880  40.510  11.228
70494W        W38888   7.855  37.826   3.769
70495W        W38889  16.877  36.032  11.820
70496W        W38890  13.676   9.284   1.420
70497W        W38891  38.449  44.181   2.144
70498W        W38892  29.104   5.158  14.033
70499W        W38893  16.709  38.228  11.279
70500W        W38894  22.401  28.361   3.674
70501W        W38895  19.758   1.713   3.704
70502W        W38896  13.534  10.660   3.702
70503W        W38897   2.279  17.111  11.475
70504W        W38898   1.551  37.900  12.897
70505W        W38899  42.744   1.695   2.132
70506W        W38900   9.886  36.823   4.948
70507W        W38901   8.746  35.044  11.175
70508W        W38902   3.357  38.037  12.045
70509W        W38903  10.572  27.034  14.847
70510W        W38904  36.452  28.546  10.626
70511W        W38905  42.654   5.439  13.930
70512W        W38906  30.201  20.659   2.646
70513W        W38907  22.661  18.869  13.907
70514W        W38908  31.428   0.967  10.722
70515W        W38909   2.209  41.922  10.690
70516W        W38910  18.034  14.373  14.334
70517W        W38911  17.068  42.553  11.910
70518W        W38912   0.838  29.955   1.311
70519W        W38913  35.354   9.302   2.454
70520W        W38914   1.866  41.707  13.936
70521W        W38915  36.021  37.352  13.053
70522W        W38916  22.374  31.860   3.122
70523W        W38917  12.805  16.694   2.439
70524W        W38918  27.671  40.924   1.657
70525W        W38919  34.924  38.925  14.430
70526W        W38920  39.891  42.080  14.897
70527W        W38921  24.875   3.410  10.458
70528W        W38922  33.066  33.870  14.303
70529W        W38923  13.594  28.747  11.054
70530W        W38924  44.442  42.945  10.188
70531W        W38925   2.564   7.142   2.190
70532W        W38926  40.812  15.739  12.591
70533W        W38927  10.407  44.964   3.252
70534W        W38928  24.472   2.503  10.775
70535W        W38929  19.901  29.146  13.897
70536W        W38930  26.236  22.164  12.278
70537W        W38931   5.737   6.759   2.124
70538W        W38932  21.203  44.594   3.675
70539W        W38933  33.173  18.473  12.973
70540W        W38934  42.961   0.383   0.740
70541W        W38935  27.805  28.240  14.252
70542W        W38936  16.078  36.462   1.346
70543W        W38937  44.322   7.913   0.302
70544W        W38938  12.942  28.220   1.329
70545W        W38939  33.682  12.686   0.373
70546W        W38940  27.659   2.936  10.910
70547W        W38941  16.645  42.526   0.259
70548W        W38942  44.293  15.132  14.417
70549W        W38943  32.406  30.381  11.070
70550W        W38944  34.018  20.614  10.778
70551W        W38945  10.881  23.952   0.639
70552W        W38946  13.206  20.717   2.173
70553W        W38947  28.609   4.722  12.747
70554W        W38948   1.063  38.518  10.143
70555W        W38949  14.609  32.057   3.205
70556W        W38950  39.489  20.948   2.554
70557W        W38951  34.607  24.931   2.915
70558W        W38952  29.925  33.348   4.750
70559W        W38953   5.917  29.430  14.422
70560W        W38954   6.356  19.697   3.026
70561W        W38955  23.268  32.017  11.558
70562W        W38956  24.230   2.593   0.788
70563W        W38957  36.526  37.119   2.062
70564W        W38958   0.717   5.462   2.771
70565W        W38959   3.909  43.719  12.436
70566W        W38960  42.541  31.164   4.267
70567W        W38961  39.426  34.632  13.557
70568W        W38962  23.335  27.980   4.094
70569W        W38963  15.725  32.677  11.082
70570W        W38964   4.530  26.195   0.363
70571W        W38965  26.032   9.709   3.135
70572W        W38966  31.370   5.707  10.729
70573W        W38967  44.476  34.689  11.431
70574W        W38968  44.177  26.001   1.947
70575W        W38969  36.048   9.727   4.373
70576W        W38970  35.623  33.330   2.853
70577W        W38971  29.013   7.351   4.324
70578W        W38972  10.629  12.303  11.141
70579W        W38973  13.572  10.845  13.011
70580W        W38974  24.166  18.283   0.842
70581W        W38975   1.517  13.660  11.662
70582W        W38976  43.620  14.652  11.405
70583W        W38977  15.571  25.197   5.100
70584W        W38978  14.725  20.540  13.464
70585W        W38979  18.683   0.710  13.678
70586W        W38980  40.334  35.418   2.779
70587W        W38981  25.509  15.069  12.915
70588W        W38982  34.327  12.984  13.339
70589W        W38983  12.395  13.137  13.397
70590W        W38984  25.547  19.497  12.687
70591W        W38985  42.986  33.583   1.517
70592W        W38986  18.160   9.557   1.399
70593W        W38987  15.640   0.126  11.087
70594W        W38988  15.761  10.591   2.328
70595W        W38989  43.837   6.703  10.681
70596W        W38990  29.919  36.577   2.491
70597W        W38991  19.767  22.151   0.309
70598W        W38992  15.683  30.566   3.210
70599W        W38993  15.363   5.680  10.725
70600W        W38994   3.758   3.352   0.889
70601W        W38995   6.741  34.438  13.313
70602W        W38996   8.396  16.653   2.903
70603W        W38997  41.662  34.969  14.312
70604W        W38998  43.900  15.126  10.642
70605W        W38999  26.685  43.929  11.094
70606W        W39000   4.635  11.407  14.931
70607W        W39001  37.879   2.600  12.321
70608W        W39002  25.508  25.030   4.361
70609W        W39003  30.301  21.110   2.955
70610W        W39004   5.878  35.555  11.111
70611W        W39005  35.098  38.729  10.392
70612W        W39006  39.870  24.673   1.365
70613W        W39007  14.043  19.643  14.774
70614W        W39008  12.233  16.900  13.174
70615W        W39009   3.292  15.297  11.954
70616W        W39010   7.720  28.335   4.617
70617W        W39011   5.248  31.431  10.398
70618W        W39012  43.817  10.531  10.350
70619W        W39013  32.224  34.336  13.045
70620W        W39014  14.838   1.309  11.177
70621W        W39015  39.388  17.229   0.754
70622W        W39016  12.245  44.701  11.512
70623W        W39017  12.120   8.101   1.337
70624W        W39018  22.623   2.256   2.173
70625W        W39019   9.415  40.337   3.362
70626W        W39020  20.197  39.491   2.330
70627W        W39021   1.849  40.635   2.341
70628W        W39022  19.146  44.712  13.954
70629W        W39023  44.798  21.641   1.643
70630W        W39024  27.534  13.829   1.204
70631W        W39025  33.225  31.174   1.267
70632W        W39026  14.756  30.185  14.370
70633W        W39027   0.786   8.202  13.398
70634W        W39028  29.235  36.134   1.602
70635W        W39029   6.756  13.874  10.718
70636W        W39030  33.875  34.603   4.180
70637W        W39031  23.056  43.924  11.710
70638W        W39032  11.782  16.448   4.509
70639W        W39033  12.924  34.701  11.164
70640W        W39034  28.194   1.426   1.407
70641W        W39035   3.858  25.926  11.969
70642W        W39036  30.977  12.910   5.366
70643W        W39037   3.234  34.112  12.513
70644W        W39038  17.779  26.127   2.588
70645W        W39039   3.678  44.536   0.444
70646W        W39040  32.319  10.295   3.534
70647W        W39041  18.096  25.285  14.127
70648W        W39042   9.921  31.683  14.782
70649W        W39043  24.091  21.543  13.634
70650W        W39044  27.729  13.980   1.679
70651W        W39045  40.817  12.738   0.033
70652W        W39046  44.012  15.062   2.612
70653W        W39047  39.961  37.282  13.410
70654W        W39048  24.533   7.719   1.274
70655W        W39049  18.133  26.598  11.361
70656W        W39050  20.962  23.217   4.672
70657W        W39051  10.391   4.195   3.205
70658W        W39052  25.117  18.628  12.081
70659W        W39053   3.699  23.401   4.185
70660W        W39054   3.013  38.998   4.528
70661W        W39055   3.924  16.469  10.641
70662W        W39056   9.196  32.645  13.349
70663W        W39057   9.228  27.535  11.423
70664W        W39058   0.608  42.724   9.752
70665W        W39059  14.049  11.194   0.812
70666W        W39060  10.313  29.948  10.455
70667W        W39061  24.297   5.475   0.176
70668W        W39062  36.062  15.707   1.576
70669W        W39063  36.971  35.994   1.469
70670W        W39064   6.168  24.752  13.631
70671W        W39065  25.641  41.257  14.406
70672W        W39066  34.123   5.768   1.312
70673W        W39067   0.063   6.900   0.892
70674W        W39068  23.906  18.200  12.409
70675W        W39069  37.388  41.271   3.693
70676W        W39070  12.035  17.198   2.154
70677W        W39071  40.883  21.080  13.820
70678W        W39072  31.533   2.507  10.683
70679W        W39073  15.254  40.370  13.411
70680W        W39074  39.118  38.010  13.924
70681W        W39075  39.175  18.985   5.116
70682W        W39076   6.919  41.015  12.589
70683W        W39077  32.011  15.863   0.304
70684W        W39078  29.677  15.115  12.781
70685W        W39079  19.914  31.861   3.341
70686W        W39080   8.389  13.142  12.915
70687W        W39081  33.403   6.404   2.695
70688W        W39082  36.942  42.414  11.345
70689W        W39083  27.770  22.025  13.413
70690W        W39084  12.932  23.063   1.685
70691W        W39085  30.436  22.961   1.151
70692W        W39086  26.786   8.254  14.941
70693W        W39087  43.824  27.050  13.070
70694W        W39088  11.417  18.524   4.484
70695W        W39089  30.229  27.127   3.233
70696W        W39090   5.654  39.525   1.282
70697W        W39091  12.639  38.066  13.815
70698W        W39092  37.876  12.656  11.423
70699W        W39093  21.128  16.665   0.204
70700W        W39094   1.295  38.276  11.586
70701W        W39095  28.032  28.802  11.821
70702W        W39096  40.952   1.770   4.539
70703W        W39097  33.688  37.867   0.369
70704W        W39098  12.312  12.267  11.186
70705W        W39099   6.410  15.100   4.175
70706W        W39100  31.122  32.045  10.934
70707W        W39101   2.220  25.912   4.227
70708W        W39102  21.921   9.131   3.595
70709W        W39103  33.176  18.323   4.720
70710W        W39104  41.855   2.482   1.758
70711W        W39105  19.613  10.780  12.028
70712W        W39106   3.976  23.219   1.307
70713W        W39107  10.208  39.711   3.389
70714W        W39108   4.846  22.500   3.374
70715W        W39109   2.272   4.398  12.085
70716W        W39110   0.984  19.267   4.438
70717W        W39111   2.309   4.820  10.363
70718W        W39112  30.755  36.107   1.330
70719W        W39113   5.854   1.820  14.589
70720W        W39114   6.603   9.589  14.380
70721W        W39115  21.499   5.369  13.069
70722W        W39116  29.368  23.975  12.982
70723W        W39117  11.131   7.910   1.825
70724W        W39118  26.286  44.904  10.457
70725W        W39119  38.655  11.396  11.710
70726W        W39120  19.419  11.623   3.292
70727W        W39121  20.001   8.096   2.547
70728W        W39122   2.211   8.794   4.837
70729W        W39123  36.351  33.022   3.345
70730W        W39124  30.008  44.005  10.697
70731W        W39125  29.733  42.920   0.212
70732W        W39126  12.596  11.273   2.672
70733W        W39127  16.721  28.929   4.531
70734W        W39128   3.222  16.701   0.476
70735W        W39129  25.065  36.022   3.332
70736W        W39130  18.677  37.766   0.906
70737W        W39131   3.945  40.422   2.767
70738W        W39132  39.965  13.630  11.146
70739W        W39133  44.692   6.204  11.682
70740W        W39134   4.771  32.604  10.760
70741W        W39135  40.355  10.979   3.701
70742W        W39136  17.959  17.755  13.479
70743W        W39137   9.160  20.819   0.910
70744W        W39138  27.091  44.548   1.640
70745W        W39139  28.517   8.599   4.865
70746W        W39140  41.317  44.311  11.482
70747W        W39141   5.959  18.767  14.981
70748W        W39142  43.357  12.597   0.863
70749W        W39143  43.365  19.334  12.647
70750W        W39144  22.815  24.512  11.591
70751W        W39145  15.598  41.516  14.111
70752W        W39146  10.187  12.379  13.032
70753W        W39147  39.574  44.310   2.297
70754W        W39148  17.328   4.824   0.447
70755W        W39149  28.308  20.449   1.040
70756W        W39150  29.546   9.192  10.697
70757W        W39151   7.364   3.772   1.249
70758W        W39152  42.027  38.996  14.596
70759W        W39153   2.277  39.301  11.074
70760W        W39154  21.770  37.880   0.806
70761W        W39155  28.601  10.654  14.449
70762W        W39156  40.539   3.445  12.959
70763W        W39157  12.070   3.953  12.467
70764W        W39158  10.984  44.028  11.760
70765W        W39159  21.649   9.173  10.628
70766W        W39160   3.964  26.022  13.269
70767W        W39161  21.707   9.775  14.972
70768W        W39162  23.998  16.287   1.364
70769W        W39163  27.583   7.954   2.974
70770W        W39164  11.423   5.641   0.330
70771W        W39165  13.458  15.494   3.196
70772W        W39166  14.336  24.240   1.684
70773W        W39167  19.151  42.044  12.994
70774W        W39168  28.158  33.115  11.176
70775W        W39169  34.050   5.695   2.213
70776W        W39170  13.789  12.867  14.071
70777W        W39171  42.876  29.035   0.040
70778W        W39172  23.744  16.087   0.364
70779W        W39173   1.462   2.244  11.514
70780W        W39174  29.972   5.943   4.670
70781W        W39175  35.966  23.632   3.481
70782W        W39176  26.234  40.733   4.279
70783W        W39177  39.924  30.341   1.369
70784W        W39178  29.614  38.801   2.866
70785W        W39179  13.694  24.699   2.294
70786W        W39180  34.626  43.924   3.202
70787W        W39181  42.257   0.475   4.440
70788W        W39182   9.209   5.918  11.243
70789W        W39183  39.632  39.749  14.863
70790W        W39184  27.285  37.991   0.387
70791W        W39185  25.591  27.028  11.514
70792W        W39186  25.067  21.573   3.199
70793W        W39187  17.790  36.050  10.844
70794W        W39188  19.277   6.716  12.399
70795W        W39189  15.701  16.644  13.766
70796W        W39190  15.616   9.981   1.853
70797W        W39191  17.435  25.695   0.947
70798W        W39192  29.396  12.747   3.608
70799W        W39193  38.066   0.744  12.233
70800W        W39194  24.109  15.414  12.849
70801W        W39195  22.537  36.416  13.955
70802W        W39196   1.447  31.567  10.606
70803W        W39197  25.544  29.901  14.011
70804W        W39198  36.296   0.246  13.513
70805W        W39199  22.208  13.142   9.945
70806W        W39200  13.632  32.054   3.811
70807W        W39201  17.758  20.210  14.453
70808W        W39202  31.483  34.622  13.334
70809W        W39203  39.508  11.382  13.454
70810W        W39204  16.710  12.614   0.723
70811W        W39205  17.195  16.544   3.686
70812W        W39206   1.309  10.071  12.068
70813W        W39207   8.656   4.696  11.700
70814W        W39208  42.022   3.880   1.883
70815W        W39209  35.577  38.882  12.471
70816W        W39210  31.517  20.739  14.575
70817W        W39211  28.067  26.123   2.193
70818W        W39212   7.727  29.707   3.718
70819W        W39213  18.828  30.913  13.494
70820W        W39214   7.798  39.862   2.708
70821W        W39215  24.489  25.590  11.484
70822W        W39216  12.964  30.930  11.290
70823W        W39217  30.686  41.101  13.910
70824W        W39218  21.386   3.727   5.162
70825W        W39219  25.468  36.506  14.326
70826W        W39220  33.080  27.582  14.876
70827W        W39221  24.520  25.645   2.358
70828W        W39222  10.874   7.197  12.950
70829W        W39223   4.240  15.386   4.984
70830W        W39224  20.353  14.170  11.825
70831W        W39225  41.950  29.986   3.988
70832W        W39226  11.371   4.435   4.081
70833W        W39227  31.251  21.982   2.405
70834W        W39228   3.911  11.223   2.203
70835W        W39229   8.200  11.119  11.986
70836W        W39230  30.478  20.591  11.477
70837W        W39231  10.785  41.615   1.947
70838W        W39232   1.322  38.390  10.598
70839W        W39233  23.119   4.712   4.615
70840W        W39234  36.361  15.818  12.877
70841W        W39235  30.034  11.884   0.433
70842W        W39236   5.090  22.513  14.900
70843W        W39237  21.341  11.461   2.421
70844W        W39238  18.721  26.387  11.621
70845W        W39239  35.022   9.589  11.383
70846W        W39240   8.795  27.784  13.606
70847W        W39241  13.897  38.380   2.819
70848W        W39242  40.145  10.188  13.980
70849W        W39243  31.431  22.106  14.240
70850W        W39244  37.834   4.447  14.425
70851W        W39245   1.298  22.555   5.087
70852W        W39246  29.090  43.294   2.085
70853W        W39247  21.992  33.617  11.928
70854W        W39248   4.532  33.774   1.753
70855W        W39249  21.920  40.615  11.193
70856W        W39250   6.248  12.842  13.600
70857W        W39251   2.426  21.761   3.018
70858W        W39252  15.120  44.957   0.704
70859W        W39253  20.998  13.158  13.912
70860W        W39254   9.183  10.750   4.440
70861W        W39255  32.032  37.803  13.049
70862W        W39256  30.125  26.500  12.521
70863W        W39257   0.155   4.677  12.424
70864W        W39258  32.601  31.970  14.863
70865W        W39259  38.124  14.560   0.480
70866W        W39260  23.591  15.596   0.271
70867W        W39261  33.155   1.926  14.449
70868W        W39262  26.091   4.784   3.041
70869W        W39263  14.878  23.311  14.484
70870W        W39264  30.100   2.532  12.076
70871W        W39265  36.528  13.640  14.750
70872W        W39266  22.243  39.813  14.925
70873W        W39267  31.879  20.499   3.303
70874W        W39268  37.469  15.817   2.783
70875W        W39269   6.804  10.689   2.240
70876W        W39270  27.168  39.358  11.166
70877W        W39271  19.968  43.593  11.180
70878W        W39272  15.858  17.210   1.667
70879W        W39273  19.721  19.524  14.803
70880W        W39274  29.523  32.059   2.277
70881W        W39275  29.577  38.284   2.852
70882W        W39276  42.850  39.056  14.501
70883W        W39277   9.658  34.116  14.374
70884W        W39278  38.305  39.745  14.573
70885W        W39279  23.086  36.512   2.412
70886W        W39280  18.092  41.384   3.186
70887W        W39281   9.053  28.444   2.773
70888W        W39282   8.671   8.301  10.461
70889W        W39283   0.374   3.544  13.905
70890W        W39284   5.645  18.036  12.998
70891W        W39285  41.050  40.448   2.778
70892W        W39286  12.270  10.789  13.270
70893W        W39287   9.877   9.029   5.055
70894W        W39288  27.260  15.779   0.407
70895W        W39289  24.718  10.285  13.487
70896W        W39290  32.588  37.699   3.629
70897W        W39291  44.491  20.683  12.600
70898W        W39292  19.707   6.104   0.251
70899W        W39293  13.565  30.055   3.511
70900W        W39294   3.720  43.014   0.375
70901W        W39295  22.964   1.960  12.095
70902W        W39296   1.809  42.261   2.784
70903W        W39297  23.129  19.097   4.400
70904W        W39298  21.123  30.043   0.752
70905W        W39299  13.346  39.386   4.392
70906W        W39300  16.359  42.277  13.459
70907W        W39301  15.221   1.248   1.983
70908W        W39302  37.051  12.899  11.669
70909W        W39303  34.436  18.323  10.909
70910W        W39304   2.045  36.538  11.954
70911W        W39305  25.641  33.433  12.143
70912W        W39306  36.122  10.283  10.987
70913W        W39307  17.832   8.898   2.908
70914W        W39308   0.080   4.374   3.759
70915W        W39309   2.473  18.966  11.460
70916W        W39310   1.955   0.532  13.848
70917W        W39311  32.643  38.627  12.492
70918W        W39312  38.385   1.938   0.891
70919W        W39313  38.293  35.957   2.383
70920W        W39314  11.288  10.649   3.689
70921W        W39315  12.759  35.208   1.672
70922W        W39316  34.630  25.720  11.818
70923W        W39317  16.614  31.867   4.960
70924W        W39318  38.871   3.727  10.354
70925W        W39319  36.140  30.300   4.125
70926W        W39320   7.623   8.230  10.553
70927W        W39321  37.626  24.207   0.521
70928W        W39322   8.326  29.468   2.254
70929W        W39323  20.144  29.019   3.717
70930W        W39324   6.813  28.233   4.688
70931W        W39325   6.386  29.248   2.392
70932W        W39326  43.760   7.281  13.487
70933W        W39327   9.399   8.753  14.303
70934W        W39328  13.041   0.388   2.942
70935W        W39329   8.740   3.356   4.792
70936W        W39330  40.036  13.237  14.807
70937W        W39331   5.923  40.391   1.101
70938W        W39332  33.021  34.410   1.695
70939W        W39333   0.552  22.113  11.093
70940W        W39334  11.538  26.158  10.369
70941W        W39335   6.799   1.670  13.449
70942W        W39336  29.418  25.476  11.985
70943W        W39337  17.854  40.432   0.522
70944W        W39338  38.267  33.964  13.355
70945W        W39339  27.078  42.875  12.673
70946W        W39340   3.184  10.861   2.889
70947W        W39341  11.787  15.021  11.457
70948W        W39342  15.610   4.395  12.533
70949W        W39343  38.486  13.562  13.134
70950W        W39344  27.574  25.912   0.954
70951W        W39345  25.945  32.050  10.464
70952W        W39346  44.355   4.142   2.702
70953W        W39347  42.534  42.370  14.414
70954W        W39348  30.848  33.462   3.304
70955W        W39349  29.345  30.309  12.651
70956W        W39350  22.779   5.568   1.155
70957W        W39351  16.637  36.836   4.652
70958W        W39352  12.111  12.039  11.622
70959W        W39353   5.746   3.194  14.233
70960W        W39354  31.201  34.581  10.817
70961W        W39355  30.863  30.707  11.163
70962W        W39356  33.667  39.986   1.341
70963W        W39357  40.739  29.466  10.707
70964W        W39358  35.028  26.946   4.564
70965W        W39359  22.683  17.120   0.876
70966W        W39360  36.415   1.047  12.931
70967W        W39361  35.325  20.460   3.611
70968W        W39362   6.969   5.676  11.706
70969W        W39363  11.389  41.240   1.288
70970W        W39364  16.343  30.921  13.556
70971W        W39365  25.468  28.700  13.555
70972W        W39366  16.777  19.322  14.985
70973W        W39367  28.387   2.670  12.144
70974W        W39368  30.925  11.598   3.224
70975W        W39369  31.918  40.735   2.333
70976W        W39370  43.467  27.216  11.251
70977W        W39371  18.612  20.044   0.990
70978W        W39372   6.827  14.096   9.753
70979W        W39373  42.479  25.638  13.631
70980W        W39374  21.609  43.702   0.327
70981W        W39375  14.091  23.571  14.383
70982W        W39376   2.960  35.512   0.356
70983W        W39377  38.772   4.173   0.807
70984W        W39378  40.764  19.641   0.322
70985W        W39379  15.932   2.262  13.394
70986W        W39380  19.620  40.517   2.561
70987W        W39381  23.970  42.230  10.645
70988W        W39382   1.027  17.506   2.183
70989W        W39383   5.945  38.390  12.863
70990W        W39384   1.977  21.929  13.930
70991W        W39385  18.657  19.273  14.485
70992W        W39386  11.372   6.388  12.141
70993W        W39387  42.504  15.577   2.161
70994W        W39388  38.218  11.071  14.046
70995W        W39389  21.751  21.840   2.894
70996W        W39390  20.008  17.367  11.414
70997W        W39391  12.693  19.544   4.523
70998W        W39392  28.201   1.986   3.821
70999W        W39393  34.139   8.076   3.682
71000W        W39394   7.169  19.148   3.249
71001W        W39395  13.872  23.071  14.308
71002W        W39396  24.730   3.764  11.937
71003W        W39397  18.668  13.856   1.632
71004W        W39398  39.736   5.443  12.512
71005W        W39399  22.718  35.511  10.109
71006W        W39400  39.283   3.302  11.081
71007W        W39401  20.539  24.582   2.323
71008W        W39402  27.695   3.932  14.014
71009W        W39403  30.063  13.802   4.548
71010W        W39404   4.909  28.141   0.209
71011W        W39405  27.533  41.266   4.838
71012W        W39406  37.347   2.853   4.592
71013W        W39407  29.224   4.150  14.210
71014W        W39408  29.440  15.762   1.148
71015W        W39409  23.917  28.449   2.804
71016W        W39410   4.423  26.980  14.424
71017W        W39411   2.912  11.590   3.612
71018W        W39412   0.312  41.396  14.393
71019W        W39413  22.789   2.453   3.721
71020W        W39414  25.962   9.628   1.308
71021W        W39415  24.367  32.074  10.705
71022W        W39416   2.836  36.625   0.203
71023W        W39417   8.881  42.870  10.443
71024W        W39418  31.894   7.388  14.036
71025W        W39419  40.284  23.617   0.023
71026W        W39420  22.113   8.479  13.026
71027W        W39421  31.463  42.287  12.946
71028W        W39422  24.284  25.031   0.988
71029W        W39423  21.353  25.199  11.986
71030W        W39424  12.869  22.322  12.567
71031W        W39425  32.426  35.920   1.867
71032W        W39426  33.627  32.623  14.013
71033W        W39427  19.758   3.377   1.174
71034W        W39428   2.498  37.112   1.895
71035W        W39429  13.354  39.563  14.289
71036W        W39430  41.003  30.709  14.860
71037W        W39431  36.319  14.901  14.119
71038W        W39432  36.948  27.406  13.401
71039W        W39433   6.414  13.180  10.145
71040W        W39434  13.854  24.673   1.776
71041W        W39435  10.099  32.004  12.067
71042W        W39436  36.997   9.857   3.338
71043W        W39437   6.462   7.157   1.828
71044W        W39438  37.363  16.786  14.009
71045W        W39439  25.209   0.823  14.259
71046W        W39440  35.924  28.738   0.554
71047W        W39441  42.946  24.247  11.617
71048W        W39442  19.138  33.635   4.888
71049W        W39443  42.748  27.484  13.415
71050W        W39444  36.313  41.440  13.453
71051W        W39445  31.349  40.609  11.120
71052W        W39446   0.230  18.576  12.948
71053W        W39447  33.133   7.416  14.174
71054W        W39448   2.355  27.238  11.438
71055W        W39449  33.456   9.188  10.527
71056W        W39450  15.369  16.748   2.380
71057W        W39451  35.690   5.275   3.740
71058W        W39452  19.485  38.948   3.228
71059W        W39453  24.553   2.371  12.065
71060W        W39454   5.690  23.685   0.577
71061W        W39455  18.697   9.598   2.543
71062W        W39456  29.865  20.540   1.738
71063W        W39457  39.077  11.658   1.361
71064W        W39458  20.783  16.517  13.001
71065W        W39459   9.269  13.830  14.869
71066W        W39460  36.832  41.763  14.925
71067W        W39461   7.883  14.072   0.906
71068W        W39462   1.617  18.983  10.689
71069W        W39463  34.491  21.714   4.572
71070W        W39464  33.470  16.090   1.438
71071W        W39465  41.389  44.767  14.360
71072W        W39466   3.276   9.744   1.928
71073W        W39467   7.796  30.906  12.585
71074W        W39468   7.302   1.995   1.161
71075W        W39469  16.830  35.902   3.740
71076W        W39470  12.545  26.559   2.365
71077W        W39471  22.646  25.670  11.992
71078W        W39472  29.998  17.129   3.762
71079W        W39473  21.637  32.907  12.270
71080W        W39474  17.063  43.108   3.614
71081W        W39475   9.163  37.094  13.840
71082W        W39476  28.471  20.660  14.554
71083W        W39477  35.864  25.157   1.399
71084W        W39478  16.404  44.041   3.239
71085W        W39479  35.607  39.811  10.690
71086W        W39480  14.848   6.360   3.679
71087W        W39481  31.415  35.366   1.196
71088W        W39482  24.289   9.896  11.974
71089W        W39483  34.392  37.696  13.962
71090W        W39484   8.358   3.723  12.503
71091W        W39485  10.461  20.074   0.431
71092W        W39486  42.329  35.741  14.341
71093W        W39487  34.379  44.569   1.198
71094W        W39488  23.098  17.802  11.556
71095W        W39489   5.920   0.831  12.247
71096W        W39490  38.719  37.220   2.712
71097W        W39491  19.625  14.808   5.099
71098W        W39492  13.386  20.974  10.781
71099W        W39493  25.937  35.937  14.858
71100W        W39494  16.366  26.472   9.722
71101W        W39495  37.016  29.589   4.675
71102W        W39496  22.475  36.115  12.496
71103W        W39497  40.313  44.958   2.091
71104W        W39498   7.313   7.756  12.177
71105W        W39499   9.192  21.290  13.863
71106W        W39500  23.032  30.116  12.424
71107W        W39501  34.139   5.152   3.765
71108W        W39502  14.909  44.282   1.877
71109W        W39503   3.843  10.138   4.420
71110W        W39504   7.775  11.780   0.540
71111W        W39505  32.005  33.669   0.518
71112W        W39506  39.518   0.378  13.307
71113W        W39507   6.935  39.032  14.270
71114W        W39508   5.807  30.982   3.204
71115W        W39509   1.755  26.186  12.191
71116W        W39510  32.581   5.219   4.720
71117W        W39511   8.378  33.843   3.834
71118W        W39512   3.455  30.490  11.721
71119W        W39513  40.301   0.799  10.503
71120W        W39514  13.032  12.911  13.965
71121W        W39515   1.740  11.573  13.894
71122W        W39516  38.548  16.901   3.256
71123W        W39517  21.582  32.264   3.990
71124W        W39518  30.996  38.808   2.873
71125W        W39519  31.031  34.337  11.234
71126W        W39520  31.928  21.722   1.981
71127W        W39521  31.421   2.886   0.935
71128W        W39522  20.670  20.505  10.730
71129W        W39523  24.811  14.577   2.046
71130W        W39524  18.324  31.973   1.233
71131W        W39525  39.541  29.445   1.333
71132W        W39526   3.685   8.296  14.415
71133W        W39527  31.888  37.060   0.786
71134W        W39528  25.168   1.687  14.506
71135W        W39529  14.789  16.536   0.446
71136W        W39530  15.181  32.767   2.281
71137W        W39531  21.465   8.123   2.651
71138W        W39532  37.026  13.692   0.527
71139W        W39533   8.148  23.585  10.617
71140W        W39534   0.348  41.783   0.821
71141W        W39535  18.996  25.589  10.298
71142W        W39536  32.707  39.004  12.913
71143W        W39537  24.961  41.581  11.507
71144W        W39538  25.420  35.521  11.956
71145W        W39539   8.765   2.889  12.466
71146W        W39540  28.347   0.881  13.827
71147W        W39541  18.103  14.107  13.893
71148W        W39542  36.098  33.367  13.534
71149W        W39543  42.693  20.546   1.789
71150W        W39544  39.749  28.499  12.312
71151W        W39545  11.074  15.093  14.736
71152W        W39546  38.977  24.592   1.698
71153W        W39547  23.479  40.515   1.452
71154W        W39548  26.008   9.026  14.937
71155W        W39549   8.192  30.894  14.462
71156W        W39550  35.957  34.526   2.400
71157W        W39551  17.189  27.746  13.403
71158W        W39552  30.564  20.525  14.151
71159W        W39553   5.191  13.428   9.849
71160W        W39554   0.744  32.764   4.330
71161W        W39555  14.313   5.206  14.484
71162W        W39556  11.146  25.398   0.483
71163W        W39557   7.647   8.478  14.868
71164W        W39558   2.170  20.910   3.949
71165W        W39559  22.415  17.395   1.227
71166W        W39560  14.242  17.883   4.862
71167W        W39561   9.958   0.522   0.898
71168W        W39562  37.460  10.909   1.401
71169W        W39563  21.687  41.799  10.605
71170W        W39564  10.795  26.655   1.947
71171W        W39565  25.059   9.438   1.379
71172W        W39566  19.636  16.461  11.747
71173W        W39567   0.322  24.870  14.182
71174W        W39568   3.004   6.657  12.811
71175W        W39569  33.940  10.843  10.539
71176W        W39570   0.371   2.362   4.672
71177W        W39571  18.618   4.769   4.115
71178W        W39572  39.809  41.886  13.413
71179W        W39573  29.724   6.860   4.588
71180W        W39574  16.098  11.332  14.313
71181W        W39575  22.956  10.256  10.844
71182W        W39576   8.871  42.890   2.431
71183W        W39577  26.103  26.246   1.373
71184W        W39578  31.458  34.826   3.356
71185W        W39579  31.553  40.232  14.312
71186W        W39580  31.143  20.175   2.164
71187W        W39581   3.653  39.374  14.808
71188W        W39582  18.453  32.582  10.730
71189W        W39583   5.368  17.597   1.232
71190W        W39584  11.640  42.772   1.954
71191W        W39585  16.975  42.114   5.053
71192W        W39586  30.162  35.484  11.602
71193W        W39587  28.722   7.900   2.704
71194W        W39588  30.811  13.264  11.248
71195W        W39589  20.203   7.257   4.625
71196W        W39590   6.840  26.565  10.776
71197W        W39591  21.044  30.555   0.793
71198W        W39592  22.475   8.910  12.323
71199W        W39593  11.600  33.197   1.413
71200W        W39594  42.917  30.664   4.776
71201W        W39595  16.736  17.629  12.635
71202W        W39596  11.692   8.482  12.380
71203W        W39597  10.157  38.074  12.927
71204W        W39598   8.891  21.659  14.845
71205W        W39599   8.890  21.665  11.351
71206W        W39600  43.489  16.548  11.585
71207W        W39601  25.414  41.798  11.610
71208W        W39602  29.081   1.952  11.563
71209W        W39603  28.114  17.715   4.595
71210W        W39604  31.244   6.605  11.699
71211W        W39605  19.286  29.958   3.597
71212W        W39606  11.909  29.098   3.623
71213W        W39607   8.390   4.001  14.774
71214W        W39608  31.384  36.936  13.365
71215W        W39609  13.147  30.404  13.661
71216W        W39610   1.018  42.570  14.036
71217W        W39611  12.731  44.598   0.243
71218W        W39612   1.825  32.933   3.760
71219W        W39613  28.106   6.416   0.971
71220W        W39614  28.307  30.766  10.259
71221W        W39615  35.392  36.320  11.711
71222W        W39616  15.669  10.148  14.346
71223W        W39617   6.136  44.469   4.258
71224W        W39618  25.608  25.050   2.621
71225W        W39619  12.175  25.240  11.645
71226W        W39620  28.131  10.109   1.870
71227W        W39621  34.194   8.297  13.806
71228W        W39622   3.673  26.581   2.588
71229W        W39623  23.053  15.549  14.547
71230W        W39624   8.598  11.181   0.363
71231W        W39625  10.580  27.626   1.688
71232W        W39626  31.428   7.151   1.439
71233W        W39627  22.171  13.853   1.129
71234W        W39628  10.715  25.627   3.969
71235W        W39629  17.138  20.111   4.215
71236W        W39630   6.679  31.099   1.920
71237W        W39631  28.247  12.665  11.372
71238W        W39632   9.938  19.239  13.370
71239W        W39633  15.665  36.444   4.478
71240W        W39634  20.695  14.624  13.424
71241W        W39635   5.735  23.631   4.520
71242W        W39636  41.270  20.334   3.760
71243W        W39637  40.810   1.914   2.932
71244W        W39638  39.902  42.333   1.863
71245W        W39639  42.684  40.234  11.601
71246W        W39640   6.400  38.452  11.445
71247W        W39641  34.252  33.584  13.713
71248W        W39642  19.237  24.522   1.248
71249W        W39643  21.429  10.128   9.782
71250W        W39644  13.081  24.989   2.818
71251W        W39645   2.531  34.969   4.584
71252W        W39646   4.756  10.124   3.288
71253W        W39647  16.027  13.614   0.326
71254W        W39648  24.089  22.126  11.594
71255W        W39649  19.497  17.187  11.453
71256W        W39650  37.834  34.121   1.274
71257W        W39651   8.386   6.228  11.081
71258W        W39652  29.243  18.627  12.089
71259W        W39653  16.777  37.330   4.887
71260W        W39654   3.721  15.318  13.824
71261W        W39655  43.831  44.522  11.941
71262W        W39656   3.910  31.985  12.170
71263W        W39657   3.227  24.062   3.339
71264W        W39658   9.624   7.168  12.458
71265W        W39659  34.667  38.551  10.633
71266W        W39660  44.745  35.846  11.062
71267W        W39661  14.699   6.251   0.821
71268W        W39662  39.718  21.135  10.945
71269W        W39663  41.435  14.826  11.125
71270W        W39664   1.363  23.639   3.195
71271W        W39665  31.656  36.913  10.691
71272W        W39666  44.786  14.587   2.282
71273W        W39667   3.552  35.024  11.637
71274W        W39668  25.957  17.212   4.547
71275W        W39669  33.433  22.970   3.325
71276W        W39670  22.238  39.556  13.200
71277W        W39671   6.119   4.708  12.713
71278W        W39672  11.207  43.049   2.410
71279W        W39673  40.788  39.891   3.810
71280W        W39674  26.416   7.225   1.242
71281W        W39675   6.664   7.313  13.073
71282W        W39676  14.468  41.072  14.288
71283W        W39677  17.855  19.044  12.956
71284W        W39678  18.670  35.785   0.617
71285W        W39679   2.723  15.082  10.803
71286W        W39680  40.904  34.197   1.441
71287W        W39681   5.923   1.821  10.674
71288W        W39682  16.359  23.079   2.209
71289W        W39683  36.966  12.517   3.764
71290W        W39684  29.411  44.416   1.218
71291W        W39685   8.751  34.822  13.005
71292W        W39686  39.597   2.816   3.651
71293W        W39687  24.497   4.271  11.887
71294W        W39688  34.023   1.287   4.544
71295W        W39689   0.965  40.994   2.187
71296W        W39690  40.910   9.274   2.807
71297W        W39691  32.377  18.803  13.124
71298W        W39692  11.258  16.731   0.525
71299W        W39693  21.114  43.648  12.966
71300W        W39694  25.629   8.867   3.646
71301W        W39695  20.756  16.103  14.587
71302W        W39696  11.463  22.183   1.854
71303W        W39697  26.720  11.853   4.444
71304W        W39698  20.399   3.879  14.478
71305W        W39699   3.407  43.447   0.529
71306W        W39700  43.314   4.379  11.588
71307W        W39701  14.105  24.128   1.222
71308W        W39702  24.372  29.248  13.085
71309W        W39703  43.278  34.555  12.937
71310W        W39704  29.507  18.650  12.535
71311W        W39705   4.057  22.095  14.307
71312W        W39706  20.077  27.529  11.181
71313W        W39707  34.355  14.071  12.264
71314W        W39708  41.735  33.620  13.453
71315W        W39709  44.277  35.910   3.209
71316W        W39710  26.122  43.005   4.303
71317W        W39711  30.081  11.992   0.977
71318W        W39712  44.965  39.447   1.284
71319W        W39713   7.533   3.778  14.879
71320W        W39714  20.093   0.748   0.442
71321W        W39715   1.344   5.314   4.255
71322W        W39716  12.314  33.160  13.512
71323W        W39717   9.022  31.145  13.630
71324W        W39718  10.716   4.764  11.532
71325W        W39719  32.437  41.173   0.991
71326W        W39720   9.593  20.201  12.490
71327W        W39721  42.771  33.552   0.897
71328W        W39722   1.588  15.143  10.649
71329W        W39723  20.882  28.072  13.026
71330W        W39724  38.294  14.122   0.319
71331W        W39725  18.669  30.415  14.998
71332W        W39726  17.545  30.981   0.857
71333W        W39727  13.087  29.029  14.798
71334W        W39728  35.336   4.236   0.018
71335W        W39729   0.492  14.131   2.412
71336W        W39730   5.703   4.284   1.834
71337W        W39731  38.510  43.808   0.512
71338W        W39732  39.796  19.314  14.503
71339W        W39733  40.880   7.710   3.766
71340W        W39734   4.172  29.925  13.644
71341W        W39735  38.795  21.601   3.610
71342W        W39736   8.442  32.055   2.801
71343W        W39737  21.249  41.063   1.739
71344W        W39738  29.467  39.794   2.699
71345W        W39739  10.757  12.573  14.779
71346W        W39740  17.637  16.653   0.837
71347W        W39741  30.641  40.293  14.329
71348W        W39742  14.610   0.059   0.876
71349W        W39743  17.221  43.841   2.706
71350W        W39744  43.966  42.974   0.043
71351W        W39745  41.514  19.718   0.770
71352W        W39746  11.589  14.470   2.640
71353W        W39747  39.493  29.564  14.464
71354W        W39748  21.397  16.782   0.926
71355W        W39749  41.103  38.840   0.730
71356W        W39750  11.874  32.306  12.011
71357W        W39751  31.968   6.594   0.880
71358W        W39752  41.019   6.214  13.933
71359W        W39753  11.583  13.240  13.880
71360W        W39754  37.013  25.077   2.672
71361W        W39755  10.210  16.771   3.349
71362W        W39756  13.363  40.464   1.754
71363W        W39757  35.794  18.590   2.695
71364W        W39758  40.764  16.007  13.991
71365W        W39759   1.186   1.795   2.397
71366W        W39760  33.511  29.504  14.036
71367W        W39761  10.235  40.781  13.998
71368W        W39762  20.306   6.842  13.505
71369W        W39763  28.291  28.225  13.649
71370W        W39764  38.701  10.383   0.718
71371W        W39765   1.218  42.539  11.351
71372W        W39766  29.719  37.116  14.206
71373W        W39767  38.888  23.724   0.969
71374W        W39768  36.283  25.236  14.982
71375W        W39769   4.940   8.271   3.251
71376W        W39770  34.494  40.579  13.825
71377W        W39771  14.083  40.016  14.978
71378W        W39772  11.664   7.425  12.429
71379W        W39773  42.465  25.893  12.117
71380W        W39774  21.563   2.417  11.489
71381W        W39775  12.816  33.337  10.779
71382W        W39776  13.062  22.530  14.459
71383W        W39777  19.730  27.884  11.031
71384W        W39778  40.862  41.261  13.923
71385W        W39779   5.230   7.105   2.813
71386W        W39780   6.898  26.485   3.238
71387W        W39781  30.092  24.662   2.186
71388W        W39782   8.783  44.502  13.578
71389W        W39783   6.351  29.987   3.694
71390W        W39784   3.726   6.762  11.995
71391W        W39785  39.856  42.313   0.969
71392W        W39786  42.855  15.743  11.195
71393W        W39787   1.930  25.604   1.397
71394W        W39788  40.384   9.306  13.974
71395W        W39789  25.501  14.417   2.213
71396W        W39790   5.782  39.394   2.210
71397W        W39791  34.695  31.468  10.904
71398W        W39792  12.538  39.430  13.036
71399W        W39793  39.109  15.240   2.126
71400W        W39794  27.478  33.685  11.569
71401W        W39795  21.211  13.255   3.704
71402W        W39796  18.092  30.649  13.385
71403W        W39797  11.318   6.350   3.034
71404W        W39798  42.997   9.704  14.781
71405W        W39799  38.186   5.782  14.263
71406W        W39800  42.392   9.509   1.671
71407W        W39801   5.310   7.912   3.313
71408W        W39802  15.339   4.890  13.385
71409W        W39803  11.692  25.700   0.298
71410W        W39804  18.154   0.708  14.509
71411W        W39805  42.616  29.045  13.151
71412W        W39806  39.232  13.171   3.049
71413W        W39807   8.174  21.101   4.323
71414W        W39808  23.809   0.419  13.784
71415W        W39809  24.162   6.777   0.412
71416W        W39810  38.986  12.120  10.992
71417W        W39811  14.221  40.936   0.290
71418W        W39812  16.502   1.496   3.285
71419W        W39813  24.260  37.572   1.953
71420W        W39814  34.008  25.582   4.901
71421W        W39815  42.548  34.708   4.881
71422W        W39816  18.357  34.638   2.311
71423W        W39817  38.047   0.263  12.027
71424W        W39818  40.755   7.866  10.744
71425W        W39819  12.811  24.977   0.123
71426W        W39820  35.234  11.315  14.964
71427W        W39821   3.042  37.514   2.850
71428W        W39822  11.115  36.439  10.382
71429W        W39823  35.127  44.415   2.778
71430W        W39824   4.762  37.976   3.555
71431W        W39825  30.318  28.657   0.533
71432W        W39826  13.246  18.549  13.517
71433W        W39827  16.719  40.351  10.626
71434W        W39828  10.761  20.113  10.889
71435W        W39829  38.673  19.810   4.207
71436W        W39830   9.402  33.375   3.206
71437W        W39831  13.121  20.066   1.837
71438W        W39832   0.750  21.057   1.263
71439W        W39833   2.420   6.748  12.849
71440W        W39834   2.113  12.888  12.476
71441W        W39835  20.214  33.892   1.912
71442W        W39836   1.432  40.287  12.874
71443W        W39837  20.205  16.622  14.225
71444W        W39838  36.459  18.579  14.931
71445W        W39839   3.836  39.140   0.733
71446W        W39840   3.829  23.616  11.986
71447W        W39841  43.219  35.897   5.047
71448W        W39842  42.070  18.693   4.373
71449W        W39843   0.464  20.541  12.607
71450W        W39844  30.882  30.926   0.646
71451W        W39845  31.501  40.568  14.717
71452W        W39846  38.039   6.208   0.215
71453W        W39847  33.495  22.689  10.662
71454W        W39848  37.362  30.488  12.229
71455W        W39849   6.702   7.864   1.227
71456W        W39850  38.810  28.695  11.557
71457W        W39851  33.840  40.467   2.380
71458W        W39852  35.390   2.204  13.961
71459W        W39853  22.534  31.029  14.349
71460W        W39854  30.520   9.815   1.346
71461W        W39855   0.365  39.977  14.381
71462W        W39856  28.975  44.843   2.648
71463W        W39857  23.160   3.265   4.198
71464W        W39858  44.682   9.070  13.496
71465W        W39859  16.729  28.759   3.230
71466W        W39860  43.829   2.815  12.009
71467W        W39861  35.031   3.853   0.477
71468W        W39862  42.997  36.416  14.257
71469W        W39863  32.346  26.672   0.961
71470W        W39864  18.343   0.761   0.956
71471W        W39865  14.613  21.618  11.574
71472W        W39866  11.110   5.658  10.866
71473W        W39867  40.799   8.406   1.864
71474W        W39868  19.280  23.915  14.007
71475W        W39869  29.937   8.035  13.340
71476W        W39870  43.699  44.251   4.811
71477W        W39871  21.246  33.534   4.399
71478W        W39872  37.567  35.551   0.058
71479W        W39873  31.766  35.518  12.579
71480W        W39874  13.023  40.777  10.792
71481W        W39875  29.703   4.479   3.795
71482W        W39876  37.286  43.467   1.880
71483W        W39877  21.924  14.431   4.536
71484W        W39878  19.770  36.642  12.170
71485W        W39879   1.864  30.634  14.487
71486W        W39880   8.461  18.201  11.480
71487W        W39881   0.347  35.377   3.866
71488W        W39882  30.676   3.977  11.683
71489W        W39883  27.984   3.804  10.906
71490W        W39884  25.513  10.744   0.435
71491W        W39885   8.753  44.731  12.769
71492W        W39886   0.407  37.025   4.465
71493W        W39887  35.375  38.793  11.528
71494W        W39888  41.704  34.705  14.760
71495W        W39889  20.494  35.075  10.659
71496W        W39890  10.270  12.326  13.963
71497W        W39891  42.443  12.178   4.032
71498W        W39892  11.719  18.276   4.873
71499W        W39893   3.883  23.157  12.585
71500W        W39894   6.998  40.526   3.624
71501W        W39895   3.529   7.017   2.512
71502W        W39896   0.023   6.659  13.794
71503W        W39897  16.377  31.504  14.847
71504W        W39898  15.730  10.072   4.555
71505W        W39899  36.084  19.771  12.069
71506W        W39900  44.217  14.717  14.999
71507W        W39901  11.953  27.224  10.710
71508W        W39902  24.560  44.505  14.447
71509W        W39903  41.396  22.501   1.255
71510W        W39904  43.028   0.415  12.298
71511W        W39905  42.812   9.346   3.901
71512W        W39906   8.533  36.978   1.903
71513W        W39907  28.441  38.332   2.265
71514W        W39908  28.436  17.199   1.314
71515W        W39909  26.466  22.363   0.353
71516W        W39910  23.569  23.704   3.849
71517W        W39911  26.643  30.174   4.092
71518W        W39912  17.781  35.391   1.956
71519W        W39913   9.382  43.285  11.890
71520W        W39914  21.256  33.575  13.784
71521W        W39915  38.113  18.205   3.364
71522W        W39916  32.235  32.123   2.301
71523W        W39917  20.742  32.839  12.418
71524W        W39918  14.683  13.168   3.629
71525W        W39919  27.581   1.430  14.700
71526W        W39920  23.586  28.877  12.587
71527W        W39921  13.207  44.793   4.869
71528W        W39922  10.698  40.473   1.277
71529W        W39923  12.160  24.444   0.376
71530W        W39924  12.213  38.143  12.890
71531W        W39925  19.975  18.208   4.137
71532W        W39926  36.013  31.375  11.283
71533W        W39927  42.121  34.471   5.035
71534W        W39928  17.623  12.774  12.465
71535W        W39929  43.436  11.555   0.949
71536W        W39930  40.007  42.961  14.291
71537W        W39931  25.746  10.197   4.938
71538W        W39932  21.031  15.218  12.986
71539W        W39933  23.693  27.485   2.764
71540W        W39934  12.897  10.807  14.944
71541W        W39935  22.885  20.811  14.551
71542W        W39936  37.805  42.418  11.688
71543W        W39937  36.202   6.785   4.571
71544W        W39938   6.154  14.382  14.714
71545W        W39939  21.971  42.969   2.388
71546W        W39940  33.904  34.834  12.934
71547W        W39941  25.582   7.722   2.302
71548W        W39942  27.507  16.529  11.538
71549W        W39943  12.226  16.626  13.604
71550W        W39944   3.351   7.779   3.549
71551W        W39945  18.077  35.570  14.925
71552W        W39946  20.530  43.024  14.364
71553W        W39947  44.803  30.086  11.212
71554W        W39948   1.219   3.773   4.206
71555W        W39949  37.655  21.306  11.003
71556W        W39950  25.784  37.744   2.863
71557W        W39951  33.639   8.067   0.364
71558W        W39952  40.784  41.885   4.620
71559W        W39953  37.296  42.242   2.784
71560W        W39954  32.576  44.185   1.258
71561W        W39955  12.482  23.099  14.800
71562W        W39956  23.189  18.599  14.942
71563W        W39957  28.089  21.113   0.313
71564W        W39958  12.547  18.912   3.781
71565W        W39959  26.248  22.665   4.555
71566W        W39960  24.169  21.336   0.348
71567W        W39961  12.376  29.427   1.777
71568W        W39962   7.752   7.239  13.767
71569W        W39963   6.476   3.881  12.823
71570W        W39964  18.266  17.641  14.426
71571W        W39965  35.705  23.950   0.933
71572W        W39966   7.899  34.963   3.753
71573W        W39967  44.130   8.108  11.422
71574W        W39968  28.580  32.481   2.279
71575W        W39969   5.272  33.143  13.304
71576W        W39970  19.695  14.349  13.099
71577W        W39971  34.313  24.447   4.268
71578W        W39972   6.409  29.419  13.525
71579W        W39973  40.485   3.687  13.418
71580W        W39974  42.436  39.792  11.600
71581W        W39975  21.051   3.145   2.246
71582W        W39976   4.894   5.285   1.173
71583W        W39977   1.916  35.317   4.133
71584W        W39978  16.185   8.338   2.798
71585W        W39979  39.817  33.018   2.726
71586W        W39980   3.809  19.236  13.144
71587W        W39981  43.089   1.778   0.526
71588W        W39982  40.184  35.669  12.129
71589W        W39983  14.243   5.510  11.142
71590W        W39984  10.181  12.101  13.488
71591W        W39985  14.743  15.182  14.724
71592W        W39986  19.163  15.512  14.494
71593W        W39987   9.195  24.745  12.584
71594W        W39988  25.598  41.547  10.684
71595W        W39989  33.849  28.789   2.035
71596W        W39990   8.363   3.735   2.253
71597W        W39991  13.639   7.315  14.497
71598W        W39992  37.741  36.349   3.337
71599W        W39993  18.027  44.783   0.513
71600W        W39994  42.950  27.937   5.147
71601W        W39995  24.519  27.935   1.448
71602W        W39996  13.616   1.546   2.801
71603W        W39997  11.100  22.635  10.600
71604W        W39998  31.466  17.269   2.099
71605W        W39999  31.700  26.452   1.320
71606W        W40000  29.423  41.407  11.962
71607W        W40001  26.528  40.366   3.617
71608W        W40002  25.544   5.290  12.503
71609W        W40003  18.124  10.656   4.623
71610W        W40004   0.569  22.620  11.107
71611W        W40005  21.569   8.952  14.279
71612W        W40006  14.748  12.719   0.573
71613W        W40007  41.434  41.604   5.076
71614W        W40008  11.095  41.293  14.384
71615W        W40009  13.311  22.269   0.330
71616W        W40010   5.412  10.576   0.939
71617W        W40011   0.082   1.125  12.438
71618W        W40012  13.704  25.494  12.317
71619W        W40013   8.909  27.438   3.373
71620W        W40014   6.812  35.340  12.855
71621W        W40015   7.494  18.947  14.376
71622W        W40016  40.245  26.988   1.428
71623W        W40017  25.676   2.824   0.627
71624W        W40018  33.472  14.448   0.773
71625W        W40019  16.441  31.967   4.055
71626W        W40020  38.969  42.418   2.905
71627W        W40021  28.472  32.194  11.303
71628W        W40022  40.208  33.024  13.340
71629W        W40023   5.285   4.665  12.054
71630W        W40024  26.684  31.973   3.617
71631W        W40025  42.851   4.888   4.473
71632W        W40026   2.686   3.302   0.935
71633W        W40027   3.426   7.404   4.418
71634W        W40028  33.831   8.215   4.118
71635W        W40029  35.648  27.612   1.315
71636W        W40030   5.856  35.914  10.738
71637W        W40031  14.101  25.197   1.291
71638W        W40032  34.511  29.278  10.731
71639W        W40033  33.171  28.536  11.529
71640W        W40034  27.526   0.882   0.367
71641W        W40035  38.483   9.694  13.081
71642W        W40036  17.270   0.188   1.883
71643W        W40037  36.493  25.792  14.347
71644W        W40038  32.545  17.846   1.827
71645W        W40039  31.938  18.220   4.915
71646W        W40040  37.234  37.266   4.074
71647W        W40041   2.177  30.799   1.319
71648W        W40042  41.230   8.756   1.970
71649W        W40043   6.200  13.836  13.838
71650W        W40044  22.884  41.321  14.599
71651W        W40045   8.589  27.884  10.433
71652W        W40046   9.833  24.673   4.305
71653W        W40047  15.864  40.448   2.341
71654W        W40048   5.679   0.754  11.821
71655W        W40049  36.570  22.193   2.436
71656W        W40050  15.242   1.027   4.800
71657W        W40051  37.304  43.870  14.395
71658W        W40052  38.818  23.602   1.831
71659W        W40053  30.531  43.989   2.302
71660W        W40054  41.111  34.602  11.659
71661W        W40055  22.629  39.235  13.302
71662W        W40056   0.994  12.785   1.299
71663W        W40057   6.688  39.504   1.239
71664W        W40058   5.176  31.386  11.987
71665W        W40059  18.014  16.730  13.186
71666W        W40060  43.320  38.833  11.121
71667W        W40061  26.565  10.814   3.931
71668W        W40062  42.305  33.578  12.696
71669W        W40063  37.876   3.980  11.227
71670W        W40064   6.341  40.341  10.150
71671W        W40065  16.082  40.377   3.707
71672W        W40066  27.659  19.281  13.490
71673W        W40067  29.248  11.827  10.720
71674W        W40068   6.213  20.379   2.315
71675W        W40069  35.189  39.499  13.430
71676W        W40070   7.144  36.927   2.185
71677W        W40071  27.858  14.044   5.272
71678W        W40072   8.995  12.159   0.124
71679W        W40073  24.539   4.879  13.431
71680W        W40074  42.213  17.297   2.175
71681W        W40075  43.019  23.961  12.033
71682W        W40076  32.936   5.634  11.439
71683W        W40077  34.911  31.934  10.968
71684W        W40078  30.053  32.303   3.508
71685W        W40079  12.635  34.430   3.675
71686W        W40080  19.184   3.548  12.462
71687W        W40081  16.833  19.578   1.856
71688W        W40082   0.395   4.728   2.139
71689W        W40083  10.951   5.977   3.074
71690W        W40084  27.072  27.321  13.920
71691W        W40085  34.760   1.238  14.363
71692W        W40086   2.326  10.417   1.804
71693W        W40087  39.652  18.307  11.675
71694W        W40088  44.277  34.426  12.100
71695W        W40089  21.153  40.931  10.427
71696W        W40090  26.723  24.490   1.376
71697W        W40091  38.449  17.072   4.210
71698W        W40092  30.506  13.193   2.652
71699W        W40093  18.263  23.747  13.370
71700W        W40094  21.955  16.150   1.236
71701W        W40095   4.683   0.205  12.644
71702W        W40096   3.021   7.667   1.386
71703W        W40097  18.356   6.258   0.727
71704W        W40098  10.874  19.806   3.217
71705W        W40099  29.407  43.425  12.289
71706W        W40100  15.315  30.691  10.432
71707W        W40101  15.034  19.129   2.276
71708W        W40102  11.117  16.002   1.261
71709W        W40103   4.050  21.485   3.698
71710W        W40104  26.966  15.686  14.982
71711W        W40105  37.573  39.963  10.675
71712W        W40106   0.129  33.439   3.844
71713W        W40107  31.294   3.728   0.513
71714W        W40108  24.620   1.218  14.978
71715W        W40109  14.389  15.313   1.730
71716W        W40110  11.594   4.048  14.860
71717W        W40111   8.349  10.350  11.903
71718W        W40112  29.991  10.511   1.064
71719W        W40113  34.456  43.001   1.987
71720W        W40114  39.613  11.449   1.489
71721W        W40115  32.523  34.214  11.953
71722W        W40116  11.805  40.022  13.133
71723W        W40117  44.192   4.335   0.037
71724W        W40118  36.922  38.446  14.953
71725W        W40119  39.414  19.259  11.385
71726W        W40120  42.395  24.312  14.510
71727W        W40121   7.632  28.477   2.445
71728W        W40122  20.820  38.962  13.404
71729W        W40123  33.825  42.698  10.765
71730W        W40124   4.355  36.404   2.673
71731W        W40125  30.962  14.613  11.697
71732W        W40126   1.696  14.083   3.602
71733W        W40127  19.184   6.601   2.818
71734W        W40128  16.803  13.233   1.346
71735W        W40129  19.585  39.015   9.740
71736W        W40130  38.076   7.118  11.023
71737W        W40131   9.223  11.442  12.570
71738W        W40132  10.630  20.800   2.450
71739W        W40133  15.082  13.671  13.599
71740W        W40134   0.894  15.890   3.192
71741W        W40135  12.097  28.136  13.965
71742W        W40136  13.855  13.901  10.697
71743W        W40137  39.803  29.904  12.997
71744W        W40138  32.151  38.894   1.426
71745W        W40139   2.667  15.791   3.100
71746W        W40140  43.492  25.672  13.332
71747W        W40141  20.290  21.086   4.135
71748W        W40142  15.596  37.921   9.768
71749W        W40143   5.883  26.491   0.458
71750W        W40144   2.229  42.403   1.638
71751W        W40145  34.631  13.489  10.534
71752W        W40146  37.591   1.859  14.429
71753W        W40147   9.798  12.826  11.218
71754W        W40148   8.927  16.633  11.348
71755W        W40149  11.816   5.937   2.737
71756W        W40150  28.206   1.424  12.196
71757W        W40151  25.743  21.178   3.215
71758W        W40152   9.609   6.247  13.920
71759W        W40153  24.610  23.237  11.615
71760W        W40154  37.878  36.513   1.834
71761W        W40155   4.393  12.628   1.486
71762W        W40156  17.641  11.235   0.322
71763W        W40157   6.432  15.998   0.449
71764W        W40158  44.390  24.504   1.228
71765W        W40159  18.142   9.819  11.522
71766W        W40160  30.507  44.235   0.045
71767W        W40161  10.327  40.432   4.129
71768W        W40162  40.941  20.239  11.511
71769W        W40163  37.810   6.930  10.596
71770W        W40164  15.511   9.346   4.942
71771W        W40165   0.686   3.083  11.769
71772W        W40166  33.545  25.534   4.594
71773W        W40167  23.551  11.701  12.118
71774W        W40168  41.247   9.691   2.926
71775W        W40169  38.734  32.510   0.263
71776W        W40170   1.709  33.669  12.031
71777W        W40171   5.255  41.593   4.643
71778W        W40172  38.412  31.597  14.911
71779W        W40173  19.084  37.358   2.059
71780W        W40174  18.814  28.168  14.078
71781W        W40175   1.794  27.247  10.789
71782W        W40176  13.494  40.285  13.059
71783W        W40177   1.910  42.298   0.850
71784W        W40178  44.558  42.965   2.310
71785W        W40179  39.134  38.372  11.918
71786W        W40180  36.450  31.678   0.302
71787W        W40181  30.520   5.365   2.241
71788W        W40182   6.331  43.465   4.064
71789W        W40183   3.816  25.049  13.606
71790W        W40184   3.504  38.375   0.386
71791W        W40185  40.460  40.997   3.315
71792W        W40186  43.796   4.918  12.313
71793W        W40187  24.067  39.640   3.744
71794W        W40188   0.375  33.618   1.703
71795W        W40189  35.275  14.208   4.034
71796W        W40190  42.251  37.178   2.362
71797W        W40191  37.583  30.021   2.563
71798W        W40192   4.742  19.011   4.602
71799W        W40193  40.776   0.350  11.633
71800W        W40194  32.151  12.555  12.058
71801W        W40195   2.263  16.182  10.325
71802W        W40196  44.913  31.712   1.831
71803W        W40197   8.658  18.006  13.111
71804W        W40198  27.164  39.538  13.295
71805W        W40199  42.548  44.306  13.864
71806W        W40200   7.217  30.052  10.709
71807W        W40201  22.146  22.542   0.211
71808W        W40202   4.171   1.719  14.421
71809W        W40203   5.978  37.471   4.216
71810W        W40204   4.328  37.758   3.368
71811W        W40205  26.580   4.888   2.873
71812W        W40206  30.155   8.655   4.661
71813W        W40207  39.087  30.312   3.464
71814W        W40208  32.323   4.762   4.747
71815W        W40209   7.403  13.010  13.075
71816W        W40210  41.765  40.221   3.322
71817W        W40211  13.962  15.366   3.140
71818W        W40212  17.092  26.566   4.663
71819W        W40213  38.002   1.716  11.510
71820W        W40214  14.886  21.554  11.988
71821W        W40215  16.390  18.106   5.032
71822W        W40216  29.662  27.873   5.064
71823W        W40217  15.338  33.982   3.477
71824W        W40218  30.392  27.260  13.769
71825W        W40219  26.939  31.897  14.210
71826W        W40220   3.184   5.621  12.531
71827W        W40221  41.805  37.595  12.039
71828W        W40222  25.300  39.506   4.630
71829W        W40223  15.787  24.290  14.294
71830W        W40224  29.987  33.655  11.937
71831W        W40225  19.070   2.024   0.868
71832W        W40226  25.365   0.671  10.487
71833W        W40227   3.786  20.278  10.652
71834W        W40228  44.675  17.234   4.002
71835W        W40229  29.179  41.377   0.889
71836W        W40230  29.783  21.798  13.056
71837W        W40231  41.743  10.866  14.441
71838W        W40232   4.547  17.826  14.348
71839W        W40233  22.058  14.612  13.963
71840W        W40234  38.982  34.543   3.834
71841W        W40235   5.363  44.160   0.021
71842W        W40236  29.106  42.007   2.665
71843W        W40237  32.495  42.274   3.867
71844W        W40238  11.625   3.392   1.791
71845W        W40239  22.786  42.409   3.860
71846W        W40240  18.233   0.306   0.656
71847W        W40241  20.498  21.921  13.804
71848W        W40242  33.111  13.264  12.933
71849W        W40243  26.037  38.842   2.204
71850W        W40244  35.002  35.808  11.977
71851W        W40245  25.056   5.147  12.062
71852W        W40246   3.821  17.065  14.543
71853W        W40247   8.159  23.343  13.838
71854W        W40248  30.008  39.411   4.534
71855W        W40249   0.661   4.494  14.762
71856W        W40250   0.022  12.751   2.276
71857W        W40251  15.960  21.794   0.458
71858W        W40252  44.818  30.562   0.931
71859W        W40253  30.969  13.225   1.528
71860W        W40254  31.179  31.345   1.888
71861W        W40255  32.221  17.464   1.708
71862W        W40256  12.785   2.380   0.954
71863W        W40257  31.683  37.761  11.023
71864W        W40258  42.026  33.187  11.578
71865W        W40259  11.548  12.757   1.348
71866W        W40260  23.742  33.535  14.430
71867W        W40261  37.008  30.197  11.934
71868W        W40262  25.421   3.184  13.246
71869W        W40263   8.780   1.227  10.679
71870W        W40264  34.755  15.329   1.826
71871W        W40265  43.555  13.925  13.358
71872W        W40266  33.430   7.072  13.130
71873W        W40267  21.283  23.600  13.381
71874W        W40268  30.436   5.764  12.483
71875W        W40269  15.795  32.131   1.117
71876W        W40270  11.846   6.750  10.709
71877W        W40271  41.873  13.355  13.185
71878W        W40272  33.696   1.490  13.356
71879W        W40273   7.142  26.964  10.706
71880W        W40274  12.274   1.890   1.616
71881W        W40275   5.983  25.020   0.682
71882W        W40276  33.313  10.334   0.871
71883W        W40277  43.080   8.435   2.796
71884W        W40278  23.921  37.894  11.109
71885W        W40279   4.511  40.293   5.015
71886W        W40280  11.310   3.668  11.497
71887W        W40281   9.098  20.060   0.489
71888W        W40282   1.759   6.135  12.591
71889W        W40283   0.551  15.537   0.854
71890W        W40284  36.983   1.936  11.167
71891W        W40285  38.272  24.425   1.094
71892W        W40286  39.565  16.680   1.827
71893W        W40287  14.310  35.112  13.115
71894W        W40288   8.459   0.423  12.258
71895W        W40289  43.856  24.987  12.978
71896W        W40290   9.316  23.897   3.664
71897W        W40291  44.573  25.882   2.281
71898W        W40292  22.733  40.986   1.839
71899W        W40293  20.404   4.433   3.378
71900W        W40294  32.793  11.635  12.482
71901W        W40295  40.865  43.537  14.356
71902W        W40296  33.478  14.662  13.664
71903W        W40297  39.090  30.057  12.293
71904W        W40298  11.882  35.480   3.244
71905W        W40299  10.005   1.372   0.483
71906W        W40300  42.875   3.910  10.505
71907W        W40301  39.714  24.514   2.235
71908W        W40302  43.710   9.961   3.475
71909W        W40303  17.096  16.807  13.150
71910W        W40304  10.425  21.739   1.486
71911W        W40305  28.204  10.277  10.993
71912W        W40306  32.893  15.682   3.415
71913W        W40307  42.361   5.277  10.895
71914W        W40308  30.694  38.055  10.932
71915W        W40309  29.214  15.090  12.063
71916W        W40310  18.561   6.326  10.625
71917W        W40311  33.456   6.231  10.689
71918W        W40312   9.728  10.543   3.780
71919W        W40313  42.873  15.362  13.929
71920W        W40314  16.175  34.808   3.676
71921W        W40315  44.659  30.988   2.780
71922W        W40316  17.712   9.794   1.060
71923W        W40317  29.991  43.855   0.815
71924W        W40318  29.378  23.046  13.358
71925W        W40319  37.206   1.346   0.779
71926W        W40320  39.766  36.317  10.509
71927W        W40321  43.518  40.626   2.816
71928W        W40322  24.634  29.209   3.651
71929W        W40323  20.480  12.699  10.731
71930W        W40324  36.036   1.544  13.931
71931W        W40325  38.095  39.005   1.799
71932W        W40326   4.528  17.504  12.533
71933W        W40327  20.221  30.127  12.174
71934W        W40328  13.582  37.339  11.174
71935W        W40329   2.716  24.112   3.215
71936W        W40330   1.781  18.059   0.007
71937W        W40331  37.032  26.567  12.232
71938W        W40332  19.626  40.781  12.591
71939W        W40333  14.748  39.575   4.227
71940W        W40334  37.872   7.209   2.864
71941W        W40335  19.548  34.609   1.800
71942W        W40336  44.660  25.219   3.627
71943W        W40337  32.894  33.582   4.144
71944W        W40338   9.957   5.852   2.758
71945W        W40339  17.597   5.330  14.438
71946W        W40340  20.613  28.392   2.388
71947W        W40341   6.972  43.826  12.453
71948W        W40342  28.626   0.882   2.774
71949W        W40343  12.654   9.618   0.371
71950W        W40344  20.335  44.964  11.210
71951W        W40345  41.589  25.041   1.199
71952W        W40346  37.128  16.705   0.857
71953W        W40347  43.253  17.157   0.753
71954W        W40348  33.345  44.632  13.370
71955W        W40349   3.931  35.152  12.042
71956W        W40350  36.048  22.927  12.043
71957W        W40351  22.146  23.991   0.794
71958W        W40352  27.902  42.397  11.568
71959W        W40353  31.249   9.580  12.030
71960W        W40354   3.674  27.300   0.279
71961W        W40355  17.946  22.967   0.364
71962W        W40356  31.403  43.978   2.888
71963W        W40357  24.573  26.910   1.262
71964W        W40358  21.268  35.338  11.621
71965W        W40359  18.694  39.026   0.562
71966W        W40360  13.496  29.539   5.095
71967W        W40361  40.490  30.396  14.908
71968W        W40362  28.998   5.859  11.874
71969W        W40363  19.731  17.544   1.801
71970W        W40364  34.841   2.932  11.958
71971W        W40365  44.415  43.517  13.010
71972W        W40366  18.140  44.308  12.266
71973W        W40367  11.277  17.972   3.633
71974W        W40368   1.213  40.858  14.397
71975W        W40369  35.600  14.071  12.995
71976W        W40370   7.182  13.354  13.946
71977W        W40371   2.185  21.012   2.044
71978W        W40372   1.256  31.754   3.392
71979W        W40373  35.578   8.079  14.266
71980W        W40374  18.533  10.025  10.749
71981W        W40375  17.772  15.833   1.709
71982W        W40376  31.238  43.273  12.516
71983W        W40377  12.467  40.194  11.082
71984W        W40378   8.408  20.105  11.785
71985W        W40379  20.520   6.338   4.644
71986W        W40380  34.519   5.854  14.722
71987W        W40381  33.112  16.634  14.219
71988W        W40382  23.764  12.601   4.207
71989W        W40383  13.650  13.249  13.150
71990W        W40384   9.833  15.881   4.204
71991W        W40385  40.289  31.049   2.810
71992W        W40386  21.083  21.204  11.577
71993W        W40387  29.483  10.296   1.278
71994W        W40388  38.039  25.170   4.060
71995W        W40389  34.584  24.953  13.511
71996W        W40390  22.097   9.448  12.806
71997W        W40391  37.336  40.037   3.964
71998W        W40392  24.702  22.574   4.525
71999W        W40393  11.800   5.084   0.928
72000W        W40394  34.475  32.694   1.260
72001W        W40395   6.881  39.872   4.754
72002W        W40396   8.905  42.365  14.420
72003W        W40397   4.502   9.604   2.382
72004W        W40398   8.153  40.285  11.466
72005W        W40399  37.334  32.968  10.212
72006W        W40400  37.452  13.856  12.190
72007W        W40401  39.881   9.145   4.645
72008W        W40402  10.791  10.534   0.454
72009W        W40403  39.361  26.908   0.057
72010W        W40404   9.732  11.470  14.084
72011W        W40405   8.715  30.129  10.975
72012W        W40406  31.416  31.008   0.766
72013W        W40407  44.723   6.690  11.954
72014W        W40408  35.637  12.498   4.130
72015W        W40409  14.341  36.772  12.514
72016W        W40410  21.530  40.911  12.606
72017W        W40411  27.293  23.711   5.001
72018W        W40412  14.840   3.570  12.827
72019W        W40413  16.334   6.388  14.838
72020W        W40414  28.447  25.217   0.546
72021W        W40415  26.438  32.678  14.010
72022W        W40416  20.724   4.161  14.120
72023W        W40417  34.535  32.218  14.621
72024W        W40418  23.607  29.221  14.443
72025W        W40419  16.994  29.202   4.136
72026W        W40420  26.441   3.924   4.986
72027W        W40421  28.239   8.294  13.280
72028W        W40422  30.285  35.346   4.898
72029W        W40423   4.405  37.177  14.450
72030W        W40424  25.021  19.505  13.798
72031W        W40425  30.506  25.071  14.370
72032W        W40426  12.352   7.198   4.634
72033W        W40427  43.864  28.669  13.916
72034W        W40428  24.915  14.429   3.323
72035W        W40429  27.459  26.198  14.420
72036W        W40430  30.009   0.001  10.492
72037W        W40431  12.343   5.409  11.795
72038W        W40432  24.746   2.842   4.265
72039W        W40433  44.873   1.081  11.072
72040W        W40434  25.719  34.871   3.129
72041W        W40435  13.619   1.796  14.062
72042W        W40436  21.112  28.623  11.152
72043W        W40437  20.743  16.108  10.748
72044W        W40438  30.563  21.772  10.612
72045W        W40439  13.264  16.535  13.806
72046W        W40440   0.257  23.379   3.727
72047W        W40441  26.550  38.884   1.846
72048W        W40442  43.129  40.733  12.759
72049W        W40443  10.201  34.443  13.164
72050W        W40444  35.678  21.167  13.927
72051W        W40445  13.089  30.194   1.579
72052W        W40446   4.259   3.799   3.366
72053W        W40447  35.533  33.887   0.989
72054W        W40448   1.748  35.311   0.803
72055W        W40449  22.622   9.704  14.446
72056W        W40450  44.751   8.556  13.465
72057W        W40451   2.332  10.095  11.143
72058W        W40452  19.797  39.895   3.774
72059W        W40453   8.949  27.308  12.837
72060W        W40454   1.329   0.986   0.348
72061W        W40455   4.818  20.612   1.314
72062W        W40456  35.927  39.047   1.339
72063W        W40457  27.574  36.660   2.369
72064W        W40458   8.298   7.208  11.075
72065W        W40459   5.847  21.772   1.979
72066W        W40460  29.180  18.766  13.537
72067W        W40461   9.056   5.658   0.837
72068W        W40462  38.413  21.494   3.261
72069W        W40463  26.468  23.166  12.918
72070W        W40464  25.310  24.698   3.694
72071W        W40465  24.583  43.665   3.113
72072W        W40466  12.154   5.871  13.945
72073W        W40467   9.408  34.821   3.205
72074W        W40468  13.290  19.014   3.263
72075W        W40469   7.169   3.997   3.059
72076W        W40470  35.787  25.145  12.678
72077W        W40471   2.756  38.065  12.405
72078W        W40472  12.756  10.326   2.282
72079W        W40473   1.374  27.085  13.500
72080W        W40474  37.053  13.612  14.949
72081W        W40475  32.044  22.931   4.690
72082W        W40476   9.278   8.119  12.650
72083W        W40477  24.085  42.679  11.488
72084W        W40478  17.758  29.996   4.456
72085W        W40479  27.709  33.932  10.611
72086W        W40480  36.296  44.746  13.734
72087W        W40481  17.951   6.276  14.382
72088W        W40482  33.083  29.231  13.473
72089W        W40483  12.675  40.324  13.420
72090W        W40484  30.039  32.325  12.875
72091W        W40485  39.929  29.463   0.380
72092W        W40486  16.523   2.290   2.821
72093W        W40487   7.914  23.646   4.543
72094W        W40488  44.466   9.770  10.962
72095W        W40489  15.181  43.829  12.474
72096W        W40490  35.884   6.971   3.298
72097W        W40491  17.889  13.732  14.960
72098W        W40492   5.781  43.894   3.289
72099W        W40493  16.291  31.999   1.864
72100W        W40494  43.508   2.152   1.321
72101W        W40495  14.586   1.881  11.621
72102W        W40496  27.055  37.404   2.431
72103W        W40497  13.493  21.938   4.784
72104W        W40498  16.463   2.281   1.771
72105W        W40499   1.465  37.799  12.077
72106W        W40500   2.730  11.764  11.942
72107W        W40501   9.469  25.726  10.322
72108W        W40502   1.499   2.657  11.206
72109W        W40503  36.355  26.182   2.081
72110W        W40504  40.539   3.891   4.667
72111W        W40505  12.640  15.884   3.648
72112W        W40506   5.373   8.335  10.642
72113W        W40507   6.547   7.494  11.475
72114W        W40508   0.707  29.831   0.274
72115W        W40509  19.643  26.022   1.945
72116W        W40510  18.276   2.918   4.522
72117W        W40511   8.740  40.442  13.557
72118W        W40512  31.509  36.035  14.994
72119W        W40513  20.252  38.975  11.466
72120W        W40514  27.213  31.053  14.970
72121W        W40515  11.345  15.580  13.384
72122W        W40516  20.666  36.755   1.432
72123W        W40517   0.865   5.325  13.646
72124W        W40518   4.476   0.434  14.522
72125W        W40519  36.827  21.160  11.657
72126W        W40520   5.676   8.342  11.059
72127W        W40521  31.682   7.782  14.311
72128W        W40522  39.975  11.350   4.672
72129W        W40523  37.563  11.367   2.184
72130W        W40524  25.599  26.272   1.322
72131W        W40525   1.437  18.419  11.786
72132W        W40526  43.720  29.922  11.160
72133W        W40527  18.387  41.165   2.446
72134W        W40528  25.155  40.453   3.736
72135W        W40529  30.894  11.501   0.888
72136W        W40530  39.942  26.102  14.958
72137W        W40531   1.146   2.849   0.329
72138W        W40532   7.450  35.007   4.643
72139W        W40533   0.870  30.906  10.684
72140W        W40534  35.083  23.338  11.798
72141W        W40535  43.827  43.639   4.204
72142W        W40536  34.082  28.625   4.934
72143W        W40537  27.227  25.618   1.433
72144W        W40538  27.704   2.221   0.409
72145W        W40539  29.553  41.488   4.623
72146W        W40540  13.797  39.370   4.699
72147W        W40541  29.958  30.349   0.805
72148W        W40542   0.926  16.868   4.422
72149W        W40543  32.441  19.299  12.990
72150W        W40544   3.990  44.975   1.274
72151W        W40545  15.786  13.668   2.056
72152W        W40546  12.734   6.221  10.461
72153W        W40547  16.618  33.711   2.854
72154W        W40548  23.961  22.255   4.746
72155W        W40549  43.030  27.137  12.592
72156W        W40550  29.469  37.305   0.924
72157W        W40551  20.959  42.773  13.020
72158W        W40552  20.217   4.928  14.487
72159W        W40553  41.862  29.507   0.927
72160W        W40554   8.399   6.954   2.001
72161W        W40555  19.290   7.110  13.209
72162W        W40556  11.328  26.728   3.807
72163W        W40557  37.964  17.358  11.542
72164W        W40558  44.815  44.828  14.065
72165W        W40559  25.936  15.990  10.878
72166W        W40560  13.616  11.171   3.751
72167W        W40561   7.083  37.993   0.370
72168W        W40562  40.373   9.625  13.578
72169W        W40563  12.538  20.186  12.846
72170W        W40564  39.114   0.970   2.229
72171W        W40565  29.910  19.359   0.770
72172W        W40566  26.084   6.717   2.574
72173W        W40567  16.473   6.164   0.305
72174W        W40568  42.625  42.656   1.573
72175W        W40569  44.867  40.118  12.164
72176W        W40570  10.847   5.212  14.399
72177W        W40571  29.450  20.087   2.675
72178W        W40572  16.552  13.629   3.697
72179W        W40573  27.932   5.176  12.927
72180W        W40574   5.595  31.177   2.746
72181W        W40575  10.534   6.940  14.982
72182W        W40576  34.862  41.146   4.705
72183W        W40577  22.248  15.830  12.054
72184W        W40578  34.585   1.349   0.824
72185W        W40579  36.109   4.336  11.832
72186W        W40580   6.309  23.042  10.610
72187W        W40581  18.523  41.038   3.311
72188W        W40582  38.520  28.010   3.919
72189W        W40583   1.971  41.870  11.161
72190W        W40584  44.977   3.215  11.785
72191W        W40585  39.135  25.545  12.864
72192W        W40586  18.566  18.485  14.325
72193W        W40587  34.243  15.495   3.279
72194W        W40588  32.524  34.606  12.310
72195W        W40589  26.151  31.036  10.567
72196W        W40590   4.419   4.956   4.038
72197W        W40591  17.161  43.343  11.427
72198W        W40592  11.194  21.029  11.577
72199W        W40593  15.152  42.590  12.129
72200W        W40594  40.457   5.617  11.195
72201W        W40595  17.654  21.582   3.314
72202W        W40596  25.598  21.782   1.940
72203W        W40597  17.826  11.807   1.287
72204W        W40598   7.127   8.721  11.075
72205W        W40599   2.365  28.441   1.339
72206W        W40600   6.220  34.663  11.067
72207W        W40601  33.583  42.301   2.346
72208W        W40602  36.547  13.642   1.917
72209W        W40603  44.877  23.477   3.313
72210W        W40604  35.146  22.640   0.244
72211W        W40605  24.527   8.300   5.097
72212W        W40606   3.875   9.080  11.690
72213W        W40607  24.646  19.255  12.385
72214W        W40608  13.445   3.508   4.962
72215W        W40609  26.503  34.466   4.128
72216W        W40610  22.093  24.105  14.876
72217W        W40611  11.296  11.946   3.670
72218W        W40612  23.187  37.431  10.694
72219W        W40613   1.488  35.419  13.965
72220W        W40614  30.100  42.005  11.976
72221W        W40615  24.768  39.513   4.572
72222W        W40616  26.197  42.559   3.608
72223W        W40617  30.392   8.197  14.341
72224W        W40618  34.174   2.565   3.413
72225W        W40619  32.469  38.450   2.431
72226W        W40620   8.797  20.265  14.788
72227W        W40621   3.135  44.630   2.405
72228W        W40622  31.387   8.481   4.091
72229W        W40623  44.495  19.830   3.417
72230W        W40624  42.449   6.855  12.651
72231W        W40625   2.227  18.857   4.636
72232W        W40626  27.996  35.015   4.420
72233W        W40627  34.150  21.609  11.129
72234W        W40628  37.411  42.338  11.163
72235W        W40629   3.258  20.055   0.382
72236W        W40630  35.315  21.180   4.111
72237W        W40631  22.378  28.410  13.070
72238W        W40632  16.771  21.223  12.997
72239W        W40633   6.654  38.638  12.469
72240W        W40634   6.925   8.197  11.798
72241W        W40635  14.262  35.932  10.510
72242W        W40636  37.927  15.579   0.368
72243W        W40637  43.026  14.352   2.714
72244W        W40638  22.020  15.180   3.457
72245W        W40639  17.158  13.190  11.973
72246W        W40640   1.025   9.798  12.831
72247W        W40641   1.467  30.746   3.256
72248W        W40642  40.121  27.533  13.425
72249W        W40643   2.268   7.029  11.558
72250W        W40644  21.343   7.539   2.440
72251W        W40645  13.877  15.309  13.919
72252W        W40646  28.419   4.315  10.400
72253W        W40647  22.161   2.535  13.285
72254W        W40648  43.863  23.197  11.476
72255W        W40649  35.834  38.610   3.298
72256W        W40650  16.449   2.499  12.025
72257W        W40651   8.219   6.861   3.838
72258W        W40652  28.444  17.649  14.886
72259W        W40653  37.330  42.466  14.056
72260W        W40654  15.735  26.400  12.199
72261W        W40655  28.205  40.146   4.371
72262W        W40656   8.435  26.514   4.089
72263W        W40657  25.577  38.569   2.330
72264W        W40658  36.273  39.042  12.974
72265W        W40659  21.594  32.830   1.832
72266W        W40660   5.271  31.105   3.255
72267W        W40661   2.776  25.989   4.369
72268W        W40662  40.293   2.171  10.751
72269W        W40663  26.203   2.283  10.312
72270W        W40664  26.805  18.127   2.370
72271W        W40665   2.368  36.309  14.363
72272W        W40666   1.847  10.314  13.543
72273W        W40667  17.524   3.006   3.226
72274W        W40668  16.598  34.240   2.812
72275W        W40669  38.865  21.473   4.097
72276W        W40670  19.278  37.260   3.409
72277W        W40671   4.669  37.978  13.411
72278W        W40672  21.296  28.668  10.263
72279W        W40673  24.234  37.301   2.404
72280W        W40674  35.390  24.707  11.001
72281W        W40675  24.666  42.482   2.774
72282W        W40676  26.176  27.963  13.547
72283W        W40677  16.954   7.269   1.801
72284W        W40678  29.120  41.084   4.325
72285W        W40679  28.416  30.528   1.709
72286W        W40680  31.461  42.979  13.562
72287W        W40681  23.722  31.970   3.643
72288W        W40682  26.421  28.418  13.441
72289W        W40683  23.133  30.856  13.797
72290W        W40684   6.151  15.697  14.526
72291W        W40685  32.907  25.122  14.331
72292W        W40686  22.776   3.879  12.875
72293W        W40687  26.095  27.397  14.938
72294W        W40688  39.754   6.284  14.499
72295W        W40689  34.928   3.516  14.921
72296W        W40690  26.143   1.964  13.454
72297W        W40691  31.976  44.212   4.689
72298W        W40692   5.110  24.056  14.351
72299W        W40693  34.515  11.405   2.632
72300W        W40694  27.589   6.425  12.435
72301W        W40695  11.881   3.715  12.025
72302W        W40696  23.046  16.351   4.627
72303W        W40697  30.732  40.940   1.952
72304W        W40698  30.578  44.620   3.483
72305W        W40699  31.187  20.201   4.593
72306W        W40700  43.280   2.379   2.407
72307W        W40701  43.393  15.766   4.949
72308W        W40702   9.652  22.102   0.384
72309W        W40703  12.812  40.869   1.821
72310W        W40704  37.050   4.013  11.050
72311W        W40705  30.650  19.134   1.455
72312W        W40706  23.072   1.650   3.448
72313W        W40707  34.418  24.232   3.811
72314W        W40708  40.877  43.876   4.584
72315W        W40709  17.557  40.824   4.547
72316W        W40710  18.582  32.169  10.379
72317W        W40711  40.527  21.617  12.576
72318W        W40712  38.597  19.693  14.331
72319W        W40713  36.599  19.143  11.629
72320W        W40714   0.728  36.895  12.003
72321W        W40715  36.392  43.874   4.568
72322W        W40716   8.816  22.961   1.285
72323W        W40717  26.091  11.752   1.685
72324W        W40718   8.655  24.037   2.302
72325W        W40719  16.042  29.990   2.100
72326W        W40720  26.052  13.730  11.147
72327W        W40721   8.504  36.730  10.631
72328W        W40722  42.898  24.866  13.896
72329W        W40723  28.370  24.960   2.033
72330W        W40724  20.667  43.409   0.908
72331W        W40725  38.014  39.508   1.978
72332W        W40726  14.595  31.755  12.301
72333W        W40727   4.461  22.445  11.958
72334W        W40728  42.952  11.124  11.045
72335W        W40729  23.350   9.366   0.424
72336W        W40730  27.187  18.719  12.042
72337W        W40731   3.770   4.276  10.988
72338W        W40732   0.337  38.069   2.637
72339W        W40733   1.354  18.461   4.181
72340W        W40734  38.887  21.513  11.884
72341W        W40735   4.777  15.493   3.688
72342W        W40736  30.798  15.101   4.601
72343W        W40737  39.824  38.855   3.385
72344W        W40738   5.385  12.234  14.480
72345W        W40739  40.368  43.989  11.567
72346W        W40740   8.621   0.738  11.871
72347W        W40741  28.628  16.213  13.118
72348W        W40742  20.490  39.393   3.657
72349W        W40743  30.122  33.535   2.636
72350W        W40744   6.574  30.076  12.462
72351W        W40745   2.234  27.316   0.458
72352W        W40746  10.841  43.326  11.853
72353W        W40747  11.249  28.432   1.772
72354W        W40748  36.499  29.558  10.625
72355W        W40749  43.879  14.159   3.647
72356W        W40750  36.390   3.391  13.085
72357W        W40751  31.314  12.730  13.451
72358W        W40752  34.776  34.651  10.485
72359W        W40753  44.775   4.842  11.654
72360W        W40754   2.409  24.122   3.959
72361W        W40755  18.546   5.733  14.865
72362W        W40756  13.191  41.003  12.435
72363W        W40757  25.709   5.394  13.007
72364W        W40758  17.086  21.349   1.394
72365W        W40759  30.779  38.471  12.613
72366W        W40760   0.968  31.083  13.759
72367W        W40761  43.037   3.726  10.959
72368W        W40762  41.463  41.247   1.843
72369W        W40763  36.901  13.722   4.643
72370W        W40764  14.166   1.318  14.702
72371W        W40765  30.459  40.090  13.877
72372W        W40766   6.397  26.105   2.799
72373W        W40767  15.103  44.380  14.837
72374W        W40768  41.006  36.415   4.935
72375W        W40769  22.063  43.946  14.023
72376W        W40770  35.737  19.061   0.906
72377W        W40771  17.552  44.429  14.733
72378W        W40772  11.643  33.118  11.615
72379W        W40773   8.055  13.086   0.059
72380W        W40774  11.771  35.906   5.296
72381W        W40775  12.396  39.876   3.262
72382W        W40776   7.907  21.640   0.812
72383W        W40777  13.749   0.093  14.504
72384W        W40778  41.622   5.269  11.585
72385W        W40779   1.722   3.797  11.222
72386W        W40780  11.884  17.709  13.148
72387W        W40781  31.995  42.001  14.562
72388W        W40782   3.919   1.772   4.719
72389W        W40783  16.410   6.911  11.474
72390W        W40784  13.395  14.098  10.798
72391W        W40785  20.880  31.050   0.941
72392W        W40786   3.866  11.641   0.521
72393W        W40787   3.629   2.202  14.856
72394W        W40788  18.199  41.533  12.099
72395W        W40789  15.631  27.134  14.391
72396W        W40790   1.987  24.598   1.223
72397W        W40791   7.523  11.327  12.615
72398W        W40792  11.158  44.318   2.762
72399W        W40793   1.678  21.042  11.584
72400W        W40794  22.058  29.903   2.174
72401W        W40795  16.272  25.669  13.438
72402W        W40796   1.692  22.215  14.272
72403W        W40797  20.759  33.448   3.689
72404W        W40798   4.761  14.189  12.052
72405W        W40799   8.163  22.295  10.495
72406W        W40800   5.626  19.899   1.542
72407W        W40801  10.889  21.530  13.010
72408W        W40802  41.586  16.729  12.019
72409W        W40803   2.450  11.361  10.918
72410W        W40804  24.436   0.180   0.919
72411W        W40805  16.733  27.843  12.183
72412W        W40806  32.683  26.489  12.865
72413W        W40807  27.557   8.663   4.623
72414W        W40808  22.244  23.691  12.165
72415W        W40809  13.921  44.321   0.796
72416W        W40810   9.136  27.680   2.424
72417W        W40811  32.132  22.658  12.139
72418W        W40812  25.626   3.844  12.436
72419W        W40813  25.714  41.290   4.468
72420W        W40814   6.701  42.573  10.606
72421W        W40815  33.126  15.714   2.300
72422W        W40816  28.102  16.778   3.708
72423W        W40817  18.715  32.139  12.332
72424W        W40818   2.922  15.369  13.362
72425W        W40819  15.622  23.123   4.058
72426W        W40820  12.143  21.418  11.647
72427W        W40821  14.648   3.810   0.218
72428W        W40822  28.598  35.607   0.484
72429W        W40823   3.109  34.840  11.425
72430W        W40824  32.502  24.161  13.348
72431W        W40825  32.053  34.576  10.618
72432W        W40826  10.641   0.672  13.866
72433W        W40827  13.774   2.564   2.735
72434W        W40828   3.269   4.707  12.066
72435W        W40829   5.164  22.452  12.545
72436W        W40830  31.154  40.243   4.268
72437W        W40831  11.924  28.027   3.232
72438W        W40832   0.359   6.340  13.456
72439W        W40833  10.706  29.730   1.204
72440W        W40834  26.585  32.915  13.155
72441W        W40835  34.947  29.096   2.739
72442W        W40836  25.064  28.675  14.907
72443W        W40837  10.597  27.689  11.126
72444W        W40838   1.835   6.652   0.211
72445W        W40839  42.470  13.215  12.510
72446W        W40840   4.524  19.798   0.297
72447W        W40841  25.990   7.695  13.103
72448W        W40842  16.848  28.921   0.671
72449W        W40843  26.376  39.759  13.438
72450W        W40844  34.011  36.290  13.770
72451W        W40845   6.734  23.465  11.986
72452W        W40846  23.887  41.802  12.644
72453W        W40847   2.253   7.426   3.342
72454W        W40848   2.111   4.746   4.702
72455W        W40849  29.147  36.941  12.539
72456W        W40850  35.840  32.085  10.812
72457W        W40851   6.972  17.108  13.096
72458W        W40852  20.447  33.155  13.638
72459W        W40853  15.370   5.329   2.907
72460W        W40854  27.659  20.756  10.745
72461W        W40855  36.332   1.339  12.039
72462W        W40856  29.344   2.462  13.826
72463W        W40857   0.784  27.620   4.600
72464W        W40858  22.135  20.519   0.022
72465W        W40859  14.671  23.486  12.842
72466W        W40860  41.388  30.866   0.728
72467W        W40861  13.250  13.645   1.541
72468W        W40862  13.471  44.604  10.217
72469W        W40863  34.448   2.908   3.702
72470W        W40864  41.303   2.996  10.584
72471W        W40865  39.931  36.846   1.476
72472W        W40866   7.197  26.364   1.964
72473W        W40867  29.675   6.673   4.097
72474W        W40868  36.345  10.192  12.487
72475W        W40869  33.994   6.792   0.023
72476W        W40870  39.214  31.871  11.115
72477W        W40871  38.883  20.807  11.080
72478W        W40872  44.877  14.131   0.478
72479W        W40873  34.847  10.083   2.792
72480W        W40874   7.854  12.041   2.376
72481W        W40875   2.814  32.350  11.623
72482W        W40876  31.713  20.513  10.816
72483W        W40877  24.079  31.375   2.285
72484W        W40878   7.169  30.671  10.814
72485W        W40879  33.459  20.024  11.133
72486W        W40880  20.997  20.054  10.650
72487W        W40881  18.600  44.507   4.126
72488W        W40882  29.859   1.042   0.789
72489W        W40883  14.998  12.218   0.904
72490W        W40884   3.809   1.982   4.267
72491W        W40885  18.708  17.062   1.375
72492W        W40886   5.854  29.050   3.722
72493W        W40887   8.214  32.428  14.432
72494W        W40888  30.634   8.677  14.351
72495W        W40889  39.558  26.257   3.159
72496W        W40890  36.475  22.303   0.782
72497W        W40891  43.014  40.013  13.381
72498W        W40892  44.368   2.769  14.801
72499W        W40893  40.401  26.153   2.596
72500W        W40894  29.880  16.813   2.905
72501W        W40895   4.910  21.741  10.463
72502W        W40896  23.059  32.492  11.543
72503W        W40897  13.892   6.280  12.947
72504W        W40898  39.278  23.880  10.583
72505W        W40899  15.844  32.064   4.532
72506W        W40900   4.998  38.059   2.153
72507W        W40901  34.960  29.920  13.830
72508W        W40902  25.608  43.426  11.697
72509W        W40903   7.459   8.790   4.522
72510W        W40904   7.917   3.816  13.592
72511W        W40905  36.375  11.250  14.767
72512W        W40906  23.062   2.919   3.725
72513W        W40907   2.657  34.571   2.804
72514W        W40908  41.075  36.437   3.978
72515W        W40909  16.888  34.904   2.295
72516W        W40910  17.297  29.422   3.462
72517W        W40911  34.871  29.548  11.606
72518W        W40912  31.719  13.403  12.912
72519W        W40913   7.374  40.287   1.318
72520W        W40914  28.973   8.722  14.918
72521W        W40915  36.338  20.510   0.237
72522W        W40916  18.304  13.205   0.260
72523W        W40917  35.879   1.438  13.457
72524W        W40918  32.584  35.063  12.084
72525W        W40919   4.393  37.515   0.396
72526W        W40920   9.364  33.909   3.244
72527W        W40921  26.071  11.771   2.179
72528W        W40922   8.301  24.072   3.873
72529W        W40923   2.180  26.247  12.498
72530W        W40924  30.144   4.969  14.320
72531W        W40925  18.322  27.777   0.734
72532W        W40926  28.649   1.726  12.318
72533W        W40927  13.750  22.212  14.139
72534W        W40928  37.360  13.183   2.639
72535W        W40929  19.548  31.476   2.512
72536W        W40930   5.281  32.149  12.413
72537W        W40931  12.105  29.078  12.893
72538W        W40932  25.130  30.028   3.244
72539W        W40933  43.773  39.279   0.708
72540W        W40934   5.224  16.732   3.057
72541W        W40935  13.243  42.740  12.938
72542W        W40936  15.895  13.869  14.872
72543W        W40937  27.855   1.324  13.469
72544W        W40938  39.853  37.814  12.055
72545W        W40939  21.113  22.444   1.475
72546W        W40940  16.480  30.712   1.365
72547W        W40941  15.188  27.441  14.311
72548W        W40942  36.391  44.430  11.512
72549W        W40943  41.442  11.088  12.610
72550W        W40944  35.863  18.782  12.047
72551W        W40945  19.663  22.702   0.351
72552W        W40946  40.399   0.244  13.151
72553W        W40947  30.972  26.467   3.161
72554W        W40948  13.651   7.842   4.502
72555W        W40949  17.426   3.698  12.479
72556W        W40950  27.127  15.762   1.917
72557W        W40951  10.654  35.402   1.781
72558W        W40952   4.359  44.818  12.871
72559W        W40953  31.514  18.574  13.871
72560W        W40954  43.822  12.189   1.239
72561W        W40955  10.828  19.316  13.478
72562W        W40956  12.424  13.088  11.666
72563W        W40957   2.025  36.697  14.436
72564W        W40958  36.036   7.349  11.949
72565W        W40959  35.094  29.985   0.726
72566W        W40960  23.914  17.174   1.427
72567W        W40961   9.684  29.688  12.957
72568W        W40962  22.741  32.556   2.754
72569W        W40963  19.229   1.374   3.300
72570W        W40964  25.435  14.210  12.526
72571W        W40965  24.449  18.426  11.509
72572W        W40966  44.964   4.603   3.314
72573W        W40967  31.723  24.582   3.915
72574W        W40968  28.257  34.425  10.816
72575W        W40969  26.995  14.633   4.354
72576W        W40970  35.171   4.184   3.589
72577W        W40971   0.900  34.985   0.399
72578W        W40972  41.968  25.664  14.337
72579W        W40973  43.362  35.150   2.850
72580W        W40974  18.712  30.225   4.188
72581W        W40975  13.609  12.209  11.505
72582W        W40976  21.815  24.442  12.239
72583W        W40977  29.572   0.212  14.052
72584W        W40978   3.948  30.849   4.230
72585W        W40979  15.057  21.891   4.917
72586W        W40980  10.778  38.969  13.913
72587W        W40981  38.737  20.679   4.562
72588W        W40982  32.548  13.891   1.692
72589W        W40983  27.672  28.281   1.800
72590W        W40984  42.603   5.821  12.274
72591W        W40985   8.808  39.958  12.620
72592W        W40986  39.415  38.968  14.485
72593W        W40987  21.811   6.782  11.027
72594W        W40988  31.182  29.958  11.621
72595W        W40989  31.042  27.405  14.051
72596W        W40990  31.361  36.436  12.623
72597W        W40991  12.874  12.702   2.532
72598W        W40992  10.858   0.167   0.471
72599W        W40993  33.543  12.221   4.784
72600W        W40994  22.061  34.919  13.034
72601W        W40995  33.628  18.657  12.820
72602W        W40996   2.588  12.723  12.296
72603W        W40997  34.091  23.205  13.541
72604W        W40998  43.963  17.985  13.636
72605W        W40999  11.232  42.050  14.796
72606W        W41000  36.925  41.266   3.475
72607W        W41001   9.706   7.772   2.871
72608W        W41002   2.171  16.656  13.353
72609W        W41003  36.517   9.637   2.614
72610W        W41004  25.458  13.212   4.633
72611W        W41005   6.731  35.811  13.846
72612W        W41006  11.233  19.643  11.368
72613W        W41007  18.804   5.735  11.820
72614W        W41008   6.895  27.084  13.570
72615W        W41009  16.323  41.991  10.837
72616W        W41010  12.688   9.852   2.106
72617W        W41011  19.225  28.571  12.654
72618W        W41012  15.119  27.308  12.901
72619W        W41013  40.144  22.702   4.087
72620W        W41014  34.367  28.365  14.409
72621W        W41015  10.557  40.055   4.396
72622W        W41016  25.597  40.024   4.028
72623W        W41017  21.477  16.709   1.920
72624W        W41018   5.351  19.484  11.557
72625W        W41019  43.937  11.605   0.247
72626W        W41020  20.618   3.450  12.485
72627W        W41021  43.778  16.642  10.688
72628W        W41022  29.977  24.492  13.440
72629W        W41023  36.371  18.989  11.182
72630W        W41024   6.951   8.749  12.470
72631W        W41025  24.265  17.583  13.934
72632W        W41026  23.501  23.148   4.579
72633W        W41027  34.357  30.742   0.660
72634W        W41028  11.518   7.690   2.544
72635W        W41029  44.131  18.002  14.149
72636W        W41030  31.552  28.818   0.124
72637W        W41031  37.361   8.563  13.218
72638W        W41032  17.298   9.392   4.278
72639W        W41033  42.838  34.829   3.317
72640W        W41034  24.524  36.527  13.894
72641W        W41035  17.622   0.186  13.862
72642W        W41036  12.371  15.573  11.090
72643W        W41037  11.386  26.004   2.837
72644W        W41038  37.066   1.818  14.489
72645W        W41039  41.327  32.664   0.459
72646W        W41040  31.911  33.467   2.373
72647W        W41041  13.252  12.525   4.612
72648W        W41042   2.893  17.195  12.362
72649W        W41043  27.939  34.033  14.384
72650W        W41044  33.812  38.337  12.886
72651W        W41045  18.650  16.698  13.926
72652W        W41046  35.487  13.161   1.553
72653W        W41047  20.300  26.897  14.814
72654W        W41048  31.698   7.907   1.904
72655W        W41049  38.133   8.939   0.653
72656W        W41050   7.002   5.791   2.452
72657W        W41051   2.241  28.534   5.121
72658W        W41052  26.401   9.374   3.052
72659W        W41053   6.993  22.466   4.764
72660W        W41054  26.287  17.795  11.182
72661W        W41055  42.315  18.627  12.892
72662W        W41056   0.364  37.482   3.365
72663W        W41057  22.800  38.372  14.920
72664W        W41058   5.248   9.441  11.099
72665W        W41059  35.021  24.797   4.250
72666W        W41060   8.298  42.780  11.703
72667W        W41061   9.371   4.287  12.099
72668W        W41062  41.805  20.719  11.690
72669W        W41063  22.305   6.365  13.847
72670W        W41064   0.493   5.801   1.386
72671W        W41065  14.457  30.895  13.909
72672W        W41066  37.974  12.813   3.586
72673W        W41067  35.935   9.605   1.425
72674W        W41068   1.002  37.827  10.687
72675W        W41069   7.915  28.297  10.704
72676W        W41070  38.280  23.709  12.944
72677W        W41071   8.559  41.290  13.174
72678W        W41072   8.449   2.162   4.604
72679W        W41073  34.442  11.161  10.619
72680W        W41074  42.467  40.775   2.768
72681W        W41075  22.992  20.014   2.713
72682W        W41076   9.374   8.221  14.358
72683W        W41077   9.589   9.275  11.768
72684W        W41078  33.421  33.919   3.731
72685W        W41079  20.471  24.068  11.068
72686W        W41080  27.703  26.738   2.803
72687W        W41081  10.524  44.811  13.325
72688W        W41082  41.448   2.993   4.586
72689W        W41083  39.798  40.324  13.080
72690W        W41084   0.466  30.634  11.448
72691W        W41085  28.108   4.226   2.889
72692W        W41086  38.724  44.491  14.298
72693W        W41087  16.209   7.492  13.840
72694W        W41088  33.015  34.396  14.143
72695W        W41089  25.051   3.506   1.793
72696W        W41090   1.378  25.844  13.827
72697W        W41091  42.579  12.244  11.113
72698W        W41092  17.714  11.681  11.667
72699W        W41093  25.902  31.045  12.424
72700W        W41094  38.831  26.775  11.651
72701W        W41095  39.025   9.428   0.175
72702W        W41096  17.301   9.575  11.065
72703W        W41097   6.923  38.502   0.270
72704W        W41098  22.136  18.995   4.528
72705W        W41099   0.686  25.222  14.014
72706W        W41100   6.462  31.262  10.738
72707W        W41101  38.202  22.957  13.322
72708W        W41102  16.086  19.262  12.438
72709W        W41103  40.250  41.450   4.317
72710W        W41104  13.765  12.683  11.235
72711W        W41105  13.190  18.203   4.345
72712W        W41106  38.091   0.741  11.708
72713W        W41107  11.663  35.884  10.225
72714W        W41108   0.799  30.643  13.116
72715W        W41109  36.887   4.751   2.208
72716W        W41110  11.160  34.505   1.839
72717W        W41111  14.382  19.135   0.236
72718W        W41112  42.973   5.297   3.048
72719W        W41113  39.813  29.606  10.939
72720W        W41114   7.763  26.758  12.517
72721W        W41115  39.007  18.435  13.980
72722W        W41116  18.307  36.863   3.638
72723W        W41117  43.898  11.866   0.739
72724W        W41118  30.187  30.471  11.635
72725W        W41119  37.475  33.674   2.174
72726W        W41120   2.210   7.466   0.014
72727W        W41121   0.815  31.937  11.608
72728W        W41122  12.677  34.860   4.650
72729W        W41123  11.756  23.798   4.951
72730W        W41124  29.312  27.796  11.249
72731W        W41125  27.251  44.990  12.478
72732W        W41126  20.496  36.856  14.531
72733W        W41127  11.992  12.461   4.757
72734W        W41128  23.166  27.925   0.065
72735W        W41129   9.849  28.505  13.662
72736W        W41130  31.329  26.480  11.454
72737W        W41131  28.752   4.355  13.165
72738W        W41132  32.877  17.686  10.373
72739W        W41133  43.724  38.428  12.896
72740W        W41134  29.456  29.560  12.527
72741W        W41135  26.688   1.546  12.834
72742W        W41136   4.368  41.059   1.438
72743W        W41137  17.795  39.885  13.796
72744W        W41138  37.414  25.540  13.021
72745W        W41139  40.058  43.150  13.020
72746W        W41140   3.009  20.733  11.677
72747W        W41141  43.626  27.165   0.475
72748W        W41142  18.834  21.945  12.069
72749W        W41143  37.861  10.711   4.229
72750W        W41144  24.779  44.435   1.328
72751W        W41145  30.074   7.170  11.689
72752W        W41146  29.313  27.938  13.428
72753W        W41147  26.380  37.623  14.022
72754W        W41148  24.902  42.871  14.852
72755W        W41149  34.067   3.441  11.076
72756W        W41150  30.313  22.050  13.943
72757W        W41151  21.781  36.274   1.071
72758W        W41152  27.438  25.776  10.866
72759W        W41153  40.051  38.708  11.113
72760W        W41154  31.944  30.013  14.372
72761W        W41155   2.433   5.542  14.923
72762W        W41156   9.654   1.342   2.230
72763W        W41157   0.519  23.184   0.207
72764W        W41158  23.815  37.758   0.820
72765W        W41159  13.439  19.048  14.340
72766W        W41160  18.028   4.361  13.417
72767W        W41161  25.110  28.396  14.439
72768W        W41162  24.049  15.647   4.047
72769W        W41163  26.231  24.266  14.339
72770W        W41164  12.414   0.866   2.291
72771W        W41165   2.350  40.009  12.863
72772W        W41166  33.554  11.764   2.614
72773W        W41167  11.776  11.372  14.704
72774W        W41168  17.775   5.408   0.875
72775W        W41169  36.074  17.673   2.725
72776W        W41170  35.391  20.149  13.388
72777W        W41171   2.963  34.188   4.212
72778W        W41172  15.745  41.168   1.816
72779W        W41173  43.782  10.637  13.465
72780W        W41174  33.381   2.837  14.415
72781W        W41175  21.712   0.879  10.717
72782W        W41176  28.559  24.275   0.153
72783W        W41177  26.730  20.825  10.735
72784W        W41178  42.305   0.338   0.505
72785W        W41179   2.536   6.180   2.125
72786W        W41180  39.006  14.899  10.384
72787W        W41181  36.936   7.758   4.361
72788W        W41182  14.666  26.153  14.359
72789W        W41183  17.286  13.588   3.027
72790W        W41184  20.059  24.427   2.347
72791W        W41185  30.609   0.964   3.362
72792W        W41186  24.631   1.452  11.890
72793W        W41187  26.893  23.485  10.338
72794W        W41188  13.156   9.633   1.952
72795W        W41189  38.134  21.050   3.203
72796W        W41190   4.887  38.968   2.613
72797W        W41191  14.817  30.417  12.920
72798W        W41192  31.604  24.979  14.426
72799W        W41193  14.340   8.289   0.763
72800W        W41194  28.636  41.807   0.864
72801W        W41195   9.146  24.031  11.960
72802W        W41196  36.958  36.312  13.101
72803W        W41197   7.332  40.493   2.322
72804W        W41198   4.129  19.430  10.822
72805W        W41199  31.431   9.756  12.891
72806W        W41200  23.200  22.237   0.193
72807W        W41201  27.486  43.185  14.750
72808W        W41202   5.895  34.616   3.217
72809W        W41203  38.234  23.963   3.759
72810W        W41204  22.113  35.363   0.762
72811W        W41205  14.660   8.242  14.357
72812W        W41206  28.097  19.263   1.922
72813W        W41207  41.770   2.876  12.109
72814W        W41208  10.756   4.467   1.369
72815W        W41209  43.196  26.996   0.245
72816W        W41210  36.877   8.808  13.425
72817W        W41211   0.805  17.847   1.814
72818W        W41212  16.098  24.040   1.278
72819W        W41213  31.325   7.704  11.226
72820W        W41214  39.094  19.482  12.082
72821W        W41215  17.546   6.916   3.380
72822W        W41216  37.372  20.314  12.952
72823W        W41217  12.410  32.091   1.178
72824W        W41218  21.787  25.678   1.739
72825W        W41219   6.667  21.328   0.351
72826W        W41220   2.050  21.294   1.617
72827W        W41221  43.894  38.960   0.304
72828W        W41222  23.350   2.805  11.816
72829W        W41223   6.225  36.504  14.863
72830W        W41224  11.662  13.781   3.769
72831W        W41225   1.723  26.594  12.530
72832W        W41226  16.764  17.490   1.781
72833W        W41227   0.110  11.168   1.728
72834W        W41228   8.313  35.023  14.779
72835W        W41229   1.733  12.660  14.394
72836W        W41230  21.437  40.838  12.088
72837W        W41231  30.544   5.870   3.243
72838W        W41232  19.588   3.870   0.355
72839W        W41233  14.696  17.302  11.962
72840W        W41234  30.493  13.900   0.675
72841W        W41235  39.031   0.503   1.405
72842W        W41236   1.050  11.569   3.685
72843W        W41237   2.459   4.172  11.106
72844W        W41238  24.343  32.302   1.105
72845W        W41239  43.009  18.214   4.631
72846W        W41240  11.169  27.960  14.915
72847W        W41241  34.140  10.979  14.356
72848W        W41242  23.456  37.058   1.980
72849W        W41243  29.993  17.695  13.354
72850W        W41244  41.501  43.256  11.122
72851W        W41245   0.235  33.301  13.322
72852W        W41246   4.477  34.193   4.692
72853W        W41247   7.892  10.724  13.382
72854W        W41248   7.207  20.435  13.490
72855W        W41249  43.797   3.870  10.538
72856W        W41250  22.587  35.522   4.296
72857W        W41251   5.444  10.606   0.042
72858W        W41252   9.806  36.640   2.060
72859W        W41253  36.305  20.213   3.811
72860W        W41254  19.280  39.949   1.407
72861W        W41255  33.866  36.368  12.827
72862W        W41256  25.556   4.073   0.454
72863W        W41257  44.966  36.206  14.560
72864W        W41258  44.663  39.817   2.665
72865W        W41259  26.995  10.603   4.088
72866W        W41260  23.995  12.849  12.133
72867W        W41261  25.179  14.252   4.696
72868W        W41262  17.072  12.884  11.577
72869W        W41263  18.321  36.021   4.793
72870W        W41264  41.441  28.238  12.990
72871W        W41265  29.022  12.482   1.901
72872W        W41266  36.575   2.415   1.667
72873W        W41267  28.602  14.216   2.323
72874W        W41268  36.491  10.581  12.839
72875W        W41269  30.943   1.057   1.818
72876W        W41270  40.048   0.749   0.747
72877W        W41271  16.860   2.975  10.283
72878W        W41272  14.497  12.767  14.585
72879W        W41273   9.796  42.082   2.286
72880W        W41274  18.912  14.276   2.955
72881W        W41275   6.912  28.471   4.253
72882W        W41276  28.021   9.740  14.433
72883W        W41277  17.225  13.673  14.130
72884W        W41278  42.513  39.048   3.659
72885W        W41279  31.097  25.307   1.699
72886W        W41280  26.364   7.803   3.339
72887W        W41281  31.754  14.552   1.228
72888W        W41282  31.665  35.224  12.041
72889W        W41283   9.105  22.017  10.536
72890W        W41284   8.881   6.302   2.838
72891W        W41285  13.321  23.453  11.770
72892W        W41286   4.330   0.054   1.677
72893W        W41287  35.595  43.403   3.640
72894W        W41288  33.432  32.463  13.109
72895W        W41289  40.340  21.408   3.588
72896W        W41290  32.601  33.443   4.560
72897W        W41291  24.005  24.349   4.520
72898W        W41292  22.056  42.776   3.362
72899W        W41293  17.135   9.479   3.742
72900W        W41294  19.550  30.641   3.174
72901W        W41295  27.547  23.724  11.086
72902W        W41296  39.024  39.567  13.950
72903W        W41297  20.147  22.169   3.479
72904W        W41298   7.959  37.414   2.827
72905W        W41299  17.947  10.149  13.757
72906W        W41300  22.387   7.692   2.220
72907W        W41301   5.864   7.884  11.178
72908W        W41302   7.635  38.970   0.971
72909W        W41303  39.391  17.483  12.427
72910W        W41304  21.471   5.822   4.742
72911W        W41305  10.315  21.254   0.772
72912W        W41306   0.019  30.227  10.762
72913W        W41307  31.115  31.121  13.984
72914W        W41308  36.620   2.096   1.250
72915W        W41309  40.889  33.680   2.876
72916W        W41310  38.189  28.692   1.287
72917W        W41311   3.132  40.800   4.561
72918W        W41312  34.536  32.467   3.860
72919W        W41313  40.917  17.764  11.031
72920W        W41314  44.304  12.559   2.380
72921W        W41315   0.629  24.123  12.966
72922W        W41316   6.373  14.826  14.551
72923W        W41317  15.108  40.335   0.245
72924W        W41318  28.534   3.019  10.922
72925W        W41319  21.254   3.588   0.791
72926W        W41320   1.605  33.557   4.970
72927W        W41321  12.964  44.967   5.289
72928W        W41322   2.952  10.799   4.764
72929W        W41323  43.472  19.159  14.050
72930W        W41324  19.188  34.668  12.049
72931W        W41325   9.719   4.823   3.592
72932W        W41326  28.290   1.653   9.858
72933W        W41327  24.549  21.636   4.527
72934W        W41328  21.776  33.046   2.266
72935W        W41329  37.337  38.417   1.926
72936W        W41330   4.250   2.582  11.458
72937W        W41331  28.187  19.244  13.607
72938W        W41332  21.643  27.958   3.257
72939W        W41333  41.896  21.700   4.478
72940W        W41334  34.863  39.773   4.227
72941W        W41335  37.353   9.342   3.523
72942W        W41336  31.242   1.502   3.493
72943W        W41337   5.404  12.362   0.405
72944W        W41338  15.137  15.858   1.895
72945W        W41339  18.291  35.479   1.389
72946W        W41340  15.773   3.784   0.886
72947W        W41341  11.664  11.297  13.423
72948W        W41342  24.969   2.909  13.345
72949W        W41343   0.854  34.615  11.002
72950W        W41344   5.305  36.476   1.371
72951W        W41345  12.880  16.063  14.900
72952W        W41346  41.889  33.841  12.846
72953W        W41347  24.462  12.644  11.599
72954W        W41348  35.565  21.082   1.214
72955W        W41349  16.247  17.195  10.176
72956W        W41350  19.220  20.986   1.837
72957W        W41351  38.405  33.955   1.017
72958W        W41352  36.535  37.833   4.530
72959W        W41353  20.118  32.164  11.164
72960W        W41354  43.538  20.605  14.459
72961W        W41355  40.358  28.062   0.192
72962W        W41356  29.470  20.184   4.603
72963W        W41357  34.514  17.567   4.681
72964W        W41358   8.969  44.258  12.798
72965W        W41359  20.742   7.899  14.021
72966W        W41360  39.552   5.492   4.156
72967W        W41361  33.173  11.146   4.885
72968W        W41362  41.234  37.480   0.805
72969W        W41363  37.872  43.396  12.011
72970W        W41364   7.805  21.251   4.670
72971W        W41365  21.888  42.169   1.199
72972W        W41366  10.428  40.746   0.881
72973W        W41367  31.582  39.842   0.289
72974W        W41368  37.148  30.024   0.803
72975W        W41369   2.564  41.971   0.187
72976W        W41370  21.175  12.397   4.172
72977W        W41371   7.806  18.149  13.617
72978W        W41372  28.901  39.295   0.347
72979W        W41373  28.404  29.138   1.575
72980W        W41374  12.749  22.340   2.553
72981W        W41375  26.182  36.006  12.891
72982W        W41376  38.971  43.251   4.240
72983W        W41377  19.573  36.411   3.439
72984W        W41378  14.613  38.725   0.961
72985W        W41379  42.409  21.960   0.328
72986W        W41380  43.836  28.239   2.348
72987W        W41381   8.198   7.521   0.018
72988W        W41382   6.208  17.129   4.133
72989W        W41383  35.287  30.025   3.702
72990W        W41384  12.760   5.315  11.404
72991W        W41385  19.676  22.449   2.828
72992W        W41386  22.233   2.945  12.977
72993W        W41387  44.078  29.942   0.964
72994W        W41388  13.121  26.220  11.159
72995W        W41389   8.266  31.401  10.957
72996W        W41390  34.600  20.859  12.977
72997W        W41391   3.220  14.688  13.466
72998W        W41392  22.220  43.251  14.077
72999W        W41393  18.523  27.412  11.576
73000W        W41394  25.131   7.312  14.231
73001W        W41395  32.493  34.966  14.105
73002W        W41396  31.605  22.701  10.414
73003W        W41397  33.526   8.360   2.628
73004W        W41398   9.344  17.587  11.980
73005W        W41399  42.536  21.204   4.730
73006W        W41400  25.701  17.247  13.792
73007W        W41401   2.928  40.205  11.749
73008W        W41402   1.346  20.179  14.530
73009W        W41403  25.451  26.784  11.111
73010W        W41404  16.028  29.155   2.192
73011W        W41405   9.726  19.653  14.438
73012W        W41406  12.106  24.716   4.207
73013W        W41407  14.679  26.551  13.180
73014W        W41408  38.475  11.372  10.834
73015W        W41409  17.303   0.866  13.600
73016W        W41410  29.082  32.404   2.502
73017W        W41411  14.874  22.080  11.547
73018W        W41412  31.626   0.758  12.673
73019W        W41413  35.503  43.282  10.857
73020W        W41414  26.016  29.424   0.279
73021W        W41415  27.490  38.136   2.338
73022W        W41416  25.269   5.638  12.805
73023W        W41417  25.051  12.485   1.405
73024W        W41418  18.220  23.136  14.387
73025W        W41419   3.665   9.742  13.532
73026W        W41420   3.268   2.808  12.126
73027W        W41421  34.682  40.128  10.199
73028W        W41422   3.451  44.935   2.678
73029W        W41423   6.705   6.474   1.275
73030W        W41424  27.239   3.156  11.170
73031W        W41425   1.975  11.628  10.871
73032W        W41426  19.850  39.671   4.330
73033W        W41427  38.274  30.245   0.094
73034W        W41428  14.861  34.100   0.424
73035W        W41429   7.724  42.783  14.007
73036W        W41430  29.127  24.081   0.224
73037W        W41431   0.858   2.692  12.088
73038W        W41432  18.997  26.422   2.352
73039W        W41433   3.399  33.123   2.726
73040W        W41434   2.805  28.235  14.686
73041W        W41435  40.975  43.276  12.867
73042W        W41436   1.951  16.847   4.592
73043W        W41437  28.373  36.500   4.580
73044W        W41438  32.241  10.586   3.030
73045W        W41439  15.865  38.361   2.781
73046W        W41440   8.985  13.465   4.251
73047W        W41441  19.005  22.568   1.739
73048W        W41442  41.876   6.340   2.650
73049W        W41443  13.736  13.149   4.514
73050W        W41444  22.399   7.442   4.113
73051W        W41445  13.838  30.499  14.992
73052W        W41446   2.443  28.147  13.977
73053W        W41447   2.758  32.557   0.325
73054W        W41448  41.000   6.805  12.317
73055W        W41449  13.029  36.190   0.218
73056W        W41450   7.410   0.268  12.104
73057W        W41451  16.081   5.195   4.527
73058W        W41452  40.721   1.777   1.754
73059W        W41453  20.189  39.391   4.553
73060W        W41454   9.641   1.257  10.525
73061W        W41455  14.218  21.814   3.072
73062W        W41456   8.124   8.007  13.858
73063W        W41457  12.790  21.170   0.732
73064W        W41458  35.701  11.112   2.325
73065W        W41459  30.161  43.420   3.474
73066W        W41460  19.318  40.776   4.889
73067W        W41461  25.466  15.557   3.228
73068W        W41462  33.968  10.097  13.041
73069W        W41463  26.819  42.858   0.822
73070W        W41464   1.913  32.811   0.354
73071W        W41465  32.326  22.919  14.904
73072W        W41466  22.268   1.609   4.070
73073W        W41467   5.442  43.524  12.960
73074W        W41468   8.648  32.316   2.371
73075W        W41469  32.577  33.664  14.778
73076W        W41470  41.357  17.721  12.176
73077W        W41471   2.946   4.534  10.525
73078W        W41472  36.251  16.293   0.377
73079W        W41473  20.252  16.963   4.349
73080W        W41474  36.729   2.603  14.102
73081W        W41475  30.478   9.425   2.799
73082W        W41476  33.664  16.979  11.578
73083W        W41477  27.719  12.253   3.235
73084W        W41478   1.126  30.222  12.378
73085W        W41479   3.461  17.056   3.254
73086W        W41480  41.265   3.142   3.264
73087W        W41481  27.602  43.498   0.300
73088W        W41482  44.942  17.337  13.526
73089W        W41483   1.387  33.240   0.919
73090W        W41484  39.642  23.300  11.133
73091W        W41485   9.259  22.977   3.701
73092W        W41486  31.504  27.588   2.859
73093W        W41487   1.799  14.724   0.020
73094W        W41488  15.670   8.394   5.354
73095W        W41489  16.173  13.495  10.770
73096W        W41490  42.943  35.185   0.763
73097W        W41491  21.743  10.929   3.614
73098W        W41492  14.778   9.695  12.190
73099W        W41493  15.059  19.706  10.428
73100W        W41494  24.436  17.298   0.568
73101W        W41495  38.756  44.063  10.062
73102W        W41496  35.471  43.911   1.123
73103W        W41497  13.725  10.082  14.920
73104W        W41498  39.362  27.429   0.071
73105W        W41499  32.024  20.742   1.221
73106W        W41500   8.658   3.887   3.642
73107W        W41501  15.825  33.270   0.890
73108W        W41502  36.342   9.187   2.753
73109W        W41503  12.434  37.593  14.776
73110W        W41504  27.586  37.756  13.498
73111W        W41505   2.865  42.235  14.884
73112W        W41506  13.109  30.953   3.632
73113W        W41507  13.776   7.432  11.173
73114W        W41508  22.694  42.358  13.324
73115W        W41509   9.140   4.074  11.230
73116W        W41510  22.678  26.998  10.667
73117W        W41511  20.621  37.379  12.584
73118W        W41512   0.852  36.782   4.533
73119W        W41513  28.879  22.465   1.674
73120W        W41514   7.903  17.831  12.049
73121W        W41515  15.588  30.568  13.368
73122W        W41516   8.818   0.771  12.852
73123W        W41517  38.256  25.018   1.861
73124W        W41518  17.612  11.303   1.813
73125W        W41519  25.650  33.371   4.399
73126W        W41520   4.945  33.968  12.094
73127W        W41521  20.279  30.547  10.868
73128W        W41522  27.154   9.393  10.765
73129W        W41523   5.737  24.156   3.294
73130W        W41524   3.335  19.307   2.830
73131W        W41525  22.174  27.323   2.081
73132W        W41526  35.316  33.150   3.353
73133W        W41527  40.922  21.536  14.956
73134W        W41528  31.677  39.465  13.503
73135W        W41529   9.264   5.144   3.652
73136W        W41530   2.007  35.932  14.433
73137W        W41531  38.411  27.437   4.305
73138W        W41532  25.620  16.163  11.740
73139W        W41533  35.685  21.794  13.725
73140W        W41534  34.687  15.737   4.106
73141W        W41535  21.757  22.775   0.494
73142W        W41536   2.708  43.794   3.240
73143W        W41537  24.247  23.226  12.890
73144W        W41538  36.801  41.424  13.296
73145W        W41539   7.926  32.492   0.352
73146W        W41540  38.890  35.588  14.098
73147W        W41541  16.603  14.548   3.529
73148W        W41542  38.954  19.770  12.979
73149W        W41543  41.569  44.028   3.508
73150W        W41544   4.811  21.323   1.849
73151W        W41545  26.397  17.214   1.594
73152W        W41546  40.611  27.176   2.418
73153W        W41547  42.716  33.150   4.608
73154W        W41548  40.924  19.697   2.334
73155W        W41549  14.755  22.550  14.986
73156W        W41550  10.245  20.285  14.285
73157W        W41551  16.391  15.637  14.861
73158W        W41552   7.109  44.772  14.017
73159W        W41553  15.333  42.404  13.443
73160W        W41554  36.368   5.481  14.987
73161W        W41555   3.063  30.151  11.221
73162W        W41556  12.072  20.023   1.840
73163W        W41557  44.542  42.674  12.621
73164W        W41558  20.538   5.288  10.485
73165W        W41559  14.546  29.928   1.805
73166W        W41560  29.145  33.378   2.278
73167W        W41561  27.668  14.738   4.601
73168W        W41562  12.721  32.551   0.964
73169W        W41563  23.000   6.397   0.739
73170W        W41564  15.444  27.109   4.126
73171W        W41565  38.933   5.465   0.339
73172W        W41566   9.263  32.067  12.464
73173W        W41567  20.206   1.569  10.936
73174W        W41568   4.676  14.054   3.727
73175W        W41569  25.429   5.424  13.510
73176W        W41570  18.570  31.642  10.460
73177W        W41571  18.597   5.684   1.678
73178W        W41572  22.143  40.297   3.868
73179W        W41573  15.005  12.321   2.686
73180W        W41574   6.781  40.588   3.137
73181W        W41575  37.982  29.189   3.909
73182W        W41576  36.456   7.727   3.028
73183W        W41577  38.567  41.126  12.931
73184W        W41578   4.148  34.591  12.767
73185W        W41579   6.115  28.662   0.336
73186W        W41580  24.512  44.260   0.926
73187W        W41581  25.838   1.534  13.379
73188W        W41582  17.882  34.413   0.312
73189W        W41583  14.384  30.444   1.006
73190W        W41584  10.317  40.241   3.319
73191W        W41585  44.280  10.816  13.557
73192W        W41586  17.805  37.361   4.582
73193W        W41587  10.155  39.069   4.069
73194W        W41588   2.905   1.309   0.284
73195W        W41589  18.991  40.759   4.471
73196W        W41590  33.899  37.051   2.310
73197W        W41591  14.386  31.379   3.547
73198W        W41592  17.875  21.070   3.184
73199W        W41593  17.175  23.510   1.881
73200W        W41594   7.214  40.319  13.068
73201W        W41595  33.409   3.459   2.409
73202W        W41596  16.298  14.969   0.418
73203W        W41597  37.679  43.998  13.597
73204W        W41598   4.344  23.577  13.403
73205W        W41599  35.491  34.662  14.565
73206W        W41600  12.846   8.604  12.468
73207W        W41601  30.274   6.914  14.402
73208W        W41602  21.513  30.136  10.688
73209W        W41603  44.771  12.162  11.557
73210W        W41604   5.575  18.723  14.623
73211W        W41605  10.655   6.509   1.330
73212W        W41606  39.766  34.246   3.158
73213W        W41607   9.350  28.341   3.226
73214W        W41608  15.681  24.906   3.147
73215W        W41609  38.251  38.445   1.738
73216W        W41610  37.256  13.036   5.011
73217W        W41611  27.677  25.512  12.555
73218W        W41612  15.216  34.698  11.415
73219W        W41613   0.822  31.663  13.334
73220W        W41614  26.605  23.829   0.553
73221W        W41615  37.058   1.245  14.391
73222W        W41616   1.772  33.050   1.230
73223W        W41617  32.285  43.482   1.715
73224W        W41618  24.741   0.015   2.610
73225W        W41619  15.800  33.382  13.444
73226W        W41620  37.914   3.936   1.171
73227W        W41621  26.929  12.220  11.364
73228W        W41622  14.125   3.967   4.685
73229W        W41623  28.604  28.980  10.725
73230W        W41624  12.105  15.322   4.062
73231W        W41625  15.480  12.828   1.340
73232W        W41626  29.876   8.855   2.830
73233W        W41627  29.079  24.712   4.064
73234W        W41628   1.843  27.692   2.842
73235W        W41629  19.747  25.732   3.334
73236W        W41630  17.655  29.900  10.601
73237W        W41631  14.385  38.606   2.804
73238W        W41632  19.351  11.726   2.479
73239W        W41633   4.081  25.458   2.979
73240W        W41634  40.127   0.806  11.850
73241W        W41635  31.493  12.127  11.520
73242W        W41636  44.902  38.373  14.041
73243W        W41637  35.564  32.742  11.990
73244W        W41638  34.128  18.231  12.958
73245W        W41639   5.309  13.567  14.920
73246W        W41640  14.188  20.770   3.152
73247W        W41641  31.671  42.492   1.876
73248W        W41642  44.423   3.797  11.245
73249W        W41643  40.889  36.871  14.854
73250W        W41644  44.420  30.038   4.123
73251W        W41645  39.012  42.492   1.465
73252W        W41646  29.409  43.052  13.362
73253W        W41647  25.572   3.991  14.486
73254W        W41648  42.761  11.361   1.398
73255W        W41649   6.133  29.075   3.246
73256W        W41650  16.587   5.296   1.032
73257W        W41651  37.799  19.522  14.811
73258W        W41652  26.769   8.783  10.227
73259W        W41653   7.049  40.949  13.912
73260W        W41654  30.811  43.441   4.077
73261W        W41655   2.806  23.530   4.032
73262W        W41656  28.347  41.934   4.126
73263W        W41657   7.269  24.502   2.129
73264W        W41658   0.225   0.782  14.539
73265W        W41659  37.851  17.042  11.119
73266W        W41660   1.804  17.093  12.127
73267W        W41661  12.589  22.719  11.271
73268W        W41662  24.150  16.331  11.235
73269W        W41663  20.097  31.994  12.048
73270W        W41664  18.074  12.154   2.905
73271W        W41665  18.899  13.597  10.419
73272W        W41666  41.804  34.268   0.249
73273W        W41667  15.679   8.217  14.394
73274W        W41668  29.556  39.114   5.163
73275W        W41669  34.896   9.003  14.091
73276W        W41670   8.131   7.819  10.763
73277W        W41671  33.777  41.427   2.718
73278W        W41672  20.219  10.921  14.859
73279W        W41673  31.428  17.152   2.613
73280W        W41674   0.435  11.931  13.751
73281W        W41675  11.213  20.741  10.907
73282W        W41676  24.091  41.265   2.698
73283W        W41677  18.143  26.255   4.751
73284W        W41678   4.277   0.435  12.384
73285W        W41679  18.117  35.551   4.360
73286W        W41680  30.089  20.908   3.621
73287W        W41681  18.446  19.895   3.743
73288W        W41682  28.750   2.991  12.309
73289W        W41683  21.078  18.754   4.554
73290W        W41684  43.530   1.401   3.204
73291W        W41685  16.732  32.077   1.602
73292W        W41686  21.568  38.311  13.755
73293W        W41687  42.593  26.107  13.859
73294W        W41688  20.804  22.713  13.486
73295W        W41689  42.441  26.239   3.802
73296W        W41690  19.278  12.582  13.016
73297W        W41691  15.671  43.878   0.900
73298W        W41692  41.371  12.927  12.128
73299W        W41693   5.542  40.238  14.863
73300W        W41694  34.737  11.475  14.846
73301W        W41695   9.871   1.218   1.345
73302W        W41696  29.905  34.942  12.528
73303W        W41697  20.815  32.536  14.940
73304W        W41698   1.932  37.616  10.621
73305W        W41699  20.020   7.197  11.660
73306W        W41700  20.834  41.030   2.666
73307W        W41701  41.768  25.352   4.103
73308W        W41702   8.666  34.355  14.368
73309W        W41703  39.286  29.176  13.028
73310W        W41704   4.477  26.690   0.475
73311W        W41705  25.899  32.893  10.603
73312W        W41706  28.083  30.060  13.301
73313W        W41707  29.580  16.622   2.530
73314W        W41708  19.696  22.110   1.228
73315W        W41709  34.696  17.321   0.633
73316W        W41710  12.794  42.030  14.041
73317W        W41711   2.601  10.435   1.345
73318W        W41712  44.176   6.960  13.447
73319W        W41713  26.084  43.225   0.258
73320W        W41714  16.575  40.287   4.549
73321W        W41715  27.713  38.033   2.804
73322W        W41716  24.201  17.898  12.101
73323W        W41717   9.174  17.245   1.226
73324W        W41718   9.607  15.657  12.056
73325W        W41719  40.201  15.166   1.892
73326W        W41720   5.918  10.387   5.229
73327W        W41721  33.991  30.976  10.960
73328W        W41722  34.894  36.320  11.945
73329W        W41723  16.847   0.505   0.770
73330W        W41724   6.219  33.554   4.544
73331W        W41725  11.725  31.064   0.615
73332W        W41726  20.581  26.050  11.588
73333W        W41727  16.546  40.950  13.506
73334W        W41728   0.126  41.945   1.339
73335W        W41729   9.828  25.618   4.972
73336W        W41730  44.238  22.228   0.866
73337W        W41731  37.595  33.563  11.395
73338W        W41732  28.733  41.933  13.369
73339W        W41733   7.013   4.442   0.756
73340W        W41734  15.914   8.417  12.119
73341W        W41735  26.219  14.104   1.881
73342W        W41736   6.835  12.386  11.977
73343W        W41737  43.580   9.382  11.042
73344W        W41738  22.006  23.526   2.913
73345W        W41739   3.966  10.522  10.255
73346W        W41740   0.483  35.776  11.985
73347W        W41741  16.953  18.065   0.931
73348W        W41742   4.004  41.828   4.579
73349W        W41743  23.105   8.732   1.426
73350W        W41744  31.249  27.118  10.372
73351W        W41745  36.930  41.428  11.049
73352W        W41746  34.833   6.821  12.117
73353W        W41747  33.129  39.982  12.096
73354W        W41748   4.970  12.289  13.489
73355W        W41749   0.824  40.947  12.037
73356W        W41750  11.215  39.809  10.862
73357W        W41751  29.196  23.286   1.100
73358W        W41752  25.673  42.793  13.897
73359W        W41753  11.362  20.202  12.137
73360W        W41754  20.160   7.104   0.277
73361W        W41755  24.981  23.334  12.520
73362W        W41756   4.678   8.178  11.126
73363W        W41757  21.984   3.837  12.445
73364W        W41758  30.025  40.186   2.184
73365W        W41759  14.038  37.133  11.530
73366W        W41760  16.531   3.258   0.857
73367W        W41761  29.715  44.696  12.541
73368W        W41762   7.018   0.079  13.606
73369W        W41763  24.604  28.256   3.877
73370W        W41764  12.198  39.071  12.907
73371W        W41765  32.671  38.023   1.318
73372W        W41766   2.760  33.120  14.832
73373W        W41767   6.885  14.288   0.930
73374W        W41768  13.851  17.080   4.002
73375W        W41769  30.869  40.845   3.511
73376W        W41770  28.464  42.005  12.023
73377W        W41771   5.119  34.967   3.475
73378W        W41772  29.016   1.738   1.860
73379W        W41773  25.088   9.133  13.826
73380W        W41774   2.017   8.329  10.903
73381W        W41775  24.032  28.664   2.345
73382W        W41776  34.331   1.771  10.814
73383W        W41777  36.892  10.863  10.760
73384W        W41778  44.175  38.740  12.939
73385W        W41779  16.526   9.786  13.088
73386W        W41780  19.739  17.726  12.856
73387W        W41781  12.897  17.229   4.154
73388W        W41782  14.584   9.220   0.229
73389W        W41783  20.588  44.140   3.449
73390W        W41784   0.261  38.340   1.257
73391W        W41785  40.384  23.249   3.912
73392W        W41786   3.312  20.252   0.852
73393W        W41787  36.097  22.989   0.919
73394W        W41788  40.791  35.069  12.913
73395W        W41789  12.714  41.825  11.135
73396W        W41790  26.730  11.343  13.409
73397W        W41791   0.368   8.341   0.349
73398W        W41792  14.796  40.322   0.816
73399W        W41793  17.118  11.301   1.992
73400W        W41794   8.772  20.240  12.151
73401W        W41795   8.865  25.491   2.697
73402W        W41796  27.083   6.567  13.142
73403W        W41797  19.782   5.243  13.109
73404W        W41798  24.018   0.909  10.856
73405W        W41799  11.118  17.166   1.360
73406W        W41800  39.383   1.237  11.950
73407W        W41801  26.880  29.042   1.208
73408W        W41802  24.543   2.835   2.799
73409W        W41803  29.344   7.911  11.006
73410W        W41804  34.568   1.476   0.314
73411W        W41805  21.179  44.847  14.551
73412W        W41806  13.118  42.835  14.425
73413W        W41807  11.106  28.420  11.178
73414W        W41808  26.393  20.204  11.249
73415W        W41809  26.395  13.347   0.811
73416W        W41810  29.718  27.113  12.034
73417W        W41811  32.874  35.611   3.207
73418W        W41812   9.444   0.290   4.577
73419W        W41813  41.574  26.569   0.497
73420W        W41814  16.024   0.804   2.777
73421W        W41815  17.238  23.285   1.413
73422W        W41816  37.474  35.038   1.293
73423W        W41817  11.226  18.246   4.082
73424W        W41818  23.547  13.033   2.755
73425W        W41819  14.885  19.631  12.467
73426W        W41820  44.879   4.284   2.764
73427W        W41821  38.063  44.891  14.692
73428W        W41822  24.073  32.317  11.725
73429W        W41823   9.333  31.454   2.440
73430W        W41824  20.504  34.074   3.713
73431W        W41825  41.388  17.018  11.214
73432W        W41826  22.042  11.651  12.908
73433W        W41827  11.641  25.595   1.860
73434W        W41828  41.873  43.579  12.514
73435W        W41829  32.288  20.743   2.445
73436W        W41830   9.139  10.659   2.125
73437W        W41831   2.017  35.079   1.214
73438W        W41832  32.563  14.198   0.177
73439W        W41833  35.541   5.306   2.435
73440W        W41834  38.702  28.092  10.421
73441W        W41835  21.275   6.663  10.585
73442W        W41836   8.675   6.891  12.632
73443W        W41837  19.206  36.395   1.209
73444W        W41838  18.211  41.248  12.563
73445W        W41839  39.954  37.335   3.728
73446W        W41840  24.462  26.803  12.574
73447W        W41841  18.253  14.288   2.298
73448W        W41842  11.119  21.785  12.505
73449W        W41843  43.006  15.685  11.684
73450W        W41844  42.897  23.479  12.946
73451W        W41845  14.623  19.928  10.238
73452W        W41846  30.572  21.162  12.929
73453W        W41847  13.709  23.855  12.980
73454W        W41848  14.852  26.544  14.035
73455W        W41849   7.808  41.567  11.768
73456W        W41850  43.823  16.686  11.967
73457W        W41851  40.992  37.796   3.411
73458W        W41852  30.475  10.232   0.131
73459W        W41853  18.420  38.815  14.073
73460W        W41854  20.308  44.731  12.522
73461W        W41855  44.852   5.091  14.845
73462W        W41856  10.217   5.942  13.794
73463W        W41857  29.176  27.735   4.975
73464W        W41858   2.108  17.605  13.820
73465W        W41859  20.026  28.311   0.935
73466W        W41860  28.399   3.328   0.981
73467W        W41861  24.978   1.920  12.464
73468W        W41862  35.049  34.898   0.420
73469W        W41863  19.544  33.483   5.186
73470W        W41864  37.830  15.926  14.311
73471W        W41865  32.538  26.600   0.488
73472W        W41866   2.209   6.619  14.327
73473W        W41867  44.396  17.683   2.472
73474W        W41868  36.427  19.067   2.353
73475W        W41869  16.668  43.971   2.415
73476W        W41870   4.685  34.442  12.081
73477W        W41871  35.788  19.049   3.981
73478W        W41872  44.794  18.628   2.150
73479W        W41873  29.621  24.250   4.695
73480W        W41874  37.822  19.996   2.066
73481W        W41875  34.404  11.346   1.730
73482W        W41876  30.586  19.122  14.079
73483W        W41877  30.435   8.458   4.195
73484W        W41878  34.677   8.703  14.848
73485W        W41879  13.522  42.714   5.102
73486W        W41880  25.983   3.227   4.069
73487W        W41881   5.943   9.217   4.629
73488W        W41882  25.540  21.688  11.203
73489W        W41883  36.916  20.294  13.337
73490W        W41884  17.370  43.798  11.726
73491W        W41885  28.620  33.322   2.684
73492W        W41886  22.037  15.260  13.057
73493W        W41887  34.929  23.354   3.663
73494W        W41888  11.275  10.741   4.655
73495W        W41889  10.118  16.269   4.019
73496W        W41890  14.797  32.336   3.615
73497W        W41891  28.576   4.458   2.881
73498W        W41892  32.147   8.243   1.754
73499W        W41893   5.239   9.181   4.027
73500W        W41894  33.929  11.243  14.880
73501W        W41895  24.202  26.568  11.632
73502W        W41896  25.752  42.727  10.795
73503W        W41897  43.666   4.891   2.740
73504W        W41898  37.381  20.289  11.154
73505W        W41899   6.899  21.131  12.444
73506W        W41900  10.277  15.647  13.577
73507W        W41901  25.721   2.341   3.239
73508W        W41902   0.788   4.418   2.730
73509W        W41903  23.322  20.486   1.014
73510W        W41904   1.248  27.678   3.756
73511W        W41905  33.219  23.295  14.435
73512W        W41906   2.581  41.511  14.978
73513W        W41907  22.516  34.172  14.712
73514W        W41908  21.561  33.865   4.608
73515W        W41909  17.113  34.058  12.939
73516W        W41910  28.887  26.850   4.494
73517W        W41911  35.908  19.992   4.596
73518W        W41912  10.569   0.852   0.985
73519W        W41913  23.809  40.062   2.244
73520W        W41914  17.087  28.914  12.384
73521W        W41915  29.053   4.627  13.977
73522W        W41916   3.442   0.534   1.842
73523W        W41917   9.749   5.369   4.426
73524W        W41918  20.485  44.017  11.918
73525W        W41919  39.207  41.595   1.872
73526W        W41920  11.291  19.749   1.672
73527W        W41921  19.320  10.929  11.140
73528W        W41922  43.959  21.792  13.975
73529W        W41923   7.736  42.079   0.348
73530W        W41924  11.604  28.524  10.403
73531W        W41925  35.471   5.805  10.743
73532W        W41926  26.190  42.796  12.790
73533W        W41927  44.286  21.604  12.072
73534W        W41928  11.872  24.064   2.719
73535W        W41929  17.544  18.103   2.907
73536W        W41930  41.275  28.428   1.172
73537W        W41931  10.321   6.461  14.997
73538W        W41932  40.393  44.912  11.066
73539W        W41933  39.487  31.808  14.046
73540W        W41934  25.036  30.545   3.600
73541W        W41935  42.790  21.521  13.035
73542W        W41936   2.886   8.464  12.412
73543W        W41937  39.993  43.909   1.458
73544W        W41938  14.197   4.364   5.052
73545W        W41939   7.217   3.474  14.499
73546W        W41940  25.008  38.987   2.660
73547W        W41941  21.427  32.888   0.967
73548W        W41942  43.277  27.736   0.774
73549W        W41943  32.999  43.373  13.768
73550W        W41944  34.709  10.680  12.150
73551W        W41945   6.826  18.508  13.785
73552W        W41946   8.475  16.016   3.818
73553W        W41947  31.951   9.602  10.981
73554W        W41948   1.618   7.885  12.525
73555W        W41949  39.914  31.628  14.834
73556W        W41950  38.844  15.906   1.061
73557W        W41951  31.062  34.003   3.249
73558W        W41952  15.484  20.523   2.393
73559W        W41953  11.675  36.348  12.045
73560W        W41954   6.413  29.683   4.135
73561W        W41955   7.724  35.282  14.386
73562W        W41956  44.900  20.609   2.849
73563W        W41957  19.307  37.922  13.841
73564W        W41958  17.036  39.952   0.003
73565W        W41959  26.455  24.224   5.001
73566W        W41960  29.520  15.343  14.243
73567W        W41961  13.409  15.403   4.921
73568W        W41962   4.351  13.908  13.043
73569W        W41963  14.209  15.804   0.927
73570W        W41964  31.009  14.133   4.587
73571W        W41965  13.607  27.237   0.834
73572W        W41966  16.091  38.475  13.306
73573W        W41967  13.469  20.184   4.856
73574W        W41968   0.726  40.600   2.415
73575W        W41969  28.486  28.168   1.944
73576W        W41970  17.326  44.119  13.885
73577W        W41971  10.078  43.982   1.699
73578W        W41972  32.737   3.378  14.854
73579W        W41973  19.154  41.213  11.666
73580W        W41974   5.361  43.841   4.676
73581W        W41975  32.889  44.958  12.473
73582W        W41976  32.397  39.530  14.768
73583W        W41977  38.784  33.843  11.219
73584W        W41978  38.976  30.644   3.862
73585W        W41979  16.641  44.305   2.823
73586W        W41980  40.114  26.538   4.561
73587W        W41981   2.755  28.749  12.903
73588W        W41982  28.042  30.391   3.036
73589W        W41983  27.064  43.926  12.404
73590W        W41984  38.606  27.675  10.105
73591W        W41985  25.687  32.013  13.077
73592W        W41986  39.034  13.837  14.391
73593W        W41987  42.324   1.335   4.366
73594W        W41988  31.215   2.480   1.323
73595W        W41989  38.404  26.468  14.034
73596W        W41990  25.992  27.159  12.446
73597W        W41991  16.139  37.883  12.075
73598W        W41992   9.403  18.114   1.856
73599W        W41993   8.008  14.828   0.451
73600W        W41994  21.430  15.806   4.311
73601W        W41995   4.216  34.579  12.275
73602W        W41996  42.312   9.716  14.291
73603W        W41997  18.218  37.306  12.082
73604W        W41998   6.336   3.378  12.683
73605W        W41999   4.259  41.283   4.636
73606W        W42000  31.161  24.063   4.574
73607W        W42001  15.112   2.131  11.733
73608W        W42002  13.227  36.871   1.352
73609W        W42003  34.177  39.967  10.357
73610W        W42004  13.727   1.359  12.041
73611W        W42005  11.160   7.706  11.567
73612W        W42006  32.956  29.865  14.396
73613W        W42007  15.438  22.613   4.062
73614W        W42008   6.359  12.100  12.461
73615W        W42009  42.582  14.359   0.388
73616W        W42010  29.462  33.000  11.542
73617W        W42011  34.131  11.351   4.813
73618W        W42012  25.205  38.526   1.707
73619W        W42013   1.837  10.749  12.381
73620W        W42014   8.957  11.439  13.042
73621W        W42015   4.300  42.298   0.290
73622W        W42016  37.567  22.826  14.908
73623W        W42017  42.277  29.605  12.864
73624W        W42018   2.778  31.175  14.076
73625W        W42019  35.569  16.308  10.713
73626W        W42020  27.257  34.661   4.610
73627W        W42021   4.601  16.708  13.541
73628W        W42022  21.734  34.363  12.535
73629W        W42023   1.854   7.339   0.885
73630W        W42024  14.656  12.673   3.599
73631W        W42025  31.574   6.414  12.473
73632W        W42026  30.649  23.560   3.538
73633W        W42027  33.367  31.021   2.802
73634W        W42028  41.929  22.576   3.388
73635W        W42029  35.057   5.713   4.540
73636W        W42030  37.630  19.606   0.645
73637W        W42031  14.487   5.448   0.781
73638W        W42032  17.342  39.586  10.857
73639W        W42033   1.313  30.662  11.455
73640W        W42034   6.909   1.201  11.190
73641W        W42035   9.183  38.453   3.509
73642W        W42036   8.949  41.812   5.189
73643W        W42037  35.795  32.192   3.320
73644W        W42038  33.211  18.624   3.202
73645W        W42039  15.124  11.067  12.062
73646W        W42040  21.531  22.224  13.772
73647W        W42041  26.063   4.924  13.159
73648W        W42042  15.590  16.664  11.981
73649W        W42043  37.888  25.518  12.863
73650W        W42044  14.472  44.380  13.146
73651W        W42045  16.447   5.523  10.649
73652W        W42046  35.647  31.390  10.607
73653W        W42047   7.140  33.587  11.121
73654W        W42048  33.394  29.292   5.037
73655W        W42049  28.214  27.646   2.849
73656W        W42050   3.796  23.016  14.160
73657W        W42051  15.178  11.191   3.197
73658W        W42052  13.546  27.220  14.955
73659W        W42053   1.121   6.887   2.864
73660W        W42054  42.773   8.931   1.920
73661W        W42055  39.350  31.156  13.443
73662W        W42056  31.911  41.851  11.601
73663W        W42057  17.284  24.452   5.010
73664W        W42058  39.278  27.199   2.274
73665W        W42059  34.687  23.092   3.250
73666W        W42060  33.214  17.155   0.728
73667W        W42061  38.536  14.180   4.508
73668W        W42062   0.896  18.037  14.425
73669W        W42063  37.927  17.157  13.935
73670W        W42064  19.037   2.509  11.644
73671W        W42065  27.642  16.735  12.035
73672W        W42066  20.744  28.741  14.817
73673W        W42067  42.216  26.463  13.862
73674W        W42068  22.404  34.774  13.392
73675W        W42069  28.591  11.336   0.933
73676W        W42070   5.802   9.673   0.527
73677W        W42071   8.693   0.945  11.115
73678W        W42072  15.586  21.525  11.576
73679W        W42073  20.180  16.058  12.898
73680W        W42074  34.585  25.540   1.243
73681W        W42075  35.539   8.824  12.824
73682W        W42076  10.840  12.281  10.602
73683W        W42077   4.387   4.554   3.108
73684W        W42078   3.513  34.473   0.440
73685W        W42079  43.354   5.138   0.273
73686W        W42080  18.985   8.059   2.829
73687W        W42081  10.242   0.056   2.221
73688W        W42082  29.378  36.585  11.165
73689W        W42083  16.895  21.724  14.519
73690W        W42084  27.976   1.178  14.479
73691W        W42085  10.071  15.863  12.838
73692W        W42086   2.175   5.240   1.366
73693W        W42087  37.454  28.709   2.844
73694W        W42088  44.874  23.871   1.025
73695W        W42089   4.157  42.958  13.930
73696W        W42090   7.357  17.868  13.643
73697W        W42091  14.230   9.613   0.289
73698W        W42092  12.262   7.780  12.210
73699W        W42093  20.775  18.025  12.935
73700W        W42094  11.834  39.566   4.514
73701W        W42095  35.555   1.874  11.508
73702W        W42096  31.518   6.375  13.376
73703W        W42097  39.034  27.453   0.477
73704W        W42098   7.742  17.675   3.174
73705W        W42099  25.777  22.075  10.981
73706W        W42100  34.160  26.452  12.006
73707W        W42101  18.062  26.937  13.119
73708W        W42102  10.112  37.547  12.925
73709W        W42103  20.322  13.611   0.036
73710W        W42104  16.681  32.632  12.470
73711W        W42105  21.083  16.468  12.438
73712W        W42106   8.278  13.310   2.338
73713W        W42107  29.700   9.842   0.372
73714W        W42108  35.650  27.129  14.001
73715W        W42109   9.322  23.339   0.450
73716W        W42110  25.035   0.232  13.384
73717W        W42111  40.417  11.345  14.059
73718W        W42112   0.747  22.990  13.045
73719W        W42113  41.501   2.770   1.462
73720W        W42114  44.076  23.768   1.575
73721W        W42115   6.472  43.528   0.010
73722W        W42116  10.374  15.735   1.696
73723W        W42117  43.403  23.508  11.553
73724W        W42118  41.449   9.927   3.913
73725W        W42119   9.647  14.057  12.445
73726W        W42120  15.040  43.295   1.730
73727W        W42121  16.299  18.316  14.530
73728W        W42122  40.706  23.173   2.747
73729W        W42123   2.866  13.737   0.388
73730W        W42124  13.157  29.005  12.799
73731W        W42125  10.164  31.885  10.454
73732W        W42126  16.524  15.098   4.954
73733W        W42127  13.631   1.825  11.126
73734W        W42128  15.153  41.476   4.018
73735W        W42129  34.489  32.007   4.146
73736W        W42130  10.707  29.621  13.050
73737W        W42131   8.890  17.582  11.172
73738W        W42132   9.452   5.275   0.819
73739W        W42133  11.636  32.910  10.643
73740W        W42134  33.368  21.723  10.494
73741W        W42135  15.215  39.593   3.170
73742W        W42136  26.705  29.146   4.282
73743W        W42137  44.390  15.207  14.927
73744W        W42138  31.265  34.489   4.218
73745W        W42139  26.683  25.573   2.236
73746W        W42140   1.114   1.434   1.775
73747W        W42141  14.676  36.939  13.764
73748W        W42142  13.013  33.927   3.581
73749W        W42143   2.261  36.549  13.874
73750W        W42144  34.300  28.501  11.170
73751W        W42145   4.864  36.986   0.890
73752W        W42146   5.274  14.376   2.262
73753W        W42147   0.501   1.321   3.341
73754W        W42148  40.918  32.257   2.956
73755W        W42149  13.553  22.117  13.604
73756W        W42150  24.974  12.612   3.239
73757W        W42151   6.228  43.889   2.357
73758W        W42152   8.821   2.850  10.662
73759W        W42153  32.987  32.911  11.501
73760W        W42154  22.665   7.736   3.757
73761W        W42155  27.382  14.752  10.538
73762W        W42156  10.420  25.889   1.402
73763W        W42157  25.169  25.608   4.559
73764W        W42158   5.410   4.726   2.679
73765W        W42159   2.476  26.106  11.128
73766W        W42160  22.761  30.039  14.031
73767W        W42161  21.041   8.833  10.505
73768W        W42162  15.248  22.743   4.529
73769W        W42163  44.399  18.094   3.743
73770W        W42164  16.177  37.539  13.553
73771W        W42165  22.217  19.739  12.907
73772W        W42166   0.921  27.444  11.065
73773W        W42167   1.371   6.372   0.822
73774W        W42168   1.248  13.245   1.353
73775W        W42169   2.042   4.112  12.457
73776W        W42170  25.705  10.652   2.460
73777W        W42171  35.739  27.092   2.927
73778W        W42172  27.942  23.336   4.484
73779W        W42173  18.737  37.607   4.536
73780W        W42174   5.433   8.964   1.761
73781W        W42175  22.017   3.796   3.110
73782W        W42176  38.711  16.120  10.890
73783W        W42177   6.120  10.346  14.918
73784W        W42178   0.379  28.705  11.187
73785W        W42179  34.817  19.286  11.153
73786W        W42180   9.834  10.775   0.658
73787W        W42181   4.393  41.994   0.705
73788W        W42182  33.222   2.859   0.727
73789W        W42183  32.842  18.025  13.841
73790W        W42184   6.158  31.327  13.336
73791W        W42185  17.133  34.359   4.076
73792W        W42186  26.138  16.363  13.912
73793W        W42187  11.989  32.661   4.631
73794W        W42188   8.165  36.724  11.891
73795W        W42189  34.079  31.148   4.528
73796W        W42190  26.537  23.200  10.599
73797W        W42191   9.699  10.691  14.647
73798W        W42192  16.135  33.163   9.904
73799W        W42193   4.395  20.557   3.685
73800W        W42194  31.583  33.992   1.988
73801W        W42195  37.506  29.038  13.067
73802W        W42196  31.309  19.014  13.593
73803W        W42197  28.765  37.834   3.141
73804W        W42198   6.025  11.821   2.566
73805W        W42199   3.815  39.402  12.851
73806W        W42200  24.764   4.315   3.763
73807W        W42201  38.525  18.769   3.883
73808W        W42202  25.320   4.764  10.173
73809W        W42203  37.360   0.871  14.573
73810W        W42204  13.130  36.085   4.207
73811W        W42205  18.389   1.249   1.857
73812W        W42206  17.724  42.085   4.582
73813W        W42207  14.454  42.022  10.758
73814W        W42208  13.175   5.458   0.837
73815W        W42209  26.073   2.352   5.083
73816W        W42210  17.120  40.820   0.371
73817W        W42211  12.207  25.302  12.439
73818W        W42212  17.237  29.371  11.521
73819W        W42213  11.866  25.019  12.965
73820W        W42214  35.312  12.372   4.526
73821W        W42215   4.787  38.916   5.076
73822W        W42216  29.233   4.832   4.155
73823W        W42217  26.110  38.921  12.246
73824W        W42218  19.088   4.925  11.977
73825W        W42219  15.081  42.839   1.384
73826W        W42220  23.217  33.588   2.787
73827W        W42221  41.438  35.446  14.360
73828W        W42222   7.927  40.933  12.482
73829W        W42223   8.516  13.678   0.640
73830W        W42224  37.968  44.826  11.534
73831W        W42225  34.325  30.716  14.493
73832W        W42226  18.368  13.630  12.489
73833W        W42227   7.428  28.383  10.524
73834W        W42228  43.371  24.216  13.061
73835W        W42229  35.451   5.413  12.471
73836W        W42230   7.439  23.365  10.944
73837W        W42231  23.627   0.230   2.607
73838W        W42232  27.400  15.456  13.235
73839W        W42233  25.037  39.537   2.692
73840W        W42234   5.321  12.390   2.377
73841W        W42235   2.361  13.393  14.682
73842W        W42236   9.607  40.767  12.985
73843W        W42237  30.638  29.469   2.307
73844W        W42238  31.355   5.887  13.464
73845W        W42239  13.851   9.393   5.523
73846W        W42240  15.689  30.726   1.805
73847W        W42241  36.498   9.815   1.705
73848W        W42242   1.871  35.513  13.080
73849W        W42243  20.687  40.641  13.162
73850W        W42244  30.493  27.347   0.745
73851W        W42245   1.429  42.884  14.057
73852W        W42246  21.270  22.457   2.276
73853W        W42247  39.528  12.395   2.840
73854W        W42248   9.190  41.429   1.798
73855W        W42249  32.573  43.673  10.649
73856W        W42250  30.611  29.595  13.215
73857W        W42251  19.181  36.358  11.581
73858W        W42252  27.253  39.903   0.021
73859W        W42253  21.587   9.157   2.629
73860W        W42254  39.960  26.287  14.005
73861W        W42255  17.619  31.019  13.568
73862W        W42256   0.239  41.443   2.446
73863W        W42257  29.521   5.639  11.023
73864W        W42258   5.388  19.484   0.774
73865W        W42259  32.286   0.064  13.034
73866W        W42260  40.641  17.601   2.732
73867W        W42261   9.251   9.832   4.657
73868W        W42262  39.910  40.939   0.690
73869W        W42263  25.322  38.900   4.130
73870W        W42264  17.831  11.211  11.477
73871W        W42265  19.614  43.878   4.557
73872W        W42266  24.416  10.177   0.506
73873W        W42267  27.341  22.150  14.361
73874W        W42268  23.210  44.811  14.314
73875W        W42269  18.598  19.766  10.433
73876W        W42270   0.359  27.019   2.253
73877W        W42271  30.270  28.691   4.481
73878W        W42272  37.563  31.873   0.973
73879W        W42273  10.843  21.475  11.586
73880W        W42274  41.832  20.625   4.393
73881W        W42275  22.854  43.441  12.411
73882W        W42276  33.554  44.011   1.923
73883W        W42277  24.571  43.433   1.263
73884W        W42278  29.939  33.481  10.409
73885W        W42279  30.119   0.368  14.831
73886W        W42280   7.911   2.286  10.719
73887W        W42281  20.226  29.854   2.148
73888W        W42282   0.908  25.814   2.404
73889W        W42283   6.443  42.647   9.726
73890W        W42284   3.713   1.035   2.258
73891W        W42285   7.188  15.718  13.597
73892W        W42286  28.233  42.390   2.219
73893W        W42287  36.438  38.521   2.214
73894W        W42288  38.864  41.077  12.082
73895W        W42289  36.837  27.580  11.641
73896W        W42290  28.789  27.178  13.132
73897W        W42291  34.524  28.355  13.455
73898W        W42292  10.240  36.540  13.871
73899W        W42293  28.547  27.692   1.738
73900W        W42294  31.934  35.100  10.867
73901W        W42295   1.572  10.359   1.366
73902W        W42296  18.658  12.488   1.090
73903W        W42297  29.797  20.303   0.923
73904W        W42298  42.964   7.647   3.659
73905W        W42299  30.970   9.407  11.605
73906W        W42300  36.000  40.952  13.257
73907W        W42301  11.177  43.709  10.661
73908W        W42302  14.611  14.775   0.021
73909W        W42303  11.821  24.037  13.999
73910W        W42304  12.733   9.651   3.924
73911W        W42305  32.664  14.221   3.060
73912W        W42306  42.067  38.756   0.529
73913W        W42307   2.338  22.239   3.228
73914W        W42308  22.094  40.773   2.240
73915W        W42309  16.543   2.298  11.468
73916W        W42310  33.206  42.532   2.644
73917W        W42311  18.227  40.131  13.592
73918W        W42312  37.568  32.126   0.003
73919W        W42313  34.032  40.577  13.516
73920W        W42314  25.550  17.656  10.677
73921W        W42315  28.863  33.396   3.194
73922W        W42316   8.337  28.418   3.076
73923W        W42317  31.646  15.309  13.615
73924W        W42318   8.768  29.325  10.619
73925W        W42319  21.148   9.871   2.223
73926W        W42320   2.204  18.053   3.283
73927W        W42321  19.927  12.827   2.846
73928W        W42322  31.692   4.007   0.250
73929W        W42323  28.068  16.161  10.883
73930W        W42324   3.664   4.440   2.746
73931W        W42325  17.882  16.936  13.853
73932W        W42326  11.168  17.585   1.034
73933W        W42327  44.846  24.608  12.383
73934W        W42328  27.923  37.314  12.964
73935W        W42329  23.720  32.687   2.689
73936W        W42330  38.365  35.805  14.011
73937W        W42331  19.960  40.191  11.601
73938W        W42332  17.645   6.411  11.031
73939W        W42333  13.107   4.816  12.501
73940W        W42334  19.957  19.949  14.484
73941W        W42335  44.548   9.181  12.508
73942W        W42336  41.795  24.059   2.977
73943W        W42337  25.103  17.642   2.789
73944W        W42338  37.778  30.090   0.087
73945W        W42339  26.178  37.769   0.910
73946W        W42340  34.879  39.086  13.477
73947W        W42341  22.214   6.000  13.398
73948W        W42342  16.101  34.551   1.483
73949W        W42343  24.159   3.862   1.345
73950W        W42344  16.822  44.206   1.776
73951W        W42345  12.694  18.792   1.546
73952W        W42346   1.557  43.559  13.553
73953W        W42347  24.049  36.262  12.076
73954W        W42348  44.512  16.685   2.869
73955W        W42349  14.676   7.179  13.070
73956W        W42350  21.119  27.183  12.057
73957W        W42351  10.280  35.271  13.443
73958W        W42352  38.020  14.884   3.221
73959W        W42353  36.809  18.715   2.312
73960W        W42354   4.486  18.794   4.157
73961W        W42355  37.883  27.106  11.188
73962W        W42356  15.456  44.592   0.525
73963W        W42357  43.611   3.414  10.100
73964W        W42358   5.633   3.829  12.452
73965W        W42359  42.803   8.181   3.201
73966W        W42360  15.736   5.380  13.806
73967W        W42361  16.044  19.924  12.001
73968W        W42362   4.188  40.516  10.582
73969W        W42363  36.307  36.372  14.412
73970W        W42364  27.154  17.175   0.012
73971W        W42365  20.488   6.775  12.136
73972W        W42366  34.272  37.056  12.162
73973W        W42367  26.917  15.206   1.335
73974W        W42368  14.766  38.770   3.808
73975W        W42369  22.542  44.040   1.336
73976W        W42370  10.432  13.749   1.493
73977W        W42371  20.251  20.169   3.404
73978W        W42372   2.157   2.936   0.321
73979W        W42373  16.563  26.102  12.606
73980W        W42374  22.293  39.555   0.821
73981W        W42375  21.759   5.705   0.663
73982W        W42376  38.750  10.810  13.736
73983W        W42377  28.622  10.004   1.009
73984W        W42378  16.997  23.185   0.645
73985W        W42379  13.288  42.934  10.809
73986W        W42380  14.106  27.094  13.009
73987W        W42381  30.945  36.911   4.587
73988W        W42382  41.505  19.888  12.171
73989W        W42383  30.037   7.334   2.611
73990W        W42384  19.815  32.141   0.285
73991W        W42385   6.726   1.584   4.573
73992W        W42386   2.547  14.621  13.065
73993W        W42387   5.876   1.843   5.423
73994W        W42388   7.105   2.436   1.410
73995W        W42389   7.006  14.123   5.577
73996W        W42390  10.279  12.780  10.555
73997W        W42391  33.434   1.803   2.708
73998W        W42392   5.016  15.823  13.949
73999W        W42393  37.745  11.821  11.159
74000W        W42394  24.640   5.699   4.133
74001W        W42395  33.600   5.890   1.288
74002W        W42396   6.272   2.313  12.096
74003W        W42397  36.198  44.824  13.230
74004W        W42398  27.628  28.682  11.514
74005W        W42399  11.089  15.214  11.172
74006W        W42400  24.197  26.715  14.799
74007W        W42401   7.854   4.513  14.912
74008W        W42402  17.321   5.209  13.823
74009W        W42403  35.315  29.215  11.126
74010W        W42404  40.379  32.215   0.401
74011W        W42405  14.033  37.123  10.044
74012W        W42406  26.347  31.490   4.554
74013W        W42407  11.982  13.362  10.823
74014W        W42408  25.445  32.315   3.938
74015W        W42409  27.775   8.341  11.985
74016W        W42410   6.269   7.960   3.121
74017W        W42411  41.599  38.232  12.194
74018W        W42412  32.358  41.002  11.172
74019W        W42413  28.483  25.435   1.068
74020W        W42414  14.786  15.721  14.964
74021W        W42415  27.014  13.712  13.032
74022W        W42416  17.271   9.301  12.959
74023W        W42417  23.600  43.619  14.509
74024W        W42418  27.290  39.785   3.303
74025W        W42419  42.439  18.188  14.793
74026W        W42420  39.375   5.476  12.948
74027W        W42421  43.776  19.083  14.999
74028W        W42422   0.387   4.801   1.631
74029W        W42423  12.081  40.844  10.403
74030W        W42424  20.189  20.097   5.589
74031W        W42425  23.961  17.229   2.362
74032W        W42426  15.276   7.180  11.667
74033W        W42427   0.371   3.898   4.650
74034W        W42428  28.580  44.085  12.384
74035W        W42429  13.818  11.258   3.292
74036W        W42430  17.724  31.428  12.108
74037W        W42431  32.459   7.300  13.336
74038W        W42432   5.427  10.911   1.381
74039W        W42433  26.116  17.824  12.145
74040W        W42434  27.680  27.067  13.164
74041W        W42435  11.988   5.275  10.232
74042W        W42436  28.409  16.040  13.919
74043W        W42437   0.007  26.578   3.193
74044W        W42438  38.057   5.795  13.739
74045W        W42439  12.596  36.811  12.945
74046W        W42440   1.854   9.306  13.311
74047W        W42441   9.120   5.105  14.873
74048W        W42442  12.720  40.807   4.187
74049W        W42443  28.039   3.499   0.298
74050W        W42444  11.075  31.719   0.903
74051W        W42445   1.347  18.307  12.499
74052W        W42446   2.473  42.854   3.852
74053W        W42447  35.890  24.624  14.304
74054W        W42448  28.918  44.308   2.782
74055W        W42449  36.032  15.390  14.319
74056W        W42450  29.957  24.226   4.300
74057W        W42451  36.855  29.985  13.830
74058W        W42452  37.891  37.683  12.924
74059W        W42453  34.656  16.349  12.549
74060W        W42454  21.925  32.790  10.860
74061W        W42455  14.547   6.497  12.251
74062W        W42456  32.610  26.846   2.919
74063W        W42457  34.468   7.703  13.863
74064W        W42458  34.705   9.787   4.092
74065W        W42459   0.797  28.971   2.953
74066W        W42460  29.967   7.137  13.077
74067W        W42461  34.219  25.428   0.884
74068W        W42462   3.263   0.753   2.287
74069W        W42463  14.716  41.408   4.465
74070W        W42464  16.280  36.306  14.538
74071W        W42465  15.084  17.702  10.746
74072W        W42466  38.913  26.913   1.347
74073W        W42467  26.824  37.408  14.146
74074W        W42468  33.445  33.030   1.687
74075W        W42469  27.923   0.907   2.127
74076W        W42470   2.479  13.808  14.422
74077W        W42471   9.894  36.488  14.861
74078W        W42472   8.343  37.838   4.505
74079W        W42473   6.084  44.907   1.805
74080W        W42474   3.021  29.683   3.701
74081W        W42475  22.402  34.913  12.132
74082W        W42476   6.281  39.416  10.682
74083W        W42477  42.934  16.372   2.928
74084W        W42478  25.601  33.036   0.748
74085W        W42479  40.476  11.363   4.920
74086W        W42480  10.746  32.859  11.146
74087W        W42481   8.607  19.204  13.858
74088W        W42482  16.170  25.961   2.864
74089W        W42483  36.600  44.096   4.132
74090W        W42484  41.104  13.637   4.360
74091W        W42485  30.824  13.665  14.513
74092W        W42486  24.126  27.757  13.811
74093W        W42487  17.128  14.098  13.845
74094W        W42488  27.954  22.620  14.743
74095W        W42489   7.230  38.054  10.692
74096W        W42490  40.256  44.632  10.089
74097W        W42491  39.468  28.717  10.598
74098W        W42492  15.532  22.075  14.549
74099W        W42493  43.567   5.962   1.420
74100W        W42494   8.829  18.634   5.063
74101W        W42495   0.874  30.464  11.656
74102W        W42496  33.978  25.002  10.557
74103W        W42497  24.105   7.120  12.914
74104W        W42498   1.684   7.714  13.648
74105W        W42499   8.086   7.260   2.806
74106W        W42500   5.332   9.859   0.423
74107W        W42501  36.002   0.525   4.090
74108W        W42502  27.575  12.744  13.695
74109W        W42503  17.695  16.089  14.854
74110W        W42504  33.054  11.319   3.881
74111W        W42505  25.864  35.175  11.011
74112W        W42506  24.032  12.371  13.018
74113W        W42507  20.184   1.419   3.606
74114W        W42508  37.831  10.145   3.588
74115W        W42509  24.950  26.537  14.980
74116W        W42510  32.295  12.185  13.051
74117W        W42511  42.046   2.594  10.914
74118W        W42512  44.839  38.536  10.742
74119W        W42513  39.474  10.160   4.271
74120W        W42514  28.411  33.423   0.422
74121W        W42515  33.384  23.774   2.694
74122W        W42516  42.870  34.926  11.074
74123W        W42517   0.311   8.595  12.221
74124W        W42518  12.733   0.963  14.799
74125W        W42519  30.008  33.819   3.628
74126W        W42520  11.409  38.538   4.179
74127W        W42521  37.848  18.736  12.599
74128W        W42522  14.180  43.360  13.919
74129W        W42523  42.026  28.573   0.043
74130W        W42524  39.842  11.474   2.692
74131W        W42525  39.450   3.694   2.428
74132W        W42526  36.533  25.257  14.360
74133W        W42527   0.003   7.274  13.072
74134W        W42528  42.252  18.183   0.780
74135W        W42529   8.431  29.883  11.307
74136W        W42530  20.752   1.356  14.036
74137W        W42531  15.244  15.113  12.866
74138W        W42532   9.402  35.837   3.227
74139W        W42533   2.750   5.012  10.572
74140W        W42534   1.090  34.476   0.362
74141W        W42535  23.613  21.773   0.899
74142W        W42536  30.609  38.883   3.828
74143W        W42537  34.768   5.465  14.302
74144W        W42538   4.673   0.691   2.161
74145W        W42539  10.088  25.136   5.017
74146W        W42540  35.776  14.323  13.406
74147W        W42541  28.457  15.225   2.274
74148W        W42542  41.930  13.851   2.273
74149W        W42543  33.018   6.243   0.442
74150W        W42544  22.592  31.597   1.332
74151W        W42545  30.411  40.866   0.954
74152W        W42546   2.895  31.674  12.896
74153W        W42547  21.547  25.514   1.313
74154W        W42548  44.998  12.262   4.569
74155W        W42549  14.654  13.889  11.599
74156W        W42550  23.457  12.878   3.260
74157W        W42551  21.086   8.840   0.017
74158W        W42552   3.360  42.744   9.988
74159W        W42553  11.793   7.800  14.467
74160W        W42554   1.879  24.783  13.356
74161W        W42555  23.955  41.584   0.408
74162W        W42556   0.989   4.847  12.419
74163W        W42557   0.680   2.923   2.132
74164W        W42558  23.297  23.479   2.302
74165W        W42559  29.492  31.702  11.924
74166W        W42560  20.993   8.145   2.943
74167W        W42561   8.374  10.401  11.194
74168W        W42562  43.178  42.963   4.685
74169W        W42563  34.274   7.920  11.705
74170W        W42564  20.032   2.388   2.793
74171W        W42565   5.246  27.098   5.488
74172W        W42566   1.770  30.514  11.250
74173W        W42567  43.820  22.046  12.414
74174W        W42568   6.579  14.136  11.596
74175W        W42569  22.629   2.208   3.286
74176W        W42570   0.574  36.871   9.744
74177W        W42571  14.298  28.669   0.406
74178W        W42572  38.926   4.928   2.177
74179W        W42573   7.695   5.384  14.498
74180W        W42574  32.420  33.648   0.823
74181W        W42575  37.571   0.456   0.826
74182W        W42576  14.861  38.803  14.045
74183W        W42577  40.196  17.006  11.935
74184W        W42578  39.059  31.149   3.080
74185W        W42579  35.523  11.275  14.534
74186W        W42580  19.743  12.350  12.913
74187W        W42581  31.384  11.578   1.652
74188W        W42582  19.962  21.955   4.417
74189W        W42583  24.255   6.857   1.736
74190W        W42584   5.040  41.376   5.076
74191W        W42585  40.417  27.483  11.937
74192W        W42586  13.246   2.776   4.641
74193W        W42587   7.678  38.653  14.791
74194W        W42588  40.020  39.090  13.736
74195W        W42589   7.103  15.434   0.913
74196W        W42590  24.402   3.487  12.382
74197W        W42591   5.070  20.502   0.852
74198W        W42592  20.236  32.404   1.338
74199W        W42593   2.704  23.145  11.991
74200W        W42594  34.075  40.755   1.071
74201W        W42595  40.600  14.713   4.896
74202W        W42596  31.882  25.805   1.603
74203W        W42597  40.891  33.528   1.185
74204W        W42598  36.370  21.781  13.438
74205W        W42599  23.090  28.475   4.154
74206W        W42600  41.440   4.836   4.126
74207W        W42601  29.748   1.783   2.790
74208W        W42602  37.337   0.902  13.555
74209W        W42603   3.002  42.328   4.022
74210W        W42604  40.005   8.462  14.916
74211W        W42605  30.193  31.609   1.849
74212W        W42606  32.076   0.339   4.781
74213W        W42607  21.442  34.821  13.728
74214W        W42608  43.334   8.913   3.035
74215W        W42609   0.845  27.195   2.141
74216W        W42610  22.553  34.918   1.381
74217W        W42611  21.992   3.776   3.638
74218W        W42612  12.251  15.322   2.714
74219W        W42613  10.378  11.663   2.590
74220W        W42614  36.295   5.222   0.878
74221W        W42615   9.292  30.049   3.508
74222W        W42616  41.342  26.488   2.577
74223W        W42617  10.191  38.102  10.763
74224W        W42618   3.726   3.157   9.950
74225W        W42619   1.224  42.208  12.330
74226W        W42620  13.889   3.218  13.695
74227W        W42621  16.333  19.501  12.068
74228W        W42622  12.308  18.172  14.512
74229W        W42623   4.949  33.121  12.382
74230W        W42624  32.500  40.259   3.043
74231W        W42625   9.857  41.393   1.889
74232W        W42626  19.880   5.641   0.469
74233W        W42627  12.765  21.820  12.295
74234W        W42628  30.018  26.633  13.852
74235W        W42629   4.266  15.125   0.173
74236W        W42630  43.751  27.221  13.997
74237W        W42631   3.848  41.851  12.653
74238W        W42632  27.417  25.090   2.357
74239W        W42633  22.828   5.265  12.563
74240W        W42634  11.842  12.051   3.871
74241W        W42635  27.846  25.331  10.693
74242W        W42636  26.478  25.473   0.830
74243W        W42637   9.880  19.251  10.632
74244W        W42638  36.104  30.485  10.774
74245W        W42639  13.854  40.913   3.164
74246W        W42640  32.673  43.668   2.019
74247W        W42641   1.905  37.859  14.802
74248W        W42642  21.564   1.505   1.427
74249W        W42643   4.816  44.726  11.937
74250W        W42644  35.045  21.567   0.308
74251W        W42645  29.735  37.910   4.073
74252W        W42646   3.217  26.240   1.288
74253W        W42647  33.451  32.816   2.592
74254W        W42648  37.689  22.449  12.141
74255W        W42649  26.529  27.144   1.450
74256W        W42650  42.876  42.388  12.646
74257W        W42651   3.739  23.611   0.423
74258W        W42652  34.657  11.135   1.320
74259W        W42653  30.614   1.360  14.993
74260W        W42654  18.636  30.428  14.440
74261W        W42655  33.441  11.104   1.780
74262W        W42656  21.061  19.038  10.715
74263W        W42657  36.554  41.023   4.150
74264W        W42658  40.123  11.606  12.368
74265W        W42659  31.044   8.308   3.088
74266W        W42660  17.354  41.943  10.846
74267W        W42661  22.006  20.617   3.312
74268W        W42662  14.715   4.616  11.172
74269W        W42663  21.179  11.869   2.162
74270W        W42664  26.416   5.500  11.167
74271W        W42665  28.058  41.373  11.629
74272W        W42666   9.300  10.759   3.587
74273W        W42667  33.605  15.109   3.840
74274W        W42668   1.721  34.662  11.141
74275W        W42669  11.337  20.347   2.306
74276W        W42670  34.848  26.120  14.479
74277W        W42671  16.029  19.471  10.638
74278W        W42672  40.309   6.912   0.227
74279W        W42673  43.644  24.788   4.489
74280W        W42674  21.189  25.204   3.550
74281W        W42675  28.240  11.784   2.707
74282W        W42676  33.673   5.137  13.346
74283W        W42677   6.255  14.220  12.010
74284W        W42678  29.493  42.511  13.363
74285W        W42679   0.001  36.502  11.626
74286W        W42680   9.708  18.253  10.780
74287W        W42681  24.403  30.446   2.271
74288W        W42682  36.509  10.821   1.519
74289W        W42683   4.242  21.679   2.311
74290W        W42684  34.234  14.858   1.135
74291W        W42685  23.962  41.247  10.958
74292W        W42686  25.720  13.040  13.915
74293W        W42687  24.703   6.180   1.408
74294W        W42688  17.079  31.661  13.528
74295W        W42689  17.216  33.101   2.449
74296W        W42690  38.305  14.715  13.657
74297W        W42691  21.536   5.775   2.752
74298W        W42692  37.319  41.552  10.615
74299W        W42693  12.537  27.458  12.959
74300W        W42694  30.082   3.445  12.605
74301W        W42695  33.833  19.736   2.413
74302W        W42696   0.295  26.478   9.995
74303W        W42697  20.638  27.761   1.182
74304W        W42698  40.343  23.951   1.700
74305W        W42699  40.485  10.182   9.864
74306W        W42700  33.633  35.542   1.812
74307W        W42701  31.621  43.554  10.656
74308W        W42702  40.024  19.850  12.486
74309W        W42703  12.841   4.787  13.843
74310W        W42704  36.828  20.633  14.355
74311W        W42705  18.907  20.260  13.585
74312W        W42706  31.024  18.689   0.965
74313W        W42707  43.930  41.928  13.047
74314W        W42708   1.489  34.072   2.729
74315W        W42709  34.977  19.377  12.595
74316W        W42710  31.240  16.243   3.857
74317W        W42711  23.203   6.646   4.071
74318W        W42712   5.370   3.349  13.507
74319W        W42713  20.267   2.926  14.315
74320W        W42714   3.635  33.243   4.193
74321W        W42715  19.638  16.672  13.525
74322W        W42716  15.121  19.050   2.810
74323W        W42717  29.876  20.137  10.538
74324W        W42718  35.516   8.068  13.347
74325W        W42719   1.033   1.298   4.300
74326W        W42720  36.944  42.891  12.077
74327W        W42721  37.459   0.473   2.300
74328W        W42722  38.568   1.423   0.633
74329W        W42723  29.111   3.327  12.400
74330W        W42724  10.376  10.210   2.268
74331W        W42725   3.706  15.202   0.705
74332W        W42726  27.614  38.538   2.675
74333W        W42727  19.342  22.652  13.476
74334W        W42728   0.308  25.647   3.287
74335W        W42729  31.989   7.175  11.599
74336W        W42730  40.403  16.066  14.910
74337W        W42731  30.752  37.968  12.491
74338W        W42732  18.633  18.833  11.235
74339W        W42733  25.620  15.574   1.417
74340W        W42734   0.378   6.041   4.295
74341W        W42735  31.965   1.222  14.040
74342W        W42736  25.940  28.640   4.654
74343W        W42737  14.146  35.541   1.654
74344W        W42738  10.252  20.769   3.731
74345W        W42739  42.914  34.935  14.880
74346W        W42740  28.062  39.368  10.609
74347W        W42741   3.572  10.579  11.838
74348W        W42742  18.942  33.078  14.057
74349W        W42743  41.300  40.548   5.082
74350W        W42744  25.003  12.749  13.771
74351W        W42745  15.253  19.099  10.740
74352W        W42746  16.199  37.339  12.119
74353W        W42747   9.292  16.248  12.967
74354W        W42748  23.973  20.307   2.666
74355W        W42749  28.462  10.922  14.896
74356W        W42750  22.284   7.573  12.765
74357W        W42751  22.919   2.849  13.602
74358W        W42752  26.670   1.385   3.329
74359W        W42753   8.386  15.110   1.377
74360W        W42754  41.361  37.406  14.403
74361W        W42755  36.342  25.043   3.552
74362W        W42756   8.617   1.071   1.672
74363W        W42757  25.453   8.665   0.781
74364W        W42758  41.320  30.965   0.216
74365W        W42759  32.822  24.656   1.841
74366W        W42760  40.450  22.585   0.120
74367W        W42761  21.690  36.045   4.527
74368W        W42762  17.867  40.262  10.710
74369W        W42763  27.017  28.068   2.800
74370W        W42764   0.199  32.968  12.920
74371W        W42765  22.693  14.439   2.775
74372W        W42766  13.727  12.211  14.514
74373W        W42767  30.372  42.748   2.805
74374W        W42768  43.304  42.560   2.828
74375W        W42769   8.952  41.284   2.241
74376W        W42770   1.867  24.255   3.707
74377W        W42771  32.616   9.042  10.442
74378W        W42772   3.425  34.085  14.319
74379W        W42773   6.312   4.617   2.897
74380W        W42774  29.001  25.017  13.559
74381W        W42775   7.402  28.021   2.632
74382W        W42776  27.223   0.936   1.327
74383W        W42777  14.607  13.525   1.773
74384W        W42778  27.475  40.824  14.889
74385W        W42779  18.069  43.473   1.852
74386W        W42780  41.544  24.595   0.334
74387W        W42781  12.540  22.045  13.430
74388W        W42782  38.911  22.286   2.404
74389W        W42783  23.322  38.368  12.443
74390W        W42784  27.934   0.437  12.544
74391W        W42785  11.101  24.106   2.340
74392W        W42786  17.690  31.318  13.006
74393W        W42787   2.678  12.225  11.677
74394W        W42788  34.650   1.509  13.345
74395W        W42789   6.908  23.179  12.378
74396W        W42790  14.274   3.978   2.857
74397W        W42791  15.558  40.076   0.089
74398W        W42792  21.297  13.899  14.889
74399W        W42793  36.376  32.852  13.149
74400W        W42794  30.462  17.499  13.518
74401W        W42795  15.258   1.543   4.710
74402W        W42796  14.396   9.466   4.997
74403W        W42797   1.472  33.462   1.399
74404W        W42798  25.594  18.651   2.894
74405W        W42799  41.519  21.747  12.657
74406W        W42800   6.688  14.578   0.509
74407W        W42801  30.588   6.562   4.034
74408W        W42802   7.672  41.651   9.792
74409W        W42803  42.316   7.640  12.876
74410W        W42804  37.608   2.864  13.931
74411W        W42805   4.519  22.615   0.830
74412W        W42806   4.769  41.300  13.084
74413W        W42807  24.998  44.283   0.755
74414W        W42808   8.128   8.351   3.603
74415W        W42809  28.547  22.191   4.547
74416W        W42810  13.318  27.682   0.815
74417W        W42811  28.647  26.121   4.041
74418W        W42812  21.154  20.620  11.958
74419W        W42813  43.086  21.959  12.926
74420W        W42814  11.363   2.255   2.389
74421W        W42815  10.785  35.850  13.868
74422W        W42816  23.088   7.439  11.073
74423W        W42817  22.537  20.130  12.822
74424W        W42818  23.689  11.813   3.521
74425W        W42819  29.423  20.003  13.466
74426W        W42820   0.451   2.148  14.371
74427W        W42821  31.485   2.755  14.482
74428W        W42822  42.167   8.506  11.948
74429W        W42823  29.740  27.495   2.780
74430W        W42824  25.260  42.368  12.483
74431W        W42825  18.627  36.317   2.773
74432W        W42826   1.692  17.437   0.986
74433W        W42827   4.141  28.163   3.207
74434W        W42828  34.602  17.135  13.501
74435W        W42829  38.496  16.769   2.272
74436W        W42830  43.966  15.796  14.524
74437W        W42831   2.925  36.585  14.328
74438W        W42832  16.862  13.356  11.588
74439W        W42833  18.632  39.109   3.139
74440W        W42834  31.066  26.184  14.290
74441W        W42835   3.898   5.027   0.839
74442W        W42836  13.150   9.835   4.224
74443W        W42837  38.005  21.661   1.349
74444W        W42838  27.260  36.007   4.280
74445W        W42839  25.627   7.447  13.946
74446W        W42840  44.861   1.816   3.269
74447W        W42841  12.960   0.927  12.454
74448W        W42842  30.564  30.585   2.272
74449W        W42843  35.882  19.941  12.514
74450W        W42844   7.174  34.589  14.316
74451W        W42845  42.038  19.229   1.289
74452W        W42846   3.570  32.391   3.339
74453W        W42847  23.149  34.447   4.104
74454W        W42848  44.715  33.594  14.368
74455W        W42849  35.578  14.930   0.457
74456W        W42850  26.767  20.263   0.230
74457W        W42851  26.190  33.570   2.633
74458W        W42852  19.622  44.430   4.360
74459W        W42853  33.901  24.590  11.145
74460W        W42854   4.757   6.606   3.783
74461W        W42855  12.904   8.832   1.454
74462W        W42856   9.607   7.919  13.859
74463W        W42857   0.831  42.547  12.176
74464W        W42858  33.647  35.325  11.134
74465W        W42859  39.616  36.775   2.339
74466W        W42860   6.863  15.744  13.165
74467W        W42861   9.835  22.650  13.463
74468W        W42862  28.642  42.334   3.128
74469W        W42863  27.330  22.230   0.949
74470W        W42864  22.499  12.452  12.449
74471W        W42865   3.277  23.229   3.558
74472W        W42866  38.853  28.779   2.430
74473W        W42867  37.441  17.791   0.374
74474W        W42868   8.452  35.488  12.491
74475W        W42869  24.114  12.001  10.356
74476W        W42870  30.952  38.222   4.122
74477W        W42871  43.121   1.857   3.954
74478W        W42872  31.971  16.795   2.795
74479W        W42873  14.618  13.190   2.655
74480W        W42874  36.144   9.824   4.927
74481W        W42875  22.319  37.649   2.643
74482W        W42876  30.539   2.425   0.710
74483W        W42877   9.483  35.191   4.244
74484W        W42878  12.987  15.221  12.627
74485W        W42879   3.699  24.638   4.564
74486W        W42880   7.167  31.556   3.088
74487W        W42881  39.518  18.166   0.763
74488W        W42882  23.778   7.633   2.314
74489W        W42883  12.706  35.726   1.788
74490W        W42884   0.874  32.492  12.886
74491W        W42885  40.046  40.333   1.846
74492W        W42886  16.831   2.171  11.043
74493W        W42887  20.736   2.641   3.027
74494W        W42888  27.843  30.450  14.989
74495W        W42889  25.239  24.005   0.067
74496W        W42890  13.342  11.266  14.269
74497W        W42891  41.395   5.221  12.416
74498W        W42892  44.283  23.913  10.147
74499W        W42893  28.087  43.149   5.456
74500W        W42894   6.212  13.885  10.667
74501W        W42895  26.518  39.860   2.658
74502W        W42896   8.282   0.708   2.328
74503W        W42897  41.913  36.200  10.374
74504W        W42898  36.504  34.669   3.336
74505W        W42899   6.641   2.179   3.636
74506W        W42900   4.824  15.573   4.550
74507W        W42901  31.395  13.098   1.850
74508W        W42902  43.849  12.800   3.539
74509W        W42903  31.156  18.354  11.091
74510W        W42904  17.297   3.045   0.988
74511W        W42905  37.548  10.839  14.939
74512W        W42906  15.360  13.113   0.782
74513W        W42907  17.315  26.551   4.199
74514W        W42908  32.183  18.682  12.665
74515W        W42909  27.914  41.358   1.321
74516W        W42910  36.932  17.701   4.300
74517W        W42911  27.993  23.132  14.591
74518W        W42912  15.449  26.062  13.492
74519W        W42913  22.961  41.624   0.536
74520W        W42914   5.481  10.860  11.051
74521W        W42915   7.803  43.902  10.687
74522W        W42916  37.218  32.367  12.410
74523W        W42917  31.931   1.738   3.875
74524W        W42918  16.837  16.846  14.058
74525W        W42919  20.165  32.889   2.455
74526W        W42920  16.367   8.166   4.265
74527W        W42921   0.856  20.220   1.877
74528W        W42922  18.174  36.917  11.125
74529W        W42923  38.536   3.615  12.062
74530W        W42924  22.464   2.539  11.028
74531W        W42925  31.169   2.437  13.527
74532W        W42926  14.591   3.277   1.138
74533W        W42927  16.588  11.296  11.983
74534W        W42928   4.681   4.824   1.360
74535W        W42929  42.907   1.454  12.564
74536W        W42930   8.127   3.253   1.398
74537W        W42931  28.896  12.713  14.092
74538W        W42932   0.367  19.869  10.747
74539W        W42933  11.172  40.092   0.468
74540W        W42934  39.278   5.198  12.466
74541W        W42935  36.604  29.030   3.044
74542W        W42936  14.365  10.714   4.687
74543W        W42937  41.878  27.648   2.952
74544W        W42938  27.326  16.328  11.957
74545W        W42939  20.673  12.616   1.665
74546W        W42940   0.812  39.849   4.716
74547W        W42941  21.749  26.992   2.117
74548W        W42942  29.978  16.391  11.530
74549W        W42943  15.284  25.688   4.253
74550W        W42944   0.362  36.362  13.838
74551W        W42945  23.705  10.650  13.063
74552W        W42946  17.386  36.481   9.727
74553W        W42947   2.852  16.733   2.771
74554W        W42948  32.536  33.627   0.312
74555W        W42949  33.690  10.828  12.070
74556W        W42950  28.386  32.102  14.363
74557W        W42951  29.678  29.938   0.400
74558W        W42952  20.007  34.201   3.773
74559W        W42953  28.138  40.372   3.272
74560W        W42954   4.143  35.018  14.897
74561W        W42955   5.643  31.444  11.191
74562W        W42956  30.051  14.269   2.352
74563W        W42957  16.598   3.482   3.210
74564W        W42958  17.554  24.212  14.304
74565W        W42959  40.469  25.768  11.538
74566W        W42960  33.902  37.956   3.547
74567W        W42961  12.071  13.881   3.155
74568W        W42962   6.355  44.527  12.049
74569W        W42963  20.272  31.098   1.890
74570W        W42964  41.865  32.087   1.165
74571W        W42965  12.519   4.992   0.957
74572W        W42966  28.253  42.959  10.186
74573W        W42967  20.973  37.585  14.312
74574W        W42968  37.778  29.984   1.444
74575W        W42969  31.804  42.971  11.935
74576W        W42970  13.103  27.685  13.648
74577W        W42971   0.189  12.243  14.918
74578W        W42972  31.785  24.147  11.143
74579W        W42973  22.901   1.917   5.015
74580W        W42974  14.834  34.515   1.886
74581W        W42975  30.309  14.773   3.814
74582W        W42976  31.450  23.576  10.490
74583W        W42977  16.239  19.820   2.580
74584W        W42978   2.705  29.994   2.610
74585W        W42979  26.973  15.339   0.436
74586W        W42980  44.370   9.711   4.559
74587W        W42981   3.279   1.525  11.142
74588W        W42982  42.277  17.763  10.888
74589W        W42983  23.705   9.756  10.475
74590W        W42984   7.965  36.540   0.321
74591W        W42985  34.184  43.805  11.487
74592W        W42986  32.090  17.118  12.866
74593W        W42987  14.122   2.597  14.426
74594W        W42988  22.031  25.566   2.201
74595W        W42989   1.905  37.628   2.243
74596W        W42990  41.023   0.792  14.535
74597W        W42991  32.293  17.730   0.899
74598W        W42992  12.790  31.144   3.977
74599W        W42993  44.089   3.405  11.367
74600W        W42994  44.972  27.241  12.159
74601W        W42995  17.238  12.404  12.392
74602W        W42996  19.309  12.109  13.798
74603W        W42997   3.372  16.795   1.507
74604W        W42998  39.779  32.541   4.076
74605W        W42999   7.705   4.279  11.611
74606W        W43000  25.397  18.754   0.541
74607W        W43001  10.743   5.369  13.027
74608W        W43002  20.058  13.300   1.425
74609W        W43003   3.832  27.294  13.192
74610W        W43004  26.039  26.755   4.129
74611W        W43005  21.525  26.066   3.220
74612W        W43006   7.844  38.411  10.750
74613W        W43007  14.329  22.046  12.933
74614W        W43008  19.250  25.666  13.405
74615W        W43009  18.201  17.055  10.749
74616W        W43010  14.572  42.418  11.098
74617W        W43011  44.939  40.322  10.870
74618W        W43012  36.875  15.772  14.498
74619W        W43013  38.918  41.815  10.495
74620W        W43014  22.828  16.394   0.264
74621W        W43015  25.141  23.200  14.853
74622W        W43016  34.435  11.826   3.602
74623W        W43017  10.634   0.830   4.210
74624W        W43018  30.058  25.077   3.387
74625W        W43019  28.176  33.803  12.455
74626W        W43020  44.787   9.359   4.346
74627W        W43021   4.590  37.495   2.594
74628W        W43022  39.580  17.763  13.972
74629W        W43023   4.706   3.584  12.417
74630W        W43024  11.593  12.268   4.986
74631W        W43025  22.888  14.067  14.635
74632W        W43026  31.571  10.374   2.620
74633W        W43027  25.841   0.877   3.607
74634W        W43028  21.293   7.743   4.632
74635W        W43029  16.718  29.880   4.663
74636W        W43030  16.573  15.137   4.400
74637W        W43031  14.795  14.146   2.334
74638W        W43032  41.017  41.346   1.009
74639W        W43033  41.357  26.158  11.419
74640W        W43034   2.232  44.902  12.008
74641W        W43035  27.861  43.987   2.117
74642W        W43036  42.535  40.303  13.448
74643W        W43037  30.559  33.852   4.765
74644W        W43038  44.735  26.617   1.848
74645W        W43039   5.770  26.144  13.967
74646W        W43040  14.742  37.804  13.972
74647W        W43041   5.167  12.691   1.962
74648W        W43042  17.762  17.998  13.051
74649W        W43043  27.189  31.397   1.394
74650W        W43044  15.796   8.590  11.600
74651W        W43045  42.006  39.142   3.782
74652W        W43046  25.193  18.436  14.836
74653W        W43047  31.817  29.121  11.605
74654W        W43048  31.633  14.108  14.784
74655W        W43049   3.950  30.085   3.743
74656W        W43050   0.221   8.447   2.590
74657W        W43051  29.431  28.960   4.555
74658W        W43052  38.275  32.374   4.766
74659W        W43053  21.257  35.109  12.480
74660W        W43054   0.244  33.049  11.453
74661W        W43055   9.464  30.230  13.517
74662W        W43056   9.829  31.136   0.927
74663W        W43057  26.465  27.385  12.468
74664W        W43058  12.797  28.550   4.846
74665W        W43059   5.193   4.879   1.368
74666W        W43060  11.631  35.104  11.464
74667W        W43061  36.348   9.802   0.347
74668W        W43062  30.147  38.319   1.394
74669W        W43063   5.002  14.564  13.810
74670W        W43064  21.648  30.417  11.115
74671W        W43065  31.096  42.422  14.789
74672W        W43066  39.474  30.424  11.199
74673W        W43067  18.558  31.027   0.897
74674W        W43068   2.227  34.081  13.127
74675W        W43069  44.392   0.509  14.060
74676W        W43070  24.412  19.728  13.023
74677W        W43071   8.380  23.425   4.522
74678W        W43072   6.691   7.865   2.820
74679W        W43073  18.450   4.698   2.249
74680W        W43074  42.799   6.686   3.331
74681W        W43075  29.460  36.558  11.719
74682W        W43076   0.037  33.572  10.907
74683W        W43077  12.185   6.274   2.568
74684W        W43078  42.874  28.610   2.737
74685W        W43079  24.974  15.681  12.081
74686W        W43080   8.182   1.496   3.611
74687W        W43081  24.284   6.635  12.109
74688W        W43082   3.391  25.011   1.896
74689W        W43083  42.112  17.505  10.091
74690W        W43084  12.650  20.530  14.024
74691W        W43085  25.642  42.335  14.952
74692W        W43086  25.379  36.908   2.700
74693W        W43087  31.865  28.189  10.690
74694W        W43088   5.768   0.575   2.975
74695W        W43089   6.014  39.150   3.201
74696W        W43090  23.633  36.908   0.999
74697W        W43091  27.036  34.471  13.549
74698W        W43092  44.118  11.952  12.866
74699W        W43093   4.240  25.070  14.980
74700W        W43094  35.969   1.347   1.767
74701W        W43095  18.330  24.087   0.734
74702W        W43096   3.376  33.032   4.609
74703W        W43097  41.520  35.515  12.323
74704W        W43098  10.280  43.037  14.320
74705W        W43099   3.916  13.081  14.011
74706W        W43100  41.249  20.092  10.844
74707W        W43101  25.066  24.980   2.518
74708W        W43102  23.342  22.110   2.773
74709W        W43103   3.235  27.001   0.340
74710W        W43104  42.871  12.561  13.365
74711W        W43105  13.576   8.450   3.736
74712W        W43106  11.126  27.857  14.064
74713W        W43107  23.983  34.053   2.615
74714W        W43108  24.500  21.114   4.653
74715W        W43109  43.307  41.370   3.239
74716W        W43110  24.157  38.513   1.433
74717W        W43111  15.056  25.687  12.022
74718W        W43112  10.305   4.174  12.620
74719W        W43113   5.680  27.906   1.804
74720W        W43114  36.396  44.251  12.388
74721W        W43115  40.256  21.435  11.616
74722W        W43116  39.105  32.586  14.882
74723W        W43117  44.567  30.412  10.543
74724W        W43118  39.546  30.107  12.552
74725W        W43119  21.981  18.005  14.998
74726W        W43120  16.201  25.751  12.543
74727W        W43121  30.131  27.702   0.861
74728W        W43122  35.029  21.174   2.557
74729W        W43123  36.535   3.794   4.493
74730W        W43124   2.456  21.166   3.572
74731W        W43125  30.185  10.708   0.081
74732W        W43126  25.632  11.992  13.867
74733W        W43127  10.609  15.117   0.034
74734W        W43128  23.331  20.467  10.698
74735W        W43129  16.685  12.362   3.196
74736W        W43130  15.573   8.883  11.234
74737W        W43131   3.822   1.816  11.763
74738W        W43132   4.324  17.079  14.860
74739W        W43133  29.731  26.409   0.506
74740W        W43134  24.074  29.816  11.092
74741W        W43135  17.564   8.313  14.927
74742W        W43136  43.553  20.063  13.911
74743W        W43137   1.225   9.672   1.223
74744W        W43138  26.717  36.896   3.163
74745W        W43139  14.165  33.933  11.169
74746W        W43140   8.767  27.012  13.202
74747W        W43141   4.833  39.688  12.199
74748W        W43142  28.563   0.816  14.308
74749W        W43143   2.680  39.008  11.529
74750W        W43144  43.412  19.820  11.200
74751W        W43145  42.772  42.489  14.883
74752W        W43146   8.624  19.671  11.592
74753W        W43147  13.810   9.945  11.399
74754W        W43148  10.444   6.369   3.125
74755W        W43149  20.570  15.660   4.352
74756W        W43150  41.096  43.848  13.360
74757W        W43151  39.028  34.532   4.340
74758W        W43152   4.208  21.594  11.796
74759W        W43153  39.889  44.460   4.078
74760W        W43154  35.124  13.085   0.544
74761W        W43155  42.830   2.207   2.179
74762W        W43156  24.855  36.426   4.141
74763W        W43157  36.106  19.813  11.224
74764W        W43158  37.077  29.709   0.389
74765W        W43159  10.769  41.106   4.532
74766W        W43160   3.260  20.078  12.897
74767W        W43161   4.416  11.216   2.901
74768W        W43162  34.508  10.917   3.941
74769W        W43163  32.605   2.974   0.136
74770W        W43164  12.845  12.084   3.855
74771W        W43165  37.562  41.517   0.512
74772W        W43166   3.714  36.043   4.150
74773W        W43167  38.907  18.717  14.925
74774W        W43168  25.626  37.967   3.327
74775W        W43169  19.667  10.878  13.465
74776W        W43170  22.765  23.692  13.046
74777W        W43171  44.352   5.239  14.845
74778W        W43172  42.224  44.577   4.483
74779W        W43173  24.383   5.918  13.534
74780W        W43174  35.100  40.910  11.956
74781W        W43175  14.413  39.030  13.954
74782W        W43176  25.741  27.066  12.886
74783W        W43177  34.526  42.773   3.905
74784W        W43178  10.580  37.682   3.768
74785W        W43179   2.610  26.906  14.870
74786W        W43180  13.607  20.985   1.917
74787W        W43181  29.916   7.912   0.256
74788W        W43182  43.872  17.156   0.347
74789W        W43183  13.178  38.097   3.276
74790W        W43184  42.602  13.235   1.813
74791W        W43185  42.523   0.320  12.512
74792W        W43186  19.842  38.134  11.958
74793W        W43187  28.008   4.458  13.400
74794W        W43188   9.696  28.316  14.521
74795W        W43189  20.331  25.117  10.261
74796W        W43190  25.410  17.961   4.075
74797W        W43191  33.786   2.727   1.778
74798W        W43192  27.029  32.710  13.308
74799W        W43193  40.059  40.275  12.192
74800W        W43194  13.798   7.367   3.652
74801W        W43195  11.223  21.050   1.794
74802W        W43196  34.995  41.992  14.775
74803W        W43197  37.737  32.628  11.643
74804W        W43198  19.638  15.783   4.147
74805W        W43199  13.795   1.150  10.555
74806W        W43200  19.266  19.806   3.639
74807W        W43201   6.734   8.301  12.257
74808W        W43202  27.479  30.912  11.984
74809W        W43203  34.411  26.928  11.307
74810W        W43204   4.971  40.982  11.349
74811W        W43205  22.326   2.647  11.644
74812W        W43206   4.912  12.684  10.782
74813W        W43207  29.660  36.482   3.823
74814W        W43208  12.437  19.506   3.647
74815W        W43209  37.077   2.450   3.430
74816W        W43210  30.449   7.950   4.208
74817W        W43211  10.335   8.344  14.401
74818W        W43212  29.867  38.190   0.010
74819W        W43213  18.089  31.864  12.951
74820W        W43214  38.018  43.124  11.162
74821W        W43215   1.307  43.861   0.390
74822W        W43216  26.090   0.514   2.291
74823W        W43217  44.699  23.746   2.302
74824W        W43218  18.780  41.839   9.950
74825W        W43219  28.239  17.836  10.299
74826W        W43220  33.214  39.897  10.497
74827W        W43221  20.541   4.548   1.284
74828W        W43222  13.255  32.154  13.474
74829W        W43223  21.731  14.027   1.353
74830W        W43224  35.826   9.852  12.756
74831W        W43225  37.752  14.368   2.079
74832W        W43226  40.259  41.917   4.551
74833W        W43227  12.900  26.201   2.117
74834W        W43228  36.011   5.838  10.841
74835W        W43229  15.320  12.390  12.494
74836W        W43230  12.633  12.534   4.013
74837W        W43231   2.697   1.856   4.590
74838W        W43232  20.562  27.686   3.694
74839W        W43233   4.363  35.590  11.406
74840W        W43234  17.608  28.944   0.243
74841W        W43235  41.532   4.211   0.495
74842W        W43236   6.342  19.328   1.739
74843W        W43237   0.599  27.653   1.236
74844W        W43238  40.443  29.538   4.552
74845W        W43239  13.579  17.759   0.065
74846W        W43240  22.589  28.384   5.439
74847W        W43241  39.377   0.970  10.757
74848W        W43242  30.757  35.499  11.666
74849W        W43243  22.040  40.673   4.678
74850W        W43244  40.467   3.884  12.041
74851W        W43245   4.104  32.637   2.645
74852W        W43246  29.622  22.478   4.618
74853W        W43247   6.648  33.452  10.265
74854W        W43248   1.668   7.182   2.790
74855W        W43249  39.993  20.629   1.759
74856W        W43250  37.408  25.340  10.999
74857W        W43251   8.196   3.634   3.610
74858W        W43252  25.423  35.753  13.856
74859W        W43253   1.962  11.280   0.317
74860W        W43254  30.461   5.395  13.104
74861W        W43255   3.009   1.105   0.781
74862W        W43256   4.187  37.309   5.006
74863W        W43257  43.205  42.432  11.703
74864W        W43258  35.664   0.903   1.852
74865W        W43259   9.670   8.901  13.850
74866W        W43260  26.609   1.551   2.806
74867W        W43261  31.638  38.424  14.946
74868W        W43262  32.441  19.410  11.620
74869W        W43263   0.739  12.349   1.180
74870W        W43264  33.620  33.103   1.212
74871W        W43265   1.999  40.218  13.985
74872W        W43266  17.201  20.176   5.106
74873W        W43267  21.955   3.328   2.223
74874W        W43268  23.689  36.411   1.208
74875W        W43269   8.285  35.480  13.361
74876W        W43270  33.593  28.562  13.662
74877W        W43271  15.853  23.745  14.308
74878W        W43272  44.429  13.427   0.209
74879W        W43273  27.427  10.369   4.171
74880W        W43274  12.284  33.662  11.996
74881W        W43275   1.573   0.341   0.770
74882W        W43276  40.472  34.534   5.075
74883W        W43277   9.797  12.785  10.707
74884W        W43278  24.030  13.661  10.255
74885W        W43279  34.577  15.623   1.060
74886W        W43280   7.136  22.526  14.983
74887W        W43281  28.496   3.450   3.089
74888W        W43282  34.067  30.359   0.423
74889W        W43283  22.150   9.718  14.709
74890W        W43284  10.329  35.627  13.799
74891W        W43285   0.729  13.133   3.696
74892W        W43286  31.163   9.684   0.383
74893W        W43287  25.599  32.066  13.945
74894W        W43288  15.013  14.321   1.929
74895W        W43289  44.049  20.525  12.945
74896W        W43290  10.738  24.379  11.904
74897W        W43291  24.963  40.294  11.179
74898W        W43292  16.343   7.506   5.447
74899W        W43293  20.348  32.974  10.609
74900W        W43294  41.711  38.096   0.004
74901W        W43295   1.650  33.417   3.631
74902W        W43296   4.383   2.793   3.363
74903W        W43297  41.021  23.651  11.018
74904W        W43298  35.531   7.686   4.347
74905W        W43299  16.859  42.354  13.476
74906W        W43300  36.900  40.126   2.200
74907W        W43301  33.606  37.793   2.979
74908W        W43302  33.133  42.575  12.005
74909W        W43303  14.815  41.423   3.481
74910W        W43304  24.811  35.958  11.077
74911W        W43305  15.306  35.846   0.912
74912W        W43306  43.820  16.372   4.381
74913W        W43307   7.296   1.189  13.839
74914W        W43308  37.221   9.249  13.460
74915W        W43309  16.535   0.864   2.789
74916W        W43310  42.455  35.249  14.296
74917W        W43311  43.389  33.477  12.876
74918W        W43312  22.837  19.008   2.773
74919W        W43313  18.580  33.367  11.062
74920W        W43314  12.244  23.714   4.178
74921W        W43315  39.017  44.446  10.666
74922W        W43316   2.412   4.774  11.774
74923W        W43317  20.629  19.979  13.964
74924W        W43318  30.842   5.788  13.408
74925W        W43319  31.217   9.849  11.570
74926W        W43320  16.869   2.031   9.870
74927W        W43321   2.614   8.887  12.170
74928W        W43322  15.844  42.699   4.211
74929W        W43323   6.464  17.538  12.527
74930W        W43324  21.175  44.534   4.182
74931W        W43325   2.663   2.835   2.329
74932W        W43326  35.876  11.297   2.777
74933W        W43327  15.635  23.146  12.185
74934W        W43328  18.898  35.848   4.960
74935W        W43329  14.579   7.862  14.710
74936W        W43330   0.001  15.386   4.444
74937W        W43331  16.222  17.114  12.142
74938W        W43332   1.053  30.396   3.725
74939W        W43333  12.405  44.295   1.787
74940W        W43334  21.785  34.480  11.637
74941W        W43335  21.750  19.611  11.925
74942W        W43336  18.593  37.339   2.759
74943W        W43337  12.576  16.510  11.236
74944W        W43338   5.971  13.765  11.153
74945W        W43339  28.652  37.363  14.903
74946W        W43340  37.972  10.069  10.703
74947W        W43341  27.966   2.877   5.050
74948W        W43342  31.157  26.642  10.562
74949W        W43343   1.844  37.509   0.201
74950W        W43344   5.629  29.844   0.604
74951W        W43345  16.296   0.757  12.520
74952W        W43346  11.416   3.455  14.658
74953W        W43347  37.479  43.621  13.923
74954W        W43348  12.359  30.941  14.131
74955W        W43349  24.689   8.829  13.126
74956W        W43350  43.084  32.624  12.381
74957W        W43351   5.539  20.027  12.807
74958W        W43352  41.980   7.854   0.931
74959W        W43353  12.772  14.214  14.849
74960W        W43354  23.142  39.585   3.554
74961W        W43355  23.294  19.371   3.394
74962W        W43356   3.098  44.130   2.643
74963W        W43357  35.591  22.500  12.924
74964W        W43358   1.847  31.588  12.871
74965W        W43359  31.088   8.728  14.123
74966W        W43360  32.697  18.573  12.754
74967W        W43361  14.568  21.807   0.273
74968W        W43362  10.346  25.204   1.953
74969W        W43363  10.802  40.532  11.978
74970W        W43364  32.087  18.663   4.639
74971W        W43365  38.716  31.929  11.018
74972W        W43366  29.173  36.973  11.652
74973W        W43367   9.592  23.976   2.284
74974W        W43368  33.796  38.675  11.557
74975W        W43369  33.529  16.196  12.356
74976W        W43370  27.707  18.300   3.858
74977W        W43371  26.232   3.474  12.098
74978W        W43372   6.667  13.233  10.598
74979W        W43373   9.674  30.581   2.799
74980W        W43374  42.451  10.134  14.572
74981W        W43375  29.913  23.717   1.839
74982W        W43376  39.110  36.002   4.070
74983W        W43377  40.829   1.471   2.656
74984W        W43378  21.642  30.048   1.449
74985W        W43379  36.132  31.224  12.561
74986W        W43380  40.037  18.203  14.866
74987W        W43381  44.667  27.626   3.652
74988W        W43382  19.164  35.465   1.676
74989W        W43383  18.793  31.149   1.750
74990W        W43384   6.737  25.449  12.080
74991W        W43385  15.492  36.069  14.162
74992W        W43386  20.548  29.546  12.955
74993W        W43387   0.862  29.121  12.095
74994W        W43388  14.554  11.406  14.967
74995W        W43389  21.822  29.514   3.311
74996W        W43390  40.023  25.595   4.533
74997W        W43391  27.657  17.068   0.175
74998W        W43392  21.075  11.773  12.945
74999W        W43393   2.347  29.330   3.796
75000W        W43394  31.630  20.981  10.651
75001W        W43395  34.641  35.459  13.045
75002W        W43396  35.350  40.824   4.480
75003W        W43397  37.886   1.227   3.126
75004W        W43398  34.897  35.306  13.751
75005W        W43399  26.241  40.006  14.853
75006W        W43400  15.713  40.912  13.963
75007W        W43401   4.775  28.242  10.264
75008W        W43402  44.461  18.510   0.445
75009W        W43403  37.860  24.630  13.041
75010W        W43404   6.605  32.585  13.467
75011W        W43405  28.496  37.121   3.450
75012W        W43406  41.847  39.611  13.091
75013W        W43407  25.907  42.278  11.924
75014W        W43408   5.342  40.908   0.846
75015W        W43409  15.233  14.292   3.609
75016W        W43410  11.791  21.895  10.421
75017W        W43411   0.902   0.854  11.089
75018W        W43412  37.589  40.626   3.228
75019W        W43413  28.461  17.194   4.371
75020W        W43414  38.668   9.315   1.826
75021W        W43415  37.785  13.255   0.436
75022W        W43416  23.494  29.877  12.502
75023W        W43417  41.256   6.664  13.820
75024W        W43418   1.948   0.519   2.104
75025W        W43419  30.618  33.442   2.801
75026W        W43420  34.802  43.309  10.882
75027W        W43421  29.088  34.110  12.082
75028W        W43422  17.244  17.730   2.233
75029W        W43423  36.348  16.949   4.667
75030W        W43424  39.104  24.247  12.653
75031W        W43425  35.776   7.613  13.438
75032W        W43426  36.847   9.658   0.328
75033W        W43427   6.762   8.719  11.961
75034W        W43428   6.881   0.320   1.817
75035W        W43429   4.239  25.547   2.510
75036W        W43430   1.942  23.182   0.141
75037W        W43431   9.381  28.195   1.887
75038W        W43432   2.934   5.637  14.262
75039W        W43433  14.360  42.082   1.207
75040W        W43434  38.125  30.479   4.115
75041W        W43435   2.560  12.431  10.021
75042W        W43436  19.789  25.578   9.842
75043W        W43437  31.080  22.617  11.189
75044W        W43438  36.286  23.534  13.112
75045W        W43439  23.472   3.320   2.330
75046W        W43440  16.632  25.471   3.197
75047W        W43441  28.827  18.199   1.383
75048W        W43442   3.896  40.958  10.576
75049W        W43443  33.414  26.085  10.087
75050W        W43444   9.248   9.131   3.975
75051W        W43445  33.117  19.358   0.969
75052W        W43446   1.336  40.919   3.543
75053W        W43447  33.249  42.655   4.995
75054W        W43448  33.781  12.845   3.356
75055W        W43449   8.607  18.303   4.242
75056W        W43450   2.562  40.885  12.864
75057W        W43451  44.785  33.880  11.230
75058W        W43452  14.098  41.916   0.759
75059W        W43453   8.967   2.062  12.674
75060W        W43454  15.113   5.001  10.343
75061W        W43455   9.114  18.224  13.996
75062W        W43456   1.744  35.952   2.192
75063W        W43457  40.103  17.980   4.074
75064W        W43458  12.323  31.143  13.334
75065W        W43459  41.353  14.605   3.710
75066W        W43460  30.291   2.588  13.506
75067W        W43461   8.439  44.575  13.982
75068W        W43462  16.186  37.966   3.385
75069W        W43463   6.245  22.986   1.380
75070W        W43464  15.002  16.805   5.426
75071W        W43465  37.920   8.007  13.528
75072W        W43466   0.484  18.791  14.321
75073W        W43467   4.359   8.386   4.614
75074W        W43468  12.444  35.244  13.564
75075W        W43469  31.572   9.703   0.887
75076W        W43470  17.068  30.132  14.265
75077W        W43471   8.639  20.715   3.627
75078W        W43472  29.913   2.885  13.315
75079W        W43473  32.571  16.367   4.286
75080W        W43474   8.805   1.564  11.960
75081W        W43475  34.971  15.624   2.629
75082W        W43476  17.113   5.255  14.281
75083W        W43477  42.068  11.664  12.137
75084W        W43478  42.376  21.821   1.664
75085W        W43479   1.170   8.130  10.764
75086W        W43480   9.572  11.782   2.908
75087W        W43481  32.630   1.225  13.559
75088W        W43482  37.931   2.904  14.323
75089W        W43483  11.417  26.379   4.269
75090W        W43484  43.460  43.986  13.901
75091W        W43485  16.669  20.215   4.081
75092W        W43486  15.732  15.529  10.133
75093W        W43487  31.173  44.749  11.636
75094W        W43488  33.837  31.596   4.652
75095W        W43489   5.941  40.766  14.884
75096W        W43490  38.868  39.287   3.764
75097W        W43491   9.274  43.180  13.297
75098W        W43492  31.563  30.695   1.174
75099W        W43493  13.754  31.390   1.615
75100W        W43494  39.036  21.212   3.341
75101W        W43495  36.626  40.356  13.963
75102W        W43496  38.480  26.014  10.686
75103W        W43497  35.080  37.846  11.202
75104W        W43498  23.004   5.868   1.957
75105W        W43499  24.628  17.201  11.597
75106W        W43500  12.545  39.998  10.573
75107W        W43501  38.937   0.371  12.192
75108W        W43502  39.038  17.927   4.173
75109W        W43503  44.359  38.851   2.583
75110W        W43504  41.776  28.606  13.468
75111W        W43505  38.559  30.143   0.733
75112W        W43506  38.897   6.521   3.452
75113W        W43507  44.476   1.573  13.797
75114W        W43508  10.320   5.216  14.356
75115W        W43509  15.754  40.034  14.582
75116W        W43510  16.169  42.351  13.955
75117W        W43511  36.099   6.477  11.604
75118W        W43512   1.000   6.167   0.515
75119W        W43513  31.142   8.310  10.802
75120W        W43514  37.314  24.170  13.405
75121W        W43515  36.878  15.629   0.493
75122W        W43516   7.143  23.925   1.187
75123W        W43517  20.784  41.221   4.195
75124W        W43518  27.392  24.631  13.713
75125W        W43519  25.412  44.910   3.567
75126W        W43520  13.098   0.323   1.915
75127W        W43521  38.085   7.092   0.144
75128W        W43522  32.031  23.493   2.314
75129W        W43523  13.010  35.217   5.172
75130W        W43524  21.257  26.315   5.528
75131W        W43525  37.666  30.595  10.803
75132W        W43526  12.545   9.067  12.583
75133W        W43527   0.366  26.920   4.610
75134W        W43528  23.378   0.687  13.832
75135W        W43529  35.359  40.851   1.699
75136W        W43530  34.511  17.042   2.912
75137W        W43531   7.794  34.999  14.811
75138W        W43532  11.534  40.138  10.068
75139W        W43533  36.594  24.086   0.469
75140W        W43534  22.400  17.861  14.701
75141W        W43535  17.028  42.646  13.940
75142W        W43536   9.154  26.129   3.070
75143W        W43537  31.535  15.764  13.403
75144W        W43538  12.053   3.630  11.548
75145W        W43539  26.136  30.534   1.912
75146W        W43540  25.073  24.413  11.147
75147W        W43541   0.909  37.309   4.551
75148W        W43542  21.961   9.888  10.625
75149W        W43543  38.991  37.837  14.923
75150W        W43544   3.818  34.831  12.465
75151W        W43545  38.383  22.150  14.284
75152W        W43546   7.821  17.626  13.585
75153W        W43547  18.286  42.233  13.516
75154W        W43548  27.538  35.826   3.177
75155W        W43549  27.002   3.418  12.525
75156W        W43550  36.815  24.344   0.851
75157W        W43551  32.305  24.881   3.481
75158W        W43552  41.396  11.945   4.017
75159W        W43553   6.707  21.163   4.158
75160W        W43554  17.771   2.391   2.228
75161W        W43555  19.526   0.981  11.975
75162W        W43556  10.426  11.419   0.932
75163W        W43557  29.849  35.094   3.353
75164W        W43558   0.466  36.159  14.379
75165W        W43559  17.109  13.274   4.721
75166W        W43560  40.818  12.331   2.395
75167W        W43561  17.748  26.647   4.510
75168W        W43562   6.471  39.931   2.422
75169W        W43563  26.963  44.731  12.855
75170W        W43564  17.819  29.028   3.468
75171W        W43565  39.341   0.245   0.240
75172W        W43566  18.335  27.012  12.110
75173W        W43567  34.346  43.829  11.989
75174W        W43568  44.742   2.942   2.355
75175W        W43569  22.523  21.214   3.102
75176W        W43570  26.168   0.971  11.510
75177W        W43571  35.323  19.034   1.241
75178W        W43572  15.413  32.609  11.514
75179W        W43573   0.881   0.960  14.991
75180W        W43574  15.114  10.128  14.452
75181W        W43575  34.587  26.627  11.701
75182W        W43576  30.634  25.130  11.593
75183W        W43577  10.305  12.181   0.499
75184W        W43578  31.355  11.390  12.567
75185W        W43579  26.509  14.487  11.069
75186W        W43580   7.430  23.420  14.438
75187W        W43581  39.427  21.755   4.622
75188W        W43582  31.011  34.697  12.972
75189W        W43583  30.894   3.862   3.404
75190W        W43584  36.976   9.148   3.820
75191W        W43585  41.576   5.928  14.344
75192W        W43586  25.248  23.990   4.789
75193W        W43587  39.099  20.055  12.532
75194W        W43588  38.093  22.605   0.350
75195W        W43589  17.841  29.090   2.649
75196W        W43590  25.081   4.529   0.045
75197W        W43591   6.922  44.228  14.037
75198W        W43592  24.925  10.402   1.113
75199W        W43593   5.781  15.265  11.365
75200W        W43594  24.697   6.976  13.032
75201W        W43595   3.293  17.222  10.599
75202W        W43596  21.311  21.459   0.791
75203W        W43597  42.797  19.395  14.360
75204W        W43598  18.113  11.539  12.506
75205W        W43599  11.928  34.488   4.699
75206W        W43600  40.375   6.787   1.109
75207W        W43601  10.584  15.626  12.753
75208W        W43602  13.648  16.850  12.936
75209W        W43603  38.948   0.616   2.871
75210W        W43604  22.819  30.705  13.397
75211W        W43605   8.155  25.173   1.612
75212W        W43606   6.132  26.024  11.648
75213W        W43607   7.965  25.566   2.380
75214W        W43608  33.552  29.675  12.598
75215W        W43609   1.839   6.436  11.583
75216W        W43610   6.897  12.075  11.156
75217W        W43611  41.400  44.223  14.243
75218W        W43612  43.112   9.390  13.572
75219W        W43613  44.888   3.779  13.005
75220W        W43614  30.992  36.098   4.832
75221W        W43615  39.903  39.203   0.489
75222W        W43616  28.092  31.011   1.841
75223W        W43617  20.588  12.350  13.544
75224W        W43618  14.660  32.522  10.727
75225W        W43619  35.926  25.900   1.948
75226W        W43620  21.743  23.223   2.616
75227W        W43621  30.552   1.958   3.311
75228W        W43622  25.131   7.528  12.430
75229W        W43623  37.909  23.062   0.220
75230W        W43624   8.230  27.480  11.121
75231W        W43625  15.349  12.775   1.870
75232W        W43626   4.154   5.328  10.718
75233W        W43627  11.843  13.563  14.236
75234W        W43628  29.514  34.620   0.703
75235W        W43629   5.614  30.490  12.015
75236W        W43630  21.726   5.921   3.193
75237W        W43631   0.285  22.209  11.534
75238W        W43632   3.894  12.109  14.276
75239W        W43633  33.610  35.584   4.151
75240W        W43634  17.870  41.571  10.105
75241W        W43635  15.851  11.899   5.115
75242W        W43636   6.738  36.834  13.952
75243W        W43637   3.462  31.411   3.189
75244W        W43638  17.340  14.770   4.212
75245W        W43639   5.472  30.102   1.136
75246W        W43640  38.072   3.930   2.543
75247W        W43641   9.844  36.859   0.246
75248W        W43642   2.412  23.149   3.533
75249W        W43643  24.051  24.349  12.105
75250W        W43644  26.481  33.089  11.251
75251W        W43645  11.739   2.014   4.245
75252W        W43646  16.521  23.649  11.579
75253W        W43647  34.615  18.803  11.426
75254W        W43648  32.322  12.280   4.670
75255W        W43649   3.697  25.429   0.531
75256W        W43650  26.585   7.763   4.685
75257W        W43651  27.829  24.155  11.056
75258W        W43652  24.634   0.941  13.630
75259W        W43653  10.145  23.506   4.011
75260W        W43654  30.849  15.592   3.627
75261W        W43655  35.486  25.141  11.398
75262W        W43656  18.515  12.840   2.425
75263W        W43657  28.958  12.409  11.526
75264W        W43658  11.217  42.391   0.696
75265W        W43659  19.720  19.559   2.892
75266W        W43660  44.526   9.300  11.622
75267W        W43661  13.204  44.819   1.891
75268W        W43662  14.794  21.746  11.112
75269W        W43663  12.420  21.017  11.116
75270W        W43664  33.688  19.497   3.786
75271W        W43665  31.830  38.133  14.470
75272W        W43666  39.609  42.991  12.114
75273W        W43667  21.029  30.119  14.807
75274W        W43668  27.211  41.307  14.846
75275W        W43669  20.232  29.953   3.155
75276W        W43670  15.805  12.128  10.680
75277W        W43671  11.555  12.666  10.181
75278W        W43672   3.901  24.211   2.234
75279W        W43673   6.304  11.113  12.084
75280W        W43674  30.038  18.081   0.081
75281W        W43675  36.306  11.435  12.499
75282W        W43676   9.793  35.548   4.640
75283W        W43677   4.664  37.631  13.806
75284W        W43678   5.523  33.382   3.157
75285W        W43679  38.347  13.671   4.592
75286W        W43680  15.743   1.245   3.540
75287W        W43681  19.829  34.476   1.358
75288W        W43682  20.912  24.221   1.319
75289W        W43683  21.586  16.693  11.573
75290W        W43684  10.669  38.739  12.623
75291W        W43685  36.091  25.615   1.467
75292W        W43686  19.073  42.530  13.113
75293W        W43687  34.299   6.696  10.650
75294W        W43688   6.953  11.748   4.717
75295W        W43689  41.243  40.523   4.139
75296W        W43690  25.539  37.243  14.019
75297W        W43691  13.116   3.892   2.253
75298W        W43692  10.958  21.186  13.390
75299W        W43693  30.735   5.549  11.219
75300W        W43694  41.969  14.589   1.842
75301W        W43695  42.799  24.369  13.893
75302W        W43696   7.008  14.404  11.491
75303W        W43697   3.918  22.573  14.432
75304W        W43698  28.736  18.502   0.841
75305W        W43699   9.869  25.562   0.294
75306W        W43700   0.751  39.744  13.102
75307W        W43701  37.086   6.292  13.116
75308W        W43702  35.943   0.271  10.657
75309W        W43703   3.836  18.573  12.457
75310W        W43704  19.935   9.260   4.574
75311W        W43705  17.746  17.136   3.224
75312W        W43706  39.479  24.061   0.009
75313W        W43707  15.216  29.701   2.624
75314W        W43708  10.208  20.694  10.510
75315W        W43709  24.078  31.253  10.721
75316W        W43710  12.632  23.660  12.097
75317W        W43711   3.470   6.817  11.157
75318W        W43712   6.131  12.862  13.046
75319W        W43713  44.244  21.223   0.848
75320W        W43714  11.597  10.594  10.520
75321W        W43715  31.498  23.107  12.133
75322W        W43716   8.357  38.039   1.752
75323W        W43717  14.807   7.456  12.072
75324W        W43718  20.234  18.343  10.240
75325W        W43719  21.689  33.892  12.322
75326W        W43720  24.444  33.529  13.434
75327W        W43721  37.185   6.372  11.007
75328W        W43722  31.544  37.509   1.970
75329W        W43723   0.052  22.573  11.237
75330W        W43724  41.542   3.893  10.648
75331W        W43725   3.928  35.510  11.660
75332W        W43726  18.807  10.614   3.164
75333W        W43727  25.487  32.837   4.009
75334W        W43728   0.638  25.518   3.672
75335W        W43729  16.150  21.817   4.341
75336W        W43730  18.185  17.196  12.454
75337W        W43731   3.769  10.738   2.284
75338W        W43732  34.174  16.690  13.350
75339W        W43733   7.301  26.239  13.277
75340W        W43734  15.903   1.074   0.207
75341W        W43735   8.678  14.164  14.062
75342W        W43736   8.283  29.679   2.736
75343W        W43737  27.941   2.819   2.839
75344W        W43738  33.444  44.229   0.977
75345W        W43739   6.997   1.839   0.403
75346W        W43740  43.874  22.535   1.108
75347W        W43741  10.730  24.168   0.194
75348W        W43742  22.992  23.074   2.397
75349W        W43743  23.119  13.252  13.440
75350W        W43744  12.056  34.559   1.784
75351W        W43745  28.398  11.880  13.408
75352W        W43746  34.107  19.025   0.013
75353W        W43747  22.990  41.587   0.016
75354W        W43748  12.311  29.880  13.970
75355W        W43749  12.803  35.331  13.944
75356W        W43750  44.475  15.640   5.027
75357W        W43751  31.027  33.736   4.630
75358W        W43752   6.329   6.982  11.490
75359W        W43753  10.259  21.650  14.359
75360W        W43754   8.743  30.619  12.911
75361W        W43755  30.315  22.861  11.627
75362W        W43756  14.601  19.230   2.753
75363W        W43757  15.130  14.750   3.373
75364W        W43758  23.077  13.705   3.676
75365W        W43759  25.210  22.766   4.515
75366W        W43760   6.310   4.232  11.550
75367W        W43761  28.001   6.548  13.040
75368W        W43762  22.671  34.052  13.885
75369W        W43763  35.022  29.428  14.707
75370W        W43764   0.184   9.147  14.337
75371W        W43765  18.606  13.224   3.665
75372W        W43766  23.147  42.576  10.480
75373W        W43767  15.107   0.889  12.119
75374W        W43768  30.694   7.922   2.866
75375W        W43769   6.711   7.097  11.167
75376W        W43770  10.364   7.774  13.359
75377W        W43771  41.067  34.139   4.476
75378W        W43772  22.480  39.578   3.797
75379W        W43773  30.383  44.457   1.306
75380W        W43774  43.020  22.079   3.689
75381W        W43775  40.583  18.350  12.566
75382W        W43776  19.548  12.098  12.494
75383W        W43777   1.464   0.404  10.546
75384W        W43778  16.509  19.073   1.331
75385W        W43779  30.977  30.594   2.599
75386W        W43780   0.094  24.791   0.354
75387W        W43781   8.364  11.628   0.223
75388W        W43782  19.683  10.440   2.429
75389W        W43783  24.726  34.504   2.623
75390W        W43784  34.105  32.127   4.462
75391W        W43785  27.131   5.487  11.553
75392W        W43786  22.696  17.258   2.929
75393W        W43787  39.837  18.003   2.743
75394W        W43788  21.671  33.386  12.512
75395W        W43789  25.408  33.120  14.799
75396W        W43790  27.060  41.298   3.272
75397W        W43791  11.265  31.732  10.984
75398W        W43792  38.901  31.012   0.561
75399W        W43793   9.272   7.559   4.099
75400W        W43794  22.506  16.773   1.863
75401W        W43795  22.293  16.477  13.514
75402W        W43796  24.098  43.372  14.675
75403W        W43797  30.514   4.922   1.281
75404W        W43798  18.723  43.683  12.425
75405W        W43799   4.154  43.297   0.261
75406W        W43800  11.682  27.591   1.418
75407W        W43801  20.382  25.659   4.880
75408W        W43802  10.288  23.715  12.482
75409W        W43803  34.540  31.327   1.929
75410W        W43804   1.902  30.472   3.302
75411W        W43805  22.969  18.984  11.900
75412W        W43806  43.377  16.244  13.949
75413W        W43807  13.220  18.361   2.861
75414W        W43808   5.407  28.191   4.660
75415W        W43809  10.150   6.290   0.459
75416W        W43810  28.570  32.156  13.003
75417W        W43811  34.173  42.066   1.252
75418W        W43812  40.951   0.097   3.937
75419W        W43813  32.572   2.530  14.883
75420W        W43814  40.569  21.935   1.295
75421W        W43815  35.512  43.341  11.993
75422W        W43816  32.617  20.664  10.763
75423W        W43817  32.638  13.247  12.336
75424W        W43818   5.677  38.501  13.879
75425W        W43819   6.293  34.248   1.338
75426W        W43820  36.834  28.627   1.139
75427W        W43821  44.004  20.427   0.484
75428W        W43822  37.223  30.007  12.349
75429W        W43823  26.728  20.662   4.820
75430W        W43824  28.900   3.725   2.261
75431W        W43825  13.112   6.306   2.777
75432W        W43826  44.817  23.884  11.201
75433W        W43827   3.975  25.427  11.969
75434W        W43828  38.452  30.699   2.762
75435W        W43829   6.780  29.253   1.812
75436W        W43830   0.003  20.642   1.824
75437W        W43831   3.811  11.451   0.051
75438W        W43832  33.498   4.038   1.764
75439W        W43833  26.800  10.268  11.923
75440W        W43834  25.797  16.641  12.505
75441W        W43835  41.823  12.409  11.533
75442W        W43836  15.141  33.144  13.061
75443W        W43837  20.041  34.975  13.061
75444W        W43838  36.128  21.638   1.861
75445W        W43839  41.307  23.792  11.484
75446W        W43840   4.952  28.056   3.874
75447W        W43841  18.611  13.205  11.555
75448W        W43842   3.700  10.757  11.364
75449W        W43843  40.410  29.897   2.203
75450W        W43844   3.201  15.961  14.870
75451W        W43845  36.788  25.296  11.701
75452W        W43846  28.875  41.458   4.060
75453W        W43847  43.983  35.416   2.093
75454W        W43848  43.870  30.334   3.708
75455W        W43849  19.143   0.986   2.019
75456W        W43850   4.376  31.459  10.602
75457W        W43851  31.847  31.675   4.897
75458W        W43852   7.011   2.212  10.806
75459W        W43853   9.604   2.685   1.655
75460W        W43854  10.090  28.448   2.779
75461W        W43855  39.716  23.600  11.931
75462W        W43856  28.501   5.937   3.555
75463W        W43857  39.427  44.859  11.495
75464W        W43858   6.754  15.332  12.427
75465W        W43859  20.954  41.616  12.066
75466W        W43860  38.150  44.033  11.068
75467W        W43861  25.100  38.757   2.193
75468W        W43862   5.744  18.699  13.624
75469W        W43863  29.290   1.203  13.998
75470W        W43864  19.116  33.414  11.932
75471W        W43865  14.303  18.641   3.364
75472W        W43866  11.698  10.026   1.051
75473W        W43867  25.662  34.552   2.281
75474W        W43868  33.881  17.741   3.164
75475W        W43869  43.326  42.007  11.446
75476W        W43870  44.017   0.044  13.378
75477W        W43871   2.674  11.851   2.257
75478W        W43872  29.181  19.106  14.379
75479W        W43873   9.587   5.278  13.811
75480W        W43874   9.243  41.257  14.538
75481W        W43875  22.666  35.021   3.073
75482W        W43876  30.391  26.940   1.836
75483W        W43877  22.153  40.524  10.711
75484W        W43878  19.130  19.330   3.383
75485W        W43879  24.771  35.468  11.190
75486W        W43880  18.723   9.971   2.175
75487W        W43881  23.070   8.576   4.696
75488W        W43882  44.110   0.732   3.171
75489W        W43883  44.521  18.291  11.960
75490W        W43884  19.787   5.111   1.347
75491W        W43885  15.217  21.481  13.796
75492W        W43886  21.222   2.729  12.088
75493W        W43887  34.559   7.677  12.568
75494W        W43888  41.338  44.901  10.740
75495W        W43889  33.322  41.274   3.893
75496W        W43890  19.542  26.114  13.392
75497W        W43891   1.953   3.713   0.561
75498W        W43892  13.132  16.325   2.612
75499W        W43893  30.203  11.954  12.415
75500W        W43894  26.036   4.975  14.945
75501W        W43895  27.027   4.673   3.051
75502W        W43896  25.596  16.114  13.041
75503W        W43897  23.303   7.318   3.211
75504W        W43898  38.988   2.146  10.244
75505W        W43899  10.564  32.066  10.813
75506W        W43900  14.900  37.956  12.426
75507W        W43901   9.904  17.172   0.851
75508W        W43902  35.470  28.054  11.488
75509W        W43903  30.173  34.235   1.906
75510W        W43904  44.375  19.133  10.803
75511W        W43905   3.735  26.603  12.534
75512W        W43906  13.411  18.178   2.411
75513W        W43907   9.590   3.647  14.440
75514W        W43908  10.308  23.525   3.021
75515W        W43909  26.948   2.210  14.926
75516W        W43910  16.823  22.528  11.562
75517W        W43911   2.317  34.559  10.327
75518W        W43912  30.640  36.593  14.768
75519W        W43913  27.620  25.486   0.652
75520W        W43914  18.679  12.848   1.912
75521W        W43915  32.327   8.655   1.180
75522W        W43916  19.531  29.503  14.040
75523W        W43917  32.847  23.348   2.679
75524W        W43918   8.319   5.603  10.243
75525W        W43919  28.362  22.037  10.367
75526W        W43920   0.722   3.469   3.218
75527W        W43921  12.614  44.308   1.196
75528W        W43922  17.290  28.174   0.301
75529W        W43923  19.570   2.407   1.864
75530W        W43924  11.326  32.372  12.836
75531W        W43925  44.010  27.751   1.170
75532W        W43926  17.983  33.055  12.917
75533W        W43927  44.752  16.246   2.676
75534W        W43928  38.079  39.979  10.669
75535W        W43929  23.905  38.741  14.300
75536W        W43930  15.641  18.190  10.190
75537W        W43931  22.709  25.966   1.440
75538W        W43932   9.695  33.930  12.092
75539W        W43933  22.433   5.337   3.119
75540W        W43934  26.810   3.191   3.239
75541W        W43935   2.499  13.463   2.592
75542W        W43936  39.430  34.130   0.847
75543W        W43937  16.767  36.536  11.185
75544W        W43938  18.612  21.525  10.411
75545W        W43939  26.680  32.064  11.092
75546W        W43940  15.810  12.706   2.212
75547W        W43941   4.509   3.015  14.396
75548W        W43942  25.394  37.736  13.975
75549W        W43943  14.833  36.528  14.023
75550W        W43944  39.505  13.862   4.252
75551W        W43945  35.010  23.543  10.866
75552W        W43946  22.378  32.905  14.420
75553W        W43947   0.499  32.861   0.824
75554W        W43948  24.247  40.277  10.632
75555W        W43949   0.730  21.684  10.810
75556W        W43950  37.829  18.771  13.130
75557W        W43951  21.513  28.539  11.994
75558W        W43952  37.999  38.686   3.310
75559W        W43953   1.561  18.056  12.104
75560W        W43954  29.665  14.815   1.298
75561W        W43955  36.551  35.486   4.189
75562W        W43956  30.605  25.562   5.072
75563W        W43957   1.739  25.733   4.237
75564W        W43958  35.991  11.406  10.962
75565W        W43959  19.564  35.566   2.617
75566W        W43960  37.476  13.185   3.638
75567W        W43961  35.235  35.315  11.934
75568W        W43962  24.168   5.151  11.928
75569W        W43963  33.000  37.417  11.072
75570W        W43964  25.484   9.189  10.800
75571W        W43965  36.834  21.920  11.181
75572W        W43966  30.951   5.243  13.785
75573W        W43967   9.861  10.766  13.589
75574W        W43968  19.186  16.877  13.379
75575W        W43969   2.710   0.453  13.820
75576W        W43970  44.949  29.250   2.259
75577W        W43971  27.520  29.386  13.412
75578W        W43972  27.304  19.083   1.345
75579W        W43973  20.181   4.555   2.496
75580W        W43974  21.488  40.939  13.527
75581W        W43975  34.056  37.819  13.168
75582W        W43976  23.630  18.149   2.736
75583W        W43977   6.788  32.054  11.562
75584W        W43978  17.402   3.161  12.649
75585W        W43979  38.130  22.746  10.574
75586W        W43980  21.219   3.080   0.666
75587W        W43981  10.093  30.952  13.738
75588W        W43982   4.910   2.197  12.945
75589W        W43983  20.094   1.976   0.633
75590W        W43984  40.998  42.769  12.716
75591W        W43985  10.893  26.948   2.831
75592W        W43986   9.371  20.623  11.903
75593W        W43987  37.006  35.314   2.899
75594W        W43988  41.834   9.163  14.962
75595W        W43989  33.885  34.421   1.362
75596W        W43990   3.045  41.006  12.032
75597W        W43991  42.626  21.804  13.860
75598W        W43992   1.966  40.029   1.000
75599W        W43993  16.100  38.822  14.471
75600W        W43994  31.600   0.828  12.183
75601W        W43995  40.615  22.430  12.893
75602W        W43996  18.323  25.569  11.639
75603W        W43997  35.162  35.540  12.389
75604W        W43998   8.456  18.791   2.523
75605W        W43999  34.155   8.122   0.310
75606W        W44000   1.002  32.503  14.973
75607W        W44001  11.099  20.005  13.085
75608W        W44002  41.837  14.730  11.502
75609W        W44003  26.168   4.547   3.771
75610W        W44004  14.799  28.505   4.371
75611W        W44005  24.524  32.197   2.393
75612W        W44006   0.524  17.735  10.471
75613W        W44007   4.486  21.935   4.575
75614W        W44008   4.802  34.668   1.893
75615W        W44009  32.651  13.448   4.397
75616W        W44010  41.758   3.430   1.838
75617W        W44011  10.721  33.671   3.894
75618W        W44012  25.148  26.700  12.997
75619W        W44013   0.864  18.019  10.751
75620W        W44014  35.634  40.422  13.098
75621W        W44015  22.184  28.428  10.619
75622W        W44016  34.301  37.895   3.895
75623W        W44017   9.706  11.576   3.355
75624W        W44018  24.416  13.072  14.953
75625W        W44019  10.200  44.507  11.818
75626W        W44020  19.134  14.859   4.593
75627W        W44021  33.858  10.212  13.997
75628W        W44022   2.931  37.830  13.873
75629W        W44023   7.922  27.537   4.978
75630W        W44024  35.466  19.393  10.610
75631W        W44025  20.872  41.961   2.666
75632W        W44026  11.470   9.332  10.715
75633W        W44027   1.460  24.068   2.350
75634W        W44028   2.894  13.537   2.896
75635W        W44029  40.299  28.919   1.359
75636W        W44030   9.898  22.569  11.404
75637W        W44031   0.582  10.862  11.534
75638W        W44032  12.345  28.445   1.903
75639W        W44033  15.082   2.764  10.946
75640W        W44034  42.894   9.420   1.838
75641W        W44035  14.584  18.173  11.445
75642W        W44036   4.297   7.176  14.464
75643W        W44037   9.775  16.062   3.694
75644W        W44038  22.182   5.665  10.945
75645W        W44039  30.129  19.564  12.489
75646W        W44040  36.615  37.017  13.976
75647W        W44041  21.995   6.359   0.587
75648W        W44042  12.358  28.806  13.617
75649W        W44043  44.274   5.074   3.689
75650W        W44044  19.532  10.867   3.724
75651W        W44045  24.044  13.828   0.751
75652W        W44046  10.656  20.691  14.971
75653W        W44047  40.564  26.909  10.563
75654W        W44048  38.889  44.908   4.684
75655W        W44049  32.933   8.161  12.346
75656W        W44050  29.521   2.193  14.713
75657W        W44051  33.516  34.437   4.553
75658W        W44052  32.089  22.243   9.938
75659W        W44053  40.533  13.195   2.695
75660W        W44054  10.366   2.469  11.563
75661W        W44055  42.838  43.504   1.953
75662W        W44056  21.770   2.840  14.331
75663W        W44057   2.397   0.453  12.939
75664W        W44058  16.576  10.257   3.036
75665W        W44059  25.730  22.678  12.957
75666W        W44060  14.524  23.089   3.213
75667W        W44061  34.602   9.679  14.845
75668W        W44062  28.232  22.657   4.590
75669W        W44063  24.977  25.762  12.303
75670W        W44064  17.012  44.122   4.148
75671W        W44065   4.244   3.764  13.775
75672W        W44066  17.279  15.716   1.900
75673W        W44067  23.985  42.420   0.196
75674W        W44068  10.156  40.339   4.600
75675W        W44069  27.737  23.944  13.043
75676W        W44070  36.558   3.896   3.577
75677W        W44071   8.833   4.290  14.730
75678W        W44072  34.449   1.798  14.934
75679W        W44073  25.584  39.712  13.865
75680W        W44074  24.558   7.371   4.119
75681W        W44075  14.858  29.128  11.967
75682W        W44076   6.314  21.751   4.647
75683W        W44077  23.077  29.036  12.582
75684W        W44078  39.274  32.052  12.414
75685W        W44079  26.177  25.984  14.869
75686W        W44080  12.256  18.010   0.002
75687W        W44081  30.359  43.818  11.669
75688W        W44082   8.242  28.759  13.119
75689W        W44083  21.930   5.911   4.496
75690W        W44084  22.990  36.618   4.556
75691W        W44085  33.420   6.203   1.761
75692W        W44086  18.572  29.989  14.175
75693W        W44087   5.965  23.632   4.056
75694W        W44088   6.758  27.785  12.016
75695W        W44089  22.287  10.732   1.282
75696W        W44090  29.556  43.299  11.764
75697W        W44091  26.625  30.693   4.092
75698W        W44092   6.431   6.323  14.729
75699W        W44093   5.929  37.867   1.755
75700W        W44094  16.310   8.840   2.639
75701W        W44095  37.193  26.606   2.742
75702W        W44096  20.767  36.588   0.493
75703W        W44097   0.388   7.863   2.798
75704W        W44098  36.450  27.948  12.860
75705W        W44099  43.731   6.344  11.069
75706W        W44100  21.167  21.245   4.087
75707W        W44101  19.377  29.223  11.411
75708W        W44102   7.151  27.895   1.750
75709W        W44103  36.502  10.659  13.769
75710W        W44104  12.852  39.313   1.866
75711W        W44105  36.095  21.045  10.933
75712W        W44106  31.939   9.582   3.170
75713W        W44107  40.223  28.347  11.582
75714W        W44108  38.952  38.632  12.592
75715W        W44109  38.792  29.477   2.989
75716W        W44110   2.244  41.861  14.763
75717W        W44111  40.538   2.222   2.432
75718W        W44112  24.429  40.281   4.274
75719W        W44113   8.113  30.373  14.583
75720W        W44114  44.827  31.591  14.378
75721W        W44115  12.822  31.376   0.415
75722W        W44116   1.327  33.605   1.873
75723W        W44117  31.651  44.554   1.307
75724W        W44118  29.721  17.296   1.860
75725W        W44119  21.001  22.536  14.196
75726W        W44120  11.039   9.058   0.982
75727W        W44121  37.888  42.863   2.290
75728W        W44122   1.291  17.044  12.792
75729W        W44123  37.953  38.354   2.625
75730W        W44124  24.104   8.065   3.210
75731W        W44125   2.728  26.177   2.792
75732W        W44126   5.838   1.633   3.699
75733W        W44127   2.838   4.733   0.490
75734W        W44128  44.220  28.941  12.949
75735W        W44129  25.450  34.266   1.591
75736W        W44130  26.041  16.750   0.466
75737W        W44131   2.570  41.534   5.206
75738W        W44132  30.570  25.269   4.633
75739W        W44133   5.609   6.895   3.504
75740W        W44134   9.373  35.600   0.229
75741W        W44135  31.298  19.922   1.359
75742W        W44136  34.430  36.907   0.320
75743W        W44137  10.759   6.787   3.721
75744W        W44138  36.696  42.259   0.226
75745W        W44139   0.547  20.821  11.702
75746W        W44140  26.526  19.213   2.561
75747W        W44141  33.258  39.322   0.106
75748W        W44142  34.647  20.365  13.902
75749W        W44143  15.283  19.637  11.432
75750W        W44144   7.516  26.419  14.835
75751W        W44145  44.942  37.745   4.243
75752W        W44146  18.240   3.303  11.065
75753W        W44147   9.834  18.328  14.169
75754W        W44148  32.550  12.593   3.293
75755W        W44149  22.146  23.722   3.818
75756W        W44150  38.571  37.024  14.749
75757W        W44151  14.569  34.044   1.929
75758W        W44152  27.607  44.001  14.428
75759W        W44153  28.230  40.694   1.902
75760W        W44154  27.050   0.794   4.121
75761W        W44155  26.490  33.694  11.700
75762W        W44156   1.898  14.311  11.558
75763W        W44157  40.747  43.360   2.689
75764W        W44158  16.602  24.614  12.948
75765W        W44159  44.809   1.572   3.736
75766W        W44160  33.666   0.040   2.702
75767W        W44161   1.868  43.099   2.155
75768W        W44162  39.892  19.280   0.382
75769W        W44163  35.834  38.534   1.345
75770W        W44164  32.597   1.339  11.919
75771W        W44165  13.632  32.612   1.018
75772W        W44166  42.554  40.923   1.426
75773W        W44167   2.695  10.932  12.349
75774W        W44168  28.132   2.635   3.294
75775W        W44169  19.778  18.265  12.070
75776W        W44170  34.402  29.467  12.590
75777W        W44171   2.784   0.777   3.087
75778W        W44172   6.772  23.669  12.481
75779W        W44173   1.139  39.036  14.640
75780W        W44174  10.591  14.695   3.745
75781W        W44175  34.947  14.159  10.956
75782W        W44176  21.527  22.979  12.606
75783W        W44177  27.611  41.960  10.997
75784W        W44178  21.744   1.321   1.877
75785W        W44179  37.883  13.152  12.131
75786W        W44180  41.300  27.799  14.185
75787W        W44181   2.177  39.178  14.972
75788W        W44182  37.627   5.476  12.274
75789W        W44183  16.072  21.761  10.628
75790W        W44184  34.517  26.421  11.237
75791W        W44185  12.296  18.740   1.874
75792W        W44186   1.952  23.058   3.737
75793W        W44187  43.030   3.324  13.036
75794W        W44188  37.176   4.858  11.571
75795W        W44189  42.434  24.309  12.948
75796W        W44190   5.396   8.609   4.714
75797W        W44191  24.448  43.255  13.012
75798W        W44192  27.142   2.940  12.591
75799W        W44193  35.015  39.901   2.772
75800W        W44194  10.047  19.730  10.557
75801W        W44195   3.655   6.428  12.573
75802W        W44196  44.391   7.447  11.980
75803W        W44197   4.322   4.923  13.528
75804W        W44198   9.727  40.287   3.759
75805W        W44199  43.349  32.429   4.462
75806W        W44200  44.808  42.818  14.456
75807W        W44201   6.112  16.223   2.322
75808W        W44202  34.148  17.332  10.852
75809W        W44203  22.162  37.840   4.730
75810W        W44204  33.799  12.039   2.201
75811W        W44205  41.560   7.335  10.625
75812W        W44206  40.542  43.765  12.495
75813W        W44207   2.751  38.558   4.424
75814W        W44208   9.662   1.536  13.616
75815W        W44209  28.166  10.904  13.525
75816W        W44210  17.784  43.109   0.317
75817W        W44211  24.670  14.893   4.215
75818W        W44212  14.651   0.867   3.104
75819W        W44213  41.636  24.618   2.829
75820W        W44214   9.810   1.698  13.126
75821W        W44215  19.478   7.671  14.336
75822W        W44216  28.865  20.706  12.038
75823W        W44217  19.432  42.192   0.432
75824W        W44218   3.894  29.666   0.359
75825W        W44219   2.823  23.064  13.051
75826W        W44220  13.728  33.680   1.693
75827W        W44221  30.970  40.790  12.437
75828W        W44222  41.878  34.972   2.767
75829W        W44223  27.024  24.392  13.347
75830W        W44224  36.755  38.945  12.053
75831W        W44225  26.542  13.701   4.876
75832W        W44226  20.084  29.165  11.130
75833W        W44227  27.959   8.740   1.202
75834W        W44228  10.567  27.044   4.988
75835W        W44229  29.417  13.228   1.965
75836W        W44230  15.223   1.207   4.302
75837W        W44231  13.415   1.837   5.024
75838W        W44232  29.335  16.116  13.907
75839W        W44233  15.710  18.152   4.274
75840W        W44234  19.451  33.565   0.420
75841W        W44235  25.549  28.591   4.324
75842W        W44236  26.506  16.011  13.512
75843W        W44237  39.974  28.145  13.531
75844W        W44238   7.320  19.756   1.712
75845W        W44239   2.190  10.801  14.033
75846W        W44240  16.824  29.239  11.127
75847W        W44241   2.705   1.335   2.913
75848W        W44242   6.847   6.902   0.718
75849W        W44243   5.211  34.167  14.785
75850W        W44244  32.763   0.179  12.917
75851W        W44245  24.526  21.798  11.181
75852W        W44246  35.699  28.924   2.310
75853W        W44247  33.727  31.548  11.702
75854W        W44248  42.811   9.631   1.350
75855W        W44249   0.186   1.812  13.596
75856W        W44250  10.673  17.522   4.027
75857W        W44251  38.806  20.185   2.240
75858W        W44252  26.498  36.473   2.387
75859W        W44253  26.159  36.802  11.776
75860W        W44254  35.469  30.483   1.648
75861W        W44255  12.880  32.979  11.162
75862W        W44256  23.639  41.927  11.462
75863W        W44257   3.415  42.496  13.850
75864W        W44258  39.594  34.157   2.257
75865W        W44259  10.613  18.972  14.783
75866W        W44260  24.459  42.995  10.658
75867W        W44261  22.484  33.836  14.319
75868W        W44262  17.234  30.507  13.884
75869W        W44263  35.401   0.190   4.123
75870W        W44264   7.503   6.827  12.025
75871W        W44265  12.216  19.810   3.238
75872W        W44266  28.846   4.148  13.830
75873W        W44267  37.617  10.672   4.712
75874W        W44268  41.999  38.647   2.160
75875W        W44269  24.628  25.190   2.143
75876W        W44270  42.497  38.142   1.023
75877W        W44271   9.144   8.251  14.844
75878W        W44272  40.824   9.791  13.337
75879W        W44273  35.968   8.424  14.219
75880W        W44274  27.589  30.462   1.180
75881W        W44275  11.866  30.890  13.366
75882W        W44276  35.158  41.003  11.116
75883W        W44277  27.741  35.312   1.740
75884W        W44278  21.000  34.167  11.523
75885W        W44279  10.631  33.589  10.716
75886W        W44280   4.164  14.224  13.396
75887W        W44281  20.706   8.680  11.086
75888W        W44282  38.972  10.951   2.318
75889W        W44283  23.334   0.894   1.114
75890W        W44284   8.281  33.269   3.218
75891W        W44285  31.592  36.432  11.449
75892W        W44286  16.516  30.074   2.294
75893W        W44287  40.855   6.225   2.757
75894W        W44288  33.087  41.413   4.396
75895W        W44289   6.789  13.074   2.387
75896W        W44290   2.256  12.272   1.230
75897W        W44291  14.628  43.098   1.469
75898W        W44292  11.401  14.966  10.860
75899W        W44293  19.044  10.593   2.134
75900W        W44294  27.593  23.214  13.777
75901W        W44295  12.888  24.469   0.916
75902W        W44296  19.833   7.899   0.396
75903W        W44297  26.827   5.137   3.271
75904W        W44298  32.969  37.526   0.663
75905W        W44299  16.635  18.515   2.679
75906W        W44300   7.423  16.934  12.627
75907W        W44301  29.512   4.416   2.662
75908W        W44302  31.136   7.210  14.918
75909W        W44303   4.409  12.352   1.940
75910W        W44304  23.686  21.545   0.363
75911W        W44305  18.759   4.763  10.626
75912W        W44306  12.723  18.208  11.519
75913W        W44307   3.519  21.566   0.725
75914W        W44308  44.308  16.291  13.084
75915W        W44309  36.143   8.464  12.704
75916W        W44310   2.510  25.593  11.996
75917W        W44311  16.548   3.291   1.708
75918W        W44312  20.735   3.420   1.381
75919W        W44313   1.979  23.266  14.595
75920W        W44314  43.414   4.238  14.444
75921W        W44315   6.176  41.865  13.393
75922W        W44316  17.272  17.279  13.302
75923W        W44317  16.056  18.228  12.450
75924W        W44318  29.126  29.517   1.618
75925W        W44319  20.146  31.552   1.679
75926W        W44320  27.325  17.371  13.424
75927W        W44321   8.519  14.361   3.031
75928W        W44322  41.315   0.741  12.433
75929W        W44323  13.672  19.119   2.887
75930W        W44324  14.254  11.194   0.313
75931W        W44325   1.757  30.072   1.124
75932W        W44326   8.778  23.439  13.064
75933W        W44327  29.142   4.519  12.887
75934W        W44328  42.020  25.008  12.038
75935W        W44329  19.202  36.013   1.979
75936W        W44330  15.283  43.813  12.996
75937W        W44331  34.590  41.432   1.942
75938W        W44332  38.049  37.981  14.054
75939W        W44333  33.331   1.815   1.821
75940W        W44334  31.165  16.176   2.522
75941W        W44335  31.133  44.688  11.148
75942W        W44336  12.695   5.481   1.044
75943W        W44337  37.163   2.959   0.445
75944W        W44338  14.098  31.921   0.871
75945W        W44339  28.182  16.197  11.410
75946W        W44340  37.521  40.840  14.666
75947W        W44341   8.862  19.226  10.597
75948W        W44342   8.390  31.896  14.430
75949W        W44343  28.023  44.997   1.032
75950W        W44344  24.911  20.199   2.725
75951W        W44345  14.732  16.482   2.376
75952W        W44346  28.947  14.788  11.681
75953W        W44347  30.110  31.279  10.477
75954W        W44348  26.431  44.258   3.701
75955W        W44349  25.014   0.327   4.627
75956W        W44350  26.171  13.781   2.725
75957W        W44351  23.539   2.689   2.630
75958W        W44352  11.846  21.233  12.061
75959W        W44353  32.686  10.742  11.127
75960W        W44354  40.467  40.536  14.621
75961W        W44355  20.587   6.639  14.134
75962W        W44356  28.019  36.363  11.732
75963W        W44357  23.973   8.593  14.013
75964W        W44358  11.731   3.359   4.169
75965W        W44359  41.730  34.104  11.382
75966W        W44360  17.669  16.470  13.891
75967W        W44361  37.045  17.284   1.004
75968W        W44362  35.352  41.258   1.409
75969W        W44363  32.656  19.640   3.235
75970W        W44364  26.228   6.846  12.859
75971W        W44365  29.923  30.566   4.156
75972W        W44366  25.434   9.557  14.283
75973W        W44367   2.512  19.109  10.976
75974W        W44368  29.265  19.582   0.099
75975W        W44369  14.495  43.674   3.261
75976W        W44370  16.370  16.498   4.678
75977W        W44371  18.727  21.040   2.532
75978W        W44372  41.353  40.173  12.517
75979W        W44373  23.174  35.959   3.684
75980W        W44374  26.917  27.643   3.208
75981W        W44375  19.226  34.830   3.647
75982W        W44376  20.666  27.423  12.526
75983W        W44377   6.355   9.802  10.655
75984W        W44378  28.809  15.305   4.736
75985W        W44379  11.582   4.018   4.666
75986W        W44380  36.577   5.197   1.314
75987W        W44381   3.966  27.243  14.313
75988W        W44382  36.518  32.312   3.802
75989W        W44383  20.702  41.631   1.097
75990W        W44384   6.845  16.799  11.240
75991W        W44385  39.848  28.998   3.119
75992W        W44386   1.446  34.318  14.538
75993W        W44387  39.947  44.421   1.326
75994W        W44388  11.607  35.810  12.016
75995W        W44389   9.551  42.289  11.674
75996W        W44390  37.072  43.986  11.856
75997W        W44391  11.428  32.041   2.846
75998W        W44392  44.059  24.425  11.101
75999W        W44393   9.123   0.687  10.940
76000W        W44394   0.225  15.432   2.806
76001W        W44395  13.125  11.217   2.680
76002W        W44396  43.829  19.918   0.194
76003W        W44397  23.041  23.156   4.817
76004W        W44398  43.831  12.105  10.589
76005W        W44399  27.179  12.154   9.695
76006W        W44400   3.370   6.069  10.614
76007W        W44401  36.573  23.478   4.195
76008W        W44402  13.138  43.743  13.848
76009W        W44403   3.089  28.222   3.072
76010W        W44404  24.250   9.754   1.339
76011W        W44405   8.577   6.505  13.037
76012W        W44406  22.492  37.474  12.993
76013W        W44407  32.560  43.337   3.635
76014W        W44408  15.193  29.984  12.169
76015W        W44409  20.965  23.798   2.872
76016W        W44410  26.211  23.639  11.976
76017W        W44411  43.993  16.275  14.325
76018W        W44412  13.725  27.129   3.568
76019W        W44413  12.156  30.770   4.619
76020W        W44414  12.166   7.050  13.314
76021W        W44415  42.470   2.907  12.924
76022W        W44416   0.674  42.982   1.146
76023W        W44417  22.988   4.941  13.862
76024W        W44418  32.150   6.142  10.721
76025W        W44419   1.406   8.819  11.481
76026W        W44420  19.553  19.121   3.138
76027W        W44421  22.707   4.405  14.499
76028W        W44422  19.871  36.788   1.758
76029W        W44423  13.806  24.237   0.772
76030W        W44424  35.168  24.217   2.685
76031W        W44425   1.643  27.048   5.345
76032W        W44426  23.494   6.842  13.091
76033W        W44427  33.108  27.936   4.700
76034W        W44428  12.328  28.798   4.749
76035W        W44429  34.776  25.040   1.176
76036W        W44430   3.413  35.974  12.176
76037W        W44431  41.791  27.539   2.018
76038W        W44432  12.138  41.862  11.991
76039W        W44433  25.476  20.460   2.047
76040W        W44434   7.335  31.931  14.244
76041W        W44435  33.786   3.283  12.381
76042W        W44436  40.744   6.690   2.464
76043W        W44437  30.928   3.978   1.412
76044W        W44438   4.024  26.339   0.362
76045W        W44439  17.091  11.180  13.143
76046W        W44440  31.057   4.589   3.108
76047W        W44441  15.597  27.422   3.286
76048W        W44442   0.135  29.034  13.849
76049W        W44443  19.199  22.478   0.415
76050W        W44444   3.656  39.440   4.115
76051W        W44445  27.713  37.530   2.625
76052W        W44446  29.124   4.011  14.972
76053W        W44447   4.688  43.314   4.095
76054W        W44448  18.196  23.922   0.249
76055W        W44449  44.544   9.281   0.441
76056W        W44450  13.737  13.600   0.747
76057W        W44451  23.444   0.498  11.397
76058W        W44452  30.598  15.789   4.060
76059W        W44453  24.692  34.119  12.876
76060W        W44454   6.410  39.058  12.662
76061W        W44455  34.397  14.385  11.690
76062W        W44456  28.074  25.067  14.715
76063W        W44457  12.660   7.766  13.600
76064W        W44458   3.475  42.779   0.766
76065W        W44459   6.098  14.589   3.316
76066W        W44460  22.762  31.399  12.984
76067W        W44461   0.841   3.604  11.171
76068W        W44462  29.526  14.334   2.405
76069W        W44463  39.521  17.823  11.179
76070W        W44464  17.531  35.650   0.938
76071W        W44465   0.291  34.855  12.081
76072W        W44466  43.544  24.712  13.572
76073W        W44467   2.096  40.811   4.104
76074W        W44468  41.571   1.352  13.024
76075W        W44469  41.221   3.793   1.249
76076W        W44470  24.941   5.201   1.653
76077W        W44471  33.982  35.313  14.259
76078W        W44472  10.688  25.578   3.450
76079W        W44473  16.587  36.493  11.665
76080W        W44474  40.055  22.268  14.983
76081W        W44475  36.644  26.567   0.040
76082W        W44476  22.768  32.335  12.881
76083W        W44477  44.477   0.604   9.824
76084W        W44478  29.337  40.548  12.528
76085W        W44479  33.515  21.665   1.404
76086W        W44480  30.056   4.216  13.016
76087W        W44481  14.231  31.662   0.433
76088W        W44482  41.581  15.328  14.937
76089W        W44483  35.850   9.819  10.808
76090W        W44484  15.209  37.954   2.692
76091W        W44485   9.734  34.516  13.363
76092W        W44486  18.507  37.724  11.970
76093W        W44487  12.685  39.405   2.331
76094W        W44488  12.426  25.758  12.422
76095W        W44489  32.475  32.195   0.430
76096W        W44490  27.672   3.532   3.325
76097W        W44491  22.717  27.743   0.506
76098W        W44492   3.744   4.575   3.355
76099W        W44493   6.760  21.305  10.484
76100W        W44494  17.774  23.492   4.040
76101W        W44495  17.011  11.623  14.858
76102W        W44496  21.929  10.818   5.406
76103W        W44497   0.486  34.960   4.843
76104W        W44498  35.146  12.471   1.897
76105W        W44499  26.278  17.333  11.427
76106W        W44500  20.480   0.802   2.857
76107W        W44501  26.194  14.789   1.276
76108W        W44502  35.442   9.134  14.772
76109W        W44503  13.125  41.322   1.469
76110W        W44504  40.358  13.376  14.107
76111W        W44505  14.770  43.780  12.834
76112W        W44506  25.029  17.632  10.630
76113W        W44507  19.576  40.767   1.383
76114W        W44508  35.983  24.073  14.262
76115W        W44509  10.207  23.290  12.856
76116W        W44510  15.037  44.980  13.398
76117W        W44511   8.695  41.861   0.421
76118W        W44512  33.462   2.907   3.613
76119W        W44513  35.288  26.114  12.472
76120W        W44514  36.916  33.150   0.966
76121W        W44515  18.776  33.440  11.534
76122W        W44516  24.831   6.116   4.818
76123W        W44517  35.772   0.579   1.300
76124W        W44518  21.232   2.702   1.783
76125W        W44519   9.650  43.085   1.376
76126W        W44520  25.079  37.236   3.565
76127W        W44521  28.928   1.331   4.094
76128W        W44522  29.565  32.179  12.998
76129W        W44523  19.180   9.359   0.915
76130W        W44524  32.522   4.382   3.518
76131W        W44525   0.003  13.049   1.846
76132W        W44526  37.428   5.789  13.541
76133W        W44527  23.686  39.313  10.889
76134W        W44528  32.409  10.870  11.587
76135W        W44529  23.923  43.881  11.051
76136W        W44530  32.761  30.129  14.891
76137W        W44531  44.895  13.655   3.121
76138W        W44532  44.788  41.205  14.332
76139W        W44533  21.031  19.628   2.280
76140W        W44534   6.241   6.717   4.816
76141W        W44535  11.154  38.423  14.811
76142W        W44536   0.879  10.938   2.175
76143W        W44537  16.866   9.891  11.077
76144W        W44538  39.967  11.524   0.696
76145W        W44539   8.190  42.864   2.657
76146W        W44540  26.586  33.510   1.410
76147W        W44541  10.536  14.163  10.328
76148W        W44542  35.118   5.201   4.591
76149W        W44543   8.530  40.426  12.624
76150W        W44544   3.080  24.428   4.674
76151W        W44545  26.978  24.571  14.201
76152W        W44546  17.089  44.942   1.435
76153W        W44547  24.981  34.579   0.781
76154W        W44548   4.072  14.843   0.557
76155W        W44549   6.206  39.524   0.293
76156W        W44550  12.730  15.694   1.226
76157W        W44551   4.250  36.759   4.122
76158W        W44552   2.010  43.713   4.024
76159W        W44553  34.002  37.403  12.868
76160W        W44554  28.367  23.680   4.598
76161W        W44555   5.583  40.331   1.536
76162W        W44556  10.262  31.918  14.007
76163W        W44557  16.573  28.850   1.719
76164W        W44558  33.829  42.812  14.831
76165W        W44559   8.085  25.787  12.227
76166W        W44560  13.687   1.743  12.647
76167W        W44561  42.907  38.583  12.034
76168W        W44562  44.243  20.933  13.910
76169W        W44563  14.772  19.024   4.644
76170W        W44564  25.137   0.366  12.053
76171W        W44565   7.390   6.855   1.443
76172W        W44566  41.089   2.997  13.079
76173W        W44567  42.081   8.273  11.530
76174W        W44568  42.799  14.889  14.913
76175W        W44569   3.901  11.333  10.147
76176W        W44570  35.448   5.423  11.534
76177W        W44571  43.663  17.512  13.033
76178W        W44572  18.150  32.594  12.358
76179W        W44573  10.183  28.554   1.933
76180W        W44574   4.384  34.852  11.887
76181W        W44575   6.314   7.183  13.570
76182W        W44576  29.115  19.956  11.709
76183W        W44577  21.005  38.251  10.476
76184W        W44578  37.080  16.035   1.283
76185W        W44579   6.673  41.758   1.933
76186W        W44580  17.156  15.136  13.923
76187W        W44581  33.380  26.012   3.556
76188W        W44582  28.877  17.678  12.459
76189W        W44583  22.833  11.680  11.536
76190W        W44584  28.192   8.169   4.103
76191W        W44585  37.548  34.479   1.596
76192W        W44586  11.304  37.558   2.808
76193W        W44587  15.254  26.602  12.517
76194W        W44588  19.096  15.409   1.259
76195W        W44589  42.735  37.197   3.679
76196W        W44590  21.455  11.771  10.166
76197W        W44591   0.777  17.078  10.772
76198W        W44592   9.463  20.193   0.114
76199W        W44593   9.174  17.009  13.398
76200W        W44594  26.276  24.526  12.255
76201W        W44595  37.048   4.558  11.026
76202W        W44596  36.201   0.712   4.880
76203W        W44597   3.743  10.954   3.319
76204W        W44598  35.798  38.833   0.429
76205W        W44599  10.751  23.725   3.220
76206W        W44600  41.110  14.099  10.723
76207W        W44601  10.049   4.529   0.995
76208W        W44602   7.303  31.419  14.414
76209W        W44603  27.185   5.798  11.989
76210W        W44604  14.223  37.532  12.852
76211W        W44605  34.414  24.269   0.313
76212W        W44606  24.129  16.892  12.054
76213W        W44607  17.185   0.033   0.788
76214W        W44608  30.900   3.011   4.977
76215W        W44609  35.505  31.936  11.474
76216W        W44610  36.501  32.673   4.227
76217W        W44611   3.034  30.977   4.279
76218W        W44612  33.836  42.731  12.999
76219W        W44613  18.584  10.132  14.546
76220W        W44614  20.918   0.518   0.363
76221W        W44615  21.146  24.937   3.115
76222W        W44616  33.755   2.758   2.769
76223W        W44617  17.141   5.224   4.609
76224W        W44618  39.968  16.829  10.657
76225W        W44619   4.812  33.921   3.241
76226W        W44620  19.611   8.819   3.665
76227W        W44621  14.824  44.562  10.445
76228W        W44622  27.420  26.278  11.004
76229W        W44623  44.243  38.405   2.293
76230W        W44624  39.405  29.057   1.638
76231W        W44625  28.737  40.597   2.003
76232W        W44626   0.946  19.292   1.485
76233W        W44627  35.482  24.803   4.569
76234W        W44628   9.862  40.017   3.138
76235W        W44629   4.871  22.134   4.870
76236W        W44630   7.396  27.152   5.163
76237W        W44631  24.863   1.474   2.302
76238W        W44632   1.401  17.408   2.601
76239W        W44633  17.400  34.422   2.711
76240W        W44634  43.736   7.929   1.228
76241W        W44635   7.438  43.881   2.873
76242W        W44636  36.592  12.173   3.610
76243W        W44637  24.073   0.861   1.344
76244W        W44638  25.998  28.464   2.232
76245W        W44639  36.827  23.692   1.859
76246W        W44640   5.920  17.729  10.555
76247W        W44641  36.848  31.156   4.159
76248W        W44642  12.242   6.948   1.878
76249W        W44643   6.018   7.932  14.339
76250W        W44644  29.170  25.632   2.824
76251W        W44645   2.709   8.815   4.643
76252W        W44646  27.452  32.349   2.390
76253W        W44647  27.037   9.315  13.630
76254W        W44648  33.162  24.656  11.870
76255W        W44649   9.774  20.581   1.180
76256W        W44650  20.588  13.154   0.216
76257W        W44651  20.277  27.853  13.942
76258W        W44652   4.111  26.562  10.550
76259W        W44653  30.523  13.128  11.766
76260W        W44654   8.746   1.088   3.900
76261W        W44655  43.434   0.022  13.795
76262W        W44656  38.849  35.015  14.058
76263W        W44657   2.713  10.342   2.204
76264W        W44658  25.396  35.858   3.712
76265W        W44659   0.811  23.745  13.451
76266W        W44660   4.148  12.795   1.924
76267W        W44661  22.125  22.558  12.777
76268W        W44662  28.584  39.405   1.189
76269W        W44663  10.629  14.105  14.002
76270W        W44664  41.025  35.421   2.230
76271W        W44665   8.781  41.032   2.671
76272W        W44666  26.011  30.432   0.416
76273W        W44667   5.455   7.315  14.936
76274W        W44668  32.408  11.545   2.340
76275W        W44669   0.009   9.446  12.523
76276W        W44670  21.691  26.011   1.237
76277W        W44671  13.647  40.905   3.647
76278W        W44672  20.318  14.800   1.321
76279W        W44673  17.806  19.558  14.812
76280W        W44674  35.008   1.081   2.823
76281W        W44675  17.110  32.040  12.082
76282W        W44676  32.581  21.149  10.538
76283W        W44677   4.574  39.530  14.572
76284W        W44678  31.608  26.884  12.170
76285W        W44679  17.308  29.147  11.075
76286W        W44680  25.849   4.068  13.993
76287W        W44681  10.087  38.474   4.747
76288W        W44682  42.219  34.445   3.901
76289W        W44683  13.848   6.739   0.805
76290W        W44684   9.877  44.568   0.890
76291W        W44685   1.801   8.153  11.956
76292W        W44686  25.933  38.445   4.625
76293W        W44687  21.352  12.965   0.290
76294W        W44688  30.768   2.307  12.600
76295W        W44689  20.454  33.058   2.853
76296W        W44690  34.179  13.718  14.789
76297W        W44691  10.828  25.178  14.357
76298W        W44692  29.223   0.535   3.655
76299W        W44693   2.544  37.386  13.526
76300W        W44694  15.128  33.878  14.977
76301W        W44695   0.464  26.140  10.417
76302W        W44696  40.766  30.980   3.784
76303W        W44697  33.887  32.884   3.793
76304W        W44698   5.464  27.091   2.372
76305W        W44699  43.043  19.933  10.820
76306W        W44700  19.372  18.496  13.899
76307W        W44701  23.664  15.432   2.221
76308W        W44702  21.503  17.220  11.532
76309W        W44703  28.023   2.510  13.972
76310W        W44704  26.451  43.258  12.940
76311W        W44705   1.757  29.166  12.850
76312W        W44706  11.929  30.378  13.300
76313W        W44707  10.637   2.396   3.377
76314W        W44708  18.209  39.813  12.844
76315W        W44709   0.432  16.496  11.893
76316W        W44710   6.843  13.622   4.924
76317W        W44711  29.578  36.109   4.181
76318W        W44712  30.163  17.750  13.880
76319W        W44713  34.286  13.055   4.009
76320W        W44714  19.820  25.200  14.871
76321W        W44715  14.962   5.379   5.486
76322W        W44716  20.645  22.877  12.654
76323W        W44717   0.427  28.858  12.031
76324W        W44718  17.536  28.093  11.922
76325W        W44719   4.195   9.295  14.875
76326W        W44720  18.060  44.423   3.237
76327W        W44721  44.397  27.830   4.561
76328W        W44722  33.400  37.942  13.980
76329W        W44723  34.247  30.175   3.728
76330W        W44724  17.409  27.098   1.716
76331W        W44725   3.993  17.122   3.263
76332W        W44726  28.150  33.077  13.834
76333W        W44727  19.280   8.306  13.241
76334W        W44728  22.581  32.817   3.922
76335W        W44729  39.423  22.670   4.840
76336W        W44730  40.759  33.264   1.613
76337W        W44731   4.431   7.742   0.353
76338W        W44732   9.224  14.771   4.972
76339W        W44733  39.550  27.603   1.367
76340W        W44734   0.955   7.189   4.072
76341W        W44735   8.854   7.607   2.903
76342W        W44736  16.314  27.006   4.524
76343W        W44737  21.468  34.792  14.243
76344W        W44738  30.274   5.449   0.509
76345W        W44739   9.325   2.930  14.073
76346W        W44740   2.323  34.994   4.113
76347W        W44741   2.798  42.286   2.313
76348W        W44742  35.017   4.972   1.042
76349W        W44743   8.689  15.851   3.276
76350W        W44744  23.594  42.461   1.872
76351W        W44745  35.079  37.902   1.021
76352W        W44746  28.031  25.021  11.952
76353W        W44747  18.685  15.658   4.173
76354W        W44748  15.068  19.729  11.995
76355W        W44749   5.365   9.127  11.511
76356W        W44750   7.773  32.969   0.481
76357W        W44751  38.335  13.092   1.134
76358W        W44752  30.476  24.996   4.176
76359W        W44753  26.381  35.521  13.004
76360W        W44754  20.444  18.808  12.414
76361W        W44755  41.901  38.064  14.536
76362W        W44756  42.148  36.355  13.799
76363W        W44757  29.502  23.925  12.130
76364W        W44758  28.695  30.035  10.747
76365W        W44759  11.167   4.284   4.524
76366W        W44760  14.237   4.857   2.392
76367W        W44761  21.950  10.443   2.135
76368W        W44762  11.186  17.349   2.058
76369W        W44763  24.633  15.648  12.928
76370W        W44764   4.901  27.783  13.434
76371W        W44765   0.444  35.528  10.960
76372W        W44766  21.729  36.960   3.579
76373W        W44767  39.257  38.007   4.813
76374W        W44768  37.003  17.796   1.127
76375W        W44769  29.640  16.157   1.415
76376W        W44770  44.043  14.204   1.605
76377W        W44771  44.749  28.076  11.367
76378W        W44772  38.115  23.094   2.203
76379W        W44773   0.863  14.536   4.145
76380W        W44774  41.201  32.936   5.033
76381W        W44775  11.265   7.026   0.860
76382W        W44776   2.489  38.200  13.030
76383W        W44777   6.332   3.874  11.918
76384W        W44778  21.025  20.257   0.861
76385W        W44779  29.539  36.150  10.923
76386W        W44780  18.718   0.575  14.170
76387W        W44781  26.421   3.579   5.372
76388W        W44782   2.062  31.076   4.073
76389W        W44783  40.975  17.449  10.626
76390W        W44784   8.117  11.656   1.781
76391W        W44785  11.741  38.516  13.940
76392W        W44786  13.891   2.307   5.071
76393W        W44787   2.352   6.629   4.852
76394W        W44788  43.810  43.136   4.079
76395W        W44789  23.334  24.971  13.861
76396W        W44790  34.256  37.451   1.455
76397W        W44791   4.838  20.805   3.790
76398W        W44792  15.312  28.171  13.828
76399W        W44793  22.938   7.842   2.881
76400W        W44794  18.227  33.619   2.319
76401W        W44795  32.617  31.645  14.394
76402W        W44796  14.281  14.855  12.461
76403W        W44797  10.657  21.569  12.544
76404W        W44798  40.819   3.283  13.415
76405W        W44799  24.986  39.018  10.566
76406W        W44800  27.565  40.880   0.734
76407W        W44801  22.347  43.522  12.344
76408W        W44802  21.052  22.329   0.971
76409W        W44803   5.498  19.855  11.910
76410W        W44804   4.478  33.630   4.903
76411W        W44805  27.397  14.519   0.030
76412W        W44806  10.391  11.893  10.324
76413W        W44807  36.501  30.291  11.917
76414W        W44808  20.310  40.907   4.789
76415W        W44809   8.251  25.264  12.148
76416W        W44810  23.216  11.237   1.777
76417W        W44811  34.882  30.199  13.400
76418W        W44812  18.813  34.088   0.347
76419W        W44813   6.233  35.170  11.137
76420W        W44814  33.115  36.910  12.999
76421W        W44815  31.682   8.422   1.818
76422W        W44816  31.936   3.834   3.062
76423W        W44817  11.776  16.721  13.376
76424W        W44818   6.159  16.392  12.047
76425W        W44819   4.520  43.082   2.075
76426W        W44820  40.306  10.305  11.202
76427W        W44821   0.617  38.271  12.063
76428W        W44822  21.250  26.377   0.327
76429W        W44823  10.299  23.977  14.932
76430W        W44824  34.960  39.121   3.206
76431W        W44825  19.707  38.078  10.208
76432W        W44826  23.500  33.931   3.672
76433W        W44827  24.245   9.289   0.901
76434W        W44828  20.167  20.740   1.900
76435W        W44829  40.396   1.406   1.498
76436W        W44830  29.835  28.897   4.245
76437W        W44831  16.383  25.463  14.804
76438W        W44832  12.564  38.936   4.541
76439W        W44833   3.828  23.090  12.028
76440W        W44834  17.870  13.074   0.495
76441W        W44835   2.421  37.995   0.868
76442W        W44836  44.135  39.058   1.577
76443W        W44837  22.301   8.105   1.376
76444W        W44838  13.284  14.214   2.165
76445W        W44839  16.785  16.599  11.260
76446W        W44840  30.321  28.941  14.440
76447W        W44841  40.859   7.721   1.223
76448W        W44842  38.760  31.454   0.305
76449W        W44843  34.367   9.859   1.812
76450W        W44844  11.637  23.256  11.575
76451W        W44845  34.997  27.433   3.400
76452W        W44846  22.546  27.874   2.932
76453W        W44847  29.446  39.501   0.937
76454W        W44848   0.380  13.347   0.905
76455W        W44849  22.339   7.204  14.685
76456W        W44850   5.542   8.117  11.524
76457W        W44851  28.362  44.075   2.233
76458W        W44852  39.519  20.263  11.771
76459W        W44853   1.765  35.001  13.272
76460W        W44854  28.653  32.796  12.574
76461W        W44855  12.352   3.979   4.183
76462W        W44856  13.683   1.880  13.138
76463W        W44857   1.358   9.319   2.842
76464W        W44858  15.836   9.685   1.462
76465W        W44859  11.763  19.619  10.027
76466W        W44860  30.539  21.766   1.781
76467W        W44861  23.137  39.887  11.450
76468W        W44862  16.599  38.089  14.185
76469W        W44863  38.753  12.597   2.570
76470W        W44864  32.325  32.545  14.088
76471W        W44865  34.372  29.015  11.193
76472W        W44866  21.979  36.277  14.578
76473W        W44867   5.241  35.314  12.363
76474W        W44868  18.955  16.673   1.710
76475W        W44869  39.492  39.249  14.045
76476W        W44870  16.815   2.253   0.783
76477W        W44871  11.796   7.817   3.907
76478W        W44872  39.281   4.568   9.886
76479W        W44873  36.847  10.257   1.958
76480W        W44874  11.545  29.985   3.645
76481W        W44875  13.148  22.539  11.955
76482W        W44876   0.753  23.655   4.571
76483W        W44877  38.597   7.215  13.443
76484W        W44878  29.291   2.652   2.705
76485W        W44879  42.349  28.998   0.176
76486W        W44880  14.750  19.104  10.886
76487W        W44881  24.193   1.915   1.373
76488W        W44882  10.777  34.587  14.052
76489W        W44883  19.649  37.661  13.425
76490W        W44884  24.998  10.159  12.962
76491W        W44885  43.778   8.756  12.632
76492W        W44886  32.371   2.065  14.964
76493W        W44887  38.160  44.872  13.328
76494W        W44888  33.602  24.923  12.453
76495W        W44889   8.583  36.886  14.774
76496W        W44890  13.614  34.358   0.369
76497W        W44891   2.131   4.190  10.697
76498W        W44892  29.422   3.709  14.440
76499W        W44893   8.901  25.773  13.424
76500W        W44894   2.820  29.968  10.421
76501W        W44895  33.894  38.116   2.149
76502W        W44896  21.511  31.643  14.392
76503W        W44897   1.461   3.064  13.377
76504W        W44898  44.803  29.074   0.403
76505W        W44899  24.435   7.438   1.706
76506W        W44900  29.539   0.547  11.576
76507W        W44901   7.755   6.697   2.246
76508W        W44902   5.189   4.286  13.975
76509W        W44903  14.134   5.222  11.567
76510W        W44904   9.080   2.495  12.390
76511W        W44905  20.439   5.017  10.920
76512W        W44906  37.561  38.497  12.007
76513W        W44907  29.454   2.808   4.902
76514W        W44908  42.224  32.364   1.407
76515W        W44909   5.361  28.825  11.012
76516W        W44910   0.026  23.897   1.915
76517W        W44911   3.081  29.988   2.210
76518W        W44912  40.254   3.685  13.875
76519W        W44913  19.296   5.262   1.273
76520W        W44914  15.108  24.658   3.820
76521W        W44915  10.411  22.058   1.899
76522W        W44916  43.695  36.279   2.290
76523W        W44917   6.214  43.852   0.310
76524W        W44918   0.097  21.611  12.252
76525W        W44919  19.186  35.477   2.964
76526W        W44920  34.967  14.731   2.820
76527W        W44921  20.313  23.708  13.493
76528W        W44922  31.213   8.253  13.960
76529W        W44923  32.371  39.306   2.706
76530W        W44924  28.217  11.813  11.507
76531W        W44925   1.851  30.641   1.927
76532W        W44926   2.756  19.778   2.301
76533W        W44927  33.527  41.077  14.427
76534W        W44928  41.369  41.947  14.904
76535W        W44929  21.053  25.399   4.014
76536W        W44930  26.393  32.012   4.049
76537W        W44931  43.554  10.257   1.291
76538W        W44932  37.863   8.538   4.955
76539W        W44933   8.689  12.668  12.667
76540W        W44934  23.223  30.953   0.857
76541W        W44935   8.250  38.355   3.109
76542W        W44936  29.580  39.912  14.309
76543W        W44937  44.436  27.061   2.691
76544W        W44938  24.627   8.865   2.295
76545W        W44939  16.866  30.501  12.945
76546W        W44940  23.260  34.962   2.176
76547W        W44941  38.268  39.073  10.482
76548W        W44942  10.761  14.252   4.633
76549W        W44943  15.832  22.682  13.511
76550W        W44944  38.547  34.458  11.847
76551W        W44945  25.118   2.797   0.740
76552W        W44946  27.251   1.205  12.030
76553W        W44947  23.060  31.362  10.541
76554W        W44948   3.335  26.086   3.281
76555W        W44949  26.709   5.742   4.202
76556W        W44950  42.842  43.014   1.244
76557W        W44951  21.718  29.615  12.426
76558W        W44952  26.974  30.617  10.502
76559W        W44953  16.156  16.605  13.478
76560W        W44954  22.014  38.546  14.434
76561W        W44955  31.068   3.393  10.663
76562W        W44956  12.642  35.556   1.310
76563W        W44957   2.961  12.856  14.901
76564W        W44958   1.967  39.518   0.305
76565W        W44959  10.903  31.940   2.816
76566W        W44960  33.999   2.315   2.998
76567W        W44961  27.092  10.377  13.354
76568W        W44962  38.625  31.837   4.076
76569W        W44963  27.164  29.508   1.397
76570W        W44964  19.834   8.897   4.943
76571W        W44965  24.442  11.444   1.735
76572W        W44966  21.034  18.482   4.082
76573W        W44967  27.818  32.393   2.766
76574W        W44968  31.151   7.569  10.349
76575W        W44969  33.459  24.270   4.241
76576W        W44970   0.762  16.113  11.137
76577W        W44971  14.036  21.638  12.985
76578W        W44972  20.135  28.118  11.318
76579W        W44973  34.418  35.062  12.252
76580W        W44974  33.404   0.862  13.115
76581W        W44975   3.957  17.268  12.074
76582W        W44976  15.143  18.587  10.529
76583W        W44977  22.104  42.103   2.500
76584W        W44978   4.394   0.942  12.023
76585W        W44979  27.690  18.020  11.689
76586W        W44980  11.582   4.296   1.698
76587W        W44981  30.311  33.171  13.519
76588W        W44982   7.927  17.670  11.137
76589W        W44983   8.466   0.242  13.549
76590W        W44984  18.017   4.937  11.094
76591W        W44985  29.491   3.359   1.883
76592W        W44986  17.893  15.188  13.437
76593W        W44987  11.141  10.828  11.715
76594W        W44988  13.633  29.396   0.469
76595W        W44989  38.066  35.334  11.983
76596W        W44990  14.208  33.839   4.241
76597W        W44991  14.694  31.494   4.392
76598W        W44992  26.305  26.624   0.640
76599W        W44993  24.101  42.564   3.123
76600W        W44994   9.978  20.181   0.242
76601W        W44995  34.012  28.484  12.960
76602W        W44996  39.852  36.570   4.249
76603W        W44997  14.985  41.232   1.221
76604W        W44998  15.734  43.178  10.064
76605W        W44999  41.867  31.789   4.232
76606W        W45000  20.623  19.454  14.758
76607W        W45001   5.145   2.318   0.295
76608W        W45002  39.960  34.899  14.770
76609W        W45003  30.952  37.464   0.290
76610W        W45004  29.208  14.278  10.732
76611W        W45005  18.533  30.224   2.307
76612W        W45006   7.446  34.349   2.242
76613W        W45007  31.641  30.796   3.793
76614W        W45008  12.702  17.505   1.986
76615W        W45009  33.410  43.979  12.087
76616W        W45010  10.127  43.564  14.201
76617W        W45011  10.953  37.318   2.481
76618W        W45012  29.598  41.171   4.215
76619W        W45013  43.619  20.524  12.142
76620W        W45014  17.239  26.028   4.307
76621W        W45015  34.047  19.822   0.368
76622W        W45016   1.335   8.000   4.733
76623W        W45017  34.549  28.063   4.303
76624W        W45018  36.174  13.917  11.972
76625W        W45019   9.860  20.637  13.792
76626W        W45020  16.458  14.328  11.597
76627W        W45021  44.235  44.449  14.176
76628W        W45022   7.753  32.644  11.208
76629W        W45023   3.989  16.689   4.635
76630W        W45024   1.511   7.323  13.935
76631W        W45025  41.968  30.820  11.246
76632W        W45026  24.523   6.838  10.636
76633W        W45027  40.414  25.021  11.153
76634W        W45028  38.709  25.065   5.024
76635W        W45029  12.283  27.654  11.410
76636W        W45030  25.557  14.731  12.475
76637W        W45031  22.813  27.565  13.974
76638W        W45032   1.398  28.603  11.865
76639W        W45033   8.345  19.510   0.791
76640W        W45034  34.564  23.482  11.860
76641W        W45035  13.051  20.246  12.750
76642W        W45036  27.507   9.848   4.163
76643W        W45037  10.370   0.737  14.717
76644W        W45038  38.360  43.757   2.540
76645W        W45039  12.084   8.652   0.439
76646W        W45040  36.771   3.947  14.161
76647W        W45041   2.466  10.881   3.842
76648W        W45042  38.114  36.063  14.951
76649W        W45043  35.472  39.035  13.483
76650W        W45044  31.538  37.147   2.937
76651W        W45045   4.307  16.289  14.377
76652W        W45046  17.199  42.262   4.629
76653W        W45047  42.735  28.224  13.826
76654W        W45048   3.347  32.910  11.176
76655W        W45049  27.231   3.383  14.427
76656W        W45050  43.783  22.931  12.971
76657W        W45051  24.114   9.909   9.710
76658W        W45052  14.095   0.470   1.392
76659W        W45053  27.207  29.660   2.824
76660W        W45054  42.236  44.582  10.586
76661W        W45055  23.876  39.472  13.948
76662W        W45056  15.787  43.987  10.340
76663W        W45057  24.228  14.872   1.854
76664W        W45058  20.181  33.983   0.224
76665W        W45059  29.588   9.787   1.201
76666W        W45060  30.973  15.934  13.464
76667W        W45061  16.547  11.991   4.228
76668W        W45062  19.166  11.838  14.680
76669W        W45063   9.676  41.292  10.994
76670W        W45064   5.956  33.589  10.732
76671W        W45065  12.337  23.962  12.668
76672W        W45066  12.470  43.014  11.570
76673W        W45067  30.485  31.375  13.475
76674W        W45068   6.356  41.999  11.036
76675W        W45069   3.868   7.658   2.645
76676W        W45070  18.608  37.542  14.269
76677W        W45071  22.307  12.637  13.068
76678W        W45072  18.872  27.681  13.911
76679W        W45073  38.543  43.914   3.004
76680W        W45074  43.184   5.508   1.521
76681W        W45075  24.489  17.110   3.261
76682W        W45076  31.917  20.797   0.350
76683W        W45077  19.073  36.811   0.777
76684W        W45078  36.172  27.365   0.262
76685W        W45079  27.735   8.610   0.312
76686W        W45080  31.150  14.810   3.956
76687W        W45081   6.123  44.141   0.753
76688W        W45082  29.490  17.401  11.861
76689W        W45083   9.968  12.348   1.763
76690W        W45084  25.491   8.145  12.037
76691W        W45085  28.675   7.641  13.364
76692W        W45086  15.613  34.505   4.258
76693W        W45087  11.115  44.205  14.265
76694W        W45088   8.246  28.885  13.628
76695W        W45089   7.168  17.252   3.788
76696W        W45090  35.503   6.196   4.294
76697W        W45091  20.212  42.376  11.178
76698W        W45092  16.841  21.313   4.619
76699W        W45093   8.714  38.207   1.408
76700W        W45094  16.343  30.877   4.097
76701W        W45095  38.826   4.892  13.843
76702W        W45096  25.768  27.964  13.152
76703W        W45097   9.654  41.794   3.540
76704W        W45098  25.668  24.523  14.331
76705W        W45099  12.257  11.775   0.726
76706W        W45100  21.639  41.614  12.929
76707W        W45101  15.115   5.537   4.633
76708W        W45102  38.439   9.187   2.297
76709W        W45103  43.046  33.074  13.867
76710W        W45104  28.479   7.452  11.144
76711W        W45105  33.472  19.590  13.052
76712W        W45106  26.507  12.232  14.781
76713W        W45107  17.341  25.535  14.255
76714W        W45108  39.561  19.789  12.111
76715W        W45109  19.278  22.031  14.528
76716W        W45110  33.223  25.898  10.669
76717W        W45111  19.020  31.911  10.236
76718W        W45112  21.423  35.089  10.651
76719W        W45113  24.130  29.719   4.250
76720W        W45114   1.428   9.170   0.274
76721W        W45115  15.656  42.450  13.848
76722W        W45116   6.908  22.623   1.798
76723W        W45117  29.176  13.467  12.870
76724W        W45118  22.855  42.918  14.859
76725W        W45119   0.948   1.950   1.952
76726W        W45120   8.409  33.894  12.595
76727W        W45121  31.471  38.405   1.004
76728W        W45122   1.729   6.902  11.751
76729W        W45123  25.971  16.466   4.037
76730W        W45124   3.128  37.775  10.306
76731W        W45125  33.035  43.394  11.093
76732W        W45126  17.798  24.774  10.058
76733W        W45127  40.896  10.471   2.802
76734W        W45128  26.655  23.226   0.076
76735W        W45129  35.194  20.627   1.962
76736W        W45130  38.930  14.199   4.923
76737W        W45131  29.904   1.837   1.727
76738W        W45132  14.332   8.746  13.549
76739W        W45133  37.651   6.906   3.670
76740W        W45134   3.412  22.136  10.141
76741W        W45135  31.017  26.551  11.051
76742W        W45136  26.064  23.417  13.718
76743W        W45137  33.865  17.630  11.733
76744W        W45138  15.770  40.069  12.711
76745W        W45139  42.370  15.772  13.357
76746W        W45140   4.557  20.215   4.962
76747W        W45141  12.254   6.397  13.953
76748W        W45142  40.095  44.221  14.064
76749W        W45143  26.660  30.908  13.001
76750W        W45144  26.690  40.342  12.581
76751W        W45145  35.870  27.456  14.351
76752W        W45146   6.728  15.048  13.846
76753W        W45147  15.728  28.003  13.524
76754W        W45148   0.732  24.253  11.933
76755W        W45149  36.993  34.318  13.969
76756W        W45150  31.219  14.039   4.127
76757W        W45151   9.299  15.543   1.315
76758W        W45152  17.544  13.740   4.071
76759W        W45153   9.034  26.761  14.914
76760W        W45154  11.277  33.148  13.377
76761W        W45155  33.920  14.807   2.842
76762W        W45156  17.574  33.880  11.908
76763W        W45157   7.610   6.262   1.006
76764W        W45158   2.176   4.508   1.941
76765W        W45159  14.268  13.844   3.832
76766W        W45160  14.142  25.984   2.939
76767W        W45161  10.178  13.937   1.893
76768W        W45162  21.187  24.626   3.527
76769W        W45163  31.927  41.460   1.929
76770W        W45164  33.503  32.134  14.836
76771W        W45165  41.073  44.801   0.335
76772W        W45166   4.448  27.875   2.623
76773W        W45167  35.840   3.417   2.924
76774W        W45168   3.450  15.312  13.371
76775W        W45169  17.943  14.579  12.705
76776W        W45170   3.976  16.169   3.374
76777W        W45171  23.146  37.684   2.739
76778W        W45172  43.305   8.348  11.096
76779W        W45173  30.434  37.422   0.438
76780W        W45174  21.025  19.691  13.223
76781W        W45175  29.153  33.561   1.752
76782W        W45176  28.875  25.099   1.877
76783W        W45177   4.870  12.733   3.723
76784W        W45178  20.517  26.752   1.391
76785W        W45179  14.695   5.461   2.170
76786W        W45180  26.732  26.448  13.751
76787W        W45181  32.222  41.097  12.979
76788W        W45182   6.216  37.814   0.779
76789W        W45183  37.999  18.594   1.927
76790W        W45184  21.308  18.005  14.387
76791W        W45185  17.710   2.112  13.487
76792W        W45186  18.330  40.556   3.188
76793W        W45187   8.689  42.916  13.028
76794W        W45188  44.385   9.379   3.199
76795W        W45189  20.355  38.576   1.364
76796W        W45190  37.949  21.292  14.028
76797W        W45191  26.115   5.423  10.694
76798W        W45192  24.172  41.241  14.296
76799W        W45193  43.434  23.821  13.557
76800W        W45194  17.577  35.359  12.565
76801W        W45195  39.089  42.290   4.436
76802W        W45196  10.162  26.180  12.594
76803W        W45197   5.690  43.380  12.523
76804W        W45198  16.884   0.719  12.057
76805W        W45199   4.750   5.783  12.113
76806W        W45200  27.396  38.184  14.903
76807W        W45201  18.062  24.687  11.631
76808W        W45202  42.939  33.929  14.306
76809W        W45203  40.285  40.214  11.107
76810W        W45204  38.330  25.355  10.839
76811W        W45205   1.739  39.614   0.750
76812W        W45206   7.662  44.748   3.702
76813W        W45207   2.778   5.718   2.102
76814W        W45208  10.133  20.077   2.183
76815W        W45209  15.154   6.288  13.334
76816W        W45210   3.331   7.778  13.765
76817W        W45211   2.734   1.902   1.379
76818W        W45212  10.522  38.281   1.226
76819W        W45213  34.937  43.039   4.138
76820W        W45214   6.775  18.537   4.333
76821W        W45215  42.405  38.492   5.157
76822W        W45216   7.904  30.017   2.637
76823W        W45217   0.471  23.270   1.279
76824W        W45218  44.254  37.277  12.845
76825W        W45219  10.582   9.451  13.258
76826W        W45220  18.757  31.535   2.892
76827W        W45221   0.774  26.887  11.186
76828W        W45222   0.298  36.069  11.623
76829W        W45223  40.729  24.566   2.343
76830W        W45224   9.054  44.752   1.671
76831W        W45225  41.973   5.975   9.873
76832W        W45226  10.765  26.451  10.985
76833W        W45227   5.754  15.851  13.418
76834W        W45228  20.118   4.857   0.798
76835W        W45229  44.682  40.946   1.774
76836W        W45230  38.608  18.679   2.852
76837W        W45231  33.892   1.829  12.093
76838W        W45232  14.837  18.685  12.592
76839W        W45233   4.679   2.873  13.412
76840W        W45234  32.049  23.344   0.062
76841W        W45235  36.122  14.136  13.019
76842W        W45236  32.030  39.836  10.451
76843W        W45237  18.243  29.946  13.770
76844W        W45238   2.817  15.180   0.163
76845W        W45239   0.743  41.592   4.051
76846W        W45240  12.347  28.793   2.310
76847W        W45241  21.301  44.432  12.224
76848W        W45242  10.370  25.221   3.246
76849W        W45243  22.142  35.755  11.587
76850W        W45244   5.923  32.893   1.327
76851W        W45245  19.639  38.584   4.116
76852W        W45246   9.303   5.153   4.560
76853W        W45247   7.254  43.803  12.007
76854W        W45248  18.864   0.852   1.021
76855W        W45249  15.189  18.218   4.557
76856W        W45250  17.767  18.291  12.588
76857W        W45251  44.058  13.377  14.837
76858W        W45252  25.294  10.661  13.771
76859W        W45253  41.044  25.031   4.181
76860W        W45254  31.435   1.246   1.882
76861W        W45255  33.957  14.216  11.891
76862W        W45256   1.505  26.349  10.961
76863W        W45257  42.471   3.288   0.012
76864W        W45258  20.349  33.405  11.644
76865W        W45259  43.455  42.352   1.163
76866W        W45260  15.140  29.621   2.120
76867W        W45261  27.585  24.972   0.426
76868W        W45262  32.882  33.540   1.389
76869W        W45263   7.100  11.749   2.650
76870W        W45264   1.036  42.369   4.391
76871W        W45265   8.882  41.827  14.931
76872W        W45266   6.715  15.038   4.669
76873W        W45267  43.019  35.906  11.957
76874W        W45268  17.744  37.061  14.871
76875W        W45269  26.654  44.783  13.719
76876W        W45270  36.701   9.314  13.536
76877W        W45271  12.129  28.498   3.230
76878W        W45272  14.744  10.947   3.056
76879W        W45273  28.993  13.289  11.636
76880W        W45274  42.340  12.105   3.177
76881W        W45275  15.614  43.914   3.911
76882W        W45276  27.509  20.226  10.770
76883W        W45277   4.620  32.459   2.466
76884W        W45278  43.878  33.294   1.854
76885W        W45279  23.759  10.709   2.041
76886W        W45280   2.394  28.100  10.691
76887W        W45281  32.848  11.766   3.694
76888W        W45282   4.892  31.142  11.632
76889W        W45283  19.237   1.797   3.669
76890W        W45284   5.253  38.510   1.433
76891W        W45285  17.121   1.742  13.025
76892W        W45286  42.878  41.497  11.142
76893W        W45287  39.516  36.544  13.017
76894W        W45288  22.590  32.453  10.196
76895W        W45289   1.867  44.528   1.263
76896W        W45290  23.238  27.581   4.414
76897W        W45291  14.808  18.830   0.431
76898W        W45292  40.162   0.320  13.994
76899W        W45293  18.798   8.824   2.635
76900W        W45294   4.707   8.128   1.778
76901W        W45295  39.851  30.922  12.923
76902W        W45296  22.743  35.405   1.334
76903W        W45297  32.647  21.874   3.962
76904W        W45298  22.895   5.830   4.997
76905W        W45299  15.195   4.944   2.545
76906W        W45300  13.167  37.021  14.281
76907W        W45301  36.865  23.444  11.141
76908W        W45302  15.550  17.705   2.761
76909W        W45303   4.356  20.710  13.950
76910W        W45304   3.806  15.298  10.231
76911W        W45305  43.381  16.217   0.703
76912W        W45306  19.974  30.627   2.326
76913W        W45307  24.545  42.184   4.471
76914W        W45308  35.818  32.353   2.351
76915W        W45309  30.606  43.742   1.807
76916W        W45310  32.803  37.487   0.136
76917W        W45311  20.068   5.248   1.764
76918W        W45312  29.043  15.810  10.750
76919W        W45313  11.208   9.594  14.714
76920W        W45314  18.625   3.952  11.893
76921W        W45315   1.005  25.064   4.450
76922W        W45316  16.917  31.500  13.997
76923W        W45317   8.936  27.208   5.357
76924W        W45318   6.455  14.274  13.857
76925W        W45319  34.563   1.397   4.532
76926W        W45320  11.861   5.039   4.727
76927W        W45321  17.822   7.208  13.325
76928W        W45322  21.210  13.151  11.558
76929W        W45323   8.351  34.166   0.912
76930W        W45324  20.501  23.618  12.071
76931W        W45325  18.666   5.856  10.838
76932W        W45326  20.076   2.804   2.232
76933W        W45327  26.499   0.778  11.837
76934W        W45328  42.492   3.424  12.969
76935W        W45329   5.242  16.508  13.824
76936W        W45330   0.303   1.778   3.495
76937W        W45331  14.671   3.020   2.611
76938W        W45332  15.697  34.535  11.696
76939W        W45333  28.717   0.105  11.197
76940W        W45334   9.247  35.982   1.217
76941W        W45335   5.950  22.178   2.801
76942W        W45336  25.256  31.521   0.361
76943W        W45337  23.479   8.244  12.585
76944W        W45338  44.824  35.996   5.023
76945W        W45339  26.465  12.510  12.582
76946W        W45340   2.737  30.217   3.140
76947W        W45341  29.160  11.850   2.701
76948W        W45342   9.574  21.072  11.087
76949W        W45343  22.500  40.474   0.197
76950W        W45344   9.098  26.104   0.933
76951W        W45345  28.698  13.333   0.395
76952W        W45346  15.037  22.711  12.842
76953W        W45347  38.538  37.830  12.439
76954W        W45348  25.979  10.826  13.393
76955W        W45349  29.730  11.954  13.328
76956W        W45350  30.499   1.913  13.896
76957W        W45351  15.145   1.124  11.642
76958W        W45352   7.015  13.978   4.585
76959W        W45353  43.708   3.197   3.137
76960W        W45354  41.930  19.590  12.883
76961W        W45355  25.165   4.723   3.805
76962W        W45356  15.739   7.813  12.066
76963W        W45357   2.533  35.112   2.776
76964W        W45358  19.022  31.151  11.674
76965W        W45359  36.267  18.929   0.251
76966W        W45360  12.877  11.693   2.688
76967W        W45361  31.637  22.085  12.951
76968W        W45362   0.797  38.049  13.386
76969W        W45363   0.719  39.558   0.807
76970W        W45364  14.797  41.619  10.699
76971W        W45365  28.671  36.370  13.551
76972W        W45366  24.015  24.086   3.014
76973W        W45367   0.424   9.754   4.746
76974W        W45368   4.374  33.376  12.886
76975W        W45369  19.214  15.289   3.187
76976W        W45370   0.631  44.456  14.056
76977W        W45371  30.384   9.187   2.336
76978W        W45372  30.423  35.208   3.433
76979W        W45373  23.144  24.539  13.669
76980W        W45374  41.378  11.178   2.719
76981W        W45375  44.490  12.363  10.512
76982W        W45376  14.629  39.757  11.154
76983W        W45377   3.241   2.806  13.431
76984W        W45378   4.740  16.535   9.852
76985W        W45379   8.665  43.907   4.365
76986W        W45380  13.197  16.694   0.588
76987W        W45381  31.983  41.771   0.052
76988W        W45382   1.743  42.086   2.320
76989W        W45383  34.977   4.510  14.713
76990W        W45384  21.011  41.825  13.893
76991W        W45385   5.019  34.594  11.705
76992W        W45386  36.102  18.551   1.543
76993W        W45387  44.538  32.014   4.126
76994W        W45388  14.705  14.590  12.611
76995W        W45389   3.265   6.242  12.959
76996W        W45390   4.038   8.329  12.592
76997W        W45391  17.522   1.298  13.793
76998W        W45392  10.670   2.337   0.243
76999W        W45393  22.055  41.789  12.342
77000W        W45394   0.567  25.518  12.465
77001W        W45395  42.035   7.762  12.460
77002W        W45396   0.826  43.183   1.969
77003W        W45397  12.743   6.157   0.427
77004W        W45398   7.070   3.403   2.387
77005W        W45399  42.251  20.112   2.480
77006W        W45400  26.501  10.204   3.241
77007W        W45401  28.145   6.900   1.231
77008W        W45402  12.880  24.088  12.277
77009W        W45403  36.085   9.703   2.902
77010W        W45404  43.500  24.290  14.849
77011W        W45405   5.731  26.461   3.603
77012W        W45406  31.310  34.856  12.039
77013W        W45407  42.837  34.371   0.443
77014W        W45408  15.618  41.315  11.278
77015W        W45409  26.631  16.551  13.830
77016W        W45410  42.011   0.013  10.766
77017W        W45411  36.949   6.438   1.628
77018W        W45412   3.964   0.425   4.444
77019W        W45413   7.181  32.494  13.394
77020W        W45414   4.843  24.104   3.794
77021W        W45415  31.179  18.013   0.389
77022W        W45416  14.757   7.176  11.533
77023W        W45417  26.613   7.948   2.904
77024W        W45418  40.436  12.691  10.809
77025W        W45419  27.001   9.832  13.537
77026W        W45420  37.135  20.909   5.106
77027W        W45421  29.851   7.298   4.159
77028W        W45422   8.625   8.695  14.074
77029W        W45423   3.502   1.711  13.467
77030W        W45424   5.117  32.894   0.828
77031W        W45425  27.425   2.333   3.920
77032W        W45426  42.658  14.478  13.067
77033W        W45427  36.469   5.864  11.550
77034W        W45428  17.162  28.029  10.626
77035W        W45429  29.019  29.461  14.443
77036W        W45430  12.185  34.528  12.886
77037W        W45431   9.189   0.802  14.912
77038W        W45432  26.095  24.776  11.302
77039W        W45433  30.973  33.820  14.809
77040W        W45434  17.214  42.264  14.319
77041W        W45435  32.824  21.969   0.391
77042W        W45436   2.633  22.521  13.142
77043W        W45437  11.628  34.175   1.800
77044W        W45438  18.074  25.908   2.176
77045W        W45439  34.190  12.953  13.895
77046W        W45440  24.198  10.389   3.641
77047W        W45441   5.650  31.469   3.166
77048W        W45442  40.713  32.941  11.931
77049W        W45443  19.472   3.358  14.326
77050W        W45444   2.380  36.171   4.143
77051W        W45445   4.753  20.978   2.224
77052W        W45446  20.770  23.196  12.234
77053W        W45447  27.625   1.467  14.199
77054W        W45448  34.254  20.277  12.194
77055W        W45449   0.106   0.363   2.620
77056W        W45450  29.196  17.818   3.199
77057W        W45451  18.259  16.099  13.603
77058W        W45452  10.649  33.538   1.154
77059W        W45453  39.370  19.177   0.887
77060W        W45454   7.410  15.201   4.234
77061W        W45455   3.760  11.621  13.785
77062W        W45456   5.313  25.453  13.354
77063W        W45457   5.315  31.880  11.963
77064W        W45458  16.252  41.039   1.637
77065W        W45459  36.308   4.353   1.297
77066W        W45460  37.834  20.465   0.219
77067W        W45461  44.355  11.874   0.378
77068W        W45462  17.654  40.738  10.722
77069W        W45463  40.115  19.111  12.116
77070W        W45464   3.974   4.033   0.713
77071W        W45465  17.291  25.593  14.751
77072W        W45466  40.505  21.339  14.754
77073W        W45467   8.980  23.121  10.305
77074W        W45468  21.982  39.553   2.631
77075W        W45469  32.478  37.814  14.027
77076W        W45470  37.418   6.140   3.810
77077W        W45471   1.762  43.439  14.343
77078W        W45472  10.626  25.439  11.955
77079W        W45473  12.739  30.574  13.991
77080W        W45474  44.281  13.141  13.927
77081W        W45475  37.228   7.802  11.166
77082W        W45476  32.986  13.187   4.099
77083W        W45477  16.411  36.607  10.825
77084W        W45478  27.689  21.205  12.834
77085W        W45479  39.008   4.734  13.362
77086W        W45480  27.876  24.933   4.562
77087W        W45481  36.611  21.175  10.766
77088W        W45482   7.515  29.917  12.084
77089W        W45483  15.516  31.080  13.048
77090W        W45484  23.274   7.528  11.558
77091W        W45485  28.085  25.206   1.308
77092W        W45486  44.346  41.351  10.237
77093W        W45487  42.392   4.894   3.616
77094W        W45488  31.145  32.664   2.835
77095W        W45489   5.723  38.757  10.953
77096W        W45490   3.450   2.376   0.301
77097W        W45491  21.234  16.186  11.992
77098W        W45492   6.687   0.028   3.289
77099W        W45493  17.813  15.168  10.645
77100W        W45494  41.437   8.224  11.171
77101W        W45495  42.795  33.676   4.604
77102W        W45496  27.150   0.412  11.226
77103W        W45497  41.746   7.552   3.185
77104W        W45498  36.514   4.708   3.147
77105W        W45499  24.140  19.308  11.501
77106W        W45500   0.868  19.999  14.386
77107W        W45501   5.518   7.842   4.134
77108W        W45502   7.798   7.373  14.730
77109W        W45503  36.967  34.403   2.641
77110W        W45504  14.239   9.449  13.770
77111W        W45505   7.393  37.633   1.568
77112W        W45506   1.282   2.287  13.004
77113W        W45507  16.671  27.386   2.722
77114W        W45508   4.689  22.169  12.571
77115W        W45509  33.806  42.079   3.657
77116W        W45510  44.271  29.776   0.479
77117W        W45511  22.798  42.335   4.867
77118W        W45512  24.698  27.623   4.789
77119W        W45513  33.465   0.896  12.104
77120W        W45514  44.219  10.329   2.368
77121W        W45515  14.892  12.784   2.155
77122W        W45516  40.250   0.792  12.353
77123W        W45517  40.429  23.392  11.344
77124W        W45518   2.064  34.316   0.249
77125W        W45519  44.708   8.608   4.970
77126W        W45520  44.451  35.085  11.732
77127W        W45521   3.130  17.576  11.131
77128W        W45522  26.062  30.787  12.829
77129W        W45523   1.860  44.670  14.398
77130W        W45524  13.577  24.477  14.309
77131W        W45525  42.976  36.106   0.847
77132W        W45526  16.570  14.332   4.036
77133W        W45527   4.158  42.679  12.212
77134W        W45528  43.522   6.209  14.789
77135W        W45529  24.244   2.137  13.946
77136W        W45530  29.040   5.212  13.515
77137W        W45531  36.522   3.184   3.721
77138W        W45532  39.383  28.866   2.498
77139W        W45533   1.548  27.958  14.916
77140W        W45534  23.376   2.151   1.684
77141W        W45535  37.641  41.948   0.256
77142W        W45536  26.413  33.431   0.886
77143W        W45537  24.440  12.149   3.288
77144W        W45538   3.601  29.133   0.830
77145W        W45539   5.202  31.454   2.889
77146W        W45540  22.444  30.406   1.765
77147W        W45541  34.625  26.112   4.201
77148W        W45542   3.301   6.676   1.128
77149W        W45543  34.287  21.906  12.531
77150W        W45544  20.223  40.982   3.192
77151W        W45545  16.680  14.353   2.683
77152W        W45546  19.615  16.597  10.726
77153W        W45547  38.361  20.178  14.279
77154W        W45548  37.805  33.981  11.973
77155W        W45549  22.718  10.673  11.059
77156W        W45550  12.413  32.184  12.138
77157W        W45551  23.705  15.562  10.897
77158W        W45552  20.288  44.813  14.952
77159W        W45553  36.786  24.720  12.974
77160W        W45554   8.583  22.586   0.489
77161W        W45555  44.305  17.743   4.402
77162W        W45556  37.088  44.458   3.841
77163W        W45557   3.162   1.040  11.377
77164W        W45558   7.869  34.236   0.763
77165W        W45559  20.816   6.263  12.115
77166W        W45560  42.849  42.480   3.734
77167W        W45561  37.711  24.186   1.025
77168W        W45562  43.028  21.682   3.040
77169W        W45563  13.645  29.160  13.486
77170W        W45564  25.339  33.157   3.148
77171W        W45565  27.185  39.604  11.627
77172W        W45566  36.975  16.407  13.425
77173W        W45567  39.778  24.585  12.080
77174W        W45568  33.426  24.995  10.544
77175W        W45569   7.203  44.068   1.307
77176W        W45570  33.150  34.128   2.296
77177W        W45571   5.856   5.333   2.738
77178W        W45572  26.200  11.285  12.076
77179W        W45573  12.304  14.839   2.908
77180W        W45574  31.037  26.140  10.709
77181W        W45575  26.166  36.666  13.573
77182W        W45576  33.999  23.724  12.540
77183W        W45577   9.662  35.495  11.983
77184W        W45578  18.844   7.532   1.869
77185W        W45579  31.883   7.235   4.079
77186W        W45580   3.231  30.023  10.754
77187W        W45581  34.552   0.940   0.506
77188W        W45582  34.625  23.035  12.118
77189W        W45583  14.504  18.690   0.022
77190W        W45584  34.939   4.431   3.199
77191W        W45585  18.343  33.674  11.723
77192W        W45586  43.793  30.396  14.248
77193W        W45587  38.309  34.293  14.409
77194W        W45588  19.928   1.777  12.531
77195W        W45589  30.625  31.996  11.971
77196W        W45590   6.124  13.056   1.281
77197W        W45591   2.795  26.180  14.848
77198W        W45592  33.189  41.228   1.970
77199W        W45593  11.536   5.250   4.376
77200W        W45594  26.997  29.715  14.311
77201W        W45595   7.149  22.876  13.758
77202W        W45596  26.911  21.670  12.527
77203W        W45597  16.037   5.813   4.469
77204W        W45598  40.940  40.774  13.042
77205W        W45599  42.316  27.010  14.487
77206W        W45600  42.777  32.504  13.111
77207W        W45601  18.186  41.034  14.992
77208W        W45602  44.243   9.738   0.391
77209W        W45603  20.221  26.560  13.728
77210W        W45604  26.460   6.820   4.929
77211W        W45605  38.642  11.312  13.077
77212W        W45606  22.462  39.575  14.449
77213W        W45607  28.077   0.041   0.466
77214W        W45608  35.668  11.950   2.884
77215W        W45609  13.705   4.346   4.724
77216W        W45610  15.797   5.378   4.931
77217W        W45611  44.636  28.340  14.415
77218W        W45612  10.832  15.500  14.511
77219W        W45613   6.733  24.768   3.529
77220W        W45614   0.705  25.102   1.874
77221W        W45615   3.296  30.169   1.710
77222W        W45616   1.670  37.958  11.483
77223W        W45617  29.072  36.155   3.965
77224W        W45618  35.905  26.648  10.292
77225W        W45619   0.300  11.332   3.865
77226W        W45620  30.955  41.523  12.005
77227W        W45621  30.507  37.628  12.778
77228W        W45622   8.232  22.365   1.287
77229W        W45623   5.614   9.086   2.649
77230W        W45624  30.221  37.278   1.288
77231W        W45625  24.542  36.045  13.284
77232W        W45626  36.777  39.038  12.970
77233W        W45627  27.085   9.983  11.605
77234W        W45628  22.639  27.100  13.760
77235W        W45629  14.403  10.751   3.420
77236W        W45630  11.603   5.707   4.088
77237W        W45631  31.477  44.793  14.813
77238W        W45632  40.752  12.624   4.538
77239W        W45633  41.430  24.354  13.825
77240W        W45634   6.709  23.464   1.792
77241W        W45635  19.703  21.807  12.249
77242W        W45636  12.690  12.276  12.466
77243W        W45637  10.579  32.083   2.384
77244W        W45638   6.250   6.266   4.586
77245W        W45639  16.660  11.091   1.906
77246W        W45640   2.047  21.987  10.675
77247W        W45641   4.576  37.913   1.803
77248W        W45642  12.860  29.590   0.794
77249W        W45643  31.760  35.164  14.466
77250W        W45644  41.985  24.452   3.660
77251W        W45645  22.086  10.743   4.522
77252W        W45646  23.746  12.117   1.629
77253W        W45647  10.289  17.121   4.588
77254W        W45648  39.382  15.101  14.435
77255W        W45649  32.530  21.207  12.610
77256W        W45650  12.254  30.717  13.657
77257W        W45651  10.909  26.864  10.641
77258W        W45652  19.928  36.984   0.397
77259W        W45653  17.305  14.667   1.779
77260W        W45654   2.908  24.923  11.471
77261W        W45655  24.434  22.902  11.978
77262W        W45656  10.176  25.338  11.526
77263W        W45657   5.961  21.995  14.909
77264W        W45658  20.164  17.160  10.182
77265W        W45659  43.986  42.712   1.853
77266W        W45660   7.719  44.732  12.856
77267W        W45661  39.183  14.594   9.973
77268W        W45662  39.975  11.584   4.168
77269W        W45663  37.798  35.472   1.198
77270W        W45664   2.012  14.741   2.164
77271W        W45665  34.024  29.523   3.610
77272W        W45666  44.954  20.924   0.419
77273W        W45667  21.013  15.635   1.633
77274W        W45668  15.138  26.301  11.586
77275W        W45669   3.040  37.081   3.616
77276W        W45670   7.936   3.122  10.658
77277W        W45671  19.349   6.735   3.713
77278W        W45672  15.076   2.366  11.273
77279W        W45673  33.367  39.860   4.224
77280W        W45674  34.147   4.299   2.770
77281W        W45675  31.150  31.981  11.997
77282W        W45676  20.790   7.618   3.239
77283W        W45677  10.455  36.020  12.955
77284W        W45678  35.612  23.002   1.786
77285W        W45679  26.950   0.476  13.369
77286W        W45680   4.794   1.063  10.766
77287W        W45681  38.177  20.230  12.540
77288W        W45682   6.201  13.904   0.264
77289W        W45683  32.862  26.983   2.419
77290W        W45684   1.518  17.882   1.263
77291W        W45685   3.506  34.501  11.612
77292W        W45686   2.568   5.253   3.181
77293W        W45687  39.276  16.471  11.100
77294W        W45688  44.602   4.379  11.055
77295W        W45689  10.756  36.434  12.106
77296W        W45690   9.454  18.994  13.384
77297W        W45691  35.575  31.880   3.685
77298W        W45692  40.575  29.391   3.644
77299W        W45693   4.442  15.273   1.323
77300W        W45694  11.109  41.578  10.604
77301W        W45695   4.428  16.018   9.939
77302W        W45696   1.817   1.709  14.610
77303W        W45697  31.640  35.504  14.842
77304W        W45698  26.383   0.503   0.472
77305W        W45699   8.950  27.268   4.404
77306W        W45700  24.556  43.983   2.706
77307W        W45701  41.859  27.135   2.862
77308W        W45702  42.995  43.072   0.401
77309W        W45703  35.320  41.533  13.649
77310W        W45704  18.626  32.513   0.636
77311W        W45705  33.621  17.743   2.651
77312W        W45706  10.226  16.766  10.955
77313W        W45707  29.232   7.743  11.463
77314W        W45708  13.130  23.279   1.235
77315W        W45709  26.085   0.819  13.288
77316W        W45710  25.453  22.582   3.144
77317W        W45711   2.710   9.850   0.297
77318W        W45712   8.244  36.335   0.709
77319W        W45713   6.427  17.292   0.890
77320W        W45714  41.445  14.356  14.026
77321W        W45715  13.366  29.532   3.588
77322W        W45716  27.163  30.191   4.087
77323W        W45717  17.722   4.278  13.830
77324W        W45718   8.354  37.684   1.312
77325W        W45719  12.583  26.693  12.474
77326W        W45720  17.575  41.283   3.609
77327W        W45721  32.187  32.451  12.425
77328W        W45722  24.671  37.845   1.822
77329W        W45723  37.968  14.595  11.940
77330W        W45724  16.688  19.656  10.476
77331W        W45725  42.964   7.364  12.133
77332W        W45726  34.337  39.259   2.886
77333W        W45727   0.467  18.546  11.197
77334W        W45728  31.085   4.276  10.750
77335W        W45729  32.205  33.398   5.199
77336W        W45730  15.006   9.698   1.833
77337W        W45731  23.468  15.753  14.795
77338W        W45732   7.034  17.190   1.837
77339W        W45733   7.817  14.698  14.421
77340W        W45734   1.675  26.832  11.107
77341W        W45735  20.207  32.435   2.219
77342W        W45736  10.644  38.363  14.950
77343W        W45737  27.725  14.774  11.921
77344W        W45738  21.039  42.694   4.614
77345W        W45739   8.700  11.482   2.369
77346W        W45740  26.104   5.114   2.655
77347W        W45741   9.496  42.588   2.993
77348W        W45742  21.172   3.362   3.733
77349W        W45743  29.076  32.047  12.940
77350W        W45744  21.072  22.057  12.132
77351W        W45745  16.141  16.785   1.814
77352W        W45746  17.614  42.313  12.869
77353W        W45747  15.247   6.090   3.303
77354W        W45748  17.582  32.370   3.804
77355W        W45749  37.391   0.193  12.176
77356W        W45750  15.347  19.782   0.830
77357W        W45751  35.651  18.064   4.801
77358W        W45752  25.978  42.816  14.840
77359W        W45753  44.432  22.730   4.545
77360W        W45754  20.128  15.125  12.168
77361W        W45755  26.390  26.434  12.784
77362W        W45756  26.245  17.228   0.296
77363W        W45757  14.297  14.190   2.216
77364W        W45758  10.112  20.205   0.810
77365W        W45759  14.781  34.978  12.184
77366W        W45760   0.119  16.970  13.861
77367W        W45761   4.400  39.188  10.367
77368W        W45762  18.683  25.995  14.386
77369W        W45763  39.328  25.113  11.077
77370W        W45764  24.648  25.959  12.682
77371W        W45765  38.016   5.792   0.594
77372W        W45766  28.315  19.726  14.916
77373W        W45767  32.426   9.817  12.279
77374W        W45768   9.454   7.387   3.631
77375W        W45769  16.480  41.264  14.780
77376W        W45770  38.080   3.848   3.541
77377W        W45771  12.511  40.547  12.972
77378W        W45772  14.414  23.040   2.257
77379W        W45773  26.100  11.600   2.787
77380W        W45774  26.973  11.147   9.909
77381W        W45775  25.963   1.294   2.649
77382W        W45776  29.974  15.681   3.876
77383W        W45777  22.815  14.696  12.496
77384W        W45778  42.000   2.748  14.283
77385W        W45779   9.396  11.792  13.839
77386W        W45780  12.770  15.881  13.816
77387W        W45781  30.636  15.491   1.932
77388W        W45782  43.988  15.610  11.488
77389W        W45783  41.304  24.564   3.229
77390W        W45784  24.550  41.199  12.188
77391W        W45785   5.266  24.744   0.405
77392W        W45786  26.427   7.009  11.910
77393W        W45787   4.307  35.047  12.484
77394W        W45788  36.543  38.182   0.707
77395W        W45789  44.453   9.337  10.644
77396W        W45790  13.981  18.121   1.792
77397W        W45791  28.424   3.698  13.590
77398W        W45792  34.508  25.136  12.546
77399W        W45793   5.908   3.376  12.398
77400W        W45794   6.242  42.935   3.918
77401W        W45795  14.248  33.402   4.004
77402W        W45796  29.672  13.582   1.177
77403W        W45797  43.107  13.288   5.136
77404W        W45798  35.794  11.664  14.292
77405W        W45799   7.882  34.732   4.672
77406W        W45800  44.459   5.773  12.848
77407W        W45801  41.993   6.970  12.158
77408W        W45802   3.315  11.913  13.887
77409W        W45803  15.589  27.600  12.526
77410W        W45804  42.012  35.544  13.141
77411W        W45805  38.297   8.220  14.118
77412W        W45806   9.869  39.526  10.694
77413W        W45807  26.826  37.464  11.550
77414W        W45808  23.092   3.452   1.890
77415W        W45809  14.615  32.161   4.702
77416W        W45810  12.627  24.605   1.365
77417W        W45811   9.112  25.279  10.464
77418W        W45812  14.844  28.895   2.690
77419W        W45813   2.359  38.539   0.821
77420W        W45814   9.636   0.529   3.299
77421W        W45815   7.255  36.104  14.327
77422W        W45816  26.301  32.509  12.506
77423W        W45817   4.660  12.604  14.267
77424W        W45818  34.385  36.939   1.359
77425W        W45819  17.102   0.344   3.664
77426W        W45820  17.002  10.658  11.485
77427W        W45821   4.421   1.586   0.831
77428W        W45822  14.785  36.878   3.595
77429W        W45823  28.973  22.721  13.230
77430W        W45824  35.822  13.448  11.213
77431W        W45825  13.702  16.704   4.318
77432W        W45826   2.909  40.322  14.353
77433W        W45827   6.633   0.892   3.839
77434W        W45828  37.060   2.417  12.906
77435W        W45829  41.965  32.353   0.662
77436W        W45830   5.709  41.309  14.254
77437W        W45831  15.849  32.404  14.139
77438W        W45832   4.435  14.033   1.272
77439W        W45833  15.669  32.713  12.439
77440W        W45834  13.679  44.391   1.248
77441W        W45835  34.658   2.769  12.879
77442W        W45836  15.111  40.462  10.223
77443W        W45837  42.988   5.432  13.510
77444W        W45838   0.316  25.052  13.191
77445W        W45839  38.625  19.207   4.164
77446W        W45840   1.317  15.122  11.456
77447W        W45841  25.559  24.199  13.922
77448W        W45842  42.264  40.029   4.738
77449W        W45843  14.512  33.390   0.361
77450W        W45844  22.214  18.369  11.546
77451W        W45845   5.225  26.320  13.492
77452W        W45846  16.325   8.235   4.795
77453W        W45847  27.959  37.130  10.482
77454W        W45848   1.502  44.272  13.822
77455W        W45849  30.689  30.116  12.902
77456W        W45850   0.808  15.651  14.486
77457W        W45851   5.229   6.655   2.049
77458W        W45852  20.705  12.296   4.417
77459W        W45853  37.156  16.045  11.686
77460W        W45854  23.115  13.927  12.954
77461W        W45855   0.537  17.705   2.268
77462W        W45856   4.953   0.070  13.480
77463W        W45857  43.355  17.889   0.264
77464W        W45858  10.674  17.048   3.318
77465W        W45859  36.188  35.657   3.180
77466W        W45860  34.609  35.551   4.182
77467W        W45861  34.619  30.026   2.659
77468W        W45862  44.688  26.567   0.965
77469W        W45863   0.377   4.730   2.651
77470W        W45864   9.284  43.354   4.239
77471W        W45865  24.892  31.428   2.954
77472W        W45866  14.709  42.557   4.626
77473W        W45867  30.502  35.866   0.933
77474W        W45868  44.132   1.511   2.650
77475W        W45869   9.113  19.348   2.351
77476W        W45870   5.125  25.994   1.479
77477W        W45871  21.064  37.663  12.610
77478W        W45872  20.992  38.421  11.389
77479W        W45873  35.862  29.930  12.460
77480W        W45874   3.795  32.399   4.368
77481W        W45875   8.918  15.823   0.169
77482W        W45876  30.457  17.469   0.906
77483W        W45877   8.846  37.155  10.423
77484W        W45878  25.941   0.326  13.382
77485W        W45879  22.086   9.263  14.954
77486W        W45880  14.188  32.908   4.671
77487W        W45881  30.941   5.884   3.759
77488W        W45882  26.206  17.284  10.481
77489W        W45883  30.659  42.193   0.312
77490W        W45884  44.851  32.643   4.647
77491W        W45885  40.434   8.421   3.983
77492W        W45886  11.339  14.121  10.554
77493W        W45887   6.946   8.499   1.803
77494W        W45888  36.768  15.258   4.082
77495W        W45889   3.478  14.301  14.743
77496W        W45890   0.274  26.663  12.550
77497W        W45891  38.980   1.218   0.975
77498W        W45892  38.359  29.048   4.703
77499W        W45893  12.551  44.842  10.634
77500W        W45894  39.128  28.215  10.156
77501W        W45895  23.772  38.056   4.360
77502W        W45896  16.607   1.463  10.547
77503W        W45897   4.817   0.094  10.613
77504W        W45898  40.584  11.919   3.643
77505W        W45899  37.127  24.242  13.887
77506W        W45900   3.322  10.439  11.118
77507W        W45901  29.435   1.360   2.831
77508W        W45902  31.740  35.584  13.492
77509W        W45903  37.207  15.562   1.167
77510W        W45904  22.826  40.366  14.806
77511W        W45905  15.396  41.915  14.756
77512W        W45906  40.746  37.905   4.392
77513W        W45907   6.234  44.365   2.554
77514W        W45908  15.290  41.881  12.930
77515W        W45909  32.169  13.956  14.777
77516W        W45910   7.731   6.864  14.731
77517W        W45911  38.648  13.294   4.439
77518W        W45912  20.699  35.051  11.129
77519W        W45913  36.094  23.678  10.754
77520W        W45914   8.800  21.122  10.664
77521W        W45915  19.323  26.435   1.938
77522W        W45916  17.382  22.336  10.356
77523W        W45917  17.226   7.793  12.069
77524W        W45918  23.275  14.566  12.006
77525W        W45919  42.856  22.998   0.974
77526W        W45920  22.038  39.376  14.721
77527W        W45921  44.629  33.481   3.824
77528W        W45922  21.207   4.033  11.978
77529W        W45923  24.862  21.291   1.425
77530W        W45924  18.832  13.215   0.284
77531W        W45925  26.461  19.318  11.240
77532W        W45926   1.900  39.585  10.796
77533W        W45927  23.582  34.965   3.804
77534W        W45928  25.616  16.612   4.369
77535W        W45929  29.861  13.093  12.162
77536W        W45930  34.141  16.340   0.719
77537W        W45931  26.148  37.706   4.290
77538W        W45932  41.385  36.116   1.916
77539W        W45933  13.792  35.583   2.415
77540W        W45934   4.236  39.539  10.710
77541W        W45935  15.594  11.175   2.876
77542W        W45936  26.231  21.141  13.611
77543W        W45937  31.541   6.739   1.112
77544W        W45938  30.505  39.621   1.614
77545W        W45939  19.600  37.661  14.824
77546W        W45940  20.966   8.842  11.495
77547W        W45941   5.446  22.848  13.984
77548W        W45942  10.417  23.167  10.965
77549W        W45943  13.062  13.698   4.099
77550W        W45944  25.211  25.201  14.504
77551W        W45945   0.177  16.982   0.962
77552W        W45946  21.578  12.121  14.410
77553W        W45947  17.372  44.279   1.975
77554W        W45948  30.336   4.386  13.989
77555W        W45949  36.857   2.793   0.870
77556W        W45950  29.109  22.765   0.404
77557W        W45951  27.012  28.530   1.371
77558W        W45952  34.440  30.894   4.250
77559W        W45953  32.256   6.829  13.423
77560W        W45954  39.864  35.310   3.576
77561W        W45955  13.675  38.501  10.384
77562W        W45956  16.776  27.054  14.740
77563W        W45957  30.120  25.085  11.570
77564W        W45958   8.763  30.223   4.279
77565W        W45959  32.984   9.941  13.513
77566W        W45960  20.502  11.875  13.373
77567W        W45961  19.098  30.926   1.356
77568W        W45962  27.547  40.823  12.461
77569W        W45963  16.223  13.954  12.503
77570W        W45964  30.507   0.748   4.757
77571W        W45965   6.938   9.206  14.568
77572W        W45966  23.968  33.815   4.448
77573W        W45967  17.597   3.827   4.305
77574W        W45968  14.227  12.098   1.304
77575W        W45969   8.992   6.513   3.631
77576W        W45970  26.109  41.956  14.270
77577W        W45971   5.653  16.341  12.465
77578W        W45972  31.497  27.137   1.914
77579W        W45973  26.699  40.045  13.049
77580W        W45974  30.592  29.810  11.386
77581W        W45975  37.888  15.825  12.941
77582W        W45976   6.364  20.571   1.390
77583W        W45977  19.291  10.271   3.892
77584W        W45978  35.622  17.605  12.444
77585W        W45979  23.493  17.300  12.567
77586W        W45980  26.035  38.410   0.425
77587W        W45981  16.782  20.189   0.436
77588W        W45982  24.624  23.760   4.840
77589W        W45983   6.890   4.831  13.901
77590W        W45984  42.101  34.949   4.760
77591W        W45985  25.169  19.205  10.663
77592W        W45986  26.705  37.529  10.793
77593W        W45987   0.288  18.275  11.597
77594W        W45988  44.447  15.273   1.810
77595W        W45989  19.852  14.336  11.124
77596W        W45990  26.126  32.415   4.282
77597W        W45991  19.087  10.902   0.846
77598W        W45992  40.162  44.351   3.220
77599W        W45993  25.927  17.069   1.290
77600W        W45994  43.944  38.558   2.705
77601W        W45995   6.387  33.082  12.373
77602W        W45996  22.016   2.805   4.673
77603W        W45997  20.215  21.586  11.549
77604W        W45998  20.583  25.575  10.420
77605W        W45999  33.566  24.238  14.244
77606W        W46000  21.103  43.269   3.809
77607W        W46001   1.539  22.594   0.912
77608W        W46002  37.099  15.134   2.241
77609W        W46003  43.287  36.659   0.110
77610W        W46004  12.663   7.272   5.051
77611W        W46005  44.031  11.709   1.225
77612W        W46006  19.978  23.640  12.089
77613W        W46007  24.244  29.600   1.895
77614W        W46008  17.887   2.875   0.287
77615W        W46009  21.148   5.132   0.871
77616W        W46010  10.192  30.556   2.829
77617W        W46011  41.441   1.027   4.731
77618W        W46012  40.783   6.785  13.039
77619W        W46013  13.842  20.610  11.961
77620W        W46014  39.397  39.117   3.193
77621W        W46015  20.345  17.071  13.996
77622W        W46016  15.788  10.938   1.950
77623W        W46017   7.436  11.013  13.497
77624W        W46018  32.569  20.182  11.187
77625W        W46019  30.892  42.370   4.160
77626W        W46020  25.074   3.734   2.703
77627W        W46021  43.927  28.890   3.720
77628W        W46022   2.405  33.528   0.839
77629W        W46023  16.820   5.721  13.422
77630W        W46024   7.202  14.226  14.316
77631W        W46025  43.785  10.303   2.696
77632W        W46026  34.728  29.017   3.284
77633W        W46027  20.764  18.490   0.130
77634W        W46028  19.595  28.476  12.998
77635W        W46029  27.538   6.699  12.927
77636W        W46030  31.646   8.789  12.083
77637W        W46031  35.957  23.798   2.979
77638W        W46032  17.683  12.816   1.668
77639W        W46033  37.919  28.697   3.102
77640W        W46034  18.756   9.702  12.547
77641W        W46035  18.784  22.873  12.404
77642W        W46036  43.893  44.352   2.912
77643W        W46037  39.138  22.704   2.920
77644W        W46038  25.551  44.280  12.858
77645W        W46039  11.762  37.806   2.740
77646W        W46040  20.351   4.601   0.442
77647W        W46041   7.371  12.956  13.589
77648W        W46042  10.681   0.691   2.646
77649W        W46043  34.440   6.212  10.486
77650W        W46044  22.499  31.068   4.165
77651W        W46045  28.656   1.329  13.105
77652W        W46046  14.991  24.162   2.069
77653W        W46047  42.721   5.788   1.323
77654W        W46048  35.357   7.124  12.231
77655W        W46049  41.050  13.168  11.785
77656W        W46050  10.116  19.963  11.033
77657W        W46051  41.536  22.608   4.206
77658W        W46052  37.233  26.138  11.344
77659W        W46053   5.138   8.211   2.312
77660W        W46054  31.994  19.228  14.306
77661W        W46055  10.149   2.185   4.610
77662W        W46056  38.339  27.543   1.707
77663W        W46057  21.480   2.864   4.593
77664W        W46058   0.207  16.129   1.334
77665W        W46059  25.362  37.225   0.936
77666W        W46060   8.139   0.714  13.418
77667W        W46061  21.015  31.406   0.314
77668W        W46062  25.002  31.806   2.149
77669W        W46063  44.678  35.042  13.783
77670W        W46064  30.784  34.604   1.129
77671W        W46065  35.400  18.728  14.893
77672W        W46066  25.038  40.769   3.303
77673W        W46067  19.299   9.167  13.335
77674W        W46068  42.577   5.484   2.771
77675W        W46069  31.765  31.610   3.539
77676W        W46070  41.765  16.321   3.259
77677W        W46071  30.113  34.887  13.923
77678W        W46072  43.733  36.331   1.767
77679W        W46073  19.590  41.287   1.298
77680W        W46074  20.070  30.366  10.432
77681W        W46075   5.189  43.849  13.902
77682W        W46076  41.259   1.030   2.115
77683W        W46077   0.236  44.193  13.878
77684W        W46078  38.482  23.482  10.255
77685W        W46079  42.288  39.908  12.103
77686W        W46080  25.685  24.610  12.966
77687W        W46081  41.971  44.327   4.104
77688W        W46082  29.190  10.871   4.132
77689W        W46083  19.830  17.233   2.334
77690W        W46084   2.524  38.308  11.097
77691W        W46085  29.496  15.902   3.321
77692W        W46086   5.701  38.808  13.456
77693W        W46087  31.872  39.332   2.257
77694W        W46088  20.228  19.866  10.229
77695W        W46089  12.398  13.226  12.473
77696W        W46090  36.078  22.717   4.111
77697W        W46091  41.161  12.502   0.976
77698W        W46092  25.927  28.066   1.755
77699W        W46093  11.187   4.831   4.394
77700W        W46094   9.903   0.375  12.820
77701W        W46095  42.491  41.273   0.233
77702W        W46096  13.571  16.890  13.970
77703W        W46097  28.971  20.274  13.411
77704W        W46098  12.291  26.122   2.884
77705W        W46099  40.481  33.865   0.195
77706W        W46100   4.908   1.759  13.870
77707W        W46101   8.962   9.498  14.328
77708W        W46102   8.377   3.224  14.424
77709W        W46103  14.256  18.965  13.716
77710W        W46104  25.453  16.117  10.712
77711W        W46105  26.174   6.352   2.234
77712W        W46106  13.156  18.449  11.734
77713W        W46107   8.900  18.087  11.212
77714W        W46108   3.916  42.985  14.894
77715W        W46109  31.292  31.754   4.928
77716W        W46110  22.617  26.252   0.244
77717W        W46111  37.534   1.403  10.744
77718W        W46112   9.354   1.894  12.968
77719W        W46113  10.902  13.208   1.966
77720W        W46114   1.935  38.873  14.001
77721W        W46115  37.850  38.833   0.294
77722W        W46116  12.852  24.588   2.576
77723W        W46117  39.726  41.430   1.869
77724W        W46118  25.310  42.492  10.648
77725W        W46119  21.706   6.588   1.248
77726W        W46120  26.487  23.204  11.792
77727W        W46121  29.581   8.351   0.103
77728W        W46122  10.382   0.289  10.915
77729W        W46123   5.259  16.079  14.804
77730W        W46124  19.777  19.696   0.985
77731W        W46125  16.671  32.409  14.063
77732W        W46126  25.211  38.553  12.429
77733W        W46127  21.699  22.198  13.293
77734W        W46128   7.631  24.949  14.819
77735W        W46129  20.048   3.390   1.648
77736W        W46130  15.337  42.912  12.968
77737W        W46131  16.053   2.317  11.711
77738W        W46132   5.603  15.304  13.576
77739W        W46133   9.610  14.539   0.339
77740W        W46134  19.281   1.419  14.872
77741W        W46135   4.097  44.886   2.148
77742W        W46136   0.762  13.404  13.365
77743W        W46137  40.906  15.599   1.090
77744W        W46138  25.022  16.077   3.690
77745W        W46139  14.095  40.897  13.340
77746W        W46140  25.254   8.326  13.090
77747W        W46141  23.951  24.739  14.919
77748W        W46142   2.878  18.121  12.370
77749W        W46143  28.244  11.821   1.845
77750W        W46144  34.152  40.801  10.777
77751W        W46145  28.115  31.975  13.896
77752W        W46146  39.114   8.197   1.324
77753W        W46147   9.749  26.426  12.851
77754W        W46148   5.261  44.020   4.210
77755W        W46149   9.242   3.793  13.119
77756W        W46150  16.175   0.072  12.079
77757W        W46151  11.316  14.790  14.383
77758W        W46152  15.843   8.771  14.432
77759W        W46153   8.824  23.088  11.148
77760W        W46154  18.654  21.091  10.125
77761W        W46155  17.035   4.364  10.670
77762W        W46156  19.598  22.775  12.141
77763W        W46157  26.533  26.555  13.298
77764W        W46158   7.760  13.297  14.406
77765W        W46159  41.611  33.072   1.406
77766W        W46160  27.910  34.128  11.059
77767W        W46161  36.466  30.676  11.081
77768W        W46162  12.578  22.293  11.583
77769W        W46163  35.942   8.539  11.441
77770W        W46164  32.462  17.742   2.330
77771W        W46165  14.306  34.501   4.699
77772W        W46166  21.009  39.770   0.851
77773W        W46167  26.186  13.245  12.916
77774W        W46168  23.707  11.575   2.258
77775W        W46169  39.973   4.949  13.564
77776W        W46170  10.131  12.683  12.613
77777W        W46171  30.259  30.180   2.030
77778W        W46172  27.918  10.125  11.385
77779W        W46173  25.478  33.635  10.681
77780W        W46174  31.124  24.335  13.597
77781W        W46175  40.007  10.784  13.650
77782W        W46176  44.884  41.689  11.658
77783W        W46177  29.412   4.874   2.926
77784W        W46178  41.938  29.970   4.506
77785W        W46179   2.783  39.723   1.260
77786W        W46180   7.221  16.769   2.758
77787W        W46181  31.655  32.281   4.249
77788W        W46182  43.531  43.378   0.873
77789W        W46183  35.046  36.904   3.739
77790W        W46184  10.311   3.237   0.284
77791W        W46185   0.157  21.320   2.351
77792W        W46186  32.923  24.545  13.058
77793W        W46187  11.746  23.134   4.666
77794W        W46188   1.779  29.878  13.932
77795W        W46189  33.496  23.577  14.935
77796W        W46190  29.070  36.642  13.384
77797W        W46191   9.807  31.680  13.960
77798W        W46192  17.830  11.721  14.326
77799W        W46193   3.402  26.748   4.066
77800W        W46194   9.360  12.770  10.992
77801W        W46195  26.173  30.407  11.914
77802W        W46196  28.097   0.770   1.643
77803W        W46197   8.411  30.395  12.192
77804W        W46198  43.726   9.325  11.984
77805W        W46199  39.613  37.762   1.027
77806W        W46200  28.367  41.511   2.839
77807W        W46201  10.770  10.620  14.056
77808W        W46202   8.375   5.461   4.055
77809W        W46203  29.869   2.360   0.593
77810W        W46204  30.343  36.940   0.632
77811W        W46205  29.857  25.173  14.079
77812W        W46206   8.338  10.117   1.310
77813W        W46207  12.318  23.461  12.503
77814W        W46208  24.627   9.043  14.869
77815W        W46209  43.780  15.760   1.461
77816W        W46210  38.859   2.803  12.333
77817W        W46211  16.225  32.792  11.191
77818W        W46212  29.192  32.539   3.452
77819W        W46213  35.943  28.395   3.717
77820W        W46214  17.841  42.948  13.827
77821W        W46215   3.440  36.523  10.748
77822W        W46216  23.472  31.862  11.094
77823W        W46217  30.093   0.022  13.922
77824W        W46218  32.409  11.203  11.191
77825W        W46219  37.404   1.892   0.901
77826W        W46220  37.002   2.409  14.502
77827W        W46221  20.636  20.480   3.248
77828W        W46222  17.628  27.215  14.351
77829W        W46223  13.412  36.821   2.270
77830W        W46224  23.758  26.521   4.161
77831W        W46225  19.685  19.621   4.460
77832W        W46226   0.669  31.495  10.341
77833W        W46227   3.193   9.222  14.780
77834W        W46228  12.156  40.039   0.775
77835W        W46229  27.649  36.400  12.093
77836W        W46230  38.808  33.754   2.376
77837W        W46231  16.405  24.022   0.007
77838W        W46232   5.568  26.468   1.744
77839W        W46233  20.800  40.899   4.999
77840W        W46234  16.615   1.817  13.886
77841W        W46235   8.759  30.424   1.819
77842W        W46236  27.681   2.950  11.419
77843W        W46237  20.466   0.760  13.437
77844W        W46238  40.382  23.612   4.411
77845W        W46239   6.849  33.758  12.034
77846W        W46240  13.857  38.104   2.284
77847W        W46241  17.673  38.363   4.310
77848W        W46242  44.683  32.562   2.389
77849W        W46243  33.390   0.814  12.615
77850W        W46244   2.118  40.841  11.695
77851W        W46245  40.407  18.848   4.064
77852W        W46246  26.557   6.765  11.491
77853W        W46247   9.251   0.332   2.899
77854W        W46248  32.039  18.254  14.440
77855W        W46249  14.493  18.812   0.848
77856W        W46250   6.937  38.316  12.186
77857W        W46251  14.123  28.651  12.564
77858W        W46252  21.446  12.703  11.629
77859W        W46253  34.880  12.164   1.358
77860W        W46254  29.657   3.493  14.028
77861W        W46255  17.276  36.108  12.139
77862W        W46256  21.080  16.158  14.999
77863W        W46257  24.881   1.907  13.038
77864W        W46258  34.842  12.299  10.607
77865W        W46259  26.418  28.247   0.114
77866W        W46260  11.960  42.336   2.376
77867W        W46261   1.483   8.287   0.871
77868W        W46262  10.458  29.036   3.670
77869W        W46263   6.694  21.271   3.253
77870W        W46264  15.287  11.884   4.584
77871W        W46265  29.414  13.831   2.350
77872W        W46266  27.209  40.452   0.802
77873W        W46267   0.754  29.581  12.964
77874W        W46268   6.950  38.411   3.186
77875W        W46269  10.873   6.293   3.859
77876W        W46270  25.884  22.543  11.516
77877W        W46271  43.338  33.059  12.537
77878W        W46272   5.290  23.784   3.610
77879W        W46273  35.964  28.407  12.850
77880W        W46274  39.085   0.354  13.614
77881W        W46275  37.089  10.614   4.742
77882W        W46276  28.584  28.196   2.815
77883W        W46277  40.922  26.620  12.978
77884W        W46278  37.985  32.393   3.847
77885W        W46279  37.039  30.876   1.784
77886W        W46280  41.460  22.170  12.995
77887W        W46281  19.761   5.786   4.602
77888W        W46282  21.829  32.563  11.878
77889W        W46283  12.696  18.150   4.604
77890W        W46284  29.093  14.035  12.731
77891W        W46285  10.441  20.251   2.708
77892W        W46286  33.024  20.079  10.424
77893W        W46287  17.499   3.309   2.812
77894W        W46288  33.462  19.043   0.752
77895W        W46289   1.767  35.089  14.271
77896W        W46290  20.294  19.805  11.107
77897W        W46291  29.995  36.063   3.840
77898W        W46292  28.554  28.431   1.511
77899W        W46293  24.938  42.563  14.239
77900W        W46294  11.807  16.511   3.597
77901W        W46295  19.953  28.669   4.181
77902W        W46296  14.422  14.565  13.057
77903W        W46297   2.441  44.813  11.541
77904W        W46298   5.656  30.043  12.986
77905W        W46299  35.918  19.021   2.438
77906W        W46300  33.037  34.297  14.648
77907W        W46301   9.394  33.409  13.783
77908W        W46302  14.832  30.431   3.684
77909W        W46303   1.853  38.974  11.140
77910W        W46304  44.955  12.698  11.632
77911W        W46305  11.191  26.919   1.652
77912W        W46306  19.543  17.785  13.369
77913W        W46307  37.318  44.928   0.345
77914W        W46308  22.356  23.914   0.315
77915W        W46309  15.629  20.276   1.923
77916W        W46310   1.444   6.731   4.667
77917W        W46311   9.956   7.772   5.056
77918W        W46312  20.637  13.342  12.938
77919W        W46313   8.816  28.027  14.482
77920W        W46314  16.797  25.664  11.647
77921W        W46315  26.110  27.179   1.903
77922W        W46316  33.968  36.437  10.484
77923W        W46317  24.299  14.552   0.024
77924W        W46318  15.171  29.196  10.410
77925W        W46319  23.827  36.858   3.337
77926W        W46320  12.611   8.665   0.240
77927W        W46321  41.132   3.211   0.416
77928W        W46322  27.174   2.992   4.932
77929W        W46323   3.381  24.583  10.814
77930W        W46324   0.076  44.404  11.478
77931W        W46325   0.258  11.966   1.719
77932W        W46326  34.927   7.355   9.745
77933W        W46327   2.335  42.602   4.278
77934W        W46328  36.486  25.788   4.274
77935W        W46329   7.560  28.131   3.241
77936W        W46330  12.188  15.534  13.589
77937W        W46331  40.807  23.763   0.912
77938W        W46332  26.837   1.493   1.385
77939W        W46333  34.079  40.849   1.576
77940W        W46334  13.790   5.902   3.110
77941W        W46335  31.609   0.077  14.370
77942W        W46336  26.846  43.982   2.202
77943W        W46337  25.946   8.288  10.747
77944W        W46338  18.982   9.671  12.093
77945W        W46339  38.811  37.731  10.230
77946W        W46340  17.230  10.400  12.565
77947W        W46341  27.606  43.271   4.171
77948W        W46342  29.561  10.186   4.945
77949W        W46343   3.597  22.473  14.866
77950W        W46344  25.886   0.419   0.307
77951W        W46345   9.894  40.107   2.097
77952W        W46346  38.500  36.784  14.290
77953W        W46347  31.525   4.897  12.487
77954W        W46348  13.387  22.195  12.641
77955W        W46349   9.262   2.204   3.539
77956W        W46350   9.021  35.607   3.536
77957W        W46351   4.843  36.393  10.713
77958W        W46352  26.557  13.691   0.438
77959W        W46353  28.458   7.794   3.181
77960W        W46354  34.887  16.281   4.169
77961W        W46355  40.991  41.577  12.062
77962W        W46356   2.799   8.222   3.861
77963W        W46357  44.336  29.359  10.685
77964W        W46358  38.398  26.930   0.819
77965W        W46359  32.914  14.007  10.746
77966W        W46360  34.888   4.529   3.862
77967W        W46361  23.954  36.049  11.631
77968W        W46362  20.512  31.447   1.261
77969W        W46363   3.210  11.815   2.166
77970W        W46364  34.023   5.716  10.389
77971W        W46365  26.995  42.401   0.376
77972W        W46366   2.944  29.236  11.140
77973W        W46367  42.012  12.073   2.722
77974W        W46368   3.462   1.289  12.604
77975W        W46369   3.357  40.985  11.560
77976W        W46370  29.712  40.711   3.019
77977W        W46371  25.901  11.175   1.258
77978W        W46372  40.394  28.498   2.690
77979W        W46373  27.936  38.917   3.318
77980W        W46374  21.291  12.181  10.438
77981W        W46375  13.802  28.904  10.599
77982W        W46376  21.220   3.926  11.100
77983W        W46377   0.812   1.082   0.882
77984W        W46378   9.713  23.115   1.831
77985W        W46379  40.423   4.887  12.853
77986W        W46380  27.748   4.236  13.044
77987W        W46381  27.588   0.261   2.369
77988W        W46382  38.912   2.580   1.276
77989W        W46383  39.444  17.190   1.838
77990W        W46384  27.757   1.257   2.473
77991W        W46385  43.450  21.065   1.480
77992W        W46386   5.045  23.645  12.930
77993W        W46387   1.492  35.016  10.764
77994W        W46388  29.446   4.893   1.261
77995W        W46389  18.101  40.377   2.191
77996W        W46390  44.532  33.420  11.825
77997W        W46391  16.029  19.994  13.961
77998W        W46392  19.493   0.301  13.165
77999W        W46393   8.298  40.278  11.968
78000W        W46394  15.209   5.959  11.175
78001W        W46395  35.510  14.123   3.137
78002W        W46396   8.762  30.966   3.584
78003W        W46397   6.426  25.022   2.389
78004W        W46398  15.880  41.776  14.937
78005W        W46399  30.804  41.686   0.425
78006W        W46400  13.294  11.277   3.208
78007W        W46401  23.300   9.988  11.185
78008W        W46402  12.440  21.678  14.103
78009W        W46403  37.556  17.132   1.763
78010W        W46404  42.599  22.265  11.107
78011W        W46405  24.843  36.895   0.209
78012W        W46406  22.977  34.006  14.499
78013W        W46407  44.062  34.558  10.322
78014W        W46408   9.020  42.826  14.216
78015W        W46409  16.679   0.780   1.274
78016W        W46410  38.808  17.150  11.153
78017W        W46411   8.411  38.951   3.649
78018W        W46412  16.780   4.343   2.269
78019W        W46413  43.441   5.281  12.431
78020W        W46414  20.780   7.622  14.516
78021W        W46415  35.509   3.288   1.770
78022W        W46416  42.904  35.432   4.547
78023W        W46417  33.667   0.696   0.662
78024W        W46418  42.001  16.162  14.015
78025W        W46419  30.989  22.210   2.817
78026W        W46420  29.415  27.137   0.305
78027W        W46421  18.918  40.375  11.630
78028W        W46422  24.252   1.419   4.155
78029W        W46423   2.761  13.333   1.260
78030W        W46424  10.316  19.790  14.444
78031W        W46425  22.989  10.287   3.912
78032W        W46426  11.685  38.181   4.874
78033W        W46427  17.641  43.741   2.387
78034W        W46428   7.210  20.937  13.404
78035W        W46429  15.825   1.485   2.691
78036W        W46430   9.824  37.536   0.933
78037W        W46431   3.204   8.321  12.813
78038W        W46432  41.506  29.859   0.805
78039W        W46433  25.655   5.386   2.675
78040W        W46434  24.901   0.555   4.192
78041W        W46435  19.884  16.196  10.500
78042W        W46436  26.053  40.069  11.245
78043W        W46437  14.011  35.060   4.616
78044W        W46438   8.441  13.328   4.159
78045W        W46439  25.523  15.116   3.930
78046W        W46440   8.120  18.130   0.503
78047W        W46441  33.051  19.793   3.724
78048W        W46442  38.057  32.360  11.969
78049W        W46443  23.546  42.540  10.802
78050W        W46444   6.287  44.699   0.870
78051W        W46445  41.536   4.922   2.145
78052W        W46446   9.665  20.715   4.410
78053W        W46447  33.987   8.454  10.553
78054W        W46448   2.318  16.782   2.731
78055W        W46449  40.475   0.663   4.153
78056W        W46450  15.761   4.367   4.918
78057W        W46451  23.151  35.249   4.813
78058W        W46452  21.636  16.917  11.120
78059W        W46453  28.148  20.528  13.856
78060W        W46454   4.414  43.721   3.278
78061W        W46455  24.099  34.123   1.258
78062W        W46456  17.494  25.707   2.740
78063W        W46457  32.022  40.219   4.101
78064W        W46458  13.812   4.345  13.262
78065W        W46459  15.718  32.398  12.009
78066W        W46460  41.793  29.835   2.158
78067W        W46461   8.814  12.914  10.303
78068W        W46462   9.378  23.807   2.723
78069W        W46463  13.418   1.800   0.308
78070W        W46464   9.287  18.350   0.903
78071W        W46465  14.134  41.224   1.989
78072W        W46466  24.002  33.127   2.820
78073W        W46467  32.876  15.037  14.794
78074W        W46468  34.011   5.264   1.486
78075W        W46469   2.195  44.329   2.832
78076W        W46470  22.592  22.584   1.357
78077W        W46471  26.050  19.521   1.333
78078W        W46472   6.050  34.119  12.938
78079W        W46473  22.242  39.082  12.944
78080W        W46474  12.525   4.493   2.837
78081W        W46475  19.666  22.782  12.677
78082W        W46476  40.733  11.833   0.072
78083W        W46477  30.827   5.896  12.031
78084W        W46478  36.098  23.102   1.863
78085W        W46479  44.528  32.193   0.424
78086W        W46480  28.158  31.319  11.686
78087W        W46481   2.212  33.806   2.366
78088W        W46482  33.187  19.581   1.623
78089W        W46483  11.911   0.797   3.789
78090W        W46484   2.236  14.043  14.013
78091W        W46485  10.953  29.779  12.557
78092W        W46486  11.858  17.476  11.689
78093W        W46487  39.825   5.790   0.215
78094W        W46488  39.946  12.465   2.424
78095W        W46489   8.727   8.637   1.951
78096W        W46490  37.019  27.929  13.386
78097W        W46491  17.176  43.609  13.855
78098W        W46492   5.190  18.661  10.942
78099W        W46493  15.596  38.434  13.460
78100W        W46494  37.610  22.411   3.228
78101W        W46495   3.964   1.219   2.681
78102W        W46496  11.864  20.486   4.146
78103W        W46497  11.630  34.051  12.561
78104W        W46498   4.939  11.812  11.997
78105W        W46499  29.028  11.527   3.135
78106W        W46500  37.271  18.834  11.967
78107W        W46501   0.917  26.190   1.220
78108W        W46502   8.889   8.785  13.402
78109W        W46503   7.170   9.201   2.370
78110W        W46504   4.959  38.379  13.521
78111W        W46505  18.342  17.330  14.827
78112W        W46506  35.005  22.711   0.813
78113W        W46507  37.381  37.031   2.630
78114W        W46508  17.782   0.083  12.031
78115W        W46509  16.069  14.315   1.826
78116W        W46510  12.562   6.736   3.766
78117W        W46511  13.562  12.298   3.168
78118W        W46512  27.786  38.848   4.662
78119W        W46513  13.703  27.636   3.444
78120W        W46514   3.688   7.682   4.773
78121W        W46515  42.636  44.820   1.918
78122W        W46516   0.988  32.865  10.741
78123W        W46517  29.509  16.889  11.968
78124W        W46518  17.140  31.895   1.837
78125W        W46519   3.272  42.421   0.135
78126W        W46520  11.461  17.868   2.256
78127W        W46521   0.243  42.864   1.419
78128W        W46522  18.464  30.445   4.877
78129W        W46523  25.641   0.359  12.064
78130W        W46524  10.587  40.105  10.492
78131W        W46525  42.851  19.293   1.728
78132W        W46526   9.936  44.154  11.544
78133W        W46527  20.810   5.411  11.188
78134W        W46528   2.878  27.973  10.555
78135W        W46529   3.730  22.149  13.386
78136W        W46530   9.228  37.988   0.912
78137W        W46531  28.930  27.029   2.700
78138W        W46532  12.043   5.359   3.548
78139W        W46533  31.042  35.407   3.135
78140W        W46534   7.258   6.420  12.856
78141W        W46535  11.317  36.756  11.149
78142W        W46536  13.534  18.235  13.219
78143W        W46537   0.822  39.432  10.400
78144W        W46538  27.669  43.545   2.286
78145W        W46539  15.088  21.646   1.730
78146W        W46540  40.238   7.387  10.757
78147W        W46541  24.525  30.573  14.232
78148W        W46542   5.975   2.201  13.311
78149W        W46543  26.623  29.519   1.273
78150W        W46544  34.023   8.594  11.049
78151W        W46545   2.451  39.015   4.555
78152W        W46546   1.749  12.519   0.837
78153W        W46547   0.842  35.110   2.420
78154W        W46548  28.463  14.671   0.645
78155W        W46549  35.181  22.556   3.529
78156W        W46550  15.188  38.366  14.747
78157W        W46551  38.387  29.656   0.814
78158W        W46552  11.684  40.938   3.848
78159W        W46553  40.584  35.875   3.238
78160W        W46554  16.021  24.974   0.973
78161W        W46555  21.662  11.347   0.729
78162W        W46556  16.839  15.612  11.954
78163W        W46557  16.736  13.365   4.129
78164W        W46558  44.012   8.244   4.572
78165W        W46559  35.999   9.333  12.679
78166W        W46560  22.214  41.472  11.094
78167W        W46561  35.543   7.685  11.131
78168W        W46562  40.409  37.092  12.533
78169W        W46563  39.253  21.629  13.034
78170W        W46564   0.257  11.276  12.405
78171W        W46565  32.383  36.434  13.536
78172W        W46566   7.726  19.477   0.391
78173W        W46567   5.974  19.510  10.978
78174W        W46568  13.738  34.036  11.503
78175W        W46569  41.309  14.273   1.455
78176W        W46570  15.319  29.112  11.050
78177W        W46571  27.198  33.279  14.484
78178W        W46572  35.090  39.002  14.921
78179W        W46573  23.471  20.802   1.683
78180W        W46574  11.691  28.091   1.255
78181W        W46575  33.555  10.329  11.207
78182W        W46576  13.852  29.653   0.862
78183W        W46577  10.642  39.260  12.538
78184W        W46578  24.167  27.465   3.701
78185W        W46579   9.264   7.693   2.613
78186W        W46580  41.395  11.598  11.748
78187W        W46581   0.007   8.931  12.544
78188W        W46582   6.666  16.318  11.230
78189W        W46583   1.238  44.461   0.172
78190W        W46584   9.828  18.801   2.668
78191W        W46585   5.806  42.679   3.185
78192W        W46586   7.588  14.341  12.591
78193W        W46587  25.214  19.174  12.880
78194W        W46588  26.722   1.953  10.911
78195W        W46589  10.676  30.900  11.897
78196W        W46590  22.461  31.937  14.355
78197W        W46591  42.821  13.463   3.036
78198W        W46592  10.086  32.528  11.579
78199W        W46593  10.794  13.685  11.195
78200W        W46594  40.952  32.781   1.633
78201W        W46595  13.497  40.822  14.573
78202W        W46596   2.335  16.131   1.581
78203W        W46597   2.029  18.225   3.762
78204W        W46598  29.093  10.433  14.317
78205W        W46599  25.288   4.230  11.867
78206W        W46600  34.885  37.487   3.057
78207W        W46601  35.845   6.595  12.980
78208W        W46602  44.553  16.144  10.760
78209W        W46603  10.833  27.398   4.465
78210W        W46604  41.323  41.893   4.556
78211W        W46605  37.936  39.304  13.878
78212W        W46606  21.314  29.373  11.633
78213W        W46607  32.371  31.470  14.819
78214W        W46608  40.000  12.935  10.621
78215W        W46609  10.276  14.434   1.961
78216W        W46610  38.941  15.996   1.646
78217W        W46611  24.739  34.974   2.348
78218W        W46612   2.108  19.488  14.801
78219W        W46613  26.148  25.484  13.836
78220W        W46614   2.864   6.672  14.894
78221W        W46615  35.438  28.535   4.656
78222W        W46616  19.576   1.522  11.807
78223W        W46617  41.328   2.792  14.865
78224W        W46618  21.678   4.464   4.686
78225W        W46619   2.332  23.450  12.246
78226W        W46620   2.576  26.685  10.914
78227W        W46621  12.414  43.781   1.153
78228W        W46622  12.827  16.600   1.197
78229W        W46623  26.798  13.502   1.785
78230W        W46624  29.053  38.884  14.949
78231W        W46625  11.513  30.895   0.178
78232W        W46626  10.618  29.590   2.804
78233W        W46627  15.615  12.845  12.940
78234W        W46628  11.661  36.404  10.216
78235W        W46629  44.946  42.436   1.181
78236W        W46630  16.450  16.178  14.195
78237W        W46631   8.262  41.848  11.661
78238W        W46632  41.424  25.914  12.944
78239W        W46633  21.800  16.283   3.029
78240W        W46634  35.881  26.988  13.167
78241W        W46635  19.161  13.901  11.675
78242W        W46636  29.597   7.328  12.101
78243W        W46637  27.141   9.350   2.347
78244W        W46638   2.488  33.149  12.986
78245W        W46639   2.923  34.242   1.184
78246W        W46640  16.043  16.057  10.248
78247W        W46641  21.762  13.528   1.183
78248W        W46642  13.008  12.826   3.271
78249W        W46643   1.765  21.028   1.224
78250W        W46644  42.512  18.621   0.827
78251W        W46645   1.874  37.003  10.293
78252W        W46646  18.064  18.702  14.885
78253W        W46647  16.109  11.113  12.002
78254W        W46648  13.096  17.670  10.727
78255W        W46649  39.592  16.659  14.722
78256W        W46650  38.304  19.066  14.258
78257W        W46651  16.133  24.940   1.486
78258W        W46652  38.835  41.345  12.535
78259W        W46653  32.487  27.400   2.117
78260W        W46654  34.422  43.259  11.228
78261W        W46655  43.134   8.265  11.602
78262W        W46656   5.573   9.331  10.717
78263W        W46657  34.137  24.681   3.833
78264W        W46658  15.276  25.621  13.254
78265W        W46659   7.695  20.822   3.733
78266W        W46660  14.654  20.969   2.216
78267W        W46661  10.761  10.613   4.643
78268W        W46662  33.161  19.752   0.640
78269W        W46663  35.173  13.337  13.679
78270W        W46664  27.719  38.428   3.176
78271W        W46665  42.962  32.125   3.675
78272W        W46666   2.163  18.541  11.340
78273W        W46667  30.470  32.108   2.467
78274W        W46668  11.061  38.390  12.510
78275W        W46669   0.430  44.101  12.935
78276W        W46670  24.522  34.933  11.418
78277W        W46671  10.114  33.420   2.330
78278W        W46672  37.403  37.268  14.661
78279W        W46673  23.603  44.859  12.627
78280W        W46674   5.500  29.616   1.377
78281W        W46675  35.178   0.996  11.173
78282W        W46676   8.358  11.127   4.333
78283W        W46677  14.697   0.916   2.600
78284W        W46678  27.652  16.680   3.176
78285W        W46679   0.548  42.985   2.384
78286W        W46680  31.002   9.793   4.789
78287W        W46681  33.416   3.820   3.624
78288W        W46682  14.547  21.543  12.915
78289W        W46683  24.059   3.234  11.653
78290W        W46684  37.327  25.103   3.795
78291W        W46685   5.179  41.042   1.320
78292W        W46686  21.838  17.273   3.087
78293W        W46687  40.792  37.985  12.100
78294W        W46688  15.827  17.654   1.386
78295W        W46689  15.554  41.299  13.633
78296W        W46690  21.465   3.962  10.646
78297W        W46691  35.586  25.263   2.335
78298W        W46692  33.575   0.416  11.891
78299W        W46693  16.159  29.499   0.802
78300W        W46694  30.023   4.127   1.470
78301W        W46695  34.855   6.719  13.015
78302W        W46696   3.184   5.111  12.380
78303W        W46697   0.451  41.431  11.154
78304W        W46698   7.673  36.939  11.575
78305W        W46699  37.531  42.641  12.130
78306W        W46700  34.630  36.977  10.846
78307W        W46701  30.780  37.584   3.475
78308W        W46702  13.099  42.810  12.095
78309W        W46703   2.034  32.835  14.485
78310W        W46704  38.886  36.569  10.584
78311W        W46705  12.555  44.411   3.322
78312W        W46706  41.749  10.340  12.648
78313W        W46707   7.796   9.670   2.145
78314W        W46708  40.036  15.739   4.495
78315W        W46709  17.017  15.306   0.461
78316W        W46710  16.558  22.160   1.237
78317W        W46711  32.896   7.856  14.117
78318W        W46712   4.372  24.170  11.785
78319W        W46713  32.038  11.511   0.808
78320W        W46714  24.587  39.032   0.931
78321W        W46715  29.946  29.059   1.841
78322W        W46716  13.147   5.684   4.983
78323W        W46717  23.256  39.842   0.224
78324W        W46718  25.271   5.409  14.553
78325W        W46719  35.075  28.923  14.714
78326W        W46720   7.883  17.496   1.756
78327W        W46721  14.810  14.352   3.318
78328W        W46722  43.460  33.215  11.517
78329W        W46723  29.969  27.959  14.346
78330W        W46724  37.424   8.845   3.736
78331W        W46725  41.891  28.422   2.019
78332W        W46726  23.424   6.269  10.397
78333W        W46727  23.036  34.213   0.955
78334W        W46728  10.437  11.283   0.038
78335W        W46729  30.921  42.276   3.277
78336W        W46730  39.518  38.963  10.461
78337W        W46731  29.480  10.324  10.196
78338W        W46732  32.034   2.780  11.496
78339W        W46733  17.889  24.220   0.948
78340W        W46734   5.827  33.191  13.053
78341W        W46735  41.870  32.139   2.395
78342W        W46736  38.080   4.139  12.615
78343W        W46737  23.769  35.582   0.284
78344W        W46738  33.251  15.547   4.223
78345W        W46739  17.066  38.024  13.822
78346W        W46740  26.582  36.480  11.761
78347W        W46741  17.002  10.823  10.156
78348W        W46742  12.778  21.141  14.864
78349W        W46743  18.228  18.458  11.944
78350W        W46744   0.901  14.373  13.571
78351W        W46745  39.851  23.718   1.804
78352W        W46746   8.277   6.765   2.920
78353W        W46747   4.546  19.201   1.324
78354W        W46748  32.976  22.617  10.647
78355W        W46749  35.997  39.132   3.328
78356W        W46750  22.695  44.921   4.262
78357W        W46751  21.036  40.070  13.573
78358W        W46752  20.817  44.423   2.794
78359W        W46753  14.474  41.812  11.934
78360W        W46754   5.787  34.174   1.237
78361W        W46755   6.868  38.543  10.689
78362W        W46756  20.542  36.237   1.448
78363W        W46757  12.041  34.999   4.133
78364W        W46758  23.568  24.200  11.041
78365W        W46759  28.678  38.978   0.867
78366W        W46760  36.057  41.629   3.050
78367W        W46761  39.794  15.558   4.093
78368W        W46762  29.486   7.598   3.174
78369W        W46763  29.595   6.906  11.086
78370W        W46764   1.274   0.669   3.527
78371W        W46765   7.802  18.015   4.137
78372W        W46766  26.922  36.338  11.132
78373W        W46767  35.997  39.122  13.912
78374W        W46768  33.209   0.403  14.473
78375W        W46769  18.593  43.377   1.874
78376W        W46770  35.364  27.601   4.683
78377W        W46771   2.666  43.391   1.647
78378W        W46772  29.476  44.056  14.408
78379W        W46773  42.843   0.316   3.157
78380W        W46774  14.459  33.079  11.584
78381W        W46775  15.812  42.264  14.823
78382W        W46776  26.819  44.324  14.848
78383W        W46777  43.058  15.542   4.595
78384W        W46778  38.077  20.392   1.796
78385W        W46779   6.150   3.881  11.210
78386W        W46780  16.174   5.250   1.393
78387W        W46781  37.434  29.106   1.727
78388W        W46782  26.928  43.826  14.789
78389W        W46783  28.303  27.990  11.722
78390W        W46784   9.782  15.631  13.836
78391W        W46785   2.493   7.328  14.095
78392W        W46786  37.380  41.976  11.533
78393W        W46787   3.665   4.136   1.762
78394W        W46788  14.832  10.295   0.312
78395W        W46789  35.463  29.497  13.977
78396W        W46790  26.839  40.719   1.808
78397W        W46791  30.471  18.961  14.585
78398W        W46792  25.293  30.333  11.964
78399W        W46793   3.181  44.534   0.345
78400W        W46794  27.427  17.824   0.766
78401W        W46795  37.281  30.341   2.302
78402W        W46796  40.040  19.231   1.301
78403W        W46797  20.560  41.536  11.411
78404W        W46798  12.304   3.371  14.106
78405W        W46799  26.564  11.601  12.895
78406W        W46800  40.225  41.371   1.706
78407W        W46801  12.259   6.427   4.102
78408W        W46802   7.804   0.220  11.124
78409W        W46803   3.231  41.718  14.367
78410W        W46804  32.328   7.185   1.109
78411W        W46805  25.640  30.415  14.034
78412W        W46806  15.232  42.089  13.831
78413W        W46807  38.971   1.528   1.423
78414W        W46808  15.947  18.522  12.027
78415W        W46809  17.034  28.893  11.480
78416W        W46810  18.386   7.344  12.482
78417W        W46811  17.302   6.909  10.375
78418W        W46812  16.234  32.619  13.871
78419W        W46813  37.505  25.104  14.346
78420W        W46814  44.340  17.958  14.622
78421W        W46815  40.504  32.988  13.788
78422W        W46816  38.422   8.692  10.849
78423W        W46817  20.450  42.543  11.637
78424W        W46818  30.248  24.928   2.916
78425W        W46819  10.787  12.679  13.320
78426W        W46820  13.173  32.978   3.153
78427W        W46821  34.604  39.976  11.593
78428W        W46822   0.754  29.625   4.149
78429W        W46823  12.255  37.820   2.914
78430W        W46824  19.590  41.362  13.360
78431W        W46825  34.992  41.095   1.955
78432W        W46826  35.700  35.967   4.539
78433W        W46827  38.825  38.843   2.816
78434W        W46828  23.994   1.412   1.260
78435W        W46829   6.869  22.353   3.251
78436W        W46830  21.152  16.736   4.458
78437W        W46831  36.853  38.768  11.107
78438W        W46832  34.906  16.811  11.671
78439W        W46833  14.127  44.895  10.571
78440W        W46834  16.706  36.354   3.925
78441W        W46835  39.092  22.964   0.800
78442W        W46836  21.630  27.226  12.075
78443W        W46837  19.942  38.162   4.050
78444W        W46838  41.474   7.885  13.513
78445W        W46839  35.964  33.869  13.353
78446W        W46840  35.625  40.957   3.228
78447W        W46841  42.204   2.426   2.590
78448W        W46842  15.587  17.655   0.915
78449W        W46843   6.652   3.843   1.402
78450W        W46844  24.012   8.651   4.037
78451W        W46845  34.894  31.588  14.342
78452W        W46846  13.288  41.510   4.352
78453W        W46847   0.871  42.262   1.380
78454W        W46848  11.977   0.861   2.012
78455W        W46849  28.202  18.493   3.300
78456W        W46850   1.227  16.992   4.025
78457W        W46851  29.969  24.588   3.213
78458W        W46852  26.661  35.006   4.543
78459W        W46853  12.632   9.332  14.894
78460W        W46854   2.321  41.338  12.855
78461W        W46855  28.978   7.287   4.836
78462W        W46856  29.827  42.158  12.394
78463W        W46857  18.683  37.233   0.722
78464W        W46858  43.658   4.352  12.907
78465W        W46859  42.812  13.613  12.881
78466W        W46860  34.128  36.329  12.371
78467W        W46861  25.552  13.268   3.061
78468W        W46862  21.290  21.140  14.406
78469W        W46863   4.351   2.517  14.234
78470W        W46864  43.425  13.357   3.825
78471W        W46865  41.344  28.889   3.538
78472W        W46866  28.282  26.875  14.302
78473W        W46867  39.128  11.456  12.948
78474W        W46868  28.997  21.581  10.915
78475W        W46869  42.526  35.525   9.937
78476W        W46870  23.421  43.412   3.270
78477W        W46871   2.147   6.842   3.179
78478W        W46872  30.863  34.329  14.830
78479W        W46873   7.918   1.837  12.524
78480W        W46874  30.978  42.745  13.510
78481W        W46875  20.588  38.476   1.817
78482W        W46876  19.706  43.767   3.538
78483W        W46877   8.510  33.174   2.352
78484W        W46878  25.565  44.934   3.082
78485W        W46879   0.380   7.115   2.372
78486W        W46880  19.338  20.678  13.900
78487W        W46881  14.690   8.711  10.955
78488W        W46882  23.274  23.037   2.824
78489W        W46883  42.025   7.915  10.583
78490W        W46884  17.593  17.787  12.620
78491W        W46885  15.689  15.651   4.636
78492W        W46886  39.447   4.437  10.385
78493W        W46887  20.290  17.958   1.285
78494W        W46888  39.013  30.727   2.195
78495W        W46889  18.319  28.669  11.933
78496W        W46890  13.578  12.685  13.633
78497W        W46891  32.132  33.337  13.460
78498W        W46892  29.202  28.196  11.576
78499W        W46893  26.117  16.699   4.481
78500W        W46894  31.225  15.715   0.681
78501W        W46895  24.235   1.557   0.804
78502W        W46896  30.832   7.406   0.917
78503W        W46897  15.145  20.628   4.854
78504W        W46898  23.300  12.204   2.667
78505W        W46899  34.384  33.097  13.471
78506W        W46900   0.385  21.612  12.664
78507W        W46901  38.164  15.425   3.120
78508W        W46902   1.458  32.473  11.668
78509W        W46903  10.278  40.559   2.214
78510W        W46904  34.331  16.259   1.319
78511W        W46905   9.911  37.480   2.832
78512W        W46906  26.575  10.151  10.504
78513W        W46907  20.805  35.122   0.027
78514W        W46908  38.795  17.188   2.445
78515W        W46909  44.853   0.981  14.872
78516W        W46910  13.551  18.839   0.039
78517W        W46911  10.097   6.451  13.886
78518W        W46912   9.842  19.729  13.552
78519W        W46913  13.256  19.384   2.676
78520W        W46914  15.066  25.730   4.733
78521W        W46915  13.370  14.330  10.331
78522W        W46916  39.873  41.046   1.222
78523W        W46917  31.927  22.099   0.327
78524W        W46918  15.920  27.138   2.804
78525W        W46919  24.993   8.629  14.007
78526W        W46920  38.868  22.051   0.714
78527W        W46921  11.344   2.953   1.639
78528W        W46922  17.587  31.780   4.904
78529W        W46923  17.004   1.011  14.016
78530W        W46924   2.405  23.786  12.655
78531W        W46925   1.324  10.130   2.279
78532W        W46926   6.686  39.339  13.932
78533W        W46927  37.800  42.859   3.391
78534W        W46928   1.738  41.786   4.052
78535W        W46929  29.127  30.233   2.870
78536W        W46930  24.624  17.166  14.549
78537W        W46931  21.634  44.728  13.321
78538W        W46932  39.210   6.148   3.653
78539W        W46933   2.215  17.548   3.332
78540W        W46934  36.861  16.765  12.021
78541W        W46935  20.926  21.296  11.058
78542W        W46936  10.689  10.785   2.822
78543W        W46937  22.971  36.935  10.739
78544W        W46938  16.736  31.894  14.307
78545W        W46939  14.612  19.576  12.925
78546W        W46940  43.909   1.914   1.746
78547W        W46941  13.535  16.321  11.057
78548W        W46942  12.570  23.475  14.474
78549W        W46943  20.436  12.707   2.146
78550W        W46944  40.526  28.010   2.470
78551W        W46945  44.773  34.118   3.214
78552W        W46946   6.622  11.693   1.703
78553W        W46947   0.328   8.764   4.387
78554W        W46948  24.064  19.124   0.755
78555W        W46949  27.013  29.461  12.062
78556W        W46950  30.747  27.761  14.998
78557W        W46951  31.423  31.545  13.901
78558W        W46952  35.813  38.307  12.717
78559W        W46953  43.596  38.902   4.230
78560W        W46954  18.060  25.735   4.669
78561W        W46955  18.640   5.139   3.306
78562W        W46956  20.516   0.562  11.678
78563W        W46957  30.482   4.960   0.485
78564W        W46958  41.297  36.374  12.432
78565W        W46959  44.041  34.453  13.671
78566W        W46960  38.832  41.417   3.349
78567W        W46961   9.642  24.743  11.008
78568W        W46962   7.942  43.611   3.800
78569W        W46963  41.235   8.132   3.255
78570W        W46964  31.517  21.593  12.887
78571W        W46965  11.667  34.491  10.795
78572W        W46966  19.536  34.030   1.345
78573W        W46967  39.212  33.953   2.688
78574W        W46968  30.990  24.623  10.566
78575W        W46969  10.401   5.845   4.537
78576W        W46970  40.983   7.346   1.639
78577W        W46971   0.284  31.385   1.733
78578W        W46972   6.717  27.108  11.507
78579W        W46973  21.514   6.282   0.398
78580W        W46974  44.692  20.265   0.688
78581W        W46975  33.690  21.794  12.393
78582W        W46976  24.565  27.714   0.924
78583W        W46977  44.262  22.651   3.337
78584W        W46978  16.274  24.002  11.284
78585W        W46979  20.216  15.407   3.335
78586W        W46980  11.413  20.631   4.353
78587W        W46981   2.633  43.534  14.110
78588W        W46982  42.549  15.666   3.178
78589W        W46983  25.926  10.210   0.426
78590W        W46984  18.627  11.818   3.838
78591W        W46985  18.446   5.820   2.146
78592W        W46986   1.023   1.109  11.509
78593W        W46987  29.159  35.772  13.790
78594W        W46988  39.549  16.461  12.652
78595W        W46989  33.905  27.381   1.027
78596W        W46990   5.243  19.681   1.255
78597W        W46991  31.559  17.608  12.216
78598W        W46992  13.119  42.969   1.267
78599W        W46993   8.192  26.589  14.498
78600W        W46994  17.770  32.638  12.697
78601W        W46995  20.435  28.711   0.710
78602W        W46996  20.441   3.784  10.656
78603W        W46997  42.433  23.656   0.435
78604W        W46998   4.559  25.072   4.504
78605W        W46999  24.545  14.632  12.886
78606W        W47000  30.437   7.117  13.584
78607W        W47001   3.332  11.436  11.241
78608W        W47002  30.830  25.992   2.566
78609W        W47003  31.352  25.573  11.965
78610W        W47004  18.872   4.719   5.172
78611W        W47005  29.981  12.199   3.287
78612W        W47006  40.926   3.729   2.012
78613W        W47007  16.012  42.065   2.732
78614W        W47008   2.893  19.032   2.783
78615W        W47009   8.162  43.517   0.760
78616W        W47010  34.794  17.648  14.803
78617W        W47011  31.066  35.904  11.426
78618W        W47012  36.690  44.362  13.955
78619W        W47013  21.685  35.840   4.989
78620W        W47014  23.894  17.057  11.640
78621W        W47015   4.425  38.608  14.431
78622W        W47016  41.869  27.084  10.438
78623W        W47017  40.378  34.190   1.152
78624W        W47018   5.229  27.976  13.816
78625W        W47019  32.267  43.906  13.147
78626W        W47020   8.809  30.544  11.894
78627W        W47021  22.739  41.317   0.908
78628W        W47022  39.287   9.671   3.279
78629W        W47023  23.723  43.561   3.805
78630W        W47024  33.770  12.240   0.689
78631W        W47025   0.226  18.226  13.344
78632W        W47026  40.300  10.844   1.953
78633W        W47027   1.941  28.707   1.508
78634W        W47028  36.186  33.956  12.393
78635W        W47029   5.409  40.735  14.831
78636W        W47030  35.133  39.615   3.195
78637W        W47031  40.069  37.814  10.653
78638W        W47032  15.172  22.206   3.878
78639W        W47033  12.161   0.103   4.359
78640W        W47034  20.134  10.666   2.814
78641W        W47035  38.839   1.757  12.507
78642W        W47036  13.409   3.919   0.834
78643W        W47037  38.816  40.407  13.312
78644W        W47038   9.881   0.838  14.835
78645W        W47039  16.052  12.804   4.140
78646W        W47040  27.356  20.869  11.133
78647W        W47041  38.312  19.091   2.724
78648W        W47042  28.909  21.645   3.375
78649W        W47043  33.717  19.737  13.494
78650W        W47044   8.352  11.196   0.971
78651W        W47045  20.344  27.671   1.693
78652W        W47046  44.077   7.729   4.665
78653W        W47047  26.089  17.388  14.836
78654W        W47048  44.080  14.256   4.182
78655W        W47049  38.571  28.484  12.014
78656W        W47050  37.820  17.101  11.967
78657W        W47051  39.393   3.451  13.841
78658W        W47052  20.964   7.961  13.514
78659W        W47053  10.652   7.996   0.202
78660W        W47054  27.488  34.365   4.177
78661W        W47055  21.102  12.285  13.852
78662W        W47056   5.961  26.177  11.156
78663W        W47057  42.905  41.015   4.544
78664W        W47058  32.483  31.022   3.556
78665W        W47059  20.641  15.645  12.892
78666W        W47060  35.176  39.565   1.822
78667W        W47061  29.661  28.641   2.080
78668W        W47062  35.351  28.465  13.692
78669W        W47063  11.327  37.031  10.489
78670W        W47064   9.668   2.704  14.983
78671W        W47065   3.686  39.935  11.591
78672W        W47066  28.985  31.540  12.862
78673W        W47067  23.308  19.778   1.744
78674W        W47068  12.418   4.153   1.209
78675W        W47069   3.854   9.792  12.468
78676W        W47070  37.786  38.504  10.773
78677W        W47071  27.853  22.294  14.348
78678W        W47072  36.359   7.521  10.734
78679W        W47073  38.048  27.705   4.880
78680W        W47074  15.608  35.853   1.744
78681W        W47075   5.592   9.672   1.020
78682W        W47076  14.302  39.569   0.898
78683W        W47077  18.351   8.034  10.210
78684W        W47078  40.534  33.410   2.080
78685W        W47079  40.550  13.145   0.890
78686W        W47080  36.092   9.090   3.957
78687W        W47081  41.589  21.247  13.396
78688W        W47082  25.041  34.675  11.828
78689W        W47083   0.922  33.590  12.997
78690W        W47084   7.957  32.478   4.267
78691W        W47085  36.417  26.054   0.144
78692W        W47086  37.484   0.254  14.868
78693W        W47087   6.917  16.610  13.367
78694W        W47088  16.016  40.104   3.269
78695W        W47089  13.247  33.901   0.925
78696W        W47090  27.505   4.476  13.465
78697W        W47091  16.553  11.194   3.697
78698W        W47092  18.686  41.399  11.480
78699W        W47093  40.508   1.952  11.178
78700W        W47094  29.683  10.137   0.813
78701W        W47095  32.126   2.367   2.612
78702W        W47096   5.628   7.377   1.332
78703W        W47097  39.554   8.343  12.480
78704W        W47098  13.096  15.133   3.242
78705W        W47099  14.609  15.235  13.341
78706W        W47100  21.759   7.693   2.193
78707W        W47101  32.798   4.961  12.906
78708W        W47102  34.479   2.362   0.691
78709W        W47103   3.824   6.235   2.857
78710W        W47104   4.642   9.236  11.030
78711W        W47105  29.002  23.130  14.100
78712W        W47106  16.320  21.456  13.214
78713W        W47107  34.029   7.800  12.608
78714W        W47108  29.045   6.111  13.945
78715W        W47109  35.486  23.123  11.015
78716W        W47110  33.808  26.969   2.903
78717W        W47111  37.047  10.673   1.685
78718W        W47112  35.362  19.063  13.356
78719W        W47113  37.895  21.695  13.634
78720W        W47114  11.267  11.333  10.894
78721W        W47115  26.530  24.249  12.629
78722W        W47116  25.595  43.572   2.938
78723W        W47117  12.105  29.057  14.007
78724W        W47118   7.903  35.266   4.675
78725W        W47119   1.398  15.579   0.357
78726W        W47120   4.000  14.638  13.891
78727W        W47121  35.820  37.031   3.251
78728W        W47122  18.629  22.060   3.663
78729W        W47123  12.613  30.878  10.553
78730W        W47124  39.720  11.707  14.862
78731W        W47125   1.875   2.266   0.347
78732W        W47126   4.167  24.768  13.272
78733W        W47127  17.507  44.983   0.330
78734W        W47128  25.553   2.323   5.082
78735W        W47129  13.290  15.254   1.810
78736W        W47130  41.517   6.845   1.934
78737W        W47131  12.739  27.772  12.521
78738W        W47132  28.464   5.409   3.655
78739W        W47133  39.983  18.096  11.228
78740W        W47134  32.833  18.097   2.208
78741W        W47135  26.159  41.666   1.925
78742W        W47136  26.148  21.130  12.168
78743W        W47137  38.369   2.170   4.554
78744W        W47138   3.953  39.139  12.036
78745W        W47139  23.225   7.057  11.955
78746W        W47140  21.641  41.018   3.464
78747W        W47141  12.351  10.860  11.085
78748W        W47142  16.735  11.770  12.789
78749W        W47143  35.299  12.773  13.510
78750W        W47144  27.630  10.848   4.404
78751W        W47145  24.435  18.640  14.497
78752W        W47146  21.444  10.845   2.831
78753W        W47147  40.397  27.562  12.966
78754W        W47148  30.642  36.330  13.871
78755W        W47149   5.422  22.124  11.074
78756W        W47150  40.594  38.936   2.271
78757W        W47151   3.695  36.796  11.650
78758W        W47152  17.873   7.467  11.551
78759W        W47153  11.247  32.821   0.218
78760W        W47154  37.390  29.749  14.969
78761W        W47155  16.582  21.333  14.580
78762W        W47156  36.980  21.095   0.464
78763W        W47157  19.160   2.078   4.612
78764W        W47158  15.252  34.339   0.147
78765W        W47159  23.051  40.309   0.832
78766W        W47160   2.490  44.526   0.780
78767W        W47161  19.056  20.466   0.813
78768W        W47162  16.378  17.667   1.410
78769W        W47163  10.356   9.123   1.460
78770W        W47164   7.131  40.329  11.163
78771W        W47165  24.480  43.945  11.563
78772W        W47166  24.469  21.979   0.083
78773W        W47167  36.334  16.872  11.126
78774W        W47168  41.831   9.720  11.855
78775W        W47169  33.035  19.057   2.437
78776W        W47170  22.682  14.121   1.884
78777W        W47171  40.492   3.585   4.249
78778W        W47172  42.436  16.005   4.270
78779W        W47173  21.805   0.407   0.155
78780W        W47174  32.636   4.388  13.294
78781W        W47175  44.538  41.696  14.916
78782W        W47176   2.130  42.052  12.366
78783W        W47177  32.937  36.055   1.898
78784W        W47178  19.599  42.844   2.151
78785W        W47179  32.022  10.831  10.656
78786W        W47180  16.107  20.657   4.764
78787W        W47181  42.264   8.258   0.772
78788W        W47182  17.680   5.218   3.629
78789W        W47183  14.531  31.886   3.711
78790W        W47184  29.110  40.427  10.704
78791W        W47185  29.474  24.751  13.616
78792W        W47186  27.078  24.081  14.864
78793W        W47187   2.434  33.951  12.054
78794W        W47188  20.331  32.628  14.073
78795W        W47189   3.385  24.233   2.207
78796W        W47190   8.625  25.093   1.778
78797W        W47191   3.418  28.324   2.297
78798W        W47192  27.928   5.344  14.846
78799W        W47193  25.611  40.662  13.355
78800W        W47194  10.133  24.617  10.832
78801W        W47195   1.299  16.879  12.247
78802W        W47196   3.722  18.229   0.173
78803W        W47197  22.483  44.159  13.529
78804W        W47198   9.110  38.456   1.150
78805W        W47199  38.941  22.756  10.630
78806W        W47200  28.125  11.180  13.024
78807W        W47201  30.438  21.986   1.327
78808W        W47202  41.933  20.502  11.223
78809W        W47203  29.138  41.218  14.927
78810W        W47204   8.139  18.511   2.178
78811W        W47205  21.908  31.440  14.659
78812W        W47206  24.039  36.486   2.710
78813W        W47207   9.541  17.278  11.636
78814W        W47208  26.839   0.253   0.468
78815W        W47209  23.078  29.882  10.928
78816W        W47210  17.620  42.830  14.873
78817W        W47211  14.917   5.410  10.687
78818W        W47212  37.815  20.977  11.407
78819W        W47213  28.566   1.248   0.048
78820W        W47214  32.341  28.589   0.454
78821W        W47215  43.397  37.065  14.294
78822W        W47216  14.307  36.576  13.900
78823W        W47217  37.507  13.701   0.342
78824W        W47218  36.883  33.953  11.944
78825W        W47219  24.962  21.099   0.944
78826W        W47220  38.352  44.493   0.516
78827W        W47221  14.696  41.326  13.897
78828W        W47222   1.777  14.281  10.664
78829W        W47223   0.502  41.243  13.930
78830W        W47224  25.005  35.574   4.195
78831W        W47225  10.938  28.930  11.963
78832W        W47226  14.603   4.340  14.366
78833W        W47227  37.842   5.282  13.754
78834W        W47228   3.282  27.079  11.415
78835W        W47229  18.562  32.551   2.650
78836W        W47230  16.597  30.496  10.730
78837W        W47231  32.928  11.204   0.498
78838W        W47232  12.326  32.920   3.122
78839W        W47233  43.769   6.383   4.136
78840W        W47234  39.468  42.510   3.151
78841W        W47235  19.346  37.668  10.217
78842W        W47236  24.197   6.360   1.905
78843W        W47237  35.237   4.245  11.668
78844W        W47238  41.415   0.368   1.304
78845W        W47239  16.240   7.698   3.006
78846W        W47240  17.284   8.196   0.420
78847W        W47241  44.639  36.874  13.983
78848W        W47242  16.660   1.181  12.167
78849W        W47243  26.521  14.680  13.022
78850W        W47244   3.705  10.077  12.863
78851W        W47245  36.009  13.426  12.046
78852W        W47246  37.469  31.841   2.647
78853W        W47247  13.304   4.161  11.176
78854W        W47248   5.938  14.325  13.842
78855W        W47249  23.165  15.564   2.285
78856W        W47250  18.122  17.744   3.133
78857W        W47251  29.402   0.445  12.100
78858W        W47252  14.801  28.746   0.320
78859W        W47253  35.799  13.786  10.832
78860W        W47254   7.015   5.077   3.373
78861W        W47255  41.410  38.918  10.844
78862W        W47256   0.308  39.883   4.562
78863W        W47257   3.281   5.804   0.811
78864W        W47258  13.327  35.486  12.588
78865W        W47259   7.207   8.896  13.746
78866W        W47260  20.647  30.128   4.892
78867W        W47261  26.176  11.393  11.180
78868W        W47262   1.778  11.813   3.191
78869W        W47263  41.570  12.326   1.794
78870W        W47264  27.176  31.562   4.183
78871W        W47265  33.363  42.732   3.763
78872W        W47266  23.037  23.230  13.439
78873W        W47267  25.078  21.767   4.689
78874W        W47268   9.136   0.762  13.292
78875W        W47269   8.659   0.547  14.811
78876W        W47270  25.249  13.647  11.343
78877W        W47271  43.521  11.245   4.100
78878W        W47272   5.754  15.200   5.066
78879W        W47273  24.456  21.169   1.144
78880W        W47274  14.294  44.797   2.233
78881W        W47275   7.785  22.231   4.660
78882W        W47276  16.821  26.661   4.092
78883W        W47277  40.170   5.679  12.404
78884W        W47278  14.583   0.918  12.120
78885W        W47279  17.470  12.648  11.984
78886W        W47280  42.565  12.838   0.386
78887W        W47281  12.422  28.104   3.436
78888W        W47282   7.798  12.837   5.258
78889W        W47283  21.385  38.337   4.022
78890W        W47284  13.111  32.104   2.739
78891W        W47285  32.778  30.008   3.732
78892W        W47286   6.911  41.067   1.429
78893W        W47287   4.285   3.600   4.217
78894W        W47288   8.191   8.811   1.998
78895W        W47289  40.820  30.992   2.932
78896W        W47290   3.964  18.590   2.378
78897W        W47291  34.817  12.924   3.517
78898W        W47292  35.350  34.403   4.570
78899W        W47293  21.338  26.407   9.634
78900W        W47294   1.370  28.211  11.519
78901W        W47295  36.098  14.662  10.551
78902W        W47296  23.254  37.916   4.307
78903W        W47297   0.015  23.374   1.060
78904W        W47298  38.397  24.600  13.021
78905W        W47299  31.474   6.676   2.120
78906W        W47300  36.779   1.814   1.637
78907W        W47301  19.680  31.220   0.246
78908W        W47302  17.445  19.184  10.387
78909W        W47303   9.684  17.352   1.276
78910W        W47304  26.173  10.123   2.857
78911W        W47305  13.782  24.001  14.398
78912W        W47306  22.232  20.473  12.090
78913W        W47307  11.045  14.117   0.930
78914W        W47308  44.285  41.772  10.607
78915W        W47309  22.150  40.861   3.316
78916W        W47310  22.120  32.452   0.649
78917W        W47311   7.564  32.789   0.938
78918W        W47312  19.454   6.872   3.180
78919W        W47313   2.926  15.075   1.176
78920W        W47314   7.426  25.293  12.514
78921W        W47315  24.797  43.418   2.664
78922W        W47316  31.868  17.634  13.674
78923W        W47317  30.778  28.686   2.511
78924W        W47318  18.860  43.774   3.370
78925W        W47319  14.026  29.977  13.339
78926W        W47320  36.453  34.590  10.588
78927W        W47321  42.908   4.004   4.314
78928W        W47322  25.105  24.973   0.491
78929W        W47323  38.358  32.881  12.184
78930W        W47324   8.830  30.890  10.554
78931W        W47325  35.883   5.603  10.407
78932W        W47326  32.404  15.442   3.648
78933W        W47327  25.032  41.941   4.561
78934W        W47328  19.770   8.620  13.936
78935W        W47329  24.240   6.407  11.427
78936W        W47330  25.120   7.671  11.561
78937W        W47331  18.217   8.434   0.717
78938W        W47332  31.937  30.803   0.798
78939W        W47333  24.189  17.021   3.842
78940W        W47334  39.086   6.586  10.953
78941W        W47335   1.688  15.353  14.444
78942W        W47336  12.233  31.885  12.517
78943W        W47337  25.418  15.074   1.362
78944W        W47338   5.176  26.265   2.341
78945W        W47339  25.751  26.773   4.568
78946W        W47340  36.339  24.324   1.100
78947W        W47341  42.380  25.242   1.844
78948W        W47342  30.657  37.434  14.420
78949W        W47343  17.192  11.804   2.664
78950W        W47344   2.455  43.598   0.929
78951W        W47345   2.732   0.261   3.117
78952W        W47346  16.393   2.360  13.186
78953W        W47347   4.277  36.352   4.825
78954W        W47348   5.677  27.478   2.663
78955W        W47349  11.842  42.383  14.891
78956W        W47350   3.529   8.324  14.905
78957W        W47351  42.882  31.793  12.578
78958W        W47352  31.177  36.350  12.151
78959W        W47353  43.278  39.111   2.270
78960W        W47354  43.999  32.167   3.669
78961W        W47355  32.107  36.924   1.254
78962W        W47356  44.266  22.587  14.246
78963W        W47357  21.447  42.355  12.447
78964W        W47358  21.170  44.530  12.713
78965W        W47359  20.599  34.966   2.481
78966W        W47360  42.034  11.814  14.528
78967W        W47361  40.878   1.907  14.378
78968W        W47362   4.420   7.257   1.690
78969W        W47363  39.044  44.496  10.117
78970W        W47364  17.260   3.290   0.054
78971W        W47365  30.817   1.156  14.564
78972W        W47366  31.848  19.195   0.254
78973W        W47367   3.001   6.902  11.001
78974W        W47368  44.901  41.120   1.320
78975W        W47369  35.601  13.672   0.872
78976W        W47370  24.408  22.628  12.448
78977W        W47371  23.709  12.346  13.475
78978W        W47372  29.153  22.501   2.894
78979W        W47373  44.702  33.995   1.296
78980W        W47374  32.314   7.345   4.330
78981W        W47375  25.277  44.885  12.053
78982W        W47376  42.839  22.764   0.522
78983W        W47377  19.055  10.504  12.998
78984W        W47378  25.597  24.963   1.252
78985W        W47379  11.267   9.994  11.174
78986W        W47380   6.356  43.478   4.586
78987W        W47381  43.228   9.290  14.493
78988W        W47382   0.280  43.366   4.409
78989W        W47383   3.453  30.765   4.030
78990W        W47384  16.162  40.941  11.919
78991W        W47385  29.193   7.122   2.340
78992W        W47386  44.823  26.015   4.627
78993W        W47387  31.488  17.078   3.172
78994W        W47388  21.319   6.281  12.030
78995W        W47389   6.680  18.316  11.952
78996W        W47390  33.276  32.474  13.653
78997W        W47391  20.310  29.442   3.322
78998W        W47392  33.297   7.371   0.023
78999W        W47393  16.157   8.191   0.346
79000W        W47394   0.507   8.321   2.194
79001W        W47395  21.533   4.071   4.385
79002W        W47396  20.618  29.266   3.680
79003W        W47397  28.954  17.115   2.738
79004W        W47398  31.928  33.428  12.987
79005W        W47399  44.075  21.137  11.464
79006W        W47400  24.777  41.055  10.656
79007W        W47401  20.502   6.291  13.493
79008W        W47402  13.715  38.904  14.257
79009W        W47403  40.756  13.601   4.734
79010W        W47404   5.519   1.664   0.893
79011W        W47405   5.468  42.924  12.540
79012W        W47406  16.266  28.243  10.622
79013W        W47407  37.553  10.870  12.512
79014W        W47408   0.680  26.631   2.094
79015W        W47409  29.746  14.140  10.301
79016W        W47410  16.233   2.949   1.914
79017W        W47411  30.066  44.929  11.833
79018W        W47412  34.847   9.281   2.333
79019W        W47413  41.014  25.577  13.084
79020W        W47414  42.470  34.516  11.889
79021W        W47415   5.852   8.246   3.223
79022W        W47416  38.537  38.086   3.548
79023W        W47417  10.711   5.543   2.903
79024W        W47418  13.484  25.436   3.171
79025W        W47419  23.728  30.628  14.238
79026W        W47420  31.499  28.175  12.929
79027W        W47421  16.646   0.027   0.751
79028W        W47422  25.918   1.815   0.469
79029W        W47423   3.787  36.849   1.382
79030W        W47424  11.973  26.913  11.605
79031W        W47425  13.298   4.363  13.157
79032W        W47426  19.156  16.857  11.102
79033W        W47427  25.065  24.046  14.027
79034W        W47428   9.588  10.373   1.906
79035W        W47429  20.384  32.014  11.606
79036W        W47430  15.167  28.225   2.623
79037W        W47431   2.011   7.830  11.639
79038W        W47432  14.615   0.946  14.819
79039W        W47433   1.875  23.745  14.433
79040W        W47434  41.776  31.069   0.431
79041W        W47435  24.655  26.505  14.550
79042W        W47436  40.552  14.150   2.587
79043W        W47437  13.523  17.879   4.102
79044W        W47438  27.583  43.807   4.153
79045W        W47439  15.730  43.414  13.806
79046W        W47440  12.203   7.485   2.748
79047W        W47441  21.207  32.934   1.500
79048W        W47442  25.153  23.575  13.844
79049W        W47443   0.488  39.472   2.775
79050W        W47444  20.087   2.292   3.730
79051W        W47445  44.975   9.684  11.034
79052W        W47446  31.661   9.137   3.193
79053W        W47447  23.246  35.164  12.051
79054W        W47448  21.627  30.458  12.004
79055W        W47449  12.123   5.858   3.678
79056W        W47450  32.994  26.570   3.168
79057W        W47451  12.466  41.461  12.095
79058W        W47452  15.061  41.853   3.682
79059W        W47453  39.860  13.263   3.700
79060W        W47454  38.952  14.018   2.608
79061W        W47455  18.002  26.749   3.761
79062W        W47456  31.464  20.832   0.097
79063W        W47457  12.073  10.385   1.837
79064W        W47458  16.154  10.661  13.030
79065W        W47459   6.870  14.566  14.026
79066W        W47460   6.501  14.160   5.373
79067W        W47461  17.436  37.451  11.161
79068W        W47462   9.710  32.802  13.405
79069W        W47463  23.959  30.384   1.441
79070W        W47464  44.696  43.937   1.223
79071W        W47465   8.608  29.132  11.866
79072W        W47466  13.199  33.768  14.493
79073W        W47467  16.203   2.232   2.417
79074W        W47468  19.730  30.702  13.540
79075W        W47469  28.242  21.402   0.718
79076W        W47470   9.832  35.440   2.605
79077W        W47471  35.700  32.127   4.148
79078W        W47472  33.943   5.863   0.841
79079W        W47473   2.010  25.588  14.930
79080W        W47474  28.499  37.479  12.435
79081W        W47475  17.907  41.181   5.245
79082W        W47476  18.105  10.785  11.654
79083W        W47477  10.218  23.747   0.888
79084W        W47478  20.035  42.874   4.513
79085W        W47479  21.543  29.909   4.215
79086W        W47480  19.180   4.940   1.758
79087W        W47481  33.933  18.148  13.925
79088W        W47482  33.727   1.703   4.472
79089W        W47483   1.591  35.976   3.650
79090W        W47484  29.744   1.466  14.016
79091W        W47485   2.813  36.039   2.723
79092W        W47486  15.653  28.128   2.789
79093W        W47487  38.840   1.724   0.972
79094W        W47488  31.622  19.104   2.421
79095W        W47489  15.089  29.122  12.427
79096W        W47490   8.996  19.125   4.254
79097W        W47491   6.371  23.473  13.997
79098W        W47492   3.948   7.230   1.936
79099W        W47493  17.448  40.893   2.405
79100W        W47494  21.359  18.057   1.300
79101W        W47495   6.458  40.222  14.001
79102W        W47496  12.717  33.492   3.728
79103W        W47497  23.751  37.363  12.566
79104W        W47498   3.554  20.047  11.045
79105W        W47499  20.746  27.651  13.926
79106W        W47500  23.257  39.806   1.859
79107W        W47501  38.021  11.193  14.525
79108W        W47502  43.072  44.831  13.412
79109W        W47503  24.335  16.784  11.579
79110W        W47504  26.706  11.307   4.006
79111W        W47505  35.457   2.829   1.278
79112W        W47506  11.281  15.425  10.677
79113W        W47507  20.302  26.241  11.998
79114W        W47508  33.597  16.628  10.609
79115W        W47509   8.319  38.944   1.608
79116W        W47510   6.331  16.876  12.044
79117W        W47511  22.463  15.157   9.850
79118W        W47512  31.894   5.828   3.761
79119W        W47513  28.523  11.364   1.935
79120W        W47514  28.434  44.837  14.574
79121W        W47515  35.935  37.470   0.931
79122W        W47516  13.606  18.570   3.692
79123W        W47517  17.109  43.864   0.320
79124W        W47518   0.495  27.528   0.331
79125W        W47519  29.629  21.110  10.653
79126W        W47520  22.511  12.255   1.129
79127W        W47521  30.184   5.504  14.384
79128W        W47522  27.992  29.792  14.285
79129W        W47523  43.060  41.428  12.482
79130W        W47524  26.467  25.047   2.952
79131W        W47525   1.803   6.397  14.070
79132W        W47526  33.191  24.297  12.657
79133W        W47527  26.743  15.055   0.821
79134W        W47528  29.981   1.998  12.041
79135W        W47529  32.384  14.845   2.253
79136W        W47530  36.450  25.535   0.376
79137W        W47531  32.502  24.267   1.231
79138W        W47532   9.210  13.374   4.767
79139W        W47533  31.555  33.219   4.087
79140W        W47534   9.223   0.062  11.621
79141W        W47535  11.209  26.930  12.962
79142W        W47536  32.510  11.724  12.925
79143W        W47537  22.761   1.460  11.989
79144W        W47538  27.097  44.017  13.787
79145W        W47539  32.001   3.462  10.200
79146W        W47540  29.253   7.110  14.054
79147W        W47541  33.219  33.917   3.240
79148W        W47542   7.198  38.786   2.284
79149W        W47543  25.924  25.733  11.594
79150W        W47544   4.904  13.295   2.661
79151W        W47545  42.400   3.856  13.287
79152W        W47546  40.276  44.316   3.731
79153W        W47547  33.547   1.512  10.502
79154W        W47548  31.044   6.359  14.321
79155W        W47549   1.499  39.038  14.265
79156W        W47550  44.867  29.556  13.309
79157W        W47551  32.478  31.191   2.510
79158W        W47552  19.568  24.681  10.193
79159W        W47553  28.921  44.986   4.579
79160W        W47554  35.089  11.385   5.087
79161W        W47555   8.738   5.740   4.348
79162W        W47556  42.273  26.899  10.722
79163W        W47557   5.451   2.907  11.973
79164W        W47558  17.523  26.134  12.642
79165W        W47559   4.326  41.128   3.792
79166W        W47560  21.266  41.311  10.741
79167W        W47561   0.894  10.608   1.768
79168W        W47562  35.139  21.643   2.926
79169W        W47563   2.969  20.768   1.729
79170W        W47564  17.221   4.759   1.370
79171W        W47565  35.091  31.531   0.994
79172W        W47566  21.022  15.218  13.944
79173W        W47567  38.294   7.883  11.672
79174W        W47568  25.688  13.603   2.674
79175W        W47569   5.364  27.637   4.669
79176W        W47570  18.037  22.701  12.063
79177W        W47571  13.191  30.860   0.856
79178W        W47572   8.189  29.604   0.929
79179W        W47573  22.011  10.205  14.034
79180W        W47574  38.857  13.884  12.977
79181W        W47575  33.725   8.362  14.015
79182W        W47576   0.912  13.111   1.740
79183W        W47577  44.091  30.389   3.247
79184W        W47578   2.838  10.398   4.093
79185W        W47579  35.011   5.438   1.249
79186W        W47580  11.957  12.975   4.145
79187W        W47581  11.317   0.135  13.623
79188W        W47582  20.969  33.143   0.942
79189W        W47583  42.897  33.156  10.652
79190W        W47584  14.614  24.669  14.142
79191W        W47585  19.333   3.917   2.850
79192W        W47586  43.687  41.004   3.256
79193W        W47587  15.827   7.729  11.120
79194W        W47588   0.497   2.239  10.351
79195W        W47589  25.053  41.886   2.406
79196W        W47590  35.233   7.950  12.839
79197W        W47591  18.309  36.112  10.680
79198W        W47592  44.375  29.844  14.537
79199W        W47593  32.548  27.656   3.560
79200W        W47594   7.823  34.131  10.736
79201W        W47595  30.824  33.260   4.626
79202W        W47596  41.474  10.167  10.695
79203W        W47597  28.174  15.301  11.162
79204W        W47598  16.561  41.150  12.965
79205W        W47599  16.267  31.394   4.143
79206W        W47600  36.277  19.181   3.813
79207W        W47601  25.110  21.319  10.750
79208W        W47602  29.378  43.976   2.159
79209W        W47603  32.624  34.589  14.428
79210W        W47604  19.111  14.197  14.221
79211W        W47605   3.437  34.893  13.848
79212W        W47606  41.192   8.427  14.348
79213W        W47607  37.180   3.316  14.419
79214W        W47608  41.285  33.443  13.943
79215W        W47609  25.461  38.019   1.214
79216W        W47610  31.079  32.050  10.424
79217W        W47611  15.883  35.462   4.738
79218W        W47612   4.832  30.535   3.817
79219W        W47613  33.101  29.218   1.483
79220W        W47614  23.681  42.321  13.926
79221W        W47615   1.260   5.661  14.336
79222W        W47616  43.296   3.849  11.491
79223W        W47617  41.367  19.470   4.630
79224W        W47618   7.499  28.136  11.195
79225W        W47619  14.419  15.044  11.970
79226W        W47620   2.179  29.996   2.527
79227W        W47621  32.841  18.094  12.910
79228W        W47622   4.546  34.368  12.981
79229W        W47623  42.328  22.047   1.198
79230W        W47624  11.777   0.750  13.524
79231W        W47625  35.030  35.594   0.183
79232W        W47626   2.405  38.565  13.797
79233W        W47627   1.394   2.723   4.179
79234W        W47628  20.725  11.677   3.664
79235W        W47629  10.277  32.658  11.047
79236W        W47630  23.145   7.225  12.460
79237W        W47631  37.946  24.429   3.330
79238W        W47632  28.650  10.752  12.580
79239W        W47633   2.680   5.289   1.260
79240W        W47634  40.992   9.365   1.032
79241W        W47635  40.492  18.669   3.578
79242W        W47636  22.261  19.621   0.875
79243W        W47637  38.913  21.915  12.327
79244W        W47638  12.781  15.537   0.738
79245W        W47639  39.295   1.242  13.821
79246W        W47640  19.178  13.461  13.084
79247W        W47641  42.949  41.314  14.967
79248W        W47642  13.335  35.832   4.615
79249W        W47643  14.667  22.030   4.562
79250W        W47644   1.472  35.882  14.466
79251W        W47645   7.727  38.589  11.220
79252W        W47646   3.697  44.791   3.087
79253W        W47647  12.288  22.119  14.350
79254W        W47648  18.091  17.499   1.900
79255W        W47649  37.237  20.141  11.621
79256W        W47650  27.002   3.634  11.141
79257W        W47651   6.778  44.378   1.486
79258W        W47652  38.103  23.109   3.609
79259W        W47653  28.544  28.470   0.872
79260W        W47654   5.861  41.757  14.482
79261W        W47655  35.944  40.758   2.353
79262W        W47656  28.132  32.883  12.454
79263W        W47657   8.630  31.118  11.560
79264W        W47658  10.662   3.934   0.086
79265W        W47659  44.059  42.430  11.962
79266W        W47660  25.553  44.403  14.342
79267W        W47661  25.438  20.358   2.561
79268W        W47662  17.587  30.857   3.204
79269W        W47663   5.235  39.947   2.877
79270W        W47664  35.031   5.844   0.533
79271W        W47665   5.751  13.319  14.711
79272W        W47666  40.018  33.119  13.827
79273W        W47667  37.365  31.309   3.360
79274W        W47668  29.356  27.445  14.519
79275W        W47669  43.024  34.898   1.339
79276W        W47670  29.186  32.520   1.048
79277W        W47671  13.732  20.483   1.300
79278W        W47672  39.000  15.709   3.137
79279W        W47673  31.020   1.864  13.922
79280W        W47674  41.792  21.512   4.968
79281W        W47675  38.876  30.115   3.024
79282W        W47676  41.204  33.361  11.948
79283W        W47677   7.871  18.709  12.156
79284W        W47678  22.204  31.374   3.126
79285W        W47679  18.725  38.470   4.026
79286W        W47680  23.516  23.243  12.061
79287W        W47681  40.971  15.323   3.935
79288W        W47682  20.936  39.544   1.758
79289W        W47683  22.169  28.000  12.394
79290W        W47684  41.469  13.499  14.274
79291W        W47685  40.401  39.876   0.806
79292W        W47686  27.611  20.548   1.738
79293W        W47687  14.998   0.826   3.912
79294W        W47688   1.305  41.733  14.544
79295W        W47689  31.150  25.108   4.536
79296W        W47690   4.510  41.585  14.792
79297W        W47691  13.777  30.654   3.726
79298W        W47692  18.145  18.702   3.059
79299W        W47693  43.569   4.158  13.961
79300W        W47694   3.983   5.810   2.317
79301W        W47695  29.801  36.005   1.903
79302W        W47696   0.717  43.354  14.537
79303W        W47697  28.118  13.081  11.098
79304W        W47698  26.286  13.587   1.823
79305W        W47699  29.590  33.943  11.407
79306W        W47700  27.517   5.762  10.651
79307W        W47701  39.958  20.174  12.085
79308W        W47702  10.185   2.311   0.600
79309W        W47703  20.727  43.222  12.083
79310W        W47704   9.698  35.033  14.707
79311W        W47705  38.578  22.558   0.072
79312W        W47706  32.554  20.027   1.422
79313W        W47707   0.838  32.081   0.236
79314W        W47708   1.870   3.185   1.346
79315W        W47709  43.671   3.500   3.568
79316W        W47710  13.280  23.546   0.191
79317W        W47711  11.239   0.970  11.980
79318W        W47712  33.450  19.539   3.345
79319W        W47713   6.487   4.459   0.732
79320W        W47714   2.337  10.577  13.524
79321W        W47715  27.452  19.598  13.874
79322W        W47716  29.976  31.530  14.842
79323W        W47717  29.953  28.184   2.233
79324W        W47718  38.892  43.491   0.381
79325W        W47719  11.724   5.039   5.245
79326W        W47720  11.861   7.100  11.101
79327W        W47721   6.755  34.680   3.987
79328W        W47722  18.454  24.733   2.667
79329W        W47723  11.429  33.835   0.450
79330W        W47724  42.460   8.224   4.822
79331W        W47725  14.550   2.355   1.454
79332W        W47726  11.172  28.208   1.297
79333W        W47727   7.517  28.399  12.138
79334W        W47728  14.378   6.459  12.929
79335W        W47729  29.484  19.681   3.923
79336W        W47730  23.796  36.000   4.359
79337W        W47731  33.070  34.350   0.165
79338W        W47732  35.513  31.625   4.145
79339W        W47733   5.629  38.186   3.222
79340W        W47734  41.125  33.071   1.233
79341W        W47735  25.258  41.580  14.270
79342W        W47736   8.236  16.771  13.757
79343W        W47737  14.237  35.397   2.579
79344W        W47738  12.141   0.880  14.743
79345W        W47739  26.015   2.872  14.255
79346W        W47740   0.733  37.849   3.273
79347W        W47741   6.362  37.383   4.583
79348W        W47742   8.300  35.552  14.835
79349W        W47743  40.531  44.184   4.171
79350W        W47744   4.210   4.318   3.519
79351W        W47745  43.671  22.439   3.110
79352W        W47746  30.863  14.855   2.244
79353W        W47747  17.719  40.402  11.546
79354W        W47748  43.443  33.626   1.792
79355W        W47749  39.518  43.773   0.488
79356W        W47750  40.977  14.518  11.511
79357W        W47751  40.793   0.979   2.351
79358W        W47752  32.636  43.412   4.549
79359W        W47753   8.316  29.008   4.464
79360W        W47754   4.873   8.327  12.573
79361W        W47755   4.767  33.462  14.335
79362W        W47756  43.178   4.372  14.931
79363W        W47757  32.046  35.967  12.637
79364W        W47758   3.863   3.222   0.013
79365W        W47759  13.060  24.535  14.289
79366W        W47760  36.065  33.079  14.468
79367W        W47761  26.993  29.689   4.984
79368W        W47762  22.772  31.129  14.824
79369W        W47763  40.373  30.936   2.242
79370W        W47764  38.593  36.328  12.620
79371W        W47765   0.571   7.815  11.578
79372W        W47766  32.595  14.039  13.957
79373W        W47767  12.542   7.855   2.075
79374W        W47768  34.864  38.618   3.302
79375W        W47769  15.579   6.358  13.584
79376W        W47770  41.950  23.476  13.044
79377W        W47771  36.464   6.055  10.629
79378W        W47772  42.015   8.916  14.534
79379W        W47773  42.891  41.702   2.429
79380W        W47774  43.126  27.119  11.652
79381W        W47775  26.942   7.837  12.118
79382W        W47776  35.098  12.584  11.439
79383W        W47777  30.259  19.360  13.424
79384W        W47778   4.915  17.747   0.055
79385W        W47779  10.006  23.716  11.117
79386W        W47780  23.914   2.665  12.419
79387W        W47781  16.596  21.237  10.995
79388W        W47782   1.761  38.598   2.368
79389W        W47783  35.610  16.972  13.445
79390W        W47784  27.134  16.526  11.190
79391W        W47785   5.770  38.330  14.352
79392W        W47786  13.349  38.187   2.334
79393W        W47787  44.120  33.126  11.891
79394W        W47788  40.862  22.020   0.126
79395W        W47789  15.618  40.845  11.070
79396W        W47790  42.311  30.352   0.954
79397W        W47791  18.326  35.506  13.948
79398W        W47792  34.093  13.959   4.245
79399W        W47793  30.825  41.710  12.477
79400W        W47794  13.329   6.975   2.180
79401W        W47795  19.003  32.861   1.815
79402W        W47796  40.023   1.635   3.623
79403W        W47797  10.603  15.249   4.685
79404W        W47798   6.424  41.751  12.055
79405W        W47799  23.502  42.399   0.374
79406W        W47800   6.251  43.711   3.179
79407W        W47801  33.335  42.859  13.047
79408W        W47802  27.143  32.122   0.747
79409W        W47803  44.763  11.281   2.187
79410W        W47804  37.099   4.240  14.937
79411W        W47805  22.249  39.332   2.226
79412W        W47806   0.885  22.679   4.654
79413W        W47807  11.625  27.219   1.769
79414W        W47808  40.421  22.030   1.826
79415W        W47809  19.786  36.267  12.511
79416W        W47810   7.915  36.166  13.462
79417W        W47811  43.461  15.612   3.186
79418W        W47812  40.303  17.770  11.498
79419W        W47813  26.676  21.243   2.205
79420W        W47814  33.064  26.522  13.778
79421W        W47815  30.941  17.313  11.728
79422W        W47816   4.172   0.761  11.501
79423W        W47817  14.393  10.110   4.161
79424W        W47818   1.956  24.787   2.164
79425W        W47819  29.633  41.820   3.754
79426W        W47820   8.831  42.040   2.723
79427W        W47821  22.143  12.647  11.133
79428W        W47822  31.422  22.230   4.678
79429W        W47823  26.641  28.854  11.623
79430W        W47824  35.592  36.045  10.805
79431W        W47825   2.501  34.538   1.180
79432W        W47826  44.427  21.292   1.789
79433W        W47827  22.616  25.428   2.663
79434W        W47828  30.067   8.357   3.394
79435W        W47829  26.210  16.359  14.765
79436W        W47830   0.344   2.304   0.355
79437W        W47831  14.677   0.006  12.590
79438W        W47832  17.274  34.584  12.117
79439W        W47833  26.904  22.984   0.856
79440W        W47834  33.857   5.298   4.181
79441W        W47835  26.068  44.505   1.402
79442W        W47836  11.124   3.253   0.828
79443W        W47837   4.265  35.039   3.486
79444W        W47838  40.494  25.127   2.190
79445W        W47839  43.026  22.073  11.995
79446W        W47840  42.607  33.197  11.860
79447W        W47841  39.439  40.773  13.913
79448W        W47842  19.696  15.503   3.340
79449W        W47843   3.788   3.532  10.292
79450W        W47844  10.304  12.862  11.937
79451W        W47845  17.992  16.469   1.782
79452W        W47846  42.888   6.994  13.913
79453W        W47847  36.915  12.388  11.624
79454W        W47848  42.856  34.299  12.142
79455W        W47849  43.145  28.147  14.451
79456W        W47850   9.694  14.124  13.987
79457W        W47851  44.466  23.172   0.873
79458W        W47852  18.610   2.655  13.350
79459W        W47853  14.642   8.853  13.976
79460W        W47854  19.523  13.060  11.575
79461W        W47855  20.412  31.809  12.494
79462W        W47856  18.540  43.446  12.868
79463W        W47857  42.041  20.725  12.564
79464W        W47858  41.803  27.226  11.453
79465W        W47859   8.396   2.855  11.120
79466W        W47860  37.987  36.818   3.197
79467W        W47861  12.111  11.395   1.726
79468W        W47862  22.973  32.186   0.237
79469W        W47863   4.141   2.181   5.100
79470W        W47864  11.254   6.507   0.795
79471W        W47865  22.019  13.345   1.871
79472W        W47866  37.850   7.127  11.476
79473W        W47867   5.002   9.601   1.273
79474W        W47868  19.816   6.212   1.958
79475W        W47869  22.544  10.741  14.500
79476W        W47870   4.597  27.158  12.211
79477W        W47871   7.427  33.117   4.021
79478W        W47872  17.725  31.609  11.605
79479W        W47873  29.191  44.124  11.854
79480W        W47874  10.240  21.938  11.592
79481W        W47875  21.630  41.953  14.954
79482W        W47876  10.257  18.998   4.201
79483W        W47877  20.041  38.897   0.660
79484W        W47878  31.026  43.827   0.821
79485W        W47879  22.983  15.637   4.240
79486W        W47880  22.334  12.604   1.671
79487W        W47881   5.824  24.770   2.349
79488W        W47882  43.190  25.637  14.851
79489W        W47883   0.334  37.321  12.978
79490W        W47884  37.709  19.280  10.459
79491W        W47885   7.938  31.992   2.850
79492W        W47886  19.145  34.650  13.516
79493W        W47887  30.116  28.603  11.623
79494W        W47888  11.127  20.776   1.361
79495W        W47889   7.272  36.105  12.450
79496W        W47890   3.515  35.509   0.313
79497W        W47891   2.347  38.143  14.925
79498W        W47892  15.610  20.643   4.601
79499W        W47893  27.904  16.602  10.066
79500W        W47894  11.864  40.437   4.501
79501W        W47895  44.500   9.635   3.655
79502W        W47896   8.429   8.411   2.724
79503W        W47897  32.092  13.713   2.211
79504W        W47898  38.401   5.581   3.406
79505W        W47899   7.393  25.464  11.196
79506W        W47900   1.427  33.896   3.705
79507W        W47901   9.180  12.367   4.805
79508W        W47902   5.315  42.363  11.869
79509W        W47903  39.499   5.719   3.654
79510W        W47904  15.827  38.834   2.523
79511W        W47905  19.974  20.174  10.582
79512W        W47906  42.051  24.385   2.613
79513W        W47907  44.202  27.137  14.242
79514W        W47908  23.261   3.409   0.007
79515W        W47909   6.447   1.485   1.525
79516W        W47910  44.234  22.735   0.788
79517W        W47911  36.807  20.909  12.565
79518W        W47912   8.308  33.155  14.928
79519W        W47913  41.837  10.874   4.808
79520W        W47914  41.931  14.874   2.304
79521W        W47915  16.384  31.851   0.820
79522W        W47916  37.070   8.813   0.126
79523W        W47917   4.402  30.041   2.816
79524W        W47918  13.193  38.511  14.963
79525W        W47919  34.876  37.557  11.572
79526W        W47920   7.373  24.075   1.830
79527W        W47921  34.540  15.766  13.606
79528W        W47922  37.341  31.449   1.220
79529W        W47923  44.230   7.921  11.887
79530W        W47924  14.707  40.578  11.518
79531W        W47925  15.311   5.208   4.973
79532W        W47926  17.278   2.154  10.600
79533W        W47927   0.404  38.272   4.639
79534W        W47928  37.854  17.695  13.393
79535W        W47929  17.874  29.508  12.004
79536W        W47930  43.510  18.718  14.766
79537W        W47931  37.261  14.665  14.468
79538W        W47932  43.940   7.857   3.802
79539W        W47933  40.644  36.347  13.456
79540W        W47934  35.668  34.788   1.284
79541W        W47935  28.347  43.832  13.499
79542W        W47936   4.395  34.001   0.156
79543W        W47937  12.094  28.601   1.455
79544W        W47938  43.536   0.459  12.054
79545W        W47939   3.300  30.470   2.136
79546W        W47940  18.252  26.038  12.097
79547W        W47941  44.910  14.456  14.473
79548W        W47942  43.483   9.768   2.588
79549W        W47943  13.295  10.689  12.503
79550W        W47944  22.007   5.513  12.065
79551W        W47945  13.580   2.696   0.524
79552W        W47946  14.383  23.607   0.442
79553W        W47947  22.004  24.187   3.666
79554W        W47948  38.126   0.876   3.445
79555W        W47949   9.906  41.230  11.479
79556W        W47950   1.361  43.386  13.990
79557W        W47951  40.717  34.043  11.538
79558W        W47952  22.240   4.983   0.673
79559W        W47953   9.255  18.891  14.953
79560W        W47954  42.834  14.386  13.973
79561W        W47955   5.337  10.906   3.682
79562W        W47956  21.657  44.712  10.976
79563W        W47957  18.211  10.854  10.744
79564W        W47958  23.490  33.470  13.333
79565W        W47959  29.169   7.580  11.945
79566W        W47960  41.860  42.869   1.268
79567W        W47961  20.916   6.806   1.323
79568W        W47962  35.434  36.060   4.088
79569W        W47963  44.300  43.925  11.195
79570W        W47964  32.358  13.764  12.170
79571W        W47965   8.004  32.415   4.799
79572W        W47966   5.223  23.596   4.538
79573W        W47967  14.356   6.529   1.880
79574W        W47968  22.781  13.823   4.291
79575W        W47969   6.355  10.564   2.835
79576W        W47970  35.404  18.054  14.314
79577W        W47971   2.352  21.911   1.130
79578W        W47972  41.374  41.913  13.306
79579W        W47973   8.907  33.910  12.554
79580W        W47974  25.808   1.761   1.334
79581W        W47975  17.350  16.768  11.999
79582W        W47976  30.120  10.376  13.773
79583W        W47977  38.696   3.307   4.791
79584W        W47978  29.610  22.553   3.165
79585W        W47979  35.073  38.107   2.422
79586W        W47980  31.440  26.276  12.881
79587W        W47981  34.456  26.658  12.677
79588W        W47982  32.562  19.626   2.378
79589W        W47983  28.509  13.017  14.870
79590W        W47984  11.083  10.158   1.720
79591W        W47985  16.752  34.943  13.320
79592W        W47986  14.630  31.925   0.688
79593W        W47987  34.998  39.052   1.854
79594W        W47988  44.232  39.010  14.049
79595W        W47989  12.287   3.860   0.328
79596W        W47990  12.705  10.621  13.008
79597W        W47991  21.126   6.666   0.562
79598W        W47992  27.359  11.410   2.671
79599W        W47993  27.196   9.626   1.920
79600W        W47994  21.375  31.726   2.935
79601W        W47995  26.043  12.844  11.583
79602W        W47996  44.396  15.230  13.048
79603W        W47997  44.185  12.729  13.483
79604W        W47998  29.525   3.510   4.556
79605W        W47999   1.045  40.955  12.536
79606W        W48000  10.441  26.486  12.917
79607W        W48001  12.956  11.365  11.167
79608W        W48002   3.326   0.210   2.274
79609W        W48003  17.875  33.026   3.230
79610W        W48004  34.387  32.029  10.766
79611W        W48005  23.086  33.561  11.231
79612W        W48006   0.451  25.022   3.713
79613W        W48007  15.267  30.863  11.226
79614W        W48008  18.549   7.287   1.476
79615W        W48009  41.030   2.305   4.141
79616W        W48010  19.011  18.191   3.715
79617W        W48011   8.271  27.168   0.270
79618W        W48012  35.889  24.231   1.363
79619W        W48013   7.142  13.783   4.102
79620W        W48014  39.121   7.342   3.319
79621W        W48015  28.701  28.428   3.711
79622W        W48016  13.545  16.825   4.787
79623W        W48017  27.133  16.339   4.325
79624W        W48018  30.974  42.784  12.536
79625W        W48019  19.986  16.454  13.194
79626W        W48020  17.853  22.701  12.598
79627W        W48021  21.232  38.055  14.513
79628W        W48022  27.972  32.583   1.027
79629W        W48023  33.547  40.382   5.180
79630W        W48024  27.479   4.588   1.876
79631W        W48025   2.316  20.701   2.932
79632W        W48026   7.487  21.022   3.309
79633W        W48027  29.343  32.394  11.030
79634W        W48028  44.738  26.019  12.010
79635W        W48029  18.606  26.949  14.973
79636W        W48030  10.210   5.190   4.594
79637W        W48031  17.659  27.580   2.527
79638W        W48032   0.359  13.869   3.876
79639W        W48033  30.349  14.082   4.045
79640W        W48034  22.030   5.429  13.904
79641W        W48035  41.552  32.584  13.748
79642W        W48036  23.157  12.929  11.102
79643W        W48037  10.058  20.914  14.869
79644W        W48038   3.339  21.593   0.229
79645W        W48039   6.277  18.050  14.441
79646W        W48040  19.640   9.928   2.544
79647W        W48041  15.467   0.805   3.657
79648W        W48042  36.111  40.586   0.008
79649W        W48043  13.478   7.061  11.703
79650W        W48044  11.356  20.168   4.594
79651W        W48045   1.628  13.363   0.372
79652W        W48046  23.877  43.373  11.990
79653W        W48047  11.678  19.786  12.139
79654W        W48048  37.496  18.605  10.769
79655W        W48049  15.882  24.605   0.514
79656W        W48050  24.665  24.883   0.157
79657W        W48051  22.268   9.700  11.049
79658W        W48052  18.203  31.775  11.776
79659W        W48053  36.951   7.258   2.038
79660W        W48054  38.612  29.220  11.586
79661W        W48055  17.705  26.135   4.529
79662W        W48056  16.226  34.105  14.125
79663W        W48057  33.028  41.853  14.618
79664W        W48058  15.616  41.713   5.064
79665W        W48059  24.511  33.993  13.990
79666W        W48060  26.443  18.243   1.441
79667W        W48061   9.322  41.837   1.455
79668W        W48062  14.697   4.421  12.426
79669W        W48063   3.665   3.863   5.516
79670W        W48064   0.788  28.250  12.120
79671W        W48065  42.240  14.602  13.729
79672W        W48066  27.624  38.286  13.496
79673W        W48067  24.988  32.921  11.641
79674W        W48068   5.015  36.045   4.263
79675W        W48069  35.204  43.462   1.805
79676W        W48070  37.400  12.232  13.921
79677W        W48071   9.209  27.711   0.603
79678W        W48072  40.900  10.091  11.982
79679W        W48073  24.200  42.267   1.186
79680W        W48074  26.332  41.705   4.985
79681W        W48075  17.457  10.168   0.784
79682W        W48076   4.633  10.866  11.488
79683W        W48077   2.417  31.673  12.022
79684W        W48078  14.230   6.009  12.042
79685W        W48079  21.000   3.387   5.091
79686W        W48080   9.117   2.935  13.244
79687W        W48081   4.136  15.692   1.763
79688W        W48082  38.034   9.642   1.788
79689W        W48083  14.748  31.161  14.302
79690W        W48084  36.325  30.466   3.115
79691W        W48085   0.258  12.336  12.941
79692W        W48086   5.168  40.977   3.562
79693W        W48087   6.391   5.596   0.167
79694W        W48088  35.682  16.463  13.559
79695W        W48089  29.855   0.934  11.050
79696W        W48090  22.535  38.366  13.038
79697W        W48091  38.965   9.615  11.503
79698W        W48092  22.471  31.898  12.350
79699W        W48093   8.780   8.938   4.147
79700W        W48094  32.405  30.961   4.528
79701W        W48095  11.172  11.299   0.198
79702W        W48096  43.043  27.541  12.930
79703W        W48097   7.209  22.164  10.709
79704W        W48098  32.547  25.616  11.082
79705W        W48099  33.999  42.561   1.287
79706W        W48100  42.285  19.077   0.835
79707W        W48101  27.096  42.702   5.280
79708W        W48102  33.191  18.734  12.534
79709W        W48103  40.449  34.385  12.816
79710W        W48104  40.576  16.265   0.356
79711W        W48105  38.957  30.178  11.267
79712W        W48106  37.274  16.501   1.302
79713W        W48107  30.838  19.053   0.424
79714W        W48108  27.644  24.104   4.085
79715W        W48109  29.413  34.071  12.975
79716W        W48110   4.436  16.856   3.751
79717W        W48111  38.975   9.785  13.798
79718W        W48112  32.929  44.978   1.887
79719W        W48113   9.224  13.194   2.806
79720W        W48114  37.017  33.398   2.927
79721W        W48115  23.969  22.519  13.389
79722W        W48116  16.961  44.218  11.448
79723W        W48117  18.574  35.587   2.396
79724W        W48118  22.508  22.274   4.660
79725W        W48119  15.616  12.647  11.646
79726W        W48120  22.564  12.407   4.540
79727W        W48121   1.791  36.458  12.486
79728W        W48122  17.310  35.683   3.763
79729W        W48123  25.961   3.107   1.412
79730W        W48124  13.766  25.224  13.962
79731W        W48125   9.214  36.753   4.495
79732W        W48126   0.870  11.830  10.733
79733W        W48127  40.763  40.854  11.653
79734W        W48128  24.480  16.689   2.177
79735W        W48129  38.617  22.996   2.268
79736W        W48130  43.283  32.189  11.554
79737W        W48131  12.597  24.515  12.170
79738W        W48132  25.889  33.473   0.777
79739W        W48133  31.687   9.303  12.983
79740W        W48134  16.593   8.170  12.549
79741W        W48135  43.285  39.534   3.768
79742W        W48136  41.063  26.516   0.427
79743W        W48137  22.300   1.301   3.626
79744W        W48138  33.133  39.005  13.199
79745W        W48139  33.647  10.094  12.638
79746W        W48140   5.869  17.443   3.699
79747W        W48141  26.410  25.628  12.425
79748W        W48142  43.139  18.883   1.464
79749W        W48143  43.875  11.685  11.991
79750W        W48144  39.094  38.553  13.876
79751W        W48145  30.623  22.395   0.366
79752W        W48146  11.976  32.559   3.196
79753W        W48147  40.115  36.962   2.305
79754W        W48148  20.095  16.786   3.643
79755W        W48149  37.996  37.782   4.744
79756W        W48150  32.009  24.842   4.850
79757W        W48151   5.357  18.788   4.509
79758W        W48152  40.298   5.441  10.726
79759W        W48153  30.045  13.509  11.217
79760W        W48154  43.650   6.665  12.341
79761W        W48155  25.147  20.202   4.061
79762W        W48156  12.351  19.479  10.671
79763W        W48157  18.770  17.473  14.509
79764W        W48158   6.185  39.923  11.927
79765W        W48159   9.333  30.412  13.975
79766W        W48160  29.262  14.062   1.727
79767W        W48161   8.749   4.745  14.956
79768W        W48162  10.953  38.479   2.157
79769W        W48163  42.254  18.571   3.624
79770W        W48164  44.914   7.195   1.747
79771W        W48165  31.512  11.845  11.942
79772W        W48166   1.042  18.228  12.046
79773W        W48167  32.416  14.365   3.980
79774W        W48168   8.324   8.428   0.449
79775W        W48169  15.197  22.417  14.208
79776W        W48170  20.946  13.159   4.607
79777W        W48171  23.664   2.642   0.305
79778W        W48172  13.867   5.388   3.270
79779W        W48173  23.308   7.817   1.581
79780W        W48174  34.307  17.147   0.923
79781W        W48175  19.847  11.066  14.524
79782W        W48176  38.053  10.952  12.363
79783W        W48177  26.499   7.956  11.259
79784W        W48178  29.041   1.896  13.609
79785W        W48179   2.392  14.169  11.713
79786W        W48180  37.721  29.902   2.061
79787W        W48181  42.925  14.301  12.057
79788W        W48182  13.344  43.976   2.478
79789W        W48183  39.862  10.780   3.827
79790W        W48184  27.348  24.105   0.945
79791W        W48185  29.630  26.151   4.409
79792W        W48186  21.952  22.143   1.917
79793W        W48187  37.815  16.207   4.946
79794W        W48188  26.187  36.888   3.145
79795W        W48189   8.474  10.268   4.659
79796W        W48190  37.407   1.667  11.189
79797W        W48191  43.429  18.222  14.875
79798W        W48192   2.699  37.347  11.116
79799W        W48193  10.327  12.459  14.506
79800W        W48194  14.046  22.774   5.163
79801W        W48195   3.272  30.003  13.987
79802W        W48196  42.456  21.133  10.688
79803W        W48197  19.522  39.857  12.466
79804W        W48198   6.538   3.330   4.350
79805W        W48199  18.358  21.223  11.461
79806W        W48200  41.419   7.710  11.894
79807W        W48201  36.928  13.349  12.996
79808W        W48202   1.745   8.090   1.727
79809W        W48203  43.662   1.293   2.694
79810W        W48204  19.468   8.700  13.502
79811W        W48205   8.860   5.514   3.824
79812W        W48206  37.900   2.783   0.924
79813W        W48207   3.213  32.633  10.766
79814W        W48208  28.377  43.145  13.916
79815W        W48209  31.078  43.412   4.517
79816W        W48210  28.154  40.854  10.744
79817W        W48211  41.753  26.385   4.177
79818W        W48212   1.380  17.185  13.298
79819W        W48213  18.169  33.859   1.268
79820W        W48214  22.370  25.156  10.189
79821W        W48215  41.459  25.705   3.704
79822W        W48216  23.580  28.482   3.187
79823W        W48217  25.718   3.076   2.436
79824W        W48218  40.637  35.346   3.191
79825W        W48219  18.055  29.356  12.470
79826W        W48220  43.369  15.086  11.181
79827W        W48221  39.533  29.104   0.416
79828W        W48222  21.751  36.909  14.033
79829W        W48223  26.793  12.063  10.039
79830W        W48224  30.811   4.534   4.736
79831W        W48225   4.086   5.818  14.133
79832W        W48226  25.104  42.988   1.379
79833W        W48227  13.639  29.704   2.297
79834W        W48228  19.807  31.111  12.511
79835W        W48229  42.356  38.326  14.530
79836W        W48230  20.179  23.150  10.158
79837W        W48231  24.050   7.674  13.011
79838W        W48232  31.974   0.046  10.347
79839W        W48233  10.803   2.411  12.413
79840W        W48234  11.947   0.200  13.047
79841W        W48235  16.836   7.458   0.321
79842W        W48236  23.965  28.235  11.243
79843W        W48237  11.455   0.832   1.960
79844W        W48238  44.162  33.653   4.751
79845W        W48239  19.558  22.210   4.628
79846W        W48240   8.781  18.752  14.762
79847W        W48241   0.469  39.871   3.110
79848W        W48242  26.745  21.768   2.856
79849W        W48243  10.226  44.289   5.152
79850W        W48244  35.082  26.699  11.529
79851W        W48245  40.566  15.140   2.260
79852W        W48246  17.232  44.535   3.408
79853W        W48247  44.391   6.264  14.503
79854W        W48248  42.689  10.216  12.538
79855W        W48249  39.577  34.626   0.706
79856W        W48250  41.946  39.551  12.072
79857W        W48251  32.453  43.819  14.606
79858W        W48252  10.391  39.970  13.639
79859W        W48253  31.694  14.889  14.399
79860W        W48254   6.945   1.768  10.578
79861W        W48255  27.647  37.937  14.437
79862W        W48256  33.397  23.853  13.932
79863W        W48257  24.187  40.058   2.985
79864W        W48258  39.386  35.485   0.356
79865W        W48259  15.815   9.092   2.446
79866W        W48260  32.135   4.617   4.291
79867W        W48261  21.971   1.147   4.071
79868W        W48262  10.353   6.993  10.455
79869W        W48263  42.253   1.173   2.163
79870W        W48264  26.534  23.212   3.681
79871W        W48265   4.145  24.946  12.713
79872W        W48266  16.033  26.206   1.776
79873W        W48267  20.305  24.224  13.341
79874W        W48268   0.222  44.876  11.600
79875W        W48269   5.477   1.019   3.177
79876W        W48270  41.741  25.563  11.205
79877W        W48271  31.613  30.936  11.745
79878W        W48272  15.321  25.592   2.706
79879W        W48273  38.065  21.967   4.281
79880W        W48274  22.582   5.645  13.339
79881W        W48275   3.431   9.583  12.686
79882W        W48276  41.297  13.354  13.813
79883W        W48277   9.789  32.620   0.346
79884W        W48278  44.899  27.009   1.500
79885W        W48279  25.538  31.466  11.988
79886W        W48280  14.560  31.363  12.979
79887W        W48281  42.852  43.916   3.347
79888W        W48282  26.700  21.460   3.263
79889W        W48283  42.297   2.950   3.368
79890W        W48284  33.214  38.953   1.416
79891W        W48285  11.388   1.770   0.364
79892W        W48286   3.210  19.025   3.257
79893W        W48287  40.402  18.580  13.000
79894W        W48288  26.772  20.800   3.609
79895W        W48289  24.522   0.009  12.543
79896W        W48290  36.267  30.485   3.651
79897W        W48291  21.420  13.249   9.834
79898W        W48292   8.123   6.518  13.938
79899W        W48293   9.736   5.725   3.194
79900W        W48294  27.035  39.002  13.407
79901W        W48295  24.063  11.162  14.637
79902W        W48296  41.416  31.840   2.468
79903W        W48297  14.674  21.312   0.407
79904W        W48298  28.026   6.236  11.119
79905W        W48299  19.023  37.006  13.542
79906W        W48300  17.091  21.230   2.769
79907W        W48301  39.086  31.168  12.473
79908W        W48302  12.254  37.481   4.837
79909W        W48303   7.152   1.514  11.570
79910W        W48304  16.619  24.573  13.917
79911W        W48305  39.190  36.627   3.132
79912W        W48306   2.379  13.807   1.200
79913W        W48307   5.735   7.129   0.370
79914W        W48308   5.843  44.454  11.968
79915W        W48309  13.218   7.687  10.547
79916W        W48310  31.908  43.939  11.153
79917W        W48311  39.872   5.481   0.729
79918W        W48312   0.109  15.126  10.707
79919W        W48313  36.847  19.874   3.126
79920W        W48314  21.117   4.319   2.774
79921W        W48315  21.732  12.290  14.912
79922W        W48316   4.762  29.391  12.122
79923W        W48317  11.320  10.267   0.296
79924W        W48318   0.710  40.838   4.798
79925W        W48319  22.995  11.714   0.924
79926W        W48320  29.381  29.564   0.673
79927W        W48321   7.046  13.919  11.682
79928W        W48322  32.026  16.269  14.493
79929W        W48323  19.594  12.596  13.481
79930W        W48324  17.868  38.091  13.628
79931W        W48325  21.124  11.430  11.276
79932W        W48326   3.181   4.918   1.838
79933W        W48327  18.673  15.344   3.210
79934W        W48328  26.021  20.277   3.082
79935W        W48329   4.867  38.071  11.987
79936W        W48330  41.261  25.166  11.649
79937W        W48331  15.140   4.940  12.920
79938W        W48332  16.189  14.810  10.891
79939W        W48333  18.736  34.070  12.546
79940W        W48334  16.146  36.420  12.240
79941W        W48335  20.669  38.837   4.342
79942W        W48336  17.191  14.381  10.351
79943W        W48337   9.120   1.315   0.191
79944W        W48338  19.094   8.528   2.983
79945W        W48339  41.075  21.233  13.358
79946W        W48340   6.400  18.742  11.963
79947W        W48341   4.741  30.218  10.617
79948W        W48342   8.861  17.336   2.965
79949W        W48343   7.237  18.710   1.660
79950W        W48344   2.403  42.456  14.984
79951W        W48345  34.982   4.178  14.298
79952W        W48346  16.776  10.784  12.911
79953W        W48347  12.567  37.499  10.961
79954W        W48348  33.295  36.863  11.827
79955W        W48349  21.160  24.031  10.649
79956W        W48350   4.705  35.427   0.974
79957W        W48351  17.212  43.809  14.327
79958W        W48352   6.313  32.968   3.749
79959W        W48353  22.036   0.869   3.616
79960W        W48354   9.008  10.704   0.907
79961W        W48355  37.234  10.909   0.380
79962W        W48356  15.893  44.176  11.262
79963W        W48357  31.125   9.339   4.570
79964W        W48358  15.136  25.452  14.203
79965W        W48359  26.457  31.488   3.661
79966W        W48360  35.574  13.056  13.878
79967W        W48361   5.830   5.456  11.943
79968W        W48362   9.688  37.862  12.771
79969W        W48363  44.922  22.537  13.451
79970W        W48364  34.840  13.052  10.307
79971W        W48365  43.316  38.388  13.186
79972W        W48366   9.600  33.522   2.350
79973W        W48367  20.679  33.603  13.464
79974W        W48368   5.492  33.206   1.370
79975W        W48369  31.420  34.118   2.860
79976W        W48370   5.380   6.368   4.121
79977W        W48371   3.048  20.548  13.566
79978W        W48372   5.468  41.254  13.466
79979W        W48373  11.859   9.520  12.086
79980W        W48374  27.056  42.667   1.722
79981W        W48375  24.137  39.480   1.664
79982W        W48376  13.694  27.694   2.942
79983W        W48377  41.814  37.048  13.933
79984W        W48378  41.183  39.217  11.776
79985W        W48379  42.770  22.704   1.408
79986W        W48380  16.793  23.526   1.216
79987W        W48381  28.401  41.524  14.528
79988W        W48382  44.204  32.680   0.424
79989W        W48383   7.863  20.309  13.075
79990W        W48384  33.170  27.245  12.442
79991W        W48385   4.417   4.651  14.923
79992W        W48386  12.304  43.755  14.466
79993W        W48387  40.451  35.641   1.847
79994W        W48388  32.093  32.407   0.947
79995W        W48389  43.981  10.339   3.211
79996W        W48390  35.080  40.017  12.439
79997W        W48391  40.434  21.134   2.440
79998W        W48392  17.077  43.795   4.561
79999W        W48393  27.358  32.116  14.436
80000W        W48394   1.345  18.570   1.736
80001W        W48395  10.992  24.480   3.164
80002W        W48396   6.111  30.441   1.599
80003W        W48397  16.801  11.625  12.316
80004W        W48398  41.162  32.846  11.092
80005W        W48399  36.156   5.586   0.455
80006W        W48400  34.056  29.507  14.943
80007W        W48401   9.654  39.061   2.258
80008W        W48402  16.719   1.011   2.314
80009W        W48403  27.532  35.104   4.686
80010W        W48404  43.706  35.478  14.904
80011W        W48405  31.542  38.323  11.102
80012W        W48406  32.021  31.115   2.708
80013W        W48407  40.254   2.389   1.220
80014W        W48408  20.545   3.633  13.574
80015W        W48409  24.812  24.761   3.726
80016W        W48410  18.711  32.623  12.492
80017W        W48411  17.043   2.347   2.736
80018W        W48412  41.808  39.228   0.443
80019W        W48413  11.223  27.553  11.657
80020W        W48414  35.431  21.038   2.831
80021W        W48415  19.881  31.457   4.073
80022W        W48416  27.196  34.784   1.439
80023W        W48417  27.206  31.434   3.206
80024W        W48418  17.249  23.580   0.956
80025W        W48419  26.827   1.430  13.343
80026W        W48420   7.197  22.533  12.973
80027W        W48421  16.810  33.934   2.405
80028W        W48422   3.838  34.653  11.964
80029W        W48423  17.389  27.019  10.290
80030W        W48424  24.573  28.906   4.100
80031W        W48425  20.158  32.355   3.219
80032W        W48426  39.471  15.339   0.380
80033W        W48427  30.077  20.093   1.917
80034W        W48428   9.307  16.842   0.028
80035W        W48429  25.666  20.795  13.065
80036W        W48430  13.866  32.822  13.341
80037W        W48431  42.827  11.626  10.977
80038W        W48432  30.916  15.783   2.289
80039W        W48433  35.465   1.951   0.764
80040W        W48434  10.246  35.097  10.410
80041W        W48435  23.151   6.344   2.653
80042W        W48436  20.750  40.122   1.190
80043W        W48437  19.816  18.758   1.473
80044W        W48438  29.074  13.180   1.429
80045W        W48439   7.950  38.635   0.224
80046W        W48440  21.954  17.105   0.315
80047W        W48441  36.535  11.196   1.184
80048W        W48442   3.963  37.554  10.775
80049W        W48443  37.592  19.732  13.343
80050W        W48444   7.887  15.839   1.428
80051W        W48445  11.095  36.624   1.219
80052W        W48446   8.092  39.138   4.061
80053W        W48447  44.553  29.545   2.274
80054W        W48448  14.004   5.212   4.109
80055W        W48449   4.227  12.344   4.153
80056W        W48450  20.685  40.778   4.448
80057W        W48451  34.594   0.162   2.686
80058W        W48452  38.979  28.158   0.272
80059W        W48453  33.945  42.596   4.393
80060W        W48454   4.813   0.830   0.783
80061W        W48455  23.921  33.033   0.046
80062W        W48456   6.939  26.709   1.324
80063W        W48457  12.996   5.757   4.107
80064W        W48458   8.414  35.468  10.646
80065W        W48459  44.180  16.083   1.394
80066W        W48460  24.270  29.661   1.027
80067W        W48461  28.427  34.117   4.088
80068W        W48462  29.669  23.066   9.592
80069W        W48463  41.191   2.527   4.574
80070W        W48464  27.349  36.753  12.883
80071W        W48465  27.495  17.168   4.868
80072W        W48466   4.197   8.142   1.685
80073W        W48467  20.415   6.434  11.219
80074W        W48468  35.425   6.397   1.908
80075W        W48469   0.617  32.689  13.561
80076W        W48470  15.362  11.754  14.765
80077W        W48471  38.530   4.497  14.005
80078W        W48472  41.829  22.169   4.270
80079W        W48473  30.148  10.532   4.184
80080W        W48474  29.246   0.883   4.717
80081W        W48475  18.568  43.711  14.407
80082W        W48476  30.351   0.429  12.321
80083W        W48477  43.542  20.354   2.178
80084W        W48478  18.101   5.418   0.423
80085W        W48479   1.325   3.089  11.982
80086W        W48480  37.301  28.514   0.900
80087W        W48481  14.470  43.465   2.755
80088W        W48482  40.474  29.958   4.257
80089W        W48483  36.948   7.638  14.580
80090W        W48484   0.923  43.399   2.421
80091W        W48485  35.924  44.786   3.688
80092W        W48486  27.630   1.817  13.275
80093W        W48487  37.586  31.414   2.922
80094W        W48488  34.454  25.410   4.591
80095W        W48489  40.755  39.061   1.387
80096W        W48490   8.631   6.067   3.209
80097W        W48491   2.074  17.760  14.673
80098W        W48492  19.893   6.511  11.995
80099W        W48493   0.514  33.425   1.233
80100W        W48494  37.118   5.218  14.580
80101W        W48495  37.585  28.392  11.157
80102W        W48496  30.292  32.246   2.932
80103W        W48497  44.983  13.775  10.539
80104W        W48498  40.049  20.516  14.882
80105W        W48499  35.073  10.259  10.453
80106W        W48500  28.429  40.359  14.450
80107W        W48501  44.342   2.151   1.274
80108W        W48502  34.747  22.161   3.275
80109W        W48503   1.785  32.232   1.010
80110W        W48504  15.869  31.997  10.299
80111W        W48505  35.684  13.041  12.133
80112W        W48506   8.250  30.480   0.413
80113W        W48507  16.241  39.928  11.397
80114W        W48508   5.764  14.338   0.030
80115W        W48509  43.333  26.037   1.114
80116W        W48510  33.422  31.622  11.244
80117W        W48511  44.428  40.387  12.047
80118W        W48512  41.593  29.640   3.751
80119W        W48513  32.392  13.039  13.999
80120W        W48514  28.139  31.048  13.033
80121W        W48515   2.309  26.013   3.733
80122W        W48516  16.144  39.017   0.417
80123W        W48517  19.495  43.793  11.051
80124W        W48518  36.489  33.778  13.308
80125W        W48519   1.717   4.381  14.805
80126W        W48520  17.065  12.279  12.880
80127W        W48521  21.500  11.625  10.996
80128W        W48522  41.996   1.232   3.272
80129W        W48523  30.491  11.137  11.571
80130W        W48524  27.169  16.896   3.302
80131W        W48525  19.202  34.652  11.158
80132W        W48526  25.156  10.845   1.222
80133W        W48527  25.002  41.859  13.612
80134W        W48528  11.341  17.119  14.826
80135W        W48529  44.352  17.667   0.964
80136W        W48530  30.917  29.207   4.743
80137W        W48531  37.828  31.837   3.087
80138W        W48532  19.626  28.681  13.908
80139W        W48533  14.114  11.678  13.464
80140W        W48534   6.867   7.882   0.724
80141W        W48535   6.769  10.889  13.064
80142W        W48536  24.623  41.569   2.389
80143W        W48537  15.857  33.380  14.319
80144W        W48538  22.211   2.092  12.502
80145W        W48539  35.165  26.119   0.833
80146W        W48540  43.964  23.098  14.831
80147W        W48541   3.277   9.050  11.102
80148W        W48542  16.753  40.789  12.645
80149W        W48543  34.382   3.842   3.898
80150W        W48544   6.390  30.930  11.131
80151W        W48545   8.962  40.963   0.821
80152W        W48546   2.305  18.606   1.695
80153W        W48547  44.310  42.731  10.638
80154W        W48548   8.172  23.707  12.034
80155W        W48549  41.738   4.390   0.957
80156W        W48550  41.374  35.799   2.345
80157W        W48551  44.614  22.980  12.575
80158W        W48552  36.693  12.107  13.368
80159W        W48553  29.926   0.451   1.806
80160W        W48554   6.656   4.689  12.543
80161W        W48555   9.897  38.943  13.036
80162W        W48556   3.410  33.884  12.050
80163W        W48557  12.679  32.770  12.969
80164W        W48558  17.579   8.806   2.267
80165W        W48559  39.334   2.679  13.457
80166W        W48560  30.034  32.325   4.524
80167W        W48561  42.613   9.184  11.659
80168W        W48562  29.670   7.757  11.840
80169W        W48563  14.758  37.490   3.134
80170W        W48564   6.187  23.402   4.460
80171W        W48565  33.511   7.299   3.576
80172W        W48566  18.379  22.760   4.400
80173W        W48567  29.710  43.417   5.102
80174W        W48568  16.639  14.646   0.904
80175W        W48569  18.235  41.897   0.082
80176W        W48570  19.149  23.528   4.252
80177W        W48571  33.981  16.406   3.171
80178W        W48572  35.975   4.967   4.046
80179W        W48573  20.580  41.780   3.617
80180W        W48574  28.525   5.159  13.481
80181W        W48575   5.461   2.197  11.071
80182W        W48576  22.971  33.678  14.073
80183W        W48577  35.563  13.626   0.008
80184W        W48578  36.068  27.490   4.186
80185W        W48579  20.455  20.092  11.512
80186W        W48580   3.758   4.258   3.786
80187W        W48581   3.224  41.992  10.775
80188W        W48582  22.144  17.523   0.038
80189W        W48583   0.387  24.773  10.642
80190W        W48584   6.159  21.550  10.400
80191W        W48585  36.424  10.289   0.192
80192W        W48586   1.268  40.018   4.988
80193W        W48587  38.055   4.864  10.389
80194W        W48588  15.570  28.340  12.870
80195W        W48589  38.309  39.941   4.160
80196W        W48590  13.075  15.666  13.469
80197W        W48591  22.321   0.474   2.807
80198W        W48592   5.907   9.642  12.957
80199W        W48593   9.675  42.898   2.612
80200W        W48594  19.078  33.841  11.509
80201W        W48595  34.644  38.291   2.159
80202W        W48596   4.016   3.719   1.138
80203W        W48597   7.064  10.199   4.933
80204W        W48598   5.898   7.463   0.835
80205W        W48599  41.448   5.333  13.485
80206W        W48600   8.984  13.793   2.397
80207W        W48601  37.562  27.629   1.253
80208W        W48602  23.738  20.785  10.720
80209W        W48603  30.970  14.166  14.479
80210W        W48604  39.498   4.881   1.806
80211W        W48605   3.524  19.344   1.059
80212W        W48606  27.203  19.612  11.906
80213W        W48607  42.584  38.804   0.274
80214W        W48608   4.790   4.563   4.037
80215W        W48609   8.481  27.587  14.550
80216W        W48610  44.524  35.416   3.238
80217W        W48611  15.522   9.509   3.622
80218W        W48612  38.950  38.776   3.753
80219W        W48613  14.087  15.845  14.413
80220W        W48614  10.200   5.722  14.256
80221W        W48615   8.967  35.385   2.811
80222W        W48616  38.664   1.488   4.092
80223W        W48617   1.762  13.196  14.444
80224W        W48618   9.944  12.070  14.707
80225W        W48619  11.452  40.425  11.513
80226W        W48620  22.175  10.912   2.248
80227W        W48621  25.238   3.743  11.668
80228W        W48622  15.269  35.176  14.492
80229W        W48623   5.394  29.490   2.324
80230W        W48624  30.839  42.229  12.516
80231W        W48625  23.778  22.243   4.240
80232W        W48626  12.204  29.909  14.511
80233W        W48627  12.564   1.864  13.296
80234W        W48628  42.238  15.585   0.871
80235W        W48629   7.957  41.867  13.429
80236W        W48630  10.004  19.550   3.084
80237W        W48631   1.231  28.899  10.907
80238W        W48632  24.284  36.771   3.102
80239W        W48633   8.634   2.375  14.457
80240W        W48634  42.409  40.805  13.476
80241W        W48635  21.791  42.024  11.507
80242W        W48636  14.785  13.624   4.643
80243W        W48637  11.907  30.090  13.728
80244W        W48638  44.414   1.859   1.699
80245W        W48639  42.968   6.667   3.819
80246W        W48640  23.976   7.251   1.538
80247W        W48641   6.883  10.591  14.261
80248W        W48642  25.243   0.555   5.031
80249W        W48643  23.787  19.098   1.274
80250W        W48644  16.399  20.281   2.392
80251W        W48645  11.048  36.058   2.028
80252W        W48646   7.745  29.462  13.396
80253W        W48647  31.038  26.791  13.424
80254W        W48648  13.826  33.638  12.438
80255W        W48649  19.503  10.965   0.482
80256W        W48650  33.548  19.107   4.334
80257W        W48651  24.115  20.132  14.786
80258W        W48652   7.438  44.392   4.677
80259W        W48653  24.200  28.656   0.010
80260W        W48654  14.809  27.957   1.830
80261W        W48655  11.587  14.361  12.116
80262W        W48656  14.360  26.751   1.119
80263W        W48657  29.431  29.501   4.483
80264W        W48658  42.444  39.295  11.424
80265W        W48659   3.311  16.278   1.159
80266W        W48660  14.699  32.874   0.470
80267W        W48661  32.867  27.102   0.016
80268W        W48662   3.462  17.607   0.906
80269W        W48663   6.952  24.993  12.038
80270W        W48664  23.301   8.833  12.862
80271W        W48665  21.888  13.755   2.146
80272W        W48666  22.557  29.609  13.796
80273W        W48667  16.614  36.341   2.559
80274W        W48668  39.318  33.561   4.105
80275W        W48669  19.554  29.402   2.801
80276W        W48670  28.569  16.086  12.612
80277W        W48671   3.230   9.823   0.414
80278W        W48672  13.597  15.548  11.395
80279W        W48673  29.514  30.315  11.611
80280W        W48674  14.548  19.719   4.146
80281W        W48675  35.391  24.220  13.895
80282W        W48676  41.736  28.224  10.252
80283W        W48677  26.404  41.990  11.882
80284W        W48678   3.213   3.306   3.697
80285W        W48679  16.309  30.222   1.283
80286W        W48680  15.742  44.288  10.771
80287W        W48681   6.770  35.384   0.722
80288W        W48682   6.516   8.423   0.528
80289W        W48683   0.229  19.127  13.371
80290W        W48684   2.034  18.115  12.316
80291W        W48685  24.717   4.909   1.040
80292W        W48686  33.470  26.373  14.402
80293W        W48687  26.060   3.039  12.443
80294W        W48688  30.581  41.297   4.647
80295W        W48689   1.951  35.273   3.401
80296W        W48690  30.069  11.416  10.687
80297W        W48691  23.131  41.005   4.367
80298W        W48692  37.395  35.615  13.687
80299W        W48693  18.314  12.071  13.899
80300W        W48694   8.274  29.938   3.680
80301W        W48695  31.002  11.922   3.620
80302W        W48696  27.501   8.938  11.179
80303W        W48697  12.928  25.757  11.661
80304W        W48698  42.459  14.182   3.087
80305W        W48699  19.975   7.410   3.755
80306W        W48700   2.734  42.098  14.024
80307W        W48701   2.123  41.353  14.847
80308W        W48702   1.315   0.186  13.902
80309W        W48703   5.397   0.196   0.860
80310W        W48704  29.763  43.881   0.345
80311W        W48705  43.466   5.908  12.156
80312W        W48706  33.633  39.230   4.795
80313W        W48707  14.627  39.915   4.600
80314W        W48708  17.546   1.878  14.924
80315W        W48709  23.465  40.293  11.166
80316W        W48710  19.691  19.060   3.660
80317W        W48711  28.003   9.404  10.621
80318W        W48712   5.965  43.543  12.071
80319W        W48713   1.279  36.410   4.577
80320W        W48714  33.471  38.495   1.387
80321W        W48715   4.760   1.625  11.581
80322W        W48716  20.239  12.686  13.045
80323W        W48717  16.210  39.275   1.888
80324W        W48718  20.166  22.741  12.881
80325W        W48719  10.601  27.947  11.973
80326W        W48720  40.360  24.433   1.485
80327W        W48721  33.656  42.517   3.380
80328W        W48722  36.185   4.387  11.339
80329W        W48723  19.472  43.760   1.218
80330W        W48724  37.602  28.142   1.943
80331W        W48725  36.988  44.798   0.899
80332W        W48726  39.293   7.097  11.552
80333W        W48727   9.264  35.598  11.613
80334W        W48728  23.086  35.444   0.960
80335W        W48729  44.446  33.478   2.756
80336W        W48730  23.861  43.709  13.164
80337W        W48731   9.255  31.144  10.792
80338W        W48732   2.763  29.119  14.191
80339W        W48733  22.474   8.795  11.477
80340W        W48734  23.545  17.247  10.614
80341W        W48735  20.311  44.573  10.349
80342W        W48736  42.415  25.054   0.175
80343W        W48737  32.057  40.455  11.682
80344W        W48738  20.515  13.660  12.367
80345W        W48739   4.829  20.664  13.624
80346W        W48740  23.715  34.665  14.603
80347W        W48741  22.029   7.889   1.811
80348W        W48742   4.062  25.602   9.961
80349W        W48743  10.216  34.027   3.437
80350W        W48744   3.941  11.214  11.639
80351W        W48745  14.590  38.746  11.701
80352W        W48746  19.600  34.168   2.079
80353W        W48747   5.187  24.938  12.471
80354W        W48748  26.964   2.726  11.196
80355W        W48749  24.094  10.630   4.071
80356W        W48750  32.049   8.749   1.627
80357W        W48751  10.600  19.211  12.978
80358W        W48752   2.049   5.223  13.473
80359W        W48753   4.696   9.344  14.819
80360W        W48754  16.548  24.088   4.583
80361W        W48755  10.779  30.396  14.815
80362W        W48756  37.854   8.509  13.436
80363W        W48757  39.820  26.277  13.512
80364W        W48758  35.906  26.780  12.188
80365W        W48759   2.751  23.518   1.270
80366W        W48760   7.959  20.868  12.059
80367W        W48761  44.770  16.113   0.687
80368W        W48762  29.974  34.941  11.565
80369W        W48763  11.834  34.065   4.340
80370W        W48764  18.212   1.344  14.546
80371W        W48765   7.873   9.670   3.738
80372W        W48766  17.039  34.429  12.566
80373W        W48767  33.599   2.219  11.983
80374W        W48768  40.014  12.387   3.753
80375W        W48769  38.800  30.398   1.844
80376W        W48770  31.613  42.041  13.406
80377W        W48771  10.886   8.596   5.112
80378W        W48772  36.465  43.790   0.447
80379W        W48773  37.584  40.042  11.652
80380W        W48774  30.985   6.385   3.646
80381W        W48775   7.896  11.659   3.171
80382W        W48776   8.038  33.661  13.447
80383W        W48777  32.982  38.023   3.808
80384W        W48778  30.999   7.754   4.239
80385W        W48779   9.242  28.718   4.509
80386W        W48780  16.642   7.438  13.037
80387W        W48781  28.735  10.470   0.831
80388W        W48782  44.820  38.969   5.081
80389W        W48783  19.161  18.444   9.434
80390W        W48784  18.575  24.392   3.006
80391W        W48785  33.383  23.655  11.479
80392W        W48786  24.145  24.004  11.742
80393W        W48787   9.181  31.944   1.136
80394W        W48788   9.314  23.263  11.801
80395W        W48789  27.369  31.539  10.461
80396W        W48790  39.020  33.553   0.973
80397W        W48791  42.939  27.914   2.407
80398W        W48792  23.181  30.830  14.824
80399W        W48793  39.526  31.644   0.897
80400W        W48794  22.678  34.618  12.476
80401W        W48795  17.080  34.151   0.723
80402W        W48796  42.244  43.091   2.484
80403W        W48797  26.879  19.969  11.153
80404W        W48798  41.864  44.372   2.672
80405W        W48799  12.214  29.579   2.780
80406W        W48800   9.096  23.919  10.730
80407W        W48801   8.430  22.100   0.433
80408W        W48802   8.676   6.635   4.037
80409W        W48803   1.913  16.108  12.044
80410W        W48804  38.804  26.053   0.402
80411W        W48805   3.014  19.322  12.708
80412W        W48806  29.973  14.820  11.623
80413W        W48807  16.636  23.525   0.724
80414W        W48808  43.776  15.376   1.116
80415W        W48809  38.023  36.833  13.742
80416W        W48810  26.052  41.378  13.117
80417W        W48811  10.516  35.826   2.743
80418W        W48812  19.979  42.873   3.641
80419W        W48813  32.607  19.743   0.567
80420W        W48814  42.918  21.457   0.859
80421W        W48815  29.185   4.568   3.705
80422W        W48816   0.958  44.192   2.197
80423W        W48817  19.077  16.740   2.278
80424W        W48818  36.100  32.821   2.307
80425W        W48819   8.265   2.724  14.392
80426W        W48820  34.360  13.895  11.786
80427W        W48821  28.239  32.159   3.704
80428W        W48822  10.902  30.527   0.726
80429W        W48823  26.569  39.354   1.645
80430W        W48824  31.086   6.244  12.784
80431W        W48825  11.182   1.852   2.674
80432W        W48826   1.201  24.837   1.704
80433W        W48827  36.610  17.571  12.252
80434W        W48828   5.231  32.859  10.674
80435W        W48829  36.483  29.064  10.471
80436W        W48830   7.815  23.742  14.270
80437W        W48831  15.354  42.831   4.154
80438W        W48832  37.917  17.502   0.395
80439W        W48833  18.672  32.833  11.136
80440W        W48834  29.698  27.092  10.730
80441W        W48835  19.810   8.639   1.710
80442W        W48836  23.753  31.083  11.625
80443W        W48837  34.985  34.430   2.849
80444W        W48838  12.478  37.565  12.234
80445W        W48839  15.931  18.080   9.783
80446W        W48840  16.351  20.349   1.516
80447W        W48841   4.990   1.796  12.018
80448W        W48842   7.647  42.877  14.697
80449W        W48843  38.302  11.795  11.093
80450W        W48844  33.912  13.011  11.523
80451W        W48845  11.147  19.530  12.875
80452W        W48846   6.278  44.851   0.351
80453W        W48847   3.908   1.208  11.643
80454W        W48848  13.830  38.493  14.554
80455W        W48849  10.875  19.923  10.429
80456W        W48850  31.186   6.136  12.304
80457W        W48851  29.556  30.126   3.617
80458W        W48852  15.734  36.121  12.328
80459W        W48853  44.566  42.266   4.162
80460W        W48854  16.031  36.485   2.179
80461W        W48855  34.860  19.339   1.015
80462W        W48856  31.166  20.508  13.467
80463W        W48857  23.641  34.890  10.301
80464W        W48858  43.894   9.451   3.324
80465W        W48859  37.744  43.581   1.645
80466W        W48860  21.092  23.700  12.903
80467W        W48861  42.561  18.976  13.166
80468W        W48862  27.197  12.360   4.846
80469W        W48863  16.211  40.061  12.462
80470W        W48864  11.741  26.978  12.912
80471W        W48865  23.698  15.570   2.722
80472W        W48866  11.397  31.454  11.942
80473W        W48867  30.825  27.738  10.281
80474W        W48868   0.495  40.547   1.955
80475W        W48869  44.925  11.853   4.226
80476W        W48870  14.345  21.355  12.130
80477W        W48871  40.365  23.798   2.270
80478W        W48872  41.322  43.425  13.626
80479W        W48873  13.596  17.176   3.579
80480W        W48874  37.682  23.491   3.288
80481W        W48875  15.042  31.432   1.816
80482W        W48876  42.957   5.500  12.527
80483W        W48877  40.568  39.576  13.409
80484W        W48878  34.443  24.904   4.438
80485W        W48879  23.294  41.269  13.788
80486W        W48880  10.826   6.225   0.760
80487W        W48881   4.798  23.462   0.295
80488W        W48882  10.300   0.733  12.815
80489W        W48883  44.822  26.215  13.490
80490W        W48884  38.730  26.394  12.005
80491W        W48885  19.282  11.230  11.559
80492W        W48886  41.222  22.601  11.888
80493W        W48887  23.705  36.822   4.764
80494W        W48888  16.195  15.584   9.924
80495W        W48889  35.997  14.872   1.953
80496W        W48890  26.500   9.904  13.413
80497W        W48891  32.497  26.950  12.719
80498W        W48892  27.444   1.194  10.287
80499W        W48893  33.604  44.753   0.453
80500W        W48894  38.476  33.511  12.011
80501W        W48895  34.228  10.721   2.952
80502W        W48896  42.880  39.787  13.828
80503W        W48897  18.111  21.638  11.674
80504W        W48898  30.173  21.144  11.180
80505W        W48899   3.294  24.402  12.434
80506W        W48900  36.132   0.705   0.959
80507W        W48901  37.752  19.816  12.492
80508W        W48902  29.900  21.751  11.218
80509W        W48903  28.092   4.546   0.815
80510W        W48904  32.912  31.726  11.219
80511W        W48905   2.480  31.398  14.575
80512W        W48906   2.223  24.584   4.757
80513W        W48907  38.506  22.119  11.565
80514W        W48908  33.049   8.840   3.851
80515W        W48909  20.554  17.571  14.450
80516W        W48910  24.444  23.614  14.546
80517W        W48911  44.930  43.740   4.849
80518W        W48912   2.536  32.044  14.005
80519W        W48913  11.835  38.388  13.105
80520W        W48914  16.714   2.409   2.306
80521W        W48915   0.225  15.300   0.526
80522W        W48916  13.291  31.354  10.578
80523W        W48917  27.051  24.630   4.723
80524W        W48918  15.676  26.928  12.075
80525W        W48919  18.199   0.459   3.365
80526W        W48920  41.252   8.866   4.478
80527W        W48921  12.846  31.172  13.267
80528W        W48922  42.457  13.107   4.050
80529W        W48923  20.278  33.467  14.015
80530W        W48924   5.614  14.008   4.114
80531W        W48925   3.827   1.069  10.589
80532W        W48926  29.587  10.682   3.247
80533W        W48927   5.963  37.956   3.735
80534W        W48928  38.772  12.807   4.462
80535W        W48929  36.261  28.439  13.487
80536W        W48930   7.017  23.790   3.650
80537W        W48931  31.540  10.937   0.359
80538W        W48932  31.674   0.468   2.281
80539W        W48933  13.198   7.456   3.606
80540W        W48934  31.336   5.908   2.808
80541W        W48935   1.466  40.388   3.645
80542W        W48936  18.096  32.401  11.075
80543W        W48937  37.562  14.402  14.870
80544W        W48938   2.756  40.723   1.212
80545W        W48939  28.645  34.350   1.469
80546W        W48940   4.826  30.695   4.505
80547W        W48941  18.659  30.706  11.175
80548W        W48942  35.587  13.701  14.505
80549W        W48943  34.603   3.359  10.578
80550W        W48944  40.914  42.951   3.001
80551W        W48945  43.579  44.773  10.536
80552W        W48946  17.824  27.376   1.612
80553W        W48947   9.237   1.231   2.826
80554W        W48948  20.783  29.868  10.972
80555W        W48949  20.597  39.456  14.560
80556W        W48950  39.185  26.514   1.832
80557W        W48951  28.541   7.348   1.291
80558W        W48952   5.537  36.283  14.280
80559W        W48953  16.150  16.357   1.488
80560W        W48954   1.376  19.620  12.136
80561W        W48955  13.857  26.105   4.325
80562W        W48956  18.976   4.807   0.049
80563W        W48957  40.886  10.322  13.313
80564W        W48958  28.532  42.223   0.517
80565W        W48959  35.933  33.355   4.093
80566W        W48960  22.608   6.409  11.940
80567W        W48961  36.961   5.232  14.073
80568W        W48962  22.490  27.285   0.306
80569W        W48963  33.716  18.264   2.358
80570W        W48964  44.868  43.033  12.012
80571W        W48965  24.968  27.908   0.368
80572W        W48966  29.834  23.191   0.360
80573W        W48967  42.120  12.748  14.378
80574W        W48968  44.268  34.398  14.958
80575W        W48969  41.714  12.584  10.736
80576W        W48970  23.745  12.357  10.483
80577W        W48971   6.158  36.069   1.382
80578W        W48972  27.735  26.520  12.504
80579W        W48973  36.084  27.699   3.180
80580W        W48974  42.676  40.523  11.167
80581W        W48975  13.807  29.448  12.641
80582W        W48976  12.743  14.825  13.552
80583W        W48977  44.068  20.621  11.243
80584W        W48978   6.817  36.166   3.783
80585W        W48979   1.442  13.339   9.978
80586W        W48980   9.837  39.999   0.765
80587W        W48981  17.317  38.454   0.084
80588W        W48982  26.976  26.493   4.355
80589W        W48983  41.989  34.914  10.905
80590W        W48984  41.426  24.031  14.243
80591W        W48985   0.828  20.635  13.845
80592W        W48986   4.812  33.645  12.983
80593W        W48987  14.166  28.197   0.762
80594W        W48988  41.860   4.461   2.698
80595W        W48989  22.390   7.690  11.869
80596W        W48990  27.996  43.699   3.448
80597W        W48991  25.127  21.829   2.159
80598W        W48992  25.451   3.508  12.808
80599W        W48993  40.333  28.039   2.934
80600W        W48994  30.418   3.490   0.239
80601W        W48995  35.403  44.747  12.070
80602W        W48996  10.191  22.893  14.954
80603W        W48997   2.931  44.494  14.895
80604W        W48998  28.848  29.242  11.665
80605W        W48999  15.194   1.688   4.165
80606W        W49000  26.201  43.916  12.915
80607W        W49001  13.661  21.304  13.029
80608W        W49002  33.867   9.142  10.837
80609W        W49003  29.216  23.211  11.661
80610W        W49004  43.755   3.703  12.526
80611W        W49005  39.162  25.064  13.102
80612W        W49006  23.071   0.452   1.007
80613W        W49007  14.831   0.716   0.228
80614W        W49008  10.930   9.938  11.992
80615W        W49009  32.653  23.350  11.761
80616W        W49010  19.722  10.928   4.558
80617W        W49011  38.111   5.335   3.754
80618W        W49012   2.193   9.894   1.209
80619W        W49013  31.575  15.220   3.569
80620W        W49014  44.039  15.951   2.355
80621W        W49015  11.544  42.621  13.973
80622W        W49016   0.247   9.267   4.582
80623W        W49017   2.881  18.516   2.783
80624W        W49018  22.716  37.621   3.020
80625W        W49019   2.745   8.204   2.890
80626W        W49020  32.090  22.472   1.355
80627W        W49021  31.595   1.846   0.343
80628W        W49022   6.979  33.571  14.811
80629W        W49023  13.590  32.044   1.952
80630W        W49024  32.384  39.022   4.717
80631W        W49025  36.072  15.212   3.086
80632W        W49026  19.885  22.920   1.519
80633W        W49027  13.327   2.965  10.712
80634W        W49028  20.887  12.937   4.100
80635W        W49029  18.034  13.117  12.346
80636W        W49030  14.233  30.718   1.417
80637W        W49031  26.042  24.975  13.026
80638W        W49032  35.598  10.683  13.848
80639W        W49033   9.522  33.114   3.642
80640W        W49034  11.351   9.856  10.682
80641W        W49035   2.917  33.146  12.138
80642W        W49036  11.784  31.316   3.056
80643W        W49037  12.248  38.272   1.419
80644W        W49038  40.046  16.357  12.463
80645W        W49039   1.490  24.699   1.297
80646W        W49040  38.880  41.367   2.828
80647W        W49041   1.194  35.658  12.499
80648W        W49042   8.652  20.337   4.001
80649W        W49043  37.903  30.924  13.365
80650W        W49044   2.418   2.296   4.677
80651W        W49045  37.932   0.834   0.855
80652W        W49046   6.596  14.356  14.416
80653W        W49047  23.711  42.445   1.374
80654W        W49048  19.315  32.458  12.990
80655W        W49049  23.110  44.718   3.718
80656W        W49050  37.612  35.365  11.733
80657W        W49051  35.463  35.161   3.988
80658W        W49052  21.351  18.066   4.418
80659W        W49053   3.974   6.739  14.721
80660W        W49054  34.089   8.686  12.449
80661W        W49055  14.014  29.075   0.344
80662W        W49056  39.019  28.048  12.839
80663W        W49057  14.798  24.718  11.811
80664W        W49058  26.114   8.090  13.432
80665W        W49059  26.770  38.955   1.362
80666W        W49060   5.178  21.990   0.847
80667W        W49061   7.431  22.749   3.696
80668W        W49062  33.605  12.081  12.618
80669W        W49063  22.029  36.371  13.576
80670W        W49064  43.983  34.154   3.451
80671W        W49065  14.376  39.529   5.527
80672W        W49066  37.927  35.490   4.767
80673W        W49067   4.260   6.262   0.485
80674W        W49068  29.207  35.077  13.096
80675W        W49069  32.816  43.030  14.955
80676W        W49070  25.404  36.523   4.159
80677W        W49071   6.781  11.239  10.936
80678W        W49072  36.150  12.360   4.161
80679W        W49073  14.937  12.773   1.574
80680W        W49074  19.258  43.563   0.546
80681W        W49075   7.858   7.475   3.180
80682W        W49076  27.200  19.330   0.893
80683W        W49077  33.379  21.504   3.327
80684W        W49078  37.962  44.515   2.194
80685W        W49079  32.408  16.532  12.370
80686W        W49080   8.863  14.311  11.617
80687W        W49081   8.891  40.272   1.367
80688W        W49082  32.339  28.765   1.311
80689W        W49083  17.646  24.024  12.130
80690W        W49084  19.566   0.795  10.608
80691W        W49085  21.716  13.585  14.873
80692W        W49086  24.146   0.693   3.771
80693W        W49087  37.601   6.922  14.932
80694W        W49088  33.424  38.120   3.324
80695W        W49089   5.172  30.858  11.973
80696W        W49090   6.251  15.758  10.735
80697W        W49091   4.165  12.376  11.674
80698W        W49092   5.334   5.820   4.779
80699W        W49093  13.947  17.063  12.568
80700W        W49094  19.739  19.803  12.378
80701W        W49095  37.419  21.260   2.435
80702W        W49096   6.117  27.097  12.014
80703W        W49097  31.498  29.632  13.008
80704W        W49098  13.441  34.357   4.842
80705W        W49099  14.184   8.688   1.868
80706W        W49100  10.108  29.621   0.393
80707W        W49101  22.938   6.285   1.675
80708W        W49102  44.735  17.740  11.980
80709W        W49103   4.435  36.083  10.595
80710W        W49104  44.427  17.151   2.620
80711W        W49105  28.138  16.520   1.697
80712W        W49106  43.851  16.122  13.787
80713W        W49107  25.497  30.193  14.477
80714W        W49108  37.046  27.298   1.995
80715W        W49109  18.837  19.624  11.496
80716W        W49110   4.796  14.834  13.388
80717W        W49111   7.118  28.006   5.057
80718W        W49112   5.430  20.672  12.038
80719W        W49113  39.318  37.034   4.350
80720W        W49114  42.042  33.401   1.664
80721W        W49115   9.918  26.380  11.457
80722W        W49116  33.444  12.577   4.277
80723W        W49117  44.753  37.575   0.415
80724W        W49118   3.420   3.237   1.285
80725W        W49119  34.493  28.137  11.941
80726W        W49120  36.255   4.266   0.475
80727W        W49121  33.872  35.582   3.194
80728W        W49122   1.708  26.450  11.466
80729W        W49123  25.070  13.755   4.714
80730W        W49124  31.017  42.559  13.012
80731W        W49125  14.363  12.876   0.876
80732W        W49126   9.820   7.713  14.920
80733W        W49127  26.478  29.492  13.500
80734W        W49128  19.090  42.294   0.018
80735W        W49129  29.665  44.390  14.811
80736W        W49130  22.479  29.912   4.282
80737W        W49131  23.622  16.253  14.874
80738W        W49132  34.526  34.559   2.626
80739W        W49133  11.185  11.641   1.780
80740W        W49134  16.152  44.406   2.997
80741W        W49135  14.163  42.832   2.330
80742W        W49136   5.185  27.348   2.770
80743W        W49137  39.456  29.453  11.265
80744W        W49138   3.700  30.796   1.323
80745W        W49139  35.906  30.484   2.459
80746W        W49140  26.518   5.450   1.230
80747W        W49141  17.217  19.458  12.153
80748W        W49142   3.398  42.615  13.337
80749W        W49143   1.593   0.870   0.830
80750W        W49144  36.082  10.702  14.111
80751W        W49145  41.952  41.276   2.291
80752W        W49146   5.202  44.520   4.314
80753W        W49147  40.425  39.129   1.785
80754W        W49148  20.447  24.688   1.187
80755W        W49149   5.509  34.520  11.898
80756W        W49150  27.522  28.504   0.116
80757W        W49151  16.305  18.639   0.047
80758W        W49152  40.237  27.597   4.161
80759W        W49153  39.922   0.434  12.506
80760W        W49154  41.043  29.471   1.385
80761W        W49155  11.806  18.501   1.060
80762W        W49156   1.827  19.782   1.803
80763W        W49157  20.021  24.565  14.764
80764W        W49158  14.961  37.082  14.578
80765W        W49159  32.440  43.238  13.121
80766W        W49160  36.791   3.485   4.845
80767W        W49161  18.050  28.868  12.334
80768W        W49162  32.533  24.067   4.445
80769W        W49163  20.987  11.755   0.807
80770W        W49164   3.301  14.381   0.771
80771W        W49165  41.075  27.740   4.259
80772W        W49166  40.050  41.365   2.910
80773W        W49167   5.884  33.273  12.032
80774W        W49168  28.336  15.588   4.648
80775W        W49169  12.938  16.206   4.180
80776W        W49170  11.787   9.981   0.294
80777W        W49171   8.110   2.961  10.183
80778W        W49172  40.859  36.042   0.281
80779W        W49173  21.177   3.961   3.166
80780W        W49174  11.426  22.957  13.028
80781W        W49175  23.310  35.848   4.713
80782W        W49176   1.834   7.655  12.095
80783W        W49177  30.291  40.416  13.103
80784W        W49178  17.074  34.958  14.628
80785W        W49179  25.223  17.996  11.505
80786W        W49180  16.680  21.955   2.221
80787W        W49181  42.638  43.025   0.760
80788W        W49182  29.594  39.988  11.158
80789W        W49183  17.014   8.373  11.161
80790W        W49184  12.884   6.397  13.481
80791W        W49185  25.025  21.206   0.417
80792W        W49186  32.634  34.445   3.595
80793W        W49187  16.180  37.331  12.633
80794W        W49188  20.708  38.297  14.871
80795W        W49189   8.869   0.497  10.214
80796W        W49190  28.983  18.208  11.345
80797W        W49191   7.463  15.846   3.619
80798W        W49192   6.268  26.147   4.589
80799W        W49193  35.149  31.949   1.315
80800W        W49194  42.285  18.010  12.346
80801W        W49195  32.536  25.723  13.991
80802W        W49196  27.699  16.744   4.631
80803W        W49197  25.050  27.141   4.525
80804W        W49198  11.801   6.349   1.730
80805W        W49199   8.881  30.181  14.117
80806W        W49200  18.605  41.455   5.259
80807W        W49201  44.990   2.580   3.820
80808W        W49202  13.590   2.587  13.044
80809W        W49203  36.798  38.548  10.561
80810W        W49204  15.181  20.982  11.255
80811W        W49205  40.062   3.744   4.491
80812W        W49206  35.655  27.299   3.922
80813W        W49207   0.369  23.575   2.795
80814W        W49208  16.980  17.067   2.677
80815W        W49209  12.778  29.846   4.060
80816W        W49210   0.499  34.004  14.201
80817W        W49211  17.564  18.174   4.114
80818W        W49212  36.663  13.382   2.366
80819W        W49213  23.903  15.405   1.433
80820W        W49214   4.688  43.808  13.807
80821W        W49215  35.260  23.409   1.806
80822W        W49216   3.648  44.105  12.688
80823W        W49217  15.726  21.722  13.758
80824W        W49218   3.652  42.938  13.972
80825W        W49219   0.467   2.679  14.325
80826W        W49220   0.132  38.092  10.041
80827W        W49221  16.236  40.542   2.873
80828W        W49222  17.741  33.477   1.006
80829W        W49223  19.733  25.437  11.606
80830W        W49224  41.907  19.020  12.061
80831W        W49225  23.062  31.023  10.956
80832W        W49226  27.571  38.718  11.398
80833W        W49227  34.806   4.462  11.159
80834W        W49228   8.041  41.782   4.144
80835W        W49229  18.376  14.119   1.259
80836W        W49230  42.878  12.839  14.918
80837W        W49231   4.801  31.326  13.532
80838W        W49232  25.938   7.931   4.202
80839W        W49233  40.882  30.030   2.904
80840W        W49234  17.172  18.479  14.951
80841W        W49235  42.491  35.894   2.780
80842W        W49236   0.990  10.559  11.539
80843W        W49237  35.142  20.128  12.930
80844W        W49238   4.158   6.263  11.095
80845W        W49239   8.177  38.306  13.613
80846W        W49240  34.027  22.185  11.012
80847W        W49241  26.174  38.535  13.614
80848W        W49242   2.185  29.419  12.952
80849W        W49243  26.417  38.573  12.008
80850W        W49244   9.118  38.910   2.302
80851W        W49245  42.808  13.884  14.101
80852W        W49246  17.153  23.077   4.645
80853W        W49247  42.818  35.808   3.188
80854W        W49248  18.635  31.725   9.946
80855W        W49249  32.922  10.905  11.567
80856W        W49250   7.234  42.076  12.509
80857W        W49251  23.578  23.292  13.403
80858W        W49252  22.278  36.582   0.904
80859W        W49253  29.168  35.538   1.665
80860W        W49254  29.566  27.109   1.276
80861W        W49255   5.490  25.078   2.680
80862W        W49256  25.464  24.738  12.507
80863W        W49257  26.525  14.289   2.307
80864W        W49258   7.182  32.133   2.424
80865W        W49259   7.331  32.890  10.537
80866W        W49260  27.600   7.365   4.300
80867W        W49261  26.839  22.105   1.149
80868W        W49262  22.259   2.485   3.614
80869W        W49263   0.774  22.129  14.303
80870W        W49264   4.598  10.186   3.797
80871W        W49265  27.779   3.368  12.920
80872W        W49266  19.178  14.718  14.087
80873W        W49267  17.254  17.815  14.271
80874W        W49268  20.558  16.030  12.005
80875W        W49269  27.714  36.311   2.706
80876W        W49270   2.023  12.619  12.954
80877W        W49271  16.442  40.569   3.359
80878W        W49272  42.404  23.131  13.943
80879W        W49273  44.541  25.568  10.538
80880W        W49274  34.115  34.300   2.411
80881W        W49275  25.049  11.580   3.437
80882W        W49276  32.959  21.207  10.898
80883W        W49277   7.441  35.503   2.314
80884W        W49278  21.160  19.124   2.267
80885W        W49279   2.889  13.883  13.214
80886W        W49280  23.555   4.376  14.264
80887W        W49281   4.363  13.825  11.222
80888W        W49282  44.283  44.968  14.106
80889W        W49283  20.157  21.550  10.410
80890W        W49284  42.459  24.796  14.679
80891W        W49285  32.577   8.298   4.609
80892W        W49286  12.033  34.026  12.979
80893W        W49287  33.909   7.375   3.239
80894W        W49288  33.551   9.888  14.886
80895W        W49289  16.852  14.918   1.730
80896W        W49290  30.665  19.610  14.272
80897W        W49291  43.425  22.294   4.579
80898W        W49292  36.966  30.392   1.896
80899W        W49293  19.312  25.117  11.640
80900W        W49294  12.785   9.203   4.211
80901W        W49295  18.519   0.878   3.229
80902W        W49296  26.620   2.251   4.403
80903W        W49297   4.375  32.539   0.242
80904W        W49298  25.621  18.573   0.089
80905W        W49299  41.977   4.980   0.931
80906W        W49300  25.707   6.475   2.832
80907W        W49301  25.288  19.163  14.310
80908W        W49302   0.369  40.368   3.228
80909W        W49303  32.238  18.011  13.740
80910W        W49304  31.235  16.749   4.060
80911W        W49305   5.916   6.750  13.042
80912W        W49306  26.346  21.972   1.245
80913W        W49307  23.002  37.861   0.204
80914W        W49308  10.433  21.126   0.260
80915W        W49309  18.629  14.013   3.321
80916W        W49310  43.839   8.304  14.492
80917W        W49311  35.605  44.697  14.898
80918W        W49312  43.298  43.739   1.221
80919W        W49313  11.157   9.712  11.594
80920W        W49314   0.073  32.876   2.201
80921W        W49315  10.395   0.050   0.243
80922W        W49316  43.970   8.632  11.582
80923W        W49317  42.060   0.926  12.182
80924W        W49318  29.501  32.072  13.500
80925W        W49319   7.441   0.332  13.453
80926W        W49320  44.505  26.616  11.632
80927W        W49321  26.302  15.945   4.711
80928W        W49322  30.562  42.676  14.830
80929W        W49323  20.745  30.372  11.013
80930W        W49324  30.551  26.964  13.391
80931W        W49325  19.496  28.938   1.889
80932W        W49326  32.582   8.210   3.606
80933W        W49327  14.681   2.170  12.051
80934W        W49328  14.273  39.063  12.987
80935W        W49329  31.159  27.570   1.853
80936W        W49330  28.522  29.755  11.148
80937W        W49331  26.916   0.291   4.102
80938W        W49332   0.470  10.184   0.720
80939W        W49333  39.967  18.695  11.863
80940W        W49334  11.506  44.004   2.117
80941W        W49335   4.484  36.020   3.424
80942W        W49336  38.672   2.297  12.520
80943W        W49337  34.547   5.242  10.777
80944W        W49338   3.228   9.313  13.123
80945W        W49339  41.431  15.322   1.291
80946W        W49340  13.103  16.781  14.232
80947W        W49341  41.371  21.612   4.614
80948W        W49342  28.579   6.953  11.047
80949W        W49343  42.418  15.293  13.541
80950W        W49344  32.513   9.677   0.667
80951W        W49345  40.372  13.525  12.134
80952W        W49346  31.984  20.484   0.771
80953W        W49347  16.718  36.405  14.840
80954W        W49348  35.903   0.464  12.516
80955W        W49349  11.692  18.250  10.607
80956W        W49350  38.871  39.559   1.402
80957W        W49351  20.234   5.084   2.583
80958W        W49352  17.375  41.762   4.801
80959W        W49353  27.932   0.384   4.185
80960W        W49354  14.138  13.570  13.508
80961W        W49355  28.450  18.509   1.746
80962W        W49356  44.062   9.838   1.947
80963W        W49357  13.480  38.877  14.726
80964W        W49358  33.154  37.547  14.757
80965W        W49359  41.969  40.181   9.958
80966W        W49360   6.087   8.892   4.252
80967W        W49361   3.176   3.818  11.981
80968W        W49362  22.957  13.208   1.927
80969W        W49363   2.177  23.488   2.784
80970W        W49364  26.729  38.026  11.166
80971W        W49365  17.683  11.825  12.590
80972W        W49366  44.734  21.254  14.602
80973W        W49367  41.095  34.630  13.582
80974W        W49368  35.324  32.291   2.483
80975W        W49369  11.150  28.550   2.935
80976W        W49370  24.264  38.106  11.425
80977W        W49371   0.290  25.726  12.083
80978W        W49372  22.611   0.260  12.475
80979W        W49373  24.311   4.437   1.884
80980W        W49374  34.996  21.754  12.963
80981W        W49375  37.295  22.667  12.517
80982W        W49376  32.416  35.474   0.301
80983W        W49377   7.861  18.828  13.984
80984W        W49378   0.807  28.614  14.042
80985W        W49379   5.258   1.349  12.671
80986W        W49380   4.488  27.484   1.119
80987W        W49381  27.194  28.926   4.365
80988W        W49382  29.163  11.661   0.155
80989W        W49383  42.819  21.542  10.748
80990W        W49384  24.788  36.410  14.979
80991W        W49385  11.914  16.653  11.865
80992W        W49386  28.802  15.248   2.954
80993W        W49387  21.002  20.123  11.517
80994W        W49388  34.471  29.909  13.468
80995W        W49389  39.174  10.194   0.366
80996W        W49390  11.733  34.990   4.608
80997W        W49391  24.740   8.320  13.274
80998W        W49392  36.867  38.829   3.649
80999W        W49393  31.923   5.140  14.124
81000W        W49394  44.801  24.109  12.195
81001W        W49395  40.870  11.345   2.656
81002W        W49396   9.861   4.500   4.189
81003W        W49397  12.935  43.668  11.214
81004W        W49398  19.684  17.250   3.188
81005W        W49399  41.834  22.326  13.578
81006W        W49400  41.422   6.636  11.075
81007W        W49401  25.986  44.515   3.770
81008W        W49402   6.639  26.190  14.525
81009W        W49403  25.168  30.186   1.857
81010W        W49404  32.789  24.856   2.997
81011W        W49405  27.067  12.889  13.821
81012W        W49406  36.828  24.411   2.103
81013W        W49407  28.105  13.105   3.086
81014W        W49408  44.234  10.336  13.356
81015W        W49409  14.014  18.820  12.578
81016W        W49410  13.543  16.274   0.434
81017W        W49411  20.334  24.575   2.797
81018W        W49412   1.099  43.430  11.485
81019W        W49413  27.606   3.968  12.201
81020W        W49414  22.262  24.477  10.769
81021W        W49415   3.665  17.560   5.033
81022W        W49416   2.740  21.130   0.931
81023W        W49417  11.089   9.566  13.274
81024W        W49418  20.972  24.076   2.172
81025W        W49419   8.615  38.412  13.372
81026W        W49420  15.085   2.071  12.650
81027W        W49421  15.812  17.549   2.294
81028W        W49422  37.025   7.246  14.911
81029W        W49423  37.073  29.175   2.804
81030W        W49424  34.504  32.223  13.092
81031W        W49425  41.713  28.011  11.092
81032W        W49426  40.845   4.722  11.678
81033W        W49427   9.132   7.559   0.690
81034W        W49428  21.092  33.057  14.046
81035W        W49429   3.130  36.064   2.275
81036W        W49430  31.375  12.260   0.880
81037W        W49431   9.446  16.070  12.487
81038W        W49432  19.068  35.854   0.971
81039W        W49433  23.532  10.515  14.845
81040W        W49434  42.423  12.511  11.905
81041W        W49435   2.374  11.822  11.181
81042W        W49436   5.138  44.268  12.498
81043W        W49437  31.884  19.738   4.565
81044W        W49438  26.413  11.171  10.775
81045W        W49439  35.111  36.966   2.833
81046W        W49440   3.519  27.036  14.817
81047W        W49441  26.415  44.809   2.608
81048W        W49442  25.541  13.577   1.417
81049W        W49443  40.099  28.014  13.037
81050W        W49444  21.138  15.144  12.069
81051W        W49445  14.737  31.841   2.052
81052W        W49446  40.815  17.033   2.010
81053W        W49447  43.840  13.677   3.824
81054W        W49448  42.002  31.476  12.902
81055W        W49449  16.316  17.553  11.116
81056W        W49450   4.838  37.535   0.782
81057W        W49451   3.414  11.704   5.107
81058W        W49452  35.506  36.556  10.757
81059W        W49453   5.886  40.901  10.681
81060W        W49454  22.429  10.661  13.023
81061W        W49455  15.850  42.381   0.769
81062W        W49456   9.495   5.031  11.038
81063W        W49457  30.531  19.017  13.095
81064W        W49458  17.173  26.715  13.574
81065W        W49459  32.455   6.421   3.212
81066W        W49460  33.552  37.205  14.788
81067W        W49461  30.436  14.791  13.868
81068W        W49462   3.540  16.882   2.009
81069W        W49463  18.067  32.263  10.563
81070W        W49464  39.084  25.244  12.461
81071W        W49465  18.176  35.894   0.716
81072W        W49466  13.722  26.312   2.352
81073W        W49467   8.665  19.588   1.381
81074W        W49468   4.230  15.745  13.536
81075W        W49469  12.750  12.203   2.411
81076W        W49470   0.533  42.200  10.704
81077W        W49471  38.309  17.386  11.078
81078W        W49472  38.812  12.567  13.886
81079W        W49473  15.306  11.359   4.572
81080W        W49474  25.183  12.271   3.803
81081W        W49475  28.033   8.707  14.141
81082W        W49476  40.015  28.654  14.269
81083W        W49477  31.127   4.012   0.103
81084W        W49478  28.440  40.979   3.604
81085W        W49479   0.964  33.902  13.985
81086W        W49480   4.982  26.815   1.367
81087W        W49481  43.734  31.142   0.586
81088W        W49482   4.298   1.361   2.290
81089W        W49483   2.188  11.313  13.983
81090W        W49484   0.296  36.765  11.035
81091W        W49485  31.573  14.684   1.699
81092W        W49486   2.260  27.196  12.316
81093W        W49487  28.330  16.685   2.558
81094W        W49488   2.970   2.886   0.726
81095W        W49489   7.705  32.473   3.388
81096W        W49490  21.992  41.564   4.702
81097W        W49491   0.490  39.883   2.227
81098W        W49492  19.862   5.701   1.871
81099W        W49493   4.397  22.814  11.571
81100W        W49494   9.717  15.320  13.014
81101W        W49495  40.757  44.911   4.559
81102W        W49496   1.010  34.758  11.639
81103W        W49497  28.255  42.384  12.989
81104W        W49498  24.524  17.534   4.874
81105W        W49499  39.284  22.090   0.393
81106W        W49500  30.365   5.350   4.634
81107W        W49501  29.663  21.095  14.854
81108W        W49502  20.800  20.646   4.655
81109W        W49503  13.591  42.937   0.377
81110W        W49504  16.702  41.201   0.725
81111W        W49505  36.125  36.065  13.824
81112W        W49506  35.429  36.076  12.142
81113W        W49507   2.988  32.121  14.415
81114W        W49508  17.943  31.339  13.803
81115W        W49509   2.348   1.691  13.918
81116W        W49510   5.566  16.374   0.085
81117W        W49511  24.063  29.122  12.467
81118W        W49512  34.645   5.188   3.745
81119W        W49513  23.546  19.109   0.806
81120W        W49514   5.677  35.669  11.564
81121W        W49515  42.833  34.589   4.452
81122W        W49516  40.064  17.535   0.587
81123W        W49517  29.436   2.700  11.081
81124W        W49518  38.366  27.863  11.110
81125W        W49519   4.971  19.696  13.429
81126W        W49520  33.167  32.452   2.800
81127W        W49521  22.796   2.333   1.359
81128W        W49522  22.954  29.035  14.919
81129W        W49523   7.138   8.789   4.109
81130W        W49524  44.526  20.226  12.007
81131W        W49525   8.178  23.519  14.565
81132W        W49526  41.143  31.374   2.691
81133W        W49527   4.143  12.920   0.339
81134W        W49528  28.571   4.892  12.154
81135W        W49529  32.850  23.875   2.662
81136W        W49530  36.881   1.608   0.383
81137W        W49531   6.693  25.743  12.872
81138W        W49532   4.451  22.546   1.791
81139W        W49533  28.568  40.847   1.144
81140W        W49534  11.557  19.676  10.939
81141W        W49535  31.508  37.958   4.250
81142W        W49536  20.493  37.070  13.131
81143W        W49537  38.316  22.946   4.142
81144W        W49538  44.069   7.447   0.332
81145W        W49539  20.313  28.208   2.814
81146W        W49540   3.659  16.999   0.504
81147W        W49541  19.532  37.143  13.527
81148W        W49542  15.905   4.165  11.616
81149W        W49543  44.586  12.348  13.585
81150W        W49544  29.567  28.513  10.792
81151W        W49545  12.539  16.711   2.013
81152W        W49546   0.788   9.839  10.420
81153W        W49547  10.320  35.342   2.496
81154W        W49548   7.227  14.746   0.653
81155W        W49549  26.450  24.289   1.832
81156W        W49550   5.359  36.086  10.714
81157W        W49551  41.690  37.962  13.410
81158W        W49552  10.066   6.121  12.978
81159W        W49553  41.011  42.442  13.622
81160W        W49554  44.408  24.089   0.196
81161W        W49555  39.990  12.945   2.289
81162W        W49556  23.623  42.031  10.951
81163W        W49557  42.038  27.925   4.123
81164W        W49558  21.572  36.540   4.387
81165W        W49559   1.686  27.952   3.741
81166W        W49560  44.391  27.581  14.443
81167W        W49561  14.688   3.725   4.554
81168W        W49562   2.703  29.032  12.396
81169W        W49563   0.396  20.091   2.592
81170W        W49564   1.201  44.007   2.630
81171W        W49565  39.308  41.501   4.049
81172W        W49566   5.273  39.864   1.584
81173W        W49567  11.822   8.326   0.748
81174W        W49568   6.683  26.070   0.012
81175W        W49569  21.842  39.044  10.384
81176W        W49570   8.890  11.698  13.880
81177W        W49571  20.292   8.768  14.418
81178W        W49572   5.080   5.835  12.541
81179W        W49573   0.332  29.517  11.629
81180W        W49574  34.580  35.739   2.508
81181W        W49575  38.859   9.390  12.848
81182W        W49576   3.165  22.585   1.327
81183W        W49577  35.708  21.350   3.849
81184W        W49578  44.026  21.868  11.146
81185W        W49579  13.643  40.397  14.352
81186W        W49580  12.700   1.364   1.212
81187W        W49581  20.566  39.320  10.669
81188W        W49582  14.415  37.151  14.865
81189W        W49583  31.146  17.835  11.013
81190W        W49584  26.929   1.056   3.685
81191W        W49585  34.850  30.935  14.852
81192W        W49586   7.328  20.101   3.069
81193W        W49587  43.335  41.275   1.170
81194W        W49588   1.874   8.960   0.052
81195W        W49589   8.182  19.354  13.115
81196W        W49590   8.430   1.884   0.722
81197W        W49591  29.873  23.601  14.032
81198W        W49592  40.090   7.109   1.362
81199W        W49593   0.389  16.119   4.009
81200W        W49594   3.593  23.776   2.364
81201W        W49595  24.156  20.320   2.159
81202W        W49596  22.005   7.225  10.685
81203W        W49597  13.632  24.256   2.030
81204W        W49598  36.148   2.528  12.999
81205W        W49599  40.541  24.648  13.856
81206W        W49600  15.378   7.664   1.086
81207W        W49601   4.373  12.228   2.933
81208W        W49602   3.525  40.011   0.824
81209W        W49603  15.817  22.229   5.114
81210W        W49604  35.560   2.336  14.498
81211W        W49605  17.873  26.684  12.538
81212W        W49606  39.988  37.060   3.294
81213W        W49607   4.329  24.847  11.082
81214W        W49608  36.498  29.526  13.917
81215W        W49609  21.230   0.284  10.244
81216W        W49610  29.194  11.881   1.030
81217W        W49611  31.833  14.741  11.167
81218W        W49612   6.738  30.473  13.350
81219W        W49613  12.246  25.569   4.745
81220W        W49614  30.929  33.557  11.606
81221W        W49615   6.319   2.349   3.254
81222W        W49616   0.355  41.789  12.077
81223W        W49617  19.776  42.265   0.943
81224W        W49618  43.561  21.608  12.561
81225W        W49619  15.049   0.487   1.370
81226W        W49620  28.493  30.403  11.574
81227W        W49621   8.834   2.272  11.499
81228W        W49622  34.525  24.100  14.378
81229W        W49623  43.547  17.330   2.135
81230W        W49624   7.689   6.984   2.650
81231W        W49625  44.221  37.905   9.532
81232W        W49626   0.623  41.361   0.000
81233W        W49627  13.614  37.991  12.765
81234W        W49628  27.743  36.299   1.709
81235W        W49629  27.968  40.185   3.737
81236W        W49630   0.831   8.524  14.808
81237W        W49631  41.257  25.327   0.883
81238W        W49632  35.602  37.922  13.394
81239W        W49633  37.004  40.825  11.920
81240W        W49634  32.912  24.064   3.600
81241W        W49635  30.074  20.110  13.997
81242W        W49636   8.629  10.104   1.728
81243W        W49637  12.241  12.262   3.157
81244W        W49638  15.393  21.736  13.357
81245W        W49639  30.143  14.488   0.612
81246W        W49640   4.247  39.376   4.157
81247W        W49641  33.844  25.246  13.908
81248W        W49642  36.760  23.956   2.396
81249W        W49643  38.494  30.832   4.054
81250W        W49644  10.154   0.452   3.204
81251W        W49645  22.406  19.544  14.504
81252W        W49646  14.037  16.148  11.121
81253W        W49647  14.075  14.158  14.510
81254W        W49648  27.992  19.331   0.039
81255W        W49649  16.397   9.879  12.098
81256W        W49650  27.998  41.733   3.761
81257W        W49651  35.532  29.086  10.669
81258W        W49652  18.847   5.988   0.372
81259W        W49653  27.554  21.095   4.590
81260W        W49654  12.767  36.204  14.260
81261W        W49655  27.959   4.837  11.162
81262W        W49656  19.753  41.438   2.163
81263W        W49657  29.884  14.263   2.833
81264W        W49658  21.959   7.385   0.279
81265W        W49659  26.909  17.136   1.447
81266W        W49660   2.388  31.483   4.133
81267W        W49661  23.108  15.017  11.870
81268W        W49662  29.820   6.375   2.851
81269W        W49663  36.995  32.088   3.741
81270W        W49664   2.910  38.318  11.961
81271W        W49665  21.277   4.486  12.972
81272W        W49666   4.859  14.611  11.334
81273W        W49667  30.220   5.837  13.980
81274W        W49668  11.209  40.732  12.334
81275W        W49669   2.273  43.408  14.470
81276W        W49670  44.049  28.914  13.484
81277W        W49671  27.290  38.747   4.075
81278W        W49672  11.500  16.088  12.515
81279W        W49673  16.419  29.350   1.739
81280W        W49674  18.335  17.852  11.141
81281W        W49675  36.980  21.818   1.653
81282W        W49676  27.020  12.574  10.681
81283W        W49677  39.189  27.375  11.500
81284W        W49678  20.534  38.559  11.614
81285W        W49679  34.764  39.414  14.391
81286W        W49680   3.793  27.032   3.893
81287W        W49681  28.357  30.119  10.299
81288W        W49682  19.661   6.780   2.707
81289W        W49683  28.151   2.029   0.205
81290W        W49684  21.281  17.232  13.569
81291W        W49685  37.768  26.587  10.520
81292W        W49686  41.634  44.963   2.788
81293W        W49687  42.962  26.086  12.039
81294W        W49688   6.287   5.705  12.034
81295W        W49689   1.290  32.975  12.428
81296W        W49690  44.709  40.499   4.182
81297W        W49691  38.842   6.511  14.210
81298W        W49692  26.121  24.278  11.171
81299W        W49693  17.343   9.198  11.603
81300W        W49694  36.374  37.786  14.848
81301W        W49695   8.184  30.546  13.132
81302W        W49696  28.008  22.165  11.704
81303W        W49697  26.037  42.766   2.970
81304W        W49698   2.777  37.454   4.505
81305W        W49699   1.279  22.915   1.246
81306W        W49700  21.161  17.588   4.411
81307W        W49701  40.604  39.688  10.069
81308W        W49702  25.629   4.165  11.497
81309W        W49703  34.959   3.275   2.541
81310W        W49704  33.783  36.866   4.119
81311W        W49705   3.018  27.244  13.317
81312W        W49706  13.741  41.611   4.109
81313W        W49707  26.906  20.195  12.604
81314W        W49708  10.752   5.732   0.881
81315W        W49709  22.895  26.236  14.796
81316W        W49710  18.957   2.819  13.797
81317W        W49711  13.244  25.014   4.899
81318W        W49712  19.784  39.616  14.910
81319W        W49713  24.590  23.554  11.188
81320W        W49714  15.025  17.651   4.413
81321W        W49715  40.628  24.795  12.087
81322W        W49716   5.093   5.351   0.287
81323W        W49717  27.521  24.942   0.934
81324W        W49718  38.139  23.562  11.506
81325W        W49719  29.240   5.748   4.184
81326W        W49720  35.838  10.098   3.730
81327W        W49721  36.131  42.203  12.440
81328W        W49722   2.840  40.045  12.978
81329W        W49723  22.153   9.729  14.213
81330W        W49724   1.201  34.355   3.712
81331W        W49725  22.289   7.184   2.352
81332W        W49726  28.519  32.706  13.829
81333W        W49727  25.667  32.531  13.009
81334W        W49728  31.044  33.968   2.259
81335W        W49729  40.010  18.714   2.042
81336W        W49730  37.978  35.962   3.100
81337W        W49731  15.474   7.678  11.639
81338W        W49732   9.310  16.497  10.518
81339W        W49733   8.897   5.810   2.220
81340W        W49734  18.174  32.890   2.816
81341W        W49735  38.597  24.132  12.839
81342W        W49736  33.883  21.920  11.426
81343W        W49737   5.662  34.295  14.294
81344W        W49738  22.122  22.172  11.575
81345W        W49739   5.389  12.610   4.623
81346W        W49740   6.760  42.821   0.863
81347W        W49741  36.539   4.101   4.056
81348W        W49742  27.475   6.775   2.381
81349W        W49743  36.508  18.075   0.723
81350W        W49744  16.300  38.299  12.365
81351W        W49745  37.510  10.792   0.885
81352W        W49746  43.732  37.125  12.450
81353W        W49747  44.218   3.571   4.298
81354W        W49748   8.292   3.530   2.713
81355W        W49749   3.210  39.172   5.000
81356W        W49750   5.283  16.736   4.059
81357W        W49751   1.757  25.549  11.484
81358W        W49752  28.708  38.847   2.268
81359W        W49753  24.507  41.442  11.753
81360W        W49754   9.657  27.917   4.617
81361W        W49755   5.298   3.777   2.737
81362W        W49756  22.401  11.299   3.195
81363W        W49757  32.022  16.557   1.956
81364W        W49758   5.561  34.567  14.725
81365W        W49759  35.086  40.893   3.409
81366W        W49760  11.854  40.232   2.755
81367W        W49761   5.633   9.667  11.575
81368W        W49762  27.109  36.426   4.667
81369W        W49763  10.141  22.477   2.688
81370W        W49764  20.835   0.731  14.847
81371W        W49765  35.136  38.901   2.782
81372W        W49766   4.518   5.455   3.277
81373W        W49767  34.911  21.164  10.779
81374W        W49768  17.638  35.673   3.302
81375W        W49769  31.597   9.169   3.707
81376W        W49770  27.845  22.041  10.178
81377W        W49771  41.566  39.365   0.981
81378W        W49772  44.483  10.828   0.356
81379W        W49773  17.716  18.741   1.151
81380W        W49774  37.693   4.996  11.544
81381W        W49775   6.990  14.689   2.447
81382W        W49776   3.822  34.186   1.349
81383W        W49777  20.127  17.867  11.299
81384W        W49778  21.663   3.578   4.337
81385W        W49779  19.234  17.267  11.890
81386W        W49780   5.285  37.103  12.827
81387W        W49781  23.936  33.116  11.453
81388W        W49782  22.933   3.854   3.654
81389W        W49783  13.249  35.632  13.909
81390W        W49784  23.501   3.844   2.803
81391W        W49785   5.711  16.781   1.257
81392W        W49786  17.634   1.713   3.852
81393W        W49787  30.566   3.854   2.995
81394W        W49788  24.133  16.374  12.029
81395W        W49789  29.025   5.221   2.324
81396W        W49790  32.833   1.439   1.348
81397W        W49791  41.212  35.002  14.550
81398W        W49792  44.780   8.801  10.985
81399W        W49793  30.389   4.750  12.837
81400W        W49794   4.497  28.528  14.348
81401W        W49795   9.147  31.199  14.381
81402W        W49796  30.162  12.151   1.895
81403W        W49797  23.307  37.431  12.323
81404W        W49798  12.119   8.387   3.138
81405W        W49799  16.687  20.558  14.221
81406W        W49800   0.754  35.499  10.556
81407W        W49801  21.514   6.348   1.913
81408W        W49802   2.572  17.786  14.569
81409W        W49803   0.937   4.836   3.766
81410W        W49804  40.447  19.315  10.724
81411W        W49805  23.747  25.174   1.809
81412W        W49806  13.885  26.495  14.503
81413W        W49807   1.325  18.164  14.707
81414W        W49808   8.759  12.265  12.952
81415W        W49809   7.187  27.953  10.365
81416W        W49810   6.272  33.244   0.356
81417W        W49811   6.356   7.638  13.359
81418W        W49812  28.114  12.315   4.833
81419W        W49813  34.381   7.987   2.313
81420W        W49814   4.834  39.555   0.956
81421W        W49815   8.330  35.950  13.083
81422W        W49816  12.814  42.769  14.028
81423W        W49817  22.194   4.796  10.393
81424W        W49818   6.939  33.554   3.221
81425W        W49819   3.883  25.034   2.713
81426W        W49820  19.074  11.758   2.922
81427W        W49821  39.011   3.332  13.537
81428W        W49822  34.497  34.345   4.637
81429W        W49823   9.087  23.717   2.293
81430W        W49824  23.478   6.751   4.533
81431W        W49825  32.114  40.701  10.804
81432W        W49826   1.406  25.959   3.134
81433W        W49827   2.431  18.828   0.358
81434W        W49828  15.335   7.850  11.163
81435W        W49829  12.221  27.681  12.569
81436W        W49830  23.070   5.259   3.124
81437W        W49831  35.219  33.462   4.581
81438W        W49832  44.681   8.513  12.529
81439W        W49833   5.914   5.347  13.051
81440W        W49834  29.300   8.707   4.191
81441W        W49835  13.391  34.843   3.970
81442W        W49836  40.517  14.809   1.396
81443W        W49837  23.407  42.838  14.772
81444W        W49838  43.981  35.933  11.411
81445W        W49839  44.760  37.929  12.515
81446W        W49840  16.802  24.064   3.106
81447W        W49841  44.556  39.467  12.174
81448W        W49842  44.510   0.250  14.507
81449W        W49843  24.196  25.959  13.399
81450W        W49844  37.553  25.936   3.152
81451W        W49845   4.897  14.181   9.924
81452W        W49846  15.013  32.703  14.264
81453W        W49847  24.625   6.339  11.825
81454W        W49848  44.482  32.350  14.893
81455W        W49849  32.264  33.680  11.117
81456W        W49850  32.427  17.826   3.775
81457W        W49851  32.001   3.316  10.720
81458W        W49852   6.178   6.160   3.218
81459W        W49853  22.455  10.425   2.214
81460W        W49854  10.493  34.615  12.137
81461W        W49855  14.410  28.138  11.190
81462W        W49856   6.700   6.446   4.725
81463W        W49857  31.450   3.627   0.011
81464W        W49858  19.664   5.676  11.731
81465W        W49859  19.544  14.340  13.962
81466W        W49860  44.940  33.337   2.949
81467W        W49861  14.955   6.407  11.194
81468W        W49862   4.153  18.806  14.442
81469W        W49863   3.957  30.866   3.342
81470W        W49864  38.849  34.126  12.110
81471W        W49865  21.148  14.395  13.480
81472W        W49866  28.500  19.795   2.366
81473W        W49867  25.157  31.960  11.166
81474W        W49868  35.093  39.258   1.346
81475W        W49869   0.329  15.585   1.353
81476W        W49870  36.612  38.969   4.066
81477W        W49871  44.135  19.075   3.834
81478W        W49872   0.916  32.052   4.300
81479W        W49873  15.222  24.081  13.854
81480W        W49874  36.310  31.598   4.631
81481W        W49875   2.320  29.610  14.967
81482W        W49876   6.346  35.602   1.504
81483W        W49877  35.144  30.574  10.321
81484W        W49878  20.945  19.296   1.794
81485W        W49879  29.686  20.166   5.119
81486W        W49880  24.199  32.034  14.794
81487W        W49881  41.707  15.811  14.803
81488W        W49882   9.676  17.162  13.357
81489W        W49883   7.854  21.778   3.760
81490W        W49884  22.808  21.960   3.692
81491W        W49885  17.527  36.518   3.544
81492W        W49886  28.922  44.650  14.547
81493W        W49887  30.931  12.730   3.108
81494W        W49888  18.144   7.705   0.658
81495W        W49889   2.870  43.999  14.814
81496W        W49890  34.956  11.198   2.824
81497W        W49891   4.273   7.605  13.461
81498W        W49892  12.841  37.199   1.689
81499W        W49893  14.918  43.867  11.652
81500W        W49894  14.334  23.147   0.230
81501W        W49895  24.160  37.068  12.456
81502W        W49896  36.313  33.977  11.839
81503W        W49897  25.606  21.650   0.402
81504W        W49898  11.046  18.369   2.257
81505W        W49899   5.204  17.202  10.246
81506W        W49900  22.147  18.811  11.275
81507W        W49901   6.389  32.001  11.912
81508W        W49902   6.678  40.591  10.494
81509W        W49903   4.963  19.112   0.838
81510W        W49904  16.297  42.419  11.216
81511W        W49905  34.030   7.365   4.384
81512W        W49906   8.917  19.200  13.442
81513W        W49907  20.035  35.366   2.734
81514W        W49908   0.771  40.300  11.904
81515W        W49909   4.373  44.554  14.927
81516W        W49910  21.034  39.136   2.297
81517W        W49911  21.150  29.140  11.168
81518W        W49912  31.654   1.172  14.440
81519W        W49913  28.845   1.233   0.511
81520W        W49914   9.701  32.353  11.207
81521W        W49915  23.719  13.649  11.229
81522W        W49916  12.041   8.792  11.562
81523W        W49917  44.952  26.802  11.422
81524W        W49918  23.518  27.765   2.356
81525W        W49919  31.619  31.199   2.325
81526W        W49920   4.407  31.975   2.569
81527W        W49921  44.843  28.917   3.180
81528W        W49922  10.681  15.690  13.262
81529W        W49923   6.375  15.714  11.561
81530W        W49924  16.000   4.986  14.836
81531W        W49925  42.269  16.491   4.155
81532W        W49926  44.603  26.970  11.970
81533W        W49927  21.261  34.858   3.989
81534W        W49928  13.772  26.755   3.914
81535W        W49929  13.628   4.981  11.574
81536W        W49930  18.330   3.190   3.246
81537W        W49931  44.397  41.235  11.433
81538W        W49932  27.161  17.024  11.121
81539W        W49933  44.461  40.020  10.203
81540W        W49934   9.878  12.360  14.298
81541W        W49935  34.366  44.917  13.132
81542W        W49936   0.987  36.015  11.107
81543W        W49937   2.248  15.159   1.921
81544W        W49938  14.497   6.949  14.883
81545W        W49939  33.118  42.853  13.538
81546W        W49940  32.489  41.010   2.374
81547W        W49941  24.805   9.045   1.138
81548W        W49942   5.811   8.690  14.985
81549W        W49943  20.851  26.047   5.315
81550W        W49944  36.181  34.479  14.955
81551W        W49945  24.600  36.292  12.552
81552W        W49946   6.796  42.421   1.767
81553W        W49947   8.078  25.127   2.127
81554W        W49948   7.511   4.158  13.704
81555W        W49949  32.006  20.490  13.952
81556W        W49950   5.085  30.328  14.379
81557W        W49951  31.163  12.882   1.163
81558W        W49952  17.482  11.264  11.881
81559W        W49953  22.416  22.455  12.363
81560W        W49954  39.064  42.312   3.418
81561W        W49955   5.292  21.187   3.126
81562W        W49956  34.901  38.402   0.981
81563W        W49957   3.865  22.531   3.731
81564W        W49958  35.452  31.650   0.185
81565W        W49959  18.840  39.010  11.182
81566W        W49960  18.349  16.784   3.560
81567W        W49961  13.131  18.508  14.861
81568W        W49962   7.465  37.071   1.728
81569W        W49963  44.276  34.370   0.862
81570W        W49964  18.389  39.707   1.488
81571W        W49965   9.615   0.747   1.263
81572W        W49966  17.558  44.082   0.409
81573W        W49967   7.337   4.559  13.962
81574W        W49968  32.972   8.473  11.939
81575W        W49969  19.452  41.543  12.025
81576W        W49970   6.173  18.377  12.970
81577W        W49971  19.785   1.465   2.018
81578W        W49972  13.581  44.951   4.548
81579W        W49973  14.167  34.600  14.849
81580W        W49974  18.109   8.303  13.423
81581W        W49975   0.551  19.445   0.710
81582W        W49976  40.715  39.275   4.717
81583W        W49977  33.036   9.382   4.350
81584W        W49978  37.882  27.697   0.774
81585W        W49979  40.018  36.594  12.938
81586W        W49980  29.581  23.664  11.175
81587W        W49981  44.783  21.165   1.417
81588W        W49982  25.814  39.316   4.603
81589W        W49983  20.223  14.003  11.028
81590W        W49984   6.161  29.960   3.191
81591W        W49985  23.074  42.956  14.368
81592W        W49986  12.139  22.609   3.599
81593W        W49987  42.066  24.101   2.175
81594W        W49988  33.553  34.013  14.222
81595W        W49989  16.351  43.671  11.726
81596W        W49990  31.950  19.213  10.792
81597W        W49991  42.710  44.421   4.597
81598W        W49992  26.121  24.796  11.813
81599W        W49993  44.839  11.721   0.502
81600W        W49994  14.089  22.312   4.843
81601W        W49995   6.980  30.964  12.465
81602W        W49996  34.319  38.962  10.670
81603W        W49997  35.854  36.411   4.761
81604W        W49998   6.629  36.144  11.175
81605W        W49999  27.396  30.568  14.737
81606W        W50000  29.851  43.364   0.951
81607W        W50001  43.550   0.377   4.101
81608W        W50002  27.721  23.597  12.346
81609W        W50003  23.193  11.405  14.433
81610W        W50004  22.538  28.610  14.203
81611W        W50005  27.020  16.178   0.155
81612W        W50006  40.438  41.032  13.730
81613W        W50007  10.451  32.525   4.198
81614W        W50008  44.364  33.824   2.200
81615W        W50009  13.352  32.910  14.921
81616W        W50010  31.086  43.493   1.698
81617W        W50011  23.143  37.345   1.255
81618W        W50012  20.578  33.705   4.575
81619W        W50013  12.201  34.459  10.791
81620W        W50014  27.628  39.563  11.204
81621W        W50015  12.588   5.243  10.929
81622W        W50016  15.747  26.986   1.433
81623W        W50017  18.834  34.699  10.811
81624W        W50018  24.875  14.008  11.601
81625W        W50019  14.633  20.455  14.791
81626W        W50020  19.185  13.359   4.816
81627W        W50021  41.921  21.226  10.675
81628W        W50022  36.914  17.211   1.677
81629W        W50023  28.280  19.932  11.739
81630W        W50024  27.558  14.295   3.177
81631W        W50025  19.458  32.090  11.185
81632W        W50026  24.477  23.139  12.425
81633W        W50027   2.342  29.717  11.544
81634W        W50028  22.213   0.278   0.461
81635W        W50029  16.236  33.089  13.625
81636W        W50030   3.443  17.768  10.770
81637W        W50031  18.663  25.090   3.004
81638W        W50032  24.147  40.126   0.288
81639W        W50033  39.746  26.440   3.814
81640W        W50034  18.724  21.017   2.024
81641W        W50035  34.886  44.956   3.741
81642W        W50036   8.843  39.143  10.872
81643W        W50037  41.460  17.058  12.970
81644W        W50038  37.312  39.066   3.610
81645W        W50039  22.547  39.383  14.927
81646W        W50040  24.744  20.624  12.838
81647W        W50041  29.685  18.375  12.030
81648W        W50042  19.150  33.332  10.635
81649W        W50043  39.656   1.277  13.303
81650W        W50044  19.281  44.566   3.291
81651W        W50045  30.392  29.864  13.640
81652W        W50046  18.572  41.956   0.509
81653W        W50047  39.563  39.540   4.585
81654W        W50048  42.326  40.726   1.886
81655W        W50049  32.125   0.277   2.095
81656W        W50050  11.811   1.983   2.372
81657W        W50051  31.667  19.656  10.770
81658W        W50052   1.246  42.231  14.382
81659W        W50053   9.666   9.360   0.994
81660W        W50054  15.985   0.809   3.701
81661W        W50055   1.499  33.808   1.026
81662W        W50056  41.550  10.131   1.456
81663W        W50057  12.182   8.635   2.193
81664W        W50058  33.514  44.935  12.621
81665W        W50059  32.580   1.491   3.123
81666W        W50060  27.136   7.921   0.145
81667W        W50061  26.901  18.320   4.269
81668W        W50062  32.937  35.336  10.596
81669W        W50063  13.666  39.929   3.865
81670W        W50064  31.646  27.726  10.695
81671W        W50065   1.028  34.338  13.334
81672W        W50066  17.986  19.152   4.117
81673W        W50067  40.568  40.222   2.670
81674W        W50068  31.464   7.974   4.222
81675W        W50069  31.872  38.365   3.827
81676W        W50070  28.617  34.357   0.405
81677W        W50071  38.435   1.452  12.341
81678W        W50072  42.017  25.112  11.172
81679W        W50073   2.451   1.562   4.156
81680W        W50074  39.778  12.159   1.035
81681W        W50075  41.883  16.150   5.036
81682W        W50076   0.869   6.260   1.016
81683W        W50077  14.309  42.876  10.788
81684W        W50078  30.945  44.359  12.859
81685W        W50079  42.394  36.386  10.541
81686W        W50080  19.986  43.131  11.015
81687W        W50081   1.714  16.582  12.081
81688W        W50082  19.223  13.701  14.051
81689W        W50083  20.024  14.879   2.168
81690W        W50084   5.757  41.504   2.435
81691W        W50085  17.882  38.311   1.301
81692W        W50086  35.485  11.565   2.194
81693W        W50087  18.351  35.527  12.962
81694W        W50088  20.984   3.978   0.498
81695W        W50089   8.663   1.419   2.514
81696W        W50090   0.490  12.333  14.079
81697W        W50091  41.827  17.099   0.457
81698W        W50092  14.851  19.562   3.134
81699W        W50093   1.192  37.247   9.909
81700W        W50094  29.690  25.784  14.665
81701W        W50095   9.080  22.964   3.218
81702W        W50096  12.281  20.062   2.760
81703W        W50097   7.942  27.106   2.825
81704W        W50098   9.884  13.034   1.486
81705W        W50099  23.728   6.437  12.878
81706W        W50100  38.920  26.251  12.466
81707W        W50101   6.653  10.355  14.727
81708W        W50102   8.880  40.756   2.213
81709W        W50103   8.913  30.975   4.115
81710W        W50104  25.728  18.755   2.027
81711W        W50105  33.543  17.681   3.564
81712W        W50106  25.078   0.685  14.770
81713W        W50107   4.369  12.586  14.954
81714W        W50108   3.461  27.407  12.410
81715W        W50109  44.517  32.915  12.138
81716W        W50110  26.179  13.294   1.295
81717W        W50111   8.108  32.925   4.553
81718W        W50112  12.905  22.638   0.467
81719W        W50113  21.037   2.298  12.904
81720W        W50114  44.293  30.267   4.582
81721W        W50115  27.435  43.285   2.665
81722W        W50116  14.712  19.968  10.761
81723W        W50117  42.334  20.277  12.598
81724W        W50118  21.920  22.736   1.825
81725W        W50119  16.265  36.825  12.900
81726W        W50120  37.974  21.459  14.525
81727W        W50121  19.542  15.366   1.518
81728W        W50122  30.173  34.059  11.610
81729W        W50123  15.906  28.290  11.016
81730W        W50124  36.650   6.212   0.849
81731W        W50125  33.157  12.122  14.339
81732W        W50126   3.295   7.677   0.726
81733W        W50127  37.445  21.649   1.963
81734W        W50128  36.940   1.598  14.034
81735W        W50129   2.711  36.392   2.367
81736W        W50130  18.291  15.359   4.690
81737W        W50131   9.370   7.648  13.438
81738W        W50132  31.873  32.329  13.368
81739W        W50133  42.970   0.412   0.235
81740W        W50134  34.393   8.405  11.879
81741W        W50135  39.995  43.574   0.433
81742W        W50136  42.507  44.566  11.572
81743W        W50137  29.656  39.448   0.468
81744W        W50138   0.948  19.595   4.933
81745W        W50139  11.073  13.814   1.969
81746W        W50140  38.466   1.290  14.133
81747W        W50141  37.326   8.003   1.457
81748W        W50142   4.733  25.090  14.826
81749W        W50143  15.810   7.884   3.270
81750W        W50144  27.177   2.884  10.718
81751W        W50145  17.128  44.573   1.027
81752W        W50146  32.941  35.039   0.957
81753W        W50147   9.964   6.197   3.175
81754W        W50148  27.721  20.322   4.128
81755W        W50149  32.183  10.728  11.135
81756W        W50150   4.913  28.314  13.498
81757W        W50151  39.417  28.952   3.406
81758W        W50152  31.991  38.061  13.961
81759W        W50153  25.062  31.170   4.633
81760W        W50154  16.300   9.806  14.519
81761W        W50155  38.968   5.969   1.285
81762W        W50156  10.681  37.953  14.635
81763W        W50157  39.656  34.602  12.003
81764W        W50158  35.467  39.590   2.255
81765W        W50159  14.030  38.173   1.716
81766W        W50160   8.476  35.963   1.017
81767W        W50161  14.596  42.624  13.974
81768W        W50162  23.537   3.233   0.958
81769W        W50163   4.773  30.141   0.457
81770W        W50164  41.879  20.568   4.955
81771W        W50165  30.623   3.437  10.371
81772W        W50166  34.806  20.161   0.712
81773W        W50167  44.774  36.843   0.712
81774W        W50168  34.701  10.303   0.886
81775W        W50169  19.809  41.970   2.887
81776W        W50170  43.457  31.930  10.072
81777W        W50171   7.252  18.507   4.542
81778W        W50172  17.720  17.483  11.675
81779W        W50173  12.540  37.298  14.317
81780W        W50174  16.182   3.546  10.757
81781W        W50175   3.807  12.398  12.468
81782W        W50176  36.362  21.490  14.449
81783W        W50177  17.881  23.804   0.637
81784W        W50178  24.626  22.146  13.361
81785W        W50179  19.007  40.724  13.343
81786W        W50180   2.927   2.315   3.181
81787W        W50181   9.749   1.212   2.718
81788W        W50182  10.078  38.001   0.279
81789W        W50183   7.823   4.812  11.582
81790W        W50184  36.946  44.446   4.889
81791W        W50185  37.115   7.973  11.626
81792W        W50186  17.816  27.022  11.116
81793W        W50187  11.653   6.465   4.843
81794W        W50188  18.572  21.488   1.368
81795W        W50189  27.421  23.178   4.244
81796W        W50190  26.965   0.943   4.988
81797W        W50191   8.348  17.092  14.693
81798W        W50192  19.561  40.024   0.858
81799W        W50193  36.133  23.133  12.515
81800W        W50194  18.799  11.634  10.730
81801W        W50195  32.020   2.446  10.465
81802W        W50196  28.574  13.827   3.589
81803W        W50197  43.028  34.132   4.589
81804W        W50198  14.271  32.618  13.014
81805W        W50199  27.683  25.598   3.581
81806W        W50200  20.770  39.290   0.888
81807W        W50201  34.347  17.593  13.455
81808W        W50202   7.492   5.191   1.491
81809W        W50203  33.682  31.619  10.814
81810W        W50204   3.321   9.748   3.864
81811W        W50205  41.121   4.582  11.259
81812W        W50206  32.889  31.160   4.637
81813W        W50207   1.372  27.460  14.939
81814W        W50208  37.604   0.447  11.135
81815W        W50209  10.280  27.074  10.456
81816W        W50210  38.923  43.087  11.180
81817W        W50211  28.882  24.628   0.843
81818W        W50212   5.993   8.352  11.483
81819W        W50213  25.790  21.626   3.965
81820W        W50214  21.026  11.552  14.961
81821W        W50215  28.612  23.219  12.456
81822W        W50216  34.984  32.569   3.614
81823W        W50217  14.081   8.810   2.356
81824W        W50218  28.950  18.854   2.169
81825W        W50219   9.331  12.319  13.625
81826W        W50220   4.581   4.913   2.382
81827W        W50221  38.869  41.543  13.785
81828W        W50222  10.920  40.837  14.583
81829W        W50223  14.182  41.885  14.885
81830W        W50224  36.432   0.410  10.745
81831W        W50225  24.388  29.996  12.575
81832W        W50226  37.365  28.655  10.747
81833W        W50227  19.113  34.001   3.159
81834W        W50228  30.973  24.802  13.541
81835W        W50229  21.597  13.650  12.313
81836W        W50230  34.721  10.833   0.905
81837W        W50231   6.994   9.710  13.421
81838W        W50232   5.347  34.525  13.303
81839W        W50233  35.941  37.391  11.735
81840W        W50234  39.437  43.987  14.648
81841W        W50235  37.900  20.225   1.001
81842W        W50236   5.303  16.740   1.560
81843W        W50237  31.379   6.912  10.787
81844W        W50238  31.930   7.324   3.171
81845W        W50239  26.526  33.235   2.847
81846W        W50240  14.535  11.663  13.758
81847W        W50241  27.551   0.311   3.309
81848W        W50242  10.205   2.202  14.334
81849W        W50243  25.453  38.870  13.412
81850W        W50244  32.334  27.409  11.179
81851W        W50245  24.160   8.981  11.004
81852W        W50246   4.063  13.036   4.706
81853W        W50247  35.482  14.203   4.580
81854W        W50248  40.373  10.927   0.380
81855W        W50249  19.129  40.793  12.485
81856W        W50250  34.626   7.589   1.681
81857W        W50251  29.567  28.073   0.763
81858W        W50252  27.497   7.169   3.353
81859W        W50253  33.436  44.331  12.469
81860W        W50254   2.560  16.459  10.669
81861W        W50255   1.020  33.881   0.006
81862W        W50256  11.051   3.781   3.782
81863W        W50257  43.500   4.775  11.313
81864W        W50258  37.997   4.430   1.365
81865W        W50259   2.675  43.895   1.837
81866W        W50260  18.615  16.594  14.427
81867W        W50261  15.144   8.400   3.609
81868W        W50262  32.611  21.674   2.514
81869W        W50263  17.210  16.551  11.552
81870W        W50264   2.377   4.970   1.765
81871W        W50265  32.385   3.981  11.172
81872W        W50266  29.251  28.456   4.517
81873W        W50267  41.031  21.628   0.449
81874W        W50268   4.466  42.382  10.749
81875W        W50269  43.343  17.720  12.045
81876W        W50270   3.345  42.562   3.710
81877W        W50271  39.077  14.561  12.386
81878W        W50272  23.355   6.956   3.646
81879W        W50273  10.885  20.521   3.808
81880W        W50274  35.080  24.525  10.652
81881W        W50275  25.626  12.297  10.384
81882W        W50276  42.968  16.584  11.708
81883W        W50277   3.110  16.485  14.930
81884W        W50278  34.611  36.483   1.218
81885W        W50279  31.368  19.127   0.414
81886W        W50280   0.991  13.071  10.111
81887W        W50281  37.053   5.896   1.680
81888W        W50282   0.881   3.537   4.504
81889W        W50283   7.692  43.076  13.144
81890W        W50284   7.119  19.508   1.275
81891W        W50285  22.625   0.999  11.695
81892W        W50286  38.281  25.146   3.218
81893W        W50287  24.599  12.961   2.028
81894W        W50288  16.914  20.294   2.348
81895W        W50289  29.557   8.392  13.502
81896W        W50290  22.048  19.616  12.422
81897W        W50291  20.760  17.432   4.138
81898W        W50292  33.472  34.490  12.342
81899W        W50293  18.172  16.308  11.312
81900W        W50294  39.000  37.257   2.269
81901W        W50295  19.750  44.556   0.493
81902W        W50296   8.625  14.739   1.647
81903W        W50297  24.254  39.007   0.410
81904W        W50298  37.881  31.968   3.583
81905W        W50299  19.460  11.637  11.250
81906W        W50300   5.894  44.418  13.799
81907W        W50301  22.573  42.808  14.240
81908W        W50302  44.957  37.711  12.984
81909W        W50303  23.640   3.022  10.590
81910W        W50304  30.716  40.532  12.073
81911W        W50305  29.122   0.378  14.777
81912W        W50306  18.960  25.968   2.112
81913W        W50307  12.388  11.578  11.645
81914W        W50308  23.575  36.076  11.993
81915W        W50309  29.535  16.355  14.394
81916W        W50310  22.649  18.792  13.406
81917W        W50311  21.866  20.008  13.453
81918W        W50312  26.418   3.418   3.711
81919W        W50313   0.303  27.646  12.805
81920W        W50314  14.593  25.631   0.574
81921W        W50315  31.700   1.627  13.517
81922W        W50316  26.666   6.382   3.037
81923W        W50317  14.180  24.787  12.563
81924W        W50318  12.204  37.118  11.076
81925W        W50319  44.358  38.991   3.193
81926W        W50320  12.057  28.965  11.172
81927W        W50321  19.550  22.308   0.771
81928W        W50322  16.038   4.825   1.773
81929W        W50323  35.988   7.753   3.659
81930W        W50324  26.026   9.915  12.563
81931W        W50325   2.754   0.842  11.653
81932W        W50326  17.549  22.468   0.979
81933W        W50327  18.004  25.196  11.777
81934W        W50328  35.232  34.373  11.268
81935W        W50329  14.563  16.817   4.232
81936W        W50330  16.353  27.148  12.372
81937W        W50331  21.692  14.365   0.524
81938W        W50332  28.155  10.244   3.659
81939W        W50333  23.125   7.016  13.911
81940W        W50334  38.820  16.109  13.571
81941W        W50335  30.585  28.944   3.568
81942W        W50336  39.063  26.487   0.228
81943W        W50337  16.042  15.644  11.476
81944W        W50338  25.833  30.809   3.208
81945W        W50339  41.719   0.147   1.838
81946W        W50340   6.466  11.288   4.195
81947W        W50341  38.872  12.399   0.793
81948W        W50342  25.203   1.505   1.905
81949W        W50343  35.164   8.155   3.618
81950W        W50344  21.522  19.029  10.502
81951W        W50345  39.475  40.330   1.184
81952W        W50346  10.200  40.073   3.786
81953W        W50347   1.938   4.957  10.708
81954W        W50348   6.248  24.275  14.456
81955W        W50349  19.044  39.990   0.940
81956W        W50350  23.384   7.788   2.623
81957W        W50351  10.144  10.241   9.974
81958W        W50352   5.773  25.982  14.805
81959W        W50353  10.289  33.459   3.607
81960W        W50354   1.071   6.836  10.498
81961W        W50355   9.990  28.761   1.022
81962W        W50356  24.685  22.521   2.715
81963W        W50357  21.055  43.016   1.623
81964W        W50358  30.632  20.727   2.933
81965W        W50359  33.648   7.865   0.842
81966W        W50360  34.739  31.423   2.401
81967W        W50361  31.704  18.208   1.956
81968W        W50362  31.838  10.810  14.427
81969W        W50363   2.516  21.997  11.133
81970W        W50364  29.589  12.341   0.638
81971W        W50365  39.909  16.106  12.041
81972W        W50366   0.467  21.473  13.923
81973W        W50367  39.903  35.809   3.744
81974W        W50368  33.411   8.306  13.125
81975W        W50369  35.086  31.020   4.792
81976W        W50370   1.369   2.236   2.175
81977W        W50371  20.987  17.240  10.650
81978W        W50372  20.025  19.984   2.728
81979W        W50373  22.602  40.931  14.428
81980W        W50374  35.860   6.728   0.026
81981W        W50375  13.517  18.285   0.125
81982W        W50376  12.418   1.762   4.556
81983W        W50377  20.075   1.892  10.563
81984W        W50378   2.450  10.936   4.733
81985W        W50379  26.668  38.289   4.067
81986W        W50380  27.065   2.007   2.236
81987W        W50381  20.140  41.074  14.367
81988W        W50382   4.734  36.011   2.651
81989W        W50383   8.554  42.206  14.769
81990W        W50384   8.962  28.445  14.232
81991W        W50385   7.352   0.764   4.195
81992W        W50386  43.057  30.962  12.891
81993W        W50387  34.015  35.780  14.059
81994W        W50388  35.888  24.746   0.438
81995W        W50389  33.389  10.797  14.276
81996W        W50390  29.123  37.940  10.453
81997W        W50391   4.593   9.391  10.378
81998W        W50392  18.087  33.348   0.353
81999W        W50393  12.538  26.005  12.843
82000W        W50394   1.953   1.385   2.391
82001W        W50395   8.605  28.731   2.774
82002W        W50396  20.292  32.665  14.948
82003W        W50397   7.725  23.562  14.854
82004W        W50398  35.614   5.886  13.867
82005W        W50399  35.408  29.405  11.602
82006W        W50400  39.928  28.269   2.646
82007W        W50401  27.701  34.077   2.792
82008W        W50402   3.318  22.915  14.900
82009W        W50403  30.538  14.082  11.638
82010W        W50404  16.836  42.928  12.900
82011W        W50405  43.874  22.189  14.351
82012W        W50406  39.810  43.074  12.570
82013W        W50407  20.516  43.625   3.373
82014W        W50408  21.767  13.715  13.419
82015W        W50409  32.446   6.438  12.066
82016W        W50410  17.227  31.416   0.921
82017W        W50411  16.198  35.854  14.751
82018W        W50412   9.189  26.104  11.050
82019W        W50413   9.317  26.421   4.157
82020W        W50414  19.609   4.845  12.838
82021W        W50415  29.826  12.852  11.584
82022W        W50416  23.907  20.901   0.287
82023W        W50417  11.088  36.404   0.378
82024W        W50418  28.118   2.797   0.916
82025W        W50419  28.905  29.546  12.464
82026W        W50420  21.749  13.839   3.084
82027W        W50421  38.377  38.546   4.452
82028W        W50422   2.055  17.854   2.120
82029W        W50423   3.800  12.127  13.772
82030W        W50424  19.484  36.612  11.188
82031W        W50425  32.134  40.575   2.789
82032W        W50426   6.914  33.408   0.795
82033W        W50427  23.551  32.459   3.690
82034W        W50428   0.725  23.499  12.997
82035W        W50429  26.003  15.858  11.897
82036W        W50430  28.667  23.545  13.368
82037W        W50431  23.242  40.767   0.597
82038W        W50432  18.780  15.599   5.437
82039W        W50433  14.791  29.549   0.684
82040W        W50434  31.645  18.650   2.205
82041W        W50435   3.968   9.377  14.385
82042W        W50436  20.107  36.380  11.700
82043W        W50437  13.565  23.499  14.335
82044W        W50438  33.246  20.191   0.369
82045W        W50439  20.449  10.111  14.829
82046W        W50440  41.253   2.204  11.581
82047W        W50441  34.949  32.114   3.902
82048W        W50442  42.691   0.055  14.454
82049W        W50443   7.358  11.873   3.082
82050W        W50444  10.666  37.130   3.848
82051W        W50445  10.644  10.115  14.045
82052W        W50446   4.747   9.950  11.535
82053W        W50447  22.309  18.164   4.126
82054W        W50448  41.784  20.273  12.570
82055W        W50449  29.785   8.600  11.561
82056W        W50450  22.137   8.972   1.210
82057W        W50451   0.005  25.271  14.060
82058W        W50452  13.274  20.269  13.511
82059W        W50453  35.107  42.486   2.552
82060W        W50454  15.364  32.463  13.895
82061W        W50455   8.601  14.674   0.933
82062W        W50456  39.780   9.554  11.248
82063W        W50457  28.456  35.076   3.256
82064W        W50458  38.969  13.746   3.327
82065W        W50459  44.169  26.641  12.083
82066W        W50460  42.435   1.671  12.421
82067W        W50461  16.356  20.205   4.862
82068W        W50462  12.145  21.229   2.935
82069W        W50463  41.869  25.194  12.510
82070W        W50464   8.648  21.187  12.074
82071W        W50465  21.748  28.561   0.057
82072W        W50466   2.005  38.393  11.721
82073W        W50467  34.066   7.786  13.511
82074W        W50468  30.951  21.633   4.833
82075W        W50469  27.148  42.360   0.859
82076W        W50470  38.456   2.969  10.580
82077W        W50471  16.831   9.442   3.255
82078W        W50472   9.423   2.717   5.084
82079W        W50473  26.415  32.155  10.250
82080W        W50474  30.664  18.724   0.025
82081W        W50475  14.101   5.576   2.841
82082W        W50476   0.009  31.122   2.081
82083W        W50477   2.946  22.103   2.380
82084W        W50478  31.393  33.725  10.828
82085W        W50479  24.996  29.409  14.469
82086W        W50480  14.539  23.984   5.109
82087W        W50481  28.345  30.474  12.375
82088W        W50482  26.215  41.430   4.564
82089W        W50483  26.096  14.995   1.976
82090W        W50484  10.843  26.250   1.194
82091W        W50485  11.802  15.584  10.673
82092W        W50486   6.423  13.857  12.964
82093W        W50487   1.726  16.297   4.628
82094W        W50488  21.504  19.903  11.527
82095W        W50489   0.715  28.308  11.144
82096W        W50490  31.574  42.082   3.141
82097W        W50491  14.726  36.792   2.611
82098W        W50492   8.763  16.708  14.683
82099W        W50493  21.666  25.207   3.320
82100W        W50494   0.359  18.200  10.703
82101W        W50495  13.319  17.073  12.536
82102W        W50496  32.215  28.074   4.155
82103W        W50497   8.622   2.951  13.065
82104W        W50498   7.657  12.814   4.042
82105W        W50499  12.378  17.150   1.778
82106W        W50500  14.942  31.256   1.340
82107W        W50501  15.175  34.816  10.914
82108W        W50502  17.253  16.603   2.785
82109W        W50503  42.500  23.927  12.605
82110W        W50504  17.629  31.643  11.075
82111W        W50505  23.760   1.531   4.179
82112W        W50506   6.465  26.218  13.570
82113W        W50507  39.299  33.036  11.664
82114W        W50508  17.480   1.565   0.326
82115W        W50509  24.271  16.277  13.402
82116W        W50510  27.829  22.253   0.765
82117W        W50511  39.906  41.562   1.323
82118W        W50512  24.191  32.011  10.056
82119W        W50513  28.037   3.798  13.069
82120W        W50514  34.503  36.020   1.511
82121W        W50515  15.466  26.576   3.648
82122W        W50516  11.624   5.268   2.621
82123W        W50517  28.453  41.776  12.978
82124W        W50518  40.868  38.397   1.635
82125W        W50519  14.720   3.240  14.275
82126W        W50520  27.516  29.623  14.414
82127W        W50521  34.189  36.095   2.395
82128W        W50522   0.659   0.337   0.760
82129W        W50523  18.241  38.705   1.358
82130W        W50524  37.626  19.601  14.239
82131W        W50525   2.831  13.178   3.814
82132W        W50526  35.646  22.660   0.308
82133W        W50527  18.071  27.547   1.172
82134W        W50528  11.744  22.168  11.603
82135W        W50529  42.500  17.828   1.257
82136W        W50530  17.745  22.053  12.840
82137W        W50531  36.682  36.963  14.891
82138W        W50532   4.007  36.822  14.440
82139W        W50533  29.100  29.188  10.838
82140W        W50534  36.160  22.220  12.368
82141W        W50535  22.971  11.827   1.840
82142W        W50536   2.902  18.158  10.882
82143W        W50537  24.734   3.841   3.272
82144W        W50538  40.405  16.777   0.733
82145W        W50539   2.231  21.827  12.517
82146W        W50540  18.600  38.603  14.710
82147W        W50541  27.659   9.605   4.604
82148W        W50542   4.794  38.587  14.813
82149W        W50543  28.607  40.596   3.250
82150W        W50544  28.954  20.536  12.531
82151W        W50545  34.809  21.158   4.170
82152W        W50546  40.092  27.133   3.321
82153W        W50547  14.982  31.588  10.791
82154W        W50548  40.411  14.156   3.521
82155W        W50549  37.852  10.430  11.591
82156W        W50550   6.249  20.241   4.584
82157W        W50551   3.301  13.873  12.054
82158W        W50552  40.884  11.857   1.475
82159W        W50553  37.329  25.469  10.502
82160W        W50554  31.879  32.092   2.695
82161W        W50555   7.272  40.994  14.905
82162W        W50556  29.994  10.817  13.110
82163W        W50557   3.256  12.916   3.674
82164W        W50558   5.322  11.655  10.555
82165W        W50559  15.059  16.561  11.948
82166W        W50560  15.102  16.805  14.405
82167W        W50561   7.262  23.524   0.863
82168W        W50562  40.492  35.743  14.022
82169W        W50563  20.234  29.734  11.818
82170W        W50564  18.250  33.268  14.849
82171W        W50565   4.427  25.562  13.873
82172W        W50566  16.860  32.149   4.589
82173W        W50567  22.589   8.162  13.935
82174W        W50568  19.098  41.944  12.055
82175W        W50569  40.629  20.661  10.723
82176W        W50570  18.219  25.463   4.211
82177W        W50571  36.390   6.900   1.607
82178W        W50572   9.663   3.385  12.486
82179W        W50573  14.900   0.876  14.332
82180W        W50574  10.784  13.320   0.311
82181W        W50575  33.583  25.222   4.155
82182W        W50576  16.324  32.997   4.394
82183W        W50577  35.167   5.193   3.743
82184W        W50578  18.159  23.965  12.904
82185W        W50579  35.080   5.365   2.182
82186W        W50580  42.826  28.694  10.579
82187W        W50581  16.552  15.631  13.388
82188W        W50582  21.068  16.835   4.962
82189W        W50583  18.051   1.800  13.815
82190W        W50584   6.669   8.694   2.636
82191W        W50585   7.642  39.437  12.914
82192W        W50586   6.246   5.388   3.659
82193W        W50587  35.762   1.154  11.175
82194W        W50588  13.064  39.699   2.146
82195W        W50589   0.308   6.934  13.360
82196W        W50590  16.199  36.969   2.371
82197W        W50591  33.376  36.413   4.766
82198W        W50592  38.986   3.821   2.177
82199W        W50593   2.272  21.596  10.932
82200W        W50594  34.600  32.312  11.176
82201W        W50595  24.804  19.725   3.251
82202W        W50596  38.524   7.875   3.765
82203W        W50597  31.109  19.213   0.878
82204W        W50598   7.991  35.103   3.262
82205W        W50599  15.162  28.938   4.600
82206W        W50600  38.794  36.567  14.724
82207W        W50601   7.334  30.409   1.245
82208W        W50602  35.148   1.752   0.395
82209W        W50603  30.161   4.713  11.992
82210W        W50604  41.823  13.634   1.788
82211W        W50605  31.639  43.266   2.566
82212W        W50606  13.757   7.342   0.629
82213W        W50607  32.566  36.894   2.230
82214W        W50608  16.602  39.802   2.444
82215W        W50609  14.077  32.250   1.275
82216W        W50610  19.310  16.601   2.767
82217W        W50611   4.420  42.065  11.221
82218W        W50612  14.784  13.601  11.213
82219W        W50613  39.783  31.545  12.579
82220W        W50614  39.236  30.582  14.506
82221W        W50615  30.332  36.683  12.015
82222W        W50616  12.296  38.217   3.861
82223W        W50617  18.275  11.739  11.764
82224W        W50618  17.247   6.987   1.441
82225W        W50619   5.478  12.860   0.304
82226W        W50620  13.828  26.263  14.972
82227W        W50621  43.952  24.227   1.353
82228W        W50622  41.311  12.735   1.927
82229W        W50623   9.243   3.330   0.998
82230W        W50624   1.684   2.224  11.010
82231W        W50625  41.048  31.054  11.138
82232W        W50626  21.639  18.282   2.765
82233W        W50627  26.685  28.646   0.307
82234W        W50628  13.180  11.688   3.955
82235W        W50629  18.200  34.129   4.757
82236W        W50630  16.627  37.017   0.901
82237W        W50631  26.864  29.869  12.338
82238W        W50632  12.617  27.180  13.500
82239W        W50633  25.691  13.268  14.382
82240W        W50634  44.695   7.916  11.685
82241W        W50635  24.585  43.513  12.550
82242W        W50636   6.921   2.814   4.928
82243W        W50637  13.337   3.810  14.933
82244W        W50638  43.522  36.923   3.153
82245W        W50639   4.830  13.364  14.931
82246W        W50640  32.550  24.894   4.859
82247W        W50641   8.792   4.965   1.358
82248W        W50642  40.144  24.970  12.004
82249W        W50643   5.129   0.740  14.013
82250W        W50644  15.389  32.097   4.778
82251W        W50645  23.960  43.995  14.912
82252W        W50646  44.456  25.454  12.461
82253W        W50647  10.446   7.130  14.490
82254W        W50648   2.132   4.011   4.125
82255W        W50649  31.618  24.767   2.281
82256W        W50650   0.697  29.004  10.877
82257W        W50651   5.769  33.835  11.156
82258W        W50652  34.053  43.008   0.279
82259W        W50653  31.531  29.553  11.619
82260W        W50654  19.628  19.597  13.342
82261W        W50655  25.702  14.100  13.882
82262W        W50656  41.578   4.712  11.024
82263W        W50657  27.419  34.259  12.368
82264W        W50658  28.828  40.938   3.940
82265W        W50659  38.104  27.923  12.358
82266W        W50660  43.838  25.750   4.547
82267W        W50661  26.597  16.654  11.948
82268W        W50662  37.148  25.674  11.630
82269W        W50663  39.024  44.904  14.337
82270W        W50664  35.048  25.608   1.492
82271W        W50665  25.989  19.745  12.464
82272W        W50666  32.850  40.456   0.398
82273W        W50667  35.019   1.634   0.891
82274W        W50668  39.313  41.094   1.834
82275W        W50669  37.381  10.421   1.242
82276W        W50670  31.910  32.864   0.790
82277W        W50671  16.359  30.415  13.818
82278W        W50672  15.297  24.648  12.053
82279W        W50673   5.647  34.576   3.674
82280W        W50674  31.976  43.041   1.938
82281W        W50675  17.657   7.137  11.225
82282W        W50676  20.688  25.648   2.835
82283W        W50677  26.981  23.514   4.587
82284W        W50678  35.837  30.467  11.232
82285W        W50679  34.338  16.359   1.841
82286W        W50680  30.130  27.069  14.422
82287W        W50681   0.032  36.656   3.326
82288W        W50682   5.704  11.821   1.709
82289W        W50683  23.311  12.859   4.183
82290W        W50684   0.925  31.079   1.054
82291W        W50685   1.876  20.574  11.884
82292W        W50686  35.030  25.993   4.938
82293W        W50687  36.137   3.845  12.951
82294W        W50688  31.340  39.101   1.569
82295W        W50689   4.874  44.386  12.930
82296W        W50690  39.987   3.933  13.439
82297W        W50691  13.704  21.033   2.447
82298W        W50692  42.055  36.993   1.914
82299W        W50693  44.868  31.056   1.575
82300W        W50694  32.348   4.186  14.094
82301W        W50695  25.997  44.209   2.780
82302W        W50696  31.734  10.217   4.572
82303W        W50697   5.736  33.409  14.477
82304W        W50698  24.237  32.702   2.592
82305W        W50699   6.292  33.975   1.795
82306W        W50700  28.091  10.011  10.153
82307W        W50701  24.456   5.771   4.633
82308W        W50702   4.226  44.059   1.851
82309W        W50703  28.176  16.713  12.132
82310W        W50704   9.879  33.163   4.030
82311W        W50705  31.452   1.784   2.783
82312W        W50706   1.892  28.263   3.368
82313W        W50707   0.033  28.423   3.181
82314W        W50708   2.327  33.981   3.215
82315W        W50709  12.154  27.810   1.272
82316W        W50710  34.250  32.619  11.498
82317W        W50711  32.191  30.712  14.000
82318W        W50712  44.397  15.006  13.526
82319W        W50713  17.771  28.176   2.837
82320W        W50714  14.694  42.412   0.957
82321W        W50715   5.010  33.424   4.077
82322W        W50716  31.048  18.173  12.816
82323W        W50717  32.007  31.203  11.052
82324W        W50718  36.387   8.369   1.802
82325W        W50719   4.266  36.654  12.511
82326W        W50720  24.912  41.310   0.272
82327W        W50721   6.376  32.224   2.355
82328W        W50722   4.219  43.037  11.382
82329W        W50723   3.241  20.707  12.258
82330W        W50724  24.094  12.372   3.000
82331W        W50725  24.675  25.722  11.012
82332W        W50726  25.517  25.247   0.300
82333W        W50727  43.952  30.551  14.714
82334W        W50728   4.313  26.788   4.320
82335W        W50729  16.319  19.073  11.156
82336W        W50730  13.139  35.343   4.686
82337W        W50731  25.125  27.261  12.294
82338W        W50732  24.974   9.065  11.517
82339W        W50733  19.011   5.826   2.165
82340W        W50734  27.062  34.815  13.092
82341W        W50735  26.826   8.672  12.479
82342W        W50736  15.143  10.165   3.129
82343W        W50737  21.604  40.367   4.661
82344W        W50738   0.984  36.832   0.348
82345W        W50739  23.881   4.679   4.165
82346W        W50740  13.764  39.814  11.202
82347W        W50741  38.517   8.277  11.891
82348W        W50742  10.832  29.695   1.985
82349W        W50743  43.800  24.872   3.579
82350W        W50744  28.486  12.706   1.715
82351W        W50745  26.735  36.038   2.542
82352W        W50746  38.053  37.341  11.247
82353W        W50747  32.886  19.710   4.869
82354W        W50748  35.635   0.751  12.063
82355W        W50749  39.961  22.790   0.014
82356W        W50750   3.360  15.497   3.584
82357W        W50751  16.362  18.460  13.740
82358W        W50752  20.202  44.826   0.464
82359W        W50753  14.870  42.470  11.684
82360W        W50754  31.086   8.864  10.332
82361W        W50755   6.893  44.031   3.649
82362W        W50756  18.100  20.528  12.195
82363W        W50757  17.573  24.085   4.745
82364W        W50758  35.791  31.447   2.369
82365W        W50759  43.879  24.150   4.886
82366W        W50760  20.328  22.040   0.282
82367W        W50761  36.587  22.551   4.151
82368W        W50762  22.243   4.369  11.174
82369W        W50763  10.676  34.826   1.277
82370W        W50764   8.664  28.175  13.897
82371W        W50765  39.377  11.378   2.977
82372W        W50766  27.853  20.790  10.258
82373W        W50767  29.445   0.545   2.687
82374W        W50768  37.220  15.714   3.244
82375W        W50769  42.172   4.458  12.880
82376W        W50770  42.994  18.346   1.821
82377W        W50771  38.982  40.552   3.142
82378W        W50772  13.858  39.468   1.860
82379W        W50773  34.383  14.066  13.544
82380W        W50774  10.208  16.852   1.759
82381W        W50775   7.544  15.832  12.511
82382W        W50776  16.639  29.346   0.855
82383W        W50777  16.195   8.757   3.140
82384W        W50778   1.712  24.994   2.871
82385W        W50779   7.866   4.425   2.743
82386W        W50780  25.988  20.303   2.571
82387W        W50781   3.037  17.707  14.368
82388W        W50782  40.965   1.928   2.429
82389W        W50783   6.282  31.800   3.606
82390W        W50784  34.591  26.175  13.985
82391W        W50785  18.875  41.224  13.975
82392W        W50786   2.709  39.830  13.430
82393W        W50787  19.039   5.437   1.681
82394W        W50788  29.469   0.038   1.914
82395W        W50789  31.145  26.013   4.292
82396W        W50790  43.886  11.076   3.724
82397W        W50791  24.764  23.198  13.829
82398W        W50792  29.139  26.391  14.388
82399W        W50793  32.832  42.251  13.301
82400W        W50794  42.521  43.514  11.190
82401W        W50795  17.412  13.827   2.486
82402W        W50796  15.340   8.678  13.509
82403W        W50797   2.759  42.298  13.485
82404W        W50798  42.723  42.474   2.272
82405W        W50799  43.999  39.996  11.698
82406W        W50800  17.120  39.585  12.686
82407W        W50801  24.481  40.140  11.080
82408W        W50802  12.731  22.082  13.926
82409W        W50803  23.821  40.828   2.747
82410W        W50804  12.865  21.467  11.135
82411W        W50805  22.653   1.815   1.347
82412W        W50806  30.066  15.352   2.238
82413W        W50807  21.185  21.240   3.554
82414W        W50808   7.907  18.910  13.123
82415W        W50809  35.799  26.568  10.786
82416W        W50810  20.560   0.482   2.356
82417W        W50811  34.870  12.571   4.718
82418W        W50812  39.687   3.472   0.588
82419W        W50813  11.569  11.248  12.595
82420W        W50814   2.014  30.486   2.391
82421W        W50815  37.009  29.081   0.962
82422W        W50816  16.842  40.691  11.590
82423W        W50817  36.841  33.184  11.499
82424W        W50818   5.624  29.316  11.085
82425W        W50819  41.990  21.001   0.924
82426W        W50820   6.304  41.994  14.691
82427W        W50821  33.211   4.038  12.040
82428W        W50822  13.829  21.972  11.375
82429W        W50823   6.336  34.459   0.866
82430W        W50824  17.530  28.761   1.244
82431W        W50825  37.062   7.572   1.612
82432W        W50826  41.025  22.497   4.951
82433W        W50827  36.548  21.691   3.081
82434W        W50828  23.292  42.164   1.307
82435W        W50829   1.396  36.805   2.276
82436W        W50830  27.060  15.169  13.511
82437W        W50831  39.411  42.309   0.339
82438W        W50832  30.712  31.762   3.642
82439W        W50833  19.217  33.602   1.274
82440W        W50834  24.268  21.153  13.346
82441W        W50835  37.677  37.581  14.272
82442W        W50836   3.383  15.057   1.842
82443W        W50837   6.667  33.200   2.939
82444W        W50838  37.305  42.799  14.501
82445W        W50839  19.377   8.571   1.363
82446W        W50840  42.068  29.133  12.969
82447W        W50841  15.627  30.891   3.825
82448W        W50842   7.832  24.588   1.298
82449W        W50843  17.699  33.053   2.272
82450W        W50844  33.190  23.825  12.948
82451W        W50845   5.903  10.881   3.692
82452W        W50846   4.837  10.031   0.395
82453W        W50847  28.757  23.507  10.570
82454W        W50848  39.130  27.698   2.250
82455W        W50849   2.450  14.683  10.589
82456W        W50850  35.109  31.101  11.471
82457W        W50851  28.276   4.934   3.732
82458W        W50852  38.778  14.718   3.721
82459W        W50853   4.449  28.667   0.959
82460W        W50854  37.924  20.044  14.015
82461W        W50855   7.767  18.067  10.332
82462W        W50856   7.143  28.938   0.835
82463W        W50857  44.557  10.669  11.836
82464W        W50858  39.561  24.169   2.874
82465W        W50859  33.932  20.154  10.997
82466W        W50860  35.826  20.682  11.223
82467W        W50861  10.359  12.322   0.979
82468W        W50862  24.667   4.405  11.276
82469W        W50863   3.027  20.083  13.359
82470W        W50864  11.032   3.203   2.721
82471W        W50865   9.960   8.247  13.017
82472W        W50866   8.166  20.613  14.315
82473W        W50867  32.113  31.084   1.205
82474W        W50868  18.242  41.422   0.319
82475W        W50869  36.427  39.950   2.321
82476W        W50870  25.242  16.542   1.561
82477W        W50871   0.990  12.129   3.278
82478W        W50872   0.247   1.349  10.867
82479W        W50873  37.516  38.109  11.664
82480W        W50874   0.644  15.063  11.524
82481W        W50875  15.357  29.179   2.750
82482W        W50876   7.776  13.503   1.788
82483W        W50877  11.130  12.578   2.353
82484W        W50878  22.895   6.935  14.776
82485W        W50879  22.674  39.776   4.932
82486W        W50880   0.060  15.742   0.942
82487W        W50881  10.669   4.292  11.682
82488W        W50882  19.253   2.168   0.385
82489W        W50883   5.271  20.726  13.887
82490W        W50884   7.971  27.039  11.096
82491W        W50885   2.608  18.550   4.481
82492W        W50886  32.442  29.628  14.404
82493W        W50887  26.973  33.058   2.591
82494W        W50888  25.114  41.007   1.853
82495W        W50889  30.634   0.724   1.485
82496W        W50890  14.821  36.967  13.278
82497W        W50891  30.972  18.738  13.896
82498W        W50892  39.053   8.140   4.510
82499W        W50893  12.638  37.182  11.913
82500W        W50894  16.150  26.069   0.924
82501W        W50895  26.186  10.431  14.143
82502W        W50896  35.896  16.046   2.738
82503W        W50897  24.441  43.482  14.309
82504W        W50898  29.765  30.708  11.838
82505W        W50899  16.645  13.243  12.034
82506W        W50900   1.333  29.173   4.325
82507W        W50901  16.223  15.631   4.805
82508W        W50902  30.516  18.786  11.540
82509W        W50903  16.131  18.347   2.647
82510W        W50904  28.115  37.077  12.503
82511W        W50905  19.293  21.778   3.077
82512W        W50906   5.296  20.004   0.785
82513W        W50907  11.303  42.279  11.163
82514W        W50908  16.266  32.927   0.068
82515W        W50909   2.367  27.314  14.072
82516W        W50910   2.505   8.405  14.887
82517W        W50911  27.877  39.457  14.405
82518W        W50912  21.185  11.978   0.376
82519W        W50913  34.267  29.211  12.182
82520W        W50914  41.380  19.616   2.103
82521W        W50915  18.320  26.652   0.832
82522W        W50916  22.488  20.171   2.749
82523W        W50917  29.664  23.707  12.580
82524W        W50918  24.648  11.151  14.038
82525W        W50919  42.495  12.897   2.775
82526W        W50920  29.978  29.998  11.577
82527W        W50921  39.484  21.064   3.563
82528W        W50922  42.831  19.371  13.396
82529W        W50923  36.021   7.170  14.218
82530W        W50924  22.277  29.131   4.213
82531W        W50925  39.452  32.902   4.658
82532W        W50926   3.916  13.637  14.115
82533W        W50927   8.261  30.650   4.808
82534W        W50928  30.700   4.654   1.724
82535W        W50929   3.878   1.466   4.191
82536W        W50930  22.682  13.140  10.646
82537W        W50931   7.012  13.606  12.109
82538W        W50932  44.038   6.503   3.122
82539W        W50933  29.581  37.912  13.543
82540W        W50934   3.939  31.406   3.370
82541W        W50935  34.067   9.732   0.859
82542W        W50936  32.327  43.974   3.273
82543W        W50937  35.026  15.864  13.830
82544W        W50938  34.632   3.274  12.757
82545W        W50939  42.175   9.466  13.474
82546W        W50940  30.443  26.939   1.049
82547W        W50941  43.013  29.013  14.508
82548W        W50942   7.316  14.637   4.065
82549W        W50943   2.791  36.745   3.295
82550W        W50944  43.502   3.771   4.541
82551W        W50945  43.851   1.658   4.998
82552W        W50946  44.441   6.184   2.365
82553W        W50947  35.034   9.128  11.629
82554W        W50948  11.168  17.492   2.581
82555W        W50949  23.209  23.120   1.926
82556W        W50950  36.998   8.577   2.168
82557W        W50951   7.320  23.261   3.841
82558W        W50952  21.898  16.716   0.998
82559W        W50953  13.599  30.231  13.935
82560W        W50954  25.653  35.934   0.288
82561W        W50955  19.875   0.811  11.124
82562W        W50956  16.580  25.060   2.239
82563W        W50957  36.980   3.318  11.958
82564W        W50958  39.638   1.769   2.456
82565W        W50959  30.335  16.538   2.894
82566W        W50960  11.733  37.100  11.843
82567W        W50961   7.084   5.417   0.079
82568W        W50962   3.890  18.677  13.455
82569W        W50963  23.571  20.074  10.934
82570W        W50964  33.380  44.955   3.695
82571W        W50965  28.231   0.002  12.431
82572W        W50966  37.392   7.853   4.654
82573W        W50967   3.719  43.721  10.989
82574W        W50968   2.179  19.554  12.403
82575W        W50969  11.592  44.035  14.074
82576W        W50970  44.463   5.492  10.980
82577W        W50971  35.884  43.802   1.976
82578W        W50972  22.536  15.633  14.478
82579W        W50973  15.835  26.633  10.617
82580W        W50974  29.479  31.324   1.175
82581W        W50975  42.045   0.338  11.154
82582W        W50976   5.115  13.354  11.556
82583W        W50977  31.099  23.515   2.287
82584W        W50978  16.010  12.190  14.377
82585W        W50979  12.144  31.327  11.144
82586W        W50980  20.295  14.144  10.533
82587W        W50981  16.175   5.704   1.719
82588W        W50982  39.506  39.276   2.701
82589W        W50983  16.459  21.719   0.444
82590W        W50984  17.807   4.393  12.903
82591W        W50985  42.571  36.054   0.522
82592W        W50986  40.673  22.816   5.177
82593W        W50987  29.408  23.689   0.479
82594W        W50988  15.499  43.321  13.326
82595W        W50989   2.804  42.830  11.657
82596W        W50990  15.320  29.895  10.878
82597W        W50991  35.120  15.536   3.134
82598W        W50992  13.357  23.823  11.426
82599W        W50993   3.558  30.845  12.172
82600W        W50994  22.405  24.011   3.403
82601W        W50995  15.011  17.357  10.359
82602W        W50996   2.897   4.802  14.912
82603W        W50997   4.255  10.084   1.719
82604W        W50998   1.807   4.976   4.351
82605W        W50999  17.567  18.888  11.703
82606W        W51000  14.841  44.730  12.998
82607W        W51001   6.618  29.515   4.588
82608W        W51002  25.857  19.206   1.800
82609W        W51003   8.111  19.401   5.033
82610W        W51004   3.458  27.880   4.033
82611W        W51005  13.646  19.371   4.217
82612W        W51006  15.798  31.405  11.662
82613W        W51007  41.534  34.906   3.362
82614W        W51008   3.911  30.575  12.612
82615W        W51009   1.696   9.949   3.125
82616W        W51010  17.763  26.102   3.605
82617W        W51011  22.574  10.735  12.016
82618W        W51012  32.081  32.315   1.823
82619W        W51013   9.204  27.117   3.085
82620W        W51014   1.914   4.927   1.034
82621W        W51015   2.823  27.490   0.864
82622W        W51016  19.302   1.714  11.423
82623W        W51017  37.819  39.011  10.750
82624W        W51018  25.683  23.182  13.059
82625W        W51019  32.552   0.505   4.616
82626W        W51020  24.742  19.759  14.824
82627W        W51021  44.509  31.506   2.751
82628W        W51022   7.017  20.703  11.861
82629W        W51023  22.498   5.294  12.974
82630W        W51024  42.873  11.296  12.629
82631W        W51025  27.225  11.122  12.031
82632W        W51026  16.004  27.234   4.142
82633W        W51027  37.285  26.422  14.489
82634W        W51028  39.973  12.667   3.219
82635W        W51029   5.914  17.160  11.188
82636W        W51030  32.035   1.486   4.768
82637W        W51031  16.280  29.200   0.372
82638W        W51032  22.013  19.754   1.310
82639W        W51033  43.260  32.021  13.619
82640W        W51034  28.195   9.365   3.900
82641W        W51035  37.061  24.741  12.532
82642W        W51036  11.886  10.158  14.600
82643W        W51037  23.815  21.757   4.583
82644W        W51038  29.326   4.153   3.416
82645W        W51039   3.484  29.219   2.142
82646W        W51040  34.668  17.022  14.375
82647W        W51041  40.385  20.559   3.673
82648W        W51042   9.316  23.039  14.584
82649W        W51043  29.898  25.122  11.108
82650W        W51044   4.883  32.673  11.567
82651W        W51045  19.177  29.667   4.524
82652W        W51046  16.829   3.964   3.141
82653W        W51047  30.332  36.028  10.975
82654W        W51048  27.175  15.240   1.804
82655W        W51049   6.301  18.753   4.443
82656W        W51050  22.980   9.652   4.168
82657W        W51051  44.411  37.491   4.153
82658W        W51052  31.626  39.037  14.879
82659W        W51053  34.826  18.822   0.930
82660W        W51054  23.724  26.619  14.531
82661W        W51055   2.842  11.735  10.406
82662W        W51056  42.598  32.023  10.715
82663W        W51057   4.253  41.868  11.682
82664W        W51058  18.306  29.931  12.867
82665W        W51059  22.178  29.389  10.750
82666W        W51060  28.169  24.570  11.023
82667W        W51061  21.008  26.533  11.656
82668W        W51062  10.484  40.970  10.649
82669W        W51063   6.915   8.256  11.044
82670W        W51064   7.327  13.508  11.074
82671W        W51065  39.775  16.177   0.776
82672W        W51066  21.501  17.811  11.156
82673W        W51067  35.013  23.909   4.416
82674W        W51068  16.324   7.307  11.784
82675W        W51069   7.703   4.952   0.132
82676W        W51070   9.174   3.871   3.875
82677W        W51071  43.916  16.773  14.554
82678W        W51072  31.421   8.152  14.549
82679W        W51073  26.793  15.841  10.903
82680W        W51074  17.146  43.596   3.719
82681W        W51075   6.652  19.004   4.146
82682W        W51076  43.973  18.159  10.403
82683W        W51077   3.708  19.228   3.188
82684W        W51078  12.604  32.460  12.545
82685W        W51079  26.161  12.191  11.808
82686W        W51080  36.739  43.879   2.238
82687W        W51081   1.085  29.929  14.384
82688W        W51082  39.259  24.617   0.360
82689W        W51083  32.206  31.111  12.573
82690W        W51084  12.412  36.640  11.133
82691W        W51085  19.833  38.108  11.054
82692W        W51086  23.186  16.205   3.040
82693W        W51087  36.052  12.283   2.773
82694W        W51088  29.703  10.422   4.501
82695W        W51089  28.162  21.274  11.970
82696W        W51090   9.575  12.301  11.842
82697W        W51091  11.053  26.714  14.215
82698W        W51092  39.931  10.411   0.003
82699W        W51093  23.470  26.461  12.550
82700W        W51094   3.901   5.694   3.642
82701W        W51095  17.065  22.146   4.411
82702W        W51096  40.390  28.558   0.288
82703W        W51097  22.619  15.536   4.577
82704W        W51098  14.787  17.579   1.366
82705W        W51099  19.187   0.037  10.996
82706W        W51100   6.887  10.135  12.467
82707W        W51101   7.258   5.861   1.901
82708W        W51102  39.663  13.739   3.785
82709W        W51103   3.499  35.837  14.879
82710W        W51104   2.953  25.652  12.480
82711W        W51105  20.010   6.273   3.837
82712W        W51106   0.970   2.870   1.662
82713W        W51107   3.188  44.939  11.101
82714W        W51108  35.129  14.691  11.999
82715W        W51109  35.985  17.588   1.700
82716W        W51110  18.331  37.042   2.078
82717W        W51111  38.291  19.356   1.808
82718W        W51112  22.476  38.850   1.275
82719W        W51113  31.850  11.096   4.739
82720W        W51114  36.066  41.518  11.192
82721W        W51115   5.639  37.439   3.802
82722W        W51116  23.100  43.787   3.428
82723W        W51117  27.862  30.203   2.199
82724W        W51118  10.722  38.812   1.478
82725W        W51119  42.727  10.375   4.201
82726W        W51120  40.002  16.471   2.030
82727W        W51121  36.166   2.441  13.535
82728W        W51122   0.736   7.904  14.093
82729W        W51123  27.469  19.623  12.595
82730W        W51124   2.535  19.205  12.582
82731W        W51125  43.586  35.019  11.151
82732W        W51126  18.079  28.830  12.853
82733W        W51127  30.791  14.719   3.590
82734W        W51128  39.552  23.173  12.672
82735W        W51129   4.962  37.601   1.628
82736W        W51130  36.635  12.839   1.480
82737W        W51131  44.384  24.538  11.491
82738W        W51132  11.565  31.361   4.116
82739W        W51133   6.256  36.946   1.776
82740W        W51134  42.792  13.905   2.800
82741W        W51135  11.337  40.244  13.031
82742W        W51136   0.839  21.019  11.334
82743W        W51137   7.431  27.030  10.284
82744W        W51138  27.633   2.889   3.748
82745W        W51139  38.303  28.167   2.394
82746W        W51140   6.446  22.129   0.051
82747W        W51141  10.638   8.903  11.372
82748W        W51142   7.792  22.917   1.198
82749W        W51143  36.260   1.021  11.248
82750W        W51144   1.983  29.576   2.781
82751W        W51145  33.938  27.875  13.748
82752W        W51146  37.624  10.541  12.927
82753W        W51147  10.323  38.437   2.848
82754W        W51148  11.240  22.562  14.975
82755W        W51149  44.780  44.965   0.929
82756W        W51150  41.606  12.987  12.947
82757W        W51151  25.569  31.946   4.292
82758W        W51152   8.930  37.913   0.510
82759W        W51153   8.179  12.405   3.247
82760W        W51154  11.881  14.301  13.577
82761W        W51155   8.266  28.566   3.586
82762W        W51156  16.044  26.233  12.644
82763W        W51157   3.772   8.612   3.798
82764W        W51158  31.430  15.806  10.748
82765W        W51159   2.854   5.397  13.812
82766W        W51160  23.622  42.981   3.083
82767W        W51161  25.264  29.670  14.869
82768W        W51162   1.895  11.129  13.018
82769W        W51163  30.435  23.601   1.761
82770W        W51164  21.222  42.808  12.558
82771W        W51165   7.751  26.037  13.115
82772W        W51166  35.972   2.783   1.358
82773W        W51167  25.708   2.268  13.460
82774W        W51168  40.962  11.907  12.578
82775W        W51169   6.377  26.605   4.343
82776W        W51170   2.780  27.546  11.422
82777W        W51171   2.399  15.366   3.189
82778W        W51172   2.094  40.765  12.656
82779W        W51173  42.761  21.720   4.511
82780W        W51174  21.635  24.505   1.445
82781W        W51175  11.926   9.727  11.540
82782W        W51176  10.161  18.749   3.743
82783W        W51177  41.571  17.151   0.001
82784W        W51178   9.218  13.464  11.604
82785W        W51179  28.649  37.575   3.579
82786W        W51180  34.831  32.013  10.467
82787W        W51181  44.056  20.138   4.128
82788W        W51182   4.892  30.819  12.572
82789W        W51183  34.574  27.784   0.758
82790W        W51184  14.007  10.684  11.419
82791W        W51185  30.541  33.314   1.313
82792W        W51186  25.080  33.948  10.709
82793W        W51187  44.308   3.744   0.300
82794W        W51188  21.986   5.896  14.726
82795W        W51189  13.256   6.823  12.528
82796W        W51190  10.865  41.246  14.868
82797W        W51191  15.879  33.192  14.824
82798W        W51192   0.015  14.847   4.276
82799W        W51193  22.219  34.155  12.548
82800W        W51194  25.676  26.789   1.281
82801W        W51195   7.446  18.861  11.915
82802W        W51196   5.416  32.376   2.030
82803W        W51197  20.639   0.355  13.802
82804W        W51198  10.166   4.691  11.520
82805W        W51199  43.573  37.382  13.369
82806W        W51200   1.222  40.396   4.091
82807W        W51201   4.234  37.320  14.950
82808W        W51202  37.020   8.371   4.159
82809W        W51203  10.731  25.933  10.902
82810W        W51204  29.472  10.867   4.581
82811W        W51205   9.179  30.513   4.132
82812W        W51206  29.628  36.522  13.811
82813W        W51207  43.338   3.823  12.791
82814W        W51208   8.904  29.720   4.162
82815W        W51209  16.645   4.145   0.891
82816W        W51210  17.283  26.096   4.831
82817W        W51211  34.768   4.219  10.704
82818W        W51212  19.619  25.115   4.075
82819W        W51213  12.324  26.111   1.340
82820W        W51214  14.230  33.023  12.056
82821W        W51215   6.439  18.552  14.930
82822W        W51216  26.485  40.059   9.938
82823W        W51217   8.408   2.849   5.019
82824W        W51218  13.193  29.490   1.441
82825W        W51219  39.518  17.264   3.770
82826W        W51220  27.891  31.195  14.355
82827W        W51221  18.863   1.278   1.696
82828W        W51222  36.419  20.794   3.138
82829W        W51223  37.797  23.620   4.439
82830W        W51224  42.849  31.530  11.221
82831W        W51225  38.367  27.717  11.612
82832W        W51226   1.918  36.474   3.042
82833W        W51227  40.621  36.413  14.384
82834W        W51228   7.950  41.832   0.771
82835W        W51229  32.365  33.600   4.124
82836W        W51230  36.855  14.660   0.327
82837W        W51231  26.344   7.337  10.084
82838W        W51232  37.534  34.425  11.333
82839W        W51233  30.384  24.253   3.385
82840W        W51234  10.632  11.352  12.510
82841W        W51235  30.560  44.406   0.551
82842W        W51236  33.675  22.754  11.134
82843W        W51237   8.232  13.124  10.669
82844W        W51238  20.096  34.959  10.963
82845W        W51239  26.930  27.587  12.534
82846W        W51240  31.118  30.569  10.739
82847W        W51241  43.439  26.707  11.566
82848W        W51242  11.148  39.913   4.068
82849W        W51243  25.102   3.999   1.715
82850W        W51244   4.725   4.974   3.216
82851W        W51245  44.968  18.124   2.933
82852W        W51246  16.096  23.290  12.409
82853W        W51247  15.144  25.470  11.147
82854W        W51248   3.398  31.117   2.784
82855W        W51249  18.293  29.122  13.500
82856W        W51250   2.958   8.207  11.966
82857W        W51251   2.859   4.358  11.405
82858W        W51252   5.787   1.993   2.423
82859W        W51253  31.646  31.986   1.780
82860W        W51254  31.072  23.696  13.511
82861W        W51255   8.802  22.148  13.600
82862W        W51256  40.185  14.657  13.611
82863W        W51257  14.560  31.889  12.890
82864W        W51258  23.106  36.038   2.711
82865W        W51259   6.189  35.105  14.193
82866W        W51260  22.611  44.502  14.505
82867W        W51261   6.818   1.474   2.241
82868W        W51262   7.425  31.998   2.879
82869W        W51263   2.470  35.623   2.735
82870W        W51264  40.303  22.654  11.113
82871W        W51265  29.581  11.273   2.378
82872W        W51266  36.537  12.779  11.584
82873W        W51267  34.106  36.868   1.881
82874W        W51268   0.323   9.606  14.527
82875W        W51269  28.340   1.590  11.238
82876W        W51270  28.585   7.345   4.021
82877W        W51271  16.139  31.488  10.975
82878W        W51272  31.015   6.944  12.050
82879W        W51273  32.491   9.971   2.704
82880W        W51274  37.070  27.561   4.596
82881W        W51275  26.611  32.600   3.364
82882W        W51276   2.184   2.360  11.092
82883W        W51277  33.160  12.759  12.986
82884W        W51278  27.854  44.957   2.022
82885W        W51279   4.459  33.908  13.821
82886W        W51280   4.334  11.817   0.653
82887W        W51281  13.732  44.083   3.409
82888W        W51282  38.588  19.353  13.927
82889W        W51283  23.766  37.907  11.603
82890W        W51284  16.703  22.137  14.741
82891W        W51285  37.132  33.896   3.196
82892W        W51286  35.493  28.157   3.856
82893W        W51287  10.857  33.433  14.860
82894W        W51288  30.056   8.835   0.570
82895W        W51289  21.510  43.134   1.893
82896W        W51290   0.218   5.738   1.814
82897W        W51291  10.585  27.860   4.524
82898W        W51292  11.428  11.276   2.517
82899W        W51293   4.132  25.490   0.887
82900W        W51294  33.930  34.896  12.391
82901W        W51295  43.290  31.627   1.971
82902W        W51296  10.615  28.413   4.524
82903W        W51297   8.764  19.196   2.729
82904W        W51298  33.802  31.938   2.387
82905W        W51299  16.316  30.099  11.030
82906W        W51300  21.498  41.621  14.007
82907W        W51301  11.806  19.167  13.404
82908W        W51302  23.562   5.695  14.855
82909W        W51303  21.524  15.889  11.174
82910W        W51304  29.580  36.487   1.819
82911W        W51305  12.788  18.083   2.704
82912W        W51306  20.087  33.504  14.496
82913W        W51307  42.261  30.904  13.413
82914W        W51308  27.991  15.241  14.972
82915W        W51309  19.634   3.740  11.766
82916W        W51310  32.066  39.440   1.778
82917W        W51311   8.337  18.641  12.896
82918W        W51312  25.305  42.554  12.977
82919W        W51313  27.537  23.086  14.285
82920W        W51314  31.372  23.604   4.206
82921W        W51315  14.062   4.309   1.555
82922W        W51316  17.707   8.624   0.939
82923W        W51317  15.719  34.235   2.385
82924W        W51318   3.266  28.384   0.455
82925W        W51319  36.015   5.389   4.346
82926W        W51320   1.310  23.550  13.383
82927W        W51321  15.860  33.861  13.279
82928W        W51322   3.693   8.798   4.824
82929W        W51323   0.929  22.878  11.555
82930W        W51324   9.493  44.816   2.843
82931W        W51325   2.491   3.019   2.797
82932W        W51326   9.540  28.939  12.913
82933W        W51327  15.784  14.092  14.412
82934W        W51328   7.698   6.909  13.368
82935W        W51329  33.862  28.452   0.321
82936W        W51330  37.889   4.342   0.304
82937W        W51331  21.699  32.114  13.001
82938W        W51332  35.457  18.850  10.769
82939W        W51333  27.360  18.311  13.410
82940W        W51334   5.714   3.321   4.282
82941W        W51335  38.653   1.377  11.517
82942W        W51336  35.424  38.351   2.120
82943W        W51337  25.069  15.020   1.861
82944W        W51338  15.025   1.229   2.932
82945W        W51339  37.975  43.903  12.778
82946W        W51340  16.620   4.909   3.012
82947W        W51341   5.239   4.933   3.131
82948W        W51342  11.891  11.348  11.660
82949W        W51343   8.528  44.149   2.240
82950W        W51344  27.601  32.027  12.597
82951W        W51345   4.554  38.411   3.829
82952W        W51346  11.645   8.271   4.404
82953W        W51347  33.144  44.744  10.483
82954W        W51348  12.895  16.178   3.202
82955W        W51349   7.735  41.377  12.234
82956W        W51350  24.560  10.717  11.480
82957W        W51351  23.906  37.006   2.833
82958W        W51352  18.596  43.030   0.459
82959W        W51353  35.237  41.330   3.189
82960W        W51354  29.511  16.612  12.881
82961W        W51355  38.270  33.411   4.188
82962W        W51356  40.086  39.475  11.840
82963W        W51357  22.236  43.514   3.634
82964W        W51358  15.223   7.881   2.679
82965W        W51359   8.455   9.925   2.947
82966W        W51360  10.967   3.593   0.426
82967W        W51361  14.543   0.261  14.193
82968W        W51362  24.732  32.035   4.763
82969W        W51363  11.146  30.656   2.539
82970W        W51364  13.214  27.521  14.713
82971W        W51365  19.946  43.975  10.841
82972W        W51366  37.436   8.802  11.721
82973W        W51367   7.806  15.259   0.264
82974W        W51368  18.667  33.069  10.663
82975W        W51369  11.639  22.734   5.008
82976W        W51370  11.780  23.149   0.958
82977W        W51371   0.826  35.910   4.945
82978W        W51372  39.066   3.727   4.645
82979W        W51373  32.892   6.870  14.995
82980W        W51374  31.324   9.125   2.283
82981W        W51375  33.862  44.873  14.995
82982W        W51376  41.971   9.459   1.970
82983W        W51377  39.434  14.126   5.063
82984W        W51378  44.032  14.598  10.636
82985W        W51379  31.877   2.300   0.268
82986W        W51380  15.879   0.317  14.984
82987W        W51381  39.424  44.761   0.917
82988W        W51382  29.360  17.579  10.172
82989W        W51383  11.773   1.013   3.356
82990W        W51384  32.451  12.232   2.907
82991W        W51385  42.613  33.516  12.289
82992W        W51386  10.415  23.738  13.978
82993W        W51387  21.846  33.519   2.077
82994W        W51388   2.779  30.968  12.493
82995W        W51389   1.171  24.387   2.009
82996W        W51390  44.934  25.176   1.200
82997W        W51391   9.298  34.965  13.886
82998W        W51392  30.764   1.450   3.679
82999W        W51393   8.690  44.382  10.785
83000W        W51394   3.849  10.915   1.788
83001W        W51395  39.469   9.640  13.971
83002W        W51396  28.504  13.210  13.548
83003W        W51397  41.276  41.504   4.190
83004W        W51398   2.161  44.535  12.421
83005W        W51399  43.264  35.696  14.734
83006W        W51400  13.231  28.287   4.619
83007W        W51401  26.033   6.700   0.395
83008W        W51402   3.013  19.189   0.973
83009W        W51403  11.405  12.806  14.128
83010W        W51404  41.760  23.480   3.192
83011W        W51405  17.740  17.014   2.295
83012W        W51406   2.281  14.568   3.301
83013W        W51407   8.119   4.732  14.342
83014W        W51408  27.057  41.575   1.947
83015W        W51409   4.041  18.155   2.718
83016W        W51410   5.419   1.476   2.824
83017W        W51411   6.977  44.437   0.778
83018W        W51412  17.352  31.074   1.749
83019W        W51413  30.100   7.470  12.107
83020W        W51414  24.298  32.353  12.731
83021W        W51415  27.902  30.565   2.577
83022W        W51416  10.699  39.986   3.755
83023W        W51417  42.774   5.238  12.032
83024W        W51418   6.460  14.338  10.699
83025W        W51419   2.723  41.450   0.532
83026W        W51420   9.074  42.077  12.075
83027W        W51421   3.778  27.035   3.312
83028W        W51422  33.076   2.375  14.742
83029W        W51423  24.361  21.096   1.657
83030W        W51424  21.935  35.584  14.798
83031W        W51425  12.828  11.438  12.960
83032W        W51426  32.466   0.498   3.322
83033W        W51427   9.629   3.020   0.809
83034W        W51428  27.723   9.703   1.215
83035W        W51429  12.855   4.321   4.141
83036W        W51430  43.933  15.238  13.843
83037W        W51431  42.242  19.745   1.230
83038W        W51432  39.607  37.898   2.431
83039W        W51433  42.556  13.530   3.562
83040W        W51434  13.766  43.999   2.180
83041W        W51435  25.488   9.877  13.404
83042W        W51436  17.055  12.893   4.001
83043W        W51437  26.075  14.874  12.607
83044W        W51438  22.703   6.712  13.874
83045W        W51439   8.286  33.079   1.846
83046W        W51440  37.447  27.852  14.273
83047W        W51441  21.134  16.850  10.342
83048W        W51442  40.817  10.470  14.750
83049W        W51443  37.306   9.918  14.075
83050W        W51444  34.030   4.365  10.558
83051W        W51445   1.971  15.794   2.376
83052W        W51446  27.306  40.492  11.671
83053W        W51447  42.788  24.000  14.343
83054W        W51448   2.893  42.364   3.152
83055W        W51449  17.593   8.809   3.378
83056W        W51450  31.565  35.038  13.021
83057W        W51451  15.079  29.984  11.663
83058W        W51452  21.546  19.938  14.876
83059W        W51453   8.444  16.161  13.530
83060W        W51454  16.076  26.419  11.556
83061W        W51455   5.098  21.542  13.446
83062W        W51456   7.226  39.171  13.841
83063W        W51457  30.001  31.210  14.448
83064W        W51458   0.726  27.464  14.855
83065W        W51459  40.868  18.993  13.789
83066W        W51460  15.349   9.009  14.920
83067W        W51461  36.020  34.806  12.934
83068W        W51462   7.762  11.058   1.323
83069W        W51463   7.466  23.580   3.458
83070W        W51464   1.500  25.126   4.611
83071W        W51465  22.732  15.652  12.092
83072W        W51466   3.474   0.499  11.997
83073W        W51467  40.476   1.056   0.710
83074W        W51468   1.901   3.554   2.299
83075W        W51469  40.735   5.262   4.565
83076W        W51470  32.343  26.913   2.266
83077W        W51471  41.127  35.391   4.122
83078W        W51472  34.360  32.917   3.603
83079W        W51473  28.658  36.538   0.874
83080W        W51474   4.289  16.475  10.095
83081W        W51475  26.618  32.204  13.920
83082W        W51476  34.098  35.961   4.554
83083W        W51477  20.615  14.898   0.907
83084W        W51478   1.694   7.471   1.430
83085W        W51479  35.420   8.216  11.048
83086W        W51480  43.567   5.335   4.956
83087W        W51481  21.224   0.004   4.844
83088W        W51482  44.405  20.352   2.754
83089W        W51483  20.782  38.638  12.108
83090W        W51484  26.528  32.656   0.370
83091W        W51485  23.791  16.265   0.872
83092W        W51486  27.159  24.106   3.866
83093W        W51487  26.172   3.301  14.515
83094W        W51488  28.564  21.132  10.564
83095W        W51489  43.831  14.547  12.795
83096W        W51490   4.051   1.686   5.214
83097W        W51491  18.098  12.831  14.977
83098W        W51492  25.671  40.260  13.980
83099W        W51493  10.867   4.120   4.113
83100W        W51494   4.140   6.085  10.179
83101W        W51495  30.671  20.480   1.478
83102W        W51496  23.294  32.464   4.164
83103W        W51497   5.236  30.541   4.147
83104W        W51498  37.067   3.946   2.752
83105W        W51499  43.408  14.690   0.688
83106W        W51500   6.377  13.405   4.994
83107W        W51501  43.975  21.008   2.821
83108W        W51502  10.561  35.367  10.759
83109W        W51503  14.196  18.155   3.136
83110W        W51504  12.511   1.416  13.923
83111W        W51505  42.922  23.672   0.232
83112W        W51506  19.603  31.248  12.022
83113W        W51507   4.934   4.225  13.539
83114W        W51508   3.931   3.549  13.425
83115W        W51509   1.547  23.571   2.164
83116W        W51510  41.789  33.402  11.140
83117W        W51511   3.269  27.416  13.889
83118W        W51512  21.758   4.944   2.378
83119W        W51513  30.084  16.921  10.691
83120W        W51514   0.384  30.725   0.268
83121W        W51515  22.005  26.502  11.640
83122W        W51516  34.394   6.147  13.763
83123W        W51517  43.825   7.361   3.086
83124W        W51518  39.135   6.221   0.826
83125W        W51519  31.180  25.594  11.460
83126W        W51520  25.170  19.231  12.365
83127W        W51521  10.798  11.386  13.018
83128W        W51522  26.266  43.875   0.818
83129W        W51523  42.742  28.359   4.813
83130W        W51524   0.353  25.763  10.810
83131W        W51525  13.740  33.101  11.089
83132W        W51526   0.267  36.593  12.365
83133W        W51527  29.639   9.680  12.900
83134W        W51528   9.410  23.753  13.933
83135W        W51529  38.060   6.233   2.234
83136W        W51530   5.742   0.808   4.012
83137W        W51531   2.997   0.252   1.637
83138W        W51532  37.646  35.983  12.422
83139W        W51533  22.430  40.243   4.879
83140W        W51534  38.612  40.452  12.416
83141W        W51535  33.400  39.030   3.132
83142W        W51536  23.459   2.247   4.374
83143W        W51537  38.986  11.710   2.810
83144W        W51538  40.455  41.889   4.080
83145W        W51539   4.928   0.787   1.726
83146W        W51540   4.211  19.344   0.309
83147W        W51541  31.068  29.434  12.378
83148W        W51542   9.217  24.621   4.928
83149W        W51543   4.727  30.178   4.808
83150W        W51544  43.861  41.998   4.222
83151W        W51545   4.325  10.584   3.550
83152W        W51546   9.390   8.766  12.233
83153W        W51547   8.171  29.245   0.003
83154W        W51548  20.138   0.673  10.705
83155W        W51549   7.924  27.383  10.726
83156W        W51550  23.155  44.183   3.104
83157W        W51551   0.032  12.123  14.409
83158W        W51552   0.918  29.672  13.982
83159W        W51553   8.756   9.275  14.748
83160W        W51554  33.611  26.774   2.217
83161W        W51555  21.093  42.253  11.614
83162W        W51556  11.161  30.132  14.434
83163W        W51557  37.107  19.837  11.186
83164W        W51558  13.621  33.769   2.703
83165W        W51559   2.157   5.815   0.777
83166W        W51560  29.730   4.033  14.171
83167W        W51561   6.724  44.742  13.345
83168W        W51562  39.449  17.450  11.647
83169W        W51563  17.061  22.723  12.475
83170W        W51564  17.834  14.841   4.048
83171W        W51565  27.134  35.551   4.058
83172W        W51566  24.465  25.185  13.333
83173W        W51567  34.515  31.410   4.380
83174W        W51568  26.208  10.096  14.544
83175W        W51569  44.134  36.953   0.124
83176W        W51570  21.556  38.347   0.778
83177W        W51571  10.415  24.598   0.372
83178W        W51572   9.700   6.622  11.737
83179W        W51573  44.255  11.853  11.666
83180W        W51574  35.991  34.030   0.682
83181W        W51575   3.677   4.909   2.492
83182W        W51576  27.630  35.881  12.300
83183W        W51577  34.011   8.725   4.249
83184W        W51578  30.554  20.617   0.990
83185W        W51579  26.254  16.574   3.268
83186W        W51580   9.881  14.235  13.505
83187W        W51581  33.980  31.972   1.876
83188W        W51582  23.039   9.720  14.968
83189W        W51583   1.173  24.688   0.466
83190W        W51584  22.052   1.122   0.169
83191W        W51585  15.603  22.652   0.965
83192W        W51586  20.462  26.643   0.850
83193W        W51587   3.940  22.483   4.575
83194W        W51588  28.487  28.481   3.252
83195W        W51589  27.048  36.321   1.539
83196W        W51590  33.982  34.575   3.279
83197W        W51591  17.507  16.265   1.770
83198W        W51592  23.121  27.070   4.538
83199W        W51593  28.995   9.706   3.567
83200W        W51594   6.632  25.550  11.587
83201W        W51595   2.443   1.766   2.789
83202W        W51596  23.785  29.149   4.681
83203W        W51597   5.809  23.227  10.579
83204W        W51598  44.828  15.988   2.203
83205W        W51599  20.797  20.108  13.473
83206W        W51600   3.362  29.596  14.896
83207W        W51601   3.983  23.726   1.390
83208W        W51602   9.707  11.172   3.038
83209W        W51603  43.373  39.982   2.207
83210W        W51604  24.848  41.270   4.125
83211W        W51605  36.345  19.117   1.626
83212W        W51606  44.392  30.794   9.995
83213W        W51607  12.590  31.337   0.886
83214W        W51608  20.740   3.394  11.496
83215W        W51609   5.890  32.405   2.244
83216W        W51610  12.246  11.267   0.862
83217W        W51611  23.272  27.035   0.034
83218W        W51612  42.514  17.737   0.740
83219W        W51613  33.928  30.461   2.883
83220W        W51614  32.549  33.144   3.252
83221W        W51615  11.280  42.494   1.651
83222W        W51616  23.594   5.395   3.292
83223W        W51617   0.757  10.791   1.267
83224W        W51618  40.588  37.047   0.255
83225W        W51619  36.435  20.740  10.521
83226W        W51620   7.336   6.710   1.931
83227W        W51621   3.143  35.628   1.755
83228W        W51622  24.710  12.646  14.831
83229W        W51623   1.054   8.611   0.903
83230W        W51624  27.694  20.601  13.580
83231W        W51625  44.912  43.548   2.022
83232W        W51626  14.651  29.062   3.704
83233W        W51627  24.101   1.318  13.500
83234W        W51628  36.246  24.648  10.851
83235W        W51629  24.295  18.625   4.067
83236W        W51630  25.002  43.219  10.360
83237W        W51631   0.486  25.721   2.805
83238W        W51632   6.968  33.073   1.471
83239W        W51633   3.762  43.863   2.088
83240W        W51634  10.381   4.698  12.398
83241W        W51635  36.686  25.118  10.384
83242W        W51636  26.661  26.086   0.041
83243W        W51637  20.794  26.971   2.407
83244W        W51638  44.348   3.224   0.460
83245W        W51639   4.716   9.888  14.263
83246W        W51640   3.096  22.790   3.331
83247W        W51641  15.830   1.361  11.830
83248W        W51642   4.714   2.964   4.168
83249W        W51643   3.313   4.488  11.203
83250W        W51644   5.296  40.343  14.410
83251W        W51645  39.840   0.361  11.976
83252W        W51646  30.076  36.391   1.684
83253W        W51647  20.821   7.640  12.617
83254W        W51648   6.970   9.721  12.063
83255W        W51649  27.132  31.937   3.196
83256W        W51650  33.813   7.368  11.958
83257W        W51651  23.610  42.364  14.837
83258W        W51652  41.679   4.431  12.715
83259W        W51653  29.904  31.486  12.138
83260W        W51654  12.358  13.681   0.989
83261W        W51655   2.546  44.326  13.969
83262W        W51656   2.290  30.152   3.417
83263W        W51657   1.241  18.788   3.690
83264W        W51658  17.632  19.510   2.750
83265W        W51659  23.890  28.052  10.745
83266W        W51660  18.667  37.261   1.253
83267W        W51661   9.160  44.526   1.199
83268W        W51662  30.946  16.148  12.998
83269W        W51663   6.463  28.602   2.335
83270W        W51664  20.024  24.514   1.442
83271W        W51665  44.359  35.119   1.872
83272W        W51666  40.805  29.124   2.869
83273W        W51667  27.708  40.096   3.295
83274W        W51668   4.736   1.244  13.814
83275W        W51669  20.512  26.948  12.671
83276W        W51670  20.240  10.280   1.879
83277W        W51671  12.134   3.882  13.019
83278W        W51672  33.461  32.919  11.727
83279W        W51673  12.300  14.335   0.503
83280W        W51674  30.579  12.513   4.549
83281W        W51675   7.415  20.704  14.933
83282W        W51676  41.399  10.286   4.756
83283W        W51677   4.477  26.547  12.998
83284W        W51678  18.146  15.702   9.722
83285W        W51679  14.606  28.229   4.768
83286W        W51680  23.727  27.240   3.591
83287W        W51681  36.094  38.084   1.321
83288W        W51682  22.436  42.098  12.492
83289W        W51683   7.590  43.370   3.494
83290W        W51684  22.038   3.383   5.179
83291W        W51685  33.340  20.192   1.884
83292W        W51686  32.268  18.593   4.143
83293W        W51687  21.082   5.032  14.932
83294W        W51688   4.194  22.939   3.679
83295W        W51689   0.861  14.814   4.582
83296W        W51690   4.527   7.884  14.110
83297W        W51691  14.891  37.719  11.416
83298W        W51692   1.586  44.791  13.692
83299W        W51693  30.645  11.614   2.671
83300W        W51694   1.491  36.587  11.502
83301W        W51695  34.983  40.819  14.564
83302W        W51696  32.999   4.348  10.780
83303W        W51697  20.230   9.705   4.684
83304W        W51698  28.620  19.132  13.339
83305W        W51699  34.913  30.463  12.965
83306W        W51700  10.316  12.583  13.505
83307W        W51701   0.899  18.809  11.218
83308W        W51702  15.588  25.727  11.100
83309W        W51703  33.689  11.258  13.310
83310W        W51704  30.506   8.442   3.677
83311W        W51705  10.390  34.479   4.292
83312W        W51706  29.152  18.424   4.992
83313W        W51707  19.496   6.585   0.443
83314W        W51708  29.504  26.162  13.268
83315W        W51709  43.384  20.235   0.840
83316W        W51710  23.527  33.503   4.517
83317W        W51711  14.140  11.585  12.945
83318W        W51712  34.502  23.505   4.009
83319W        W51713  36.375  40.925  11.542
83320W        W51714  27.959  40.018   1.045
83321W        W51715  35.927   5.983   0.745
83322W        W51716  26.143  42.029  12.312
83323W        W51717  33.263  32.163   2.373
83324W        W51718  30.419  13.110  13.537
83325W        W51719  23.635  41.949   0.656
83326W        W51720  34.524   0.756   0.033
83327W        W51721  15.093   1.747   2.885
83328W        W51722  44.034  22.078   0.388
83329W        W51723  12.158   1.282   4.608
83330W        W51724  39.389  24.119   2.394
83331W        W51725   2.681  38.265   2.292
83332W        W51726  29.548  29.944  11.252
83333W        W51727  35.902  19.458   4.679
83334W        W51728  26.007  42.327  11.022
83335W        W51729  40.965  39.264  13.252
83336W        W51730  15.805  34.124  12.404
83337W        W51731  17.138  36.850   4.497
83338W        W51732  21.702  17.699  13.565
83339W        W51733   4.684  42.851  11.581
83340W        W51734  30.676  44.009   1.365
83341W        W51735  37.891   3.473  11.129
83342W        W51736   1.279  13.934   4.607
83343W        W51737  39.906  39.801   3.257
83344W        W51738   9.330  20.323   0.941
83345W        W51739   3.389   9.204  11.601
83346W        W51740  27.628   1.080  11.690
83347W        W51741  17.050   3.854  11.948
83348W        W51742   9.276   9.202   3.464
83349W        W51743  21.287  24.530  10.670
83350W        W51744  17.270  44.277   4.650
83351W        W51745   5.379   0.816  12.260
83352W        W51746  28.650   2.055   1.713
83353W        W51747  17.235   0.847   0.490
83354W        W51748   2.664  30.719  13.049
83355W        W51749  41.826  31.002   2.346
83356W        W51750  15.320  14.611  11.439
83357W        W51751   0.400   3.596   5.078
83358W        W51752  43.537   3.386  11.358
83359W        W51753   1.119  43.959   0.879
83360W        W51754   6.972   4.989   5.417
83361W        W51755  33.668  29.100  14.310
83362W        W51756   6.194  13.219   3.728
83363W        W51757   2.318  41.930  13.740
83364W        W51758  32.704  21.918   4.464
83365W        W51759  16.093  30.508  13.393
83366W        W51760  23.479  18.342   3.235
83367W        W51761   5.491  38.178   1.932
83368W        W51762   8.273  32.907   0.388
83369W        W51763  10.152  25.221  10.270
83370W        W51764   8.652   1.428  14.959
83371W        W51765   5.466  16.078   1.861
83372W        W51766   8.686  10.937   2.295
83373W        W51767  37.855  30.172   4.964
83374W        W51768   9.951   5.041  14.862
83375W        W51769  23.091   6.857   1.191
83376W        W51770   1.893  16.534  12.942
83377W        W51771   5.261  41.551  13.077
83378W        W51772   5.611  11.612  10.986
83379W        W51773  21.561   3.948   3.878
83380W        W51774   4.707  30.607  12.122
83381W        W51775  30.012   5.782  11.022
83382W        W51776  42.297  33.358  11.115
83383W        W51777  13.830  23.523  13.391
83384W        W51778  26.131  26.340   4.444
83385W        W51779  16.606  18.159   1.343
83386W        W51780   8.577  31.951   0.458
83387W        W51781  35.310  11.754  14.418
83388W        W51782  43.811  33.876  14.404
83389W        W51783  15.308  24.472  11.075
83390W        W51784  22.734   0.607   5.155
83391W        W51785  23.173  17.685  14.281
83392W        W51786  13.634  44.706  10.700
83393W        W51787  32.919  43.901  13.822
83394W        W51788  18.119  17.711  12.564
83395W        W51789  31.611  23.145   0.785
83396W        W51790  38.607  37.977  10.890
83397W        W51791  16.681  17.462  11.629
83398W        W51792  32.319  42.460  12.430
83399W        W51793  13.581  41.082   1.347
83400W        W51794  18.989  32.587   0.261
83401W        W51795  18.480  36.932  14.370
83402W        W51796  16.687   9.176  11.575
83403W        W51797  26.581  12.875  13.516
83404W        W51798  41.285   1.988  10.637
83405W        W51799   4.907  42.815   4.135
83406W        W51800  44.854  32.015  13.580
83407W        W51801  35.114  17.721   1.156
83408W        W51802  44.008  20.208  12.060
83409W        W51803  28.403   9.639  10.379
83410W        W51804   1.426  27.777   0.405
83411W        W51805  24.581  21.089   0.123
83412W        W51806  28.928   7.904   0.188
83413W        W51807  20.984  31.297   1.449
83414W        W51808   2.743  18.781   3.218
83415W        W51809  19.098  16.250   3.677
83416W        W51810   7.405  10.921   3.463
83417W        W51811  41.882  38.041  11.793
83418W        W51812  36.502   7.741   4.066
83419W        W51813  43.993  36.142   0.660
83420W        W51814  43.346  34.718   3.391
83421W        W51815  10.711  43.961  10.771
83422W        W51816  27.875   6.723   0.295
83423W        W51817   9.963   3.191   4.822
83424W        W51818  41.478   2.023   2.372
83425W        W51819  30.500  36.236   3.678
83426W        W51820  33.016  37.020   1.981
83427W        W51821   7.151  34.536  12.900
83428W        W51822  31.001  27.674   2.329
83429W        W51823  30.249  33.435  14.871
83430W        W51824  41.058   8.872   0.878
83431W        W51825  26.993   0.726  13.839
83432W        W51826  38.063  39.672   3.321
83433W        W51827  33.933  28.841  10.970
83434W        W51828  21.574  42.415   3.123
83435W        W51829  20.202   6.739  14.889
83436W        W51830   2.607   6.373  14.562
83437W        W51831  17.368  17.922   1.305
83438W        W51832  19.022  27.507   3.351
83439W        W51833   6.197  14.893   9.838
83440W        W51834  20.525  42.710  14.811
83441W        W51835   1.751  30.587  10.739
83442W        W51836  28.147   0.458   1.225
83443W        W51837  38.835   7.762   2.136
83444W        W51838  18.504  40.813  14.650
83445W        W51839  12.090  36.594   2.504
83446W        W51840  21.897  32.170   1.446
83447W        W51841  35.728  12.816   1.220
83448W        W51842  31.414  17.114   3.728
83449W        W51843  42.023  42.019  11.674
83450W        W51844  33.384  41.543  12.527
83451W        W51845  16.607  44.445  13.726
83452W        W51846  27.392  43.425  11.170
83453W        W51847   7.450  25.606   3.325
83454W        W51848  26.731  18.729  13.103
83455W        W51849  34.138  32.312   2.557
83456W        W51850  32.170  33.385  14.517
83457W        W51851  13.142  43.521   1.497
83458W        W51852  41.962  15.070  13.742
83459W        W51853  16.489  22.810  11.873
83460W        W51854  39.997   2.757  13.980
83461W        W51855  37.042  21.171  12.973
83462W        W51856  40.184   2.399   4.687
83463W        W51857  44.256  31.912  14.059
83464W        W51858   4.403  21.234  10.913
83465W        W51859   6.947   6.995   1.725
83466W        W51860  22.021  27.776   0.787
83467W        W51861  26.296  27.077  11.013
83468W        W51862  44.846  38.416  13.448
83469W        W51863  44.163  16.993   4.990
83470W        W51864   0.920  35.521   4.210
83471W        W51865  27.183  11.785  11.463
83472W        W51866  39.881  23.723  13.320
83473W        W51867   5.895  41.895  13.842
83474W        W51868   3.947  23.746   3.220
83475W        W51869  43.824  26.032  12.940
83476W        W51870   4.095  26.137  12.769
83477W        W51871  43.575   3.331  14.005
83478W        W51872  31.662   7.791   0.992
83479W        W51873   0.884  37.254  13.850
83480W        W51874  38.339  32.142  11.577
83481W        W51875  12.870  17.432  14.919
83482W        W51876  12.717   5.687  14.601
83483W        W51877  37.320  21.204   1.316
83484W        W51878  17.022  35.707  14.342
83485W        W51879  18.203  33.901   1.841
83486W        W51880  41.707   0.875   2.797
83487W        W51881   2.411  24.783  11.629
83488W        W51882  32.983  27.020   3.787
83489W        W51883  35.036  17.189   1.611
83490W        W51884  29.080  19.592  11.159
83491W        W51885  11.293   3.763   3.338
83492W        W51886   8.764   8.234   4.839
83493W        W51887  26.545  42.052   3.283
83494W        W51888  43.295   9.120   2.034
83495W        W51889   2.932   7.941  14.460
83496W        W51890  20.145  22.522   0.324
83497W        W51891  14.271  29.189  11.278
83498W        W51892  36.889   6.903  10.423
83499W        W51893  12.776  17.168  13.318
83500W        W51894  16.158  31.133  14.525
83501W        W51895  37.055  36.932  11.318
83502W        W51896  18.049  42.768   2.876
83503W        W51897  44.250  22.682  12.822
83504W        W51898   8.457  24.193  13.875
83505W        W51899  33.358  36.274   0.732
83506W        W51900  43.292  34.375   0.874
83507W        W51901  19.582   5.794   2.831
83508W        W51902  38.250  37.671   0.071
83509W        W51903  44.922  36.554   2.513
83510W        W51904  22.110  44.917   3.687
83511W        W51905  39.888  25.244  11.134
83512W        W51906  26.088  39.026   1.657
83513W        W51907   5.095  23.482   5.054
83514W        W51908  13.421  24.933  13.044
83515W        W51909  20.716  29.417  11.192
83516W        W51910  40.784  25.113  13.852
83517W        W51911   6.292   1.017  13.098
83518W        W51912  26.683  36.188   0.305
83519W        W51913  42.026  28.911   2.196
83520W        W51914  24.029  36.332   0.192
83521W        W51915  25.253   5.160  13.078
83522W        W51916  41.873  37.870   3.441
83523W        W51917  10.587  12.608   0.288
83524W        W51918  37.020  36.207   2.336
83525W        W51919   0.671   2.489   1.397
83526W        W51920  42.018  38.383  13.412
83527W        W51921   6.977  31.581   0.732
83528W        W51922  15.814  13.371  13.733
83529W        W51923  19.600  30.518  10.654
83530W        W51924   3.758  31.993   4.763
83531W        W51925  12.771   4.937   2.794
83532W        W51926  12.553  14.792   1.378
83533W        W51927  11.782  14.566  14.391
83534W        W51928  13.494  39.044   3.458
83535W        W51929  23.204  16.672   1.220
83536W        W51930  42.581   6.230   3.236
83537W        W51931   8.308  38.442   3.605
83538W        W51932   3.271   7.840  11.199
83539W        W51933  32.498  34.113  12.478
83540W        W51934  29.617  44.437  10.088
83541W        W51935  26.726  29.853   2.750
83542W        W51936   9.395   9.660  12.053
83543W        W51937  38.351  12.271  12.595
83544W        W51938  11.101  25.151  11.758
83545W        W51939  27.048   6.401  14.764
83546W        W51940  41.353  34.355   1.217
83547W        W51941   3.232  25.386  12.852
83548W        W51942  21.505  20.029  10.703
83549W        W51943  27.426   0.474  12.512
83550W        W51944   7.778  26.640   0.852
83551W        W51945   4.015  26.764   0.673
83552W        W51946  11.201   2.737   2.557
83553W        W51947  26.922  28.693   3.998
83554W        W51948  32.637  13.831  11.639
83555W        W51949  38.570  13.040  13.860
83556W        W51950  41.004  14.499   5.195
83557W        W51951   4.469   0.507   2.623
83558W        W51952   8.537   4.998  14.569
83559W        W51953  16.058  17.834  14.367
83560W        W51954  31.015  13.826  11.612
83561W        W51955  36.356  39.556   4.592
83562W        W51956  19.079  24.533   0.345
83563W        W51957  31.889  14.646   2.114
83564W        W51958  14.699   8.354  12.886
83565W        W51959  42.957  39.788  11.494
83566W        W51960  28.436  10.897   3.196
83567W        W51961  13.716   4.907   3.142
83568W        W51962  25.721  37.295  10.631
83569W        W51963  19.633  30.341   4.784
83570W        W51964  25.954  39.176   2.690
83571W        W51965  36.810   8.337  10.625
83572W        W51966  19.613  14.001  13.496
83573W        W51967  15.464  20.256   1.020
83574W        W51968  36.467  24.050   1.989
83575W        W51969  21.284  29.053  13.045
83576W        W51970  17.096  15.985   4.605
83577W        W51971  18.870  21.411  11.559
83578W        W51972  35.854  18.320  11.850
83579W        W51973  39.308  44.995  13.931
83580W        W51974  39.932  25.547  14.901
83581W        W51975   1.460  41.439  13.734
83582W        W51976  22.247  35.797   0.492
83583W        W51977   6.838  15.259  12.959
83584W        W51978  25.798  41.612  14.059
83585W        W51979  14.325  14.715   3.769
83586W        W51980   1.032  29.543   2.187
83587W        W51981   3.350  43.880  10.583
83588W        W51982  15.485  13.228  13.362
83589W        W51983   1.802  36.231  11.244
83590W        W51984   2.611  41.124   2.777
83591W        W51985  10.815  29.202   1.782
83592W        W51986  44.496  41.357   0.318
83593W        W51987  37.503  27.055   2.735
83594W        W51988  16.673  37.141  11.999
83595W        W51989  12.303  27.530   2.614
83596W        W51990  26.424  40.635   0.491
83597W        W51991  39.923  35.658  11.179
83598W        W51992  42.404  20.729  12.941
83599W        W51993  36.180  41.286   0.790
83600W        W51994   7.050   9.228   0.453
83601W        W51995  33.832  10.563  14.366
83602W        W51996  12.607   2.725  14.420
83603W        W51997  25.026  29.461  12.620
83604W        W51998  23.766   3.020   4.097
83605W        W51999  32.894  15.254   1.663
83606W        W52000  26.970   8.372   0.428
83607W        W52001  38.253   8.920  10.423
83608W        W52002  10.260  20.711   0.778
83609W        W52003  29.353  19.364  10.547
83610W        W52004  13.359  24.510   1.676
83611W        W52005  31.172  14.402   0.820
83612W        W52006   3.023  20.134  14.704
83613W        W52007  27.726  34.510  12.061
83614W        W52008  32.669  28.119   0.379
83615W        W52009  44.244  13.860   1.959
83616W        W52010  17.846  34.491   2.432
83617W        W52011   8.798  16.595   0.797
83618W        W52012  26.248  39.927  14.325
83619W        W52013  26.759  39.327  11.505
83620W        W52014  27.055  41.015   4.720
83621W        W52015  32.625  28.701   2.630
83622W        W52016  36.899   1.872  10.675
83623W        W52017  37.088  29.334   2.235
83624W        W52018   6.915   8.728   0.362
83625W        W52019  18.343  19.370   3.754
83626W        W52020  32.381  34.688  11.757
83627W        W52021  20.244  18.556  12.007
83628W        W52022  36.108  43.234  12.555
83629W        W52023  24.744  12.173   2.855
83630W        W52024   1.728   1.354  12.053
83631W        W52025  28.257  24.200  13.908
83632W        W52026  12.988   4.899   3.706
83633W        W52027  19.590  25.930   0.505
83634W        W52028  24.172   8.841  13.057
83635W        W52029   9.882  12.080   0.227
83636W        W52030  15.664   7.295  11.363
83637W        W52031  42.041  43.748   4.924
83638W        W52032  43.338  17.817   4.650
83639W        W52033  28.278  14.236   1.710
83640W        W52034  17.088  15.587  13.672
83641W        W52035   6.332  29.559   0.295
83642W        W52036  20.669  18.870   1.615
83643W        W52037  17.989  43.133  10.918
83644W        W52038  20.324  19.581   9.811
83645W        W52039   0.605  25.029  14.857
83646W        W52040  44.840  27.552   1.738
83647W        W52041  38.663  36.863   2.315
83648W        W52042  17.295   5.713   0.398
83649W        W52043  36.799  30.236   1.387
83650W        W52044  20.842   4.757  10.646
83651W        W52045   4.218  20.808  11.109
83652W        W52046  37.914  28.130   4.614
83653W        W52047  37.437  34.378   3.321
83654W        W52048  44.035  15.571   0.044
83655W        W52049   6.291  29.623   4.980
83656W        W52050  16.181   9.458  10.826
83657W        W52051  30.880  26.343  12.030
83658W        W52052  44.689  27.590  11.470
83659W        W52053  17.664   0.210  11.558
83660W        W52054  43.296  43.815   3.078
83661W        W52055  11.667  41.884  11.132
83662W        W52056   6.309  21.171  10.740
83663W        W52057  37.891  15.684  13.435
83664W        W52058   1.364   3.526   2.636
83665W        W52059  32.297  28.196   1.797
83666W        W52060   3.461  41.733  13.009
83667W        W52061  20.297  29.793   4.601
83668W        W52062   2.661   6.616   3.252
83669W        W52063  40.235  29.895  14.040
83670W        W52064  18.781   9.064  12.011
83671W        W52065  13.188   2.822   0.106
83672W        W52066  24.697  24.664   4.584
83673W        W52067  39.432   4.411   3.184
83674W        W52068  10.584   1.029   2.202
83675W        W52069  15.278  35.286   2.280
83676W        W52070   9.072  32.575  12.458
83677W        W52071  35.965  32.147   1.890
83678W        W52072   8.620  27.353   5.730
83679W        W52073   9.875  15.006  12.537
83680W        W52074  26.014  30.152   4.559
83681W        W52075  24.253  24.738   4.329
83682W        W52076   3.747  36.927  13.993
83683W        W52077  41.259   1.992  13.330
83684W        W52078  12.393  27.428   0.948
83685W        W52079  25.160   6.253  14.345
83686W        W52080   3.231  12.554   4.264
83687W        W52081   9.864  42.224   1.805
83688W        W52082  33.025  42.253   1.700
83689W        W52083   0.950  19.215   0.486
83690W        W52084   9.933   0.296  10.628
83691W        W52085  10.341  16.663   9.451
83692W        W52086  10.253  13.583   0.284
83693W        W52087  11.538   2.859  14.399
83694W        W52088  41.477  18.747  14.828
83695W        W52089   3.886  36.530  11.233
83696W        W52090  15.259  42.047   1.715
83697W        W52091  22.059  39.851   3.595
83698W        W52092  17.998   2.468   3.811
83699W        W52093  15.484  34.514  12.608
83700W        W52094  18.945  32.979  12.182
83701W        W52095  29.694   3.044  10.155
83702W        W52096  10.202  39.440   0.087
83703W        W52097  17.958  11.903   0.703
83704W        W52098   5.862  32.153   2.700
83705W        W52099  16.442  22.525   3.988
83706W        W52100  40.078  21.474  10.756
83707W        W52101  23.220  36.989   4.004
83708W        W52102  39.617  29.024  13.947
83709W        W52103  29.002  39.882  13.615
83710W        W52104  41.907  25.966  12.028
83711W        W52105  30.964  31.798   1.227
83712W        W52106  38.135  22.444  11.754
83713W        W52107  32.006   9.214   1.863
83714W        W52108   7.207  31.706   1.222
83715W        W52109  17.700  39.914  11.084
83716W        W52110  10.344  34.905  12.964
83717W        W52111   9.255  24.589   0.958
83718W        W52112   9.167  32.489   4.013
83719W        W52113  21.486   2.950   3.661
83720W        W52114  44.744  41.582   1.196
83721W        W52115  12.608  22.544   3.357
83722W        W52116  20.117  31.915   4.177
83723W        W52117  14.821  28.988   3.195
83724W        W52118  13.238  23.669  14.688
83725W        W52119   6.456  12.339   3.318
83726W        W52120  43.507  21.778  13.349
83727W        W52121   8.627  30.414  13.374
83728W        W52122  10.715   3.557   0.918
83729W        W52123  31.321   4.427  12.514
83730W        W52124   4.431  14.352  13.822
83731W        W52125   4.589  16.156   1.530
83732W        W52126  37.175  13.603   4.197
83733W        W52127  33.074  25.531   4.809
83734W        W52128  28.826  37.323  11.540
83735W        W52129  10.613  27.967   0.741
83736W        W52130   2.789  10.400  13.310
83737W        W52131  17.288  21.065  12.083
83738W        W52132  42.094  22.149  11.076
83739W        W52133  23.594   7.490   1.289
83740W        W52134  15.626  40.850  12.041
83741W        W52135  20.285  26.266   2.675
83742W        W52136  32.129  26.146   2.890
83743W        W52137  44.156   2.025  10.741
83744W        W52138  30.758  16.795  12.389
83745W        W52139  16.900  35.644  11.205
83746W        W52140  25.624  12.267  12.529
83747W        W52141  12.819  19.778  11.597
83748W        W52142  11.325  39.752   2.212
83749W        W52143   5.339  38.635   3.362
83750W        W52144  23.161   5.170  13.342
83751W        W52145   6.460  13.271  13.359
83752W        W52146   2.719   2.362  11.135
83753W        W52147   6.728  27.692  14.739
83754W        W52148  31.629  23.792   1.417
83755W        W52149  43.283   0.985  11.072
83756W        W52150  39.273  20.595   3.705
83757W        W52151   3.685  37.020   0.872
83758W        W52152   2.222  11.186  14.878
83759W        W52153  11.377   2.188   0.057
83760W        W52154  26.710  13.279  13.197
83761W        W52155  20.746  23.295   2.874
83762W        W52156  37.771  38.654   4.442
83763W        W52157   8.214  36.720   1.031
83764W        W52158   0.508  29.427   2.310
83765W        W52159  43.046  44.259  11.566
83766W        W52160  27.856  14.318  11.133
83767W        W52161  32.173  16.355   0.275
83768W        W52162  32.467  12.330  13.504
83769W        W52163   9.698  37.997   2.202
83770W        W52164  36.909  25.734   0.499
83771W        W52165  12.767   3.544  10.841
83772W        W52166  26.668   1.632  10.523
83773W        W52167  31.496   5.191   4.572
83774W        W52168   0.735   6.626   4.632
83775W        W52169  15.622  40.904   2.318
83776W        W52170  17.354  28.214  13.238
83777W        W52171  18.133   0.361  11.414
83778W        W52172  41.850  34.520   4.596
83779W        W52173  41.600  11.890  12.152
83780W        W52174  16.227  39.592  13.938
83781W        W52175  30.239   0.266   4.563
83782W        W52176  42.120  39.475  14.839
83783W        W52177  36.753  14.816   0.815
83784W        W52178   2.291  24.552   3.597
83785W        W52179  41.509  21.527   0.323
83786W        W52180  44.739  40.912  12.824
83787W        W52181  38.805  40.820   4.500
83788W        W52182  31.546  40.123  11.041
83789W        W52183  38.260  11.747  10.417
83790W        W52184  38.900  34.070   0.941
83791W        W52185   7.956  25.477   3.256
83792W        W52186  10.807  43.865   2.203
83793W        W52187   7.109  17.500  13.942
83794W        W52188  22.081  27.888  11.896
83795W        W52189  10.064  13.259  14.729
83796W        W52190  23.705  11.472   3.128
83797W        W52191  22.672  17.219  12.111
83798W        W52192  24.069  42.816   4.095
83799W        W52193  32.003  30.624   1.432
83800W        W52194  23.660  44.521  14.289
83801W        W52195  13.599  18.529   1.091
83802W        W52196  11.718  26.626  13.519
83803W        W52197  42.375  30.184   2.796
83804W        W52198   7.114  28.085  10.859
83805W        W52199  11.105  35.897  11.125
83806W        W52200   4.652  33.365  11.115
83807W        W52201  16.860  28.695  10.310
83808W        W52202  12.169  18.496  10.706
83809W        W52203  43.265   6.639  11.106
83810W        W52204  37.092  34.421  12.139
83811W        W52205  32.384  41.792   4.762
83812W        W52206  24.482   5.603  14.482
83813W        W52207  13.579  39.837   4.714
83814W        W52208  32.302  21.960  13.420
83815W        W52209  10.876  22.107  14.812
83816W        W52210  25.396  16.651   2.211
83817W        W52211  20.822  23.671  12.457
83818W        W52212  27.539   6.212  10.892
83819W        W52213  40.027  13.138  11.482
83820W        W52214  30.684  25.658   2.926
83821W        W52215  17.234  22.592   3.867
83822W        W52216   2.365   9.306   2.779
83823W        W52217   2.432  32.097  12.335
83824W        W52218  21.290  15.318   1.271
83825W        W52219  27.985  40.695   3.694
83826W        W52220  30.128  24.282   1.367
83827W        W52221  41.371   4.660   0.235
83828W        W52222  27.003   6.436   3.653
83829W        W52223  40.596  22.645   4.700
83830W        W52224  14.637   3.030  10.187
83831W        W52225  15.100  33.876  10.763
83832W        W52226   1.012  31.599   0.346
83833W        W52227  16.174  14.357   2.657
83834W        W52228  21.300  20.785   4.801
83835W        W52229  17.231  32.517  12.576
83836W        W52230  40.998  38.212   3.087
83837W        W52231  24.288  26.679   1.708
83838W        W52232  42.248  35.874   2.068
83839W        W52233   4.800  28.019  11.168
83840W        W52234  33.647  21.472  11.210
83841W        W52235   6.951  13.604   5.798
83842W        W52236   9.605  19.098  12.004
83843W        W52237  22.836  24.550   2.789
83844W        W52238  33.621  43.024   3.432
83845W        W52239  25.486   1.384   1.477
83846W        W52240  17.164  37.952  11.195
83847W        W52241  29.167  34.361   3.254
83848W        W52242   7.202   5.208   1.072
83849W        W52243  27.172  35.506  14.503
83850W        W52244  34.485  26.378   0.322
83851W        W52245   2.348   0.835  13.455
83852W        W52246  16.602  36.053  11.386
83853W        W52247  14.558  21.583   4.122
83854W        W52248  37.057  12.016   3.838
83855W        W52249  12.215  19.071  12.086
83856W        W52250  43.045  14.141   4.221
83857W        W52251  31.601  27.185   0.622
83858W        W52252  23.284  21.035   2.702
83859W        W52253  21.041  34.977  14.012
83860W        W52254  43.477  33.365  13.943
83861W        W52255  11.920   1.909  12.078
83862W        W52256  23.086  41.103  12.490
83863W        W52257  18.030  30.640   3.062
83864W        W52258  24.095  26.906   4.458
83865W        W52259  12.697   7.221  10.739
83866W        W52260  27.284  23.686  13.140
83867W        W52261  18.142  21.068   0.462
83868W        W52262   9.703   9.133  13.342
83869W        W52263  43.967  18.582   0.693
83870W        W52264  12.305  31.657  14.376
83871W        W52265  18.229  23.281  10.694
83872W        W52266   4.672   4.442  13.973
83873W        W52267   2.727   6.115   3.108
83874W        W52268  38.464  17.214  11.544
83875W        W52269  30.577   2.634  14.366
83876W        W52270  20.290  37.861  11.949
83877W        W52271  11.808  20.039  14.538
83878W        W52272  18.594   6.876   3.739
83879W        W52273  24.015   9.623   4.193
83880W        W52274  27.496  43.450   1.375
83881W        W52275   6.825  20.575  10.989
83882W        W52276  23.654  33.525   3.159
83883W        W52277  11.432  28.107  13.481
83884W        W52278  12.901  16.714  14.770
83885W        W52279  26.745  27.052  12.184
83886W        W52280  12.100  26.070  12.156
83887W        W52281   8.576  41.486  11.117
83888W        W52282  24.669  40.613   4.602
83889W        W52283  41.655   5.652  12.578
83890W        W52284  19.183  39.534  10.876
83891W        W52285  32.584   4.461   4.069
83892W        W52286   1.056  29.499   1.246
83893W        W52287  10.853   9.843  12.915
83894W        W52288  36.256   5.206   1.713
83895W        W52289  31.013  44.905  13.486
83896W        W52290  12.766  44.810   1.191
83897W        W52291  10.078  30.506   1.456
83898W        W52292  44.639  15.949  12.007
83899W        W52293   8.284  40.956  11.179
83900W        W52294  15.063  37.699   5.435
83901W        W52295  23.683   3.752  11.933
83902W        W52296   6.168  26.107  12.534
83903W        W52297  25.108  16.780  13.442
83904W        W52298  27.407   4.898   0.354
83905W        W52299  25.066  23.296  14.326
83906W        W52300   0.340  11.881   4.700
83907W        W52301  22.739   6.920  12.095
83908W        W52302  36.854   9.360   3.331
83909W        W52303   2.693  11.370  12.642
83910W        W52304  24.500  41.818  12.706
83911W        W52305  37.096  27.057  14.548
83912W        W52306   1.236  30.901   3.704
83913W        W52307  36.818  24.560  12.075
83914W        W52308  10.651  15.484   0.474
83915W        W52309  33.283  28.261   5.078
83916W        W52310  20.604  14.775  12.924
83917W        W52311   9.300   2.278  11.031
83918W        W52312  15.299  30.470   2.032
83919W        W52313  11.633  34.625  11.611
83920W        W52314  11.484  41.603  12.193
83921W        W52315  18.286  23.604   0.909
83922W        W52316  16.599  44.007  10.630
83923W        W52317  23.298  31.517  14.290
83924W        W52318  35.989  10.322   5.098
83925W        W52319  24.974   8.279   4.858
83926W        W52320  25.087  25.540   0.302
83927W        W52321  16.892  34.472   4.880
83928W        W52322  29.438  32.073   4.175
83929W        W52323  32.578  42.186  13.823
83930W        W52324  13.224  36.363   1.327
83931W        W52325  37.978  16.746   2.179
83932W        W52326  32.493   9.896   4.468
83933W        W52327  35.456  12.075  10.561
83934W        W52328  35.658  14.832  11.969
83935W        W52329  33.676  36.868  11.473
83936W        W52330  21.988  19.120   1.749
83937W        W52331  42.098  11.067   2.928
83938W        W52332  29.315  18.655   1.841
83939W        W52333  14.617   2.523   0.678
83940W        W52334  15.423  37.579   3.708
83941W        W52335   0.837  41.800  14.763
83942W        W52336  41.957  21.191   4.538
83943W        W52337  19.563  10.153  14.865
83944W        W52338  43.965  36.515  11.655
83945W        W52339  29.449  12.326   1.620
83946W        W52340  33.910  39.090   3.251
83947W        W52341  27.005  10.501   1.203
83948W        W52342  30.388  31.381   1.387
83949W        W52343   0.653  35.864   1.358
83950W        W52344  34.418  30.650  10.964
83951W        W52345  27.644  18.082  13.916
83952W        W52346  38.223  44.322  12.554
83953W        W52347  14.176  33.634  10.731
83954W        W52348  37.151  38.337   1.445
83955W        W52349  11.668  42.839   0.662
83956W        W52350  34.036  31.088  11.898
83957W        W52351  10.599  21.255   4.559
83958W        W52352  33.131  28.036   0.136
83959W        W52353   1.249  11.835  14.241
83960W        W52354  37.173   0.939   2.357
83961W        W52355  17.941   7.098   2.643
83962W        W52356   9.731  42.307  11.212
83963W        W52357  14.035  24.043   4.963
83964W        W52358  16.540  12.784   0.244
83965W        W52359  12.803  40.926   0.468
83966W        W52360   2.536  19.817  13.358
83967W        W52361  28.871   9.710   0.680
83968W        W52362  17.555  12.612  13.301
83969W        W52363  15.114  38.561   1.378
83970W        W52364  35.389  33.372   1.743
83971W        W52365  30.467  15.656  11.501
83972W        W52366   0.864  29.718   0.789
83973W        W52367   7.752  10.770   3.139
83974W        W52368  30.881   8.090  11.206
83975W        W52369  22.267  11.848  13.418
83976W        W52370  15.636  31.059   0.349
83977W        W52371  30.969  26.794  12.223
83978W        W52372  17.656  30.722  11.493
83979W        W52373   5.351  19.761   3.195
83980W        W52374  17.570  22.619   0.471
83981W        W52375  41.492  21.189   4.335
83982W        W52376  31.578  36.863  12.875
83983W        W52377  24.012  41.174  13.476
83984W        W52378  24.858   1.373  12.890
83985W        W52379  38.990   3.203   0.956
83986W        W52380   8.156   6.643   3.383
83987W        W52381  28.147  35.907  10.436
83988W        W52382  36.020  40.865   4.849
83989W        W52383  26.545  35.095   3.059
83990W        W52384  26.988  38.850  13.951
83991W        W52385  33.910   9.201  11.619
83992W        W52386  13.385  37.388  10.719
83993W        W52387  31.179  32.649  10.771
83994W        W52388   4.465  11.570  11.988
83995W        W52389  11.209  18.256  13.017
83996W        W52390  18.346   0.658   2.594
83997W        W52391  39.204  29.429   0.933
83998W        W52392  23.874  32.488   1.279
83999W        W52393  28.691  13.574   1.315
84000W        W52394  14.576  17.671   0.912
84001W        W52395  24.188  22.456  12.009
84002W        W52396   5.696  27.453   3.290
84003W        W52397  29.724   2.398   1.932
84004W        W52398  28.569  22.479   1.265
84005W        W52399  41.980  18.736   4.897
84006W        W52400  36.356  24.948  11.701
84007W        W52401  43.313  26.219   0.645
84008W        W52402  43.460  38.187   0.374
84009W        W52403   5.387  10.787  12.050
84010W        W52404  32.717  42.806  10.163
84011W        W52405  13.805  22.271   3.403
84012W        W52406   6.671  23.632   1.291
84013W        W52407  21.468  31.778  13.502
84014W        W52408  35.477   7.315  14.042
84015W        W52409  31.955   9.922   3.567
84016W        W52410   1.507  36.919   0.327
84017W        W52411  32.601  21.928  14.773
84018W        W52412  35.607  23.118  12.488
84019W        W52413  23.872   1.919  11.382
84020W        W52414  21.144  18.357  11.988
84021W        W52415  29.895  36.002   2.799
84022W        W52416   0.180   4.922  13.552
84023W        W52417  31.612   2.729  12.479
84024W        W52418  39.906  11.950  10.603
84025W        W52419  33.573  13.933   0.876
84026W        W52420  18.809   4.897  12.419
84027W        W52421   2.476  21.415   1.356
84028W        W52422  20.887  26.130  12.520
84029W        W52423   4.362   8.260  11.887
84030W        W52424   3.760  12.627   0.132
84031W        W52425  44.966  28.005  12.337
84032W        W52426  37.650  19.708   1.156
84033W        W52427  24.507  27.833   3.559
84034W        W52428  39.813  23.004  14.421
84035W        W52429  30.824  34.572  11.642
84036W        W52430   2.847  30.444   1.855
84037W        W52431  20.024  30.032   5.618
84038W        W52432  25.431  15.650  13.879
84039W        W52433  38.807  29.739   4.304
84040W        W52434  32.906  37.891   4.761
84041W        W52435  19.457   8.455  11.698
84042W        W52436  33.535  30.010   4.714
84043W        W52437   3.319  21.714  11.471
84044W        W52438  29.883   1.910   0.832
84045W        W52439  34.479  32.109  14.105
84046W        W52440  36.888  25.735  14.027
84047W        W52441   9.056  25.462  12.146
84048W        W52442   4.242  40.578  12.957
84049W        W52443  18.557  26.676   2.250
84050W        W52444  25.924  26.948  10.604
84051W        W52445   1.326  32.610   3.204
84052W        W52446  19.940  11.810   4.907
84053W        W52447  37.562  10.489   3.866
84054W        W52448   9.333   0.372   2.385
84055W        W52449  30.073  43.356  14.458
84056W        W52450  27.720  11.096   3.565
84057W        W52451  40.333  17.788  14.766
84058W        W52452  37.078  21.329  12.070
84059W        W52453  29.125   2.730   4.082
84060W        W52454   2.105   8.694   1.062
84061W        W52455  15.823   2.374  12.913
84062W        W52456  43.726  14.650  14.862
84063W        W52457  10.108  15.282   4.822
84064W        W52458  26.272  21.805   4.087
84065W        W52459   2.770  14.359  13.437
84066W        W52460  25.636  36.207   4.531
84067W        W52461   6.691   0.607   0.968
84068W        W52462  10.479  44.824   2.701
84069W        W52463  17.847   0.505   2.625
84070W        W52464   7.260  24.758  13.426
84071W        W52465   6.874  13.841   1.872
84072W        W52466  14.952  25.742   3.593
84073W        W52467  18.787   4.287   2.270
84074W        W52468  24.722  29.626   1.312
84075W        W52469  42.448   2.305  11.094
84076W        W52470  23.055  35.164  11.561
84077W        W52471  18.734   0.458   4.165
84078W        W52472  34.441  33.532   0.772
84079W        W52473  41.310  18.241   0.695
84080W        W52474  25.113   6.117  13.844
84081W        W52475  22.049   9.235   0.794
84082W        W52476  35.853  44.760   1.028
84083W        W52477   8.129  19.931  10.549
84084W        W52478  20.303  27.741   2.594
84085W        W52479  39.553  13.844   1.283
84086W        W52480   1.737  26.048  14.824
84087W        W52481  32.915  35.881   2.781
84088W        W52482  38.426  32.142   1.902
84089W        W52483  38.950  13.579  12.018
84090W        W52484  21.845  40.780  14.726
84091W        W52485  37.364  10.369  14.795
84092W        W52486   0.759   1.142   3.901
84093W        W52487  28.439  32.335  13.466
84094W        W52488   3.412  31.934   0.348
84095W        W52489   0.818  36.074   2.294
84096W        W52490   4.650  26.307  11.661
84097W        W52491  31.357  33.334   3.270
84098W        W52492  36.909  44.137  12.335
84099W        W52493  16.806  24.107  11.562
84100W        W52494  19.411  26.514  14.405
84101W        W52495  34.600  25.305   3.273
84102W        W52496  17.867   2.959  10.999
84103W        W52497   8.203   4.432  12.987
84104W        W52498  19.130  14.591   0.727
84105W        W52499  39.479   2.449   1.921
84106W        W52500  33.672  42.299  11.130
84107W        W52501  14.598  23.361   1.878
84108W        W52502  40.487   3.237  11.629
84109W        W52503  28.536  22.444  13.138
84110W        W52504  39.764   6.732  12.000
84111W        W52505  37.680  14.691  10.146
84112W        W52506  10.931  21.860   4.295
84113W        W52507   4.834  30.599  14.021
84114W        W52508  28.356  35.471  11.084
84115W        W52509   9.325   8.082   4.121
84116W        W52510  32.426  27.638   0.577
84117W        W52511  35.072  13.085   4.671
84118W        W52512  24.587  33.485  14.953
84119W        W52513  13.673  31.326  12.059
84120W        W52514   0.399  17.534   4.194
84121W        W52515  44.918  25.983  10.637
84122W        W52516  14.071  25.152  14.364
84123W        W52517  25.279   5.723   2.762
84124W        W52518  41.109  43.212  14.062
84125W        W52519  42.508  16.671  13.450
84126W        W52520   1.992  30.075  11.426
84127W        W52521  18.358  37.909   0.244
84128W        W52522   3.922   2.530  12.887
84129W        W52523  21.227  27.869   1.296
84130W        W52524  39.603  35.704   3.283
84131W        W52525  26.700  39.998   1.301
84132W        W52526  24.111  33.432  14.784
84133W        W52527  39.766  41.012  11.434
84134W        W52528  21.355  24.679   2.723
84135W        W52529   4.346  40.413  11.968
84136W        W52530  18.734  29.989   1.685
84137W        W52531  43.497  26.551   0.252
84138W        W52532   4.232  17.519  12.964
84139W        W52533  34.653  21.324  14.914
84140W        W52534  44.732  39.399   3.253
84141W        W52535  31.383  37.500  13.288
84142W        W52536  19.250  12.624   4.104
84143W        W52537  11.059  19.008  12.888
84144W        W52538  20.980   0.806  13.274
84145W        W52539   1.335  14.143  12.350
84146W        W52540  16.357   4.000   3.340
84147W        W52541   4.966  26.905   9.766
84148W        W52542   2.764  43.078   1.229
84149W        W52543  24.971  21.279   4.541
84150W        W52544  11.966  28.416   2.738
84151W        W52545  21.312  27.026  12.927
84152W        W52546  25.942   2.283   1.785
84153W        W52547  13.853   7.408  11.694
84154W        W52548  33.482  31.147  10.717
84155W        W52549  28.143  38.285   3.911
84156W        W52550  14.264  35.503   4.793
84157W        W52551  11.381  11.025  14.782
84158W        W52552  11.464  37.343   2.355
84159W        W52553   5.917  34.116  13.879
84160W        W52554  37.454  17.491  11.902
84161W        W52555  26.261  13.969   4.059
84162W        W52556  25.832  24.435  11.593
84163W        W52557  23.414  32.179  12.963
84164W        W52558  27.427   7.369   3.826
84165W        W52559  42.863  24.240   4.832
84166W        W52560  19.039   7.152   3.675
84167W        W52561  26.057  31.447   0.517
84168W        W52562  36.549   2.921  10.496
84169W        W52563  36.152   6.814  14.624
84170W        W52564   8.827   5.990   1.321
84171W        W52565   3.327  12.205  12.558
84172W        W52566   1.747  34.427   2.407
84173W        W52567  37.410  22.158   2.813
84174W        W52568  17.158  19.833   0.277
84175W        W52569  18.721  35.921  10.389
84176W        W52570  36.365   5.532  10.622
84177W        W52571  19.941  10.110   3.334
84178W        W52572  13.306   4.401  13.689
84179W        W52573  31.636   3.320  13.203
84180W        W52574  42.136   4.452  14.163
84181W        W52575  27.531  43.897   1.139
84182W        W52576  42.845   1.915   3.514
84183W        W52577  32.975  43.234  13.009
84184W        W52578  33.082  12.156   3.440
84185W        W52579  38.056  24.731  13.932
84186W        W52580  25.647  42.050   3.227
84187W        W52581  14.052  26.969   0.447
84188W        W52582  27.661  21.201  11.940
84189W        W52583  36.764   1.212   3.748
84190W        W52584  31.132   4.712  11.642
84191W        W52585  32.470   2.926   4.855
84192W        W52586  42.961  43.993   0.825
84193W        W52587   3.693   3.299   1.844
84194W        W52588  28.561  17.295  12.668
84195W        W52589   3.312  36.467   0.396
84196W        W52590  29.658  36.128  11.890
84197W        W52591  28.740  19.143  11.516
84198W        W52592   8.387  23.169  14.263
84199W        W52593  26.139  31.965   0.506
84200W        W52594  18.651  28.702  11.185
84201W        W52595   2.624  27.591  12.883
84202W        W52596  16.220  16.672  10.001
84203W        W52597  44.760  34.814   1.384
84204W        W52598   5.504  25.636   0.387
84205W        W52599  27.424  13.821  13.367
84206W        W52600  37.813  39.891  14.741
84207W        W52601  11.142  14.602  12.321
84208W        W52602  10.568  25.959  12.825
84209W        W52603  24.342  11.910   4.585
84210W        W52604   5.803  21.509  12.971
84211W        W52605  13.108  20.997  11.671
84212W        W52606  39.317  16.118  14.918
84213W        W52607  22.635  13.120  14.799
84214W        W52608  42.564  32.478  11.084
84215W        W52609  25.660  24.586   4.094
84216W        W52610  28.503  29.592   3.571
84217W        W52611  35.070   9.148   3.855
84218W        W52612  36.907  34.023  14.387
84219W        W52613  12.321   7.431  11.035
84220W        W52614  28.677  14.543   1.229
84221W        W52615  44.575  35.015  12.689
84222W        W52616  22.207  34.409  14.359
84223W        W52617  23.584   3.246   4.530
84224W        W52618  28.585  19.476   0.838
84225W        W52619  35.531   0.892   0.395
84226W        W52620  39.744   7.707  12.669
84227W        W52621  22.060  11.372   5.328
84228W        W52622  30.986  40.368   3.336
84229W        W52623  22.700  23.988  14.364
84230W        W52624  22.089   8.670   3.800
84231W        W52625  24.822   2.387  13.294
84232W        W52626  37.465  12.234   3.078
84233W        W52627  20.837  12.853  12.994
84234W        W52628  12.530  22.723  10.749
84235W        W52629  33.479  28.118   1.334
84236W        W52630  29.134   1.188   0.941
84237W        W52631  19.333   1.002   0.831
84238W        W52632  39.251  30.019  13.903
84239W        W52633  15.278  16.994  11.688
84240W        W52634  17.528  35.889  14.419
84241W        W52635   6.769  29.539   0.540
84242W        W52636   7.721  44.386   0.073
84243W        W52637   3.872  40.389  13.309
84244W        W52638  27.043  43.530  13.970
84245W        W52639   7.515  42.454  10.685
84246W        W52640  33.043  33.862  14.959
84247W        W52641  34.371  35.612   1.218
84248W        W52642   1.945  13.698  14.463
84249W        W52643  39.953  18.030  13.096
84250W        W52644  21.289  16.290   4.282
84251W        W52645  29.724  37.671  12.939
84252W        W52646  14.335   0.877   4.575
84253W        W52647  33.425  31.539  12.990
84254W        W52648  25.752  44.116  11.112
84255W        W52649  27.864  41.562  11.195
84256W        W52650  38.047   7.044   0.652
84257W        W52651  15.325  15.656   4.220
84258W        W52652  35.443  24.833  14.841
84259W        W52653  16.232  32.476  11.979
84260W        W52654  22.260   6.808   1.940
84261W        W52655   9.806  10.690  11.287
84262W        W52656  40.364  12.370   1.847
84263W        W52657  33.307   7.879  12.857
84264W        W52658  44.177  27.634   3.523
84265W        W52659   1.464  17.809  10.672
84266W        W52660  25.591  43.297  13.987
84267W        W52661  38.534  32.121  14.973
84268W        W52662  19.031  26.141  13.413
84269W        W52663  39.730  28.538   2.257
84270W        W52664  43.901  23.166   2.142
84271W        W52665  21.823   7.704   4.540
84272W        W52666   1.656  30.581  14.976
84273W        W52667  25.826   5.241   3.159
84274W        W52668  14.357  18.488   1.712
84275W        W52669   1.853   0.317  10.887
84276W        W52670   4.043   8.443  14.024
84277W        W52671  33.129   3.584  13.006
84278W        W52672  19.570  29.159  14.951
84279W        W52673  11.740   2.920  12.622
84280W        W52674  31.632  23.135  10.701
84281W        W52675  30.759  32.373  10.710
84282W        W52676   1.750  39.795  12.582
84283W        W52677  23.111   5.827   2.470
84284W        W52678  32.444  28.911   3.286
84285W        W52679  44.049  29.543  11.075
84286W        W52680  18.733  13.915  13.970
84287W        W52681  23.250   7.850  11.952
84288W        W52682  32.067  21.037   1.664
84289W        W52683  15.800  32.985  11.492
84290W        W52684  42.213  44.859   1.634
84291W        W52685  36.034  42.908  12.960
84292W        W52686   3.681  38.907  11.656
84293W        W52687   1.020  30.951   2.392
84294W        W52688  16.220  36.393   0.043
84295W        W52689  20.024  17.101   1.007
84296W        W52690   6.504  23.518   0.349
84297W        W52691  40.307  20.274  10.850
84298W        W52692  26.948   3.942  11.553
84299W        W52693  10.425  27.853   5.019
84300W        W52694  35.628  43.937  10.618
84301W        W52695  34.293   3.264  12.380
84302W        W52696  23.654   9.572   3.615
84303W        W52697   0.362  38.590  10.626
84304W        W52698  31.460  28.721   2.953
84305W        W52699  42.522  38.930  12.089
84306W        W52700  34.199  23.462   2.216
84307W        W52701  28.296  40.632   9.854
84308W        W52702   7.844  43.406  12.573
84309W        W52703   6.458  11.719   1.224
84310W        W52704  17.544  26.077  10.845
84311W        W52705  26.731   1.875   3.606
84312W        W52706  13.655  32.420   1.521
84313W        W52707  13.380  11.959  11.980
84314W        W52708  29.643  16.853   3.411
84315W        W52709  12.606  26.097  13.795
84316W        W52710   6.494   2.852   0.671
84317W        W52711  27.211  21.016  14.782
84318W        W52712  26.070  35.470   1.006
84319W        W52713  38.093  39.012  12.505
84320W        W52714   9.381   1.013   3.282
84321W        W52715  43.763  43.816   2.801
84322W        W52716   4.285  37.375  12.065
84323W        W52717  25.128  29.687   1.982
84324W        W52718  17.095  29.171   1.038
84325W        W52719  17.650  20.383  13.292
84326W        W52720  40.602  22.174   3.477
84327W        W52721  41.762  22.262  10.714
84328W        W52722  20.972  21.046   2.077
84329W        W52723   8.826  31.423   2.237
84330W        W52724  38.246   3.630   1.915
84331W        W52725  12.805  15.655  11.392
84332W        W52726  21.662  16.486  12.015
84333W        W52727  22.115   7.251   0.748
84334W        W52728  33.905  15.191   1.406
84335W        W52729  17.635  36.967   3.799
84336W        W52730  35.851  22.659  12.446
84337W        W52731  18.320  30.817  14.355
84338W        W52732  40.542  39.009  12.533
84339W        W52733  21.238  44.414   1.869
84340W        W52734  28.746  42.259   1.386
84341W        W52735  16.695  36.986   1.787
84342W        W52736  31.669  39.195  11.055
84343W        W52737   2.417  18.259   2.842
84344W        W52738  11.707  37.184  12.360
84345W        W52739  44.551  40.241   3.720
84346W        W52740  12.425  36.468  13.981
84347W        W52741  10.760  12.095   3.747
84348W        W52742   2.232   8.257  14.456
84349W        W52743   4.086  16.113  14.816
84350W        W52744  28.919  35.940   2.915
84351W        W52745  11.347  15.678   3.090
84352W        W52746   3.889   0.250   1.845
84353W        W52747  42.381  25.337   2.743
84354W        W52748  28.211  42.227   3.729
84355W        W52749  13.355  13.627   2.883
84356W        W52750  13.492  34.677   1.843
84357W        W52751  29.579  44.026  10.987
84358W        W52752  30.356  22.523   5.116
84359W        W52753  12.862  29.442   3.681
84360W        W52754  20.178  10.631   1.491
84361W        W52755   3.945  16.690   0.859
84362W        W52756  17.606  18.244  13.513
84363W        W52757  32.916  41.887  12.924
84364W        W52758  18.104  20.102   2.804
84365W        W52759  26.204  36.522   4.587
84366W        W52760  20.085  35.710   3.132
84367W        W52761  20.116  13.708  12.025
84368W        W52762  12.291  10.423  11.885
84369W        W52763  23.185  32.605   0.476
84370W        W52764  24.061  14.902  13.566
84371W        W52765  10.049  17.130   4.106
84372W        W52766  29.829  19.684  13.441
84373W        W52767  19.884  43.357  13.334
84374W        W52768   1.853  37.882  13.308
84375W        W52769  39.806  14.393  12.898
84376W        W52770   7.178   7.921  10.716
84377W        W52771  38.112  19.165  11.838
84378W        W52772  22.954  41.399  12.091
84379W        W52773   3.188  36.323  14.904
84380W        W52774   0.739  36.927  13.232
84381W        W52775  35.219  22.861  11.631
84382W        W52776  13.215  27.525   4.089
84383W        W52777  39.953  33.075   4.746
84384W        W52778  18.075  13.076  10.834
84385W        W52779   7.749   1.477   2.429
84386W        W52780  43.962  25.252  12.518
84387W        W52781  38.396  36.343  14.014
84388W        W52782  28.366  25.515  14.772
84389W        W52783  11.822  40.941  13.603
84390W        W52784  36.405  28.932  14.311
84391W        W52785  25.827  20.180   1.766
84392W        W52786   2.709  16.641  11.961
84393W        W52787  34.553  22.633   4.050
84394W        W52788  32.911  43.841   3.790
84395W        W52789  44.080  22.739  13.603
84396W        W52790   9.847  40.486   0.925
84397W        W52791  31.833  17.196   0.110
84398W        W52792  36.088  21.085   4.666
84399W        W52793  35.544  25.129   4.158
84400W        W52794  38.389  22.802   1.832
84401W        W52795   4.740  27.502   4.500
84402W        W52796   8.639  30.683   2.668
84403W        W52797  33.385   7.777   3.386
84404W        W52798  35.343   7.876   1.361
84405W        W52799  41.936  15.468  13.341
84406W        W52800   8.200   0.826  10.435
84407W        W52801  36.749  36.937   1.327
84408W        W52802  13.529  26.978   0.403
84409W        W52803  11.359  22.705  13.508
84410W        W52804  12.270  40.421  10.654
84411W        W52805  44.602   9.667  12.295
84412W        W52806  27.628   4.747  11.551
84413W        W52807  28.481  13.918  10.756
84414W        W52808  26.129  36.011  10.807
84415W        W52809  37.632   9.158   0.691
84416W        W52810  16.628  26.830  12.079
84417W        W52811  28.061   9.920   4.700
84418W        W52812   2.017   6.349   4.367
84419W        W52813  44.964  43.068  14.885
84420W        W52814  20.541   8.747   3.529
84421W        W52815   4.014   2.302  13.866
84422W        W52816  26.372  22.239  14.451
84423W        W52817   3.495  22.611  13.447
84424W        W52818   7.379  18.121   1.797
84425W        W52819  41.985  39.340  11.155
84426W        W52820   1.025  42.913  12.551
84427W        W52821  35.609  29.371   1.206
84428W        W52822   6.908   6.840   9.868
84429W        W52823  12.791  10.265  11.878
84430W        W52824  19.116  23.981   1.263
84431W        W52825  24.614  43.344   3.520
84432W        W52826  42.159  37.766  13.559
84433W        W52827  24.970   5.312   4.545
84434W        W52828   4.235   1.730  11.087
84435W        W52829   2.152   6.747   4.043
84436W        W52830  42.634  37.641  13.395
84437W        W52831  32.870   2.779   2.981
84438W        W52832  19.287  10.841  14.418
84439W        W52833  44.306  11.913  10.738
84440W        W52834   0.335   0.962   4.159
84441W        W52835  11.661   7.766   4.392
84442W        W52836  34.315  25.599  11.411
84443W        W52837  14.752  35.743   0.820
84444W        W52838  21.871  35.546   3.704
84445W        W52839  18.119  20.196   5.270
84446W        W52840   6.446  25.473  13.760
84447W        W52841  11.327  23.859   0.358
84448W        W52842   6.012   7.673  10.710
84449W        W52843  36.825   0.434  13.497
84450W        W52844  43.466  11.365  13.567
84451W        W52845  33.373  17.759  14.441
84452W        W52846  23.610  33.432  14.953
84453W        W52847  10.824   3.993   3.360
84454W        W52848  19.576  37.474  13.921
84455W        W52849  40.467   0.245   3.833
84456W        W52850  43.822  44.665   1.890
84457W        W52851  22.224  16.110   3.846
84458W        W52852  38.469  42.175  12.105
84459W        W52853  29.486  40.535   1.509
84460W        W52854   0.194  29.015   2.637
84461W        W52855  32.013  34.977  13.340
84462W        W52856   9.115  33.610  10.769
84463W        W52857   1.241  44.486  13.418
84464W        W52858  14.232   4.475  11.116
84465W        W52859  42.909   9.932   1.791
84466W        W52860  30.940  40.057   3.793
84467W        W52861  39.998  19.752  14.334
84468W        W52862   7.954  27.561   3.114
84469W        W52863  38.697  27.198  14.548
84470W        W52864  15.576  44.892   3.358
84471W        W52865   1.223  31.204  10.896
84472W        W52866  24.158  38.586  13.513
84473W        W52867  25.010  34.152   0.384
84474W        W52868  36.886  31.087  11.411
84475W        W52869   8.226   8.570   1.520
84476W        W52870  29.440  30.453   0.820
84477W        W52871   8.178  22.549  12.366
84478W        W52872  39.454  35.530  10.423
84479W        W52873   9.625  20.175   2.218
84480W        W52874  35.005  38.518   1.867
84481W        W52875  14.092  42.942   3.656
84482W        W52876  20.826  31.928   0.390
84483W        W52877  10.783   2.790   3.674
84484W        W52878  41.087  14.247   1.926
84485W        W52879  34.202  44.325   1.621
84486W        W52880  15.679  42.789   1.349
84487W        W52881  23.006  18.749   0.392
84488W        W52882  28.549   5.957  11.005
84489W        W52883   1.919  44.940   3.822
84490W        W52884  38.498  28.256   0.410
84491W        W52885  12.644  25.761   2.837
84492W        W52886  21.760  29.634   1.722
84493W        W52887  40.791  32.203  12.523
84494W        W52888   6.057  19.045  12.193
84495W        W52889   8.311  24.156  11.100
84496W        W52890  33.130  35.501  11.053
84497W        W52891  22.270  35.280  13.399
84498W        W52892  43.221  16.286  14.736
84499W        W52893  15.179  14.680  13.812
84500W        W52894  16.696  35.485   0.124
84501W        W52895  36.660   6.324  11.043
84502W        W52896  37.792   1.406   2.298
84503W        W52897  29.149  28.364  13.845
84504W        W52898   9.654  28.550   1.522
84505W        W52899  19.712  19.247   0.340
84506W        W52900  29.568  21.554  14.075
84507W        W52901   4.737  39.794   2.899
84508W        W52902  17.708  15.398  12.548
84509W        W52903  42.053  44.253  13.061
84510W        W52904   5.805   9.580   2.693
84511W        W52905   8.357   0.446   1.902
84512W        W52906  15.598  39.235   3.301
84513W        W52907   9.516  43.479   4.717
84514W        W52908  24.252  12.000   9.845
84515W        W52909  39.831  17.232  12.603
84516W        W52910  32.442  29.932   4.139
84517W        W52911  30.526  27.467   2.353
84518W        W52912   0.749   8.665  11.008
84519W        W52913  44.193   4.092  11.667
84520W        W52914  36.362   5.763  14.540
84521W        W52915  34.502  15.730  14.135
84522W        W52916  19.997  15.766   3.667
84523W        W52917  21.703  34.921   3.703
84524W        W52918  17.154  37.626  13.512
84525W        W52919  32.524  14.644  14.905
84526W        W52920  21.069   8.108   4.956
84527W        W52921  43.177   6.591  14.804
84528W        W52922   4.479  24.582   1.414
84529W        W52923  27.976  38.002  11.414
84530W        W52924  17.760   1.900   4.828
84531W        W52925  18.297   1.934   4.909
84532W        W52926  27.181  20.838   1.754
84533W        W52927  24.617  40.577   2.414
84534W        W52928  19.539   0.058   2.048
84535W        W52929  39.482  22.980   0.057
84536W        W52930  43.824  36.858  11.091
84537W        W52931  43.521  36.611  14.048
84538W        W52932   6.946  14.263   4.091
84539W        W52933   2.506   2.217  10.689
84540W        W52934  25.609  16.866  13.437
84541W        W52935   5.072   5.012   4.023
84542W        W52936  32.589  30.963  11.495
84543W        W52937  44.733  32.538   0.730
84544W        W52938  18.826  38.121  12.087
84545W        W52939   8.810  44.493   3.711
84546W        W52940  40.554  32.993   0.345
84547W        W52941  35.754  25.945   5.301
84548W        W52942  44.864  17.708   4.232
84549W        W52943  41.986  25.427  10.762
84550W        W52944  10.765  30.596  10.729
84551W        W52945   9.455  12.559  14.516
84552W        W52946   5.674   7.403  10.997
84553W        W52947  39.441  42.791  11.167
84554W        W52948  14.631   5.264   0.306
84555W        W52949  15.767  31.915  14.325
84556W        W52950  31.618  35.481  13.979
84557W        W52951  33.779  33.052   4.958
84558W        W52952  20.868  35.934  13.580
84559W        W52953  17.691  15.273   4.897
84560W        W52954  40.602   4.712   1.216
84561W        W52955  29.438  31.432  12.395
84562W        W52956  25.917  18.042   4.150
84563W        W52957  12.761  41.781  12.483
84564W        W52958  19.810  38.435   0.438
84565W        W52959  36.423   8.851  14.436
84566W        W52960  33.636   4.637  14.097
84567W        W52961  11.690  37.903  13.027
84568W        W52962  22.539  28.552   1.937
84569W        W52963  26.704  43.901   0.546
84570W        W52964  37.891  34.504  10.683
84571W        W52965  18.529  38.550   3.158
84572W        W52966  28.148  42.977   0.991
84573W        W52967  19.692  44.906   3.356
84574W        W52968  17.158  44.804  11.686
84575W        W52969  36.535  18.513   4.601
84576W        W52970  20.725   0.026   0.452
84577W        W52971  21.680  28.073   4.095
84578W        W52972  34.555  10.300  11.831
84579W        W52973  26.820  37.168   4.651
84580W        W52974  35.119  43.982  14.730
84581W        W52975   1.200  24.968   0.910
84582W        W52976  25.123  43.047  13.074
84583W        W52977   6.323  20.341   0.010
84584W        W52978  17.493  28.510   2.567
84585W        W52979   9.143   5.158   0.401
84586W        W52980  35.435   6.242   3.791
84587W        W52981  21.743   0.692  11.213
84588W        W52982   7.376   9.175   3.138
84589W        W52983  16.055   5.807  13.628
84590W        W52984   7.249  14.543   5.365
84591W        W52985  44.703   5.274  11.951
84592W        W52986  39.445  15.644   9.950
84593W        W52987   5.751   3.979  11.503
84594W        W52988  38.601  43.423  14.597
84595W        W52989  24.666  38.050  12.107
84596W        W52990  35.387   0.524  12.455
84597W        W52991  35.215  31.447   1.485
84598W        W52992   9.896   4.371  11.211
84599W        W52993  31.060  14.578   1.769
84600W        W52994  13.722  36.968  13.082
84601W        W52995  22.962  18.170   4.912
84602W        W52996  41.257  14.431  11.948
84603W        W52997   8.884  16.262   4.489
84604W        W52998   2.810  24.700   2.903
84605W        W52999  34.548  41.754   1.450
84606W        W53000   8.650  44.417   1.194
84607W        W53001   6.424   6.261   2.762
84608W        W53002  43.032  22.140   2.788
84609W        W53003  19.724  17.466  11.823
84610W        W53004  40.783  30.150   1.917
84611W        W53005   9.708  44.782  12.324
84612W        W53006  34.311  36.480   1.634
84613W        W53007  10.741  10.687  11.426
84614W        W53008   9.299   7.385   4.932
84615W        W53009  12.807  31.651   4.717
84616W        W53010  30.521   0.399   0.199
84617W        W53011  39.013   0.079   4.121
84618W        W53012  12.237  39.558  12.617
84619W        W53013   1.584  13.860   5.022
84620W        W53014  27.093  31.072  13.507
84621W        W53015  20.113  34.650   3.999
84622W        W53016   0.924  22.681  10.708
84623W        W53017  43.512  20.253   2.686
84624W        W53018  26.585  10.312   4.171
84625W        W53019  13.956  19.810   3.350
84626W        W53020  44.243  11.481   0.745
84627W        W53021  13.084   5.654   1.975
84628W        W53022   2.982  26.671  11.369
84629W        W53023  41.433  32.584  13.247
84630W        W53024   7.775   5.918   1.880
84631W        W53025  17.818  43.271   2.288
84632W        W53026  41.102  32.960  13.712
84633W        W53027  20.217  13.136   4.682
84634W        W53028  42.865  38.787   2.291
84635W        W53029  29.221  38.402   0.245
84636W        W53030  33.094  11.539   2.502
84637W        W53031  19.179  41.553   4.069
84638W        W53032  43.851  44.913   3.269
84639W        W53033  15.922  21.357   5.077
84640W        W53034  18.766   8.738  12.455
84641W        W53035  44.923  36.911  12.554
84642W        W53036  16.096  22.621   1.930
84643W        W53037  27.482   2.217   5.428
84644W        W53038  29.347  12.750  14.354
84645W        W53039  20.168   2.431  14.241
84646W        W53040  40.182  12.267  12.974
84647W        W53041  42.395  19.497  12.663
84648W        W53042   1.814  27.049   0.262
84649W        W53043  36.331  39.939  12.925
84650W        W53044  36.927  22.015   0.667
84651W        W53045   5.014   7.229  13.392
84652W        W53046  38.786  16.546  11.177
84653W        W53047   4.864   9.781  13.789
84654W        W53048  38.316  37.480   1.785
84655W        W53049  31.479  21.884  13.413
84656W        W53050   4.160  44.350  11.381
84657W        W53051  20.010  10.585  12.295
84658W        W53052   1.286  23.523   3.706
84659W        W53053  24.086   9.095  13.942
84660W        W53054  30.723  23.320  14.389
84661W        W53055  17.512  30.629   0.456
84662W        W53056   4.001  44.456   3.312
84663W        W53057   1.526  23.065  13.358
84664W        W53058  19.630  42.268  14.470
84665W        W53059  40.303   7.343  14.943
84666W        W53060   3.772   8.285  11.099
84667W        W53061   3.642  27.714  12.951
84668W        W53062   6.811   8.862   2.150
84669W        W53063  44.330   8.650   1.023
84670W        W53064   1.342  39.388   3.715
84671W        W53065  15.130  44.997  10.875
84672W        W53066   1.737  38.523   4.063
84673W        W53067  17.332  43.539  14.898
84674W        W53068   7.978  35.484  10.334
84675W        W53069   0.257  43.774  12.545
84676W        W53070  12.262  14.713  11.574
84677W        W53071  41.470  24.005   4.270
84678W        W53072  37.397   9.099  10.762
84679W        W53073  22.954   8.756  12.444
84680W        W53074  33.127   6.771  13.574
84681W        W53075  38.845   1.461  12.017
84682W        W53076  34.984  14.442   4.718
84683W        W53077  31.880  16.061  13.147
84684W        W53078  17.097  18.723  14.368
84685W        W53079  25.124  14.666  13.467
84686W        W53080  42.886   2.704   2.213
84687W        W53081   4.237  41.915  10.731
84688W        W53082   8.887  19.001  14.237
84689W        W53083  34.391   0.884  10.738
84690W        W53084  27.447  17.876   3.651
84691W        W53085  17.704  14.030   4.479
84692W        W53086  22.198  17.424  11.383
84693W        W53087   2.474  20.210   2.284
84694W        W53088   3.807  25.063  14.708
84695W        W53089  28.607   1.982   3.534
84696W        W53090  30.368  42.952   1.420
84697W        W53091   9.059  26.978  13.983
84698W        W53092  36.014  31.251   3.341
84699W        W53093  23.852  39.497  12.548
84700W        W53094  43.657  19.688   1.384
84701W        W53095  15.099   5.605  14.620
84702W        W53096  22.627  39.930  12.159
84703W        W53097   1.292  16.366   2.752
84704W        W53098  27.506  43.858  11.470
84705W        W53099  26.741  14.303   4.750
84706W        W53100  37.977   7.754  13.062
84707W        W53101   1.916  44.746  11.516
84708W        W53102  26.753  14.158  14.319
84709W        W53103  15.102  40.011  14.799
84710W        W53104   3.507  40.191   2.967
84711W        W53105  35.918  18.209  13.605
84712W        W53106  17.157   9.123   1.761
84713W        W53107   8.984  12.632   3.701
84714W        W53108   6.544  37.622   1.183
84715W        W53109   5.317  15.053   3.639
84716W        W53110  30.782  10.069   3.391
84717W        W53111  12.593  36.970  13.889
84718W        W53112  41.529  20.122  11.261
84719W        W53113  19.738  14.838  12.364
84720W        W53114  13.174  11.865  11.114
84721W        W53115  28.886  23.647   0.399
84722W        W53116  36.011  29.012  12.327
84723W        W53117   0.900   4.632   3.202
84724W        W53118  14.197  44.726   3.255
84725W        W53119   6.197  13.324  13.837
84726W        W53120  21.936  43.987  14.990
84727W        W53121   1.002  41.807  11.488
84728W        W53122   4.990  15.363   1.334
84729W        W53123  18.573  20.472  11.972
84730W        W53124  10.713  33.632   4.428
84731W        W53125  33.286  39.364  14.181
84732W        W53126   4.069  11.631  14.209
84733W        W53127  26.541  32.476  13.465
84734W        W53128   8.883  31.697  12.562
84735W        W53129  33.388   2.660  12.809
84736W        W53130  31.227  18.212  10.607
84737W        W53131  44.802   9.264  14.008
84738W        W53132  21.159   7.915  14.335
84739W        W53133   1.291   1.376   4.759
84740W        W53134  24.554  21.115   0.632
84741W        W53135  16.110  17.664   0.950
84742W        W53136  43.389  40.093  10.165
84743W        W53137  23.603  34.636   4.238
84744W        W53138  28.105  15.526   1.873
84745W        W53139  12.370  39.552   4.467
84746W        W53140  24.420  13.699  11.673
84747W        W53141  12.259  22.254  13.817
84748W        W53142  25.135  30.186  13.878
84749W        W53143   4.578   3.446   9.962
84750W        W53144  37.013  10.831  12.468
84751W        W53145   2.312  14.817   0.039
84752W        W53146  20.532  32.541   3.643
84753W        W53147   3.744  39.943   3.867
84754W        W53148  31.460  15.982   0.249
84755W        W53149   0.956  34.824  13.495
84756W        W53150  14.057   0.844   3.734
84757W        W53151   8.713  15.310   4.588
84758W        W53152  41.920  18.869   1.912
84759W        W53153  32.287  33.827  12.881
84760W        W53154   5.399   5.872  10.747
84761W        W53155   4.940   6.081   3.795
84762W        W53156  18.639  16.031   3.753
84763W        W53157  40.425  16.058  12.119
84764W        W53158  42.481   1.828   3.877
84765W        W53159  21.604  21.857   0.507
84766W        W53160  12.576   4.454  10.566
84767W        W53161  22.099   4.317  13.539
84768W        W53162  31.014  33.592   1.383
84769W        W53163  32.428  16.337   2.473
84770W        W53164  38.359  31.183  12.877
84771W        W53165  24.494  28.690  14.385
84772W        W53166  33.023  14.572   3.921
84773W        W53167  30.494   0.345   4.119
84774W        W53168   5.923  16.771  14.394
84775W        W53169  35.136  34.863  14.884
84776W        W53170  27.006  31.488   2.288
84777W        W53171  30.640   0.797   4.254
84778W        W53172   7.698  22.691  12.278
84779W        W53173  40.481  36.157  14.962
84780W        W53174   7.786  30.635  11.845
84781W        W53175  19.615  16.212   1.626
84782W        W53176  40.315  22.114  12.503
84783W        W53177  16.213   4.350  11.998
84784W        W53178  40.317   4.906  14.353
84785W        W53179   1.537  19.123  12.051
84786W        W53180   9.915  21.823   0.768
84787W        W53181  17.399  27.688   0.217
84788W        W53182  20.200  12.140   0.831
84789W        W53183  21.696  30.313   0.113
84790W        W53184  22.552  36.341   4.546
84791W        W53185   3.765  20.591  11.060
84792W        W53186  21.012   0.816   1.668
84793W        W53187  25.595  21.774  13.981
84794W        W53188   6.733  20.032  14.827
84795W        W53189  10.833   8.818   1.451
84796W        W53190   3.998  44.481  10.785
84797W        W53191  27.716   0.293  11.161
84798W        W53192   2.260  19.818   4.679
84799W        W53193   4.379  36.406  11.990
84800W        W53194  34.817  18.312   4.378
84801W        W53195  21.971  24.093  13.973
84802W        W53196  23.143  43.489   4.648
84803W        W53197  31.523   6.580   0.114
84804W        W53198   6.825  28.159  10.045
84805W        W53199  35.375  30.230  12.861
84806W        W53200  29.427  19.035  13.923
84807W        W53201  44.244  10.068  12.891
84808W        W53202  41.884   0.324   4.811
84809W        W53203  31.518  22.663   3.271
84810W        W53204   9.312   4.730   9.863
84811W        W53205  44.926   4.841   2.878
84812W        W53206  13.314  23.195  12.573
84813W        W53207  32.034  38.954   2.627
84814W        W53208  38.837  22.586   3.324
84815W        W53209  41.142  25.041  12.961
84816W        W53210  29.529  19.050   0.901
84817W        W53211  19.229  39.354   4.465
84818W        W53212  20.806   3.304   4.180
84819W        W53213  16.386  37.352   9.883
84820W        W53214  39.798  43.316  13.446
84821W        W53215   2.823  13.075   0.370
84822W        W53216  43.431   3.065  11.793
84823W        W53217  41.818   9.812   4.274
84824W        W53218  39.249  13.339   0.334
84825W        W53219   1.254  34.866  13.075
84826W        W53220  11.241  32.935  11.908
84827W        W53221  40.920  25.212  14.996
84828W        W53222  17.256  29.185   4.577
84829W        W53223  40.091  32.534  13.246
84830W        W53224   7.506  43.796  12.486
84831W        W53225   7.886  31.936  13.814
84832W        W53226  16.263  32.498   4.103
84833W        W53227  38.331  20.252   0.256
84834W        W53228  13.951   2.323  13.268
84835W        W53229   3.964   8.707  11.348
84836W        W53230  26.604  23.322  13.437
84837W        W53231  31.644  16.894  11.470
84838W        W53232  21.831  38.810   3.044
84839W        W53233  36.332  20.270   2.867
84840W        W53234  20.514  38.910   3.330
84841W        W53235  25.133  11.839  14.043
84842W        W53236  25.735  23.803  12.594
84843W        W53237  31.809   0.015  12.805
84844W        W53238  32.436  41.494   2.601
84845W        W53239  12.758  15.108  13.093
84846W        W53240  32.779  39.283  12.494
84847W        W53241  16.265  41.354  13.365
84848W        W53242  11.639   8.245   2.332
84849W        W53243  39.547  18.766   4.390
84850W        W53244  31.938  36.977  12.005
84851W        W53245  31.876  37.412  14.806
84852W        W53246  17.925   9.222   4.978
84853W        W53247   1.545  22.012  10.779
84854W        W53248  37.306  24.594   2.264
84855W        W53249  10.763   5.360  11.152
84856W        W53250   5.698  36.414   4.713
84857W        W53251  26.747  31.690   1.874
84858W        W53252  35.359  42.479  10.611
84859W        W53253   6.577  16.178  13.956
84860W        W53254  15.200   3.752   4.396
84861W        W53255  37.518  40.983  13.668
84862W        W53256  36.469  20.684   4.031
84863W        W53257   1.071   7.599   4.394
84864W        W53258  34.306  29.979   1.363
84865W        W53259  22.500   3.008  11.306
84866W        W53260  11.825  20.160   2.382
84867W        W53261   2.927  30.628   3.403
84868W        W53262  17.317   8.289   2.297
84869W        W53263  28.967  20.301   1.689
84870W        W53264  12.671  25.535   4.457
84871W        W53265  31.182  15.932  14.273
84872W        W53266   9.968   8.210   3.159
84873W        W53267  38.053  21.209   3.679
84874W        W53268  12.695  37.700   1.811
84875W        W53269  34.844  25.203  13.077
84876W        W53270  41.275  19.375  11.575
84877W        W53271   6.913  28.182   0.719
84878W        W53272  16.090  19.521   4.089
84879W        W53273  37.808  19.083   1.873
84880W        W53274  28.218  24.542  13.520
84881W        W53275  40.134  24.610  11.145
84882W        W53276  44.037  32.890   4.069
84883W        W53277  42.917  30.064   0.045
84884W        W53278  42.335  43.800  12.593
84885W        W53279  31.961  23.471  10.508
84886W        W53280  14.533  22.216  13.507
84887W        W53281  37.918  11.620   1.703
84888W        W53282  21.539  16.380  14.963
84889W        W53283   2.892   5.926  12.839
84890W        W53284  25.183   7.656  13.280
84891W        W53285  11.378  44.286   0.176
84892W        W53286  36.031  25.788   0.563
84893W        W53287  11.948  21.570  14.221
84894W        W53288  30.963  20.830  13.871
84895W        W53289  42.782   1.185   2.169
84896W        W53290  13.383  36.191  10.292
84897W        W53291  12.409  11.118  12.878
84898W        W53292  39.663  27.225  11.679
84899W        W53293   8.284  12.746  11.075
84900W        W53294  34.983  35.889  14.731
84901W        W53295  21.089  25.585  10.704
84902W        W53296  24.581  29.714  14.470
84903W        W53297  25.022   3.397  13.532
84904W        W53298  29.927  29.324   4.544
84905W        W53299  16.216   3.275  14.343
84906W        W53300  28.404   2.955   1.743
84907W        W53301  38.273  31.434   1.364
84908W        W53302  29.526  23.264   1.891
84909W        W53303  16.528  13.761   0.452
84910W        W53304  31.531  10.373  14.532
84911W        W53305  42.801   2.209   0.356
84912W        W53306  25.004   1.263  13.362
84913W        W53307  14.110  19.400  12.811
84914W        W53308   5.216   2.189  10.258
84915W        W53309  25.690  30.464  13.115
84916W        W53310  26.679  39.369  13.315
84917W        W53311   5.411   8.453   3.384
84918W        W53312  22.279  33.417  10.790
84919W        W53313  12.110   3.804   2.369
84920W        W53314  10.151  11.133   1.343
84921W        W53315  17.060  10.852  13.542
84922W        W53316   1.525  30.148   4.091
84923W        W53317  14.464  10.392   5.074
84924W        W53318   9.248  44.794  12.073
84925W        W53319  15.231  43.752  13.519
84926W        W53320  14.126  41.813   4.398
84927W        W53321  35.744  15.168   2.651
84928W        W53322  33.988  30.390   1.406
84929W        W53323  26.766  18.102  10.665
84930W        W53324  39.646  16.262  13.116
84931W        W53325  22.804  29.530   0.031
84932W        W53326  15.221   8.626   3.149
84933W        W53327   2.870  36.102   3.659
84934W        W53328  38.838   6.427  12.727
84935W        W53329  25.590   0.053   0.534
84936W        W53330  37.770  19.726  10.099
84937W        W53331  21.086  43.288   4.719
84938W        W53332   4.112  23.748   2.275
84939W        W53333   4.677   0.768   1.277
84940W        W53334  28.068   0.072  12.921
84941W        W53335  10.261  18.080  14.352
84942W        W53336  24.763  35.541   1.261
84943W        W53337  17.038  34.423   2.245
84944W        W53338  35.721   7.578  14.394
84945W        W53339  20.413  21.929  10.837
84946W        W53340  38.085  28.308  10.234
84947W        W53341   1.769  44.081   0.315
84948W        W53342   0.799   0.644   3.800
84949W        W53343  22.749  11.240   3.598
84950W        W53344   1.235   2.843  14.602
84951W        W53345  11.157  27.705  13.278
84952W        W53346  22.522  27.234  11.146
84953W        W53347  15.442  13.590  12.973
84954W        W53348   0.825  23.605  11.208
84955W        W53349  24.642  20.291   4.181
84956W        W53350  17.344  35.296   1.688
84957W        W53351  21.659   6.764   4.307
84958W        W53352  27.003  33.147  14.044
84959W        W53353  12.173  41.568   0.046
84960W        W53354  37.290  33.174  14.956
84961W        W53355   9.806  41.318   3.668
84962W        W53356  44.927  28.505   0.411
84963W        W53357  31.512  37.028  14.821
84964W        W53358  13.630   0.414  12.142
84965W        W53359  11.092   0.148  14.646
84966W        W53360  40.300  13.034  11.899
84967W        W53361   9.268  24.710   2.484
84968W        W53362  37.322  20.607   4.611
84969W        W53363  43.150  43.116  13.088
84970W        W53364  11.894   0.344   5.006
84971W        W53365  19.215  34.972  12.482
84972W        W53366  34.190   2.523  10.756
84973W        W53367  28.622  30.919   1.967
84974W        W53368  31.910   5.108  11.441
84975W        W53369   3.318   4.530   4.211
84976W        W53370  30.517  30.884   2.688
84977W        W53371  30.371  15.136   2.867
84978W        W53372   7.157  44.259  13.568
84979W        W53373   9.917  18.549  11.212
84980W        W53374   1.732  21.616   0.249
84981W        W53375  25.746  19.014  12.853
84982W        W53376  14.796  34.302   2.364
84983W        W53377   3.354   3.323   2.262
84984W        W53378  32.870  14.134   4.145
84985W        W53379  40.085  17.868  12.045
84986W        W53380   3.819  13.132  12.002
84987W        W53381  40.901  36.828  11.447
84988W        W53382  27.616  40.263  14.884
84989W        W53383   8.100  13.113   1.906
84990W        W53384  29.449  13.500  14.836
84991W        W53385  42.446  39.300   3.209
84992W        W53386  27.741  39.730  11.654
84993W        W53387  40.292  24.032  13.371
84994W        W53388   8.916  41.402   1.362
84995W        W53389  38.552  11.913  11.577
84996W        W53390   9.865   3.520  14.876
84997W        W53391  37.187  25.486   4.144
84998W        W53392   3.768  39.635   0.540
84999W        W53393  16.943   2.401  11.938
85000W        W53394  36.487  43.872   3.671
85001W        W53395  38.336  37.517  13.808
85002W        W53396  23.534   4.397   4.440
85003W        W53397  15.100  22.557   1.150
85004W        W53398  11.498  29.921   4.546
85005W        W53399  44.018  19.568   0.536
85006W        W53400  16.210  19.653  13.060
85007W        W53401   4.708  29.029   0.628
85008W        W53402   3.248  11.726   3.172
85009W        W53403  14.271  15.891  12.605
85010W        W53404  26.665  42.767   4.520
85011W        W53405   2.308   9.886   4.722
85012W        W53406  19.702  17.042  11.012
85013W        W53407  36.789  30.163  11.466
85014W        W53408  27.229  15.655   1.337
85015W        W53409  31.009   8.589  12.185
85016W        W53410  40.501   6.111   4.532
85017W        W53411   6.830  19.605  12.524
85018W        W53412  42.608   5.763  13.354
85019W        W53413  14.153  19.177   3.522
85020W        W53414  32.853  41.378   2.328
85021W        W53415  32.540   9.224   3.678
85022W        W53416   8.831  23.275   1.720
85023W        W53417  44.037  20.681  14.316
85024W        W53418  15.230  17.895  11.992
85025W        W53419  17.180   2.898   3.653
85026W        W53420  30.196  19.598  14.033
85027W        W53421   4.808   2.726   4.617
85028W        W53422  40.924   0.210   1.425
85029W        W53423   5.446  25.585   1.321
85030W        W53424  30.154  18.885   4.540
85031W        W53425  10.416  36.872   9.912
85032W        W53426  38.747   2.507  11.491
85033W        W53427  16.289  33.944  12.405
85034W        W53428  21.198  15.338   3.468
85035W        W53429   7.915  16.071   0.329
85036W        W53430  26.216   1.896  12.535
85037W        W53431   2.519  28.511   4.673
85038W        W53432  41.739  26.714  12.417
85039W        W53433  26.547  17.586  10.766
85040W        W53434  15.304  20.953   1.458
85041W        W53435  41.290  19.735  13.949
85042W        W53436  38.038  34.173   3.291
85043W        W53437   4.668  21.144  13.520
85044W        W53438  43.243   1.035   1.920
85045W        W53439   4.348  30.428  12.863
85046W        W53440  33.891  16.739  13.819
85047W        W53441   2.694  26.289  13.442
85048W        W53442  29.379  22.631  12.959
85049W        W53443  20.293  33.923  14.266
85050W        W53444  19.694  11.311  13.711
85051W        W53445  29.499  11.174  12.500
85052W        W53446  14.341   0.017   4.194
85053W        W53447  32.997  20.622  14.257
85054W        W53448  23.712  32.685   0.383
85055W        W53449  19.969   5.354   3.736
85056W        W53450  33.937  27.773   1.826
85057W        W53451  42.463  13.651  11.188
85058W        W53452   8.268  37.816   2.213
85059W        W53453  33.976  32.871  13.742
85060W        W53454  28.737  22.603   4.841
85061W        W53455  20.087  13.059  10.701
85062W        W53456  18.730  29.230   3.019
85063W        W53457  38.400  37.810   3.128
85064W        W53458  17.436   8.901   1.337
85065W        W53459   1.473  20.482  14.078
85066W        W53460   1.937  21.971   1.462
85067W        W53461  38.481   8.706   2.095
85068W        W53462  35.293  19.253   0.763
85069W        W53463  13.585  40.568   1.260
85070W        W53464  27.553   9.898   2.814
85071W        W53465  29.418   4.589  14.361
85072W        W53466  18.288  29.464   3.727
85073W        W53467  39.386  44.819  10.583
85074W        W53468  33.891  27.560  11.140
85075W        W53469   4.515   3.323  11.989
85076W        W53470   6.480  26.973  13.289
85077W        W53471  38.936   9.101  11.549
85078W        W53472  13.638  44.134  14.893
85079W        W53473  33.988  16.889   4.570
85080W        W53474  29.506  43.578  13.250
85081W        W53475  37.723  34.583   0.547
85082W        W53476  28.398  26.001  13.969
85083W        W53477  41.541  23.222   2.464
85084W        W53478   3.313  43.247   1.021
85085W        W53479  17.191  32.071   1.345
85086W        W53480   3.934   6.332   3.767
85087W        W53481  37.458  11.682  11.545
85088W        W53482  28.144  35.432  14.770
85089W        W53483  41.843   5.329  10.704
85090W        W53484  27.409  34.964   1.893
85091W        W53485  11.656  12.710   2.267
85092W        W53486  44.262  32.842  14.898
85093W        W53487   2.313  38.004  10.601
85094W        W53488  41.513  27.926  10.627
85095W        W53489   5.426  32.639  11.564
85096W        W53490   8.161  18.334  10.561
85097W        W53491  15.353  33.237  11.662
85098W        W53492  40.551   9.430   1.955
85099W        W53493  40.250   7.418  12.439
85100W        W53494  23.298  31.430  12.967
85101W        W53495  33.301   9.088  13.527
85102W        W53496  44.860  28.614   2.734
85103W        W53497  34.161   2.252  12.003
85104W        W53498   8.400  37.192  14.365
85105W        W53499   6.365  16.887   4.582
85106W        W53500   0.568  10.184   0.208
85107W        W53501  41.340  42.865   1.801
85108W        W53502   3.541  25.480  13.333
85109W        W53503  16.781  21.032  10.556
85110W        W53504  27.244  41.025   0.343
85111W        W53505  43.424  33.621   2.672
85112W        W53506  19.121  15.102   0.841
85113W        W53507  33.852  23.027   0.459
85114W        W53508  25.099  13.085  13.406
85115W        W53509  29.419  32.989  14.023
85116W        W53510  33.945  26.458   2.810
85117W        W53511   8.420   3.442  13.933
85118W        W53512  33.215   9.757  10.630
85119W        W53513  31.669   1.731  14.437
85120W        W53514  11.165   7.258  12.510
85121W        W53515  38.863  41.864   4.637
85122W        W53516  31.389  31.212  13.498
85123W        W53517  20.659  16.609  14.456
85124W        W53518  34.950  11.849  10.352
85125W        W53519  21.550  37.602  10.489
85126W        W53520  26.015  32.556   2.597
85127W        W53521  19.460  30.527   1.617
85128W        W53522  29.873  27.966  13.424
85129W        W53523   9.204   0.713   1.984
85130W        W53524   6.849  18.545   3.799
85131W        W53525  28.218  30.970  12.531
85132W        W53526   0.952  26.140   0.235
85133W        W53527  30.699  41.803   4.558
85134W        W53528  43.053  42.455   3.264
85135W        W53529   6.271  17.141   3.601
85136W        W53530  41.945  11.142   0.976
85137W        W53531  12.106  10.074   4.516
85138W        W53532  29.991   7.467   3.123
85139W        W53533  19.910  19.213   1.694
85140W        W53534  26.014  40.048   1.691
85141W        W53535   4.956  21.945  14.788
85142W        W53536   7.941  39.342   0.758
85143W        W53537  10.028   1.937  13.524
85144W        W53538  16.340  35.492   2.940
85145W        W53539  30.775  26.982   4.692
85146W        W53540  28.932  36.926  14.809
85147W        W53541   6.519  17.009  12.494
85148W        W53542  13.846  14.430  10.686
85149W        W53543  33.899  21.054  13.458
85150W        W53544   4.676  19.069  14.951
85151W        W53545  24.718  16.799  12.478
85152W        W53546   7.850   5.496   3.287
85153W        W53547  33.123  44.253  13.006
85154W        W53548   8.690  41.540   2.772
85155W        W53549  33.398  29.093   3.764
85156W        W53550  42.975  33.536  13.244
85157W        W53551  17.728   0.134   0.791
85158W        W53552  28.479   7.227  14.373
85159W        W53553  12.079   0.223   3.239
85160W        W53554  22.803  13.675  13.352
85161W        W53555  33.558  26.234   4.025
85162W        W53556  24.108  11.480  13.623
85163W        W53557  29.465   3.387   0.977
85164W        W53558  44.939  25.528  14.770
85165W        W53559  14.158  14.558  14.845
85166W        W53560  17.348  41.566   1.727
85167W        W53561  29.106   6.649   4.083
85168W        W53562  24.631   0.979  11.671
85169W        W53563  43.192   5.768   1.082
85170W        W53564  39.807  26.098   1.341
85171W        W53565  33.605  12.667   2.909
85172W        W53566  15.126  29.787   3.141
85173W        W53567   9.418  40.364  11.639
85174W        W53568  32.489  38.793   0.958
85175W        W53569   0.847   3.317  10.751
85176W        W53570  13.220  11.094  10.722
85177W        W53571  30.340  38.333  14.280
85178W        W53572  40.303  26.367   2.135
85179W        W53573  44.735  12.717   4.564
85180W        W53574  39.170  11.380  14.303
85181W        W53575  17.161   9.302  12.440
85182W        W53576  40.519   0.341   2.388
85183W        W53577   2.455  25.259   4.827
85184W        W53578  40.502  32.246   4.894
85185W        W53579  43.236  40.933  11.924
85186W        W53580  27.422  32.915  14.977
85187W        W53581  43.006  14.647   0.333
85188W        W53582   1.513   2.504  14.356
85189W        W53583  16.186  32.949   0.590
85190W        W53584  41.992   5.869  12.030
85191W        W53585  38.188  39.030   4.410
85192W        W53586   4.994  41.960   2.071
85193W        W53587  10.247  31.352  10.543
85194W        W53588  22.910  34.344   0.358
85195W        W53589   1.459  11.931  11.577
85196W        W53590   1.845   1.037  12.512
85197W        W53591  21.709  27.758  10.947
85198W        W53592  29.900  17.134  14.988
85199W        W53593   0.543  11.128  13.418
85200W        W53594  14.202  17.382   4.715
85201W        W53595   5.400  38.351   4.181
85202W        W53596  32.893  17.239  11.586
85203W        W53597  43.716   5.841   4.882
85204W        W53598  20.267  41.346   1.893
85205W        W53599   9.217   5.226  10.605
85206W        W53600  41.452  16.265  10.644
85207W        W53601  31.600  21.107  13.027
85208W        W53602  16.923  11.339   1.519
85209W        W53603  32.018  42.525   0.402
85210W        W53604  17.607   8.983   0.502
85211W        W53605   4.863  17.027  12.597
85212W        W53606  41.748  30.757   1.520
85213W        W53607  12.606  36.806   3.683
85214W        W53608  18.229  24.057   3.188
85215W        W53609   1.291  37.563  13.930
85216W        W53610  17.347  29.663  14.283
85217W        W53611  28.903  22.301  11.547
85218W        W53612  40.292  10.700  13.141
85219W        W53613  22.077  21.966   1.440
85220W        W53614  26.654  29.799   1.919
85221W        W53615  24.085  14.409  12.986
85222W        W53616   8.636   9.674  13.984
85223W        W53617   1.719  44.668   2.314
85224W        W53618  42.964  22.540   3.933
85225W        W53619  25.076  36.832  13.042
85226W        W53620  40.862  32.676  14.523
85227W        W53621  39.579  39.766   2.585
85228W        W53622  12.062   8.388   4.736
85229W        W53623  13.689  33.644   4.126
85230W        W53624  36.434  32.827   0.958
85231W        W53625  20.922  18.611  12.459
85232W        W53626  24.531  32.096   4.288
85233W        W53627  22.875   2.891  11.648
85234W        W53628  33.487   0.024  10.762
85235W        W53629  28.982  41.259   0.430
85236W        W53630   6.890  39.399   2.779
85237W        W53631   9.126  11.902   1.708
85238W        W53632  11.336  23.214  14.361
85239W        W53633  24.075  10.271   0.927
85240W        W53634  36.142  29.949  12.025
85241W        W53635  29.896  42.882   1.274
85242W        W53636   3.164  12.083  11.675
85243W        W53637  39.225  10.210  10.430
85244W        W53638   5.923  19.828  12.504
85245W        W53639  10.416  15.111  14.382
85246W        W53640  20.994  14.678  13.903
85247W        W53641  44.075  24.612   4.689
85248W        W53642  36.411  12.234  10.893
85249W        W53643  33.850  21.472  11.682
85250W        W53644  33.316  12.269   5.271
85251W        W53645   9.386  19.165  14.294
85252W        W53646   2.640  14.152   3.981
85253W        W53647  35.179  35.386   3.512
85254W        W53648   2.248  33.008  14.983
85255W        W53649  24.915   9.709   2.657
85256W        W53650  39.751   0.825  12.198
85257W        W53651   4.322  12.224  10.323
85258W        W53652  28.196  28.108  12.239
85259W        W53653  40.877  35.480  13.753
85260W        W53654  27.185  22.219   4.317
85261W        W53655  36.062   2.888  12.063
85262W        W53656  24.954  32.651   1.853
85263W        W53657  22.200   0.767  13.785
85264W        W53658   1.506   1.495   3.304
85265W        W53659  28.114  32.537  10.416
85266W        W53660   9.888  27.004   4.744
85267W        W53661   5.329  32.951   4.912
85268W        W53662  41.929  27.084  14.901
85269W        W53663  42.868   6.302  11.737
85270W        W53664  28.810  24.202   2.613
85271W        W53665  37.508   0.396   1.771
85272W        W53666  15.906  34.369   3.837
85273W        W53667  25.503  17.565  11.546
85274W        W53668   2.401  32.085   4.388
85275W        W53669  22.546  34.401  12.032
85276W        W53670  25.527  40.221   0.293
85277W        W53671  29.394  21.649   3.576
85278W        W53672  41.890   3.757   3.252
85279W        W53673   4.664  43.471  14.524
85280W        W53674  27.806  12.776   0.203
85281W        W53675  17.218  13.386  13.165
85282W        W53676  38.490  18.436  14.800
85283W        W53677  27.069   9.749   9.792
85284W        W53678  34.953  32.544   0.242
85285W        W53679  18.449  41.816   2.646
85286W        W53680  22.962   6.062  11.194
85287W        W53681  14.225  37.596   0.859
85288W        W53682  26.089  32.176  13.351
85289W        W53683  19.984  14.008   3.122
85290W        W53684   6.397  28.719  12.916
85291W        W53685  31.939  24.136   3.190
85292W        W53686   6.178  30.454   0.678
85293W        W53687  15.392  22.564   3.085
85294W        W53688  18.972  28.663  12.058
85295W        W53689   5.242   8.828   0.197
85296W        W53690  18.127  32.390   2.874
85297W        W53691  34.294   9.355  13.319
85298W        W53692  14.630   2.444  13.866
85299W        W53693  43.052  15.716   4.106
85300W        W53694  16.612   1.601   0.294
85301W        W53695   6.451  38.871  11.144
85302W        W53696  30.403  30.561  14.886
85303W        W53697  33.996  25.947   2.153
85304W        W53698   3.405   7.237   9.661
85305W        W53699  14.824  15.849  10.738
85306W        W53700  22.771   3.764   4.829
85307W        W53701  21.777   8.723  11.854
85308W        W53702  37.640   6.996   4.218
85309W        W53703  12.237   4.126  11.531
85310W        W53704  29.391  17.847  13.513
85311W        W53705  40.124   8.826   0.766
85312W        W53706  10.041  27.675   0.394
85313W        W53707  21.111  16.603  14.714
85314W        W53708   1.697  19.728   2.291
85315W        W53709  16.074  15.185   2.643
85316W        W53710  37.718  28.953  12.076
85317W        W53711  14.237   7.028   1.884
85318W        W53712   0.961  20.234  13.432
85319W        W53713   4.846  11.692  13.952
85320W        W53714  20.849   6.264  13.868
85321W        W53715  13.588  36.821  14.500
85322W        W53716  19.311  26.110   5.452
85323W        W53717   5.076  35.946   2.276
85324W        W53718  43.790  41.025   0.134
85325W        W53719  10.342  10.858  13.882
85326W        W53720  26.354  30.703   3.268
85327W        W53721  29.118  20.463  11.627
85328W        W53722  26.283   0.430  10.318
85329W        W53723   0.407   1.475   0.735
85330W        W53724  20.556  32.500  10.709
85331W        W53725   5.819  25.492   3.509
85332W        W53726  38.542   4.101   2.014
85333W        W53727  33.854  26.096   1.320
85334W        W53728  40.046  17.772  14.210
85335W        W53729  37.906  28.710   2.587
85336W        W53730  19.870  19.196   4.706
85337W        W53731  33.561   2.270   1.815
85338W        W53732  18.795  41.192  14.503
85339W        W53733  22.538   5.861  14.731
85340W        W53734  43.962  34.164   2.923
85341W        W53735  24.563   0.007  11.554
85342W        W53736  22.996   2.954  14.968
85343W        W53737   7.349  36.427   2.175
85344W        W53738  40.341  14.781   0.465
85345W        W53739  37.311  16.183   1.711
85346W        W53740   9.122  41.415  10.158
85347W        W53741  12.260  20.793   4.250
85348W        W53742  29.536  12.065  12.873
85349W        W53743  37.009   9.483  13.952
85350W        W53744  34.826  23.453   5.160
85351W        W53745   7.883  16.797   1.642
85352W        W53746  22.495   0.473  11.627
85353W        W53747  13.614   5.774   2.149
85354W        W53748  29.667  41.959   1.203
85355W        W53749  19.809   8.229  10.961
85356W        W53750  36.136  21.228  13.084
85357W        W53751   2.239  30.367   2.898
85358W        W53752  11.155  40.763  13.889
85359W        W53753  16.794  30.921   2.709
85360W        W53754   1.661  35.408   2.323
85361W        W53755  12.796  23.441  13.476
85362W        W53756  30.534  43.966  10.724
85363W        W53757  40.063  17.555  12.917
85364W        W53758  28.560  19.361  11.102
85365W        W53759   7.223  38.455   1.876
85366W        W53760   2.309   2.015   0.470
85367W        W53761  16.604   2.452   4.158
85368W        W53762  21.166  20.277   4.576
85369W        W53763  16.175  31.615  14.352
85370W        W53764   0.880   7.044   0.320
85371W        W53765  28.502   0.494   5.019
85372W        W53766  23.770  32.972   0.919
85373W        W53767  33.358  40.016  11.498
85374W        W53768  42.563  23.972  14.984
85375W        W53769  38.834  40.023   4.234
85376W        W53770  29.471  17.135   2.702
85377W        W53771  34.914  25.161   3.662
85378W        W53772  27.014   7.414   3.495
85379W        W53773  31.132  42.752   5.080
85380W        W53774   9.627  20.049   0.610
85381W        W53775  15.876  13.076   0.749
85382W        W53776  24.712  23.275   3.870
85383W        W53777  32.017  42.729  10.568
85384W        W53778  26.196  37.022  14.445
85385W        W53779  37.955  29.399  12.062
85386W        W53780   3.216  31.631  12.433
85387W        W53781  36.226  27.579   5.027
85388W        W53782  26.987   7.213   4.059
85389W        W53783   2.457  30.071  12.002
85390W        W53784  25.574  18.083  14.901
85391W        W53785  11.100  21.983  12.992
85392W        W53786  43.399  36.632   1.493
85393W        W53787  26.405  11.161  12.515
85394W        W53788  18.131  19.296   0.172
85395W        W53789  17.531  16.549   2.214
85396W        W53790  33.558   9.087   0.333
85397W        W53791  14.580  26.146  13.849
85398W        W53792  12.661  43.752   4.889
85399W        W53793  28.952  41.819  12.774
85400W        W53794   0.997  42.863  14.916
85401W        W53795  40.850  23.954  11.649
85402W        W53796  40.556   7.762  14.785
85403W        W53797  21.724   8.365  13.633
85404W        W53798  33.917  25.645  13.548
85405W        W53799   6.905  31.742  14.505
85406W        W53800   8.827  29.469   2.372
85407W        W53801   4.250   2.424   2.057
85408W        W53802  12.792  34.359  12.104
85409W        W53803  33.014  14.366  12.926
85410W        W53804  18.599   9.189  14.327
85411W        W53805   4.757  24.159   1.178
85412W        W53806  36.870  42.777  10.629
85413W        W53807  29.225  38.347  10.744
85414W        W53808  19.144   5.291  13.546
85415W        W53809   0.426  40.823   0.226
85416W        W53810  35.133   3.277   3.534
85417W        W53811   1.862  19.199   4.594
85418W        W53812  41.426  42.984  11.890
85419W        W53813   3.320  23.756  14.524
85420W        W53814  24.665  30.653  12.283
85421W        W53815  30.492  14.851   5.021
85422W        W53816  21.092  42.351   3.273
85423W        W53817  23.761  20.920  11.999
85424W        W53818   1.726   0.860   4.176
85425W        W53819  29.588  27.523  13.108
85426W        W53820   1.072  25.692   0.021
85427W        W53821  20.156  29.047   1.051
85428W        W53822  41.931  15.189   2.722
85429W        W53823   6.748  14.120   1.451
85430W        W53824  23.642  12.614  13.930
85431W        W53825  14.134  34.313  13.588
85432W        W53826  28.976  24.250   3.109
85433W        W53827  11.530  32.183   0.014
85434W        W53828  40.356  34.987  12.123
85435W        W53829  17.162  43.969   1.185
85436W        W53830  41.793  26.749   1.305
85437W        W53831  34.989  36.548  11.482
85438W        W53832  39.030  42.387  10.560
85439W        W53833  28.653  12.058   3.627
85440W        W53834  11.002  34.528   0.412
85441W        W53835  44.726  25.750   3.795
85442W        W53836  38.510  37.016  13.819
85443W        W53837   0.387   0.362  14.897
85444W        W53838   5.789   6.433   3.770
85445W        W53839  19.325  32.482  13.956
85446W        W53840  36.572  32.025  13.117
85447W        W53841  10.616  34.145  12.283
85448W        W53842   4.218  37.991   3.813
85449W        W53843  18.457  31.162  13.989
85450W        W53844  42.711   1.504  13.943
85451W        W53845  44.470  25.475   2.662
85452W        W53846  31.059  15.311   2.177
85453W        W53847  15.127  33.552   2.687
85454W        W53848  22.503   5.039   2.695
85455W        W53849  44.790  25.516  12.057
85456W        W53850  14.332  28.102   2.731
85457W        W53851  33.167  34.343   3.643
85458W        W53852   6.680  29.990   2.402
85459W        W53853   6.293  34.374  10.639
85460W        W53854  11.105  17.201  10.635
85461W        W53855  23.427  27.300  12.027
85462W        W53856   5.870  40.869  13.496
85463W        W53857  26.654  25.460  12.017
85464W        W53858   7.577  25.771  12.422
85465W        W53859  41.976  33.579  14.452
85466W        W53860  32.958   3.631   0.250
85467W        W53861  11.054  34.314  10.891
85468W        W53862  37.079  23.745  11.513
85469W        W53863  24.290  11.474  14.999
85470W        W53864  38.353   0.215  11.597
85471W        W53865  41.806  18.702  12.983
85472W        W53866  40.298  39.406   9.724
85473W        W53867  19.415  16.602   1.905
85474W        W53868  44.962  43.882  14.396
85475W        W53869  35.468   2.464   3.370
85476W        W53870  27.871  32.075  14.363
85477W        W53871  31.378  19.344  11.627
85478W        W53872  28.551  11.631  12.947
85479W        W53873   7.379  32.979  13.346
85480W        W53874  30.363  42.506   1.166
85481W        W53875   5.957   5.373  14.021
85482W        W53876  43.692  34.136   1.184
85483W        W53877  18.620  28.475   1.849
85484W        W53878  31.322  17.374  11.357
85485W        W53879  14.025   9.741  13.397
85486W        W53880  35.857  37.836  12.958
85487W        W53881  28.576   9.094  12.415
85488W        W53882  16.292   6.770  13.835
85489W        W53883  29.654  14.541  14.226
85490W        W53884   4.653  41.559  13.979
85491W        W53885  27.119   9.804   0.510
85492W        W53886  15.551   2.476   4.183
85493W        W53887  10.492  22.614   0.815
85494W        W53888  43.744  35.918   1.463
85495W        W53889  18.485  33.103  13.047
85496W        W53890  23.583  13.184  12.061
85497W        W53891  36.388  40.356  12.604
85498W        W53892  43.096  12.912  11.455
85499W        W53893  16.965  20.240  13.910
85500W        W53894   8.181  22.148   3.985
85501W        W53895  33.666  38.564   3.086
85502W        W53896  41.344  23.478  14.175
85503W        W53897  37.265   1.371  13.288
85504W        W53898  11.889  13.080  13.334
85505W        W53899  26.279  23.732  14.366
85506W        W53900  37.272  37.687  11.493
85507W        W53901  33.011  14.743   2.358
85508W        W53902  19.261  34.521  13.018
85509W        W53903  38.596  39.247  13.972
85510W        W53904  16.029   6.924  12.828
85511W        W53905   9.827  13.295  11.398
85512W        W53906   5.557  19.974  14.441
85513W        W53907  19.620  42.814  14.614
85514W        W53908  44.351   5.097  13.505
85515W        W53909  10.444  18.676   1.364
85516W        W53910  19.041  38.670   0.679
85517W        W53911  11.916  15.868   0.737
85518W        W53912   1.064  42.878   4.579
85519W        W53913  16.898  36.384   3.450
85520W        W53914   2.522  28.110   0.775
85521W        W53915  15.411  37.568   4.568
85522W        W53916   5.878  15.771   2.270
85523W        W53917  27.026  17.652  10.528
85524W        W53918   8.884  31.999   5.195
85525W        W53919  27.537  21.922  10.967
85526W        W53920  12.093  38.937  11.542
85527W        W53921  12.788   0.151   3.981
85528W        W53922  27.045  32.425  11.978
85529W        W53923  16.489   4.794  12.028
85530W        W53924  38.248  20.833   4.859
85531W        W53925  28.151   8.946   0.267
85532W        W53926  15.781  30.412   2.201
85533W        W53927  40.502  12.576  14.359
85534W        W53928  12.624  12.245  11.586
85535W        W53929  17.577  23.494  14.808
85536W        W53930  23.263  21.943   1.317
85537W        W53931  36.578  40.991   3.205
85538W        W53932  31.686  35.425   0.749
85539W        W53933   2.103  36.093   1.186
85540W        W53934  22.282   0.638   0.094
85541W        W53935   4.341  38.279   4.303
85542W        W53936  33.373   8.310  14.935
85543W        W53937  27.108  17.527  12.959
85544W        W53938  14.403  34.319   0.268
85545W        W53939  26.902  24.020   1.806
85546W        W53940  33.557  19.201  10.828
85547W        W53941  39.063  17.601  11.063
85548W        W53942   1.986  24.589  13.998
85549W        W53943   7.153   0.720   2.635
85550W        W53944  40.957  22.103   0.633
85551W        W53945  31.383  28.582   0.917
85552W        W53946  19.494  32.614   0.375
85553W        W53947  10.845  44.462  13.525
85554W        W53948  43.608  39.535  10.867
85555W        W53949  29.879  33.281  12.879
85556W        W53950   6.098  31.007   3.824
85557W        W53951   0.408  31.618  11.674
85558W        W53952  44.409  44.222  10.545
85559W        W53953  13.413  29.372  13.080
85560W        W53954   9.765  13.115   2.908
85561W        W53955  27.173  15.974   2.465
85562W        W53956  21.276  24.686  13.325
85563W        W53957  33.714  19.928  13.990
85564W        W53958   5.229  40.204   2.004
85565W        W53959   4.240  35.838   4.810
85566W        W53960  11.777  37.516  13.379
85567W        W53961   8.070  28.035   3.300
85568W        W53962  23.219  43.752  12.160
85569W        W53963  39.495  16.566   2.342
85570W        W53964  27.444  32.508   0.977
85571W        W53965  34.800  18.106  11.635
85572W        W53966  21.703  32.675   3.130
85573W        W53967  39.012  17.829  12.521
85574W        W53968  27.607   8.600  13.367
85575W        W53969  27.186   3.781   4.043
85576W        W53970  14.386   6.946  13.928
85577W        W53971   3.414  12.435  12.997
85578W        W53972  35.368   9.181  14.256
85579W        W53973  39.025  28.286  11.299
85580W        W53974  20.276  41.318   0.972
85581W        W53975   5.299  21.078  10.768
85582W        W53976  38.163   2.745   0.387
85583W        W53977  30.643  42.516  12.157
85584W        W53978   7.570   7.155  10.629
85585W        W53979  19.488  29.582   4.059
85586W        W53980  41.287  26.869   1.339
85587W        W53981  31.911  23.745   1.856
85588W        W53982  22.599  13.694  12.854
85589W        W53983  29.303  29.699   3.770
85590W        W53984  22.321   5.355  11.685
85591W        W53985   3.248  10.459  14.827
85592W        W53986  15.621   5.692  12.068
85593W        W53987  25.109  40.437   1.046
85594W        W53988  25.980  23.136   1.298
85595W        W53989  36.156  28.003   4.518
85596W        W53990  14.843  31.259  13.412
85597W        W53991  24.439  31.039  12.536
85598W        W53992  28.375  27.508  14.492
85599W        W53993   7.828   1.032   4.259
85600W        W53994   7.479  31.790   4.959
85601W        W53995  30.306  18.597  12.851
85602W        W53996  32.490  10.434   0.325
85603W        W53997  38.036  43.203   4.171
85604W        W53998   5.641  30.119   0.150
85605W        W53999   5.244  16.765  11.909
85606W        W54000  25.135  11.579  13.035
85607W        W54001  15.192  41.168  14.089
85608W        W54002  16.002   5.684   5.298
85609W        W54003  15.802  25.562  14.763
85610W        W54004  27.723   9.169   3.884
85611W        W54005  10.101  28.127  14.812
85612W        W54006  42.484  27.854  10.769
85613W        W54007  32.387   5.643   3.702
85614W        W54008  23.860   6.846   3.588
85615W        W54009   8.200  18.019   2.851
85616W        W54010  43.349  28.886   2.660
85617W        W54011  36.114  20.740  13.859
85618W        W54012  30.027  22.189   4.499
85619W        W54013  17.866   0.884  11.189
85620W        W54014  43.900  43.885  10.896
85621W        W54015  20.904   1.218  11.606
85622W        W54016   2.013  32.253  11.450
85623W        W54017  13.292   7.222  13.324
85624W        W54018  38.393  21.242   1.681
85625W        W54019  27.446  34.156   4.643
85626W        W54020  33.316  20.124  14.612
85627W        W54021  15.160   3.633  12.434
85628W        W54022  20.015  32.072  14.362
85629W        W54023  33.087  31.091  12.942
85630W        W54024   5.378  40.807  10.580
85631W        W54025  39.454   9.647  14.950
85632W        W54026  20.668   1.273   3.677
85633W        W54027  27.923  37.165   3.233
85634W        W54028   1.613  22.983  14.792
85635W        W54029  41.015  37.934   0.731
85636W        W54030  37.882  36.551  12.417
85637W        W54031  35.136  21.793  14.320
85638W        W54032  15.362   0.834  12.574
85639W        W54033  37.597  24.011   4.905
85640W        W54034  16.091  18.692  14.243
85641W        W54035  25.903  18.636   0.506
85642W        W54036  11.076  37.130   4.496
85643W        W54037  31.163   5.265  12.433
85644W        W54038  37.435  32.848   4.236
85645W        W54039  37.535  21.344  12.873
85646W        W54040  19.715  40.308   0.416
85647W        W54041  38.625  20.086  14.701
85648W        W54042  32.534  29.799  13.057
85649W        W54043  43.341  15.228   4.896
85650W        W54044  13.662   9.764   3.401
85651W        W54045   5.151  28.371  11.819
85652W        W54046  44.878  19.574   3.677
85653W        W54047  24.273   8.280  11.539
85654W        W54048  11.510  10.520   9.848
85655W        W54049   3.275  30.691   0.673
85656W        W54050  12.425   1.931  13.797
85657W        W54051  11.184  29.978   2.373
85658W        W54052  30.013  33.930  14.854
85659W        W54053  29.745  28.980   0.380
85660W        W54054  29.442  35.599  12.904
85661W        W54055   1.496  12.207  10.848
85662W        W54056   6.433  35.941   0.896
85663W        W54057  31.532  31.004   4.261
85664W        W54058  37.125  43.846  13.033
85665W        W54059   5.249  22.695  12.098
85666W        W54060  41.679  37.979  11.327
85667W        W54061  14.701   3.298   0.212
85668W        W54062  27.987   5.757   4.281
85669W        W54063  20.044  36.142   2.272
85670W        W54064   0.099   9.156  11.218
85671W        W54065  33.204  33.383   2.818
85672W        W54066  13.278  20.991   0.806
85673W        W54067   0.838  36.482   3.707
85674W        W54068   5.945  28.442  10.466
85675W        W54069   4.885  25.562   4.535
85676W        W54070   8.682   1.452   3.520
85677W        W54071  28.423  31.388   2.134
85678W        W54072  10.548  41.773  11.034
85679W        W54073  34.370  13.236   4.491
85680W        W54074   4.223   0.382   4.909
85681W        W54075  35.941  38.714   2.330
85682W        W54076  28.998   7.130  11.751
85683W        W54077  11.637  15.333  12.055
85684W        W54078  44.272  31.553   4.280
85685W        W54079  12.095  43.798   0.730
85686W        W54080  43.010  21.158  12.009
85687W        W54081  34.782  41.536  13.856
85688W        W54082   7.704  41.856  11.054
85689W        W54083  13.724   1.886  12.162
85690W        W54084  38.823  38.499   3.282
85691W        W54085  21.174  36.200   4.562
85692W        W54086   1.838  39.313  12.821
85693W        W54087  23.709  24.199  14.476
85694W        W54088  28.925  32.590  12.119
85695W        W54089  17.303  26.814  11.067
85696W        W54090  26.873  38.839   3.275
85697W        W54091  38.475  25.694   4.788
85698W        W54092  35.962  41.789  10.751
85699W        W54093  12.712  41.095  14.056
85700W        W54094  27.593   3.116   1.747
85701W        W54095  20.319  43.315   4.533
85702W        W54096  21.827   8.886  10.193
85703W        W54097   5.111   3.057   4.995
85704W        W54098  21.105  40.110  14.970
85705W        W54099  42.775  31.154   3.381
85706W        W54100  28.599  14.342   2.827
85707W        W54101  28.950  17.230   4.608
85708W        W54102  42.867  23.442   0.697
85709W        W54103   4.089  39.743  14.691
85710W        W54104  18.493  35.008   1.271
85711W        W54105   0.238  10.231  12.884
85712W        W54106   0.177   0.231  12.597
85713W        W54107  38.164  41.905   2.773
85714W        W54108  14.354  10.933  14.298
85715W        W54109  38.622  23.181   0.919
85716W        W54110  40.075  25.594   1.551
85717W        W54111  10.399  36.834  12.495
85718W        W54112   1.045  26.776   3.264
85719W        W54113  43.982  27.822  12.823
85720W        W54114  11.177  24.256  11.498
85721W        W54115  19.788  33.751   3.872
85722W        W54116  43.285  22.095   4.122
85723W        W54117  21.332  30.329   1.139
85724W        W54118   8.247  30.699   1.693
85725W        W54119  33.607   7.274   4.077
85726W        W54120  13.563  18.170   1.477
85727W        W54121   0.791   9.409   1.365
85728W        W54122  32.536  18.371   3.766
85729W        W54123  44.246   3.197   4.700
85730W        W54124  20.674  33.570   0.844
85731W        W54125  24.845  42.706   5.070
85732W        W54126  41.948  42.851  11.185
85733W        W54127  35.542  33.879  13.668
85734W        W54128  41.418  29.936  13.477
85735W        W54129  25.621  26.121  14.237
85736W        W54130   5.647  32.528   4.846
85737W        W54131  34.434   2.384  14.266
85738W        W54132  11.237   4.723   2.370
85739W        W54133   7.165  27.450   0.822
85740W        W54134  34.191  41.328  11.256
85741W        W54135   8.262  13.180  14.494
85742W        W54136   5.985   0.473   0.614
85743W        W54137  33.982  39.163  11.630
85744W        W54138  29.856  27.490  14.551
85745W        W54139  24.572  41.073   2.433
85746W        W54140   4.507  21.073  12.427
85747W        W54141  33.989   2.056   4.863
85748W        W54142   3.757  14.626   0.904
85749W        W54143  35.486  39.154   1.677
85750W        W54144   1.932  33.535   1.075
85751W        W54145  33.587  35.965  13.793
85752W        W54146  11.707  19.989   3.271
85753W        W54147   9.894   7.921  10.380
85754W        W54148  40.981  43.536   4.210
85755W        W54149  42.382  10.909   4.619
85756W        W54150   8.735   4.411  10.492
85757W        W54151  26.850  19.038   1.598
85758W        W54152  24.279  35.117   0.955
85759W        W54153  12.301  35.425   1.857
85760W        W54154  24.757  39.937  14.496
85761W        W54155  36.970  40.086  10.938
85762W        W54156  27.416   4.159  12.644
85763W        W54157  26.226   5.245   1.776
85764W        W54158   8.591   7.543  10.782
85765W        W54159  37.317  32.350   0.947
85766W        W54160  35.613   1.429  12.423
85767W        W54161  25.812   2.410  11.654
85768W        W54162  37.175  44.449   2.899
85769W        W54163  30.314  15.309  11.155
85770W        W54164  44.968  37.611   3.683
85771W        W54165  28.224   4.758   4.210
85772W        W54166  13.534   9.152  12.130
85773W        W54167  15.557   3.513  10.130
85774W        W54168   2.892   7.775   0.409
85775W        W54169  16.817  26.568   0.942
85776W        W54170  18.599   8.355   0.352
85777W        W54171  34.127  10.594   3.814
85778W        W54172   1.718  22.456   1.388
85779W        W54173  30.164   2.701  10.553
85780W        W54174   5.248   8.406   0.529
85781W        W54175  40.454  19.627   4.135
85782W        W54176  13.334  44.118  12.366
85783W        W54177  21.199  34.091   1.056
85784W        W54178  35.370  23.747  11.689
85785W        W54179   2.686   6.852  11.863
85786W        W54180  23.747  23.042   1.912
85787W        W54181  33.442   9.895  13.944
85788W        W54182  42.502   2.864   4.751
85789W        W54183  25.886  26.072   4.807
85790W        W54184  18.639  15.123   4.034
85791W        W54185  13.770  14.678   2.038
85792W        W54186   8.447  33.340  13.341
85793W        W54187  19.113  39.255   3.061
85794W        W54188  43.828  30.766  12.568
85795W        W54189  15.632  39.249  13.232
85796W        W54190   2.661  15.345   2.734
85797W        W54191  14.171   1.160   4.126
85798W        W54192  35.384  28.958  13.981
85799W        W54193  14.096  33.817  13.487
85800W        W54194  44.909  16.864  13.343
85801W        W54195  15.332  11.692   0.866
85802W        W54196  35.850  26.412   2.067
85803W        W54197  13.200  30.025   4.874
85804W        W54198  38.485  21.033  13.340
85805W        W54199   2.581  31.412  11.604
85806W        W54200   3.134   2.866   2.108
85807W        W54201  40.920  25.695   2.801
85808W        W54202  28.383  12.645   0.688
85809W        W54203  20.663   6.794   4.897
85810W        W54204  20.666  22.053   3.386
85811W        W54205   2.524   9.718  14.762
85812W        W54206  29.949  14.847  12.452
85813W        W54207  30.698  44.823  14.493
85814W        W54208  19.458  24.558  11.859
85815W        W54209  23.406  15.518   4.543
85816W        W54210  36.623   2.478  13.221
85817W        W54211  26.781  34.339  11.017
85818W        W54212   6.828  32.237  12.047
85819W        W54213  43.786  28.928   1.076
85820W        W54214  24.267  21.259   2.607
85821W        W54215  15.338  40.114  13.872
85822W        W54216  15.499  25.938   2.314
85823W        W54217  12.148  14.378  11.179
85824W        W54218  13.754  25.007   4.935
85825W        W54219  11.942  40.341   0.356
85826W        W54220  27.859  23.133  12.144
85827W        W54221   0.228  38.083  12.611
85828W        W54222   6.598  37.562   9.937
85829W        W54223  31.091  38.682   5.176
85830W        W54224  13.078  30.451   3.781
85831W        W54225   2.369  16.968   0.911
85832W        W54226  34.617  37.854   4.311
85833W        W54227  30.651   0.840   0.488
85834W        W54228  25.058  22.030  11.189
85835W        W54229  32.865  17.723   0.929
85836W        W54230  24.557  39.414  10.979
85837W        W54231  44.958  18.794  13.850
85838W        W54232   3.526  41.115   4.219
85839W        W54233  39.212   5.775  11.563
85840W        W54234  44.710   1.522   1.934
85841W        W54235  23.850  34.575   3.174
85842W        W54236  18.790   8.228   3.806
85843W        W54237  44.295   5.553  13.938
85844W        W54238  14.313   5.175   1.479
85845W        W54239   8.897  18.189   1.840
85846W        W54240  38.573  30.629   3.547
85847W        W54241  34.438   3.140   3.254
85848W        W54242  24.196  42.463  11.038
85849W        W54243  18.196  41.498   4.937
85850W        W54244  35.035  10.843  13.223
85851W        W54245  11.853  27.682   1.898
85852W        W54246  28.014  23.182  14.092
85853W        W54247  33.470   8.882   2.702
85854W        W54248  26.188  19.901   0.236
85855W        W54249  18.110  20.322   1.930
85856W        W54250  29.717  29.990  12.502
85857W        W54251  30.792   9.525  13.815
85858W        W54252   6.123   9.382  13.644
85859W        W54253  41.406  39.937  10.672
85860W        W54254   2.781  19.317   3.203
85861W        W54255  11.727  32.454   0.459
85862W        W54256  25.499  44.426  11.998
85863W        W54257  21.799  23.648   0.979
85864W        W54258   6.167  22.996  14.073
85865W        W54259  20.354  18.661  10.661
85866W        W54260  15.242  38.795  14.383
85867W        W54261  18.326   0.258  14.249
85868W        W54262  39.383  30.518  11.685
85869W        W54263  35.324  12.990   2.017
85870W        W54264  26.457  12.430  11.459
85871W        W54265   8.916  24.292   1.911
85872W        W54266   3.189   1.819  14.542
85873W        W54267   3.371  21.975   2.114
85874W        W54268  35.981   6.179  12.079
85875W        W54269   0.454  12.297  11.017
85876W        W54270  15.857   2.867  11.332
85877W        W54271  14.175   9.183  13.305
85878W        W54272   0.509  30.040  10.600
85879W        W54273  24.854  16.763  10.788
85880W        W54274  18.240  38.928   3.397
85881W        W54275  13.297  44.887   2.414
85882W        W54276   4.256   3.754  10.319
85883W        W54277   5.568  32.833   2.288
85884W        W54278  44.555  40.732   1.298
85885W        W54279  34.874  40.055   3.802
85886W        W54280  10.298  13.483  14.304
85887W        W54281  40.981  21.072  10.576
85888W        W54282   6.193  19.320  13.103
85889W        W54283  10.983   7.695   0.496
85890W        W54284   5.965  38.466  10.567
85891W        W54285  35.122  36.384   1.277
85892W        W54286  21.649   8.901  12.343
85893W        W54287   4.444  14.772  11.086
85894W        W54288   0.357  29.653  14.764
85895W        W54289   5.887   6.259   2.806
85896W        W54290   8.361  18.170   0.966
85897W        W54291  18.163  15.248   5.170
85898W        W54292  18.108   9.841  10.498
85899W        W54293  26.741   7.888   0.477
85900W        W54294  12.013  26.708  12.556
85901W        W54295  25.032  25.421  13.297
85902W        W54296  40.019  41.423   4.805
85903W        W54297  39.496  27.690   0.484
85904W        W54298   9.072  36.251   4.509
85905W        W54299   1.231  26.135  14.787
85906W        W54300   4.419  11.086   3.392
85907W        W54301  13.392   6.244   1.382
85908W        W54302  34.889  14.472  11.587
85909W        W54303  21.531  32.980  12.863
85910W        W54304   9.213   4.756   2.324
85911W        W54305   1.233   9.621  11.797
85912W        W54306  21.536  22.911   2.190
85913W        W54307  10.051  42.583  10.942
85914W        W54308   2.705   7.600  12.566
85915W        W54309   8.841   4.157  13.875
85916W        W54310  16.785  10.455  13.753
85917W        W54311  33.076  33.031   3.211
85918W        W54312  10.254   2.827  13.799
85919W        W54313  11.191  25.717   0.062
85920W        W54314  16.976  30.527   1.410
85921W        W54315  12.620  34.691   1.543
85922W        W54316  42.686  23.492  14.180
85923W        W54317  17.734   1.517   2.577
85924W        W54318  40.546  24.021  12.079
85925W        W54319  19.753  12.833  13.906
85926W        W54320  13.615  25.794  13.163
85927W        W54321  11.134  31.034   1.700
85928W        W54322  10.861  32.014  12.947
85929W        W54323   0.886  11.714  14.585
85930W        W54324  21.289  26.985   1.188
85931W        W54325  21.680  44.693   4.114
85932W        W54326   3.637   2.291  10.691
85933W        W54327  13.322   4.620   3.347
85934W        W54328  43.327  15.219  11.675
85935W        W54329  44.559   0.506   3.421
85936W        W54330  35.002  25.480  12.123
85937W        W54331   6.864  31.352   2.348
85938W        W54332  25.076   8.717   3.613
85939W        W54333  17.874  23.529  14.335
85940W        W54334   3.600   8.894  12.077
85941W        W54335   4.534  20.857   1.733
85942W        W54336  39.296  18.540  13.544
85943W        W54337  13.120  34.457   2.797
85944W        W54338  24.133   1.848   2.817
85945W        W54339  26.569   5.671  14.818
85946W        W54340   0.656   2.332   2.843
85947W        W54341   7.886  23.225  11.195
85948W        W54342  33.673   1.934   0.470
85949W        W54343  38.239   4.340   3.322
85950W        W54344   7.713   0.721  13.128
85951W        W54345   2.622   1.304  14.358
85952W        W54346  13.305   5.129   3.361
85953W        W54347   5.704   3.807   4.000
85954W        W54348  14.155  19.387  10.781
85955W        W54349  10.283  43.497   1.741
85956W        W54350  13.206  43.435  11.661
85957W        W54351  26.282  18.702  11.128
85958W        W54352  29.926   7.291   1.422
85959W        W54353  41.888  22.274   1.351
85960W        W54354  26.463  26.969   3.822
85961W        W54355  15.850  30.039   2.592
85962W        W54356  40.182   3.372   0.434
85963W        W54357  11.789  31.181   4.559
85964W        W54358  30.884  22.100  14.243
85965W        W54359  17.855  14.344   2.635
85966W        W54360  14.799  24.478   4.198
85967W        W54361  38.503   9.631  13.589
85968W        W54362  36.507  30.001  13.008
85969W        W54363  31.894   0.018  13.344
85970W        W54364  17.786  15.515   1.280
85971W        W54365   5.465   7.231  11.423
85972W        W54366  15.813  33.329   4.002
85973W        W54367  39.871   3.681   1.159
85974W        W54368  24.799   4.421   0.871
85975W        W54369   9.847  11.983   3.671
85976W        W54370  33.095   7.330   4.723
85977W        W54371  32.373  40.392   0.183
85978W        W54372   1.778  14.902  13.110
85979W        W54373  37.421   5.903  11.089
85980W        W54374  16.135  31.892  11.336
85981W        W54375   5.306   6.651  11.858
85982W        W54376  37.443   9.727  11.890
85983W        W54377  24.963  30.991   0.268
85984W        W54378  36.996  18.117  10.266
85985W        W54379  34.532  15.346  11.817
85986W        W54380  31.649   9.877   0.380
85987W        W54381  37.820  40.316   1.351
85988W        W54382   6.007   4.496  13.593
85989W        W54383   9.147  41.409  12.006
85990W        W54384  25.193  44.954   0.196
85991W        W54385  21.908  36.399   2.345
85992W        W54386  14.186  40.000  11.958
85993W        W54387  34.026  43.841   1.797
85994W        W54388  37.356  32.331  10.029
85995W        W54389  26.212  38.146  13.290
85996W        W54390   2.189  38.229  13.467
85997W        W54391  10.929  34.748   3.138
85998W        W54392  10.709   2.135  14.364
85999W        W54393  12.880  15.128   0.418
86000W        W54394  16.206  10.305   4.539
86001W        W54395  22.147   4.371   3.918
86002W        W54396   6.369  10.636  14.391
86003W        W54397   8.373   1.391  11.155
86004W        W54398  32.373  24.403  14.447
86005W        W54399   8.791  26.508  11.714
86006W        W54400   9.628   5.894   1.832
86007W        W54401  23.062   4.220  13.140
86008W        W54402  13.788  15.830  13.971
86009W        W54403   4.143   4.273  13.874
86010W        W54404  35.537  15.587   1.334
86011W        W54405  32.023  39.027   0.968
86012W        W54406  11.605   2.467   1.682
86013W        W54407  14.473  43.131   4.179
86014W        W54408  22.340  29.555   4.625
86015W        W54409  42.667  27.979  14.294
86016W        W54410  14.571  10.151  12.368
86017W        W54411  35.141  30.556   3.631
86018W        W54412   0.501  35.343   0.548
86019W        W54413  39.844  36.329   3.762
86020W        W54414   7.892  20.752  14.751
86021W        W54415  10.720  21.204  14.838
86022W        W54416   2.737   0.799  14.508
86023W        W54417  17.631  38.348   2.893
86024W        W54418  16.229   6.159  13.952
86025W        W54419  31.954  25.698   3.105
86026W        W54420   6.653   3.471  13.874
86027W        W54421  12.663  25.342  11.531
86028W        W54422  16.874  37.460   0.944
86029W        W54423   9.307  31.463   1.293
86030W        W54424  34.985   3.275   1.990
86031W        W54425  34.403   5.946   2.489
86032W        W54426  23.018   2.437  14.893
86033W        W54427  42.475  31.593  10.380
86034W        W54428  18.050  23.922   2.307
86035W        W54429  27.355  19.549   3.173
86036W        W54430  21.991  41.504  14.120
86037W        W54431   3.908   8.814  12.499
86038W        W54432   9.217  21.258   4.993
86039W        W54433  12.332   3.699   4.669
86040W        W54434   2.867  22.605  11.294
86041W        W54435  17.752  33.531  14.979
86042W        W54436  30.275  34.697   1.122
86043W        W54437   4.540  23.320  11.494
86044W        W54438  13.723  37.436   2.705
86045W        W54439   4.195  43.771  13.954
86046W        W54440  14.632   4.399  13.833
86047W        W54441  38.278  28.939   0.080
86048W        W54442  33.853   2.356  12.409
86049W        W54443  43.922  32.678   3.101
86050W        W54444   4.952  11.260  12.606
86051W        W54445   4.515  21.734   1.851
86052W        W54446  31.618  42.600   1.379
86053W        W54447   6.885  15.582   2.289
86054W        W54448  28.170  17.173  12.358
86055W        W54449   8.787  44.944   1.281
86056W        W54450  10.124   7.923   3.660
86057W        W54451  21.287  29.933  13.944
86058W        W54452  17.773   4.033   3.226
86059W        W54453  35.376  12.814  12.520
86060W        W54454  27.105   9.097  12.648
86061W        W54455  40.205  12.744  12.745
86062W        W54456  32.832  15.567  12.104
86063W        W54457  42.581  39.260  14.938
86064W        W54458  10.513  39.218   1.744
86065W        W54459  13.626  25.226  11.658
86066W        W54460  13.705  14.652  12.352
86067W        W54461  38.466  11.798   2.933
86068W        W54462   8.946  13.957   0.555
86069W        W54463  31.980   0.005  14.751
86070W        W54464  27.460  26.428   0.950
86071W        W54465  18.993  19.380  13.450
86072W        W54466  18.245  29.221   3.251
86073W        W54467  34.485  11.834  13.029
86074W        W54468  38.100   3.821  10.775
86075W        W54469  43.770  18.251   2.264
86076W        W54470  23.197  22.119   2.262
86077W        W54471   2.198  31.356  11.265
86078W        W54472  39.548  20.734   0.809
86079W        W54473  35.174  43.995  10.360
86080W        W54474  17.672  27.262   0.270
86081W        W54475  29.999   3.202   2.740
86082W        W54476   7.464   6.683  14.320
86083W        W54477  18.000   6.427  13.529
86084W        W54478   8.501  38.633   0.361
86085W        W54479  18.813  10.315   1.778
86086W        W54480   8.446  14.821  12.429
86087W        W54481  42.975  31.591   3.088
86088W        W54482  24.124  35.906   1.860
86089W        W54483  32.378  38.240  11.996
86090W        W54484  41.072  31.278   0.577
86091W        W54485  32.114  17.786  11.432
86092W        W54486   2.005  19.038  11.239
86093W        W54487  21.097   2.373  14.311
86094W        W54488  11.902  17.237  13.373
86095W        W54489  36.543  10.411  14.213
86096W        W54490  19.823  38.686  13.482
86097W        W54491  32.009  34.198   1.645
86098W        W54492  16.076  11.164  12.898
86099W        W54493  15.218  17.374  12.091
86100W        W54494  37.655  11.146  10.629
86101W        W54495   9.742  40.602  13.467
86102W        W54496   4.991  36.954   3.672
86103W        W54497  38.368  26.171   4.994
86104W        W54498  23.987  20.794  14.515
86105W        W54499   9.840  13.667  12.948
86106W        W54500  41.002  13.191  14.838
86107W        W54501  12.721   5.208  12.389
86108W        W54502   3.266  14.170  13.445
86109W        W54503  44.747  42.517  11.268
86110W        W54504  27.737  24.610  11.278
86111W        W54505  12.386  32.282   3.824
86112W        W54506  32.082   1.317  11.187
86113W        W54507  40.514   3.845   2.931
86114W        W54508  11.146  28.945  11.064
86115W        W54509   4.785  26.736   3.724
86116W        W54510  15.220  12.385   1.366
86117W        W54511  40.613   6.436   1.908
86118W        W54512  34.869   4.888   2.938
86119W        W54513  34.484  11.659  13.956
86120W        W54514  33.972   4.348   1.168
86121W        W54515  22.480  33.085  13.953
86122W        W54516  31.345  18.583  12.846
86123W        W54517  25.611  42.826   1.670
86124W        W54518  11.295  36.117   1.290
86125W        W54519   0.233  37.801   4.669
86126W        W54520  22.890  22.033  14.244
86127W        W54521   9.647   6.496   3.424
86128W        W54522   6.848  43.308   1.377
86129W        W54523  28.954  11.703   4.573
86130W        W54524  29.399  43.274  12.868
86131W        W54525  18.768  29.148  12.152
86132W        W54526  30.918  29.368   1.861
86133W        W54527   8.131  34.598   4.208
86134W        W54528  14.244   5.417  14.976
86135W        W54529  31.571  17.100  12.323
86136W        W54530  23.570   7.124   1.854
86137W        W54531  33.964  44.000   0.480
86138W        W54532  40.494   7.136  11.149
86139W        W54533  16.169   7.395  13.301
86140W        W54534   2.888   0.132   1.140
86141W        W54535  11.142   7.620   0.018
86142W        W54536  19.791  29.704  12.087
86143W        W54537  23.665  37.327   3.176
86144W        W54538  20.248  13.345  14.577
86145W        W54539  28.924  17.302  14.823
86146W        W54540  32.447  35.082   4.818
86147W        W54541  13.244  30.517  11.568
86148W        W54542  31.925  15.857   4.140
86149W        W54543  15.254  36.343   4.166
86150W        W54544  38.725  43.846   4.945
86151W        W54545  11.770  43.077  13.868
86152W        W54546  34.022  39.474  12.061
86153W        W54547  38.751  44.426   1.738
86154W        W54548  31.885  21.541   4.215
86155W        W54549  11.771  29.818   1.680
86156W        W54550  38.595  21.174   4.680
86157W        W54551  16.351  42.376  12.514
86158W        W54552  44.442  35.664  10.155
86159W        W54553  35.352   5.656   3.845
86160W        W54554  34.376  24.981  13.037
86161W        W54555  32.472  41.877   1.856
86162W        W54556  30.983  43.179  14.322
86163W        W54557  14.726  12.418   4.055
86164W        W54558   7.259  19.567  13.115
86165W        W54559  28.023  43.884   0.798
86166W        W54560  20.969   3.855  12.445
86167W        W54561  12.680  30.242   1.895
86168W        W54562  24.955  26.728  11.184
86169W        W54563   4.601  26.535  11.156
86170W        W54564   1.686   2.931   3.282
86171W        W54565  31.831   7.831   0.481
86172W        W54566   3.277  18.222   0.436
86173W        W54567  30.035  24.740   1.127
86174W        W54568  27.506  16.839  10.301
86175W        W54569  28.448  23.044  13.311
86176W        W54570  32.937  23.635   0.686
86177W        W54571  38.020  22.224   3.811
86178W        W54572  22.067  37.356  13.829
86179W        W54573  25.701  33.440   2.872
86180W        W54574  16.360  23.135  13.865
86181W        W54575  37.980   3.448  14.257
86182W        W54576  12.663  31.167  12.792
86183W        W54577  22.721  10.731   0.433
86184W        W54578  35.995  40.008  13.527
86185W        W54579  35.642  22.195  12.495
86186W        W54580  10.311  31.435   0.042
86187W        W54581  33.943  16.384  12.080
86188W        W54582  30.746  22.501  12.574
86189W        W54583  13.345  16.819   1.063
86190W        W54584  35.348  13.632   1.339
86191W        W54585  42.531   9.306  10.639
86192W        W54586  22.199   7.712   0.988
86193W        W54587  20.179  16.864  10.591
86194W        W54588  30.134  42.500  12.123
86195W        W54589  11.198  39.270   2.234
86196W        W54590   7.263  12.120  14.264
86197W        W54591  19.749  33.515   1.323
86198W        W54592  17.629  40.769   3.676
86199W        W54593  33.885  44.909   0.949
86200W        W54594  40.735  11.089  11.092
86201W        W54595  15.278  20.090   0.421
86202W        W54596  35.871  22.516   2.493
86203W        W54597  39.911  35.665   4.334
86204W        W54598  34.964  20.299   0.242
86205W        W54599  21.282  30.404   3.533
86206W        W54600  43.768  32.789   1.765
86207W        W54601  34.084  40.194   0.225
86208W        W54602   6.177  42.848  13.021
86209W        W54603  42.995  26.494  14.503
86210W        W54604  17.702  30.080   3.722
86211W        W54605   3.893  26.336  10.995
86212W        W54606  11.596  34.093   4.807
86213W        W54607  33.936   4.388  13.764
86214W        W54608  35.603  39.120   0.804
86215W        W54609  43.244  42.515   2.322
86216W        W54610  31.929  39.385  14.019
86217W        W54611   9.842   7.018   4.503
86218W        W54612  17.573  23.025   3.983
86219W        W54613  25.743  12.757  11.093
86220W        W54614  19.357  39.030  12.122
86221W        W54615   8.705   3.073  11.989
86222W        W54616   6.930   7.415  14.946
86223W        W54617  39.361  43.880   4.235
86224W        W54618  41.492  28.895   0.812
86225W        W54619   0.421  33.095   3.609
86226W        W54620  21.233  28.818  12.562
86227W        W54621  41.708  10.206  10.202
86228W        W54622  36.274   7.378   2.338
86229W        W54623  26.508  10.312   1.160
86230W        W54624  26.109  21.858  14.075
86231W        W54625  33.171  27.678  13.345
86232W        W54626  22.102  26.181   9.846
86233W        W54627  17.548  14.871  10.990
86234W        W54628  37.849  25.626   0.698
86235W        W54629   5.322  12.391  10.685
86236W        W54630  26.824   9.750  12.026
86237W        W54631  40.108  30.665   4.928
86238W        W54632  44.832  28.344   1.194
86239W        W54633  38.216  15.949   3.280
86240W        W54634   3.742  22.084   1.740
86241W        W54635  15.394  29.034  11.988
86242W        W54636  33.484  21.286  12.499
86243W        W54637  36.560  17.284   1.264
86244W        W54638  44.411  44.379  11.911
86245W        W54639  27.945   2.876   1.388
86246W        W54640   6.359  28.189  13.020
86247W        W54641  37.565  41.578  11.930
86248W        W54642  21.208  30.152  12.117
86249W        W54643  43.243  30.629  13.446
86250W        W54644  38.349  35.097   4.802
86251W        W54645  13.573   1.365   0.563
86252W        W54646  36.863  32.659  11.538
86253W        W54647  21.167   6.384  11.556
86254W        W54648  10.292  41.076  14.417
86255W        W54649  39.085   8.880   3.359
86256W        W54650  35.776  26.967  11.098
86257W        W54651  30.499  42.776   1.936
86258W        W54652  25.407  12.321  11.339
86259W        W54653  26.047  37.537   0.458
86260W        W54654  40.029  39.806  11.456
86261W        W54655  41.977   3.643  13.071
86262W        W54656  28.712  30.851  12.430
86263W        W54657  33.655   2.499   3.349
86264W        W54658  14.584  12.668  11.571
86265W        W54659   5.286   5.960  13.136
86266W        W54660  33.977  10.463   3.344
86267W        W54661  29.375  42.724   2.730
86268W        W54662  41.606  38.814   0.871
86269W        W54663  12.684  25.946   3.579
86270W        W54664  18.034  30.969  14.753
86271W        W54665   1.841  32.464   3.286
86272W        W54666  15.193  35.596  11.595
86273W        W54667  29.661  42.825   3.636
86274W        W54668   8.782  28.690  13.822
86275W        W54669  17.584  15.881  12.482
86276W        W54670  35.440  35.776  11.696
86277W        W54671   9.264  42.504   0.983
86278W        W54672  18.740  17.492  11.773
86279W        W54673  39.656  43.753   1.855
86280W        W54674  19.673  34.507  10.431
86281W        W54675  11.180  14.789   2.559
86282W        W54676  10.878  33.488  10.259
86283W        W54677   0.704  38.762  14.548
86284W        W54678  42.425  29.824  14.290
86285W        W54679  10.630  17.503   4.537
86286W        W54680  28.280  24.881   2.573
86287W        W54681  41.873  31.800   1.645
86288W        W54682   4.151  30.600   2.102
86289W        W54683  41.870   8.098   1.771
86290W        W54684  43.727  14.529   1.313
86291W        W54685  16.923  23.960   0.740
86292W        W54686  15.670  44.191  12.223
86293W        W54687  32.483   2.405  12.135
86294W        W54688  26.000  44.732   1.860
86295W        W54689   9.488   8.733   3.696
86296W        W54690  15.228  13.652   0.987
86297W        W54691   2.764  16.237   4.753
86298W        W54692   7.210  42.706  13.868
86299W        W54693  20.985  41.511   3.810
86300W        W54694   0.207  32.551  11.685
86301W        W54695  17.991  38.060  14.262
86302W        W54696  19.699  29.056   4.910
86303W        W54697  33.511   4.384  10.667
86304W        W54698  36.288  19.613   2.320
86305W        W54699   1.347  34.473  10.860
86306W        W54700  20.504  15.105   2.231
86307W        W54701  19.047  12.231  12.424
86308W        W54702   9.611  10.927   4.122
86309W        W54703  29.140  33.064   2.768
86310W        W54704  16.401  13.313   3.259
86311W        W54705   4.427   4.583  12.585
86312W        W54706  23.416  18.182   2.254
86313W        W54707  42.912  22.071  10.730
86314W        W54708  33.517  24.512   4.711
86315W        W54709  39.973   9.180   4.130
86316W        W54710  28.019  41.249   1.866
86317W        W54711  28.492  35.149   4.303
86318W        W54712   9.736  14.762  11.176
86319W        W54713   2.337  24.032  14.433
86320W        W54714  19.614  39.322  12.562
86321W        W54715  16.542  42.850  12.487
86322W        W54716   0.518  26.656   3.194
86323W        W54717  34.160  39.989  11.313
86324W        W54718   3.881  13.704   4.229
86325W        W54719   2.129   7.659  13.383
86326W        W54720  37.346  41.070  11.609
86327W        W54721  35.406  35.956   4.954
86328W        W54722  32.342  38.046  14.479
86329W        W54723  32.229  11.474   4.673
86330W        W54724  20.475  44.920  12.975
86331W        W54725   6.804  35.644   1.721
86332W        W54726  21.683   7.730  13.002
86333W        W54727  26.013  14.048  13.400
86334W        W54728  40.766   1.863   4.063
86335W        W54729  38.280  17.251   2.283
86336W        W54730  22.657  11.141  12.308
86337W        W54731  41.299  37.920  13.780
86338W        W54732  22.945  44.229  12.144
86339W        W54733  20.821  30.156  11.486
86340W        W54734  20.342   3.291  13.948
86341W        W54735  36.384  39.087  14.390
86342W        W54736  27.124  10.889  10.376
86343W        W54737  41.808  33.068   4.678
86344W        W54738  41.305  13.965  13.048
86345W        W54739   0.753  18.042  11.623
86346W        W54740  39.144  35.499   3.358
86347W        W54741  42.269   1.948  13.322
86348W        W54742  17.724   9.540  11.758
86349W        W54743  44.412  14.122  13.790
86350W        W54744  20.663   9.064  13.028
86351W        W54745   3.850  41.100   2.226
86352W        W54746   4.771  19.651  14.463
86353W        W54747   0.514  36.194   1.810
86354W        W54748  15.528  21.340   1.693
86355W        W54749  34.860  26.866  11.093
86356W        W54750  36.873  17.300   2.663
86357W        W54751  42.595  36.990   1.951
86358W        W54752  33.355  22.610  14.922
86359W        W54753  40.049  26.730  14.276
86360W        W54754  23.408  19.150  10.535
86361W        W54755   1.593  22.745  11.256
86362W        W54756  27.081   7.166   3.046
86363W        W54757  12.557  20.953   0.313
86364W        W54758  44.773  17.265   3.413
86365W        W54759  26.946   0.757  12.108
86366W        W54760  34.693  15.863  10.244
86367W        W54761  32.459  44.971   3.237
86368W        W54762  41.285  23.240  11.137
86369W        W54763  42.151   5.188  11.685
86370W        W54764   7.422  37.288  13.349
86371W        W54765   5.643  16.965   1.890
86372W        W54766  12.353  29.329   4.814
86373W        W54767   8.047   7.946  14.363
86374W        W54768  32.853  41.358  14.052
86375W        W54769  37.414  17.767   1.858
86376W        W54770  41.922   1.131  14.454
86377W        W54771  22.474   4.469   5.119
86378W        W54772   7.418  27.386  10.727
86379W        W54773   4.415  16.770   2.829
86380W        W54774  23.968  20.489   0.907
86381W        W54775   9.818   2.426   4.942
86382W        W54776   4.723  11.920  14.877
86383W        W54777   7.230  43.369  12.384
86384W        W54778   3.159  23.484  13.020
86385W        W54779  21.611  18.975  12.778
86386W        W54780   8.853   2.260   3.862
86387W        W54781  21.555  40.892   4.494
86388W        W54782  37.106  40.270  11.993
86389W        W54783  40.470  41.510  12.970
86390W        W54784   5.160  19.274   4.396
86391W        W54785  11.334  12.914  14.635
86392W        W54786  29.690   2.388  13.381
86393W        W54787  35.351  25.480   2.852
86394W        W54788  24.277   9.856  14.697
86395W        W54789  29.957  39.985   3.691
86396W        W54790  35.020  23.767   3.371
86397W        W54791  43.738  18.276   1.069
86398W        W54792  26.412   1.517  10.979
86399W        W54793   9.776  40.959  13.855
86400W        W54794  26.952  22.579  12.493
86401W        W54795  10.904  41.460   1.457
86402W        W54796  30.523   5.417  11.668
86403W        W54797  38.049   8.290   1.304
86404W        W54798  33.934  19.337   3.295
86405W        W54799   0.008  19.190   1.464
86406W        W54800  20.791  17.011  12.886
86407W        W54801  10.184  30.053   3.375
86408W        W54802  35.524  39.346  13.908
86409W        W54803  11.769  25.977   1.479
86410W        W54804  15.115  26.059  13.943
86411W        W54805  34.662  41.518   2.507
86412W        W54806  20.267   3.230   2.809
86413W        W54807  31.808  22.941  14.821
86414W        W54808   6.445  37.875  14.830
86415W        W54809   4.805  38.495   2.390
86416W        W54810   0.212  27.484  14.893
86417W        W54811  41.058  16.128   0.466
86418W        W54812  34.643  11.901   2.693
86419W        W54813  15.666  44.455  14.109
86420W        W54814  10.359  11.653  13.321
86421W        W54815  30.846  41.906  14.122
86422W        W54816  37.213  22.831   4.944
86423W        W54817  38.489  34.942   2.250
86424W        W54818  37.967  43.707   4.130
86425W        W54819   0.738   7.335  11.612
86426W        W54820  43.907  23.928  12.005
86427W        W54821   2.196  37.894   0.368
86428W        W54822  37.010  30.247  14.522
86429W        W54823  42.400  39.305  14.426
86430W        W54824  13.803   9.333   4.120
86431W        W54825  16.647  16.273   2.307
86432W        W54826  23.100   5.874   1.419
86433W        W54827  14.716   6.132  13.147
86434W        W54828  22.090  33.376   3.873
86435W        W54829  29.500  24.268  13.407
86436W        W54830   7.744  23.385   4.105
86437W        W54831  24.261  15.769   1.199
86438W        W54832   8.637  17.644  10.714
86439W        W54833   8.747  20.579  11.042
86440W        W54834  37.520  13.236   2.155
86441W        W54835  11.259  36.447   2.700
86442W        W54836  35.207  43.527   3.278
86443W        W54837  13.282  33.605  10.817
86444W        W54838   1.849  26.123   3.912
86445W        W54839   6.289  10.054  14.456
86446W        W54840  42.984  33.772   2.006
86447W        W54841   4.625  32.968   0.942
86448W        W54842  20.269   8.208  12.983
86449W        W54843  28.997  36.485  14.506
86450W        W54844   8.668  42.994   4.799
86451W        W54845  24.609  20.264  14.874
86452W        W54846  34.995  18.158   5.219
86453W        W54847  19.362   4.306  10.977
86454W        W54848  25.110   2.210   3.641
86455W        W54849  27.483   6.651  11.926
86456W        W54850  36.521  38.988  12.509
86457W        W54851  40.318  14.272   4.974
86458W        W54852   5.909  19.356   4.918
86459W        W54853  26.528  33.633   3.189
86460W        W54854  11.799  39.002  12.016
86461W        W54855  11.919  29.963   0.446
86462W        W54856   6.236  18.459  11.555
86463W        W54857  12.051  25.593  13.834
86464W        W54858   1.568  42.914  11.242
86465W        W54859  27.683   7.439  12.061
86466W        W54860  22.026  19.111  10.627
86467W        W54861  33.545   4.532   1.964
86468W        W54862   5.356  17.760  14.278
86469W        W54863  16.266  19.923  10.779
86470W        W54864   7.126  13.151   9.630
86471W        W54865  21.926  25.541  11.775
86472W        W54866   5.041  24.098  11.067
86473W        W54867  41.929  20.052  14.913
86474W        W54868  19.629  40.516  14.867
86475W        W54869   3.013  15.834   4.480
86476W        W54870  44.267  39.524   0.795
86477W        W54871  24.237  43.370  13.799
86478W        W54872  36.118  27.008  14.894
86479W        W54873  25.819  23.482  14.410
86480W        W54874  23.874  16.190  12.444
86481W        W54875  16.094  18.170   3.613
86482W        W54876  22.958   5.511  12.141
86483W        W54877  11.529  42.803  14.781
86484W        W54878   0.755  18.156   0.353
86485W        W54879  29.102  12.701   2.371
86486W        W54880  26.602  16.521   0.889
86487W        W54881  29.743  41.882   0.207
86488W        W54882  39.791  35.840   2.304
86489W        W54883  17.315   3.552   1.054
86490W        W54884  30.112  10.850  10.665
86491W        W54885  13.909  12.574   0.833
86492W        W54886  22.528   3.246  14.494
86493W        W54887  30.357   7.440   4.182
86494W        W54888  44.619  32.797  13.593
86495W        W54889  29.464  15.837  11.998
86496W        W54890   2.778  20.597   2.637
86497W        W54891  27.575   6.155  11.982
86498W        W54892   9.721   3.741  10.581
86499W        W54893  13.537   0.898  12.876
86500W        W54894  20.888  37.095   0.353
86501W        W54895  22.775  10.276  14.495
86502W        W54896  21.734  14.048  14.670
86503W        W54897  12.141  24.764  14.484
86504W        W54898  11.199  44.290  11.315
86505W        W54899  20.624  29.634   1.347
86506W        W54900  41.961  10.802   2.172
86507W        W54901  35.414   0.175   1.232
86508W        W54902  28.096   9.179  11.098
86509W        W54903  16.017   8.713   2.185
86510W        W54904  12.173   2.392  11.151
86511W        W54905  25.354  33.958  11.156
86512W        W54906  20.443  17.383   4.560
86513W        W54907   9.748   7.448   2.340
86514W        W54908  43.474  37.568  11.123
86515W        W54909  40.867   5.045  12.583
86516W        W54910  14.264  11.769  12.072
86517W        W54911   9.821  12.229   0.744
86518W        W54912  32.008  22.562   0.108
86519W        W54913  44.133  17.196   4.137
86520W        W54914  17.525  23.070  11.999
86521W        W54915   4.199  15.187  10.904
86522W        W54916   3.048  12.366  10.241
86523W        W54917  14.093  25.255   4.582
86524W        W54918  22.256  22.734  11.943
86525W        W54919  22.448  40.583  11.207
86526W        W54920  26.391   7.254  13.778
86527W        W54921  39.924   5.146   4.129
86528W        W54922  38.857  35.031   2.624
86529W        W54923  25.769   5.339   4.275
86530W        W54924   5.190  41.430   0.959
86531W        W54925  12.307   7.929  13.993
86532W        W54926  31.863   8.666   3.124
86533W        W54927  23.075   6.270  11.674
86534W        W54928  31.995   0.466  12.487
86535W        W54929  37.312  29.523  13.232
86536W        W54930  35.273  32.012   5.335
86537W        W54931  44.761  36.998  11.683
86538W        W54932  15.410  42.789  11.584
86539W        W54933  32.364   7.402  14.867
86540W        W54934  36.980   3.222  10.560
86541W        W54935  12.701  26.151  14.303
86542W        W54936  18.599  12.356   0.576
86543W        W54937   4.799  41.472   0.246
86544W        W54938  27.519  25.123  12.879
86545W        W54939  33.421  29.531  10.670
86546W        W54940  17.368   9.190   0.896
86547W        W54941  35.562  44.656   2.864
86548W        W54942   0.405  35.827  12.866
86549W        W54943   2.159  33.038  13.998
86550W        W54944  34.610  26.719  13.967
86551W        W54945   8.886  42.281   0.178
86552W        W54946  27.549  14.463  11.537
86553W        W54947  23.973  30.236   5.210
86554W        W54948  11.102  42.005   4.544
86555W        W54949  39.038   9.317  14.183
86556W        W54950  31.287   3.914  11.982
86557W        W54951  14.843   0.864  12.573
86558W        W54952  37.359  29.473   0.798
86559W        W54953   0.934   2.102   4.557
86560W        W54954   8.991  18.702  13.319
86561W        W54955   9.247  14.592  14.451
86562W        W54956   7.332   8.887   1.977
86563W        W54957  17.669  37.903  12.646
86564W        W54958  16.749  40.690   0.698
86565W        W54959  11.211  34.267   1.376
86566W        W54960  18.214  21.781   4.491
86567W        W54961   5.400  23.348  13.830
86568W        W54962  28.930  44.507  13.095
86569W        W54963  38.606  33.620   0.193
86570W        W54964  39.803  35.572  14.276
86571W        W54965  15.602  28.419  10.562
86572W        W54966  20.811  35.045   3.849
86573W        W54967  22.549  31.853  12.840
86574W        W54968  13.284   2.794   4.100
86575W        W54969  18.211  10.916   2.865
86576W        W54970  32.958  16.990  11.126
86577W        W54971  19.871  43.717  12.940
86578W        W54972  32.291  24.043  11.114
86579W        W54973  15.194  26.623  12.007
86580W        W54974  11.114  24.522   4.472
86581W        W54975  19.841  27.797   2.828
86582W        W54976  16.665  20.030  14.290
86583W        W54977  36.487  15.624   1.891
86584W        W54978  25.592  17.792  12.014
86585W        W54979  14.184  25.821  12.397
86586W        W54980  36.092  40.453   0.512
86587W        W54981   3.333  28.579   2.787
86588W        W54982  21.021  28.685  11.993
86589W        W54983  26.727   0.793   4.541
86590W        W54984  42.078   7.635  13.775
86591W        W54985  30.772   9.743  14.305
86592W        W54986  22.100  26.506  11.138
86593W        W54987   0.335  43.372  12.059
86594W        W54988  33.913  12.342  10.430
86595W        W54989   3.071  44.392  13.358
86596W        W54990   8.445  39.945   2.017
86597W        W54991   9.792  29.887  11.255
86598W        W54992   2.437  12.092   1.846
86599W        W54993  37.973  37.307   4.527
86600W        W54994  27.394  20.567  14.652
86601W        W54995  30.679  27.029   4.178
86602W        W54996  15.852   5.245   3.155
86603W        W54997   1.008   5.935  10.425
86604W        W54998   8.212  43.552  14.775
86605W        W54999   1.298  38.344   2.203
86606W        W55000  41.928  13.637  14.011
86607W        W55001  15.530  12.449  14.345
86608W        W55002  18.056   3.962  11.066
86609W        W55003  32.579  38.932  11.236
86610W        W55004  21.402  40.591  11.156
86611W        W55005  40.806  23.386  14.967
86612W        W55006  22.140  25.424   9.781
86613W        W55007  20.259  18.122   2.352
86614W        W55008  17.820  24.129  11.631
86615W        W55009  28.090  37.423   1.598
86616W        W55010  28.661  18.780  14.892
86617W        W55011   2.292  17.406  14.332
86618W        W55012  41.438   1.520   2.275
86619W        W55013  44.043  24.652   1.636
86620W        W55014  41.003  12.039  13.797
86621W        W55015  12.758   2.482   1.902
86622W        W55016  37.841  35.089  14.929
86623W        W55017  25.682  16.830  11.044
86624W        W55018  24.726  16.275  13.657
86625W        W55019  40.814   5.739  13.894
86626W        W55020  20.854   4.889  11.171
86627W        W55021  31.883  15.679  12.787
86628W        W55022  10.350  44.476  11.333
86629W        W55023  16.084  13.221  11.199
86630W        W55024  11.961  18.651  12.953
86631W        W55025  28.965  29.151   2.770
86632W        W55026  33.378  13.779   1.331
86633W        W55027  15.230  32.574  12.167
86634W        W55028  18.062  11.676  11.299
86635W        W55029  26.912   5.246  13.089
86636W        W55030  27.088  18.757   4.072
86637W        W55031  22.953  33.139   3.697
86638W        W55032  44.972   1.854   2.252
86639W        W55033  20.527  26.662  11.832
86640W        W55034   9.185  44.467  14.854
86641W        W55035  40.893   3.830   3.360
86642W        W55036  41.486  41.835  12.376
86643W        W55037  44.808  34.096   2.303
86644W        W55038  15.151  28.623   3.347
86645W        W55039  15.308   0.234  13.060
86646W        W55040  24.762   5.852  12.015
86647W        W55041  21.791  23.051  11.925
86648W        W55042  29.938   9.834   4.800
86649W        W55043  44.878  41.417   3.959
86650W        W55044  21.558  27.803   0.454
86651W        W55045  37.398   1.786  14.926
86652W        W55046  43.322   1.849  10.678
86653W        W55047   5.631  21.156  12.001
86654W        W55048  19.100   1.220  14.432
86655W        W55049  40.895   4.864  13.079
86656W        W55050  39.183  10.493   0.787
86657W        W55051  19.233  23.640  12.614
86658W        W55052  25.720   6.761  12.418
86659W        W55053  13.629  42.791   1.356
86660W        W55054  34.466   7.493   2.482
86661W        W55055  20.789   0.026   4.533
86662W        W55056  44.745  33.630  10.472
86663W        W55057  32.576  39.869  14.376
86664W        W55058  22.085  19.261  11.599
86665W        W55059  30.177  38.407  11.775
86666W        W55060   9.245  25.183  12.867
86667W        W55061  11.927  43.723   2.152
86668W        W55062  11.253  33.906  11.500
86669W        W55063  20.639  25.646   3.851
86670W        W55064  31.587   1.423  10.453
86671W        W55065  40.363   4.898   4.537
86672W        W55066   0.837  39.839  12.163
86673W        W55067  42.384  22.747  11.098
86674W        W55068  25.479   0.544  13.376
86675W        W55069  43.525  34.133   1.724
86676W        W55070  15.847  16.310   0.790
86677W        W55071  30.248   4.898  10.732
86678W        W55072  44.312   1.002   0.551
86679W        W55073   9.647  41.888   2.728
86680W        W55074  17.086  14.926   0.843
86681W        W55075  18.051  35.581   2.372
86682W        W55076   5.280   6.199  14.612
86683W        W55077  12.397  28.527   0.111
86684W        W55078  41.048  24.910   1.110
86685W        W55079  35.994  42.361   4.643
86686W        W55080  23.236  20.133   2.274
86687W        W55081  31.052  11.167  10.742
86688W        W55082   4.200   3.953   3.860
86689W        W55083  22.075  38.558   2.654
86690W        W55084  31.492  12.731  10.683
86691W        W55085   8.277   9.294  14.954
86692W        W55086  42.387  26.304  14.706
86693W        W55087  20.850  37.016  11.735
86694W        W55088  32.444  24.165  13.995
86695W        W55089  10.511   2.855   4.123
86696W        W55090  14.616  38.584   2.317
86697W        W55091  42.729  43.344   2.431
86698W        W55092  18.389  12.247   4.247
86699W        W55093  44.836  40.092   0.230
86700W        W55094  14.147  31.071  10.647
86701W        W55095  37.310  21.287  11.369
86702W        W55096   6.493   1.715   0.285
86703W        W55097   9.666  26.779   4.302
86704W        W55098   5.933  38.017  13.959
86705W        W55099  44.039   1.756  13.996
86706W        W55100  42.523  37.352  10.698
86707W        W55101  43.805  37.013  11.580
86708W        W55102  40.898  15.504  14.312
86709W        W55103  22.811  24.085   4.804
86710W        W55104  32.679   3.401  12.797
86711W        W55105  12.136  10.894   3.821
86712W        W55106  29.641  15.211   3.813
86713W        W55107  11.882  25.198   4.657
86714W        W55108  19.643  30.608   4.197
86715W        W55109  13.152  43.536  12.532
86716W        W55110  39.885  31.969  13.758
86717W        W55111   8.986  15.374   4.154
86718W        W55112  19.063  30.736   1.902
86719W        W55113  27.550  20.772  11.625
86720W        W55114  21.796  28.309   2.896
86721W        W55115  24.043  44.223  11.431
86722W        W55116  23.600   2.797   3.657
86723W        W55117  28.259  19.579  12.128
86724W        W55118  25.017   4.247  13.077
86725W        W55119  29.155  15.835   4.561
86726W        W55120  14.157   7.349   2.315
86727W        W55121   6.904  17.636   4.022
86728W        W55122  42.413  31.981  11.197
86729W        W55123  23.978  26.626  12.582
86730W        W55124  31.600  38.464  12.200
86731W        W55125  42.542  24.521  10.715
86732W        W55126  43.580  40.092  14.682
86733W        W55127  15.183  29.452  13.689
86734W        W55128  23.188  15.051  14.376
86735W        W55129  39.798  27.661   0.915
86736W        W55130  40.321  12.891   1.877
86737W        W55131   4.297  25.636   5.155
86738W        W55132  24.460   9.191  14.393
86739W        W55133  41.694   8.477  12.094
86740W        W55134  17.055  40.367  13.841
86741W        W55135  37.941  13.579  14.808
86742W        W55136  31.895  11.761  11.605
86743W        W55137  23.471  30.206  12.112
86744W        W55138  39.457  13.654  11.878
86745W        W55139  11.853  43.539  12.874
86746W        W55140  33.583  43.891   1.405
86747W        W55141  42.647  19.336  11.454
86748W        W55142  26.588  41.905   0.763
86749W        W55143  25.890  13.247   1.757
86750W        W55144  34.044  11.664   1.952
86751W        W55145  39.914   6.716  14.258
86752W        W55146  35.480  29.548  14.900
86753W        W55147  10.945  28.128   2.725
86754W        W55148  15.490  35.518  11.099
86755W        W55149  44.872  28.554  13.078
86756W        W55150   5.949  31.287  11.590
86757W        W55151  41.099  41.033  14.302
86758W        W55152  35.514  18.550  13.442
86759W        W55153  32.747  29.322  13.081
86760W        W55154  30.144  33.379   0.800
86761W        W55155  41.969  19.996   0.897
86762W        W55156   6.849  15.640   1.358
86763W        W55157   8.324  38.800  13.556
86764W        W55158  16.151  44.246  13.324
86765W        W55159  18.515  17.539  12.236
86766W        W55160  43.195  20.730   0.313
86767W        W55161  13.555  19.543  13.279
86768W        W55162  23.315   6.168  14.798
86769W        W55163   4.017  10.845   0.880
86770W        W55164  29.628  18.137  12.467
86771W        W55165  34.395  35.047  14.035
86772W        W55166  42.297  16.617  13.961
86773W        W55167  43.213  31.064  14.237
86774W        W55168  25.436   9.190  11.693
86775W        W55169  18.481  24.232  14.208
86776W        W55170  20.967  21.217  14.015
86777W        W55171   1.830   6.315   3.352
86778W        W55172  12.005  36.595  13.350
86779W        W55173  35.809  35.399   0.567
86780W        W55174  14.023  31.442   2.683
86781W        W55175   9.584   6.273   2.833
86782W        W55176  34.190  22.715   0.251
86783W        W55177  20.181   1.893   3.422
86784W        W55178   6.259  44.255   4.721
86785W        W55179  21.440   1.994  10.565
86786W        W55180   4.968  31.613  13.135
86787W        W55181   0.808   5.870  14.492
86788W        W55182  35.284   6.282  10.686
86789W        W55183  31.186  14.688   0.359
86790W        W55184  20.738  37.077   3.419
86791W        W55185  43.430  12.821   3.850
86792W        W55186  43.449  42.989  11.046
86793W        W55187  44.278   6.454   4.282
86794W        W55188  41.941   1.682  11.366
86795W        W55189  22.962   2.424  10.710
86796W        W55190  26.095  12.150  12.297
86797W        W55191  42.482   0.554  13.540
86798W        W55192  44.030  39.489   0.298
86799W        W55193  23.661  21.270   0.803
86800W        W55194  29.737   1.814  14.420
86801W        W55195  35.971  27.474   2.194
86802W        W55196  11.304   9.952   0.719
86803W        W55197  23.024   0.261  10.477
86804W        W55198  28.922  19.998  12.500
86805W        W55199  24.575  27.009   4.649
86806W        W55200  32.488  32.547   0.044
86807W        W55201  33.831  35.923   0.890
86808W        W55202  10.860  19.202  10.664
86809W        W55203  15.127   0.462   2.401
86810W        W55204  22.141  22.754   2.594
86811W        W55205  12.908  21.198  13.387
86812W        W55206  25.677   0.941   2.347
86813W        W55207  37.098  12.512  12.089
86814W        W55208   4.808  23.599  12.487
86815W        W55209  32.211   5.328   1.463
86816W        W55210  11.949  11.202   1.274
86817W        W55211  18.814  20.644  10.905
86818W        W55212  16.559  30.091  12.047
86819W        W55213  41.418   6.745   2.472
86820W        W55214  18.536  15.483   0.098
86821W        W55215  11.145  23.307   1.302
86822W        W55216   5.285  24.868   2.224
86823W        W55217  44.005  31.444   1.853
86824W        W55218  42.484  30.926   4.712
86825W        W55219  26.235  16.950  12.234
86826W        W55220   9.493  30.821  11.134
86827W        W55221   4.524   8.421  14.995
86828W        W55222   5.269  33.931  12.592
86829W        W55223  22.925  32.008  10.221
86830W        W55224  43.497   6.268  10.605
86831W        W55225   3.636  19.276   1.768
86832W        W55226   7.204  12.702   1.875
86833W        W55227   3.345  30.056   4.662
86834W        W55228  16.697  32.823   2.416
86835W        W55229  39.618   3.970   3.403
86836W        W55230  38.864  15.485   4.164
86837W        W55231  22.638  16.483  14.347
86838W        W55232  15.545  37.196  11.523
86839W        W55233  17.184  40.663  12.382
86840W        W55234  44.637   2.952  12.545
86841W        W55235  12.817   5.661   4.592
86842W        W55236  42.759   3.709   0.451
86843W        W55237  40.513  31.944   0.847
86844W        W55238   5.758  19.104  13.296
86845W        W55239  22.185  13.208  10.456
86846W        W55240  24.181   1.233  11.737
86847W        W55241  17.715   9.472   4.589
86848W        W55242  36.316  38.548   1.189
86849W        W55243  16.799   9.629  14.550
86850W        W55244  19.688  16.657   4.605
86851W        W55245   2.854   9.880  12.383
86852W        W55246  24.662   3.694   0.050
86853W        W55247  44.153  20.980   2.207
86854W        W55248   9.512  44.976   1.759
86855W        W55249  40.046  19.347  13.273
86856W        W55250  12.830  40.275   4.131
86857W        W55251  10.217  20.370  13.048
86858W        W55252  11.796  25.094  14.710
86859W        W55253  41.382  38.423   3.361
86860W        W55254   7.699  20.314   4.656
86861W        W55255  42.340  39.688  11.099
86862W        W55256   9.596  11.984   4.189
86863W        W55257  24.579  41.542  10.759
86864W        W55258  19.513  18.702  12.147
86865W        W55259  18.260  34.640  12.891
86866W        W55260  15.743  27.600  10.211
86867W        W55261  29.001  13.344  11.124
86868W        W55262   4.211  14.851   1.607
86869W        W55263  32.651  13.291  14.484
86870W        W55264  40.839  31.743  14.796
86871W        W55265   2.356  35.558   3.300
86872W        W55266  23.794   8.599   5.445
86873W        W55267   6.148   7.414   1.301
86874W        W55268  35.948  43.357  11.670
86875W        W55269  34.498  32.485   4.370
86876W        W55270  39.825   7.819   3.322
86877W        W55271  34.924  29.671  13.377
86878W        W55272  18.395  21.018   3.182
86879W        W55273  15.043  39.026  11.535
86880W        W55274  24.106  31.716  10.989
86881W        W55275  17.190  24.543  11.132
86882W        W55276   9.667  27.588  10.592
86883W        W55277   6.744  44.931  10.970
86884W        W55278  37.837  21.769  11.191
86885W        W55279  33.063   4.793  13.319
86886W        W55280  11.766  31.202  12.979
86887W        W55281   8.726  31.766   1.339
86888W        W55282   6.369   2.654  14.483
86889W        W55283  31.165   7.956  11.644
86890W        W55284  17.296  25.751   0.249
86891W        W55285   5.128  24.266   0.208
86892W        W55286   7.327   2.942  14.445
86893W        W55287  28.962  29.973  12.784
86894W        W55288  43.093  20.462  10.614
86895W        W55289  10.775  21.017  10.818
86896W        W55290  25.029  11.176   3.099
86897W        W55291   3.782  19.739  12.479
86898W        W55292  40.256  13.168  11.022
86899W        W55293  28.395  39.033  13.545
86900W        W55294  18.326  24.021  11.599
86901W        W55295  39.310   0.251   3.151
86902W        W55296   5.424  18.989   0.623
86903W        W55297  26.632  33.373   2.363
86904W        W55298  20.262  31.674  11.252
86905W        W55299   7.442  27.022  11.119
86906W        W55300  40.719  24.065   3.736
86907W        W55301  35.084   3.227  10.755
86908W        W55302  28.729  12.676  13.128
86909W        W55303  12.620  24.996  13.403
86910W        W55304  22.824  26.721  14.963
86911W        W55305  44.970  22.554  12.545
86912W        W55306   4.595   3.152   3.704
86913W        W55307  38.619  34.132  14.839
86914W        W55308   9.309  43.542  12.879
86915W        W55309  12.098  26.199  12.646
86916W        W55310  19.575  20.174   0.940
86917W        W55311  24.121  11.451   2.790
86918W        W55312  11.364  21.336   4.179
86919W        W55313   3.275  13.441   3.639
86920W        W55314   4.247  11.328   0.853
86921W        W55315  39.423  11.061   3.955
86922W        W55316  25.666   8.099   3.331
86923W        W55317  18.017  34.579  13.887
86924W        W55318  10.690  39.831  10.904
86925W        W55319  36.423  21.259   2.200
86926W        W55320   1.840  24.774   3.778
86927W        W55321  33.608  15.655   4.575
86928W        W55322  35.354  24.209  12.960
86929W        W55323  28.484  25.193  12.963
86930W        W55324  35.333  35.077  13.870
86931W        W55325  24.630  23.459   0.011
86932W        W55326  40.509   1.402   4.654
86933W        W55327  32.352  22.461  13.427
86934W        W55328   7.937   5.334  11.345
86935W        W55329   7.634  27.995   4.991
86936W        W55330  13.847  27.103   1.281
86937W        W55331   9.822  34.116   3.088
86938W        W55332  23.086  44.359   4.762
86939W        W55333  33.338  35.554   2.780
86940W        W55334   5.036  39.878   2.421
86941W        W55335   6.830  40.727   0.001
86942W        W55336  21.439  24.526  14.520
86943W        W55337  42.531   4.170   0.369
86944W        W55338  36.629   2.762  11.349
86945W        W55339  24.907  16.586   3.717
86946W        W55340  10.166  24.553  13.496
86947W        W55341  15.080   6.278   1.172
86948W        W55342  36.440  12.717  11.071
86949W        W55343  22.554   6.249   5.157
86950W        W55344  35.040  38.248   4.246
86951W        W55345  14.430  35.359   3.411
86952W        W55346  31.632  37.772   3.768
86953W        W55347  20.567  39.930  14.320
86954W        W55348   8.305   7.418   4.395
86955W        W55349   7.892  12.781  14.410
86956W        W55350  39.337  35.695  12.588
86957W        W55351   7.267  36.436  14.824
86958W        W55352  15.047  17.621   1.821
86959W        W55353  25.324   5.040   4.273
86960W        W55354   1.708  29.232  14.298
86961W        W55355  31.738  18.189  13.578
86962W        W55356  11.344  24.022   0.878
86963W        W55357  37.926  27.653  11.373
86964W        W55358  42.365   6.293  12.505
86965W        W55359  42.517  24.501  12.469
86966W        W55360   2.722  16.754  14.009
86967W        W55361  43.468  11.179  11.291
86968W        W55362   0.315   6.933   4.561
86969W        W55363   7.901  42.376  12.470
86970W        W55364  40.384   3.627  12.504
86971W        W55365   1.228  20.468   0.925
86972W        W55366  43.302  38.858  12.945
86973W        W55367  35.907  30.269   0.383
86974W        W55368  18.472  32.006   1.971
86975W        W55369  30.269   7.238  12.614
86976W        W55370   3.661  19.349   4.665
86977W        W55371  12.442  28.654   2.804
86978W        W55372   4.979  10.649  14.815
86979W        W55373  24.559  32.655  13.276
86980W        W55374  20.740   8.060  12.899
86981W        W55375  30.640  41.356  14.733
86982W        W55376  14.752  11.082  12.478
86983W        W55377  14.598  26.189  11.090
86984W        W55378   2.544   8.605  13.367
86985W        W55379  21.136   8.895  12.877
86986W        W55380  31.925   2.947   3.276
86987W        W55381  15.270  23.157   3.672
86988W        W55382  22.061  23.184  10.555
86989W        W55383  40.816   7.102  11.584
86990W        W55384   6.775  24.526  13.376
86991W        W55385   7.915  19.241  14.482
86992W        W55386  29.848   6.882   1.761
86993W        W55387  10.803  16.798   4.577
86994W        W55388   1.852  34.809   3.183
86995W        W55389  19.562  20.720   2.355
86996W        W55390  11.629  26.461   2.933
86997W        W55391  11.812  35.769   2.786
86998W        W55392  10.255   4.206   2.253
86999W        W55393   7.398  23.237  13.479
87000W        W55394  12.278   5.575   1.383
87001W        W55395  18.293  20.601  13.929
87002W        W55396  30.879  36.314  13.367
87003W        W55397  42.872   6.825  11.909
87004W        W55398  17.699  35.024   0.826
87005W        W55399  15.323  12.608   0.875
87006W        W55400  19.516  37.859   4.119
87007W        W55401  35.990   6.988  11.512
87008W        W55402  19.686   2.971  12.147
87009W        W55403  30.054  39.536  13.209
87010W        W55404  17.264  16.354  10.614
87011W        W55405  37.304  16.614  12.825
87012W        W55406  18.584  25.884   3.668
87013W        W55407   7.061  42.324   1.319
87014W        W55408   3.014  20.030  11.011
87015W        W55409  23.425  34.382  14.914
87016W        W55410  14.237  34.897  13.642
87017W        W55411  38.440  23.596  11.087
87018W        W55412   1.804  43.537  12.103
87019W        W55413  36.061  34.424  10.876
87020W        W55414   2.421  33.908  11.059
87021W        W55415   5.454  27.105   1.270
87022W        W55416  43.097   6.216   3.267
87023W        W55417  25.703  25.150   0.768
87024W        W55418  44.359   2.914   3.397
87025W        W55419  12.620   9.197  13.070
87026W        W55420   8.986   4.920   2.789
87027W        W55421   2.398   9.345   3.748
87028W        W55422  32.316  25.599   1.762
87029W        W55423   5.949  23.072  11.290
87030W        W55424  20.510  30.642  13.852
87031W        W55425  42.713  19.633  13.903
87032W        W55426  30.208  29.039   0.908
87033W        W55427  19.570   1.238   2.939
87034W        W55428  26.084   9.739  11.279
87035W        W55429  21.711  36.415  10.669
87036W        W55430   9.681  19.116  12.930
87037W        W55431  31.584   0.070  11.502
87038W        W55432  11.865  33.892  14.358
87039W        W55433   4.954  35.991  10.076
87040W        W55434  37.874  33.984   2.265
87041W        W55435   0.305  14.225  14.710
87042W        W55436  22.612  38.128   3.217
87043W        W55437  14.105  23.029  12.093
87044W        W55438  33.033  41.276  11.690
87045W        W55439  23.437  42.066  12.634
87046W        W55440  30.100  44.457   0.854
87047W        W55441   6.187  30.915  13.872
87048W        W55442   4.301  13.722  12.572
87049W        W55443   3.781  23.471   2.779
87050W        W55444   9.689  23.655   0.254
87051W        W55445  22.620   4.677   1.847
87052W        W55446  17.654  27.477  13.439
87053W        W55447  11.565   1.332   3.705
87054W        W55448   0.581  25.577  14.848
87055W        W55449  35.477  22.108  14.085
87056W        W55450  42.346  39.437   0.421
87057W        W55451  19.177  26.141  11.539
87058W        W55452  22.973  14.622  11.556
87059W        W55453  41.078   6.268   3.225
87060W        W55454  15.299  14.150  13.674
87061W        W55455  18.980  28.628   5.257
87062W        W55456  28.677  25.244   4.590
87063W        W55457  11.997   5.704   3.163
87064W        W55458  44.394  27.025  12.835
87065W        W55459  18.104  14.042   4.133
87066W        W55460  26.472  20.518   3.306
87067W        W55461  37.122   7.332   0.400
87068W        W55462   1.813  15.215   4.650
87069W        W55463  36.476  12.716  14.528
87070W        W55464   4.544  12.614   0.460
87071W        W55465  14.217  41.540   1.083
87072W        W55466   0.763   9.587   3.419
87073W        W55467  22.241  30.376  12.613
87074W        W55468  39.306  37.639  11.835
87075W        W55469  13.759  33.626  11.076
87076W        W55470   4.621   2.402   0.142
87077W        W55471   1.325   3.548  14.683
87078W        W55472  17.798  22.954  11.584
87079W        W55473  17.477   9.354  13.475
87080W        W55474  27.821  17.378  13.550
87081W        W55475  19.256  28.277  12.249
87082W        W55476  42.329   0.527   4.998
87083W        W55477  14.321  15.090   0.345
87084W        W55478  11.454  32.570   1.731
87085W        W55479  13.082   1.993   0.680
87086W        W55480  24.558  14.985   2.283
87087W        W55481  29.893   2.510  13.830
87088W        W55482  26.521  34.021   1.289
87089W        W55483  31.335  36.484   0.318
87090W        W55484  20.457  31.040  10.672
87091W        W55485  26.571  22.230   2.166
87092W        W55486  20.770  32.307   1.387
87093W        W55487  27.529  40.994  11.969
87094W        W55488   7.736  34.659   0.464
87095W        W55489  18.147  15.117   2.040
87096W        W55490  38.966   0.840  11.111
87097W        W55491  35.006  35.346  14.730
87098W        W55492  36.514  31.842   3.562
87099W        W55493  34.077   0.380   0.707
87100W        W55494  31.667  14.273  11.022
87101W        W55495   8.358  24.173   0.811
87102W        W55496  36.237  11.204   3.639
87103W        W55497  29.887  39.932  13.467
87104W        W55498  38.050   9.114   4.197
87105W        W55499  32.426  37.345   0.454
87106W        W55500  34.471   2.721  14.935
87107W        W55501  13.833   1.890   3.132
87108W        W55502   6.777   3.364   1.842
87109W        W55503  14.842  11.604   4.448
87110W        W55504  31.903  23.491   0.539
87111W        W55505   5.874  21.761  12.528
87112W        W55506  35.527  22.191   0.088
87113W        W55507  11.281  32.135  11.338
87114W        W55508  44.911  42.010   3.806
87115W        W55509  15.152  27.159   3.267
87116W        W55510  24.332  40.774   2.815
87117W        W55511  26.733  44.780   0.676
87118W        W55512  44.276  36.103  11.022
87119W        W55513  20.632  39.623   1.309
87120W        W55514  35.359  37.296  14.725
87121W        W55515  39.788  33.267  14.919
87122W        W55516  17.154  38.928  13.841
87123W        W55517  33.336  44.814   0.015
87124W        W55518   6.766  10.761   1.153
87125W        W55519  40.328  30.545   0.851
87126W        W55520  13.457  12.139   0.748
87127W        W55521   6.776  42.903   5.030
87128W        W55522  13.700  33.869  10.611
87129W        W55523  31.755  29.155  14.742
87130W        W55524  10.636  22.398  10.647
87131W        W55525   5.447  17.134   2.823
87132W        W55526  31.034  16.661  13.780
87133W        W55527  19.676   9.680   0.815
87134W        W55528  35.166  24.198  11.626
87135W        W55529  31.482  36.396   0.818
87136W        W55530  10.461   8.802   3.333
87137W        W55531  23.738   8.314   2.963
87138W        W55532  42.893  24.152   4.311
87139W        W55533  33.763  39.538  13.107
87140W        W55534  30.624  30.208  13.954
87141W        W55535  40.502   4.637  12.414
87142W        W55536  27.240  31.667  12.525
87143W        W55537  23.332  21.849   3.631
87144W        W55538  19.735   2.427  11.203
87145W        W55539  23.728  41.974   0.168
87146W        W55540  26.385  15.292   1.294
87147W        W55541   3.038  33.751  13.008
87148W        W55542  34.492  31.604  10.450
87149W        W55543  35.050  11.845  13.968
87150W        W55544  10.806   9.825  13.645
87151W        W55545  36.526  29.812  13.471
87152W        W55546   2.467   7.011  14.936
87153W        W55547  12.342   3.877  14.804
87154W        W55548  12.110  38.940  14.336
87155W        W55549  24.937  18.555  14.402
87156W        W55550  30.111  37.785  12.520
87157W        W55551   2.090  18.623  12.465
87158W        W55552  44.449  43.306  11.934
87159W        W55553  23.921  10.221   2.320
87160W        W55554  26.522  21.312   2.734
87161W        W55555  24.156  39.121  10.222
87162W        W55556   2.798   4.134   1.142
87163W        W55557   9.005  42.314   5.003
87164W        W55558   6.244   0.418  11.541
87165W        W55559  18.320  13.180   1.357
87166W        W55560   6.745  33.364  12.906
87167W        W55561   4.434  43.815   4.751
87168W        W55562   5.922  43.808  13.373
87169W        W55563  17.967  12.769   4.742
87170W        W55564  17.073  33.189  13.995
87171W        W55565  37.856   6.127   1.789
87172W        W55566   1.434   9.598  13.998
87173W        W55567  19.752  40.162  12.863
87174W        W55568  15.807  14.740   2.632
87175W        W55569  36.791  22.493  14.428
87176W        W55570  23.912  31.144   1.833
87177W        W55571  24.142  15.836  14.133
87178W        W55572  43.400  39.015   0.980
87179W        W55573  33.955  42.497   0.400
87180W        W55574  28.706  35.515   0.990
87181W        W55575  36.022  10.558  12.579
87182W        W55576  12.692   1.974   1.918
87183W        W55577  28.715  11.596   2.735
87184W        W55578  19.789  32.702  11.776
87185W        W55579   0.987  38.036   0.014
87186W        W55580  34.923  41.398  12.434
87187W        W55581  31.156   9.733  10.633
87188W        W55582  29.958   8.779   0.071
87189W        W55583  12.927   6.830   0.810
87190W        W55584   1.384  42.025   1.704
87191W        W55585   4.818  10.790   3.623
87192W        W55586  35.769  11.965   4.123
87193W        W55587  39.029  17.052  13.432
87194W        W55588  44.585   9.946  13.269
87195W        W55589   7.734  19.659  10.769
87196W        W55590  30.627  13.632   1.686
87197W        W55591  19.258  32.144   4.515
87198W        W55592   7.626  20.696   0.749
87199W        W55593  31.981  42.355   2.302
87200W        W55594  13.236  29.902  13.747
87201W        W55595  30.853  32.914   2.496
87202W        W55596   5.475   1.763  13.948
87203W        W55597   8.638  40.438   1.807
87204W        W55598  38.835   3.725   4.188
87205W        W55599   6.223  17.189   2.268
87206W        W55600  41.037  21.693  13.583
87207W        W55601  11.858  21.753  11.900
87208W        W55602  11.509   0.400  13.234
87209W        W55603  17.179   0.317  11.512
87210W        W55604   7.829  38.050   2.385
87211W        W55605  36.085  31.126   4.624
87212W        W55606   0.408   1.673   2.998
87213W        W55607   5.098  15.713   1.744
87214W        W55608  14.570  40.556  10.685
87215W        W55609   8.779   7.678   2.405
87216W        W55610  15.273  28.957  13.863
87217W        W55611   1.769   5.332  13.059
87218W        W55612  43.084   1.513   1.793
87219W        W55613  23.515  43.910   4.786
87220W        W55614  28.873  29.943  14.368
87221W        W55615  33.449  21.038   0.320
87222W        W55616  10.407  24.196  13.763
87223W        W55617   0.530   0.096   2.429
87224W        W55618  34.905   4.465   0.232
87225W        W55619  24.631  16.357   0.199
87226W        W55620   9.178   1.316   3.726
87227W        W55621  14.185  11.527   2.359
87228W        W55622  13.154  17.572   0.333
87229W        W55623  17.995  11.326  11.951
87230W        W55624  13.460  37.636   3.157
87231W        W55625  17.167  44.311  14.389
87232W        W55626  14.743  13.906   5.065
87233W        W55627   2.039  25.291  11.150
87234W        W55628  18.821  23.986  11.513
87235W        W55629  16.155  23.028  11.082
87236W        W55630  29.466  23.681  11.681
87237W        W55631  29.305  30.001  14.039
87238W        W55632  14.047  34.661  10.576
87239W        W55633  12.256  27.884  13.078
87240W        W55634  26.081  41.510  14.528
87241W        W55635  10.908  20.161  13.985
87242W        W55636  13.025  23.400   4.528
87243W        W55637  40.855  44.908   3.119
87244W        W55638   8.826  24.086   4.138
87245W        W55639  28.309   5.340  12.132
87246W        W55640  19.012  34.088   1.262
87247W        W55641  43.376   2.893  13.326
87248W        W55642  17.116  31.776   2.502
87249W        W55643   3.297  17.223   1.214
87250W        W55644  11.831  28.674   0.969
87251W        W55645  25.870  41.310  12.630
87252W        W55646   9.144   0.728  11.883
87253W        W55647  22.556  31.103  12.058
87254W        W55648  30.052  37.604  12.056
87255W        W55649  10.328  32.312   0.238
87256W        W55650  29.193  35.814  11.106
87257W        W55651  38.620  27.482   3.385
87258W        W55652  19.784  18.611   2.780
87259W        W55653  40.010  36.773  10.473
87260W        W55654  41.416  12.058   0.770
87261W        W55655  11.882  25.035  12.100
87262W        W55656  31.783   4.572   0.893
87263W        W55657  38.563  13.744  11.641
87264W        W55658  42.812  28.661   1.735
87265W        W55659  32.110  43.352  12.303
87266W        W55660   2.292  36.386  13.312
87267W        W55661  14.717  21.332  13.907
87268W        W55662  38.747  29.136   3.942
87269W        W55663  35.833  39.231   2.178
87270W        W55664   2.351  25.157  14.908
87271W        W55665  32.381   6.243  13.077
87272W        W55666  37.349   6.724  13.069
87273W        W55667  26.362  28.720  11.214
87274W        W55668   6.107  11.586  11.161
87275W        W55669  20.100  31.586  14.196
87276W        W55670  16.206   9.823   5.270
87277W        W55671  33.862  35.053   3.264
87278W        W55672  40.072  34.315  12.479
87279W        W55673  16.646  12.561   2.293
87280W        W55674  37.537  17.737  14.442
87281W        W55675   2.878  31.403   3.940
87282W        W55676  25.701  41.353  11.574
87283W        W55677  39.909   5.454   2.263
87284W        W55678  41.910  41.514   0.660
87285W        W55679  26.678  44.428  11.208
87286W        W55680  15.383  37.939  14.507
87287W        W55681  27.929  16.275  14.780
87288W        W55682  40.537  21.627  13.503
87289W        W55683  10.596  17.153  10.719
87290W        W55684   8.386  37.434  13.514
87291W        W55685   5.796  22.305  14.521
87292W        W55686  13.184  34.827   4.803
87293W        W55687  38.522  25.493   1.849
87294W        W55688  16.634  17.786   4.044
87295W        W55689   2.430  17.138  13.351
87296W        W55690  15.626   2.465   2.603
87297W        W55691  29.959  21.629   3.737
87298W        W55692   3.232  20.324  11.910
87299W        W55693  16.629   0.625  13.390
87300W        W55694  42.431  27.479  14.202
87301W        W55695  37.637   7.216   0.362
87302W        W55696  25.196  25.137   0.964
87303W        W55697   3.274   8.622   1.745
87304W        W55698  38.470   9.986  12.155
87305W        W55699   5.216  16.411  11.546
87306W        W55700  33.939  31.255  10.501
87307W        W55701  16.612  12.860   3.243
87308W        W55702   5.770  44.215   1.136
87309W        W55703  15.773  25.036  11.725
87310W        W55704  15.334   7.476  12.088
87311W        W55705   1.276  31.659  11.101
87312W        W55706  29.175  35.526  12.462
87313W        W55707   5.447  24.974  12.950
87314W        W55708  26.979  41.448   4.151
87315W        W55709  21.556  36.899   1.613
87316W        W55710  26.718  17.333  11.185
87317W        W55711   7.163  43.052   4.126
87318W        W55712  15.539   7.190   2.950
87319W        W55713  38.790  35.915   2.570
87320W        W55714   7.890  37.514  11.571
87321W        W55715   3.267  17.797  11.617
87322W        W55716  34.299   3.213  14.070
87323W        W55717  13.668  22.051   2.413
87324W        W55718  20.355  37.213  10.164
87325W        W55719  21.709   9.240   3.135
87326W        W55720  33.360  11.664  14.374
87327W        W55721  16.085  44.361  14.443
87328W        W55722  43.732  26.011  10.684
87329W        W55723   4.696  24.363   4.213
87330W        W55724  28.479  12.678  14.414
87331W        W55725  26.504  36.618  11.259
87332W        W55726  16.172   2.059  14.064
87333W        W55727  43.494  28.257   3.787
87334W        W55728   1.184  40.989   1.662
87335W        W55729   7.746  13.265   2.265
87336W        W55730  11.609  17.236  10.743
87337W        W55731  10.760  15.976  11.355
87338W        W55732  23.600  30.670   3.401
87339W        W55733  43.380  23.134   1.889
87340W        W55734   8.447  44.814  14.478
87341W        W55735  15.859  30.685  13.824
87342W        W55736  11.354  13.579   2.313
87343W        W55737  40.354  19.219   1.800
87344W        W55738   6.127  40.149   4.848
87345W        W55739  40.079  41.328  13.280
87346W        W55740  17.039  34.898  12.907
87347W        W55741  42.115  18.130   4.547
87348W        W55742  26.954  11.071  14.015
87349W        W55743  43.784  10.130  14.919
87350W        W55744  24.416  42.999  13.470
87351W        W55745   1.239  37.997  12.525
87352W        W55746  24.613  37.266  11.700
87353W        W55747  24.210   4.452  11.515
87354W        W55748  24.065  42.289   1.729
87355W        W55749   7.262  16.579  12.987
87356W        W55750   0.493  35.360  14.094
87357W        W55751  30.127  21.940   0.891
87358W        W55752  19.027  23.498  13.887
87359W        W55753  39.250  21.136  12.744
87360W        W55754  25.540  40.095  10.690
87361W        W55755  21.457  34.511   0.477
87362W        W55756  30.698  13.324  13.133
87363W        W55757   0.163  18.216   4.979
87364W        W55758  18.537   9.703   1.765
87365W        W55759   1.204  13.745   0.147
87366W        W55760  28.977  18.620  12.539
87367W        W55761  41.735  24.473   2.147
87368W        W55762   6.278  43.935   4.315
87369W        W55763  25.108  19.249   1.472
87370W        W55764  23.097   7.816  10.727
87371W        W55765  30.883  37.739   1.762
87372W        W55766   3.121  11.202   4.423
87373W        W55767  34.409   1.787  12.070
87374W        W55768  43.503  43.938  14.423
87375W        W55769  37.779  34.498   2.298
87376W        W55770  43.882  21.060   4.355
87377W        W55771  11.655  11.872   0.546
87378W        W55772  20.738  24.834   4.835
87379W        W55773   0.984  24.100   3.749
87380W        W55774  31.709   5.781  14.709
87381W        W55775  25.984  10.169   3.350
87382W        W55776  17.011  24.943   1.005
87383W        W55777  26.707  22.998  11.333
87384W        W55778  19.625   0.575   0.385
87385W        W55779  31.337  14.020   0.479
87386W        W55780  12.377  29.257   3.722
87387W        W55781   1.915   5.434   4.882
87388W        W55782   2.300  12.584   0.801
87389W        W55783   8.234   3.885   4.046
87390W        W55784  26.067  39.353   2.230
87391W        W55785  38.419  23.179  12.196
87392W        W55786   9.690  35.499  11.083
87393W        W55787   2.695  34.167  12.948
87394W        W55788   3.881  32.466   4.925
87395W        W55789   5.914  42.761  13.480
87396W        W55790  43.479  37.602   1.215
87397W        W55791  19.600   3.770  12.666
87398W        W55792  11.194  35.017   2.761
87399W        W55793  21.516  41.491   2.804
87400W        W55794  39.484   8.700  14.055
87401W        W55795  20.228   7.625   0.196
87402W        W55796  42.874  14.935   0.773
87403W        W55797  43.960  25.469  13.876
87404W        W55798  10.897   8.837  14.826
87405W        W55799  30.382  18.746   1.770
87406W        W55800  32.524  37.179   1.422
87407W        W55801  16.611  39.146  11.485
87408W        W55802  15.450   8.474  10.344
87409W        W55803   1.069  20.695   4.300
87410W        W55804  13.956  30.714   0.865
87411W        W55805   2.118  15.796   3.096
87412W        W55806   3.249   8.100   1.635
87413W        W55807   3.203  40.474  10.838
87414W        W55808  16.331  42.501   4.096
87415W        W55809  42.725  31.606  14.815
87416W        W55810   3.457  24.219   4.359
87417W        W55811  34.130  16.324  12.614
87418W        W55812   8.840  27.746  10.853
87419W        W55813  31.024  17.083   1.905
87420W        W55814  24.213  13.203   2.430
87421W        W55815  19.440  31.290   1.114
87422W        W55816  23.006   4.879   2.750
87423W        W55817  12.640   9.921   2.607
87424W        W55818  25.680  37.598   4.042
87425W        W55819  12.321  40.401   1.772
87426W        W55820  17.243  24.198  13.864
87427W        W55821  37.855  42.919   4.588
87428W        W55822  23.938   2.010   4.346
87429W        W55823  11.464   5.456   0.825
87430W        W55824  13.470   2.909   2.506
87431W        W55825  42.144  29.071   1.395
87432W        W55826  13.750  31.471  11.584
87433W        W55827  19.307  35.656  11.887
87434W        W55828  15.243   4.492  10.240
87435W        W55829  15.205  13.932  12.653
87436W        W55830  35.033  29.952   1.905
87437W        W55831  34.419   7.092  12.519
87438W        W55832   1.038  37.559  13.437
87439W        W55833  24.470  13.922  10.310
87440W        W55834  27.714  38.446  14.469
87441W        W55835  22.297  35.619  12.417
87442W        W55836  20.239  36.844  10.975
87443W        W55837  36.094  37.096  12.605
87444W        W55838  22.602  28.082  14.055
87445W        W55839  32.906  27.172  10.393
87446W        W55840  24.172  31.704  13.836
87447W        W55841  29.900  32.457  13.904
87448W        W55842  28.900   5.479  10.717
87449W        W55843  37.413   5.826   2.797
87450W        W55844  44.726  33.114  14.907
87451W        W55845  22.262   3.341   3.674
87452W        W55846  30.458  38.619   3.161
87453W        W55847  23.557  41.522   1.395
87454W        W55848  19.188  11.628   1.283
87455W        W55849  23.773   2.013  14.633
87456W        W55850  25.456  31.510  14.853
87457W        W55851  27.108   7.322  10.831
87458W        W55852  23.366  39.439   2.203
87459W        W55853  24.656  37.897   0.893
87460W        W55854   0.786  14.223  14.464
87461W        W55855  25.519  15.606  12.971
87462W        W55856  10.752  12.784  11.375
87463W        W55857  32.137  33.942   2.348
87464W        W55858  19.794  29.956  11.598
87465W        W55859   2.871  25.242  14.921
87466W        W55860  37.891  23.634  11.076
87467W        W55861  37.676  30.829  11.981
87468W        W55862  20.334  24.926  12.012
87469W        W55863  14.774  23.123  14.970
87470W        W55864  41.371   3.408   2.201
87471W        W55865  24.041  11.295   1.405
87472W        W55866  26.946   1.415   4.819
87473W        W55867  10.387  24.803  13.080
87474W        W55868  16.554   6.902  13.005
87475W        W55869  20.076  38.829  12.845
87476W        W55870  28.262  26.059  10.510
87477W        W55871  44.850  44.022   3.360
87478W        W55872  15.261   3.722   3.886
87479W        W55873  14.698  11.430  10.001
87480W        W55874   0.400  37.125  12.358
87481W        W55875  44.328  28.710   2.595
87482W        W55876  14.121  43.622  11.582
87483W        W55877   5.366   3.781  11.782
87484W        W55878  17.165  20.773  14.426
87485W        W55879   9.954  40.996   0.883
87486W        W55880  14.128  26.091  14.249
87487W        W55881  15.615  33.908   2.801
87488W        W55882  43.381   0.979   0.998
87489W        W55883  18.740   2.744   4.620
87490W        W55884   1.232   6.210  12.885
87491W        W55885  18.592  11.152   0.749
87492W        W55886  22.553  28.971  12.739
87493W        W55887   0.163  19.540   1.839
87494W        W55888  39.420  30.000  11.463
87495W        W55889   1.353  18.841   3.175
87496W        W55890  22.784  19.394   4.181
87497W        W55891  27.079  32.101  12.769
87498W        W55892  42.983  10.678   2.379
87499W        W55893  39.518   4.788   2.800
87500W        W55894  18.050  24.463  12.950
87501W        W55895  20.746  25.569   1.759
87502W        W55896  20.460  31.922   3.326
87503W        W55897   2.021  36.156   3.437
87504W        W55898  40.897  24.921  12.529
87505W        W55899   2.660  17.699  10.980
87506W        W55900  18.646  13.837   0.792
87507W        W55901  39.822   8.824  13.364
87508W        W55902  27.036  32.064   1.259
87509W        W55903  32.367  24.076   2.874
87510W        W55904  32.242  16.505  11.191
87511W        W55905  24.989  14.395   0.616
87512W        W55906  42.259  18.597  10.483
87513W        W55907  40.025  11.088   1.576
87514W        W55908  29.939  14.593  13.324
87515W        W55909  28.998  18.044   0.335
87516W        W55910  42.907   5.381  11.105
87517W        W55911  12.074  15.211   3.177
87518W        W55912  12.527   4.926  11.654
87519W        W55913   8.622   5.710  14.836
87520W        W55914   8.334  39.067  13.109
87521W        W55915  13.674  27.441   4.979
87522W        W55916  21.534  36.494  14.287
87523W        W55917  11.155  33.962   1.824
87524W        W55918  22.290  35.375  11.874
87525W        W55919  39.306  15.734   4.060
87526W        W55920  35.855  16.530  12.903
87527W        W55921  20.252  15.055  10.219
87528W        W55922  42.915   5.932  10.426
87529W        W55923  24.540   4.327   3.282
87530W        W55924  18.918  40.476  14.450
87531W        W55925  20.306   5.013   1.231
87532W        W55926   3.507  25.919   0.391
87533W        W55927  25.157  28.147  11.857
87534W        W55928  35.146   6.305   0.809
87535W        W55929  17.046  44.780  10.795
87536W        W55930  16.261  31.367  11.452
87537W        W55931   5.344  42.348   0.701
87538W        W55932  35.434  40.060  12.795
87539W        W55933   1.969   1.546  11.586
87540W        W55934  11.137  21.649   2.441
87541W        W55935   0.156   8.447  12.693
87542W        W55936   4.291  36.465   3.676
87543W        W55937   5.396  15.900   0.281
87544W        W55938   8.922  18.693   2.870
87545W        W55939  14.599  21.825   1.810
87546W        W55940  12.804  35.757   0.055
87547W        W55941  13.056  34.390   1.798
87548W        W55942  33.207  19.372   4.617
87549W        W55943   0.567   6.144   4.771
87550W        W55944   0.488  36.347   9.741
87551W        W55945   5.419  26.941  14.830
87552W        W55946  23.497  12.708   0.010
87553W        W55947  30.836   4.362  13.853
87554W        W55948   5.264  21.674   0.446
87555W        W55949  19.582   0.753  14.501
87556W        W55950  20.083  16.812   2.154
87557W        W55951  42.307   8.970  13.723
87558W        W55952  27.608  14.280   4.863
87559W        W55953  36.537  27.185  11.529
87560W        W55954  36.320  20.218   4.844
87561W        W55955   2.029  32.293   5.167
87562W        W55956  15.058  32.022   2.938
87563W        W55957  12.270  16.168  11.481
87564W        W55958  25.161  38.398   4.132
87565W        W55959  18.231  36.891  14.817
87566W        W55960  40.030   5.816  10.950
87567W        W55961  39.471  36.985  11.106
87568W        W55962  21.004  11.804  11.899
87569W        W55963  33.556  42.772  11.228
87570W        W55964  14.171   5.434   3.679
87571W        W55965   7.653  27.992   1.688
87572W        W55966  40.059   0.407   4.813
87573W        W55967  42.261  21.196  12.444
87574W        W55968  36.988   4.457   4.777
87575W        W55969   0.352  11.614  13.357
87576W        W55970  18.982  17.160  11.467
87577W        W55971   1.301  25.475   3.604
87578W        W55972  14.730  21.403  10.733
87579W        W55973  31.886  24.842   2.693
87580W        W55974  31.142  19.641  10.702
87581W        W55975  16.622  41.975  12.655
87582W        W55976  44.196   6.748  14.302
87583W        W55977  28.029   1.997  14.014
87584W        W55978   1.155  37.785  11.653
87585W        W55979  28.440  41.160  12.398
87586W        W55980  10.879  22.788   3.072
87587W        W55981  44.864  36.634  10.736
87588W        W55982  37.591  21.562   2.848
87589W        W55983  12.721  15.636  10.390
87590W        W55984  17.261   5.398   0.825
87591W        W55985  19.848  17.206  12.821
87592W        W55986  35.429  31.481  14.321
87593W        W55987  33.462  27.522  10.221
87594W        W55988  35.133  43.442  13.845
87595W        W55989  18.432  43.199  13.525
87596W        W55990  23.255  44.869  13.811
87597W        W55991   6.329  14.938   1.808
87598W        W55992  28.539  13.811   4.621
87599W        W55993  14.335   7.495  12.302
87600W        W55994   2.213  36.583   2.391
87601W        W55995  12.612  32.024   1.652
87602W        W55996  20.952  26.997   4.098
87603W        W55997  14.624  41.907  14.557
87604W        W55998  29.927   3.827  13.328
87605W        W55999  36.345  15.559  11.946
87606W        W56000  27.631  34.191   0.199
87607W        W56001  29.205  29.726  11.593
87608W        W56002  37.925  10.292   4.541
87609W        W56003  26.946  18.471   1.382
87610W        W56004   0.510  40.837   0.754
87611W        W56005  41.330  41.457  14.061
87612W        W56006   0.341  29.043   3.173
87613W        W56007  19.648   7.890  10.589
87614W        W56008  11.727  18.767  10.725
87615W        W56009  17.150  20.832  12.539
87616W        W56010  39.190   5.857   4.072
87617W        W56011  12.366  42.439  13.353
87618W        W56012  15.643  21.487  10.717
87619W        W56013  42.966  13.394  11.586
87620W        W56014  30.775  38.814  14.351
87621W        W56015  18.060  39.958  11.495
87622W        W56016  43.040  13.607   0.416
87623W        W56017  31.911  26.353   0.839
87624W        W56018  37.103  22.911   0.191
87625W        W56019   2.350  34.491   3.231
87626W        W56020  36.795  42.866   4.557
87627W        W56021  39.076  25.653   1.894
87628W        W56022  36.298  30.026  10.643
87629W        W56023  34.551  16.219   0.402
87630W        W56024   3.707  25.222  12.714
87631W        W56025  25.724   1.720   2.413
87632W        W56026  24.202  23.157  14.933
87633W        W56027  35.000  33.062   2.271
87634W        W56028  31.168  31.186  11.362
87635W        W56029  12.311  22.637  13.455
87636W        W56030  32.116  11.586  12.042
87637W        W56031  38.486  33.092   1.885
87638W        W56032  31.142  14.741   3.164
87639W        W56033  37.287  20.698  13.417
87640W        W56034  20.629   4.021   3.134
87641W        W56035  43.738  13.788  14.833
87642W        W56036  10.321  33.648   3.125
87643W        W56037  14.710   1.249   1.661
87644W        W56038  40.523  34.655  10.411
87645W        W56039  38.162  12.244   2.362
87646W        W56040   8.089  26.220   0.754
87647W        W56041  29.950  40.066   4.650
87648W        W56042  10.133  16.694   4.350
87649W        W56043  11.826  29.025   1.366
87650W        W56044  44.364  41.735  11.555
87651W        W56045  40.826  13.222  12.256
87652W        W56046  44.379  12.887  10.378
87653W        W56047  13.247  11.420  13.785
87654W        W56048   3.730  19.129   4.179
87655W        W56049  16.920  39.864  10.675
87656W        W56050   2.285  42.969  13.891
87657W        W56051   3.484  22.262  12.964
87658W        W56052  43.746  31.886  13.831
87659W        W56053  21.537   9.369  13.660
87660W        W56054  42.614  37.467  12.461
87661W        W56055  42.846  25.164   2.497
87662W        W56056   9.557  41.565  13.428
87663W        W56057  40.961  42.810  11.698
87664W        W56058   2.355  26.103  13.797
87665W        W56059  12.717   2.449   2.484
87666W        W56060   0.956  33.971  11.640
87667W        W56061  34.791  22.963   0.409
87668W        W56062  31.974  10.604   0.338
87669W        W56063   7.379  14.656  14.716
87670W        W56064  34.597   9.262  13.740
87671W        W56065  10.094   4.140  13.087
87672W        W56066  18.127  31.717  12.352
87673W        W56067  13.625   4.865  12.430
87674W        W56068  35.470   3.756  14.257
87675W        W56069  14.064  38.734  10.668
87676W        W56070  34.586   0.158   4.103
87677W        W56071  32.722  19.077   1.209
87678W        W56072  40.782  39.012   0.365
87679W        W56073  17.825  41.903  10.626
87680W        W56074   7.432  23.963   2.750
87681W        W56075   3.328   1.875  10.631
87682W        W56076   3.060  31.788   0.709
87683W        W56077   2.909   7.496  13.027
87684W        W56078  13.544  41.600   1.298
87685W        W56079  18.381  30.418  13.019
87686W        W56080  36.920  43.061   0.304
87687W        W56081   5.431   1.194  13.115
87688W        W56082  42.784   3.770  14.051
87689W        W56083   0.863  34.516  12.886
87690W        W56084   7.487   1.903   3.321
87691W        W56085   9.233  27.984  11.110
87692W        W56086  41.761  28.926  10.825
87693W        W56087  20.791  22.194  13.427
87694W        W56088   2.254   6.320   0.318
87695W        W56089  21.973  39.774   1.325
87696W        W56090  30.879  13.677   4.320
87697W        W56091   2.283   8.829  12.972
87698W        W56092  11.616  19.678   2.353
87699W        W56093  36.026  18.613  13.253
87700W        W56094   4.384  18.850   0.353
87701W        W56095  37.894   3.748  12.916
87702W        W56096   7.750  43.950  12.929
87703W        W56097  43.965  13.654   0.791
87704W        W56098  25.415   8.203   2.495
87705W        W56099  42.321  21.727   0.789
87706W        W56100  37.083  41.478   0.302
87707W        W56101   9.251  35.892   2.264
87708W        W56102  27.660  26.460  13.979
87709W        W56103  17.120  23.474  11.996
87710W        W56104  18.708  10.835   1.811
87711W        W56105  33.501   4.827  11.109
87712W        W56106  38.068  32.332  13.723
87713W        W56107  42.002   4.711   2.240
87714W        W56108  27.085  26.786   2.309
87715W        W56109  37.014  40.686   3.380
87716W        W56110  10.757  23.519   4.150
87717W        W56111  36.297  14.615   2.292
87718W        W56112  21.500  26.882  12.457
87719W        W56113  20.945  32.919   2.879
87720W        W56114  42.477   8.913   1.037
87721W        W56115  25.967  20.749  12.631
87722W        W56116  27.558  24.614   4.832
87723W        W56117   8.591  19.669   2.905
87724W        W56118  15.617  12.906   2.655
87725W        W56119  22.269  10.180  14.496
87726W        W56120  29.105  41.077  14.428
87727W        W56121   5.751  22.584  12.163
87728W        W56122  28.625   3.355  14.595
87729W        W56123  24.647  42.428  14.916
87730W        W56124  36.972  16.006  11.218
87731W        W56125   0.791  34.476   0.834
87732W        W56126  36.035  14.571   3.789
87733W        W56127  14.754  32.970  13.880
87734W        W56128  35.368  24.337   0.700
87735W        W56129  42.360   9.415   1.164
87736W        W56130  13.254  28.101  12.789
87737W        W56131  11.423  37.864   4.027
87738W        W56132  39.445  44.433  13.192
87739W        W56133  38.880  38.011  12.839
87740W        W56134  35.084   2.481   2.980
87741W        W56135  19.568  25.618  12.057
87742W        W56136  29.561   5.817   0.018
87743W        W56137  26.161  29.610   4.593
87744W        W56138  14.609  23.021  10.677
87745W        W56139  27.447  35.095  13.311
87746W        W56140  12.130  10.408  11.005
87747W        W56141  43.355  19.831  12.583
87748W        W56142  28.014  13.735  13.065
87749W        W56143  40.195  43.402  12.481
87750W        W56144  29.080  30.177  11.885
87751W        W56145  19.151  21.082   0.408
87752W        W56146  37.407  20.757   1.090
87753W        W56147  24.960  23.917  11.096
87754W        W56148  20.808  21.249   0.024
87755W        W56149   3.857  44.733   1.721
87756W        W56150  40.330   8.667   0.279
87757W        W56151  22.664  36.917  12.893
87758W        W56152  29.474   0.531  13.511
87759W        W56153  19.673  42.406  13.954
87760W        W56154  39.074  12.874  13.473
87761W        W56155  15.340   9.129  10.837
87762W        W56156   3.994  34.905   0.910
87763W        W56157  36.085  11.044  12.730
87764W        W56158   7.299  39.517  14.547
87765W        W56159  37.124  25.970   2.263
87766W        W56160  25.116  20.683   2.808
87767W        W56161   9.171  33.870  13.816
87768W        W56162  21.418   5.725   3.563
87769W        W56163  31.689  40.364  12.544
87770W        W56164  11.276   0.351  11.441
87771W        W56165  10.336  32.486  12.045
87772W        W56166  34.539  33.460  11.851
87773W        W56167   0.028   0.456   0.866
87774W        W56168  28.259   7.843   0.794
87775W        W56169  36.813  39.285   4.489
87776W        W56170   1.867  39.558   1.281
87777W        W56171  11.782  38.089   3.190
87778W        W56172  23.664  21.325   4.297
87779W        W56173  23.489  22.956   2.353
87780W        W56174  18.058  16.688   4.048
87781W        W56175  32.384   0.478   1.381
87782W        W56176  44.891  40.256   3.348
87783W        W56177   6.555  44.289   1.026
87784W        W56178  12.674  19.667   0.924
87785W        W56179  13.755  31.025   2.548
87786W        W56180  43.515  39.536   1.339
87787W        W56181  21.801  13.125   0.070
87788W        W56182  13.733  14.545  13.380
87789W        W56183   0.405  41.577  12.573
87790W        W56184  29.646   1.767   1.279
87791W        W56185  40.786  14.626  11.998
87792W        W56186  22.626  20.792  10.676
87793W        W56187  13.308  39.103  11.137
87794W        W56188  28.504  17.678   2.236
87795W        W56189  42.502  25.809   4.640
87796W        W56190  14.613  29.431   1.935
87797W        W56191  21.129  23.656   1.904
87798W        W56192   6.194  27.111  13.864
87799W        W56193  44.525  35.814   3.670
87800W        W56194  31.929  33.315   1.496
87801W        W56195  12.656  27.875   1.043
87802W        W56196   8.215   4.239  14.303
87803W        W56197   4.406   7.474   4.090
87804W        W56198  17.650  11.345  12.362
87805W        W56199  10.626  12.158  13.205
87806W        W56200  38.894  17.557  13.310
87807W        W56201  10.312  16.811   0.850
87808W        W56202  24.279  12.428  12.056
87809W        W56203  21.095  31.704   3.393
87810W        W56204  25.978  28.557  14.824
87811W        W56205  28.193  40.099   1.490
87812W        W56206  15.185  31.500   4.192
87813W        W56207  32.747   4.194  14.409
87814W        W56208  11.322  21.689   1.955
87815W        W56209  37.423  19.057   3.250
87816W        W56210  27.175  33.015   1.685
87817W        W56211   8.775  44.842   3.231
87818W        W56212  14.398  24.224  14.336
87819W        W56213  14.932   2.877  13.949
87820W        W56214  19.064  11.127   2.134
87821W        W56215  20.771   7.820   4.630
87822W        W56216  14.426  39.082   3.569
87823W        W56217  34.932  38.423   2.821
87824W        W56218  30.710  16.257   2.270
87825W        W56219  40.504  32.490   0.891
87826W        W56220  40.265   6.340  14.471
87827W        W56221  33.748  11.302  11.472
87828W        W56222   4.276  28.873  13.987
87829W        W56223  24.907  13.523  11.707
87830W        W56224   7.688  33.844   2.937
87831W        W56225  10.595  42.745   0.019
87832W        W56226   5.358  14.617  14.886
87833W        W56227   0.825  40.530   1.514
87834W        W56228  29.397  16.379  14.942
87835W        W56229  35.411  12.704  14.272
87836W        W56230  23.780  41.448   3.328
87837W        W56231   3.636   7.978   4.340
87838W        W56232  11.363  25.667  13.580
87839W        W56233  30.649  43.425   0.293
87840W        W56234   8.972  29.158   3.693
87841W        W56235  17.249   4.026   3.914
87842W        W56236  31.309  11.722   0.166
87843W        W56237  28.399  30.468  10.673
87844W        W56238  35.302  42.526   4.707
87845W        W56239  14.786  43.877   2.810
87846W        W56240  35.140   4.116   1.987
87847W        W56241   9.691  34.354  13.857
87848W        W56242   2.411  26.939  13.054
87849W        W56243  15.279  25.082  13.876
87850W        W56244  16.693   3.542  14.318
87851W        W56245  21.465  10.864   0.799
87852W        W56246  27.912  40.537   4.172
87853W        W56247  28.191   0.838  10.550
87854W        W56248  39.866  24.480  11.587
87855W        W56249   3.755  19.783  14.476
87856W        W56250  38.763  39.375  14.455
87857W        W56251  21.300  39.311   0.862
87858W        W56252  33.902  18.084   3.719
87859W        W56253  11.739  16.063  11.553
87860W        W56254   3.387   3.552   3.276
87861W        W56255  35.502  31.820   1.692
87862W        W56256  43.273  27.885  14.892
87863W        W56257  15.617  13.548  10.747
87864W        W56258   3.927  31.092  11.939
87865W        W56259  30.054   1.423  10.284
87866W        W56260  30.029  35.187   2.321
87867W        W56261   0.840  29.052   1.400
87868W        W56262  14.208   5.722  13.505
87869W        W56263  21.848  33.090  13.276
87870W        W56264  43.036   4.226  14.009
87871W        W56265  13.752  18.673  13.432
87872W        W56266  17.356  11.825  14.506
87873W        W56267   3.306  25.177  14.599
87874W        W56268  12.125  25.230  14.238
87875W        W56269  31.936  40.348  14.909
87876W        W56270  16.387   9.775   2.860
87877W        W56271   1.936  17.026  10.690
87878W        W56272  12.283   7.904   4.074
87879W        W56273  34.652  21.536  11.209
87880W        W56274  29.955  20.713  12.098
87881W        W56275  10.232  22.956   2.445
87882W        W56276  13.214   1.876  12.878
87883W        W56277  39.811  33.446  12.039
87884W        W56278  11.308  18.304  14.365
87885W        W56279  15.002  44.542  11.063
87886W        W56280  26.011   2.887  11.569
87887W        W56281  39.367  42.720   2.711
87888W        W56282  23.759  37.624  12.093
87889W        W56283   0.312   1.900  10.705
87890W        W56284  39.088  42.941  12.928
87891W        W56285   1.925  29.566   5.184
87892W        W56286  30.129   3.003  12.336
87893W        W56287  37.409  13.538  13.172
87894W        W56288  43.833  29.263  11.462
87895W        W56289  44.292   2.484  11.559
87896W        W56290  12.337  17.600  11.898
87897W        W56291   6.169   2.907  10.120
87898W        W56292  27.012  36.461   3.294
87899W        W56293   4.621  35.930   1.182
87900W        W56294   7.151  32.111  10.649
87901W        W56295  15.625  16.337   1.265
87902W        W56296   4.530   9.238   4.070
87903W        W56297  33.407  39.499  11.429
87904W        W56298   0.895   2.698   4.294
87905W        W56299  35.350  24.498  13.423
87906W        W56300  28.603  31.123   4.248
87907W        W56301  42.832  13.369   0.841
87908W        W56302  22.304  44.852  14.012
87909W        W56303  23.029  22.877  11.393
87910W        W56304  23.113  30.578   3.594
87911W        W56305  23.269  23.473   0.035
87912W        W56306   7.330  33.403  10.677
87913W        W56307  23.248   7.132   4.876
87914W        W56308   6.707  38.462   2.703
87915W        W56309  36.865  11.668   4.168
87916W        W56310   3.364  31.660   2.746
87917W        W56311  40.946  22.691  10.547
87918W        W56312  27.964  25.176   4.121
87919W        W56313  29.080  27.591  13.124
87920W        W56314  28.016  24.745   3.329
87921W        W56315  38.350  40.426   1.371
87922W        W56316   0.264  19.767  14.008
87923W        W56317   9.137  19.733  11.575
87924W        W56318  16.793  24.870  11.162
87925W        W56319  19.543   4.352   0.186
87926W        W56320  43.220  24.717  14.834
87927W        W56321  27.261  14.152  14.293
87928W        W56322  14.846  11.360   3.990
87929W        W56323   6.169   8.320  12.171
87930W        W56324  29.866   2.780   0.237
87931W        W56325  35.312  20.531  11.277
87932W        W56326  18.740  26.718   3.139
87933W        W56327  20.784   9.823   0.920
87934W        W56328  37.401  38.020   2.850
87935W        W56329  37.437  15.765  11.103
87936W        W56330  37.368  43.493   2.807
87937W        W56331  23.521  38.869   3.592
87938W        W56332  32.037  17.341   2.179
87939W        W56333  13.852  34.133   3.340
87940W        W56334   0.932   5.353   4.592
87941W        W56335  19.538   5.271   2.752
87942W        W56336  29.492  12.021  13.781
87943W        W56337   8.341  33.891   2.457
87944W        W56338  36.972  44.495   2.406
87945W        W56339  30.556   5.113  14.590
87946W        W56340  26.747  14.057   1.874
87947W        W56341  24.545  33.571   2.187
87948W        W56342  42.404  37.283   4.072
87949W        W56343  10.743  29.884  13.565
87950W        W56344  28.606  38.341  10.712
87951W        W56345  42.630   0.752   0.483
87952W        W56346   3.044  32.009  13.914
87953W        W56347   8.827  35.058  14.821
87954W        W56348  34.145   7.768  14.937
87955W        W56349  36.549  18.241   1.679
87956W        W56350   8.113   5.483   0.869
87957W        W56351   7.799  33.056  14.989
87958W        W56352  16.688  15.522   3.433
87959W        W56353  27.145  38.484   0.368
87960W        W56354  24.291  24.521   2.823
87961W        W56355  33.121   6.665   2.188
87962W        W56356  13.265  20.965  13.080
87963W        W56357  12.301   3.799   1.880
87964W        W56358  26.466  15.232   4.134
87965W        W56359  20.293  24.670   9.582
87966W        W56360  27.445  36.349  11.076
87967W        W56361  30.072  39.683   2.105
87968W        W56362   9.174  40.069   2.647
87969W        W56363  44.376  16.477  12.590
87970W        W56364   3.358   4.747  10.765
87971W        W56365  15.724   4.291  10.124
87972W        W56366  13.455  28.103   1.288
87973W        W56367  34.555   6.209  12.915
87974W        W56368  11.988  40.343  11.083
87975W        W56369   0.872   3.870  13.870
87976W        W56370  41.051   4.018  14.075
87977W        W56371  28.677  20.200  12.883
87978W        W56372  30.316   5.782  13.458
87979W        W56373  24.681  33.502  13.915
87980W        W56374   9.021  39.764  12.175
87981W        W56375   5.462  22.740   2.158
87982W        W56376  26.413  39.064   3.177
87983W        W56377  31.186  37.604   1.332
87984W        W56378  12.787   3.397   3.626
87985W        W56379  44.257  41.347  13.472
87986W        W56380  37.301  38.944  12.031
87987W        W56381  37.251  20.045  12.444
87988W        W56382  43.030  32.016  13.026
87989W        W56383  26.170   4.907  10.712
87990W        W56384   4.184  13.716   1.794
87991W        W56385  24.158   2.953   1.143
87992W        W56386   2.327  32.098  10.682
87993W        W56387  30.188  30.513   0.367
87994W        W56388  33.487  22.162   1.220
87995W        W56389  39.843  20.578  13.046
87996W        W56390  19.324  10.844   1.749
87997W        W56391  19.910  16.872  11.521
87998W        W56392   7.848  27.012   4.997
87999W        W56393  13.639  39.121  12.422
88000W        W56394  13.126  32.581   4.979
88001W        W56395  23.594   9.753  14.294
88002W        W56396  17.563  14.573   1.287
88003W        W56397  43.004  29.109   4.127
88004W        W56398  37.085  34.909   2.549
88005W        W56399  25.460  42.893  11.643
88006W        W56400  10.005  13.812   1.220
88007W        W56401  38.463  24.957  14.952
88008W        W56402  17.522   8.747  12.952
88009W        W56403  36.328  22.099  11.690
88010W        W56404   6.811   5.602   5.017
88011W        W56405  10.722   3.515  12.105
88012W        W56406  13.089  22.674   2.919
88013W        W56407  38.934  24.908   1.239
88014W        W56408  32.485  24.067   3.921
88015W        W56409   8.426  43.105  10.225
88016W        W56410   9.365  31.686   0.262
88017W        W56411   5.552  23.546  12.974
88018W        W56412  18.771  18.244  13.065
88019W        W56413  44.484  34.681  13.449
88020W        W56414  31.928   3.165  12.266
88021W        W56415  10.319  26.928   3.151
88022W        W56416  24.654   7.171  14.435
88023W        W56417  22.758  36.881   3.783
88024W        W56418  32.643  32.595  11.225
88025W        W56419   9.297  23.462   1.845
88026W        W56420  32.253  24.768  12.367
88027W        W56421   4.162  26.791  11.028
88028W        W56422  43.802   2.239   0.344
88029W        W56423  26.946  36.200   1.057
88030W        W56424  23.716  16.000  14.392
88031W        W56425  40.248  19.375  12.553
88032W        W56426  21.562  22.329   0.712
88033W        W56427  44.414  12.044   2.337
88034W        W56428  42.051  42.231   4.149
88035W        W56429  36.638  11.331   2.311
88036W        W56430  23.406  21.036  11.572
88037W        W56431   8.329  17.333  11.009
88038W        W56432  30.744  33.491  13.694
88039W        W56433   2.426  36.302  10.605
88040W        W56434  26.434  22.951   4.133
88041W        W56435  28.390  28.974  14.324
88042W        W56436  13.573  24.582   3.721
88043W        W56437  24.608  32.697  11.934
88044W        W56438  27.464   3.334   4.282
88045W        W56439  31.492  14.173   9.916
88046W        W56440  40.519  39.554  12.472
88047W        W56441  18.743  39.504  12.615
88048W        W56442  13.806   8.773   0.386
88049W        W56443  27.558   5.563   2.061
88050W        W56444  20.166  40.982   2.677
88051W        W56445  10.532  12.643   3.035
88052W        W56446   1.095  18.267   4.593
88053W        W56447  25.675   5.823   4.641
88054W        W56448  37.535   4.499  11.612
88055W        W56449  28.738  18.169  12.687
88056W        W56450   1.704   4.901   1.906
88057W        W56451  32.130  28.642  10.665
88058W        W56452  16.570  13.765  13.431
88059W        W56453   2.994  38.905  14.518
88060W        W56454  17.663  23.951   0.175
88061W        W56455  39.956  41.285  12.764
88062W        W56456  12.181  16.587   4.827
88063W        W56457   8.167  21.118   0.029
88064W        W56458  21.571  42.979  11.728
88065W        W56459  15.121  18.276  12.347
88066W        W56460   2.338  27.645   0.826
88067W        W56461  10.023  38.290  13.398
88068W        W56462  27.292  25.032  11.494
88069W        W56463  19.988  42.092   1.418
88070W        W56464  11.634  35.845  11.120
88071W        W56465  33.845  11.851  12.218
88072W        W56466  22.610  42.784   0.841
88073W        W56467  28.132  37.065  13.358
88074W        W56468  22.145  44.401   2.408
88075W        W56469  11.151  44.808  11.241
88076W        W56470  40.100  11.606  11.557
88077W        W56471  34.541  33.065   2.576
88078W        W56472  28.701  32.600   4.202
88079W        W56473   4.859  13.106   4.086
88080W        W56474  19.306  13.730   3.607
88081W        W56475  20.506  37.442   1.755
88082W        W56476   2.281  10.596   2.355
88083W        W56477   4.150  11.474   3.655
88084W        W56478  22.917  34.499  14.838
88085W        W56479  32.973  29.398  14.139
88086W        W56480  39.835  34.902   1.157
88087W        W56481  21.981  40.857  13.313
88088W        W56482  38.020  36.048   0.487
88089W        W56483  21.918   0.920   4.615
88090W        W56484  15.062   7.200  10.698
88091W        W56485  29.187  40.241  14.803
88092W        W56486  28.171  30.927   2.856
88093W        W56487  12.740  25.139   3.620
88094W        W56488  16.622  14.199   3.164
88095W        W56489  26.652  38.467   1.210
88096W        W56490  13.148  33.996  12.146
88097W        W56491   6.017  36.363  12.662
88098W        W56492  37.839   8.630  11.996
88099W        W56493   6.920  23.841   2.763
88100W        W56494   3.367   1.721   4.276
88101W        W56495   1.426  32.993  10.992
88102W        W56496   8.674   7.125   4.190
88103W        W56497  37.918  33.121  12.504
88104W        W56498  42.348  19.447  13.182
88105W        W56499  25.675  31.989   4.814
88106W        W56500  41.801  35.560   3.707
88107W        W56501  22.452   3.809   3.888
88108W        W56502  14.747   9.630  14.453
88109W        W56503   2.832   8.797   0.320
88110W        W56504  29.513  17.637   0.018
88111W        W56505  38.274  32.494   3.321
88112W        W56506  26.629  19.039   0.806
88113W        W56507  27.024  33.516   3.255
88114W        W56508  25.244  18.129  10.698
88115W        W56509  44.292  12.875   3.803
88116W        W56510  17.182   9.497   2.329
88117W        W56511  32.123  32.984   9.667
88118W        W56512  15.120   2.788   4.354
88119W        W56513  31.170  14.611  12.847
88120W        W56514  17.571  40.362  13.901
88121W        W56515  41.583  36.151  11.166
88122W        W56516  23.680   8.237   0.788
88123W        W56517  38.855  26.047  13.432
88124W        W56518  18.598  19.648   4.174
88125W        W56519  39.890  29.971  11.697
88126W        W56520  31.076  31.092  10.840
88127W        W56521  25.394  25.503  12.493
88128W        W56522  39.484  11.188  10.690
88129W        W56523  22.178   1.027  13.332
88130W        W56524  44.809  11.538   3.789
88131W        W56525   7.250  29.872   3.260
88132W        W56526   2.634  21.229   1.843
88133W        W56527   5.665  17.214  14.530
88134W        W56528  39.965   4.370   3.343
88135W        W56529   4.172  16.192   4.618
88136W        W56530  24.124   4.932  10.627
88137W        W56531  14.766  32.782  12.021
88138W        W56532  43.689  36.007   4.878
88139W        W56533  26.121   6.199  11.080
88140W        W56534  39.826  37.292   0.889
88141W        W56535  31.907  16.218   0.974
88142W        W56536  25.202   3.795  12.167
88143W        W56537  34.478  23.508   4.542
88144W        W56538  12.715  14.319  13.744
88145W        W56539  14.774  39.228  11.107
88146W        W56540   4.223  34.756  11.047
88147W        W56541  12.130  10.775   0.771
88148W        W56542  14.371   5.260   3.191
88149W        W56543  33.489  19.431  13.874
88150W        W56544  13.737  12.854  10.741
88151W        W56545  29.282  17.630  12.982
88152W        W56546   9.610  32.314  13.313
88153W        W56547  23.861  35.386  13.007
88154W        W56548  32.322   0.782   5.006
88155W        W56549  35.861  36.440  11.555
88156W        W56550  35.490   3.827  11.471
88157W        W56551  22.167  32.100  11.513
88158W        W56552  10.236  15.435  13.099
88159W        W56553   1.272  41.024  13.488
88160W        W56554  43.083   8.321   0.553
88161W        W56555  20.472  17.223  11.601
88162W        W56556  12.658  22.114   1.224
88163W        W56557  18.061   2.441   2.684
88164W        W56558  15.844  20.064   2.347
88165W        W56559  42.833  30.725  10.545
88166W        W56560  16.318  38.725   1.691
88167W        W56561  39.503  30.983   0.338
88168W        W56562  19.176  39.478  12.363
88169W        W56563   7.215  36.868  13.584
88170W        W56564   6.790  30.695  14.385
88171W        W56565  17.382   4.771   4.488
88172W        W56566  28.138  22.203   1.186
88173W        W56567  20.236  36.095  14.426
88174W        W56568  34.044  35.341  13.744
88175W        W56569  37.791   9.260  12.046
88176W        W56570  19.025  39.037   1.106
88177W        W56571  29.014   8.957   0.376
88178W        W56572  13.393  17.504   3.201
88179W        W56573  21.259  18.818   2.721
88180W        W56574  26.500  16.081   2.791
88181W        W56575  28.506  23.752  11.564
88182W        W56576  18.583  33.473   2.702
88183W        W56577  31.088  19.479  13.482
88184W        W56578  10.819   0.813  10.324
88185W        W56579  19.078  29.123  10.569
88186W        W56580   4.128   9.880   4.748
88187W        W56581  23.409  36.912   3.007
88188W        W56582   2.406  21.536  12.906
88189W        W56583   4.397   3.734   0.792
88190W        W56584  35.628   3.800   1.784
88191W        W56585   4.216  44.994  13.838
88192W        W56586   3.314  20.064   3.314
88193W        W56587  23.261  36.477  10.835
88194W        W56588  17.000   4.346   3.607
88195W        W56589  40.098  24.165   0.273
88196W        W56590   8.774   0.598   3.722
88197W        W56591  41.744  28.129  14.900
88198W        W56592  42.243  15.744   3.634
88199W        W56593  31.403  13.038   2.746
88200W        W56594   5.854   0.352  13.988
88201W        W56595   9.746  28.634  10.867
88202W        W56596  43.337  28.551  10.472
88203W        W56597  41.060  43.780   2.846
88204W        W56598  22.713  35.849   3.478
88205W        W56599  25.803  18.082  14.365
88206W        W56600  35.371  11.131   1.934
88207W        W56601  36.083  39.643   3.172
88208W        W56602   1.397  40.009  13.468
88209W        W56603   6.877   9.799  10.696
88210W        W56604  11.818  31.820   1.764
88211W        W56605  35.495  43.861   3.889
88212W        W56606  23.608  19.006   4.622
88213W        W56607  16.716  11.757   2.843
88214W        W56608  14.872   7.983   4.385
88215W        W56609  43.819   5.329   3.719
88216W        W56610  36.938   2.869  12.664
88217W        W56611  36.003   6.532  12.478
88218W        W56612  36.960  27.108   0.897
88219W        W56613  26.961  41.465  10.300
88220W        W56614  11.706   9.363   0.236
88221W        W56615  36.267  35.026  14.985
88222W        W56616  14.930  26.004  13.441
88223W        W56617  36.060  30.679  14.463
88224W        W56618   4.722   2.303  12.022
88225W        W56619  28.547  16.936  13.609
88226W        W56620  24.166  13.826   3.542
88227W        W56621   5.863  22.557  14.084
88228W        W56622  43.295  33.280   3.997
88229W        W56623  28.686  28.045   4.111
88230W        W56624  28.774  12.239  13.518
88231W        W56625  15.789  44.156   0.498
88232W        W56626  35.597  20.115  11.983
88233W        W56627   5.598   9.212   0.786
88234W        W56628  44.280  21.808   1.698
88235W        W56629  28.700  24.742   3.697
88236W        W56630  40.495   1.948   0.236
88237W        W56631  16.969  31.860   0.706
88238W        W56632  41.054  10.350   0.217
88239W        W56633   5.337  23.222   2.278
88240W        W56634   5.800  23.213  13.301
88241W        W56635   5.676  10.721  13.565
88242W        W56636  22.510  29.047   0.200
88243W        W56637  34.875  10.581   3.699
88244W        W56638  36.561  27.591  11.188
88245W        W56639  14.973   1.677  14.443
88246W        W56640  30.872  33.932   3.737
88247W        W56641  31.466  38.712   3.793
88248W        W56642  44.288  31.879   1.824
88249W        W56643   8.778  37.778  13.042
88250W        W56644  34.314  34.795  10.686
88251W        W56645  30.376  26.185  12.881
88252W        W56646   8.324  25.638  14.423
88253W        W56647   6.884  40.113   3.308
88254W        W56648   2.324  40.361   0.521
88255W        W56649   7.246  22.390  13.486
88256W        W56650  30.529   1.486  10.608
88257W        W56651  35.607  14.819  13.333
88258W        W56652  37.440  10.923   1.922
88259W        W56653   3.282   8.632  14.540
88260W        W56654  44.316  16.557   1.273
88261W        W56655  40.431  27.722   4.645
88262W        W56656   9.789  40.429   4.256
88263W        W56657  25.870  18.254  12.067
88264W        W56658  18.527  34.531  12.464
88265W        W56659   3.926  42.836   1.685
88266W        W56660  25.719  27.525  11.406
88267W        W56661  29.153  21.036  14.883
88268W        W56662  28.885  29.352   3.889
88269W        W56663  20.135  16.950  12.439
88270W        W56664  18.219   0.900  12.078
88271W        W56665  29.496  41.725   2.811
88272W        W56666  15.790  37.341   0.849
88273W        W56667  35.941  27.561   2.697
88274W        W56668  15.967  38.975   1.431
88275W        W56669  38.923   5.477  12.689
88276W        W56670  15.549  32.527   4.495
88277W        W56671  31.903  41.541  14.279
88278W        W56672  25.067  32.537  14.110
88279W        W56673  15.778  19.979  10.423
88280W        W56674  27.546  39.588   4.217
88281W        W56675   2.838   3.650   3.770
88282W        W56676  26.753  29.968   3.625
88283W        W56677   9.877  22.566   2.226
88284W        W56678   0.950  13.589  14.722
88285W        W56679  14.173  35.485  12.143
88286W        W56680   6.629  17.071   0.418
88287W        W56681  14.795  34.286  14.930
88288W        W56682   3.259  25.936  12.780
88289W        W56683  20.874  32.924  10.596
88290W        W56684  16.544  15.209  14.553
88291W        W56685   2.251  33.522  14.265
88292W        W56686  10.735  35.084  14.402
88293W        W56687  37.358   6.999  11.517
88294W        W56688  36.763   8.849   4.187
88295W        W56689  14.279  40.628  12.511
88296W        W56690  35.102  38.148  10.791
88297W        W56691  16.888   5.223   2.714
88298W        W56692   5.975   7.311  14.950
88299W        W56693   8.444  33.158  10.969
88300W        W56694   7.371  30.934  11.207
88301W        W56695  12.595  16.018  11.098
88302W        W56696  27.547  32.890  12.065
88303W        W56697  10.925  11.287  13.847
88304W        W56698   4.365  20.985  10.464
88305W        W56699  29.002  28.592   3.256
88306W        W56700   2.780   0.428  11.242
88307W        W56701  33.597  27.986   0.381
88308W        W56702  37.481  14.781  11.666
88309W        W56703  12.272   7.719  10.187
88310W        W56704  16.264  38.289   2.158
88311W        W56705   8.251  23.079  11.570
88312W        W56706  23.186  28.191   1.360
88313W        W56707  18.299  28.151   4.620
88314W        W56708  44.043  10.223  10.692
88315W        W56709   0.724  44.112   1.709
88316W        W56710   3.346  22.009   3.167
88317W        W56711  10.165   9.287  14.754
88318W        W56712  13.468   6.171  14.801
88319W        W56713  20.114  31.141  14.477
88320W        W56714  17.278  26.195   1.172
88321W        W56715  19.309  21.006  14.412
88322W        W56716   3.627  14.910   4.342
88323W        W56717  10.429   6.751  13.598
88324W        W56718  33.395  28.562   2.114
88325W        W56719  32.050  27.880  13.755
88326W        W56720  35.005  40.514  11.139
88327W        W56721  39.795   2.240  10.735
88328W        W56722   6.432   4.557  14.858
88329W        W56723  35.003  29.016   0.655
88330W        W56724  27.747  24.476   1.648
88331W        W56725   4.279  27.173   1.893
88332W        W56726   4.081  25.050   4.694
88333W        W56727  39.326  40.197   4.054
88334W        W56728  42.221  42.811   2.926
88335W        W56729  40.684  28.045  14.534
88336W        W56730  20.040  25.810  12.088
88337W        W56731  41.488   1.288  14.889
88338W        W56732   1.142  21.303   0.976
88339W        W56733  33.381  25.494  11.728
88340W        W56734  43.520   2.874   1.845
88341W        W56735  27.205  38.770   2.877
88342W        W56736  14.081  20.253   2.394
88343W        W56737  39.484  39.477   0.364
88344W        W56738   7.773  22.597   9.817
88345W        W56739  33.923  28.171   3.095
88346W        W56740   6.965   3.051   4.482
88347W        W56741   1.976   3.543   4.352
88348W        W56742  10.592  43.783  12.026
88349W        W56743  14.814  32.234  11.978
88350W        W56744  23.772   0.773   4.542
88351W        W56745  23.643  32.596  10.626
88352W        W56746  44.956   3.318  12.767
88353W        W56747   5.074  26.767   4.817
88354W        W56748  22.019  28.418  12.105
88355W        W56749  14.576  13.031   1.832
88356W        W56750  37.904  37.879   2.839
88357W        W56751  19.536  24.676   5.085
88358W        W56752   6.441  33.460   4.985
88359W        W56753  26.079   6.984  11.546
88360W        W56754  36.987   7.204   2.536
88361W        W56755  17.365  32.353  13.049
88362W        W56756   7.755  12.404  14.718
88363W        W56757  23.027  24.516   4.536
88364W        W56758  44.921   3.817  13.934
88365W        W56759  41.746  38.903  11.223
88366W        W56760  41.853  17.092  12.615
88367W        W56761  40.267   2.239   2.886
88368W        W56762  23.371   5.972   4.735
88369W        W56763  42.538  37.858   1.789
88370W        W56764  34.393  19.991   3.292
88371W        W56765  38.030  26.400  13.262
88372W        W56766   2.477   2.998   3.943
88373W        W56767  30.484  25.634   2.370
88374W        W56768  43.561   3.556  11.833
88375W        W56769  30.835  35.932  10.975
88376W        W56770  18.593  31.244   2.279
88377W        W56771  17.795   8.621  12.142
88378W        W56772  34.148  22.373   4.194
88379W        W56773  26.483   0.557   2.846
88380W        W56774   9.985  40.956  10.774
88381W        W56775  31.633  35.001   0.417
88382W        W56776  26.637  19.493  14.511
88383W        W56777  13.654  32.445   0.180
88384W        W56778  14.255  30.062   2.212
88385W        W56779  10.858  38.166   0.427
88386W        W56780  12.964  36.367   0.715
88387W        W56781  12.873  20.077  13.213
88388W        W56782  10.153  27.564  10.768
88389W        W56783  13.191  20.017  11.892
88390W        W56784  41.600  12.646  13.601
88391W        W56785  40.377   2.493   3.785
88392W        W56786  13.673  10.692   2.257
88393W        W56787  43.873  39.266  14.862
88394W        W56788   4.012  38.810  10.314
88395W        W56789  34.566  42.004  12.989
88396W        W56790  32.652  31.924   3.243
88397W        W56791  18.563  24.642  14.495
88398W        W56792  18.624  34.622  11.634
88399W        W56793  42.581   3.451   1.022
88400W        W56794  38.900  24.595  13.028
88401W        W56795  22.628  23.789   0.728
88402W        W56796  12.237  13.368   0.275
88403W        W56797  18.239   3.359   0.930
88404W        W56798   4.462  14.193   9.631
88405W        W56799  33.374  40.547   3.163
88406W        W56800  22.751  39.886   1.723
88407W        W56801  30.896   1.979   2.035
88408W        W56802   2.529  37.091   0.171
88409W        W56803  33.841   0.767   4.589
88410W        W56804   3.485  37.636   4.742
88411W        W56805  31.750  16.202   3.801
88412W        W56806  35.965   8.560   2.040
88413W        W56807   7.526  41.817   4.112
88414W        W56808  11.134  28.017  11.953
88415W        W56809  21.558  18.074   0.329
88416W        W56810   5.470  33.057  13.837
88417W        W56811   8.437  44.057  11.109
88418W        W56812  15.356  37.935   0.066
88419W        W56813  19.844  18.171   3.301
88420W        W56814   6.814  11.673   2.184
88421W        W56815  26.291  17.774   1.629
88422W        W56816  19.953  13.218  11.922
88423W        W56817  30.109  28.538   1.841
88424W        W56818  41.284  11.339  13.871
88425W        W56819  23.695  36.831  12.482
88426W        W56820   2.560  26.826  13.866
88427W        W56821  28.642  37.783   1.403
88428W        W56822  32.503  35.545  11.912
88429W        W56823  22.898   9.272  11.061
88430W        W56824  44.829   9.373   2.883
88431W        W56825  40.558  14.354  12.422
88432W        W56826   3.740   5.252   4.513
88433W        W56827  27.418  21.667  11.776
88434W        W56828  21.590  29.174   3.691
88435W        W56829  27.940  44.541   2.935
88436W        W56830  30.146  26.170  10.927
88437W        W56831  12.279  44.265  14.394
88438W        W56832   9.295   6.209   1.516
88439W        W56833  21.088  10.799   3.168
88440W        W56834  14.815  10.926   0.823
88441W        W56835  29.916  31.430  12.658
88442W        W56836   3.825  36.394   1.621
88443W        W56837  31.640  40.519  10.723
88444W        W56838  25.526  27.733   4.486
88445W        W56839  43.484  38.451  14.900
88446W        W56840  11.359   7.006  13.981
88447W        W56841  10.694  41.006   1.295
88448W        W56842  42.046  18.339   2.833
88449W        W56843  32.175   2.311   5.243
88450W        W56844   9.652  36.901  13.775
88451W        W56845  15.279  16.892  10.310
88452W        W56846  15.378  24.775  10.625
88453W        W56847   7.386  21.083  14.211
88454W        W56848  35.153  23.293   3.184
88455W        W56849  23.728  21.472  14.585
88456W        W56850  18.681   0.699   4.728
88457W        W56851  14.187   1.378   1.593
88458W        W56852  25.164   5.800   4.509
88459W        W56853  27.970  15.793  13.967
88460W        W56854  24.418   7.682   0.396
88461W        W56855   0.214   9.203  14.850
88462W        W56856  22.261  38.418  14.929
88463W        W56857   5.661   2.483   4.584
88464W        W56858  33.382  41.559   3.069
88465W        W56859  10.714  18.683  10.599
88466W        W56860  12.218  38.593  12.034
88467W        W56861  18.366  44.260   2.817
88468W        W56862  19.714   1.230   3.450
88469W        W56863  38.869  31.099   3.600
88470W        W56864   2.813  33.613  14.992
88471W        W56865  20.780   5.320   2.363
88472W        W56866  35.455   7.347   1.491
88473W        W56867  20.554  22.757  14.386
88474W        W56868  28.188  33.302  13.337
88475W        W56869  13.112  10.676   1.650
88476W        W56870  36.096  44.286   3.711
88477W        W56871   0.839  28.032  10.736
88478W        W56872  30.064  41.847  11.143
88479W        W56873  40.021  10.009   3.509
88480W        W56874  34.644  21.218   4.636
88481W        W56875  22.763   5.491   2.761
88482W        W56876  31.143  10.251  14.226
88483W        W56877  15.220   3.291   4.653
88484W        W56878  41.342  23.265  12.420
88485W        W56879   2.225  29.118  14.162
88486W        W56880  13.138  34.172   0.476
88487W        W56881  37.806  15.503  14.810
88488W        W56882  22.686  10.916   2.110
88489W        W56883  28.442  39.874   0.971
88490W        W56884  21.748   7.220   2.378
88491W        W56885  40.953  35.564   1.732
88492W        W56886  40.792  31.404   1.321
88493W        W56887  24.011  33.621   1.292
88494W        W56888  12.275  10.142  11.463
88495W        W56889  17.283  34.510  14.358
88496W        W56890  21.773  29.797  14.917
88497W        W56891  34.045  22.645   2.741
88498W        W56892  32.693  31.035  14.830
88499W        W56893  42.072  30.597   0.230
88500W        W56894   2.899  18.016   2.717
88501W        W56895  19.456  32.063   4.987
88502W        W56896   4.763   1.947   0.415
88503W        W56897   9.399   3.857   3.263
88504W        W56898   1.185  10.901   0.989
88505W        W56899  16.866  12.710  14.339
88506W        W56900  20.893  14.579   0.578
88507W        W56901  19.278   9.393   1.774
88508W        W56902  15.790  31.538  13.134
88509W        W56903   1.342  10.061  11.134
88510W        W56904  31.562   0.920   0.958
88511W        W56905  35.667  31.811   5.022
88512W        W56906  30.129   0.925   1.677
88513W        W56907  38.006   7.655  12.063
88514W        W56908  17.131   3.840   1.453
88515W        W56909  39.948  32.516   0.958
88516W        W56910  37.969  25.564   3.308
88517W        W56911   1.732   9.799  13.521
88518W        W56912  15.537  27.006  14.886
88519W        W56913   3.336  42.170   3.380
88520W        W56914   4.746  25.516   2.374
88521W        W56915  26.807  16.598  10.759
88522W        W56916   3.998  17.756  10.260
88523W        W56917  44.579  30.518  11.039
88524W        W56918  11.598   5.081   9.940
88525W        W56919  32.005  20.779  14.376
88526W        W56920  16.685  26.986  11.601
88527W        W56921  18.730  40.826   1.858
88528W        W56922  21.963   3.700   0.286
88529W        W56923   3.002  23.071   1.257
88530W        W56924   9.371  34.570   1.433
88531W        W56925   2.009   9.609  11.270
88532W        W56926   3.429  13.551  11.607
88533W        W56927  42.099   4.641  10.375
88534W        W56928  37.284  39.397  12.392
88535W        W56929  39.071   8.699  11.192
88536W        W56930  22.325   0.234  12.897
88537W        W56931  33.568   9.645   2.227
88538W        W56932  12.175  27.460  13.409
88539W        W56933  11.800  15.641   3.318
88540W        W56934  42.544   8.695  13.335
88541W        W56935  30.950  29.156  11.966
88542W        W56936  34.962   8.292  12.081
88543W        W56937  23.128  38.980   4.274
88544W        W56938  30.170  20.536   0.620
88545W        W56939  11.525  34.347  12.059
88546W        W56940  15.814  37.124  10.611
88547W        W56941  37.803  25.172   3.594
88548W        W56942  16.722  38.091  14.684
88549W        W56943  22.773  13.099   0.795
88550W        W56944  34.309  14.390  13.142
88551W        W56945  15.089  23.639  14.127
88552W        W56946  36.583   3.782  11.074
88553W        W56947  31.556   1.968  11.661
88554W        W56948   4.369  13.408  12.964
88555W        W56949  34.166  16.689   2.792
88556W        W56950  31.607  16.282  10.680
88557W        W56951  23.001  17.156  12.677
88558W        W56952  33.058  29.659   4.642
88559W        W56953  35.795  39.309  10.700
88560W        W56954  17.184  27.025   4.967
88561W        W56955   7.875  11.177   3.441
88562W        W56956  43.760  36.500  14.868
88563W        W56957   4.944  15.523  11.608
88564W        W56958  22.553  11.702   0.432
88565W        W56959   4.023  21.661   0.841
88566W        W56960   2.628  30.902  10.742
88567W        W56961  37.362   4.968   2.280
88568W        W56962   8.172  21.337  11.973
88569W        W56963  43.977  29.708  13.179
88570W        W56964  17.017  39.346  13.132
88571W        W56965  10.190  35.347  11.157
88572W        W56966  15.594  17.298  10.412
88573W        W56967   4.951  25.471   3.246
88574W        W56968   6.902  41.032  11.612
88575W        W56969  20.211  32.915   1.946
88576W        W56970  11.195  26.059  11.115
88577W        W56971  39.977  22.957  12.863
88578W        W56972  13.003  24.490  11.833
88579W        W56973  15.642  12.199  14.782
88580W        W56974  28.486  10.715   4.710
88581W        W56975  35.363  11.381  14.062
88582W        W56976   3.718   2.463   1.927
88583W        W56977  40.322  39.919   4.081
88584W        W56978   2.884  41.559   1.454
88585W        W56979  40.778  21.518  13.055
88586W        W56980  18.320  17.168  11.950
88587W        W56981  17.038   2.888   1.418
88588W        W56982  41.081  23.480   1.258
88589W        W56983  39.556  15.601   4.557
88590W        W56984   1.410  39.346  12.473
88591W        W56985   3.300  22.637   0.382
88592W        W56986  29.000  30.130   1.331
88593W        W56987  35.609  41.257  11.152
88594W        W56988  36.879  30.659   2.349
88595W        W56989  23.166  39.782   0.738
88596W        W56990   7.987  37.320   3.706
88597W        W56991  31.981  28.554   1.604
88598W        W56992  19.818  24.079  13.214
88599W        W56993  16.839  40.980  13.976
88600W        W56994  31.936   8.204  14.827
88601W        W56995  36.688   4.730  11.388
88602W        W56996  14.876  31.023   4.234
88603W        W56997  24.619   4.342   4.657
88604W        W56998  33.225   5.691  12.369
88605W        W56999  10.429  21.639  11.982
88606W        W57000   8.457  35.554   1.831
88607W        W57001   5.822  28.751  14.807
88608W        W57002   5.795   6.264  11.638
88609W        W57003  34.585  13.844   3.676
88610W        W57004  15.098  43.802   3.772
88611W        W57005   4.787   4.812  13.323
88612W        W57006  38.402  41.381   1.558
88613W        W57007  26.576   8.237   1.315
88614W        W57008   1.064   9.709   3.914
88615W        W57009   4.223  32.508  10.803
88616W        W57010  44.755  23.320  12.979
88617W        W57011  21.296  18.549  10.650
88618W        W57012   4.425  36.816  13.563
88619W        W57013   9.140  16.278   1.929
88620W        W57014  13.104   4.166   3.194
88621W        W57015   2.498  40.438  12.579
88622W        W57016   6.125  30.414  11.945
88623W        W57017  22.052  18.582  13.366
88624W        W57018   0.449  28.955   3.684
88625W        W57019  25.047  21.768   1.242
88626W        W57020  27.651  32.373  11.907
88627W        W57021  14.630  40.605   0.386
88628W        W57022  31.107  31.032   2.325
88629W        W57023  11.235  31.161  14.807
88630W        W57024   4.084  38.048   1.863
88631W        W57025   1.293  16.274  14.046
88632W        W57026  10.706  18.684  14.246
88633W        W57027  40.632  41.131   0.709
88634W        W57028  43.311  28.748   1.780
88635W        W57029  41.032  13.890   2.307
88636W        W57030  35.803  20.709   2.704
88637W        W57031  14.773   1.330   3.989
88638W        W57032   7.234   7.893  11.235
88639W        W57033   4.237   6.745  13.725
88640W        W57034  10.810  33.114   0.929
88641W        W57035  25.757  18.958   4.190
88642W        W57036  28.172  17.100  13.317
88643W        W57037  34.439  14.858  10.445
88644W        W57038   4.996  28.974  12.282
88645W        W57039  32.122   0.523   2.570
88646W        W57040  37.925  20.080   2.567
88647W        W57041   0.470  37.423   0.094
88648W        W57042  13.196  15.550  13.967
88649W        W57043  30.979  30.067  10.711
88650W        W57044  15.158  16.596  10.746
88651W        W57045  33.846  36.034   4.099
88652W        W57046   7.863  40.021   1.304
88653W        W57047  24.178  30.723  10.738
88654W        W57048  40.553  16.376   1.229
88655W        W57049   3.877   0.201   3.895
88656W        W57050  19.561  32.921   4.481
88657W        W57051  28.483  24.494  10.598
88658W        W57052  21.987   3.923  10.656
88659W        W57053  31.087  21.234   4.557
88660W        W57054   7.801  23.209   3.591
88661W        W57055  18.248  15.986   0.371
88662W        W57056  32.807  25.661   1.874
88663W        W57057  33.417   4.858   0.306
88664W        W57058   5.645  25.299  11.602
88665W        W57059  30.151   0.727   0.436
88666W        W57060  24.758  14.693   0.204
88667W        W57061  38.449  11.261   0.830
88668W        W57062  42.474  19.039   3.707
88669W        W57063  34.639  31.408   1.382
88670W        W57064  17.871  37.145   3.386
88671W        W57065  26.694   8.246  12.827
88672W        W57066  25.386  33.421   1.013
88673W        W57067  40.623  19.786  13.487
88674W        W57068   3.050   6.261   2.306
88675W        W57069  14.391   8.618  11.374
88676W        W57070   5.531  24.728   1.340
88677W        W57071   4.009  15.456  11.685
88678W        W57072  42.514  38.001   2.286
88679W        W57073  15.047  28.687  11.227
88680W        W57074  18.286  31.581   0.847
88681W        W57075  33.912  22.589   0.712
88682W        W57076  14.369   4.480   3.648
88683W        W57077  26.886   9.598   3.841
88684W        W57078  26.628  27.232   0.014
88685W        W57079  27.094  35.740  12.964
88686W        W57080   4.783  21.022  14.022
88687W        W57081  30.851  22.254   3.650
88688W        W57082   5.173   5.174  13.472
88689W        W57083  32.043   2.741  12.908
88690W        W57084  14.125  32.572  10.741
88691W        W57085  15.518  22.825  14.928
88692W        W57086  33.167  13.954  12.478
88693W        W57087  39.846  16.926   2.243
88694W        W57088   6.511  13.012  11.428
88695W        W57089   7.971  14.077   0.003
88696W        W57090  39.532  19.792  13.585
88697W        W57091  34.029  43.614   1.310
88698W        W57092  14.694   3.781  13.263
88699W        W57093   2.888  20.093   3.618
88700W        W57094   8.154  17.260   4.696
88701W        W57095  10.943   1.400  11.989
88702W        W57096   7.703  32.053   4.566
88703W        W57097  25.953  21.404  11.206
88704W        W57098   6.896  38.388  11.691
88705W        W57099  35.039  37.332   0.823
88706W        W57100  27.760  12.760  11.641
88707W        W57101  23.081  33.668   2.281
88708W        W57102  13.837  41.074   4.125
88709W        W57103  16.696  31.309  13.576
88710W        W57104  31.029  34.951   2.865
88711W        W57105  22.971  41.398   4.651
88712W        W57106   9.771  26.272  10.083
88713W        W57107  28.948  37.406   0.426
88714W        W57108  27.458  32.137   0.324
88715W        W57109  25.088   8.677  10.624
88716W        W57110  22.246  33.948  10.726
88717W        W57111  14.347  13.929   2.743
88718W        W57112  35.777  36.490  13.371
88719W        W57113  15.745   4.524   3.977
88720W        W57114  32.807  24.366   2.822
88721W        W57115   7.960  44.411  14.080
88722W        W57116  35.806   5.790   3.661
88723W        W57117   6.485  18.749  14.465
88724W        W57118  26.983  27.628  13.496
88725W        W57119  29.613   0.987   1.785
88726W        W57120  31.659  44.069  10.720
88727W        W57121   2.921  24.839   2.257
88728W        W57122  19.785  18.782  13.601
88729W        W57123   5.616   2.479   2.402
88730W        W57124  34.036  43.076   1.288
88731W        W57125  36.769  24.042   1.261
88732W        W57126  30.542   0.242  13.728
88733W        W57127  14.731  40.261  12.920
88734W        W57128   4.767  35.640  11.726
88735W        W57129   2.895  27.747   2.844
88736W        W57130   2.733  24.193  14.900
88737W        W57131  24.575  43.738   0.793
88738W        W57132  27.518  40.559  13.021
88739W        W57133  14.688   2.039   2.761
88740W        W57134   1.867  41.811   1.786
88741W        W57135  23.250   9.847  10.679
88742W        W57136   1.453   5.348   0.277
88743W        W57137  44.873  29.593   1.861
88744W        W57138   3.507   6.396   4.623
88745W        W57139  33.387  13.112   2.932
88746W        W57140   8.245   5.388   2.648
88747W        W57141  19.669  11.780  13.996
88748W        W57142  32.493  29.416   3.264
88749W        W57143  24.046   0.167   3.810
88750W        W57144  41.852  23.129   0.000
88751W        W57145  13.514  25.581   1.860
88752W        W57146  44.696  38.984  12.486
88753W        W57147   8.646  33.307  14.454
88754W        W57148   8.292  22.489   1.822
88755W        W57149   6.316  35.936  14.119
88756W        W57150  30.297   9.873  11.788
88757W        W57151  39.587   4.279  13.972
88758W        W57152  25.737  43.969  11.959
88759W        W57153  31.210   9.868  14.562
88760W        W57154   8.594  10.409   4.076
88761W        W57155  32.352  27.462  13.635
88762W        W57156  19.408  14.994   3.607
88763W        W57157   2.902   7.345   4.542
88764W        W57158  33.813  35.588   1.299
88765W        W57159  24.282   1.119  13.965
88766W        W57160  40.094  26.042  10.707
88767W        W57161  26.756  21.525   0.828
88768W        W57162  14.380  11.431  11.692
88769W        W57163  39.460   2.654   0.155
88770W        W57164  28.729  19.090  12.387
88771W        W57165   4.195   4.196  12.817
88772W        W57166  23.935   5.906   4.671
88773W        W57167   1.206   3.160   1.150
88774W        W57168  19.875  40.520   4.225
88775W        W57169  36.834  33.329   0.166
88776W        W57170   3.168  34.378  12.956
88777W        W57171   5.348  37.048  13.885
88778W        W57172  35.795  16.910  11.995
88779W        W57173  37.379  17.187   2.612
88780W        W57174   5.792   3.070  11.072
88781W        W57175   9.806   2.433  12.576
88782W        W57176  42.483   4.749  11.659
88783W        W57177  12.783   7.704  14.104
88784W        W57178  15.015  13.773   1.958
88785W        W57179  13.651  24.133  10.661
88786W        W57180   4.388  29.136   3.639
88787W        W57181  34.867  30.307   3.283
88788W        W57182  14.270   6.043  11.168
88789W        W57183  15.106  25.888  14.459
88790W        W57184  27.576  32.297   3.215
88791W        W57185  11.370  23.018   2.856
88792W        W57186  28.367  26.233   3.593
88793W        W57187  14.789  33.160  13.410
88794W        W57188  33.437  17.905  11.665
88795W        W57189  31.490  43.327  14.522
88796W        W57190   3.761  23.030  14.670
88797W        W57191  13.263  39.845  13.871
88798W        W57192  19.592   4.816  13.832
88799W        W57193   7.127  19.263  14.083
88800W        W57194  13.181  17.127   4.566
88801W        W57195  36.927   8.846  10.599
88802W        W57196   9.789  36.777  10.640
88803W        W57197  25.632  40.746  14.282
88804W        W57198  18.084  34.012  14.344
88805W        W57199  33.442   9.356  14.884
88806W        W57200  21.068  24.242  13.044
88807W        W57201  17.723  37.099  10.887
88808W        W57202  35.018  21.534   4.439
88809W        W57203   0.486  18.723  12.532
88810W        W57204   1.341  25.670  12.869
88811W        W57205  38.726  43.229   1.277
88812W        W57206   7.349  23.650  10.113
88813W        W57207  27.652  33.050  14.451
88814W        W57208  31.345  12.636  14.300
88815W        W57209  20.294   0.469   1.609
88816W        W57210  14.824  23.326   0.472
88817W        W57211  43.885  18.557   2.675
88818W        W57212  37.297  44.387  14.374
88819W        W57213   0.989  22.287  10.128
88820W        W57214   5.788  21.137   0.674
88821W        W57215  13.084   3.833   3.668
88822W        W57216  42.772   3.283   3.607
88823W        W57217  20.685  37.548   3.634
88824W        W57218   5.323  14.649  11.085
88825W        W57219  33.659  30.512   1.897
88826W        W57220  35.856  44.811  12.849
88827W        W57221  19.611  12.046  14.499
88828W        W57222   4.824  36.427   3.459
88829W        W57223  19.425  12.446  10.686
88830W        W57224  42.039  42.553  12.556
88831W        W57225  15.634  20.801   2.805
88832W        W57226  29.934  22.743  12.046
88833W        W57227  23.253  11.763   1.368
88834W        W57228  43.878  18.314  11.396
88835W        W57229  35.911  11.269  11.840
88836W        W57230  14.540  33.910  13.042
88837W        W57231  44.990  39.505  10.770
88838W        W57232  38.900  19.477  10.742
88839W        W57233  12.862  25.506  14.405
88840W        W57234  10.100   1.376   4.577
88841W        W57235   4.364   7.675  12.013
88842W        W57236   6.214  11.327   4.642
88843W        W57237  44.564  37.466  13.262
88844W        W57238   9.578  42.307   1.368
88845W        W57239  17.616  12.239  14.348
88846W        W57240   3.182  28.939  12.533
88847W        W57241  18.299   8.771  14.335
88848W        W57242  39.210  44.450  14.483
88849W        W57243  27.197   1.892  12.436
88850W        W57244  34.208  27.182  12.262
88851W        W57245  21.232  16.746  12.860
88852W        W57246  25.002  24.123   1.104
88853W        W57247  29.803  27.046  12.939
88854W        W57248  13.133  13.459  12.140
88855W        W57249  12.776  27.550   2.371
88856W        W57250  38.805  13.475   1.808
88857W        W57251  25.879  34.270   3.247
88858W        W57252  29.571   5.405  14.094
88859W        W57253  21.606  37.078   1.056
88860W        W57254  13.534  44.888  11.653
88861W        W57255  28.989  27.936   3.703
88862W        W57256  12.608  10.186   4.397
88863W        W57257  18.119  41.150  13.422
88864W        W57258   3.746  21.771   2.425
88865W        W57259  12.211  32.486  13.013
88866W        W57260  26.422  38.440   3.642
88867W        W57261  33.751  14.287  10.520
88868W        W57262   6.524  10.435  12.974
88869W        W57263   7.811   2.168  13.117
88870W        W57264  13.661  25.921   3.884
88871W        W57265  41.739  20.972  11.103
88872W        W57266  36.105  27.087   2.527
88873W        W57267  35.479  33.908   4.568
88874W        W57268  35.052  19.202   5.072
88875W        W57269  37.838  14.472  14.446
88876W        W57270  42.526  31.166  13.947
88877W        W57271  28.641  37.978  14.460
88878W        W57272  36.098   8.060   4.076
88879W        W57273   6.384  41.778   0.148
88880W        W57274  27.026  23.423  14.762
88881W        W57275  27.897  42.871   4.026
88882W        W57276  19.033  41.302  12.163
88883W        W57277  17.370  10.636  11.084
88884W        W57278  31.994   2.384  14.764
88885W        W57279   4.770  39.356  12.586
88886W        W57280  29.655  25.147  13.319
88887W        W57281  16.095  15.156   4.621
88888W        W57282  11.115  36.606   4.566
88889W        W57283   5.653  35.461  14.260
88890W        W57284  13.232   9.924  11.962
88891W        W57285  10.231  31.356   4.682
88892W        W57286  26.665   3.380  13.534
88893W        W57287   9.685   2.283  14.294
88894W        W57288  16.496  28.872  10.642
88895W        W57289  33.648  27.940  11.433
88896W        W57290  28.724   1.462   3.605
88897W        W57291  37.559  20.944  13.888
88898W        W57292  40.221  43.210   0.722
88899W        W57293  43.956   9.772  10.935
88900W        W57294  37.782   8.107  14.930
88901W        W57295   4.129  36.781   0.930
88902W        W57296  18.056   4.763  13.782
88903W        W57297   9.113  41.347   0.055
88904W        W57298  21.570  28.013   0.936
88905W        W57299  14.831  39.056  13.600
88906W        W57300  43.684  42.828   1.001
88907W        W57301  17.750  34.987  12.232
88908W        W57302  21.236   2.317  12.421
88909W        W57303   2.876  40.572   3.677
88910W        W57304  24.030  22.593  13.917
88911W        W57305   4.762  43.277  11.847
88912W        W57306   5.021  44.977   1.184
88913W        W57307  34.455  43.390   1.118
88914W        W57308  13.287  41.409   4.856
88915W        W57309  36.630   3.900  14.750
88916W        W57310  43.875  32.932  11.497
88917W        W57311  33.822  24.675   3.343
88918W        W57312  38.051   6.465  13.899
88919W        W57313  37.384  43.082  11.871
88920W        W57314  38.939  36.830   3.533
88921W        W57315  17.888  12.391  13.734
88922W        W57316   0.055  41.306  10.846
88923W        W57317  34.062  42.809   3.265
88924W        W57318  16.734  16.214   0.663
88925W        W57319  23.281  15.770   1.352
88926W        W57320  25.050   6.143   1.816
88927W        W57321  25.337  35.500   0.326
88928W        W57322   1.456   4.711  12.652
88929W        W57323  34.044  32.093  14.382
88930W        W57324  25.290   2.302  13.098
88931W        W57325  21.260  17.765  12.852
88932W        W57326  12.178  31.688  13.419
88933W        W57327  21.847  22.911  13.979
88934W        W57328  31.341   4.654  13.015
88935W        W57329  29.545  38.068   2.390
88936W        W57330  12.627  25.564   3.924
88937W        W57331  32.065  25.352  13.354
88938W        W57332  22.327  10.303  13.649
88939W        W57333  24.506  13.356   1.643
88940W        W57334  13.903  38.099   5.078
88941W        W57335  19.207  22.215   2.794
88942W        W57336  26.512   0.348   3.318
88943W        W57337  26.391  11.261   1.217
88944W        W57338  41.807   6.683   3.458
88945W        W57339   5.769  32.921   3.162
88946W        W57340   2.752  34.103  14.835
88947W        W57341  20.290  22.995   0.529
88948W        W57342  17.770  21.533   2.810
88949W        W57343  26.606   7.536  10.967
88950W        W57344   0.520  37.219   1.303
88951W        W57345  21.298  20.123  11.978
88952W        W57346  23.161  34.494   2.770
88953W        W57347   8.775  19.815  14.526
88954W        W57348  30.675  31.962  13.831
88955W        W57349   7.615  42.303   1.435
88956W        W57350  35.950   6.652   1.705
88957W        W57351  23.558   2.359   2.170
88958W        W57352   5.147  37.576  13.951
88959W        W57353   8.164  39.183   2.467
88960W        W57354   7.868  22.508   4.252
88961W        W57355   0.335  11.331  12.911
88962W        W57356  17.404  11.303   1.307
88963W        W57357  28.704  42.941   0.325
88964W        W57358   4.918  34.401   4.482
88965W        W57359  12.771  31.527   3.639
88966W        W57360   3.705  21.714  11.143
88967W        W57361  29.738   8.796  13.780
88968W        W57362  34.951  34.895   0.934
88969W        W57363  38.841  25.208   0.201
88970W        W57364  22.563  30.001   1.412
88971W        W57365   4.142   9.322   2.623
88972W        W57366  28.514  15.867  12.101
88973W        W57367  21.805  27.121  14.363
88974W        W57368  32.217  34.598  11.117
88975W        W57369  17.246   1.827  13.509
88976W        W57370  19.483  24.240  12.263
88977W        W57371   4.880  43.438   2.185
88978W        W57372  13.255  22.489   0.814
88979W        W57373   6.660  21.932  14.323
88980W        W57374   5.931   7.162  10.611
88981W        W57375   1.985  21.475  12.220
88982W        W57376   0.830  21.524   4.783
88983W        W57377  34.583   4.983   2.309
88984W        W57378  38.078  16.283  10.685
88985W        W57379  16.535  24.758   2.668
88986W        W57380  10.672  16.108   1.494
88987W        W57381  28.002  40.837  14.809
88988W        W57382  40.072  44.869  11.758
88989W        W57383  25.132  17.338   1.074
88990W        W57384  22.905  17.713  14.714
88991W        W57385  21.936  19.431   3.638
88992W        W57386   0.338   0.277  13.871
88993W        W57387  33.940  12.801  10.690
88994W        W57388  24.149  24.601   2.270
88995W        W57389   9.561  25.563  12.057
88996W        W57390   8.154  17.165   0.221
88997W        W57391  19.263  37.509  12.479
88998W        W57392  22.745  36.941  14.391
88999W        W57393  32.021  40.088   0.928
89000W        W57394  33.187   2.202   3.701
89001W        W57395   4.707  35.144   3.212
89002W        W57396  10.674  40.509   3.623
89003W        W57397  20.277   1.487  14.248
89004W        W57398  29.781   8.336   1.421
89005W        W57399  19.656   2.742   3.226
89006W        W57400  20.631  31.974   4.266
89007W        W57401   2.521  18.796  12.260
89008W        W57402  42.422  39.295   1.883
89009W        W57403   9.273  42.523  11.012
89010W        W57404  26.743  35.901   4.254
89011W        W57405  35.051  25.988  12.042
89012W        W57406  34.743  40.495   5.007
89013W        W57407  15.859  20.179   4.641
89014W        W57408  27.668   3.832  11.555
89015W        W57409  42.493  14.239  12.367
89016W        W57410   1.901   5.240  11.145
89017W        W57411  24.727   2.005   2.161
89018W        W57412   5.827  12.527   2.335
89019W        W57413   7.903  10.956   4.106
89020W        W57414  33.832  44.554   1.319
89021W        W57415  34.906  25.211   0.711
89022W        W57416  37.273  28.545   1.418
89023W        W57417  16.534  22.551  14.988
89024W        W57418  34.794  31.890   9.922
89025W        W57419   0.047   8.687  14.706
89026W        W57420  37.777  30.427   2.288
89027W        W57421  41.257  36.533  10.215
89028W        W57422   0.258  34.631   2.595
89029W        W57423   4.768  15.731  12.062
89030W        W57424  14.856  12.523  11.122
89031W        W57425  31.931  29.887   0.252
89032W        W57426  18.719  32.327   4.573
89033W        W57427  43.383  28.389  14.011
89034W        W57428  32.472  17.805   0.103
89035W        W57429   8.751  13.379  10.540
89036W        W57430  38.894  13.294  11.509
89037W        W57431  39.354   3.212   0.220
89038W        W57432   4.242  42.327  13.537
89039W        W57433  29.570  10.379   1.986
89040W        W57434  11.914  30.543   0.922
89041W        W57435  17.503   8.600  10.492
89042W        W57436  29.835  11.161   1.933
89043W        W57437   4.526  26.953   2.290
89044W        W57438  30.450  26.607   3.177
89045W        W57439   9.659   7.587   4.620
89046W        W57440  20.754   4.598  13.776
89047W        W57441  31.414  17.209   1.574
89048W        W57442  43.605  43.888  13.381
89049W        W57443  37.518  33.537  14.643
89050W        W57444  41.888  22.114  12.691
89051W        W57445  29.042  38.379   0.749
89052W        W57446  34.996   0.191   4.448
89053W        W57447   3.218   3.356   0.821
89054W        W57448   8.291  19.629  14.481
89055W        W57449  14.207  36.074   1.782
89056W        W57450  34.105  44.862   4.652
89057W        W57451  39.666   0.849  14.880
89058W        W57452  34.321  25.943  13.287
89059W        W57453  27.494  20.754   0.141
89060W        W57454  32.451  43.031  10.562
89061W        W57455  23.070  26.460  12.043
89062W        W57456  43.062  26.635   2.785
89063W        W57457  15.194  44.163   4.171
89064W        W57458   9.096  29.197  12.964
89065W        W57459  10.060   6.422   2.200
89066W        W57460   5.277   8.556  12.301
89067W        W57461  32.195   7.310   2.148
89068W        W57462  31.370   5.155  11.490
89069W        W57463  33.216  31.116  14.824
89070W        W57464  12.214  31.593   3.306
89071W        W57465  32.073   4.627  14.197
89072W        W57466  11.120  36.108  14.961
89073W        W57467  39.998  36.098   4.612
89074W        W57468  32.479   5.270  10.803
89075W        W57469  19.264  27.125  12.513
89076W        W57470  38.839  37.553  11.572
89077W        W57471  12.691  32.498   1.476
89078W        W57472   4.880   7.421   4.308
89079W        W57473  42.290  31.493  11.937
89080W        W57474  26.685  38.024  14.298
89081W        W57475  43.305  16.848  11.988
89082W        W57476  44.616   7.784   2.380
89083W        W57477  33.762  44.017  13.622
89084W        W57478  21.643   8.186   3.730
89085W        W57479  11.083  13.300  14.886
89086W        W57480  37.027   2.910  14.951
89087W        W57481   7.930  33.719   0.859
89088W        W57482  31.976  35.390  13.029
89089W        W57483  39.506  44.259  10.669
89090W        W57484  13.613   7.774  12.853
89091W        W57485   8.736  43.987   3.836
89092W        W57486  34.933  31.038   3.628
89093W        W57487  23.114  29.217   1.404
89094W        W57488  39.895   4.209   1.307
89095W        W57489   4.770  15.983   2.827
89096W        W57490  20.242  23.161   2.724
89097W        W57491  20.726  14.494   1.408
89098W        W57492  39.782  17.125   3.265
89099W        W57493  38.191  19.351   4.983
89100W        W57494  29.504  27.585  10.775
89101W        W57495   9.578  27.305   0.926
89102W        W57496  36.028  25.671   0.058
89103W        W57497  23.651  18.547  12.047
89104W        W57498   2.664   9.946  14.302
89105W        W57499   9.724   3.224  10.661
89106W        W57500   6.811  36.024  12.106
89107W        W57501  43.290  36.349  12.142
89108W        W57502  30.507  11.211  13.553
89109W        W57503  34.374  10.848   4.945
89110W        W57504  30.356  38.727  11.415
89111W        W57505  21.650   4.404  13.329
89112W        W57506  38.551  31.580   3.632
89113W        W57507  17.535  31.759   2.182
89114W        W57508  43.518  16.904   2.447
89115W        W57509  12.447   0.238  12.955
89116W        W57510  19.820   8.970   2.627
89117W        W57511  34.277  35.156  12.754
89118W        W57512   2.887   8.321  10.590
89119W        W57513   9.233  25.702  13.007
89120W        W57514  20.523  39.109   1.357
89121W        W57515   0.004  10.876  12.124
89122W        W57516   8.265  30.925  11.248
89123W        W57517  36.664  27.521   0.386
89124W        W57518  20.067   2.874   4.331
89125W        W57519  27.038  35.929   4.742
89126W        W57520   7.532  23.998  13.849
89127W        W57521  11.711  23.811   3.171
89128W        W57522  23.937  27.689  12.917
89129W        W57523  39.141   0.203   1.005
89130W        W57524  27.937  35.963   1.352
89131W        W57525  29.695   3.394  13.499
89132W        W57526  17.949  10.332   5.002
89133W        W57527  23.130  34.855  12.486
89134W        W57528  28.916  31.272  14.147
89135W        W57529  34.014   0.807   1.345
89136W        W57530  25.674   3.248   4.778
89137W        W57531  18.773   6.799   1.472
89138W        W57532  44.942  35.525   1.818
89139W        W57533   9.303  27.197   0.488
89140W        W57534  44.479  39.258   1.234
89141W        W57535   8.739  39.005   1.896
89142W        W57536  14.822  20.194   2.696
89143W        W57537  28.460  44.520   4.332
89144W        W57538  44.514  20.306  12.953
89145W        W57539  29.270  15.509   0.262
89146W        W57540  12.696  26.642   0.243
89147W        W57541  18.325  34.510   3.254
89148W        W57542  14.131   2.333  13.781
89149W        W57543  10.678  13.324  11.637
89150W        W57544  15.914  14.748   2.109
89151W        W57545  32.094  20.206   4.590
89152W        W57546  17.491   3.907   2.371
89153W        W57547   2.864  43.278   2.107
89154W        W57548   2.408   3.853   1.368
89155W        W57549  23.921   9.017   4.793
89156W        W57550  42.316  15.850  10.291
89157W        W57551   3.056  22.474  14.948
89158W        W57552   5.897   8.697   4.715
89159W        W57553  39.935  34.345  11.165
89160W        W57554  23.300   8.134  13.554
89161W        W57555  25.998  44.709   2.901
89162W        W57556  21.279  20.296   4.053
89163W        W57557  11.637  23.505  14.691
89164W        W57558   1.339  37.953  13.364
89165W        W57559   6.890  28.580   3.398
89166W        W57560  18.620   6.001  12.617
89167W        W57561  19.051  10.121  12.391
89168W        W57562  26.391  40.863  13.831
89169W        W57563  44.464  27.171   1.716
89170W        W57564  26.509  33.120  11.762
89171W        W57565  11.348  20.216   0.825
89172W        W57566  10.726   9.154  14.434
89173W        W57567   6.902  25.589   3.317
89174W        W57568  40.588   5.153  14.709
89175W        W57569  26.593  21.287   1.270
89176W        W57570  34.465   3.297   2.750
89177W        W57571  19.441  40.973  12.112
89178W        W57572  32.315  19.561   2.823
89179W        W57573  24.559  30.639   0.215
89180W        W57574  33.577  40.248  10.331
89181W        W57575  20.566   3.298  11.987
89182W        W57576  15.746  20.773   1.680
89183W        W57577  32.210  38.551   4.592
89184W        W57578  43.593  41.750   0.291
89185W        W57579  25.638  32.972  13.529
89186W        W57580  21.503   2.050   2.779
89187W        W57581  21.657  14.862   4.208
89188W        W57582  25.740  21.322   1.537
89189W        W57583  39.874  29.123  11.158
89190W        W57584  37.060  14.239  11.145
89191W        W57585  23.872   6.308  10.635
89192W        W57586  44.484  15.151   2.383
89193W        W57587  32.965   1.217   2.274
89194W        W57588  11.107  36.986   0.826
89195W        W57589   6.372  40.985  13.414
89196W        W57590  30.129  22.511   0.872
89197W        W57591  26.119   9.442  13.864
89198W        W57592  25.091  14.142  13.475
89199W        W57593  21.632  22.519   4.106
89200W        W57594  21.283   6.672  11.102
89201W        W57595  44.633  16.250  14.848
89202W        W57596   1.639  17.751  11.170
89203W        W57597   8.578  31.690  14.948
89204W        W57598  23.482  28.153  10.431
89205W        W57599  12.419  17.716   2.829
89206W        W57600   1.788  19.054  14.896
89207W        W57601  27.145   2.960   4.434
89208W        W57602  24.602   3.333  14.222
89209W        W57603  10.327  10.155   1.449
89210W        W57604  22.779  35.628   2.835
89211W        W57605  20.258  39.697   0.088
89212W        W57606  28.850  13.647  12.538
89213W        W57607  39.310  24.534   1.312
89214W        W57608  31.109   5.209  11.930
89215W        W57609  19.654  44.584   2.183
89216W        W57610  23.169  38.142   2.472
89217W        W57611  15.127  26.485  13.445
89218W        W57612  42.259  10.956   1.783
89219W        W57613  29.323   8.795  14.098
89220W        W57614   5.807  24.160  13.623
89221W        W57615  27.336  17.935   4.177
89222W        W57616  21.149  28.176  12.124
89223W        W57617  36.896  28.056   3.666
89224W        W57618   0.769  33.567  14.359
89225W        W57619  16.743   6.306  13.842
89226W        W57620   6.019  13.038  12.537
89227W        W57621  40.889  27.611  11.667
89228W        W57622  18.610  22.574   3.533
89229W        W57623  23.012  37.103   1.694
89230W        W57624  10.497  31.230  14.585
89231W        W57625  40.411  39.442   2.202
89232W        W57626  35.438  36.823   1.326
89233W        W57627   6.661  42.553  12.990
89234W        W57628   4.251  20.491  10.713
89235W        W57629  36.501  32.560   0.420
89236W        W57630  27.966  17.161   4.073
89237W        W57631   5.417  25.449  11.147
89238W        W57632  21.578  35.124  12.916
89239W        W57633  23.534   0.289   0.859
89240W        W57634  31.243  10.068   3.163
89241W        W57635  18.048  24.897  10.722
89242W        W57636  38.572   1.836   2.293
89243W        W57637  27.466  38.005  10.732
89244W        W57638   9.641  19.750   2.724
89245W        W57639  26.935  21.413  14.494
89246W        W57640   1.968  39.064  14.493
89247W        W57641  21.259  20.732   2.725
89248W        W57642   2.480   4.389  12.543
89249W        W57643  12.611  40.247   0.994
89250W        W57644  19.328   3.851   1.045
89251W        W57645   1.400  29.847   2.907
89252W        W57646  13.066  38.072   2.765
89253W        W57647  29.655   5.267   0.924
89254W        W57648   3.927  20.995   3.804
89255W        W57649  33.444  16.296   1.902
89256W        W57650  39.229  37.219  12.626
89257W        W57651  30.356  13.642   0.245
89258W        W57652  36.790  39.118   2.239
89259W        W57653  18.730  19.833   1.447
89260W        W57654  12.106  24.271  13.587
89261W        W57655  26.274  38.880   1.168
89262W        W57656  30.507  30.083   3.594
89263W        W57657  37.020  38.644   2.314
89264W        W57658  33.370  21.031   4.099
89265W        W57659   7.185   9.654   3.266
89266W        W57660   3.725  42.252  13.514
89267W        W57661   2.956   6.346   4.648
89268W        W57662   0.433  38.804   0.298
89269W        W57663  26.599  14.101  13.825
89270W        W57664   2.399  40.988   4.492
89271W        W57665  14.651  42.605   3.292
89272W        W57666   7.268   6.523   5.508
89273W        W57667  20.935  18.584  14.399
89274W        W57668  27.903   6.615   2.746
89275W        W57669  23.783  13.282  10.505
89276W        W57670  33.836  35.026  13.409
89277W        W57671  35.638   6.349  11.741
89278W        W57672  33.421   7.215  11.637
89279W        W57673   6.731  37.199  12.982
89280W        W57674  29.029  37.224   1.743
89281W        W57675  36.635   6.499  14.842
89282W        W57676  27.703   5.330   0.322
89283W        W57677  44.766  15.379  13.388
89284W        W57678  31.429  16.779   1.890
89285W        W57679   7.673  16.212  12.114
89286W        W57680  11.580  28.770   2.725
89287W        W57681  22.222  40.550   2.896
89288W        W57682  24.034   3.941  10.650
89289W        W57683  16.709  38.484   1.912
89290W        W57684  39.321  38.789   2.760
89291W        W57685  24.301   9.202  13.458
89292W        W57686  19.691  19.772   2.386
89293W        W57687  21.595  42.126  12.887
89294W        W57688   9.884  40.302  12.976
89295W        W57689  20.925  12.555   1.203
89296W        W57690  33.887  20.957  12.581
89297W        W57691  17.649   1.268   2.117
89298W        W57692   7.203   9.865   0.200
89299W        W57693  20.754  24.028  13.515
89300W        W57694  33.519   7.622   4.800
89301W        W57695  25.481  24.088   2.419
89302W        W57696   2.825  32.096   2.205
89303W        W57697  31.602  10.831  12.052
89304W        W57698  31.591  39.005   4.181
89305W        W57699  27.675  32.293  11.090
89306W        W57700  11.480  43.994   4.538
89307W        W57701  39.815  14.776  11.159
89308W        W57702  25.701  29.958  14.891
89309W        W57703   3.760  38.850   1.331
89310W        W57704  35.021  15.387   3.785
89311W        W57705  30.178  11.793   2.806
89312W        W57706  29.611   2.939   0.707
89313W        W57707   7.184  20.261  14.912
89314W        W57708  26.507  44.338   0.816
89315W        W57709  34.652   6.816  11.054
89316W        W57710  12.562  12.718  11.274
89317W        W57711   9.300  24.779  10.623
89318W        W57712   9.419  39.334  12.999
89319W        W57713  11.981  38.559   4.101
89320W        W57714   0.897  31.890   3.801
89321W        W57715  44.283   8.372   2.232
89322W        W57716  13.542   1.289  11.551
89323W        W57717  22.613  41.977   3.348
89324W        W57718  20.178  41.185  11.553
89325W        W57719  15.596  21.923  12.911
89326W        W57720  26.554  38.090   2.244
89327W        W57721   9.784  43.908   4.572
89328W        W57722   7.690  27.466  11.189
89329W        W57723  42.875  29.322   4.844
89330W        W57724   9.835  31.574   2.314
89331W        W57725  15.797  43.058  12.849
89332W        W57726   9.783  31.059  10.692
89333W        W57727  31.651  18.239   0.416
89334W        W57728  11.569  26.713  12.153
89335W        W57729  25.056  13.907  13.021
89336W        W57730  13.381  44.599  14.669
89337W        W57731  29.618  39.627  12.911
89338W        W57732   3.472  31.457   0.542
89339W        W57733  32.595   1.827  12.578
89340W        W57734  44.722   1.920  12.028
89341W        W57735   1.959  20.737   4.696
89342W        W57736  28.555  21.313   2.313
89343W        W57737  15.289  13.425  12.498
89344W        W57738  35.708  40.089  11.096
89345W        W57739  44.383  18.827   3.387
89346W        W57740  15.312   9.658  14.319
89347W        W57741  24.400  27.003  10.921
89348W        W57742  12.199   1.467  10.516
89349W        W57743  39.929  41.753   3.220
89350W        W57744  13.044  31.147  14.982
89351W        W57745  27.212  15.650  13.676
89352W        W57746  42.997   0.636  13.705
89353W        W57747  40.538   4.955  12.012
89354W        W57748   9.284   9.359   4.890
89355W        W57749  37.145  27.731   0.307
89356W        W57750   4.265   3.646   5.231
89357W        W57751   4.294  25.567   3.778
89358W        W57752  19.184  17.767   0.837
89359W        W57753  25.678  23.300   0.470
89360W        W57754  36.448  22.997  10.691
89361W        W57755  33.937  14.560  13.947
89362W        W57756  32.697  34.131  12.962
89363W        W57757  43.861  16.058   1.878
89364W        W57758  32.708  34.036   3.239
89365W        W57759   7.902  17.868  13.131
89366W        W57760  15.680  13.796   3.121
89367W        W57761  11.420   3.783  10.739
89368W        W57762  31.406  19.075   1.951
89369W        W57763  27.405  34.493   2.567
89370W        W57764  30.364  44.547  14.220
89371W        W57765  26.122  38.562  14.935
89372W        W57766  38.890   9.147  11.028
89373W        W57767  15.252  39.602  13.906
89374W        W57768  39.929  15.423   9.811
89375W        W57769  27.763  22.715   4.911
89376W        W57770  28.057  25.661   2.391
89377W        W57771  12.339   9.858  14.040
89378W        W57772  24.444  31.722   0.131
89379W        W57773  16.397  12.617   4.496
89380W        W57774   0.484  35.047  13.495
89381W        W57775  27.472  15.309   4.171
89382W        W57776  40.413  12.729  10.306
89383W        W57777  43.788  21.232   0.122
89384W        W57778   5.495  41.142   1.705
89385W        W57779   4.761  15.512  14.357
89386W        W57780  30.586  37.511  14.940
89387W        W57781  34.394  22.717   1.216
89388W        W57782  35.032  23.919   1.379
89389W        W57783  24.301  15.409  10.802
89390W        W57784  24.138   2.863  10.607
89391W        W57785   9.388  15.013   1.276
89392W        W57786  25.494   1.236   2.862
89393W        W57787  12.911  38.870   0.739
89394W        W57788  12.512  41.433   2.255
89395W        W57789  21.690  33.536   3.590
89396W        W57790   4.197   5.429   1.948
89397W        W57791  42.763  24.442  11.170
89398W        W57792  40.357  21.557   2.126
89399W        W57793   2.512  38.880   4.060
89400W        W57794  12.923  32.116   1.182
89401W        W57795  37.742  44.693  11.088
89402W        W57796  40.484  39.197  10.163
89403W        W57797  36.093  37.046   4.767
89404W        W57798   7.302  23.561  13.087
89405W        W57799  20.694   8.578  12.838
89406W        W57800  19.125  28.882   4.232
89407W        W57801  27.489  31.674  11.593
89408W        W57802  29.549  42.452   4.211
89409W        W57803  23.687  32.603  11.994
89410W        W57804  27.023  30.060   1.654
89411W        W57805  19.762  28.240  12.136
89412W        W57806  16.623  26.147   0.736
89413W        W57807  42.085  15.446   3.165
89414W        W57808  26.011  14.067   3.124
89415W        W57809  12.122  32.831   0.734
89416W        W57810  38.069  41.635  13.041
89417W        W57811  14.769  41.657   0.387
89418W        W57812  18.299  29.346  12.925
89419W        W57813  35.118  30.600   2.300
89420W        W57814   3.327  21.250  13.060
89421W        W57815  27.755   7.832   3.859
89422W        W57816  28.940  27.157  11.594
89423W        W57817  16.887  28.804  13.238
89424W        W57818  28.916  43.553   3.688
89425W        W57819  37.808  27.189   0.729
89426W        W57820   1.499   1.417  12.575
89427W        W57821  39.770  28.716   4.669
89428W        W57822   6.171  24.906   0.178
89429W        W57823   0.407   7.759  14.520
89430W        W57824   4.768  15.342   5.002
89431W        W57825   4.144  18.600  11.105
89432W        W57826  41.967  34.998  13.389
89433W        W57827  34.535  20.294   2.709
89434W        W57828  36.048  12.802   2.633
89435W        W57829   9.631  37.399  12.999
89436W        W57830  34.758  30.393   0.697
89437W        W57831  44.466  44.049  14.425
89438W        W57832  23.733  14.094  14.456
89439W        W57833  22.640   0.375   3.214
89440W        W57834  28.332  32.288   2.739
89441W        W57835   2.390   7.847   0.368
89442W        W57836  36.019   7.115   1.930
89443W        W57837   0.818  34.911  12.124
89444W        W57838  30.727  14.749   1.211
89445W        W57839  12.082  13.461  12.068
89446W        W57840   8.189  14.065   2.730
89447W        W57841   3.939   5.367  12.060
89448W        W57842  27.044   9.125   3.608
89449W        W57843  24.974  27.540  13.025
89450W        W57844  30.185  32.679  13.495
89451W        W57845  27.969  26.345   2.620
89452W        W57846   0.421   5.409  12.835
89453W        W57847  16.311  23.510  11.123
89454W        W57848  11.520  39.405  14.860
89455W        W57849  16.638  27.511   4.538
89456W        W57850  41.074  30.575   2.054
89457W        W57851  15.109  25.923   1.964
89458W        W57852  35.048  14.733   0.558
89459W        W57853   0.738  10.230  12.908
89460W        W57854  44.034   3.998  10.980
89461W        W57855   5.023   7.249   0.903
89462W        W57856   6.960  11.056   4.182
89463W        W57857  12.525  33.784  12.851
89464W        W57858  30.869  32.973  11.181
89465W        W57859  19.825  20.605  13.724
89466W        W57860  31.020  15.044  10.926
89467W        W57861   0.882  36.387  13.967
89468W        W57862  10.482  33.940   0.857
89469W        W57863  34.395  43.300  13.407
89470W        W57864  18.476  10.194  10.267
89471W        W57865  11.622  12.358  14.000
89472W        W57866   8.424  36.079   2.701
89473W        W57867   3.241  13.403   0.324
89474W        W57868  11.407  39.276   2.958
89475W        W57869  24.059  20.920  10.312
89476W        W57870  44.396  34.944  12.224
89477W        W57871  42.962  12.339  14.828
89478W        W57872   5.795  27.363   4.792
89479W        W57873  31.403  18.260   0.961
89480W        W57874  31.968  16.800  12.488
89481W        W57875  21.507  14.385   4.214
89482W        W57876  27.190  17.641   0.286
89483W        W57877   1.823  30.174  10.404
89484W        W57878   9.699   8.037   0.280
89485W        W57879  39.970  15.145   1.428
89486W        W57880  13.524   3.236   4.124
89487W        W57881   7.152  26.328   5.736
89488W        W57882  23.507  41.755  10.542
89489W        W57883  27.704  28.116  12.334
89490W        W57884  43.952  37.186   4.061
89491W        W57885   6.150   2.667  13.461
89492W        W57886   4.735  42.510  13.496
89493W        W57887  39.957  43.319   3.260
89494W        W57888   5.278  44.720  14.957
89495W        W57889  15.432  16.843  11.148
89496W        W57890  44.073   1.114  10.764
89497W        W57891  18.884   1.277   0.719
89498W        W57892  19.578  11.402   2.856
89499W        W57893   4.732  35.118  12.202
89500W        W57894   5.154  25.056  14.515
89501W        W57895  26.735   9.387  12.431
89502W        W57896  27.927  23.659  14.876
89503W        W57897  31.476  43.844  14.524
89504W        W57898  43.244  34.600  14.047
89505W        W57899  36.345  44.569   0.985
89506W        W57900  28.982  38.582  13.964
89507W        W57901   4.083  36.078   1.922
89508W        W57902  15.334  20.919  12.951
89509W        W57903  23.091   1.312  10.636
89510W        W57904   6.818   6.660  11.403
89511W        W57905   9.110  14.968   1.726
89512W        W57906  44.558  28.326  13.501
89513W        W57907  11.632  43.540   0.367
89514W        W57908  38.580  24.905  13.885
89515W        W57909  29.888  22.509  12.838
89516W        W57910  21.017   2.641  13.842
89517W        W57911   6.167   6.233   4.069
89518W        W57912   2.048  32.995   1.866
89519W        W57913  24.618  42.791   4.612
89520W        W57914  31.890  15.173   4.474
89521W        W57915  36.952  36.852  13.116
89522W        W57916   2.734  39.410  14.391
89523W        W57917  13.356  41.957   4.084
89524W        W57918  10.607   7.780   2.978
89525W        W57919  10.264   9.818   3.646
89526W        W57920  42.863  15.253  11.040
89527W        W57921  16.440  18.053   9.665
89528W        W57922  10.698   1.444  12.708
89529W        W57923   1.143  33.809  11.173
89530W        W57924  20.298  33.437  13.146
89531W        W57925  25.094   7.383   4.365
89532W        W57926  20.505   7.258  12.332
89533W        W57927  33.818  21.204  12.122
89534W        W57928   9.907  14.854   3.179
89535W        W57929   3.674  37.973  12.462
89536W        W57930  32.895   6.735   1.743
89537W        W57931  14.299  43.647   0.226
89538W        W57932   1.716   0.470  12.475
89539W        W57933  30.603  42.932   0.521
89540W        W57934  14.203  28.166  12.765
89541W        W57935  30.062  24.465  12.600
89542W        W57936  11.799  36.915  10.307
89543W        W57937  22.699  21.669  14.529
89544W        W57938  15.180  35.180  11.296
89545W        W57939  35.274  39.364  14.359
89546W        W57940   0.408  30.539  10.460
89547W        W57941   2.864   9.858   4.111
89548W        W57942  14.337   4.715  10.689
89549W        W57943  28.396  34.145  11.235
89550W        W57944  36.667   5.595  11.949
89551W        W57945   5.600   8.794   4.189
89552W        W57946   4.389  32.023  12.467
89553W        W57947  11.349  30.146   4.102
89554W        W57948  29.388  35.665   4.353
89555W        W57949   8.994   4.489   3.083
89556W        W57950  38.502   7.047  12.214
89557W        W57951  41.515  42.336  13.600
89558W        W57952  17.968  21.943   1.341
89559W        W57953  22.664  31.863   1.808
89560W        W57954   4.655   9.601   3.295
89561W        W57955  12.388  11.434   4.527
89562W        W57956  31.603   4.222  12.892
89563W        W57957  44.997  42.405   2.622
89564W        W57958  39.815   9.088   3.642
89565W        W57959  44.274   3.774   1.252
89566W        W57960  20.579  34.582   3.743
89567W        W57961  23.407   4.788   0.015
89568W        W57962  16.702  24.267   3.771
89569W        W57963  16.417  32.541   3.605
89570W        W57964  37.082  11.718  12.514
89571W        W57965  21.566  14.639  13.301
89572W        W57966  35.556  29.623  12.067
89573W        W57967   0.618  11.037   1.691
89574W        W57968  18.585  34.727   1.789
89575W        W57969  15.790  10.726  11.971
89576W        W57970   3.013   0.283  12.029
89577W        W57971  18.293  35.542   1.912
89578W        W57972  20.398  16.081   4.112
89579W        W57973  13.087  20.016   3.307
89580W        W57974  35.850   3.856  14.615
89581W        W57975  15.214  27.423  13.393
89582W        W57976  36.284  36.950  12.127
89583W        W57977  38.357  11.696   2.388
89584W        W57978  32.071  26.311  11.633
89585W        W57979  21.640  10.678  13.969
89586W        W57980  22.673  22.458  14.439
89587W        W57981  42.841  39.515  14.260
89588W        W57982   4.149   9.075  12.129
89589W        W57983  10.720  25.033   0.366
89590W        W57984  27.813  24.687   2.412
89591W        W57985  28.414  41.896   3.333
89592W        W57986  42.947  31.462   0.725
89593W        W57987   7.039  33.393  13.341
89594W        W57988  43.588  24.578  10.858
89595W        W57989  34.841  25.451  13.547
89596W        W57990   6.201  12.019   1.605
89597W        W57991  34.797  27.916  13.522
89598W        W57992  11.798  34.914   0.443
89599W        W57993  38.561  38.895  10.867
89600W        W57994  30.544  39.213  11.491
89601W        W57995  43.408  15.110  12.159
89602W        W57996  12.462  33.100   3.970
89603W        W57997  15.874  15.492   3.334
89604W        W57998  11.146  14.303   1.834
89605W        W57999   0.849  12.614  10.995
89606W        W58000  41.014  33.515   4.487
89607W        W58001  33.695  42.052  11.608
89608W        W58002  44.943   3.521  10.894
89609W        W58003   1.970  17.904   4.670
89610W        W58004  34.060  30.670  12.408
89611W        W58005  42.055  37.287   1.275
89612W        W58006   7.349   7.557   4.433
89613W        W58007  40.208  21.260  12.356
89614W        W58008  19.799  16.766  14.545
89615W        W58009  35.070  42.981   0.233
89616W        W58010  39.312  19.583  12.559
89617W        W58011   6.918  29.760   2.854
89618W        W58012  12.320  42.304   0.196
89619W        W58013   6.668  32.719  12.112
89620W        W58014  32.991   9.915   0.995
89621W        W58015  15.159  41.334   0.376
89622W        W58016   1.434  13.035   3.305
89623W        W58017  12.417  28.294   2.434
89624W        W58018  12.094   7.165   1.177
89625W        W58019   2.237   8.333   0.332
89626W        W58020   7.332  15.286   0.464
89627W        W58021  20.020  37.112   4.040
89628W        W58022  22.230  33.152   3.079
89629W        W58023  29.393  38.287   4.168
89630W        W58024  38.410   0.288  13.927
89631W        W58025  24.755  29.636  14.948
89632W        W58026  17.474  15.083  10.256
89633W        W58027  17.385  15.936  10.114
89634W        W58028   3.502  23.058  10.727
89635W        W58029   7.593  34.322  12.447
89636W        W58030   1.937  14.825  11.562
89637W        W58031  40.821   6.735   3.348
89638W        W58032   1.763  16.838   3.740
89639W        W58033  21.736   4.371  13.943
89640W        W58034   1.340   1.030   3.148
89641W        W58035  15.043  21.147   1.870
89642W        W58036  23.185  29.386   4.069
89643W        W58037  44.767   3.310   1.271
89644W        W58038  33.930  10.888  12.508
89645W        W58039  21.017  39.543  12.665
89646W        W58040   5.930  25.140   1.967
89647W        W58041  12.627   8.139  12.329
89648W        W58042  17.073  25.639   4.618
89649W        W58043  32.107  42.954   3.350
89650W        W58044  36.998  42.263   3.208
89651W        W58045  24.826  42.311  13.774
89652W        W58046  31.054   1.750   0.261
89653W        W58047  42.664  29.235   3.113
89654W        W58048  39.068  20.690  13.983
89655W        W58049  22.842  44.462   1.255
89656W        W58050   2.644   5.961  10.991
89657W        W58051  32.814  12.639   2.217
89658W        W58052  40.980  26.438   1.388
89659W        W58053  34.244  38.490  10.915
89660W        W58054   4.025  34.830   2.601
89661W        W58055  31.925  30.318   1.011
89662W        W58056  44.758  28.706  14.969
89663W        W58057   0.709   0.395  12.574
89664W        W58058  20.697  24.590   3.726
89665W        W58059  24.650  13.879  13.392
89666W        W58060   0.312  10.857  14.445
89667W        W58061   7.450  13.669   2.170
89668W        W58062  44.411  23.514  13.335
89669W        W58063  15.572   9.709   0.988
89670W        W58064  36.596  28.968   4.581
89671W        W58065  23.396  36.578  13.378
89672W        W58066  14.795  38.008   3.157
89673W        W58067  38.537  33.457  11.470
89674W        W58068  16.309  25.016  13.838
89675W        W58069  21.157  33.513  13.278
89676W        W58070  23.312  29.906   4.668
89677W        W58071   1.768   4.848   2.815
89678W        W58072  15.803  43.514   4.548
89679W        W58073  44.285  24.575   5.147
89680W        W58074  42.215  43.960   0.308
89681W        W58075   7.165   6.257  14.226
89682W        W58076   8.130  19.964  14.063
89683W        W58077  14.120  28.164   4.579
89684W        W58078  26.920  13.271   4.142
89685W        W58079  22.548  10.303   3.638
89686W        W58080  29.654  42.813  13.781
89687W        W58081  32.048   4.103  12.647
89688W        W58082  39.033   2.403   3.192
89689W        W58083   6.119  19.671   1.418
89690W        W58084  17.753   5.079   1.887
89691W        W58085  12.415  41.593   3.942
89692W        W58086  19.671  35.180   0.407
89693W        W58087  17.135  23.262  14.588
89694W        W58088  21.576  11.052  10.126
89695W        W58089  28.885  40.453  12.774
89696W        W58090  40.533   3.182   2.191
89697W        W58091   5.807  29.068  12.131
89698W        W58092   9.893   8.040  14.297
89699W        W58093  41.739  11.284   2.340
89700W        W58094  13.730   4.859  14.305
89701W        W58095  23.197  20.631   4.159
89702W        W58096   3.706  20.951   4.532
89703W        W58097  29.853  40.432  11.197
89704W        W58098  29.703  33.126  11.990
89705W        W58099  43.327  15.135   0.965
89706W        W58100   1.903  27.574  12.410
89707W        W58101   8.407  30.025  13.907
89708W        W58102  16.373  23.502  14.297
89709W        W58103   4.504   2.376  11.000
89710W        W58104   7.372  13.698   4.852
89711W        W58105   3.626  25.453  13.880
89712W        W58106  32.487   1.642   4.521
89713W        W58107  37.462   3.003   3.222
89714W        W58108   9.117  40.586  11.218
89715W        W58109  21.627  15.543  11.574
89716W        W58110  37.452  11.755  10.654
89717W        W58111  33.827   4.163   0.683
89718W        W58112  39.551  16.818   0.209
89719W        W58113  27.144  38.029  13.493
89720W        W58114  11.947  17.564   1.419
89721W        W58115  15.369  28.325  11.411
89722W        W58116  37.930  34.887  12.966
89723W        W58117  26.591   8.818   0.452
89724W        W58118  35.432   0.940  14.172
89725W        W58119   3.918  29.534   3.540
89726W        W58120  10.450  44.079  11.641
89727W        W58121  35.902  42.886   2.053
89728W        W58122   7.463  42.897   3.707
89729W        W58123  16.674  10.347  11.833
89730W        W58124  16.549  29.101   2.197
89731W        W58125   4.866  23.222   1.592
89732W        W58126  43.557  21.509  13.790
89733W        W58127   2.178  28.684  14.997
89734W        W58128   2.823  35.306  14.033
89735W        W58129  33.459  32.379   4.546
89736W        W58130  36.482  25.000  13.875
89737W        W58131  37.999  20.082   3.095
89738W        W58132  38.305  28.650   1.787
89739W        W58133  37.461  31.500  13.288
89740W        W58134   3.245  31.212   1.873
89741W        W58135   4.931  23.108  12.443
89742W        W58136  36.305  37.456   2.842
89743W        W58137  28.139  13.124   1.622
89744W        W58138  43.283  22.134   0.176
89745W        W58139  20.481   3.914  12.649
89746W        W58140  20.779  25.018   2.294
89747W        W58141  14.758  25.531  14.575
89748W        W58142  33.063  40.233  12.579
89749W        W58143  22.647  14.578  13.382
89750W        W58144  12.560   6.834  13.009
89751W        W58145   8.643   1.314   0.502
89752W        W58146  34.815  26.688  14.569
89753W        W58147  20.492  30.541   0.017
89754W        W58148   8.974  31.964   0.106
89755W        W58149  27.054  43.477   3.566
89756W        W58150  34.339  36.284   3.252
89757W        W58151  35.849   9.238   2.935
89758W        W58152   5.430  41.057   2.644
89759W        W58153  43.821  34.404   4.109
89760W        W58154  42.812  33.155   3.724
89761W        W58155  27.714   0.960  10.787
89762W        W58156  20.459  34.301   4.162
89763W        W58157  27.961  31.238  12.148
89764W        W58158  40.026  32.517   0.051
89765W        W58159   2.631  27.858  14.363
89766W        W58160  23.398   2.928  11.022
89767W        W58161  26.751  22.732  12.986
89768W        W58162  18.734  36.931   3.968
89769W        W58163  37.378  44.029  10.686
89770W        W58164  37.736  22.171   1.355
89771W        W58165   8.331  39.968  14.779
89772W        W58166   9.530  32.002   2.217
89773W        W58167   6.873  33.618  11.552
89774W        W58168  22.095  22.258   4.137
89775W        W58169  18.176  12.832  14.477
89776W        W58170  28.300  17.562  11.572
89777W        W58171  32.574  23.175   0.706
89778W        W58172  39.822   3.347   0.052
89779W        W58173  19.105   6.208  12.578
89780W        W58174   9.123  14.783   3.696
89781W        W58175  13.557   8.785   2.302
89782W        W58176  27.208  18.153  10.372
89783W        W58177  38.442  25.062   0.479
89784W        W58178  17.916  31.959   0.782
89785W        W58179  15.712  44.465  13.083
89786W        W58180  34.084   9.424   1.847
89787W        W58181  25.171   7.206   0.842
89788W        W58182  42.006  16.809   1.974
89789W        W58183  42.133   8.235   3.694
89790W        W58184  17.803  15.287  11.153
89791W        W58185  16.268  24.752  12.513
89792W        W58186  28.219  22.830  13.788
89793W        W58187  10.057   5.617   9.981
89794W        W58188  27.048  27.186   0.783
89795W        W58189   8.329   6.486   2.182
89796W        W58190   6.181  36.389   9.963
89797W        W58191  31.838  21.854  12.099
89798W        W58192  36.947  15.628  14.991
89799W        W58193  20.625  38.381  14.009
89800W        W58194  19.739  10.183   1.998
89801W        W58195   3.942  12.112   2.612
89802W        W58196  14.695  44.019   4.339
89803W        W58197  26.026  23.514  14.890
89804W        W58198  44.171  26.532   0.940
89805W        W58199  16.230  21.693   3.832
89806W        W58200  16.188  19.121   0.931
89807W        W58201   2.836  24.486  11.713
89808W        W58202  24.336  42.878   0.020
89809W        W58203  39.752  29.081  14.462
89810W        W58204  22.518  32.481  11.550
89811W        W58205  41.294   3.258  14.566
89812W        W58206  19.202  39.828  12.879
89813W        W58207  23.417   5.813  11.183
89814W        W58208  26.174  21.738   0.780
89815W        W58209  11.186   9.227   1.450
89816W        W58210  30.202  15.266  13.896
89817W        W58211  43.737  14.856  14.148
89818W        W58212  15.447  16.722   5.146
89819W        W58213  39.939  33.951   0.950
89820W        W58214  30.905   8.210  14.391
89821W        W58215   6.305  11.850   2.107
89822W        W58216  20.932  28.025   4.570
89823W        W58217   9.881   1.813  14.411
89824W        W58218  44.388   6.501  12.302
89825W        W58219  32.925  26.831   4.274
89826W        W58220  39.933  23.201   4.136
89827W        W58221  22.572  30.796   2.111
89828W        W58222  18.979   0.251   4.568
89829W        W58223  42.548   4.166   3.966
89830W        W58224  13.402  34.915  12.800
89831W        W58225  30.148  31.496   2.831
89832W        W58226   5.752   1.469   3.209
89833W        W58227  30.094  22.682  11.209
89834W        W58228  44.297  43.257  14.761
89835W        W58229  43.991  39.808  13.521
89836W        W58230  21.160  41.050   3.684
89837W        W58231   9.867  28.522  12.985
89838W        W58232  25.155   0.935   3.170
89839W        W58233  30.997  10.583  13.847
89840W        W58234   4.513  15.513   2.763
89841W        W58235  40.144   6.406   0.872
89842W        W58236  42.378  44.009   4.073
89843W        W58237   5.433  22.412   0.674
89844W        W58238  27.961  42.353   1.287
89845W        W58239  11.923  33.998  10.751
89846W        W58240  21.693  38.622   0.280
89847W        W58241   0.750  27.557  13.909
89848W        W58242  35.381  42.987   1.941
89849W        W58243  28.069  11.885  14.529
89850W        W58244  31.440  11.158   1.961
89851W        W58245  43.883  23.120  12.486
89852W        W58246   1.909  16.460   1.566
89853W        W58247  35.918  36.130  12.397
89854W        W58248  27.054   2.494   4.266
89855W        W58249  42.523  36.396   1.398
89856W        W58250  29.152  38.509  12.041
89857W        W58251  33.154   8.991   1.456
89858W        W58252  13.224   3.674  11.041
89859W        W58253  16.028  16.636   4.307
89860W        W58254  15.103  25.996  11.151
89861W        W58255  38.676  25.713  13.063
89862W        W58256  15.934  37.533   3.698
89863W        W58257  39.859  14.238  13.395
89864W        W58258   5.138  42.113  12.661
89865W        W58259  28.016  23.076  11.045
89866W        W58260  43.924  43.063  13.659
89867W        W58261  17.035  35.649   0.759
89868W        W58262  16.693  32.311  11.086
89869W        W58263  20.703  25.146   3.692
89870W        W58264  32.360  37.376   4.107
89871W        W58265   7.876  41.266  14.258
89872W        W58266  34.000  28.048   1.391
89873W        W58267  32.590  23.942  14.467
89874W        W58268  14.868  14.654   2.341
89875W        W58269  40.509  39.412   3.782
89876W        W58270  41.371  14.090   4.451
89877W        W58271  13.524  20.132  12.630
89878W        W58272  18.377  33.185   3.246
89879W        W58273  22.082  27.051   4.844
89880W        W58274  29.724  43.956   2.581
89881W        W58275  37.434   1.395   3.267
89882W        W58276  25.130  22.661  14.860
89883W        W58277  30.503  26.366   4.599
89884W        W58278  23.283  16.264  14.475
89885W        W58279  44.703  20.313  14.911
89886W        W58280   9.854   3.345  11.611
89887W        W58281  40.214  27.114  13.110
89888W        W58282  19.423  20.327  13.542
89889W        W58283  36.028  36.796  10.746
89890W        W58284   4.815  42.716  13.007
89891W        W58285   1.140  33.482   3.820
89892W        W58286  24.031  14.290   3.232
89893W        W58287  18.594  22.573   4.891
89894W        W58288  10.243  11.168  11.962
89895W        W58289  25.307  20.043   1.789
89896W        W58290  38.890  17.743   1.938
89897W        W58291  27.172  39.287   3.215
89898W        W58292  16.208  39.888  14.376
89899W        W58293   6.758  12.873  11.862
89900W        W58294  29.682  32.930   2.818
89901W        W58295   8.466  14.109   0.984
89902W        W58296  17.242  26.932  14.530
89903W        W58297  11.218  32.335   0.398
89904W        W58298  29.391   8.646   2.669
89905W        W58299  34.660  21.594   2.139
89906W        W58300  39.919  35.231   0.184
89907W        W58301  16.895  41.792   1.619
89908W        W58302  42.434  37.868   0.482
89909W        W58303   4.936   0.563  10.779
89910W        W58304   9.252   3.735  10.783
89911W        W58305   1.218  16.879  10.960
89912W        W58306  13.786   9.421  13.019
89913W        W58307  31.070  24.236  14.485
89914W        W58308   0.208  27.092   0.256
89915W        W58309  19.002  21.727  14.832
89916W        W58310  14.068  18.322  12.440
89917W        W58311  30.178  31.940  13.958
89918W        W58312  27.134  28.013   4.793
89919W        W58313  36.926  10.210   1.462
89920W        W58314  29.262  25.802  14.402
89921W        W58315  19.580  30.467   0.745
89922W        W58316  38.575  15.573   3.405
89923W        W58317  36.682  30.315  10.821
89924W        W58318   7.263  19.239   1.730
89925W        W58319  44.968   3.089  11.258
89926W        W58320  18.810   2.300   3.312
89927W        W58321  41.911  11.354  14.334
89928W        W58322  29.832  13.698   3.319
89929W        W58323  31.045  21.765   3.780
89930W        W58324  21.213  17.544   3.872
89931W        W58325  21.687  25.454  12.320
89932W        W58326  42.410  14.182  11.369
89933W        W58327  18.235   1.499   1.318
89934W        W58328  39.939  42.602  10.496
89935W        W58329   7.391  12.602  14.405
89936W        W58330  31.988  14.018   3.311
89937W        W58331  10.657  22.091   2.345
89938W        W58332  40.398  37.338  10.153
89939W        W58333  39.370   5.240  11.017
89940W        W58334   4.744  31.567  13.982
89941W        W58335  24.786  38.828   4.127
89942W        W58336   8.381   4.802   1.632
89943W        W58337   2.994   5.561   2.967
89944W        W58338  13.331  12.223   4.060
89945W        W58339  32.728  18.606   2.352
89946W        W58340  15.872  23.766  11.081
89947W        W58341  34.066  15.106   3.590
89948W        W58342  18.013  36.785  13.819
89949W        W58343  17.752  15.496   5.366
89950W        W58344  24.042  13.242   2.909
89951W        W58345  21.801   9.996   0.950
89952W        W58346  36.365  43.756  12.599
89953W        W58347  10.796  28.422  11.974
89954W        W58348  19.272  13.021   0.451
89955W        W58349  43.382  22.522  13.866
89956W        W58350  43.517  17.549  12.533
89957W        W58351  43.505   5.661  13.139
89958W        W58352  13.085   7.458  10.085
89959W        W58353  44.709  16.466  11.935
89960W        W58354   5.454   4.780  11.585
89961W        W58355   0.683  25.681   0.364
89962W        W58356  17.592  37.686   4.908
89963W        W58357   3.933  13.104   2.422
89964W        W58358  31.915  24.780   4.340
89965W        W58359   8.972  16.028  13.538
89966W        W58360  18.231  16.618  13.629
89967W        W58361  39.340  41.316  12.084
89968W        W58362  40.810  29.106   1.017
89969W        W58363   8.316  44.667   2.349
89970W        W58364  41.512   3.691  14.753
89971W        W58365  19.789  25.165  11.188
89972W        W58366  17.275   4.677  11.581
89973W        W58367  31.995  24.931  14.761
89974W        W58368  17.726   3.322  12.289
89975W        W58369  36.501  25.132  10.863
89976W        W58370  26.459  36.342   4.164
89977W        W58371  23.203  36.412  12.209
89978W        W58372   6.456  26.208  12.954
89979W        W58373   5.053  26.421   1.798
89980W        W58374  39.624  26.575   4.686
89981W        W58375   6.998  16.769   1.531
89982W        W58376  34.633  39.047   1.456
89983W        W58377  27.447  25.606  12.118
89984W        W58378  36.871  28.269  12.894
89985W        W58379   7.150   1.851   4.690
89986W        W58380  38.892   5.244  10.786
89987W        W58381  36.413   0.215  12.528
89988W        W58382  26.464  24.595   0.939
89989W        W58383  34.571  17.605  12.447
89990W        W58384  14.256  10.694  12.908
89991W        W58385  29.129  31.182   4.165
89992W        W58386  41.084  41.777  11.579
89993W        W58387  34.740  23.319   2.555
89994W        W58388  28.456  19.649  13.404
89995W        W58389  23.601   5.069  14.000
89996W        W58390  19.238  37.557   3.813
89997W        W58391   6.912  43.696  14.777
89998W        W58392  43.113  12.138   3.360
89999W        W58393  31.114  14.098  12.946
90000W        W58394  14.943  24.062   4.775
90001W        W58395  16.222  34.103   1.208
90002W        W58396  19.262   0.855   3.070
90003W        W58397  24.637  12.299   0.263
90004W        W58398  13.262  39.363  10.622
90005W        W58399  28.058  39.871   0.547
90006W        W58400  23.063  28.173   3.708
90007W        W58401  17.453  31.820  14.973
90008W        W58402  40.103  10.161   4.850
90009W        W58403  28.853   3.614  12.009
90010W        W58404  27.074  24.230  13.826
90011W        W58405  24.773  13.976   0.799
90012W        W58406  33.041   7.472  10.943
90013W        W58407  14.374  10.509  14.598
90014W        W58408   9.821  28.129   3.121
90015W        W58409  13.717  26.004  12.225
90016W        W58410  32.624  26.951   4.702
90017W        W58411  37.603  37.117  12.076
90018W        W58412  16.768  34.385   3.597
90019W        W58413  34.278  11.109   0.977
90020W        W58414   6.779  17.815  14.319
90021W        W58415  38.553  21.990   4.072
90022W        W58416  35.936  23.586   0.246
90023W        W58417  33.929   3.441  13.294
90024W        W58418  34.390  10.667   2.166
90025W        W58419  39.681  35.474   1.452
90026W        W58420   9.666   4.339  13.358
90027W        W58421   5.865  32.666  12.953
90028W        W58422  23.080  40.072  12.423
90029W        W58423  40.786  33.694  12.557
90030W        W58424  18.596  19.770   4.981
90031W        W58425  37.518  20.962  14.791
90032W        W58426   1.849  33.552  14.772
90033W        W58427  35.395   9.371   3.510
90034W        W58428  11.818   2.014   1.853
90035W        W58429  37.484  32.537  12.900
90036W        W58430  26.751  23.942   3.228
90037W        W58431  32.910   1.412   0.471
90038W        W58432  27.608  26.931   2.303
90039W        W58433  32.477   6.890  12.446
90040W        W58434  23.724  37.922   4.825
90041W        W58435  16.767  21.562  10.650
90042W        W58436  27.091   7.200  11.332
90043W        W58437   2.426  11.094  14.407
90044W        W58438  19.872  37.145   4.906
90045W        W58439   8.417  14.617  11.565
90046W        W58440  37.461   0.570   4.313
90047W        W58441  18.079   9.361   2.822
90048W        W58442  32.487  16.115   1.741
90049W        W58443  41.480  43.445   1.468
90050W        W58444  17.571  19.235   3.235
90051W        W58445   3.412   3.372  12.107
90052W        W58446  18.844  40.879   3.705
90053W        W58447  17.695   6.721  10.633
90054W        W58448  11.212  17.826   1.823
90055W        W58449  19.719  23.507  10.559
90056W        W58450   7.462   9.411   3.607
90057W        W58451  40.526   3.873   5.217
90058W        W58452   8.864  39.746   2.296
90059W        W58453  21.177   5.405  12.661
90060W        W58454  16.262  33.587  14.860
90061W        W58455   8.954  42.956   3.318
90062W        W58456  33.059  36.898   2.950
90063W        W58457  13.821  17.788  13.927
90064W        W58458  26.670  38.386  13.473
90065W        W58459  31.585  24.102   4.270
90066W        W58460  11.831  17.737   0.021
90067W        W58461  30.247  17.762   2.754
90068W        W58462  43.390  12.869   4.743
90069W        W58463  28.603  22.933   1.534
90070W        W58464  37.601   5.258   3.634
90071W        W58465  25.171  20.464  13.800
90072W        W58466  11.934  18.880  11.190
90073W        W58467  23.070  21.909   3.182
90074W        W58468  32.082  22.508   5.055
90075W        W58469  28.542   7.626   0.410
90076W        W58470  26.181  13.403   5.109
90077W        W58471  35.510  31.723  13.060
90078W        W58472  26.583   7.820   1.990
90079W        W58473   0.371  40.442  11.153
90080W        W58474  35.086  39.763  11.513
90081W        W58475  38.966  29.571  11.969
90082W        W58476  33.965   7.596   2.751
90083W        W58477  18.283  38.057   3.099
90084W        W58478  37.837  41.311  12.480
90085W        W58479  34.003  22.070   4.594
90086W        W58480   1.310  16.531  12.691
90087W        W58481  34.530  30.521   0.224
90088W        W58482  10.553  37.047   2.281
90089W        W58483  37.456  39.544  14.598
90090W        W58484  13.739  41.272  13.378
90091W        W58485   5.266  32.489   0.165
90092W        W58486  28.082  16.013  10.376
90093W        W58487   3.849  39.000   3.853
90094W        W58488  17.009  22.982  12.055
90095W        W58489   2.815  38.032   4.529
90096W        W58490  23.596  28.427   4.134
90097W        W58491  39.863  26.725  14.761
90098W        W58492  27.457  12.317  13.425
90099W        W58493   3.338  31.532   3.661
90100W        W58494  11.753  33.432  13.396
90101W        W58495  19.282  23.290   0.903
90102W        W58496  32.236  17.154   0.879
90103W        W58497  11.447  22.009  11.110
90104W        W58498   0.832  35.376   1.706
90105W        W58499  31.463  20.731   2.759
90106W        W58500  36.014  12.074  11.582
90107W        W58501  32.337  16.084   0.706
90108W        W58502  10.912  19.422   2.332
90109W        W58503  30.163   5.703  14.866
90110W        W58504  22.694  38.278  11.222
90111W        W58505  15.964   2.969   0.475
90112W        W58506  40.928  17.950  13.968
90113W        W58507  39.882  43.883   2.317
90114W        W58508  41.189  28.184  14.546
90115W        W58509   1.991   7.858   1.256
90116W        W58510   0.183   9.177   4.076
90117W        W58511   0.017  42.544  14.853
90118W        W58512  33.111  40.684  10.771
90119W        W58513  33.715  22.269   1.708
90120W        W58514  24.646  38.384  13.414
90121W        W58515  33.708   4.137  11.465
90122W        W58516  36.180  27.193  11.897
90123W        W58517   6.270  38.827   1.801
90124W        W58518  24.523  32.091  13.816
90125W        W58519  23.435  39.930  14.047
90126W        W58520   9.373   5.684  10.792
90127W        W58521   0.337  44.489   2.401
90128W        W58522  37.835  18.176  11.534
90129W        W58523   7.959  39.753  12.625
90130W        W58524   2.414  15.851   2.654
90131W        W58525  39.632  29.984   4.682
90132W        W58526  25.728   2.893   1.925
90133W        W58527  20.730  44.889  13.571
90134W        W58528  20.704   1.787   4.182
90135W        W58529  39.626  39.980  13.476
90136W        W58530   4.517  35.854   4.305
90137W        W58531  41.816  37.135  12.316
90138W        W58532   4.859  28.390   3.467
90139W        W58533  22.513  39.059   3.692
90140W        W58534  33.271   6.389  14.353
90141W        W58535  43.312  31.743  10.966
90142W        W58536  11.205  44.802   4.394
90143W        W58537   2.957  42.851  12.563
90144W        W58538  39.679  24.674  13.461
90145W        W58539   2.472   0.614   0.873
90146W        W58540  28.121   1.366   0.892
90147W        W58541  42.846  13.879  10.676
90148W        W58542   5.482  20.186  14.930
90149W        W58543  34.859  32.854   0.953
90150W        W58544   1.740  20.577  11.104
90151W        W58545  33.850  17.477  11.255
90152W        W58546  19.064  37.681  12.007
90153W        W58547  11.233  24.463   2.693
90154W        W58548  34.631  31.901  12.687
90155W        W58549  10.733  37.021   1.221
90156W        W58550   2.278  43.269   1.327
90157W        W58551   8.257  41.501  13.989
90158W        W58552  19.351  44.312   4.776
90159W        W58553  43.759  17.639   0.075
90160W        W58554  26.984  41.803   3.204
90161W        W58555  26.531  43.568   1.412
90162W        W58556  40.269  20.432   4.672
90163W        W58557  27.450  33.850   4.214
90164W        W58558  21.798  19.247  14.346
90165W        W58559  20.203  14.457   4.824
90166W        W58560   4.405  17.549  12.037
90167W        W58561  36.972  12.554  13.353
90168W        W58562  22.319  15.595  13.367
90169W        W58563  34.075  20.341   0.389
90170W        W58564  13.113  11.638   0.397
90171W        W58565  36.017  25.167   3.148
90172W        W58566   3.595  25.250   3.084
90173W        W58567   8.088  25.978   1.221
90174W        W58568  22.142  30.496   3.720
90175W        W58569   2.222  40.284   4.136
90176W        W58570   1.238  23.205   4.384
90177W        W58571  43.887  38.126   5.815
90178W        W58572  20.411  25.141   5.106
90179W        W58573   2.707  23.127  11.283
90180W        W58574  27.984   1.865  12.073
90181W        W58575  15.004  14.317   0.685
90182W        W58576  27.698  14.913   2.672
90183W        W58577  31.119  38.556  10.352
90184W        W58578  30.078  28.402   2.925
90185W        W58579  21.950  19.276  14.982
90186W        W58580  39.971  10.283   3.059
90187W        W58581  17.667  17.350  13.645
90188W        W58582  34.030  16.730   1.024
90189W        W58583  41.166  31.043  12.037
90190W        W58584  42.905   9.812  13.787
90191W        W58585   5.869  30.874   0.546
90192W        W58586  18.764  36.641  14.978
90193W        W58587  27.624   8.287   2.241
90194W        W58588  17.843  13.278  13.772
90195W        W58589  11.364  36.529   0.794
90196W        W58590   9.279  30.586   1.843
90197W        W58591  38.671   8.888  12.003
90198W        W58592  26.978  19.213   2.842
90199W        W58593  24.825  15.932  12.516
90200W        W58594   5.915  31.165   0.971
90201W        W58595   4.151  18.671   0.859
90202W        W58596  19.815  41.869   0.619
90203W        W58597  28.669  17.937  13.503
90204W        W58598  40.544  44.788   3.553
90205W        W58599  31.642  25.123  13.552
90206W        W58600  33.604  37.993  11.022
90207W        W58601  20.007  43.104  10.489
90208W        W58602  33.375   5.182   3.248
90209W        W58603   2.264   3.962  13.970
90210W        W58604  36.029  10.206  10.483
90211W        W58605  22.139   3.435   1.732
90212W        W58606  30.504  36.129  14.493
90213W        W58607  19.655  27.705   1.468
90214W        W58608   5.811  28.854   4.241
90215W        W58609  10.161  35.161  14.005
90216W        W58610  18.014  42.453  13.958
90217W        W58611  43.530  29.082  13.499
90218W        W58612  34.543  24.487   0.745
90219W        W58613  44.818  35.338   4.551
90220W        W58614  15.263  38.582  13.816
90221W        W58615  27.443   7.874  14.747
90222W        W58616  27.170  36.936   4.183
90223W        W58617  19.159  29.435  12.816
90224W        W58618  22.071  19.093  12.593
90225W        W58619  30.076  17.962   4.468
90226W        W58620  30.598  25.033   1.648
90227W        W58621  38.480  40.430   4.364
90228W        W58622  33.827  38.138   0.764
90229W        W58623  44.603   1.036  12.590
90230W        W58624  32.358  35.055   4.330
90231W        W58625  21.722  33.506  13.580
90232W        W58626  28.596   2.951  11.431
90233W        W58627  11.474  11.560  12.988
90234W        W58628  16.324  44.280  10.997
90235W        W58629  14.551  27.101   2.373
90236W        W58630  36.589  40.269  11.203
90237W        W58631  40.481   1.503   3.823
90238W        W58632  30.846  27.556  11.154
90239W        W58633  36.935   4.168  11.961
90240W        W58634  26.130   4.222  14.409
90241W        W58635  27.189  43.823  11.879
90242W        W58636  30.958  38.999  13.844
90243W        W58637  16.501   4.350  13.241
90244W        W58638  30.040   1.262   4.238
90245W        W58639  29.531  22.323  10.693
90246W        W58640  12.636  24.367  13.541
90247W        W58641  14.713  39.240   0.839
90248W        W58642  41.596  14.129   1.940
90249W        W58643  20.692   4.758   1.725
90250W        W58644  20.074  13.632   4.742
90251W        W58645  37.919   8.633   4.318
90252W        W58646  22.417  31.951  10.194
90253W        W58647  41.305  29.960  12.112
90254W        W58648   6.124  34.459  14.876
90255W        W58649  14.695  25.689  14.076
90256W        W58650  18.689  29.491   4.618
90257W        W58651  21.593  25.666  10.891
90258W        W58652   3.460  36.349  11.519
90259W        W58653  36.398   2.914  13.457
90260W        W58654  38.312  20.301   1.328
90261W        W58655  31.139  37.064   1.205
90262W        W58656  19.520  44.408  11.563
90263W        W58657  14.018  18.220  13.389
90264W        W58658  25.708  17.290   3.669
90265W        W58659   5.970  28.688   2.893
90266W        W58660  16.773   0.877   4.896
90267W        W58661   9.752  32.938  12.049
90268W        W58662  18.207   0.897  13.532
90269W        W58663  27.136  40.569  12.652
90270W        W58664  18.965  31.989  11.072
90271W        W58665  29.979  23.990   2.807
90272W        W58666  21.120   6.410  14.694
90273W        W58667   0.922  44.265   0.520
90274W        W58668  13.244  39.058   2.086
90275W        W58669   7.815  13.096   0.529
90276W        W58670  37.844  19.152  14.454
90277W        W58671   9.824   4.113  11.944
90278W        W58672  15.026  33.495   1.180
90279W        W58673  23.409  12.896  12.606
90280W        W58674  14.263   9.126   4.059
90281W        W58675  43.833   6.126   1.857
90282W        W58676  39.942  10.339  11.991
90283W        W58677  16.266  13.823   1.894
90284W        W58678  44.203   8.253  13.458
90285W        W58679  36.854  39.802   4.610
90286W        W58680  12.425  43.419  14.849
90287W        W58681  28.607   6.266   0.838
90288W        W58682  27.670  13.393   0.927
90289W        W58683  34.351   2.738  11.981
90290W        W58684   7.207  15.156   2.305
90291W        W58685  12.536   0.364   3.037
90292W        W58686   8.876  32.251   1.443
90293W        W58687   4.456  25.519  14.893
90294W        W58688  11.349  37.089   3.094
90295W        W58689  44.280  14.134   3.318
90296W        W58690  36.869  39.618   2.347
90297W        W58691   6.783  20.811   0.471
90298W        W58692  14.261  24.353   2.902
90299W        W58693  24.089   7.764   1.533
90300W        W58694  24.040  38.734   4.588
90301W        W58695  27.492  30.596  10.659
90302W        W58696   9.396  10.327   4.731
90303W        W58697  17.553  28.942  11.466
90304W        W58698  15.221  35.819   2.352
90305W        W58699  42.790  40.603  14.247
90306W        W58700  44.436  39.904  12.901
90307W        W58701  38.955  41.910   3.110
90308W        W58702  12.745  24.703  10.761
90309W        W58703  19.411  35.795   5.028
90310W        W58704  36.222  17.267  13.065
90311W        W58705  43.180  20.026   2.327
90312W        W58706  30.002  30.125   3.878
90313W        W58707  44.717  24.940  11.590
90314W        W58708   4.676  25.393   4.091
90315W        W58709  28.006  38.678   5.306
90316W        W58710   5.402  22.478   1.737
90317W        W58711  39.949  33.823  12.381
90318W        W58712  14.869  12.881  14.227
90319W        W58713  35.602  12.871   2.909
90320W        W58714   1.783  25.653   3.697
90321W        W58715  15.665  32.583   1.901
90322W        W58716   6.920   9.409  11.654
90323W        W58717  34.223  21.874   4.142
90324W        W58718  27.681   7.259   2.434
90325W        W58719  15.859  33.061   4.649
90326W        W58720  43.357  42.612  10.704
90327W        W58721  14.836  42.133   1.400
90328W        W58722   7.718  29.074   4.062
90329W        W58723  23.216  16.167  11.080
90330W        W58724  25.872  18.137  13.456
90331W        W58725  31.875   1.249   3.687
90332W        W58726   0.541  28.216   1.685
90333W        W58727  40.768  19.133  14.280
90334W        W58728  33.493  33.121  13.843
90335W        W58729  43.047  29.240   1.724
90336W        W58730   2.658  16.677  13.490
90337W        W58731  29.377  31.372   3.723
90338W        W58732   7.439   1.687   0.731
90339W        W58733  15.284   2.376  13.033
90340W        W58734   1.307  41.418  10.709
90341W        W58735  40.843  40.242  13.053
90342W        W58736   7.771  30.110   1.170
90343W        W58737  23.457  41.718  14.800
90344W        W58738  20.238  38.863   2.711
90345W        W58739  39.803  36.134   2.759
90346W        W58740  21.993  14.711   3.251
90347W        W58741   9.264  21.689   2.374
90348W        W58742  44.428   4.935  11.082
90349W        W58743  23.262  35.715   0.298
90350W        W58744  36.289   7.820   1.157
90351W        W58745  32.500  36.575  11.520
90352W        W58746   8.790  28.180   1.077
90353W        W58747   1.390  30.207  14.079
90354W        W58748  32.924   0.746  11.337
90355W        W58749  32.048  28.143   4.623
90356W        W58750   8.641   6.772  13.509
90357W        W58751  29.449   7.261  12.982
90358W        W58752  41.357  20.481   4.595
90359W        W58753  30.529  34.856   3.047
90360W        W58754  15.053  43.698  11.124
90361W        W58755  20.603   0.053  11.633
90362W        W58756   6.622  40.306   1.730
90363W        W58757  31.000  10.908  13.446
90364W        W58758  17.605   3.118  13.319
90365W        W58759  37.549  34.840  14.564
90366W        W58760  44.495  19.062   1.302
90367W        W58761   8.796  26.093  10.738
90368W        W58762  37.513   3.015  11.615
90369W        W58763  33.845   4.296   2.341
90370W        W58764  32.885   9.358   0.825
90371W        W58765  14.112  12.661  13.634
90372W        W58766  39.448  41.969   4.252
90373W        W58767  27.671  35.999  11.803
90374W        W58768   3.327  11.109  13.481
90375W        W58769  36.443  44.866   3.683
90376W        W58770  25.000   4.959  14.760
90377W        W58771  23.065   0.994   2.209
90378W        W58772  14.780  43.567   4.592
90379W        W58773  35.654  19.532   2.806
90380W        W58774   4.348  42.553  13.081
90381W        W58775   2.452  40.310   1.447
90382W        W58776  23.023   0.673  13.447
90383W        W58777  38.519  16.398  12.014
90384W        W58778  30.257  16.331  13.986
90385W        W58779  29.753   8.411  13.025
90386W        W58780  26.029  37.373  14.819
90387W        W58781  10.232  39.005   3.565
90388W        W58782  21.567  40.441  14.001
90389W        W58783  24.653  21.467   1.884
90390W        W58784   9.548   8.988   2.017
90391W        W58785  35.554   2.896  14.053
90392W        W58786  32.213  10.234   4.759
90393W        W58787  44.948   1.355   2.375
90394W        W58788  22.126  29.125   0.562
90395W        W58789  10.493  14.737  12.986
90396W        W58790   6.722  34.614   2.681
90397W        W58791  38.465  21.008  10.278
90398W        W58792  21.296  25.804   4.205
90399W        W58793  22.185  39.354  10.663
90400W        W58794   4.262  17.692   2.927
90401W        W58795  33.910  34.551  13.617
90402W        W58796  25.190   8.509   1.222
90403W        W58797   8.401  12.689  14.421
90404W        W58798  18.702  11.623  11.483
90405W        W58799  25.981   1.668  12.115
90406W        W58800  42.758  10.617   3.355
90407W        W58801   0.888  38.674   3.401
90408W        W58802  18.194  28.887   1.309
90409W        W58803  31.912   6.474  14.100
90410W        W58804  30.316   4.941  11.559
90411W        W58805  16.784  28.903  13.732
90412W        W58806   2.829  15.348  11.726
90413W        W58807   2.921  44.940   0.638
90414W        W58808   7.335  26.908  13.794
90415W        W58809   9.629  11.914  14.327
90416W        W58810  37.429   4.284   3.613
90417W        W58811  14.872  44.625   1.041
90418W        W58812  14.117  41.002  12.168
90419W        W58813  34.047  43.381   2.591
90420W        W58814  30.367  37.457   3.741
90421W        W58815  14.367  41.725   3.221
90422W        W58816  25.373   0.440   0.190
90423W        W58817  40.621  15.943  13.106
90424W        W58818  30.530  24.418   2.891
90425W        W58819  14.378  44.756  14.300
90426W        W58820  36.457   6.900   0.667
90427W        W58821  11.178  44.676  14.466
90428W        W58822   6.359  24.293  12.340
90429W        W58823  11.772  12.581  11.898
90430W        W58824   8.666  44.415  14.852
90431W        W58825   6.260   0.968   4.192
90432W        W58826   8.652  17.197  14.260
90433W        W58827   7.301   9.730   4.607
90434W        W58828  21.209   8.254  12.014
90435W        W58829  34.964  39.063  11.673
90436W        W58830  22.543  36.369  12.933
90437W        W58831   0.949   6.718  13.921
90438W        W58832  30.989   1.717  10.816
90439W        W58833   8.305  12.622  13.608
90440W        W58834  31.539  17.560   2.901
90441W        W58835  14.032  22.089  13.370
90442W        W58836  30.903  14.261   1.359
90443W        W58837  26.760  12.707  11.129
90444W        W58838  40.882   5.744   1.350
90445W        W58839  23.591  37.698  13.523
90446W        W58840  15.689  40.863   4.577
90447W        W58841  33.040  31.905   1.602
90448W        W58842  25.186   6.652  12.497
90449W        W58843  40.028  17.901  10.733
90450W        W58844   0.309  25.139  12.700
90451W        W58845  26.034  37.286   2.818
90452W        W58846  20.817  28.631  13.967
90453W        W58847  40.171   0.968  14.689
90454W        W58848  41.783  10.185  12.104
90455W        W58849  26.080   8.740  13.106
90456W        W58850  37.793  38.886  13.407
90457W        W58851  26.468  16.754   0.137
90458W        W58852   9.016  23.807   3.219
90459W        W58853  24.585  16.628  12.020
90460W        W58854  19.569  41.553   0.277
90461W        W58855  37.611  25.023  10.621
90462W        W58856   6.935  29.718  10.994
90463W        W58857   4.370  13.294   4.066
90464W        W58858   1.581  17.504  13.777
90465W        W58859   8.998   1.507   4.492
90466W        W58860  43.901  36.373   4.542
90467W        W58861  36.673  31.161  12.434
90468W        W58862  23.336  28.748  13.028
90469W        W58863  30.065  39.374  13.698
90470W        W58864  23.681  33.938  14.944
90471W        W58865   7.169  24.024   2.312
90472W        W58866  27.270   8.363  12.018
90473W        W58867  44.153   6.670  11.119
90474W        W58868  18.477  25.668  13.945
90475W        W58869  24.583  34.468  10.570
90476W        W58870  27.802  34.067   1.894
90477W        W58871   6.528   0.430  11.118
90478W        W58872   0.960   5.778  14.992
90479W        W58873  17.666  26.974   1.291
90480W        W58874  36.891  12.955   2.767
90481W        W58875  25.195  44.946  12.953
90482W        W58876  28.471  19.099  11.949
90483W        W58877  29.146  12.707  14.973
90484W        W58878  38.087  36.141  13.360
90485W        W58879  35.430  21.103   2.111
90486W        W58880  28.447  28.632  13.365
90487W        W58881  28.215   6.161  14.350
90488W        W58882  38.132  39.326  12.067
90489W        W58883  31.520  23.239   2.209
90490W        W58884   7.643  18.089   2.843
90491W        W58885  12.505   2.727   0.295
90492W        W58886  41.319   6.785   4.786
90493W        W58887   9.862  34.794  10.634
90494W        W58888  30.913  28.603   3.806
90495W        W58889  31.599   2.692  11.179
90496W        W58890  40.538   7.108  12.100
90497W        W58891  26.088  17.644  14.376
90498W        W58892  13.763  19.704  14.285
90499W        W58893  15.130  15.625  12.868
90500W        W58894  31.096  43.315   1.215
90501W        W58895  18.318  12.381  14.750
90502W        W58896  17.355  25.080  13.963
90503W        W58897  41.906  36.083   3.567
90504W        W58898  23.890  25.899   0.705
90505W        W58899  19.728  36.148  11.973
90506W        W58900  25.747  19.468   3.367
90507W        W58901  33.487  36.770   0.756
90508W        W58902  42.101  14.093   1.841
90509W        W58903  12.351  14.736   3.407
90510W        W58904  38.237  19.121  13.071
90511W        W58905   6.043   5.113   4.293
90512W        W58906  25.208  37.283   0.389
90513W        W58907   4.440  14.269  10.174
90514W        W58908   1.576  23.535   4.179
90515W        W58909  33.238   4.337  14.316
90516W        W58910  23.714  43.826  12.674
90517W        W58911  32.434  18.650  14.837
90518W        W58912   6.070   3.924  14.929
90519W        W58913  43.963  29.030  11.925
90520W        W58914  21.152  31.268   2.235
90521W        W58915  38.510  37.562   3.661
90522W        W58916  10.309  32.393   1.243
90523W        W58917  14.077  40.499  12.033
90524W        W58918  27.939  42.849   1.487
90525W        W58919  28.907   1.247  11.152
90526W        W58920  17.230  39.324  11.311
90527W        W58921  18.784  28.757  13.404
90528W        W58922  30.124  24.762  13.861
90529W        W58923  31.844  10.657   1.294
90530W        W58924  29.868  16.227  14.784
90531W        W58925   6.921  44.736  14.766
90532W        W58926  17.133  27.518   4.723
90533W        W58927  38.649  23.695  11.555
90534W        W58928  33.138  28.986   0.491
90535W        W58929  35.905  26.379  12.558
90536W        W58930  36.579  19.186  12.502
90537W        W58931   3.769  44.222   1.693
90538W        W58932   8.413  34.450   4.608
90539W        W58933  14.786  43.511  14.451
90540W        W58934  27.455  19.167  11.954
90541W        W58935   1.256  13.213  12.475
90542W        W58936  16.111  35.321  10.311
90543W        W58937  25.801  34.992   0.887
90544W        W58938   8.214  18.225  11.928
90545W        W58939  19.044   6.357  10.501
90546W        W58940  15.931  42.672  11.600
90547W        W58941  10.515  20.751   4.630
90548W        W58942  37.460  20.838  12.942
90549W        W58943   9.138  33.072   2.828
90550W        W58944  38.977  32.420  13.273
90551W        W58945  43.519  25.087   1.237
90552W        W58946  10.878  30.116   0.325
90553W        W58947   6.834  40.778   4.037
90554W        W58948  17.260   1.322  13.320
90555W        W58949  13.262   5.343  11.486
90556W        W58950  13.171  31.948   2.245
90557W        W58951   3.674  29.250  12.539
90558W        W58952  22.493  33.382   4.604
90559W        W58953  21.160  41.603   0.837
90560W        W58954   9.661   8.358  12.408
90561W        W58955  39.092  40.271  11.633
90562W        W58956   4.766  11.041   2.164
90563W        W58957  10.102   5.392  13.850
90564W        W58958  44.421  42.672  13.150
90565W        W58959  15.566  11.694   2.408
90566W        W58960  21.565  19.764   2.969
90567W        W58961  12.697  40.030   1.442
90568W        W58962  14.234  34.995  12.282
90569W        W58963  28.700  20.004  12.033
90570W        W58964  26.747  25.238  12.475
90571W        W58965  33.527   8.196  14.460
90572W        W58966  17.090   9.851   4.200
90573W        W58967  28.621  19.586  12.496
90574W        W58968  42.847  35.702  12.617
90575W        W58969  39.111  23.440   1.444
90576W        W58970  28.988  21.321  13.449
90577W        W58971  36.399  14.406   0.294
90578W        W58972  11.115   3.762   4.540
90579W        W58973  38.466  25.454  14.907
90580W        W58974   4.995   8.077  13.922
90581W        W58975  22.255  24.811  13.306
90582W        W58976  24.526  42.440  11.648
90583W        W58977  44.228  40.581   0.839
90584W        W58978   8.234   1.232   2.284
90585W        W58979  15.003   0.058   4.570
90586W        W58980   4.989  19.773  11.860
90587W        W58981  37.931  30.530  14.811
90588W        W58982   3.734  10.241  13.669
90589W        W58983  15.333  16.353  13.502
90590W        W58984  34.265  25.399  14.401
90591W        W58985  44.232  36.898   3.720
90592W        W58986  44.486  39.883  11.869
90593W        W58987  11.290  44.756   1.325
90594W        W58988   4.315  40.640   3.655
90595W        W58989   9.775  31.175  14.067
90596W        W58990  22.003  21.146  12.698
90597W        W58991  27.330  35.331  11.125
90598W        W58992  24.669  26.905   3.087
90599W        W58993   3.910  21.003  14.804
90600W        W58994  24.223  33.064   1.887
90601W        W58995  26.807  44.488   3.985
90602W        W58996  37.209  41.012   1.473
90603W        W58997  39.180  30.089   4.455
90604W        W58998  41.483  14.267  10.415
90605W        W58999  12.394  32.965   2.606
90606W        W59000  26.497  30.571  12.651
90607W        W59001  30.533  11.309   3.094
90608W        W59002  28.180  16.706   3.108
90609W        W59003   5.289  15.227   1.757
90610W        W59004  41.787  32.290   3.484
90611W        W59005  27.238  20.499   1.362
90612W        W59006   0.127  31.708  13.890
90613W        W59007  37.380  24.104  14.312
90614W        W59008  44.781  17.360  10.851
90615W        W59009  22.827   9.772  10.977
90616W        W59010  18.056   4.886   4.690
90617W        W59011  18.826  15.090  11.482
90618W        W59012  38.001  33.076   3.398
90619W        W59013  20.062  41.829  14.104
90620W        W59014  36.949  15.612   2.162
90621W        W59015  25.631  24.497  11.105
90622W        W59016   5.228   2.203  13.804
90623W        W59017   6.712   1.241   4.208
90624W        W59018  16.616  17.126  12.506
90625W        W59019  33.747  26.590  12.870
90626W        W59020  35.802  22.590   4.538
90627W        W59021  36.597  34.386  11.971
90628W        W59022  22.971  39.060  10.361
90629W        W59023  39.487  41.781  11.217
90630W        W59024  15.635  25.309  14.198
90631W        W59025  25.024  31.202   3.517
90632W        W59026   5.219  28.551   0.025
90633W        W59027  11.919   8.091   0.293
90634W        W59028   9.623  24.473  14.363
90635W        W59029  14.938  15.830   1.402
90636W        W59030   4.462  17.597  14.814
90637W        W59031  36.927  22.778   4.478
90638W        W59032   0.455  35.660  14.517
90639W        W59033   4.902  29.381   4.431
90640W        W59034  11.119  29.430  11.238
90641W        W59035   2.948   7.543   3.294
90642W        W59036  35.879  23.879  14.749
90643W        W59037   9.645   7.456   1.380
90644W        W59038  44.919  17.308  12.570
90645W        W59039   3.914  16.832   3.698
90646W        W59040   6.906  27.265   1.310
90647W        W59041   1.764  26.044   0.687
90648W        W59042  33.827   0.366  10.951
90649W        W59043   9.642   9.791   3.168
90650W        W59044  24.892  40.365  12.910
90651W        W59045  12.755  16.691   4.084
90652W        W59046  29.161  31.142  14.944
90653W        W59047  31.466  13.264   1.346
90654W        W59048  19.105  15.175   1.731
90655W        W59049  31.123  28.550  11.624
90656W        W59050  43.532   5.226   1.206
90657W        W59051  12.247  25.625  10.650
90658W        W59052  33.488  38.220   1.827
90659W        W59053  23.752  19.287  14.462
90660W        W59054  32.166  43.718  10.318
90661W        W59055  27.203   5.292   2.335
90662W        W59056   4.125  25.739  11.556
90663W        W59057  31.135  19.460  12.491
90664W        W59058  33.829  40.844  13.068
90665W        W59059  36.516  41.868   2.889
90666W        W59060  41.677  10.383   2.364
90667W        W59061  36.936  33.785   2.152
90668W        W59062  24.126  25.459  13.622
90669W        W59063  24.732  37.156  14.296
90670W        W59064   2.769  32.698  13.051
90671W        W59065  22.238   8.630  14.986
90672W        W59066   2.885   9.322  11.312
90673W        W59067  22.214  21.692   1.939
90674W        W59068   5.483   0.696  13.186
90675W        W59069  39.093  39.107  12.458
90676W        W59070  39.036  39.716   0.395
90677W        W59071  21.767  12.213   0.935
90678W        W59072  33.353  23.530   0.962
90679W        W59073  24.918  43.332  12.164
90680W        W59074   0.042   9.681  14.955
90681W        W59075  10.238  13.969   3.249
90682W        W59076  31.008  41.050  12.867
90683W        W59077  31.244  11.138  13.029
90684W        W59078   4.249  10.109  14.305
90685W        W59079   3.115  43.815   0.782
90686W        W59080  10.680   2.585  11.951
90687W        W59081  14.362  10.708  12.390
90688W        W59082  23.030  17.841   1.646
90689W        W59083   8.937  14.666  12.403
90690W        W59084  29.659  14.816  12.029
90691W        W59085  29.012  15.583  12.109
90692W        W59086  12.316  40.833  14.318
90693W        W59087  31.092  23.443  11.312
90694W        W59088  33.466  37.820   3.814
90695W        W59089  16.445  11.779   0.902
90696W        W59090  14.050  37.368   0.275
90697W        W59091  15.272   1.466   2.521
90698W        W59092  33.617  40.845   0.825
90699W        W59093  29.988   1.701  11.612
90700W        W59094  17.372   6.510  12.534
90701W        W59095  29.627  24.298   0.998
90702W        W59096   8.249  19.776  11.036
90703W        W59097   9.876  12.724   0.906
90704W        W59098  13.318   5.805  12.888
90705W        W59099  28.793  44.500  10.586
90706W        W59100  37.552  15.168   0.350
90707W        W59101  21.583  43.393   4.537
90708W        W59102   8.362  42.712  13.405
90709W        W59103  34.086  39.076  12.425
90710W        W59104  22.220  14.244  10.698
90711W        W59105  14.531  27.961   4.317
90712W        W59106  23.151  39.086   4.814
90713W        W59107  16.738   3.754  11.549
90714W        W59108  32.271  24.127  14.895
90715W        W59109  11.416  40.033  13.497
90716W        W59110  41.815   7.572  10.227
90717W        W59111  36.505   6.282   2.930
90718W        W59112  33.053  44.911  13.707
90719W        W59113  44.514  25.589  13.426
90720W        W59114   7.877  37.815   4.268
90721W        W59115  42.142  13.301   2.751
90722W        W59116  21.510  14.569  10.655
90723W        W59117  31.231  42.734  13.986
90724W        W59118  27.919   7.719  14.813
90725W        W59119  40.396   5.961   2.796
90726W        W59120  26.359  16.567  12.838
90727W        W59121   5.733  15.074  14.044
90728W        W59122  20.134  28.106   3.287
90729W        W59123  40.884  18.278  11.027
90730W        W59124  34.713  43.511   3.467
90731W        W59125   6.645  41.845  14.315
90732W        W59126  19.580  14.148   4.322
90733W        W59127  23.669  18.966   3.258
90734W        W59128  35.290  14.282  11.326
90735W        W59129   9.739  33.111   4.526
90736W        W59130  33.425   7.306  12.308
90737W        W59131   5.202   2.866  13.401
90738W        W59132  28.033  16.629  13.516
90739W        W59133  33.878   5.334  14.529
90740W        W59134  26.984  41.482   0.266
90741W        W59135  33.477  28.201   3.372
90742W        W59136  36.997  14.607   1.205
90743W        W59137   4.903  23.695   1.372
90744W        W59138  14.013   3.958   3.791
90745W        W59139  20.506   6.369   5.193
90746W        W59140  21.182  20.550  10.570
90747W        W59141   9.976  40.274   0.325
90748W        W59142   1.843  35.828  14.955
90749W        W59143  35.086  18.088  12.061
90750W        W59144  18.741   9.609   0.790
90751W        W59145  24.179  43.155   2.289
90752W        W59146   7.288  44.943   2.158
90753W        W59147  38.572  29.499  14.409
90754W        W59148  16.540   5.787  12.984
90755W        W59149  23.851  14.245  13.969
90756W        W59150  41.585  23.725  13.384
90757W        W59151  16.075  28.919  12.846
90758W        W59152   7.289  28.380  14.986
90759W        W59153   0.832  23.343  13.940
90760W        W59154  43.767  44.773  11.415
90761W        W59155  31.039  11.058   2.274
90762W        W59156  42.258   3.173  14.494
90763W        W59157   0.150  35.744   1.340
90764W        W59158  30.494  37.895  10.479
90765W        W59159   6.643  19.316   3.252
90766W        W59160   8.933  33.709   1.692
90767W        W59161  42.296  40.767   3.285
90768W        W59162  10.881  24.524   0.551
90769W        W59163  44.252  26.508   1.999
90770W        W59164  24.851  24.811  14.664
90771W        W59165  32.585  33.309  13.757
90772W        W59166   4.924  43.311  14.944
90773W        W59167  34.883  32.245  13.497
90774W        W59168  27.157   8.544  11.562
90775W        W59169  10.449  23.103  13.428
90776W        W59170  34.809  25.530   1.975
90777W        W59171  44.042  16.878  11.069
90778W        W59172  11.365  27.696   2.836
90779W        W59173  17.289  38.918  14.814
90780W        W59174  44.456  29.093   3.982
90781W        W59175  33.080  22.620   2.390
90782W        W59176  40.653  33.925   3.265
90783W        W59177  29.516   4.056   4.565
90784W        W59178   7.111  20.672   4.170
90785W        W59179  14.277  32.423   3.049
90786W        W59180   7.298  11.784   3.980
90787W        W59181  14.109  25.870  14.788
90788W        W59182  43.518   1.971   0.750
90789W        W59183  25.303  21.023   1.598
90790W        W59184   2.512  21.208  10.697
90791W        W59185   9.063  18.780   0.760
90792W        W59186  38.252  31.179   1.818
90793W        W59187  18.497  32.921   1.904
90794W        W59188  43.328  26.189  13.138
90795W        W59189   5.922  43.238  11.192
90796W        W59190   3.675  25.506   2.636
90797W        W59191  37.616  15.815   1.371
90798W        W59192  36.258  16.842  12.789
90799W        W59193  32.013  27.342   1.694
90800W        W59194   6.346  26.766  12.835
90801W        W59195  31.948  40.225   2.333
90802W        W59196  39.197  36.742   0.339
90803W        W59197   1.610   0.185  11.411
90804W        W59198   7.733  10.849   4.584
90805W        W59199   3.991  32.128   3.758
90806W        W59200  14.868  19.676   1.723
90807W        W59201  25.088   0.789   0.870
90808W        W59202  32.471  42.967  12.286
90809W        W59203  34.893  11.588   3.744
90810W        W59204   2.375  27.631   3.069
90811W        W59205  13.391  30.613   2.368
90812W        W59206  39.827  35.011   1.661
90813W        W59207  41.770  15.701  14.296
90814W        W59208   0.449   2.230  13.415
90815W        W59209  17.749  16.244   4.965
90816W        W59210   7.377  15.155  11.057
90817W        W59211   6.376  21.312  12.395
90818W        W59212   5.756  21.846   3.912
90819W        W59213   9.449  41.387   2.270
90820W        W59214  34.058   9.399  10.415
90821W        W59215  37.281  29.988  14.169
90822W        W59216  33.199  10.826   2.783
90823W        W59217   2.644   1.276  13.394
90824W        W59218  28.571  39.262  11.130
90825W        W59219   3.031  29.731  12.837
90826W        W59220  27.401   1.785   1.873
90827W        W59221  28.117  39.541  11.080
90828W        W59222   9.541  12.980  14.863
90829W        W59223   6.259  34.632   0.375
90830W        W59224   8.822   7.823   3.370
90831W        W59225   5.127   0.636  11.862
90832W        W59226  24.853   6.713   3.576
90833W        W59227  41.942  36.946   0.464
90834W        W59228  10.839  37.369  13.833
90835W        W59229  43.769   7.818  13.536
90836W        W59230  16.371   2.340   4.611
90837W        W59231   7.790  30.519   4.956
90838W        W59232  29.979   1.020   3.796
90839W        W59233  16.028   8.887  11.950
90840W        W59234  42.844  13.352  14.991
90841W        W59235  31.573  41.557   3.154
90842W        W59236  14.834  32.960   1.954
90843W        W59237  39.301  13.645  12.857
90844W        W59238  12.597  44.692   3.760
90845W        W59239   8.277   8.594   0.985
90846W        W59240  15.846  21.021  10.704
90847W        W59241  35.836  29.884  14.033
90848W        W59242  29.382  35.257  14.470
90849W        W59243  36.052  16.827   2.744
90850W        W59244  44.906  15.087   2.065
90851W        W59245  35.697  40.128   0.662
90852W        W59246  28.449  18.232  13.134
90853W        W59247  16.172   9.271  12.338
90854W        W59248  38.464  17.417   1.808
90855W        W59249  32.033   4.677   3.336
90856W        W59250  38.176  31.419  10.510
90857W        W59251   3.618   3.381  14.056
90858W        W59252  27.176   7.393   5.026
90859W        W59253  35.050  12.781  12.938
90860W        W59254   2.797   9.204  11.803
90861W        W59255  26.747  24.218  11.092
90862W        W59256  15.648   4.961   0.398
90863W        W59257  13.709  14.875  10.961
90864W        W59258  14.539  15.612  14.512
90865W        W59259  35.659  17.414  11.966
90866W        W59260  35.357  16.631  12.056
90867W        W59261  19.707  38.891  11.439
90868W        W59262  10.111   3.570   3.572
90869W        W59263   2.979   7.370  13.570
90870W        W59264  41.443  36.537  14.822
90871W        W59265   5.131  18.192  14.999
90872W        W59266  25.003  36.777   2.367
90873W        W59267  43.773  24.923   2.584
90874W        W59268  35.801  24.509  12.018
90875W        W59269  20.221  31.369  12.723
90876W        W59270  35.820  43.983  14.223
90877W        W59271  15.281  44.461  10.651
90878W        W59272  38.289  22.743   0.943
90879W        W59273  10.264  10.841   4.620
90880W        W59274  18.675  15.831  12.621
90881W        W59275  18.047  44.883   1.995
90882W        W59276   5.183   2.550   2.141
90883W        W59277  40.768  13.702  12.440
90884W        W59278  14.814  44.988  13.850
90885W        W59279  16.903  37.399   9.873
90886W        W59280  30.112  18.073  12.564
90887W        W59281  15.151  33.128   0.387
90888W        W59282  11.607  32.543  12.427
90889W        W59283  42.985  17.608   3.235
90890W        W59284  43.936  24.430   0.872
90891W        W59285  10.260   8.264  13.458
90892W        W59286  14.762  40.569  13.342
90893W        W59287  36.637  31.437  10.686
90894W        W59288  14.775  26.519  12.677
90895W        W59289  27.092  32.480  10.631
90896W        W59290  41.694  17.123   2.308
90897W        W59291  27.009  32.901   1.205
90898W        W59292  22.192  42.894  12.963
90899W        W59293  30.865  28.461  13.399
90900W        W59294  22.087  42.927   0.801
90901W        W59295  16.592  23.930  14.521
90902W        W59296  42.757  44.365  11.980
90903W        W59297  31.074  22.569   4.866
90904W        W59298  27.754  11.670  13.774
90905W        W59299  32.998  24.548  13.574
90906W        W59300  21.177  22.178   3.165
90907W        W59301   9.368  43.005  12.676
90908W        W59302   5.800   0.773   1.516
90909W        W59303  41.064  42.016  14.482
90910W        W59304   2.731   5.886  12.351
90911W        W59305   1.511  22.729  13.933
90912W        W59306  14.691  11.370   2.562
90913W        W59307  41.968  22.623   3.925
90914W        W59308   7.628  11.597  11.290
90915W        W59309  35.844  25.380   1.878
90916W        W59310  19.525  13.329   4.091
90917W        W59311  35.736  11.088   3.780
90918W        W59312  35.848  29.612   0.811
90919W        W59313  19.596  11.914   2.898
90920W        W59314  36.739  24.679  10.684
90921W        W59315  19.823  37.474   2.795
90922W        W59316  36.850  26.150  13.301
90923W        W59317   6.348  44.987  11.282
90924W        W59318  24.477  13.532   2.135
90925W        W59319  39.389   8.815   0.562
90926W        W59320  37.430  39.367  14.109
90927W        W59321   2.475  43.985   0.144
90928W        W59322  35.848  23.314  12.922
90929W        W59323   0.805  22.749   1.378
90930W        W59324  11.589  22.031  13.105
90931W        W59325  10.347   8.659  12.153
90932W        W59326  25.419  19.162   2.106
90933W        W59327  34.644  30.208  12.093
90934W        W59328  19.642  13.566   1.304
90935W        W59329   2.989  41.904   0.475
90936W        W59330  23.912  25.708  14.021
90937W        W59331  28.761  43.889   0.457
90938W        W59332  44.258  23.192  12.899
90939W        W59333   9.666  21.566   2.665
90940W        W59334  35.114   7.153  13.084
90941W        W59335  36.186  44.525   4.160
90942W        W59336  22.000  26.405   1.094
90943W        W59337  26.496  20.113   1.150
90944W        W59338  34.136  24.958  12.013
90945W        W59339  31.914  25.206   3.287
90946W        W59340   7.168  28.707  11.882
90947W        W59341   2.369  20.302  11.892
90948W        W59342  22.775   5.726   3.212
90949W        W59343   7.770   2.361  11.702
90950W        W59344   0.287  22.560   3.294
90951W        W59345  29.465   4.901   2.424
90952W        W59346  31.914  12.277   4.991
90953W        W59347  44.549  19.090  13.946
90954W        W59348  40.536  39.132  14.405
90955W        W59349  29.166  34.921   2.390
90956W        W59350  25.084  38.477   0.258
90957W        W59351  41.622  41.901   4.083
90958W        W59352  29.314   5.950  13.430
90959W        W59353   0.513  29.383   2.814
90960W        W59354  28.618  44.516  14.948
90961W        W59355  18.665  33.874  11.159
90962W        W59356  25.952  36.802  13.095
90963W        W59357  18.260   5.885  11.231
90964W        W59358  39.840  14.597   0.703
90965W        W59359   7.943  38.431  11.665
90966W        W59360  36.103   4.468   3.912
90967W        W59361   3.468   5.328   1.723
90968W        W59362  15.834  33.187  11.017
90969W        W59363  40.089   7.129  14.516
90970W        W59364   0.290  21.932  10.680
90971W        W59365  14.189  29.928  12.367
90972W        W59366  16.127  20.608   3.382
90973W        W59367  44.099  42.342  13.958
90974W        W59368   7.250  20.099  10.546
90975W        W59369  36.091   4.152   4.341
90976W        W59370   3.494   5.447  11.149
90977W        W59371   2.910   2.043  10.380
90978W        W59372  19.130   0.728   0.404
90979W        W59373  22.690  43.768   3.749
90980W        W59374  17.842  19.807   5.485
90981W        W59375  26.323  20.613   2.817
90982W        W59376  38.135  35.582   4.293
90983W        W59377  29.437  36.939  14.732
90984W        W59378   3.259  35.889   3.930
90985W        W59379   7.209  11.223   0.008
90986W        W59380   3.040   4.921   3.797
90987W        W59381  17.615   8.487   2.687
90988W        W59382  25.173  20.816   2.282
90989W        W59383  13.762   3.508   0.067
90990W        W59384  39.340   9.565  12.991
90991W        W59385   2.158  36.098   0.273
90992W        W59386  38.034   8.423  10.657
90993W        W59387  32.163  41.040  14.495
90994W        W59388  29.426  29.432  11.173
90995W        W59389   7.451  37.386  14.341
90996W        W59390  19.892  42.421   0.429
90997W        W59391   4.212  28.961  11.705
90998W        W59392  33.486  32.453  12.169
90999W        W59393  34.463  29.956  14.444
91000W        W59394   0.939  43.832  14.581
91001W        W59395   1.004   9.986  14.985
91002W        W59396  38.930   3.413   0.447
91003W        W59397  36.297  17.786  12.974
91004W        W59398  16.882  35.895   2.533
91005W        W59399  36.281   3.082   4.164
91006W        W59400  43.005  35.684  10.348
91007W        W59401  37.945   6.694   4.928
91008W        W59402  31.896  29.963  10.495
91009W        W59403  33.393   3.524  12.168
91010W        W59404   8.332  15.365  11.359
91011W        W59405  17.328  33.229  14.459
91012W        W59406  22.522  10.326   3.138
91013W        W59407  15.301  32.498  10.487
91014W        W59408   1.751   3.497  10.756
91015W        W59409  32.903  20.207  14.887
91016W        W59410  26.212  39.252  13.133
91017W        W59411  44.135  36.428   2.877
91018W        W59412  39.461   6.151   0.386
91019W        W59413   8.372   4.251  12.562
91020W        W59414   1.253  28.189   3.918
91021W        W59415  39.222  41.091   4.637
91022W        W59416  42.051  44.593  12.668
91023W        W59417  16.232   1.256  14.810
91024W        W59418  21.277  40.383   2.348
91025W        W59419   5.233   7.608  12.265
91026W        W59420  29.995   2.138   2.530
91027W        W59421  41.737  22.107   3.299
91028W        W59422  34.980  43.488   0.363
91029W        W59423   2.217  40.517  13.594
91030W        W59424  32.071   8.201  12.540
91031W        W59425  36.959  37.454  14.882
91032W        W59426   8.776  24.005   3.634
91033W        W59427  35.155  35.778  11.042
91034W        W59428   5.486  20.088   2.612
91035W        W59429  35.438  39.093   4.002
91036W        W59430   0.416   9.370   0.728
91037W        W59431  20.339  30.908  12.508
91038W        W59432  10.233   3.380   0.838
91039W        W59433  29.978  40.006  12.946
91040W        W59434  13.838  36.533   2.249
91041W        W59435  13.129   2.755  13.202
91042W        W59436   5.360  34.081   1.591
91043W        W59437  27.230  38.274  14.416
91044W        W59438  21.044  24.559   2.309
91045W        W59439  14.763  16.842  10.531
91046W        W59440  34.554  18.600   0.561
91047W        W59441  10.107  24.632  14.406
91048W        W59442  35.935   5.943  11.610
91049W        W59443  27.950  40.514  14.380
91050W        W59444  32.210  27.959   0.152
91051W        W59445  27.676  22.464  13.122
91052W        W59446  37.480  37.490   4.492
91053W        W59447   6.210  17.385   4.593
91054W        W59448   4.134  44.305   0.390
91055W        W59449  14.124  13.846   1.847
91056W        W59450  13.814   5.194  14.704
91057W        W59451  32.336  28.854  13.907
91058W        W59452  38.868  30.649  11.523
91059W        W59453  27.667  17.049  13.141
91060W        W59454  23.146   8.255   4.282
91061W        W59455  15.658  37.195   3.415
91062W        W59456  20.619  17.653   3.158
91063W        W59457   7.472  12.709   2.789
91064W        W59458  16.466   2.760  12.491
91065W        W59459  18.408   3.263  11.505
91066W        W59460  33.623  11.353   3.646
91067W        W59461  35.898   6.375   0.387
91068W        W59462   7.667  18.660  13.507
91069W        W59463  13.627  34.828   0.606
91070W        W59464  21.691  35.071   4.204
91071W        W59465  11.704  10.153  14.123
91072W        W59466  27.686   2.418  12.609
91073W        W59467   9.005   0.786   2.971
91074W        W59468  28.230  34.182   2.814
91075W        W59469  30.488   1.228  12.106
91076W        W59470  21.625   0.886  13.956
91077W        W59471  40.001  19.608  10.654
91078W        W59472  28.864   7.796   4.606
91079W        W59473   7.187  13.138  12.046
91080W        W59474  11.419  36.578  14.934
91081W        W59475  12.591  36.658  12.056
91082W        W59476  38.948  42.972   0.305
91083W        W59477  40.702  34.631   1.243
91084W        W59478  37.382  10.717  10.755
91085W        W59479  18.265   9.874   2.745
91086W        W59480   6.191   6.783  12.505
91087W        W59481   6.646  13.226   0.211
91088W        W59482   3.471  22.740  11.880
91089W        W59483  23.152   8.968  14.034
91090W        W59484  38.539  30.521  11.058
91091W        W59485  37.816  40.393   3.642
91092W        W59486  28.532   0.520   1.963
91093W        W59487  28.446  38.274   1.427
91094W        W59488  32.656  38.940   2.313
91095W        W59489  26.404  31.090  12.539
91096W        W59490  28.995  14.206  11.224
91097W        W59491   3.341  43.959  11.956
91098W        W59492  36.581   0.420   4.688
91099W        W59493  16.532  20.043  12.128
91100W        W59494  36.996  35.303  12.906
91101W        W59495   4.790  32.467   0.890
91102W        W59496  36.042  18.575   0.959
91103W        W59497   0.366  15.199   2.325
91104W        W59498  28.061  31.411  13.893
91105W        W59499   6.015  39.279  14.816
91106W        W59500  16.492   4.719   2.015
91107W        W59501  22.624   3.277  11.881
91108W        W59502   1.422  18.619   0.415
91109W        W59503  36.589   8.669  10.246
91110W        W59504  10.384   0.093   3.832
91111W        W59505  37.617  34.030  14.843
91112W        W59506  16.506  16.125   2.868
91113W        W59507   0.937  37.960   0.878
91114W        W59508   4.503  29.530   2.679
91115W        W59509   7.680  26.721  14.398
91116W        W59510  26.466   1.025   0.583
91117W        W59511  44.389  26.519  13.633
91118W        W59512  13.481  42.444   0.522
91119W        W59513  42.444  33.890  10.685
91120W        W59514   2.725   1.911   2.278
91121W        W59515  39.030  18.108   3.693
91122W        W59516  17.450  28.905   0.753
91123W        W59517  27.928  26.247  11.098
91124W        W59518  28.477  15.210   3.351
91125W        W59519   6.891  36.132   2.805
91126W        W59520  17.517  33.979   0.178
91127W        W59521  21.675  18.946   4.237
91128W        W59522  21.780  20.214   1.302
91129W        W59523  10.621   5.656  14.526
91130W        W59524  15.889  16.574  12.449
91131W        W59525  21.716  12.399  13.018
91132W        W59526  13.241   6.218   4.114
91133W        W59527  15.835  37.805  12.930
91134W        W59528  28.467  23.674   3.672
91135W        W59529  33.858   2.493   0.076
91136W        W59530   6.896  43.070  10.827
91137W        W59531  33.930  16.374   4.591
91138W        W59532   4.983  17.675  10.132
91139W        W59533   4.453  13.056  10.965
91140W        W59534   3.716  28.598  13.284
91141W        W59535  26.500  30.188   3.196
91142W        W59536  42.297  22.696  14.189
91143W        W59537  42.240  13.159  11.190
91144W        W59538  44.320  21.107   4.047
91145W        W59539  20.191  10.677   4.634
91146W        W59540  28.708   5.464  13.847
91147W        W59541  41.758  15.517   0.469
91148W        W59542  31.992   3.039   1.987
91149W        W59543  21.131  35.047   1.073
91150W        W59544  26.554  15.123  13.320
91151W        W59545  19.805  18.200  13.049
91152W        W59546  13.689  40.031   2.388
91153W        W59547  32.284  10.918   2.613
91154W        W59548   5.946   9.791   1.410
91155W        W59549  10.656   1.356   3.191
91156W        W59550  40.419  17.274   0.874
91157W        W59551  27.548  43.496  14.331
91158W        W59552  14.666  22.980  12.085
91159W        W59553   9.277  34.808  11.232
91160W        W59554  44.749  17.289  14.098
91161W        W59555   1.573  32.023  12.986
91162W        W59556   6.324   9.785  13.959
91163W        W59557  32.421  18.576  14.305
91164W        W59558  20.253  37.488  10.592
91165W        W59559  39.323  24.280   1.918
91166W        W59560  42.471  27.697  14.680
91167W        W59561   9.816  16.393   1.249
91168W        W59562   6.225  44.759  14.846
91169W        W59563  24.695  37.579  10.644
91170W        W59564   1.971   2.967  14.043
91171W        W59565   2.688  25.673   0.887
91172W        W59566   2.762   6.459  10.956
91173W        W59567  17.810  40.225   2.999
91174W        W59568  39.479  29.877  14.897
91175W        W59569  19.033  44.888  10.502
91176W        W59570   6.404   3.744  14.538
91177W        W59571   3.261  11.712  10.707
91178W        W59572  18.603  36.786   1.021
91179W        W59573  19.009   1.833   3.185
91180W        W59574  33.071   9.122  13.979
91181W        W59575   4.324   5.387  13.908
91182W        W59576  27.936  24.094  13.514
91183W        W59577   7.190   7.881  13.985
91184W        W59578   0.209  34.383   2.137
91185W        W59579  22.721  43.914  12.523
91186W        W59580  38.906  15.751  12.856
91187W        W59581  36.539  37.046   2.574
91188W        W59582  19.611  23.282   1.857
91189W        W59583  42.923  39.591  10.244
91190W        W59584  23.011   0.731   4.163
91191W        W59585   2.473  25.441   4.233
91192W        W59586  31.669   5.353  11.826
91193W        W59587  30.577  40.277  10.798
91194W        W59588   3.881  37.727   5.098
91195W        W59589  28.481  10.649   3.681
91196W        W59590   7.809  22.607  14.254
91197W        W59591  38.682  13.889  13.483
91198W        W59592  16.932  25.475  11.157
91199W        W59593  12.606   4.739  12.588
91200W        W59594   6.154  12.603   4.108
91201W        W59595  37.668  32.928  11.236
91202W        W59596  17.242   5.268  11.989
91203W        W59597  12.433  23.874   1.887
91204W        W59598  24.524  24.134  13.971
91205W        W59599  11.547   4.390   2.658
91206W        W59600  31.607  32.231  14.230
91207W        W59601  32.287  41.714  13.920
91208W        W59602  26.238  22.431   2.516
91209W        W59603   4.854  20.938   0.033
91210W        W59604  16.256  39.640  12.781
91211W        W59605  28.487  22.626  11.648
91212W        W59606  44.072  30.772   0.699
91213W        W59607  21.632  43.402  11.426
91214W        W59608  14.542  43.767  11.358
91215W        W59609  13.696   4.358  14.227
91216W        W59610  10.816  37.020   2.902
91217W        W59611  37.125  38.916  14.096
91218W        W59612  13.745   6.826  14.371
91219W        W59613   3.647   2.017   5.085
91220W        W59614   4.116  37.834   0.043
91221W        W59615  27.429   7.360  14.017
91222W        W59616   1.151  43.549   3.773
91223W        W59617  43.962   9.301  13.443
91224W        W59618   9.643  17.780  14.060
91225W        W59619  37.833  40.342  13.498
91226W        W59620  28.113  20.472   3.313
91227W        W59621  26.623   0.768   2.371
91228W        W59622  39.003  19.607   3.854
91229W        W59623  39.841  39.918  11.923
91230W        W59624   4.745   0.189  11.724
91231W        W59625  19.553  39.375   3.558
91232W        W59626  29.102  15.574   4.112
91233W        W59627  30.098  22.713   4.591
91234W        W59628  21.309   0.248   0.539
91235W        W59629  28.485  39.583   2.604
91236W        W59630   1.046   2.760  12.947
91237W        W59631   6.667  39.845   1.972
91238W        W59632   9.604  14.087   2.695
91239W        W59633  21.975  23.515  11.763
91240W        W59634   7.405  22.152   0.335
91241W        W59635  41.068  38.413   2.603
91242W        W59636  30.078  14.255  12.953
91243W        W59637  21.342  24.138  12.104
91244W        W59638  21.719  40.440  13.512
91245W        W59639  38.943   9.605  13.308
91246W        W59640   2.980  31.904   3.669
91247W        W59641  38.016  31.399  13.513
91248W        W59642  10.753  10.329  11.052
91249W        W59643  37.154  21.847  12.022
91250W        W59644   0.773  32.369   3.042
91251W        W59645   9.144  33.855   4.289
91252W        W59646  16.308  25.481  11.590
91253W        W59647  44.959  23.591   1.516
91254W        W59648  30.254   2.698  11.534
91255W        W59649  23.569  20.561  11.699
91256W        W59650  31.165  17.662   4.614
91257W        W59651   8.306   9.416   0.495
91258W        W59652  37.575   4.430  14.866
91259W        W59653  26.901  17.201   0.889
91260W        W59654  31.632   4.466  14.394
91261W        W59655  10.027   3.878   0.245
91262W        W59656  27.474  17.292   3.314
91263W        W59657  23.021  27.409   0.811
91264W        W59658  44.983   9.794   2.125
91265W        W59659   5.228   7.970   1.844
91266W        W59660  10.114  30.297  11.265
91267W        W59661  41.761  25.461  12.067
91268W        W59662  13.583  37.966  13.867
91269W        W59663  18.643   8.267   1.356
91270W        W59664  30.934  22.543   1.011
91271W        W59665  22.085   1.492   3.178
91272W        W59666   8.412  13.656  12.892
91273W        W59667  40.361  40.598  11.419
91274W        W59668   8.127  41.748  12.145
91275W        W59669   5.810  40.753   1.767
91276W        W59670  12.675  40.782  12.030
91277W        W59671   0.461  32.668   3.859
91278W        W59672  23.591   7.157  11.119
91279W        W59673  21.538  27.761  13.503
91280W        W59674  23.641  41.972   1.655
91281W        W59675  27.073  43.017  10.792
91282W        W59676  11.158  38.979   4.374
91283W        W59677  35.589  38.332  11.641
91284W        W59678  26.499  18.748   1.351
91285W        W59679   9.434  14.089  14.435
91286W        W59680   0.541   7.200  12.362
91287W        W59681  25.254  25.957   1.096
91288W        W59682  25.704  25.893   4.023
91289W        W59683   5.454  23.692  14.223
91290W        W59684  39.823  41.399   0.483
91291W        W59685  31.083  11.286   0.416
91292W        W59686  43.581   2.706   0.201
91293W        W59687   2.754   8.273   0.342
91294W        W59688  20.345   6.182  13.991
91295W        W59689  29.222   5.363  14.503
91296W        W59690  11.212  21.215  10.608
91297W        W59691  27.729  41.301  14.819
91298W        W59692  29.125  26.045   4.332
91299W        W59693  43.984   6.467   2.212
91300W        W59694   9.870  34.184  11.609
91301W        W59695   3.140  13.684   1.956
91302W        W59696  25.718   7.857   2.810
91303W        W59697  43.819  34.551   2.574
91304W        W59698  28.796   9.862   2.306
91305W        W59699  42.776   7.615  10.605
91306W        W59700  16.703  38.006   1.688
91307W        W59701  36.159   3.563   3.535
91308W        W59702   0.900  31.342   3.669
91309W        W59703  10.937  22.095   1.829
91310W        W59704  22.816  11.493   0.009
91311W        W59705   4.788  28.830   3.187
91312W        W59706  29.367  27.915  14.826
91313W        W59707   7.676  39.539   0.382
91314W        W59708  12.948  28.802   2.875
91315W        W59709  31.108  19.536   3.144
91316W        W59710  27.114   9.484  11.696
91317W        W59711  41.318  21.825  14.872
91318W        W59712  37.487  39.487  13.077
91319W        W59713  44.846  29.038   1.796
91320W        W59714   1.713  12.339   4.147
91321W        W59715  44.176  18.683  11.036
91322W        W59716   2.489  10.794   0.933
91323W        W59717  17.301  28.574  10.664
91324W        W59718  31.824  38.848  11.455
91325W        W59719   0.538  37.598  13.383
91326W        W59720   5.168   1.673  10.839
91327W        W59721  41.768   2.938  13.821
91328W        W59722  37.142  18.972  13.965
91329W        W59723  30.042  36.518   1.166
91330W        W59724  14.044  14.344   2.659
91331W        W59725  41.977  10.225  10.714
91332W        W59726   5.088   0.380  13.016
91333W        W59727  27.597  35.309  12.356
91334W        W59728   0.206   2.349  11.431
91335W        W59729  43.599  32.982   2.238
91336W        W59730  44.420  23.631  10.995
91337W        W59731  44.287  18.824   4.259
91338W        W59732  17.051  12.198   2.360
91339W        W59733   6.815  19.737   2.228
91340W        W59734  32.391  36.369  12.600
91341W        W59735  26.780  18.166  11.591
91342W        W59736  39.920  43.904   0.872
91343W        W59737   8.910  16.702   3.819
91344W        W59738  19.687  10.947  11.539
91345W        W59739  15.399  22.020  11.546
91346W        W59740   2.946  12.410  13.610
91347W        W59741  19.188  16.770  12.126
91348W        W59742   5.759  23.376   2.915
91349W        W59743  27.112   0.179   0.029
91350W        W59744  21.441  39.460   2.615
91351W        W59745  37.362  14.720   3.288
91352W        W59746  25.726  37.063   2.261
91353W        W59747   7.736  33.763  13.054
91354W        W59748  10.080  26.059   1.040
91355W        W59749  14.643   1.825  14.059
91356W        W59750  23.616  39.396   3.555
91357W        W59751  27.111  11.081   4.227
91358W        W59752  33.937  39.538  10.210
91359W        W59753  28.153   9.803   0.900
91360W        W59754   6.444  32.975   1.451
91361W        W59755   9.414  25.399   1.407
91362W        W59756  18.411  39.621  14.461
91363W        W59757  33.534  16.820  11.088
91364W        W59758  23.585  24.155  10.476
91365W        W59759   3.971   1.896  12.228
91366W        W59760   4.145  19.953  13.952
91367W        W59761  33.947  12.629   0.983
91368W        W59762  14.356  36.729  13.426
91369W        W59763   5.713  12.892   4.992
91370W        W59764  13.881  44.452  13.825
91371W        W59765  16.343  13.428   2.443
91372W        W59766  30.045  34.037  11.119
91373W        W59767   9.389  15.601  13.481
91374W        W59768  19.966   5.988  12.026
91375W        W59769  13.242   3.180  11.176
91376W        W59770  26.927  12.238  13.351
91377W        W59771   0.551   9.531   3.895
91378W        W59772   5.852  32.351   1.718
91379W        W59773  30.457  21.478   4.113
91380W        W59774  40.741  22.916  13.003
91381W        W59775  16.579  22.981   3.149
91382W        W59776   3.333  17.964  14.934
91383W        W59777  17.128  11.048  14.006
91384W        W59778  33.594  19.273   1.753
91385W        W59779  22.647   3.049  14.028
91386W        W59780  23.941  17.577  11.734
91387W        W59781  29.079  34.669   1.368
91388W        W59782   6.919   7.171  10.706
91389W        W59783  38.415  10.315  10.868
91390W        W59784  17.708  42.792   0.925
91391W        W59785  32.038   4.308   4.776
91392W        W59786   5.314  40.480   4.346
91393W        W59787  24.602   8.665   3.808
91394W        W59788  16.551  14.092  12.059
91395W        W59789  36.522  38.587  12.857
91396W        W59790  11.672  42.548  10.036
91397W        W59791  19.505  25.878   4.591
91398W        W59792   6.085  44.886  13.959
91399W        W59793  18.433   8.617   1.667
91400W        W59794  29.721  29.224   3.847
91401W        W59795  38.418  10.390  12.508
91402W        W59796  19.826  25.762  12.536
91403W        W59797  35.833  10.797   4.197
91404W        W59798  10.644  25.156   3.733
91405W        W59799  20.394   7.129   5.187
91406W        W59800   8.166  23.321   2.320
91407W        W59801  10.097  18.165   2.379
91408W        W59802  39.893  30.849  12.040
91409W        W59803  43.359   6.976   4.285
91410W        W59804  11.280  42.760  11.414
91411W        W59805  13.600   5.975  10.743
91412W        W59806  15.506  19.199  11.604
91413W        W59807  20.064   8.886  12.053
91414W        W59808   4.394  38.629  12.997
91415W        W59809  19.308  10.434  10.992
91416W        W59810   2.040   8.132  13.867
91417W        W59811  42.983   7.857  14.425
91418W        W59812  31.714  20.772   3.705
91419W        W59813  38.997   6.031  14.113
91420W        W59814  41.387   1.172  11.587
91421W        W59815  40.535  33.485  12.997
91422W        W59816  25.529  43.710  13.668
91423W        W59817  23.681   9.401   0.963
91424W        W59818  34.984  16.617  14.354
91425W        W59819   4.830  27.550  11.974
91426W        W59820  22.455   7.838  13.548
91427W        W59821  41.504  32.918   0.917
91428W        W59822  37.489   9.747   3.227
91429W        W59823  12.873  10.232  14.340
91430W        W59824   2.158  38.122   1.754
91431W        W59825  34.614   2.885  12.398
91432W        W59826  29.774  28.424   4.526
91433W        W59827   1.941  35.581   0.403
91434W        W59828  34.002  22.719  12.872
91435W        W59829  27.964  10.838   1.889
91436W        W59830  19.228  40.136   0.424
91437W        W59831   7.696  26.900  10.696
91438W        W59832   7.284  41.315   0.327
91439W        W59833  18.146  33.548  12.186
91440W        W59834  17.588   9.519   2.034
91441W        W59835  24.586  44.019  12.466
91442W        W59836  27.058   5.881  14.851
91443W        W59837  42.377  38.977   2.292
91444W        W59838  24.952  32.446  14.618
91445W        W59839  25.144  24.470  13.758
91446W        W59840  21.133  11.274   0.899
91447W        W59841  30.095  25.710  14.949
91448W        W59842  40.036   0.348  11.100
91449W        W59843   1.874  39.728   4.691
91450W        W59844  17.663  24.524  12.095
91451W        W59845  31.959  28.942   0.390
91452W        W59846  25.211  32.154   4.616
91453W        W59847  12.745  27.738   4.227
91454W        W59848  41.901  28.971   2.680
91455W        W59849  17.649  33.567   0.505
91456W        W59850   3.831  22.811   1.000
91457W        W59851  22.752   8.127   4.618
91458W        W59852  42.384  44.298  12.404
91459W        W59853   2.686  16.254  13.787
91460W        W59854  21.515   3.145   2.016
91461W        W59855  11.663  20.738   2.362
91462W        W59856  33.933  26.965  13.218
91463W        W59857  37.169  14.713   2.578
91464W        W59858  22.013  38.918   3.517
91465W        W59859  37.492   4.239   0.664
91466W        W59860   4.916  43.395  14.080
91467W        W59861  17.204  19.767  13.138
91468W        W59862   2.867  33.432  10.785
91469W        W59863  12.059  17.308   2.662
91470W        W59864  26.232  23.125   3.266
91471W        W59865  37.320  20.719   1.581
91472W        W59866   9.311   9.402   2.946
91473W        W59867  40.083  41.844   1.865
91474W        W59868  21.205  38.808  11.758
91475W        W59869  12.333  11.818  13.556
91476W        W59870  42.896  37.689   2.809
91477W        W59871  33.535  15.895  14.681
91478W        W59872  36.831  30.415  13.068
91479W        W59873  30.942  12.375  13.374
91480W        W59874  31.134   2.222   2.851
91481W        W59875  21.477  13.653  14.391
91482W        W59876   5.314  22.213   4.578
91483W        W59877   4.810  17.242   9.922
91484W        W59878   0.027  42.880  13.989
91485W        W59879  41.320   8.421   4.752
91486W        W59880  12.811  34.957  13.307
91487W        W59881  15.552  17.565   5.087
91488W        W59882  44.836  17.036   2.319
91489W        W59883  30.762  11.145   4.776
91490W        W59884  13.159  27.789   4.533
91491W        W59885   1.482  41.572  12.889
91492W        W59886  40.329  19.819   0.650
91493W        W59887   7.229  21.557  14.092
91494W        W59888  36.976  20.135   0.654
91495W        W59889  44.948  43.457   1.504
91496W        W59890  26.658  22.268   2.809
91497W        W59891  26.432  21.473  12.441
91498W        W59892  36.293  40.301   2.766
91499W        W59893  34.604  38.477  13.320
91500W        W59894  24.259  29.098   0.956
91501W        W59895   7.670   9.169  13.602
91502W        W59896  11.307  37.577  13.117
91503W        W59897  31.368  16.234  13.300
91504W        W59898   2.786   9.688   4.727
91505W        W59899  26.925  44.870  11.082
91506W        W59900   8.140  27.164  12.011
91507W        W59901  11.343   8.729   1.457
91508W        W59902   9.958  31.706   3.252
91509W        W59903  31.004  41.230  13.352
91510W        W59904  32.577  31.747   4.157
91511W        W59905  20.534  24.458  13.768
91512W        W59906   5.646  37.333  11.188
91513W        W59907  26.394  16.831  14.633
91514W        W59908  26.015  12.679   1.273
91515W        W59909  38.093  36.862   4.768
91516W        W59910  31.524   5.473  14.313
91517W        W59911   3.023  41.385   3.229
91518W        W59912  14.649  38.357  13.089
91519W        W59913  42.202  10.941  14.203
91520W        W59914  22.986  11.808   2.753
91521W        W59915   0.317  41.747  14.821
91522W        W59916  27.207  26.597   2.779
91523W        W59917  42.835  20.755  13.781
91524W        W59918  17.815  36.008  13.334
91525W        W59919  11.312  27.641   4.375
91526W        W59920  39.552  12.363   0.251
91527W        W59921   0.784  27.443   3.804
91528W        W59922  43.844  25.523  12.076
91529W        W59923  20.088  18.275  11.609
91530W        W59924  27.634  30.849  11.098
91531W        W59925  40.113   5.623   4.053
91532W        W59926  16.996  26.121   9.959
91533W        W59927  42.495  10.236  10.752
91534W        W59928  12.644  12.785  12.616
91535W        W59929   4.946  42.840  11.122
91536W        W59930  16.792  37.756  12.853
91537W        W59931  17.120  20.846  14.967
91538W        W59932  30.606  22.859   3.313
91539W        W59933  35.882  19.889   2.463
91540W        W59934  26.420  37.412  12.635
91541W        W59935  22.920  17.711  12.044
91542W        W59936   1.556  31.572   0.345
91543W        W59937  37.923  44.297  11.517
91544W        W59938  21.533   5.233  14.036
91545W        W59939  17.076  22.472  12.015
91546W        W59940  37.394  10.379   0.329
91547W        W59941  22.453  40.554   1.210
91548W        W59942  34.493  43.815  13.455
91549W        W59943  30.475  31.650   0.948
91550W        W59944  20.942   0.762  13.791
91551W        W59945  12.870  34.826   1.995
91552W        W59946   9.545  19.727  10.385
91553W        W59947  16.637  21.074  14.110
91554W        W59948  17.124  32.009  11.135
91555W        W59949  42.259  31.838  14.969
91556W        W59950  10.371  15.631  11.587
91557W        W59951  37.836  40.865   4.474
91558W        W59952   6.444  39.092  13.162
91559W        W59953  17.368  17.023  14.027
91560W        W59954   7.911  39.981  12.152
91561W        W59955   2.279   1.812   3.722
91562W        W59956  14.385  24.736   1.851
91563W        W59957  15.733   8.635  12.569
91564W        W59958   5.352   7.126  12.415
91565W        W59959   8.805  16.301   3.024
91566W        W59960   1.343  16.256   3.260
91567W        W59961  39.743  29.946   0.388
91568W        W59962  20.710   3.895  11.074
91569W        W59963   8.164  42.000  13.897
91570W        W59964  32.877  31.552   1.257
91571W        W59965   2.833   5.214   0.241
91572W        W59966  18.584  20.096   1.875
91573W        W59967  30.534   0.674  13.986
91574W        W59968  32.078   1.218   3.174
91575W        W59969  37.459  11.412  11.029
91576W        W59970  19.481  27.506  11.317
91577W        W59971  27.452   3.392   3.784
91578W        W59972   6.213  36.862  12.739
91579W        W59973   0.698  36.629  14.398
91580W        W59974  25.698  16.190   2.326
91581W        W59975  16.750   6.807  14.084
91582W        W59976  32.094  19.567   0.610
91583W        W59977  33.853  38.698   0.689
91584W        W59978  27.652  42.827  11.633
91585W        W59979  31.831  21.453   4.859
91586W        W59980   1.496  24.098  11.576
91587W        W59981  19.566  17.224   1.400
91588W        W59982  41.028  22.677  14.390
91589W        W59983   1.270  21.256   2.261
91590W        W59984  27.148  26.717  11.543
91591W        W59985  35.699  29.725  11.237
91592W        W59986  33.548  20.573  14.399
91593W        W59987   3.724  16.280   4.870
91594W        W59988  23.527   6.254  11.976
91595W        W59989  15.261  33.714  14.336
91596W        W59990   9.977  13.105  12.276
91597W        W59991  34.468  41.973   2.697
91598W        W59992   9.200  12.630   1.525
91599W        W59993  31.657   5.151   0.805
91600W        W59994  41.623  24.478  12.051
91601W        W59995   8.965  41.261   3.151
91602W        W59996   3.649  21.941   4.528
91603W        W59997  31.067  43.618   3.630
91604W        W59998  36.945   8.174  14.465
91605W        W59999  20.240  21.502  13.614
91606W        W60000   1.952  20.496   4.216
91607W        W60001  33.831  11.682  14.566
91608W        W60002  27.729  13.027   1.930
91609W        W60003   2.446  14.216  12.603
91610W        W60004   5.654  37.877   4.121
91611W        W60005  13.829  17.112  11.665
91612W        W60006   5.140   3.241   3.610
91613W        W60007  36.835  44.008  13.430
91614W        W60008   3.513  43.156  13.479
91615W        W60009   0.819  30.971   1.559
91616W        W60010  22.730  38.551  12.530
91617W        W60011  29.445  12.742  12.582
91618W        W60012   4.818   2.024  12.463
91619W        W60013  15.254  11.930   3.695
91620W        W60014  33.948  32.103   0.866
91621W        W60015   8.309  13.623  10.687
91622W        W60016  21.586  35.549   2.298
91623W        W60017  44.249  20.589  13.485
91624W        W60018   8.237  36.837   2.298
91625W        W60019  14.325   9.779   4.610
91626W        W60020  44.937  39.605   0.380
91627W        W60021  25.715   6.206  14.586
91628W        W60022  13.211   9.841   0.392
91629W        W60023  10.410   0.325  14.425
91630W        W60024  29.380  17.699  12.466
91631W        W60025   7.654  39.010   0.443
91632W        W60026  21.613  16.312  13.549
91633W        W60027  10.539  38.678   3.853
91634W        W60028  17.124  12.419  10.712
91635W        W60029  40.503  20.666   1.654
91636W        W60030  26.247  34.969  11.862
91637W        W60031   9.889  19.314   2.610
91638W        W60032   9.937   9.903   1.720
91639W        W60033  40.430  42.838  13.365
91640W        W60034  16.724  16.263   1.273
91641W        W60035  17.676  12.215   0.976
91642W        W60036  20.783  34.432   5.055
91643W        W60037  22.274   7.647  14.968
91644W        W60038  28.416  43.009  14.846
91645W        W60039  25.808  28.135  14.437
91646W        W60040  31.887  35.673   1.921
91647W        W60041  26.009   3.100  11.096
91648W        W60042   3.248  22.248   1.707
91649W        W60043  29.342  29.922  14.557
91650W        W60044  27.087  41.972  11.587
91651W        W60045  14.603   8.433   1.700
91652W        W60046  35.239  15.338  12.358
91653W        W60047  11.475  26.602  12.649
91654W        W60048   1.507  33.747  12.498
91655W        W60049  13.863  14.859   0.509
91656W        W60050  31.158   9.061  12.001
91657W        W60051  30.124  16.080   3.107
91658W        W60052  16.833   9.870   0.413
91659W        W60053   0.439  31.956   0.897
91660W        W60054  27.189   3.314   1.453
91661W        W60055   1.423   1.808   2.891
91662W        W60056  11.711  20.540  14.479
91663W        W60057  41.511  32.206   4.369
91664W        W60058   0.960  16.126  14.398
91665W        W60059  27.614  20.330   2.381
91666W        W60060  36.022  43.901  10.965
91667W        W60061  16.259   5.048  11.629
91668W        W60062  24.583  33.445   3.687
91669W        W60063  31.572  40.655   1.684
91670W        W60064   5.671   2.269  10.631
91671W        W60065  16.057  40.856   1.204
91672W        W60066  18.698   7.170  14.822
91673W        W60067  20.447   1.281  13.127
91674W        W60068  41.636  39.565   3.641
91675W        W60069   2.623  42.854  12.969
91676W        W60070  34.687  24.966   2.062
91677W        W60071   1.184   3.720   3.096
91678W        W60072   5.890   2.654  12.051
91679W        W60073  40.838   0.137  10.554
91680W        W60074  26.556  10.267  12.351
91681W        W60075  29.612  17.112  12.843
91682W        W60076  24.831  30.454  13.252
91683W        W60077  10.727  26.630  11.511
91684W        W60078  11.869  20.280  12.121
91685W        W60079  10.678  21.663  14.069
91686W        W60080  27.705   6.303  13.389
91687W        W60081  33.602  28.404  12.166
91688W        W60082   3.412  17.516   3.074
91689W        W60083  12.717   8.873  14.342
91690W        W60084  27.457  37.218  14.963
91691W        W60085  40.815  29.033  10.431
91692W        W60086   8.997  22.414   2.728
91693W        W60087   5.924   3.895  14.052
91694W        W60088  41.541  20.961   4.811
91695W        W60089  42.413  17.287   4.826
91696W        W60090  20.024  32.568  14.505
91697W        W60091  14.619  19.486  10.576
91698W        W60092  14.120  18.491  10.830
91699W        W60093   7.300  31.884  11.492
91700W        W60094  19.571  12.938  10.715
91701W        W60095  17.149  16.719  13.663
91702W        W60096   2.836   5.031   2.805
91703W        W60097  32.412   0.156   3.719
91704W        W60098  36.187  43.444  13.013
91705W        W60099  10.819  20.323   2.337
91706W        W60100  31.967   0.260   1.114
91707W        W60101  10.687  14.700  11.994
91708W        W60102  10.141  28.595  12.538
91709W        W60103  26.111  20.768   4.190
91710W        W60104  36.315  40.831  12.855
91711W        W60105   2.870   6.761   2.400
91712W        W60106   7.019   0.163   0.911
91713W        W60107   5.667  31.871  14.432
91714W        W60108  14.098  17.213   2.710
91715W        W60109  14.754  18.162   1.876
91716W        W60110   6.882  25.279  14.042
91717W        W60111  21.977  10.155  11.069
91718W        W60112  35.337  18.295   4.270
91719W        W60113   7.362  39.334   3.364
91720W        W60114  30.510  21.664   4.585
91721W        W60115  42.047   0.730   3.160
91722W        W60116   5.447  18.830   0.111
91723W        W60117  32.002  39.992  14.498
91724W        W60118  37.396  36.071  12.893
91725W        W60119   9.613  43.420   0.932
91726W        W60120  37.653  32.679   2.148
91727W        W60121  20.270   7.399  13.466
91728W        W60122  41.792   0.367   0.458
91729W        W60123  39.566   1.714   0.490
91730W        W60124  38.666   1.044   2.693
91731W        W60125  11.882  40.773   1.725
91732W        W60126   0.779  11.874   3.996
91733W        W60127  12.642   0.684  12.072
91734W        W60128  31.056  30.942   4.439
91735W        W60129  32.996  26.923  12.818
91736W        W60130  39.530   4.763  13.401
91737W        W60131   9.318   8.874   2.708
91738W        W60132  29.598  33.381   3.590
91739W        W60133   5.811   2.446   5.434
91740W        W60134  25.484  22.546  14.457
91741W        W60135  28.392  22.361   3.012
91742W        W60136  20.040  22.196   4.876
91743W        W60137  15.739  18.216  14.503
91744W        W60138  41.485  41.811   0.781
91745W        W60139  43.898   5.755  11.858
91746W        W60140  10.773  21.485  10.540
91747W        W60141   2.505  20.774   4.791
91748W        W60142  21.104  20.165  13.012
91749W        W60143  41.250  28.490  12.444
91750W        W60144   2.930  11.632   0.254
91751W        W60145  34.376  41.552  13.280
91752W        W60146  17.004  33.805   1.884
91753W        W60147  17.190  44.483  12.123
91754W        W60148   2.304  17.690   1.674
91755W        W60149  32.647  38.491  10.627
91756W        W60150  39.947  31.152   0.080
91757W        W60151  39.455   2.227   2.366
91758W        W60152  11.440   1.587   5.135
91759W        W60153  16.172  21.739  12.389
91760W        W60154  19.615   4.889   0.871
91761W        W60155   9.562  44.227   1.350
91762W        W60156  32.293  22.120  14.334
91763W        W60157   1.143   3.520   0.155
91764W        W60158   7.491   2.191   2.876
91765W        W60159   7.074  16.013   1.025
91766W        W60160  11.453  26.992  13.944
91767W        W60161  31.458  37.890   0.844
91768W        W60162  27.623  21.458  10.774
91769W        W60163  25.145  14.243   1.085
91770W        W60164   6.201  14.771   2.827
91771W        W60165   1.910  14.654  14.526
91772W        W60166  35.864  20.249  14.332
91773W        W60167  28.615  39.895  13.266
91774W        W60168  41.472  14.166  14.947
91775W        W60169  27.935  19.873   1.454
91776W        W60170  13.649   9.406   1.899
91777W        W60171   7.413  20.718  10.598
91778W        W60172  37.848   0.330  11.556
91779W        W60173  27.014   5.895  10.629
91780W        W60174  19.189  29.091  11.867
91781W        W60175  24.603  16.023   0.581
91782W        W60176  43.117  22.598  11.748
91783W        W60177  42.558  31.162  12.857
91784W        W60178  19.565   2.207   3.684
91785W        W60179   1.327  10.590  11.147
91786W        W60180  33.115   2.778   0.226
91787W        W60181   8.814  12.285  13.818
91788W        W60182   7.013  26.121  14.150
91789W        W60183  15.745  12.125  11.615
91790W        W60184  18.268  32.209  14.557
91791W        W60185  24.694  17.807   3.378
91792W        W60186  29.544  34.258  14.392
91793W        W60187  35.754  25.420  13.730
91794W        W60188   5.220  24.991  11.551
91795W        W60189  28.196  12.001  12.950
91796W        W60190  18.280  30.804  12.153
91797W        W60191  24.603  26.579   3.795
91798W        W60192  28.840   1.670   0.228
91799W        W60193  13.017  15.302  12.089
91800W        W60194  42.977  20.113  13.120
91801W        W60195   4.198   0.855   2.334
91802W        W60196  23.128  20.943   0.818
91803W        W60197  34.524  40.248  12.078
91804W        W60198  37.712  44.380   1.702
91805W        W60199  39.373  41.770  14.049
91806W        W60200  37.356  30.925  11.069
91807W        W60201  40.037  18.100   3.218
91808W        W60202  10.773  44.922   4.136
91809W        W60203  34.140  19.576   0.820
91810W        W60204  28.939  20.110   4.536
91811W        W60205  31.434   0.700   1.878
91812W        W60206  31.324  36.811  14.378
91813W        W60207  25.777  44.869  12.148
91814W        W60208  41.412  36.475  11.555
91815W        W60209  17.179   1.089   3.217
91816W        W60210  14.956   5.394   2.607
91817W        W60211  12.822  32.585   3.644
91818W        W60212  18.080  39.248   1.389
91819W        W60213  10.331  37.034  11.994
91820W        W60214  21.549   4.037   2.309
91821W        W60215  14.025   8.647  13.134
91822W        W60216   4.637  27.954   4.728
91823W        W60217  28.069   4.730  12.086
91824W        W60218  34.829  42.999  13.890
91825W        W60219  34.556  39.628  14.896
91826W        W60220  20.956   7.316   1.208
91827W        W60221  29.169   5.034  12.184
91828W        W60222   8.441  21.230   0.522
91829W        W60223  12.267  21.017   3.777
91830W        W60224  20.307  33.101  12.384
91831W        W60225  31.857  13.004   3.267
91832W        W60226  31.154  38.238  12.332
91833W        W60227  44.373   3.785  12.932
91834W        W60228  32.653  21.257   4.651
91835W        W60229  33.296   1.346  12.442
91836W        W60230  39.238  18.204  10.752
91837W        W60231  27.199   6.937  12.654
91838W        W60232  16.730  44.244   1.256
91839W        W60233  32.860  37.931  14.445
91840W        W60234  16.863   9.206   4.088
91841W        W60235  39.640  24.705  11.148
91842W        W60236  37.406  44.561  10.720
91843W        W60237  23.617  10.744  13.568
91844W        W60238  18.342   2.433  14.984
91845W        W60239  19.960  16.645   0.201
91846W        W60240  37.493   7.750   3.702
91847W        W60241  22.463  20.520  14.606
91848W        W60242  33.621  17.355   0.432
91849W        W60243  13.292   5.248   1.704
91850W        W60244   2.910  35.912   0.741
91851W        W60245  20.638  22.669   1.377
91852W        W60246  41.392  43.590   3.261
91853W        W60247   4.236   6.778   3.725
91854W        W60248   0.089  33.844   0.738
91855W        W60249  30.805  28.922   1.604
91856W        W60250   3.728  28.889   2.927
91857W        W60251  33.864   2.640  11.127
91858W        W60252  44.810  34.483   1.804
91859W        W60253  42.278   8.894   2.792
91860W        W60254  44.245  38.940  11.105
91861W        W60255  11.313   1.803   4.088
91862W        W60256   8.889   9.675   2.802
91863W        W60257   5.984  41.555  11.843
91864W        W60258  32.522  37.024  12.477
91865W        W60259  37.293   6.787  11.971
91866W        W60260  31.207  16.901  12.614
91867W        W60261   9.259  44.011  13.955
91868W        W60262   4.691  38.058  11.529
91869W        W60263  10.309  30.173  14.819
91870W        W60264  33.599  32.564  10.288
91871W        W60265  37.359   8.378   4.546
91872W        W60266  17.791  33.939   2.156
91873W        W60267  17.280  10.687  13.082
91874W        W60268  15.626  18.413   5.281
91875W        W60269  14.138  16.601  12.324
91876W        W60270   1.296  18.791   4.617
91877W        W60271   5.413  17.364  11.358
91878W        W60272   3.420  37.014  13.125
91879W        W60273  40.069  31.103  12.497
91880W        W60274  33.899  17.965   5.160
91881W        W60275  44.055  15.952  12.808
91882W        W60276   2.889  20.241   4.526
91883W        W60277  34.437  35.501  10.665
91884W        W60278  22.261   1.371  11.896
91885W        W60279   6.001  30.679  14.296
91886W        W60280  12.924  41.547  14.247
91887W        W60281  20.252   9.255  13.539
91888W        W60282  26.501  43.793   4.572
91889W        W60283  42.038  34.842   1.821
91890W        W60284  32.817  32.495  14.220
91891W        W60285  10.277  25.964  14.108
91892W        W60286  39.630  38.041   0.563
91893W        W60287  42.424  27.357   3.736
91894W        W60288  41.064  11.376  11.362
91895W        W60289  21.981  29.379  14.677
91896W        W60290  39.935  13.951  10.745
91897W        W60291  21.987  18.918   2.222
91898W        W60292  32.097  19.029   0.661
91899W        W60293  40.512  34.018   3.792
91900W        W60294   2.904  39.699  10.526
91901W        W60295  14.287  17.576  13.921
91902W        W60296   5.206  29.875   0.313
91903W        W60297  42.400  30.134  13.862
91904W        W60298  40.500   3.370   1.196
91905W        W60299  38.088  44.025   1.758
91906W        W60300  23.822  42.576  12.634
91907W        W60301   1.494   7.147   4.340
91908W        W60302  23.979  39.533  11.704
91909W        W60303   5.400  43.010   4.205
91910W        W60304   6.938  30.444   0.265
91911W        W60305  29.181  10.117   3.830
91912W        W60306  11.674  30.036   2.140
91913W        W60307  27.605  22.805   0.065
91914W        W60308  31.443  25.553   1.387
91915W        W60309  30.467  38.485   4.128
91916W        W60310  28.285   4.437  12.456
91917W        W60311  34.538  14.164   3.285
91918W        W60312  11.107  42.339  11.651
91919W        W60313  13.114  22.867   4.195
91920W        W60314  16.671  24.042   1.290
91921W        W60315  41.445  36.968  11.663
91922W        W60316  44.010  42.942   2.390
91923W        W60317   4.129  39.010  10.759
91924W        W60318  10.078  43.026   1.663
91925W        W60319  40.674   9.769   0.384
91926W        W60320  29.655  39.759  11.648
91927W        W60321  23.264   6.478  13.884
91928W        W60322   6.645  33.626  12.476
91929W        W60323   2.530  35.178   0.435
91930W        W60324  22.241  32.566   4.265
91931W        W60325  36.846  40.192   3.486
91932W        W60326  13.230   8.038  11.544
91933W        W60327  41.049   0.501  12.046
91934W        W60328  37.897  17.555   1.845
91935W        W60329   9.385  27.080   5.664
91936W        W60330  30.868  15.407   0.882
91937W        W60331  27.146  38.272   2.729
91938W        W60332  16.975  21.969  11.944
91939W        W60333  36.918  17.701   2.189
91940W        W60334  29.155  36.383   0.868
91941W        W60335  32.617  35.931  13.542
91942W        W60336  42.940  31.986   2.274
91943W        W60337  11.779   9.340   3.161
91944W        W60338  44.203  29.650   1.358
91945W        W60339  30.947  33.852  12.025
91946W        W60340  15.521  41.444   0.024
91947W        W60341   5.198  15.842   3.182
91948W        W60342  26.497  10.838   0.486
91949W        W60343   0.279   8.876   0.493
91950W        W60344  15.151  41.418  11.521
91951W        W60345  13.476  37.152   0.940
91952W        W60346  10.384  43.229  13.854
91953W        W60347  12.678  41.380   1.765
91954W        W60348  32.955  41.484   4.932
91955W        W60349  26.476  42.898  11.987
91956W        W60350  17.263  15.746   2.417
91957W        W60351  21.178  27.390  13.817
91958W        W60352  15.241   0.214   4.130
91959W        W60353  17.305  34.610  10.819
91960W        W60354   2.023  38.451  12.603
91961W        W60355  30.627  26.434   5.112
91962W        W60356   6.802  42.058   0.439
91963W        W60357  23.703  32.677  13.827
91964W        W60358  33.930  12.383  12.353
91965W        W60359  38.877  31.485   2.641
91966W        W60360  12.062  14.865   0.324
91967W        W60361   1.698  14.033  11.966
91968W        W60362  38.042   2.612  13.842
91969W        W60363   0.925   9.470   0.862
91970W        W60364  21.224  21.605   0.279
91971W        W60365  31.010  12.519   3.610
91972W        W60366  10.613   4.464  13.823
91973W        W60367  26.991  21.728   4.523
91974W        W60368  39.845  23.787  14.765
91975W        W60369  29.056  33.072  14.873
91976W        W60370  35.818  14.624  14.293
91977W        W60371   6.325  22.198   4.902
91978W        W60372  24.229   9.428   5.522
91979W        W60373  33.973  19.462  11.609
91980W        W60374  35.354   9.343   2.991
91981W        W60375   0.724  31.184  14.212
91982W        W60376  33.680   4.258  13.335
91983W        W60377  40.269  17.974   4.939
91984W        W60378  23.699  28.575  10.722
91985W        W60379  36.540  30.007   3.293
91986W        W60380  19.080  22.301   4.850
91987W        W60381  25.362  16.598  11.665
91988W        W60382  36.011   7.649  13.936
91989W        W60383  31.137  36.520   1.234
91990W        W60384   1.744   5.733  11.172
91991W        W60385   5.937  37.878  14.798
91992W        W60386   8.920  10.390   4.933
91993W        W60387   8.224   9.686  12.541
91994W        W60388  16.666  43.265   3.203
91995W        W60389   2.795   9.045   2.924
91996W        W60390  10.685  34.401  10.521
91997W        W60391  31.124   6.219   4.129
91998W        W60392   5.844   5.966   4.606
91999W        W60393  32.533  20.155   2.341
92000W        W60394  41.552   8.346   2.898
92001W        W60395   1.682  11.870   1.809
92002W        W60396   5.933   9.311   1.178
92003W        W60397  20.466  24.118   2.139
92004W        W60398  35.772  38.041  12.046
92005W        W60399   8.821  38.786   1.431
92006W        W60400  20.532  16.185   4.617
92007W        W60401  15.522  39.751  11.244
92008W        W60402  11.228  44.725  10.733
92009W        W60403  17.725  13.094  11.913
92010W        W60404  22.630  17.871   1.297
92011W        W60405   6.771   0.462  12.219
92012W        W60406  33.928  25.526   0.437
92013W        W60407  29.876  38.483   4.139
92014W        W60408  22.274   8.610  10.182
92015W        W60409  32.354  14.260  11.558
92016W        W60410   4.872  34.616   0.485
92017W        W60411   0.219  30.838   3.630
92018W        W60412  25.294   2.800  12.897
92019W        W60413   2.246  11.566   4.152
92020W        W60414  34.361   9.807  12.076
92021W        W60415  40.316  30.591  11.816
92022W        W60416  13.240  43.871   3.555
92023W        W60417  43.907   1.158   1.320
92024W        W60418  31.134   3.612   3.855
92025W        W60419  37.453  19.141   0.736
92026W        W60420  12.260  10.106   2.291
92027W        W60421   8.620  18.800  11.527
92028W        W60422  30.683   5.289   0.937
92029W        W60423  14.754  25.478  12.389
92030W        W60424  37.351   4.211  14.454
92031W        W60425   5.696   0.001  10.780
92032W        W60426  39.133  19.487   5.069
92033W        W60427  24.194  43.103   4.617
92034W        W60428  37.001  21.646  11.590
92035W        W60429  24.408  14.218  11.614
92036W        W60430   6.250  23.066  13.041
92037W        W60431  44.028  28.398  13.419
92038W        W60432  32.722  16.596   3.337
92039W        W60433  41.074   5.969  14.902
92040W        W60434  43.360  37.172   0.216
92041W        W60435  17.123   0.364  13.538
92042W        W60436  22.071  43.694  11.470
92043W        W60437   1.525   1.799  11.275
92044W        W60438   8.758   0.002  12.330
92045W        W60439  13.178  35.274  14.283
92046W        W60440  32.009  37.364   4.609
92047W        W60441   2.462  43.029  12.499
92048W        W60442  11.999  25.824   2.160
92049W        W60443  34.232  30.125   2.291
92050W        W60444  34.493  21.858  14.952
92051W        W60445  11.118  30.471   3.055
92052W        W60446  12.073  36.464   4.794
92053W        W60447  22.707  37.994   0.722
92054W        W60448   4.077  28.251  14.563
92055W        W60449   7.176  14.309  12.068
92056W        W60450  35.446  32.121   0.916
92057W        W60451  21.877  32.599  13.113
92058W        W60452  33.347  38.426  13.775
92059W        W60453  22.216  18.640  10.682
92060W        W60454  40.322  22.012  14.343
92061W        W60455  36.058  17.609   1.171
92062W        W60456  30.834   3.794  13.008
92063W        W60457   9.657  41.355  12.328
92064W        W60458  30.918  41.735  13.345
92065W        W60459  20.785  21.733  12.424
92066W        W60460  26.455  17.053   1.113
92067W        W60461  26.536  10.829  14.987
92068W        W60462   7.263  41.277  12.949
92069W        W60463  30.127   0.226   3.327
92070W        W60464   2.434  24.216  10.775
92071W        W60465  41.527  41.525  11.336
92072W        W60466  38.234   4.772  14.360
92073W        W60467  43.045  20.545   4.927
92074W        W60468  38.483  33.417   3.197
92075W        W60469  20.250  18.475   1.374
92076W        W60470  28.988  43.233  10.547
92077W        W60471  27.981   7.119  14.440
92078W        W60472  20.523  19.324  12.395
92079W        W60473   6.742  21.546  12.131
92080W        W60474  29.978  26.683   4.089
92081W        W60475  39.499  28.216   3.828
92082W        W60476  12.704  22.269  10.562
92083W        W60477  39.295  13.658  14.926
92084W        W60478  16.341  19.535  14.820
92085W        W60479   8.295  42.842   0.267
92086W        W60480  44.795   7.799  10.470
92087W        W60481  23.155  22.410  12.868
92088W        W60482   0.389  14.885   1.908
92089W        W60483   0.701  24.492   4.388
92090W        W60484  31.586  35.020   3.849
92091W        W60485  34.883  43.433  11.377
92092W        W60486   6.439   1.325  11.082
92093W        W60487  35.511   4.193  12.652
92094W        W60488  39.895  23.139  13.895
92095W        W60489  21.309  29.520   3.363
92096W        W60490   5.693  32.356  11.197
92097W        W60491   1.468   7.880   3.166
92098W        W60492  30.430  18.028  13.520
92099W        W60493  37.122  37.728  12.484
92100W        W60494  33.690  15.180   4.910
92101W        W60495  18.290   7.416   1.940
92102W        W60496  35.097   8.115   1.751
92103W        W60497  14.544  39.693   5.059
92104W        W60498  18.157  20.632  11.180
92105W        W60499  24.899  42.841   0.934
92106W        W60500   3.392  15.260   1.370
92107W        W60501  32.910   2.701  13.842
92108W        W60502  17.540  12.649   1.200
92109W        W60503  12.108  23.932   0.357
92110W        W60504  42.334   6.674  10.632
92111W        W60505  26.619  31.167  13.840
92112W        W60506  27.127  12.121  14.973
92113W        W60507  43.248  34.895  10.266
92114W        W60508  20.533  11.644  12.902
92115W        W60509  36.053  15.384   2.130
92116W        W60510  24.099  37.796   1.268
92117W        W60511  33.093  33.616   2.354
92118W        W60512   5.996  39.067  11.264
92119W        W60513  20.159  36.870   2.714
92120W        W60514   4.059  14.646   4.183
92121W        W60515  42.132  18.716   1.209
92122W        W60516  16.398   6.624  12.589
92123W        W60517  10.529  14.828  10.655
92124W        W60518  15.419  23.978  11.010
92125W        W60519  42.283   0.936  10.830
92126W        W60520   1.920  21.788   3.233
92127W        W60521  28.896  44.464   1.285
92128W        W60522  21.232  38.886  11.225
92129W        W60523  32.871   8.646   3.397
92130W        W60524   3.217   7.949   4.025
92131W        W60525  32.553  35.459   2.122
92132W        W60526   0.054   2.359   0.807
92133W        W60527  19.642   2.441  12.126
92134W        W60528  19.117  28.950  11.069
92135W        W60529  42.571  42.268   1.211
92136W        W60530  35.351  24.199  11.157
92137W        W60531  15.426   1.514  13.343
92138W        W60532  15.781  11.649   4.654
92139W        W60533  22.492  12.326  13.506
92140W        W60534  25.097  39.299   2.225
92141W        W60535  41.791  29.493  12.615
92142W        W60536   7.816  14.541   4.476
92143W        W60537  35.873  28.947   2.794
92144W        W60538   2.229   2.990  12.022
92145W        W60539  26.099  14.977  13.110
92146W        W60540   3.229  24.534   3.143
92147W        W60541  10.573  19.746  11.187
92148W        W60542  36.363  21.646   1.299
92149W        W60543  44.845   7.374  11.758
92150W        W60544  17.760  28.683   2.165
92151W        W60545  29.096  17.251  12.663
92152W        W60546  29.093   8.251   3.784
92153W        W60547  31.305  15.047  14.974
92154W        W60548  22.519  10.263   1.335
92155W        W60549  39.373  44.341   4.480
92156W        W60550  36.727  42.235  14.713
92157W        W60551  23.580  39.556  14.411
92158W        W60552  22.209  33.661   2.870
92159W        W60553  37.036  16.196   0.749
92160W        W60554   7.207  27.503   4.371
92161W        W60555  39.318  13.675   0.840
92162W        W60556  30.826  19.801   4.596
92163W        W60557  36.180  16.116  12.411
92164W        W60558  20.230  26.670  13.204
92165W        W60559   2.637  36.904   2.411
92166W        W60560  23.511   3.477   0.450
92167W        W60561   3.005   1.852   1.815
92168W        W60562  23.109  39.760  12.863
92169W        W60563  44.800  14.581   0.212
92170W        W60564  21.990  35.924   1.429
92171W        W60565  35.066   0.763   3.243
92172W        W60566  30.097  37.327  12.911
92173W        W60567  31.408  20.198   0.925
92174W        W60568   6.107  27.191  13.023
92175W        W60569   7.123  38.932   1.057
92176W        W60570  26.820  10.164   3.654
92177W        W60571   1.887  18.663  14.533
92178W        W60572  37.565  39.631   0.903
92179W        W60573  43.029  34.150   3.679
92180W        W60574  11.198  26.143  12.624
92181W        W60575  31.995  41.208  10.735
92182W        W60576  32.978   2.900  14.748
92183W        W60577  44.775  21.552  10.393
92184W        W60578  36.686   8.690  11.046
92185W        W60579  16.037  25.976  11.298
92186W        W60580  14.309  36.069  14.759
92187W        W60581  31.187   1.370   4.513
92188W        W60582   6.710  37.403  14.805
92189W        W60583   7.630  10.436   0.666
92190W        W60584   0.297  27.665   0.797
92191W        W60585  28.668   8.252   2.273
92192W        W60586  11.913  36.448  14.823
92193W        W60587  23.258  33.873   3.236
92194W        W60588  16.293  43.139   0.952
92195W        W60589  41.449  29.642  11.494
92196W        W60590  15.151  38.301  11.144
92197W        W60591   7.226  18.657   3.060
92198W        W60592  18.138  37.544   4.935
92199W        W60593  41.259  31.044  13.342
92200W        W60594  38.494   0.690   3.127
92201W        W60595  14.754   4.939  12.418
92202W        W60596  43.815  28.488  11.547
92203W        W60597  42.026  29.195   3.784
92204W        W60598  23.412   8.652   0.976
92205W        W60599   0.800  30.619   0.580
92206W        W60600  31.032   7.404  13.912
92207W        W60601  19.584  36.647   4.686
92208W        W60602  29.241  13.878  13.188
92209W        W60603  21.459  44.899   0.884
92210W        W60604  28.685   0.500   4.530
92211W        W60605  43.754  18.122   3.086
92212W        W60606  24.553   6.687   1.344
92213W        W60607  12.860  18.941   2.393
92214W        W60608   9.316  43.085   1.787
92215W        W60609   6.470  41.477  14.630
92216W        W60610  38.462  12.948   4.060
92217W        W60611  40.439   1.678  10.736
92218W        W60612  10.193   9.438   2.634
92219W        W60613  15.594  44.429  14.620
92220W        W60614  37.584  44.790   1.360
92221W        W60615   0.554   5.941   0.441
92222W        W60616  13.034  44.253   3.141
92223W        W60617  40.944  42.729  14.059
92224W        W60618  14.791   2.678  12.010
92225W        W60619  12.941  18.779  13.193
92226W        W60620  22.652  13.730   1.236
92227W        W60621  37.108  30.098   2.783
92228W        W60622  26.671   1.569   0.726
92229W        W60623  14.261   9.860   1.342
92230W        W60624  38.927  33.685   3.212
92231W        W60625  34.664  41.213  12.023
92232W        W60626   9.380  27.989  11.608
92233W        W60627  29.647  32.536   4.257
92234W        W60628  28.989  31.320   4.662
92235W        W60629   7.852  26.134   1.656
92236W        W60630  13.608  15.531  14.348
92237W        W60631  17.561   1.809  13.905
92238W        W60632  22.495  39.235   4.212
92239W        W60633   0.494  21.745  14.554
92240W        W60634  25.672   8.000   4.663
92241W        W60635  40.265  30.123   1.759
92242W        W60636  42.144  43.297   4.681
92243W        W60637  29.839  12.669  14.511
92244W        W60638   4.995  16.458   4.485
92245W        W60639  36.685  41.493  14.461
92246W        W60640   1.898  29.246   3.575
92247W        W60641   8.974  30.108  13.610
92248W        W60642   6.221  38.075  14.392
92249W        W60643  22.695  27.035  13.231
92250W        W60644  14.247  40.619   4.977
92251W        W60645  27.963  10.385  10.538
92252W        W60646  28.515  15.677   3.086
92253W        W60647  17.521  18.189   1.731
92254W        W60648   6.435  10.187   3.191
92255W        W60649   0.433  28.499  11.662
92256W        W60650  32.272  27.737   2.511
92257W        W60651  24.044  19.541   0.377
92258W        W60652  39.218   6.417   3.043
92259W        W60653   0.547  42.234   0.561
92260W        W60654  39.634   9.323  10.771
92261W        W60655  18.609  39.384   1.815
92262W        W60656  25.475   4.325  12.837
92263W        W60657   7.203   4.969   0.320
92264W        W60658  10.134  24.608   0.816
92265W        W60659   2.059  44.805  14.935
92266W        W60660   0.027  31.714  12.027
92267W        W60661   3.694   1.711   3.339
92268W        W60662  41.623  39.046  14.927
92269W        W60663   6.578  14.544   9.900
92270W        W60664  13.528  35.036   4.436
92271W        W60665   6.767  26.605  11.621
92272W        W60666   3.865   1.943   3.770
92273W        W60667  10.400   7.282  11.274
92274W        W60668   7.705  32.321   0.777
92275W        W60669   1.055  23.670   4.135
92276W        W60670  29.152  36.288  13.769
92277W        W60671   2.940  12.271  13.096
92278W        W60672  15.270   8.268   2.190
92279W        W60673   5.066  16.401   0.210
92280W        W60674  37.217  39.247   4.803
92281W        W60675  13.543  37.311   0.187
92282W        W60676  16.741   6.496   0.610
92283W        W60677  38.072  12.236  12.157
92284W        W60678  28.661  33.093  13.389
92285W        W60679  36.493  35.507  14.794
92286W        W60680  18.326  19.099   2.783
92287W        W60681  31.308  27.852   4.249
92288W        W60682  10.709  15.155   2.944
92289W        W60683  15.262  11.169   0.761
92290W        W60684   2.389  40.155   0.021
92291W        W60685  18.503   9.468  12.141
92292W        W60686   5.916  27.028  12.547
92293W        W60687  36.429  44.362  13.421
92294W        W60688  30.856   2.772  11.788
92295W        W60689   1.888  44.424   4.566
92296W        W60690  26.487  23.377  12.378
92297W        W60691  32.099  32.097  14.048
92298W        W60692  19.492  20.283   5.042
92299W        W60693  14.711  26.099  10.595
92300W        W60694  16.087  23.228   0.471
92301W        W60695  36.893  42.325   0.711
92302W        W60696  40.251  37.010   4.652
92303W        W60697  43.444  37.671   0.357
92304W        W60698  18.081  30.598   1.656
92305W        W60699  41.395  26.196   2.162
92306W        W60700  22.462  18.579   4.479
92307W        W60701   9.785  30.983   1.438
92308W        W60702   0.177  27.674  11.442
92309W        W60703  37.442  33.193   2.722
92310W        W60704   6.149  30.611   4.281
92311W        W60705  11.724  41.318   0.799
92312W        W60706  20.692  27.373  13.483
92313W        W60707   5.406  15.893  11.643
92314W        W60708   7.730  27.178  14.026
92315W        W60709  43.852   0.926  14.870
92316W        W60710   8.288  30.527  11.686
92317W        W60711  10.452  11.246   2.899
92318W        W60712  28.447  22.310   0.481
92319W        W60713   0.801  21.103   3.588
92320W        W60714   2.932  42.997  10.720
92321W        W60715  16.494   4.934  14.986
92322W        W60716  26.083  30.905  11.972
92323W        W60717  36.382  14.919   0.473
92324W        W60718  30.977  21.580   0.245
92325W        W60719   4.187  14.883   1.065
92326W        W60720  34.380  18.616   4.478
92327W        W60721  19.734  14.065   1.322
92328W        W60722   4.367  26.010  13.609
92329W        W60723  41.179   1.874   1.965
92330W        W60724  41.079  40.487  13.473
92331W        W60725  34.941  36.114  13.420
92332W        W60726  13.748  29.644   4.684
92333W        W60727  36.070   6.934   2.828
92334W        W60728  39.541  25.691   2.272
92335W        W60729  28.723  18.746   4.633
92336W        W60730  32.100  22.117  14.829
92337W        W60731  18.726  38.126  14.907
92338W        W60732  41.438   1.512  13.496
92339W        W60733  27.301  21.524  12.803
92340W        W60734  44.830  24.791  13.972
92341W        W60735  21.021  17.743  13.329
92342W        W60736  13.122  25.745   4.621
92343W        W60737   2.040  38.476  11.215
92344W        W60738   4.688  43.731  12.112
92345W        W60739  38.442  23.223  10.703
92346W        W60740  39.120  39.945  12.591
92347W        W60741  13.390  26.379  12.079
92348W        W60742   8.883  32.894  14.209
92349W        W60743  32.821  17.042  14.063
92350W        W60744   4.627  18.023   9.916
92351W        W60745  29.369  34.838   3.280
92352W        W60746  27.131  43.549   2.312
92353W        W60747  36.421  17.187  13.999
92354W        W60748  17.675   0.493   1.323
92355W        W60749  17.119   0.068  14.005
92356W        W60750  10.194   9.936   2.670
92357W        W60751  12.566  35.657  12.180
92358W        W60752  33.064  10.213  11.060
92359W        W60753  11.137  20.165   4.104
92360W        W60754  42.431  41.958  12.883
92361W        W60755   3.339   4.885   3.353
92362W        W60756  18.804  15.852  11.736
92363W        W60757  26.501  41.512   0.410
92364W        W60758   4.742  16.794   3.264
92365W        W60759   6.859  36.467   1.162
92366W        W60760  21.201  18.697   5.072
92367W        W60761  12.367  43.748   4.213
92368W        W60762  29.576  18.771   3.193
92369W        W60763  40.989  39.476  12.233
92370W        W60764  25.996   6.391   3.786
92371W        W60765  25.081  22.897  10.779
92372W        W60766  32.131  40.434   4.566
92373W        W60767  38.613  41.079   2.285
92374W        W60768  15.248  24.440  13.434
92375W        W60769   1.772  42.015   0.427
92376W        W60770  40.757  33.444  11.119
92377W        W60771  40.881  38.571  11.256
92378W        W60772  30.736  15.578   2.767
92379W        W60773  31.692  14.231   0.816
92380W        W60774  44.283  34.396   3.838
92381W        W60775   5.435  37.955  12.526
92382W        W60776  19.064  39.079  14.729
92383W        W60777   1.349  28.911  12.585
92384W        W60778  16.645   8.337   1.281
92385W        W60779  11.668  14.544   0.226
92386W        W60780  42.078   4.190   2.301
92387W        W60781   7.864  37.106   0.954
92388W        W60782  33.188  15.316  12.913
92389W        W60783  39.165  35.520  13.055
92390W        W60784   7.938  10.675  14.859
92391W        W60785  38.082  36.033   3.588
92392W        W60786   1.850  18.842   3.364
92393W        W60787  44.783   7.886   4.114
92394W        W60788  18.762   9.294   1.238
92395W        W60789  37.907  26.589   3.683
92396W        W60790  40.742  10.034  11.283
92397W        W60791  34.864  33.470   1.727
92398W        W60792   4.155  23.996  12.220
92399W        W60793  43.235   3.791  13.796
92400W        W60794  28.129  13.167  12.633
92401W        W60795  28.943  35.040   4.662
92402W        W60796  26.139  40.545  14.881
92403W        W60797  40.633  10.349  14.024
92404W        W60798  21.178  37.376   3.597
92405W        W60799  40.435  38.628   1.875
92406W        W60800  23.675  43.747   0.882
92407W        W60801  27.689  35.500  14.496
92408W        W60802  20.177  39.837   1.719
92409W        W60803  30.560   4.888   4.476
92410W        W60804  32.302   3.911  13.480
92411W        W60805  28.001  11.363  11.641
92412W        W60806  36.136  22.660   0.492
92413W        W60807  37.941   7.920   2.664
92414W        W60808   4.042   1.869  13.531
92415W        W60809  35.161   4.879   5.028
92416W        W60810  40.420  34.437   2.142
92417W        W60811   3.859  29.670   4.035
92418W        W60812  41.404  10.252  13.341
92419W        W60813  31.220   6.804  13.351
92420W        W60814  40.913  25.534  11.701
92421W        W60815  43.512  17.994   2.639
92422W        W60816  30.613  35.568   2.397
92423W        W60817  40.506  30.943   3.341
92424W        W60818  38.971  16.650   3.227
92425W        W60819   7.855  14.222   3.622
92426W        W60820  10.395   5.717   0.476
92427W        W60821  11.909  29.479  12.504
92428W        W60822  12.156  40.303   1.231
92429W        W60823   6.805  44.825   4.287
92430W        W60824   9.142  21.946   3.223
92431W        W60825  13.427   5.624  13.411
92432W        W60826  27.368  41.771   4.154
92433W        W60827  30.406  16.732   0.445
92434W        W60828  32.007  15.551  13.298
92435W        W60829  23.686  41.419  11.608
92436W        W60830  20.215  14.071  13.834
92437W        W60831   6.307  25.383  14.267
92438W        W60832   9.759  12.739  13.030
92439W        W60833  32.378   6.724   1.690
92440W        W60834  39.906  35.942   1.366
92441W        W60835  42.359  36.808  13.569
92442W        W60836  20.143  40.620   1.258
92443W        W60837  12.854  25.541   0.974
92444W        W60838  11.624  41.045  11.590
92445W        W60839   1.823  42.512   1.313
92446W        W60840   3.340  33.954   1.230
92447W        W60841   1.357  24.745   4.244
92448W        W60842  41.061  32.453  13.595
92449W        W60843  18.302  43.343  10.567
92450W        W60844   0.083  26.482   4.388
92451W        W60845  25.927  30.648   2.379
92452W        W60846  44.577   5.904   1.216
92453W        W60847  11.207  34.760  10.690
92454W        W60848  33.295  14.109   3.801
92455W        W60849   2.260   9.205   2.271
92456W        W60850  36.813   5.851   3.545
92457W        W60851  37.553  16.307  14.105
92458W        W60852   0.745  29.955   4.573
92459W        W60853  32.090  31.826   0.437
92460W        W60854  19.344   6.643  14.364
92461W        W60855  17.245  31.887  14.494
92462W        W60856  15.385  19.804   1.692
92463W        W60857  20.328  32.343  13.077
92464W        W60858  26.072  24.960  13.911
92465W        W60859  40.606  13.776   3.791
92466W        W60860  37.711  16.965   4.795
92467W        W60861  35.682  41.288   0.625
92468W        W60862  34.289   0.973   3.680
92469W        W60863  13.115  37.636   3.574
92470W        W60864   1.307  29.114   2.097
92471W        W60865  18.272  20.143   4.764
92472W        W60866   2.757   0.906   2.223
92473W        W60867  34.991  42.320   0.982
92474W        W60868  41.880  24.687  12.432
92475W        W60869  37.872  16.040  11.245
92476W        W60870  23.200  31.840  12.049
92477W        W60871  40.297  14.043  12.057
92478W        W60872  30.190  31.155  10.984
92479W        W60873  18.227  42.739  13.559
92480W        W60874  40.501   0.770  11.517
92481W        W60875  25.921  14.668   0.850
92482W        W60876  36.600   3.884   0.305
92483W        W60877  25.017  35.908  13.583
92484W        W60878  10.491  30.712   2.289
92485W        W60879   0.076  39.376   9.875
92486W        W60880  34.395  13.163  12.493
92487W        W60881  43.306  21.051   4.221
92488W        W60882   9.789  28.658   3.173
92489W        W60883  22.730  37.844   3.996
92490W        W60884  10.157  20.952   1.201
92491W        W60885  39.496  12.224   2.361
92492W        W60886  29.176   2.229  11.083
92493W        W60887  21.935  32.013  13.495
92494W        W60888  36.485  30.657  13.866
92495W        W60889   2.010  43.798  14.965
92496W        W60890   9.279  12.197   2.861
92497W        W60891  44.103  23.422  11.917
92498W        W60892  10.842  16.243   3.337
92499W        W60893  22.654   6.406  10.932
92500W        W60894   2.598  44.025   0.663
92501W        W60895  41.875  17.854  12.816
92502W        W60896  15.542  12.153   1.006
92503W        W60897  39.528  32.013  12.858
92504W        W60898  27.678  18.539   4.754
92505W        W60899   5.368  37.143   0.186
92506W        W60900  13.288  10.284  10.297
92507W        W60901  40.193  35.749  13.101
92508W        W60902   6.711  15.380   3.798
92509W        W60903   8.279  24.055  13.394
92510W        W60904  20.418  21.801   2.230
92511W        W60905  24.592  21.099  14.067
92512W        W60906  25.994  28.915   3.254
92513W        W60907   5.536  25.842  14.357
92514W        W60908   5.631   4.203   2.704
92515W        W60909  43.484  44.711   3.570
92516W        W60910  12.602  16.534  13.084
92517W        W60911   6.687  26.207   5.023
92518W        W60912  14.490  22.704   2.854
92519W        W60913  26.900  41.975   4.109
92520W        W60914   3.149  24.464   2.605
92521W        W60915  20.977  44.061  12.006
92522W        W60916   0.881  28.713  12.416
92523W        W60917  44.066  29.156  12.440
92524W        W60918  38.632  35.595  13.075
92525W        W60919   2.442  36.462   1.023
92526W        W60920  23.185  20.510   2.642
92527W        W60921  42.708  15.046  10.598
92528W        W60922   0.733  44.564  13.540
92529W        W60923  34.961  26.504  13.625
92530W        W60924   8.779  44.328   3.215
92531W        W60925   6.781  32.655   1.732
92532W        W60926  42.954  26.986   0.787
92533W        W60927  41.432  15.054   0.830
92534W        W60928  36.091  18.249   4.657
92535W        W60929  21.181  29.221  14.485
92536W        W60930  21.443  31.424   4.273
92537W        W60931  16.160  23.494   0.930
92538W        W60932  36.438  23.070  12.931
92539W        W60933  30.723  22.225  13.013
92540W        W60934  22.473  32.987   2.652
92541W        W60935  43.695  36.406   3.202
92542W        W60936  38.892  15.903   2.161
92543W        W60937  24.092   8.802   0.452
92544W        W60938   0.774  10.744   3.300
92545W        W60939  23.588   1.489  13.457
92546W        W60940  13.838  34.560   2.189
92547W        W60941  28.549  33.987  11.710
92548W        W60942  32.703  24.948   5.348
92549W        W60943   7.006  24.709  11.533
92550W        W60944  34.322  43.320  10.725
92551W        W60945  22.797  31.160   3.754
92552W        W60946  27.418   4.769  11.102
92553W        W60947   3.340  20.567   3.185
92554W        W60948   8.401  40.055  11.045
92555W        W60949  44.357  30.524  11.505
92556W        W60950  25.984   6.100  12.425
92557W        W60951  21.125  42.941   0.619
92558W        W60952  13.635  31.626  13.974
92559W        W60953   3.177  40.939  13.617
92560W        W60954  11.066  36.860   4.055
92561W        W60955  15.724  10.258  12.877
92562W        W60956  19.737  22.964   2.802
92563W        W60957  13.006   8.365   3.648
92564W        W60958  13.581  37.338  14.427
92565W        W60959  24.869  29.609  10.719
92566W        W60960  32.252  16.901   3.991
92567W        W60961  12.395  13.225  14.793
92568W        W60962  36.255  36.323   2.011
92569W        W60963   7.768  29.467   0.303
92570W        W60964  13.593  10.254   3.147
92571W        W60965  44.443  33.423   5.137
92572W        W60966   0.569  37.968  10.317
92573W        W60967  17.635  28.756   2.987
92574W        W60968  26.443  22.467   5.013
92575W        W60969  12.640  41.016  11.563
92576W        W60970   3.851  21.790   0.364
92577W        W60971  14.718  21.563   1.350
92578W        W60972  11.492   9.882   4.614
92579W        W60973  44.156  28.850  11.467
92580W        W60974  18.516  38.530  12.038
92581W        W60975  29.167  12.044   0.543
92582W        W60976   9.421  39.795  13.777
92583W        W60977  26.416  37.060  13.958
92584W        W60978  20.652  31.586   1.747
92585W        W60979  20.256   0.343  12.047
92586W        W60980   4.862   3.929   1.723
92587W        W60981  14.654  37.282   2.648
92588W        W60982  30.456  33.203   2.356
92589W        W60983  44.014  19.087  13.979
92590W        W60984  40.957  16.043   1.380
92591W        W60985   7.358  15.155   3.259
92592W        W60986  15.424  33.081   4.300
92593W        W60987  24.952  31.083   0.817
92594W        W60988  37.869   6.683  12.958
92595W        W60989  37.331  19.357  11.208
92596W        W60990   3.676  43.220   1.400
92597W        W60991  33.603  44.276   2.358
92598W        W60992  13.062  23.938   4.643
92599W        W60993  23.732   7.134   2.381
92600W        W60994  36.143  40.397  13.088
92601W        W60995  29.555  31.890  11.145
92602W        W60996  42.819   5.875  10.939
92603W        W60997  12.745  33.939  11.843
92604W        W60998  33.081  17.306  10.725
92605W        W60999  32.835  15.592   3.916
92606W        W61000  18.516  42.558   1.357
92607W        W61001  13.219  37.587   2.698
92608W        W61002  42.043  23.973  12.980
92609W        W61003   6.885   3.632   0.514
92610W        W61004   8.572  35.990  14.996
92611W        W61005  39.078  25.859   2.446
92612W        W61006  40.974  36.379   2.075
92613W        W61007  18.608  21.846   4.130
92614W        W61008  29.675  31.171   0.709
92615W        W61009  44.355  20.925   1.293
92616W        W61010  42.913  44.823   4.325
92617W        W61011  43.334  42.478   4.501
92618W        W61012  27.016  26.593   4.887
92619W        W61013  39.526  33.616   0.839
92620W        W61014  18.778   0.342  10.293
92621W        W61015   2.720   8.677   4.134
92622W        W61016  43.405  35.652   4.545
92623W        W61017   7.746  28.672  12.513
92624W        W61018  35.369  23.960  14.928
92625W        W61019  43.225  21.614   3.729
92626W        W61020  30.474   0.881  12.526
92627W        W61021  37.301  13.773   1.310
92628W        W61022  39.227  26.981  12.837
92629W        W61023  43.674  26.021   2.011
92630W        W61024  44.213  11.794   4.589
92631W        W61025  27.660   5.671  12.129
92632W        W61026  14.954  28.641   3.816
92633W        W61027   0.561  39.058  10.622
92634W        W61028  32.756   0.264  11.243
92635W        W61029  37.454   5.980   3.304
92636W        W61030  37.299   6.173  14.272
92637W        W61031  28.360  20.533   0.031
92638W        W61032   8.201  12.256  11.266
92639W        W61033   2.958  10.371   3.112
92640W        W61034   2.592  29.506   4.643
92641W        W61035   0.386  38.105   1.710
92642W        W61036  31.844   9.100  12.540
92643W        W61037  36.520  35.466   2.809
92644W        W61038  34.543  34.624   0.824
92645W        W61039  34.556  32.924   4.083
92646W        W61040  16.111  39.855   5.037
92647W        W61041   6.586  14.574  14.934
92648W        W61042   8.815   9.092   1.720
92649W        W61043   2.149  13.657   2.252
92650W        W61044  12.656   1.829   0.910
92651W        W61045   2.068  32.662   0.937
92652W        W61046  23.040  33.867   0.531
92653W        W61047  42.990  38.428   0.440
92654W        W61048  37.999  15.337  13.052
92655W        W61049  10.301  19.899  12.826
92656W        W61050  29.367  28.138  12.480
92657W        W61051  31.517  37.689  14.516
92658W        W61052  30.946  22.578   0.002
92659W        W61053  41.949  19.307  14.434
92660W        W61054  13.711  24.126   4.011
92661W        W61055  11.709   4.017   2.998
92662W        W61056  26.566   2.777   4.308
92663W        W61057  29.156  33.088   3.690
92664W        W61058   0.829  36.073  11.627
92665W        W61059  18.833   1.419   1.203
92666W        W61060  10.200  37.087   4.093
92667W        W61061   9.797  31.018   3.686
92668W        W61062  11.856  33.681  14.829
92669W        W61063  42.972   9.224   0.459
92670W        W61064   5.816  38.945   4.607
92671W        W61065  34.810  44.256  14.304
92672W        W61066  35.471  26.255   2.426
92673W        W61067  10.660  34.707   0.762
92674W        W61068  35.383  17.164   4.315
92675W        W61069  39.905  24.581   4.507
92676W        W61070  39.990  37.456   4.552
92677W        W61071   7.064  11.377   0.468
92678W        W61072  41.264   9.703   1.338
92679W        W61073  21.609   3.366   0.480
92680W        W61074   0.829  24.057   1.759
92681W        W61075  24.094   3.048  14.849
92682W        W61076  28.548  38.314   4.226
92683W        W61077  15.370  19.774  13.656
92684W        W61078  26.712  32.938  13.671
92685W        W61079  10.224  14.900   4.527
92686W        W61080  10.574  40.439   2.678
92687W        W61081  38.520  25.244   4.538
92688W        W61082  41.587  44.051  10.717
92689W        W61083  13.788  37.175  12.599
92690W        W61084  42.548  21.621  11.201
92691W        W61085  34.061  16.226  14.887
92692W        W61086  43.419  31.016   2.373
92693W        W61087  41.336   7.334   4.759
92694W        W61088  37.424  18.986   4.461
92695W        W61089  27.945  13.234  13.850
92696W        W61090  22.772   6.974  10.102
92697W        W61091   2.603  26.132   1.880
92698W        W61092   5.726  19.783   1.054
92699W        W61093  27.869   5.796  13.387
92700W        W61094  30.054  19.643   1.668
92701W        W61095  24.634   6.281  13.089
92702W        W61096  10.073  17.134  10.633
92703W        W61097   4.988  24.634   1.356
92704W        W61098   2.631  34.114   2.226
92705W        W61099  22.581  26.088   3.338
92706W        W61100   2.473  19.003   4.209
92707W        W61101   2.847  38.307   0.857
92708W        W61102  24.003  24.134   1.354
92709W        W61103  30.707  14.754   2.726
92710W        W61104  11.609  13.321  14.847
92711W        W61105  30.954  24.297   1.852
92712W        W61106   1.710  12.912  10.134
92713W        W61107   8.432  40.473   0.448
92714W        W61108  15.156   2.742   2.719
92715W        W61109  42.511  22.217   2.805
92716W        W61110  23.102  30.195   0.356
92717W        W61111   6.734   3.168  11.146
92718W        W61112  16.725   1.716   3.849
92719W        W61113  15.754  36.893  11.942
92720W        W61114  39.481  13.227   4.538
92721W        W61115  23.391  11.345  11.147
92722W        W61116   3.817  38.327   1.348
92723W        W61117   7.099  17.979   0.486
92724W        W61118  36.090   1.235  10.783
92725W        W61119  39.077   6.262  11.709
92726W        W61120  41.074  16.661   0.372
92727W        W61121  10.644  35.422  12.138
92728W        W61122  29.944   0.871  10.527
92729W        W61123   4.417   3.801   1.904
92730W        W61124  17.235   9.760  14.315
92731W        W61125   6.391  20.255   0.969
92732W        W61126   3.105   2.368  10.743
92733W        W61127   0.506  36.886   2.134
92734W        W61128  11.461  32.068   0.862
92735W        W61129  30.111  12.939  10.720
92736W        W61130  10.169   6.758  11.955
92737W        W61131  10.816  26.199   9.949
92738W        W61132  23.548  35.479  14.046
92739W        W61133  12.990   7.660  13.210
92740W        W61134  14.298   2.289   0.996
92741W        W61135  21.618  15.806   3.301
92742W        W61136   2.052  23.017  13.272
92743W        W61137  34.429  42.435  11.567
92744W        W61138   6.210  44.766  13.473
92745W        W61139  31.114  25.932   3.022
92746W        W61140   4.503   7.113  12.206
92747W        W61141  33.255   1.413  14.334
92748W        W61142  29.977  39.490   0.944
92749W        W61143   6.636  35.721  13.129
92750W        W61144  36.995   0.810   0.865
92751W        W61145  38.041  41.482   4.554
92752W        W61146  10.095   3.550  14.333
92753W        W61147  31.927  40.259   0.438
92754W        W61148  17.949   7.967  14.746
92755W        W61149  33.872  24.197  13.622
92756W        W61150  43.722  20.147  11.631
92757W        W61151   7.830   3.346   2.807
92758W        W61152  20.495  37.749   4.135
92759W        W61153  18.344  20.591  10.679
92760W        W61154  24.962  27.171   1.524
92761W        W61155  44.166  17.846  11.154
92762W        W61156  25.091  18.387   4.089
92763W        W61157  14.711   8.725   3.296
92764W        W61158  27.789  25.085  11.517
92765W        W61159  44.805  16.515   2.210
92766W        W61160  23.170  10.711   1.931
92767W        W61161  12.461  18.589   2.371
92768W        W61162  23.574  34.002  12.439
92769W        W61163  19.218  19.856  13.503
92770W        W61164   8.280  15.588   4.608
92771W        W61165  40.777  41.726   3.730
92772W        W61166  27.428  25.518  11.606
92773W        W61167  28.194  36.585   1.674
92774W        W61168  39.558  36.998   2.846
92775W        W61169   5.228  41.947  12.171
92776W        W61170  15.795  11.569  12.433
92777W        W61171   9.706  36.106   2.378
92778W        W61172  44.952  37.064   2.985
92779W        W61173   1.832  14.335  13.231
92780W        W61174  30.438  13.330  10.894
92781W        W61175  10.879  19.734   0.293
92782W        W61176  24.067   1.037  14.943
92783W        W61177  22.024  43.275  12.686
92784W        W61178  42.519  18.867   0.368
92785W        W61179  12.015  21.903  12.373
92786W        W61180  38.891  20.831   9.795
92787W        W61181  41.524  25.938  13.828
92788W        W61182  44.955   1.551  10.504
92789W        W61183   4.473  36.550  14.450
92790W        W61184  13.230  41.554   0.800
92791W        W61185  43.830  33.673   1.457
92792W        W61186  15.444  36.899  10.178
92793W        W61187   0.720  22.469  14.846
92794W        W61188  15.053   8.629   1.883
92795W        W61189  35.014  34.517  14.378
92796W        W61190  36.809   5.209  14.991
92797W        W61191   8.595  17.684   2.669
92798W        W61192  34.536  41.077  14.686
92799W        W61193  32.019  29.382   0.143
92800W        W61194   4.294  11.770  10.698
92801W        W61195  41.842  17.844   1.860
92802W        W61196  21.610  35.893   0.112
92803W        W61197  43.246   9.781  10.578
92804W        W61198   1.934  10.121   2.683
92805W        W61199   9.779  40.510   2.403
92806W        W61200  38.909  37.713   0.433
92807W        W61201  20.248  39.293   0.907
92808W        W61202  35.126  16.544   2.288
92809W        W61203   9.482  27.881   1.511
92810W        W61204  12.343  22.404  12.444
92811W        W61205  38.102  23.143  13.840
92812W        W61206  29.964  12.946   2.338
92813W        W61207  41.950   7.203  14.028
92814W        W61208  14.617   8.412   4.555
92815W        W61209  23.600  38.562  12.855
92816W        W61210  15.808  31.622   2.448
92817W        W61211  44.099   8.864   3.305
92818W        W61212  15.070   8.570  14.028
92819W        W61213  19.862   5.205  14.117
92820W        W61214  18.419  44.382   0.752
92821W        W61215  17.748  29.873  13.594
92822W        W61216  27.210  41.672   5.513
92823W        W61217  20.740  14.711  11.002
92824W        W61218  29.488  29.575   3.232
92825W        W61219  41.727  37.489   3.084
92826W        W61220  21.316  36.151  13.465
92827W        W61221  20.808  17.264  13.831
92828W        W61222  20.093  33.993  14.725
92829W        W61223   3.190  15.797  13.541
92830W        W61224  20.613  16.683  12.503
92831W        W61225  30.708  11.583  12.432
92832W        W61226   9.187  32.817  11.947
92833W        W61227   9.832  23.741   3.666
92834W        W61228  43.276  12.382  13.113
92835W        W61229  23.357   9.726   2.721
92836W        W61230   9.366  33.030  12.381
92837W        W61231  36.127  32.911   1.389
92838W        W61232  23.156  40.466  10.785
92839W        W61233  22.988  14.869   2.895
92840W        W61234  22.177  13.879  14.891
92841W        W61235  25.236  38.230  11.063
92842W        W61236  25.939  33.423  13.382
92843W        W61237  29.064  33.994  13.453
92844W        W61238  11.482  18.604   1.460
92845W        W61239  30.383  18.186   1.296
92846W        W61240  43.882  16.448   2.204
92847W        W61241   2.925  12.515   3.245
92848W        W61242  33.798   0.386   1.138
92849W        W61243  11.544   3.477   0.637
92850W        W61244  22.270   1.793  12.935
92851W        W61245  34.004  31.805  10.461
92852W        W61246  18.078  25.373   2.195
92853W        W61247  25.035  24.240   3.849
92854W        W61248  14.354  16.557  14.999
92855W        W61249  13.693  32.993   4.806
92856W        W61250  29.740   0.420  13.042
92857W        W61251  12.086  26.073  13.644
92858W        W61252  31.531  27.515   1.499
92859W        W61253  35.975  38.349  11.308
92860W        W61254   6.904  24.225  11.669
92861W        W61255  16.173  27.078   0.413
92862W        W61256   7.132  32.580  14.471
92863W        W61257  10.369  36.066  14.084
92864W        W61258  27.930  18.594   0.569
92865W        W61259  43.388  25.273  12.027
92866W        W61260  39.039  31.055  10.721
92867W        W61261  14.337  18.026   2.131
92868W        W61262  22.103  20.214  10.738
92869W        W61263  25.429   2.689  13.402
92870W        W61264  23.918  37.998   0.363
92871W        W61265  16.743   6.238  12.520
92872W        W61266  17.695  38.090   0.853
92873W        W61267  14.143  13.853  11.471
92874W        W61268  29.108   9.667   4.113
92875W        W61269   1.397  28.440   2.710
92876W        W61270   8.419  30.190   0.001
92877W        W61271  24.570  19.756  12.530
92878W        W61272  30.210  17.551   4.152
92879W        W61273   5.341   3.443  14.009
92880W        W61274   0.364  38.907   3.420
92881W        W61275  33.415   7.366   3.072
92882W        W61276  30.099  40.716  13.501
92883W        W61277  13.327  26.989  10.654
92884W        W61278   9.263  41.345  10.674
92885W        W61279  21.582  44.450   3.278
92886W        W61280  44.903  14.409   3.992
92887W        W61281  10.177  29.018  10.791
92888W        W61282  39.986  24.835  12.480
92889W        W61283  34.063  35.469   0.819
92890W        W61284  24.997  44.814  12.492
92891W        W61285  42.623  12.188   4.531
92892W        W61286   8.294  33.441  13.829
92893W        W61287  27.517  42.672  14.779
92894W        W61288   2.927   6.705  12.309
92895W        W61289   9.567  39.945   4.140
92896W        W61290  34.034   4.897  14.977
92897W        W61291  32.419   5.178   2.662
92898W        W61292  19.748  27.514  14.790
92899W        W61293  41.771  17.339   4.142
92900W        W61294   3.034  27.143  14.688
92901W        W61295  19.093  35.194  12.004
92902W        W61296  26.009  21.515   2.601
92903W        W61297   9.375  12.816  13.390
92904W        W61298  27.495   9.190   4.342
92905W        W61299  39.075   5.871   2.726
92906W        W61300   4.156   3.151   5.027
92907W        W61301  16.303  11.714   1.839
92908W        W61302  13.680  11.412  13.471
92909W        W61303   4.279   1.880  13.070
92910W        W61304  16.704  39.728   1.227
92911W        W61305  42.347  38.511   2.914
92912W        W61306  22.865  31.255   0.677
92913W        W61307  10.850  17.419  14.057
92914W        W61308  20.901  34.924  12.870
92915W        W61309  26.442  33.894  12.345
92916W        W61310   1.171  18.679   0.876
92917W        W61311  28.473  19.047   3.814
92918W        W61312  28.649  28.519  14.399
92919W        W61313  23.673  21.170   3.036
92920W        W61314  28.915  25.389  11.124
92921W        W61315  21.034  33.819  10.608
92922W        W61316  26.755  34.168  11.991
92923W        W61317  15.718  25.911   3.175
92924W        W61318  37.038  39.006  10.678
92925W        W61319  25.523  19.998  12.538
92926W        W61320  40.944  13.662  14.034
92927W        W61321  14.816   7.889   3.872
92928W        W61322  44.436   8.445   3.231
92929W        W61323  31.309  42.407  12.434
92930W        W61324  36.054   3.874   2.035
92931W        W61325  30.663  27.061  12.899
92932W        W61326  39.068  40.687   4.943
92933W        W61327  16.579  12.826  13.489
92934W        W61328  35.038  43.438   4.484
92935W        W61329  38.824  36.040  10.544
92936W        W61330  39.283  12.396  11.306
92937W        W61331  15.036  38.308   9.773
92938W        W61332   6.761  26.572   5.435
92939W        W61333  37.658   3.248  14.609
92940W        W61334   0.190   7.924  13.081
92941W        W61335  37.826  34.890  11.996
92942W        W61336  14.602  35.263   1.747
92943W        W61337  31.243  33.384  11.196
92944W        W61338   7.648   3.690  12.267
92945W        W61339  28.400   3.717   4.577
92946W        W61340   2.795   7.800   4.269
92947W        W61341  43.163   6.434  10.226
92948W        W61342  34.518  21.270  10.435
92949W        W61343  28.162  38.448  12.612
92950W        W61344  25.034  24.128  12.117
92951W        W61345  15.689  37.287   4.211
92952W        W61346  35.557   3.399  10.557
92953W        W61347   7.600  40.950   2.251
92954W        W61348  12.207  17.810  12.726
92955W        W61349   1.797   4.725   3.886
92956W        W61350  34.004  32.038   3.898
92957W        W61351  13.530  30.125   1.327
92958W        W61352  44.848  22.083  14.303
92959W        W61353  33.674  33.473   3.726
92960W        W61354  33.024   5.302  12.080
92961W        W61355   4.341   3.022   1.433
92962W        W61356  32.718  16.856   4.320
92963W        W61357  29.662  11.103  10.581
92964W        W61358  15.538   6.705  11.667
92965W        W61359  29.461   0.301   4.060
92966W        W61360  12.214  37.931   4.296
92967W        W61361  14.872   9.220  14.781
92968W        W61362  18.069   0.432  13.791
92969W        W61363  10.690   8.344  14.781
92970W        W61364  36.121   0.513   2.741
92971W        W61365  39.933  43.389  13.977
92972W        W61366  21.532  35.431   4.693
92973W        W61367   3.326  11.624  13.436
92974W        W61368  40.201  25.900  13.507
92975W        W61369  38.815  44.505   0.275
92976W        W61370  23.431  12.321  11.468
92977W        W61371  35.069  36.815  13.872
92978W        W61372  20.302  42.431  12.131
92979W        W61373  27.916  31.901   0.327
92980W        W61374  27.594   7.811  12.890
92981W        W61375  43.484   5.653  13.639
92982W        W61376   5.464  42.972  11.154
92983W        W61377  31.617  35.960   0.512
92984W        W61378  39.376  41.210   2.736
92985W        W61379  44.528  24.688  13.563
92986W        W61380  40.516  15.451   0.749
92987W        W61381   7.136  33.948   2.983
92988W        W61382   9.673  35.952  13.379
92989W        W61383  17.832   9.903   0.556
92990W        W61384  33.141  34.092   4.142
92991W        W61385  12.580  14.363   1.717
92992W        W61386   0.524  20.676   3.617
92993W        W61387   0.858  30.870   0.093
92994W        W61388   7.434  39.565  10.693
92995W        W61389  26.603  40.056  12.020
92996W        W61390  17.983  39.980  12.403
92997W        W61391  31.571  14.624  12.480
92998W        W61392  33.436  12.295  11.147
92999W        W61393  20.223  17.110  14.495
93000W        W61394  33.666  28.664   2.557
93001W        W61395  18.904  37.709   5.010
93002W        W61396   7.475   2.264   1.755
93003W        W61397  20.628   7.324   0.390
93004W        W61398  30.541  28.224   4.629
93005W        W61399   9.550  27.570   0.237
93006W        W61400  17.508  35.082  12.984
93007W        W61401   6.316  31.504   3.041
93008W        W61402  33.159  38.044  13.503
93009W        W61403  19.340   7.449  13.588
93010W        W61404  11.319  20.001   0.291
93011W        W61405  43.320   6.316  11.491
93012W        W61406  35.159  12.554   3.825
93013W        W61407  15.279   9.470  10.022
93014W        W61408  10.711  39.857   0.720
93015W        W61409  31.637  28.625  11.595
93016W        W61410  25.711   5.917  12.870
93017W        W61411  27.128  23.001   0.026
93018W        W61412  10.805  40.952  13.555
93019W        W61413  39.392   8.107   3.406
93020W        W61414  11.899   3.605  14.944
93021W        W61415  44.004  20.688  12.449
93022W        W61416   2.311  22.804  12.879
93023W        W61417  18.441  13.823   5.073
93024W        W61418  10.583  16.577   3.067
93025W        W61419   6.195   5.861  14.721
93026W        W61420  34.493  40.860   2.757
93027W        W61421   4.860  35.620  12.274
93028W        W61422  21.214  43.054  12.095
93029W        W61423  44.777  39.054  10.194
93030W        W61424  20.679  18.240  11.630
93031W        W61425   0.181  28.995  11.588
93032W        W61426  44.967  17.235   2.879
93033W        W61427  25.546  16.661  14.725
93034W        W61428   7.165   3.966   2.544
93035W        W61429  27.505  21.121   3.691
93036W        W61430  16.034  39.378  13.524
93037W        W61431  16.039   4.151  12.440
93038W        W61432  34.391  39.329  11.023
93039W        W61433  31.825  14.187  12.453
93040W        W61434  17.132  34.118  11.972
93041W        W61435   4.749  22.054  13.975
93042W        W61436  35.942  15.585  11.639
93043W        W61437  23.383  26.176  13.299
93044W        W61438   5.598  27.666  14.080
93045W        W61439  15.252   6.826  14.444
93046W        W61440  32.172  39.553  13.394
93047W        W61441  26.096   0.086  11.251
93048W        W61442  30.722  26.014   2.063
93049W        W61443  26.473   4.662  14.897
93050W        W61444  23.276  22.849   3.584
93051W        W61445  26.048   8.215  11.234
93052W        W61446  13.880   6.740   2.880
93053W        W61447  44.909  30.168   1.255
93054W        W61448  11.240  13.985   1.438
93055W        W61449  18.526   0.234  13.778
93056W        W61450   7.571  30.010  13.530
93057W        W61451   9.348  14.479  11.659
93058W        W61452  19.139  26.021   4.969
93059W        W61453  19.385  29.561  11.801
93060W        W61454  43.357  14.747  12.736
93061W        W61455   1.286  30.444  11.937
93062W        W61456   7.229   1.701  13.796
93063W        W61457  33.949  34.364  14.115
93064W        W61458  17.030  40.810   3.253
93065W        W61459   8.277  15.762  10.501
93066W        W61460  28.088  11.658   4.062
93067W        W61461  12.562  44.047   0.742
93068W        W61462  35.304  24.501  12.009
93069W        W61463  27.018  10.030   4.122
93070W        W61464   0.516  24.514  11.523
93071W        W61465  19.517  13.786   2.650
93072W        W61466  42.069  23.009   3.114
93073W        W61467  36.508  18.152  10.064
93074W        W61468   9.271  27.052  10.572
93075W        W61469  23.606   0.357  12.443
93076W        W61470  15.359  31.466   2.671
93077W        W61471  34.212   4.466   4.525
93078W        W61472  37.513   7.303   2.473
93079W        W61473  10.202  14.800   5.040
93080W        W61474   6.073  36.264  13.799
93081W        W61475  40.308  40.922  14.930
93082W        W61476  16.165  17.552   4.039
93083W        W61477  44.267  42.505   2.256
93084W        W61478  16.128  29.185  13.295
93085W        W61479  17.107   0.431  12.948
93086W        W61480  28.536  41.955  11.109
93087W        W61481  10.312  42.112   2.390
93088W        W61482  36.814  38.897   0.402
93089W        W61483  15.539  16.535   3.077
93090W        W61484  12.283  39.307   1.279
93091W        W61485  42.449  17.629   1.743
93092W        W61486  33.341  24.523  14.602
93093W        W61487  30.572  32.353  13.416
93094W        W61488  32.988  40.753  11.675
93095W        W61489  41.601  27.738  14.603
93096W        W61490  15.219  14.496   1.107
93097W        W61491  18.780  13.008   3.209
93098W        W61492  26.473   5.408   3.660
93099W        W61493  17.620  20.780   2.282
93100W        W61494   3.841  18.654   0.452
93101W        W61495  35.821  12.246   4.552
93102W        W61496  24.792  41.798   1.959
93103W        W61497   2.284  23.589   4.790
93104W        W61498  25.538  32.142  10.186
93105W        W61499  35.388  12.711   3.384
93106W        W61500  33.542  33.579  10.488
93107W        W61501   0.226  44.262  11.008
93108W        W61502  31.191   4.687   2.199
93109W        W61503  34.155  32.914   0.323
93110W        W61504  25.028  43.774  12.426
93111W        W61505  16.860  38.009   1.183
93112W        W61506   1.907  24.283   2.254
93113W        W61507  28.046   1.125   0.399
93114W        W61508  28.970  33.492  13.539
93115W        W61509   5.163  21.020  13.408
93116W        W61510  36.363  41.848  14.688
93117W        W61511  34.143  41.574   2.373
93118W        W61512  15.022  39.408   5.086
93119W        W61513  39.765  44.281   3.584
93120W        W61514  17.709  32.162   2.643
93121W        W61515  40.616  18.905  12.096
93122W        W61516  12.183  42.505   1.124
93123W        W61517  16.551  41.968  11.299
93124W        W61518  37.503  22.507  13.412
93125W        W61519  18.069  31.254   2.339
93126W        W61520  32.389   3.848  14.536
93127W        W61521  20.568  32.311  13.526
93128W        W61522  30.034  15.375   1.737
93129W        W61523   8.572  23.554   2.094
93130W        W61524  36.494  24.984   4.632
93131W        W61525  30.547  25.963  11.873
93132W        W61526  44.909  13.962   4.792
93133W        W61527  17.269  18.885   2.897
93134W        W61528   0.692  22.090   2.596
93135W        W61529   7.907  41.144  11.501
93136W        W61530  38.489   3.499   0.723
93137W        W61531   3.894  39.339   1.486
93138W        W61532  38.640  12.097   2.507
93139W        W61533  27.655  25.045  13.898
93140W        W61534  10.260  38.791  13.438
93141W        W61535   2.959  41.615  11.017
93142W        W61536  32.565   7.737  11.982
93143W        W61537  30.945  23.785   1.744
93144W        W61538  23.640  23.983  13.216
93145W        W61539  15.304  33.072   1.334
93146W        W61540  20.456   0.254  10.773
93147W        W61541   5.688  29.262  14.843
93148W        W61542  30.246  41.753  12.427
93149W        W61543  30.674   5.602  14.724
93150W        W61544  12.370  23.222   2.964
93151W        W61545  14.138  32.642   1.639
93152W        W61546  39.051  15.123   0.576
93153W        W61547  17.319   0.822  12.531
93154W        W61548   3.373  14.842   2.358
93155W        W61549  20.123  37.792   1.883
93156W        W61550  36.096  37.945  10.520
93157W        W61551  10.238  28.481  10.824
93158W        W61552  32.162  22.059   3.348
93159W        W61553  14.510  41.832   2.705
93160W        W61554  11.165  31.135   3.842
93161W        W61555  14.056  30.047  11.404
93162W        W61556  20.081  40.771  14.815
93163W        W61557  10.313   7.089   1.775
93164W        W61558  10.011  40.917   1.817
93165W        W61559  12.136  40.643   2.197
93166W        W61560  43.828  21.009  14.648
93167W        W61561   0.109  16.641   1.788
93168W        W61562   3.303  16.315  12.395
93169W        W61563  27.499  10.182   0.293
93170W        W61564  19.932  16.525  12.691
93171W        W61565  28.825  19.727  14.871
93172W        W61566  21.776  41.946   2.897
93173W        W61567  35.487  14.073   1.628
93174W        W61568  20.255  27.731  12.607
93175W        W61569  15.038  23.756  14.656
93176W        W61570  28.982  17.530   3.565
93177W        W61571  25.986  20.264  12.478
93178W        W61572  25.411   7.478   4.774
93179W        W61573  44.197  15.522   2.736
93180W        W61574  37.006  32.208  12.861
93181W        W61575   4.955  14.917  14.759
93182W        W61576  40.353   5.693   2.346
93183W        W61577  23.550  23.066   0.197
93184W        W61578  44.035  20.682   4.677
93185W        W61579  41.238  32.730  12.772
93186W        W61580   3.782  39.818  10.652
93187W        W61581   8.856   3.176  10.218
93188W        W61582  22.139  14.569   4.096
93189W        W61583  36.527  33.637  12.165
93190W        W61584  13.321   8.231  12.018
93191W        W61585  39.249   2.886   1.789
93192W        W61586  22.550  29.915   2.462
93193W        W61587  17.025  10.932   1.209
93194W        W61588   1.947  40.134  11.936
93195W        W61589  14.695  32.658  13.410
93196W        W61590  18.796  24.307   1.483
93197W        W61591   7.695  11.958   1.805
93198W        W61592  22.459  26.526  10.611
93199W        W61593  15.628  39.027  10.878
93200W        W61594  23.942  12.657  11.649
93201W        W61595  21.528  29.492  10.265
93202W        W61596   7.580  25.294   3.713
93203W        W61597  41.063  19.538  14.867
93204W        W61598  31.016  43.241   2.387
93205W        W61599  39.288  11.608   1.874
93206W        W61600  33.536  42.876  12.580
93207W        W61601  13.388  42.507  13.386
93208W        W61602  36.629  35.131   2.435
93209W        W61603  20.833  32.059  10.691
93210W        W61604   8.151  38.149   1.275
93211W        W61605  34.615  42.366   2.334
93212W        W61606  28.464  25.492   3.267
93213W        W61607  11.222  35.668  13.528
93214W        W61608   6.342   1.695   9.794
93215W        W61609  23.126   5.930  10.716
93216W        W61610  24.324  35.945  10.864
93217W        W61611  42.456   3.509  10.992
93218W        W61612  32.322   1.909  12.144
93219W        W61613  25.136  35.149  11.609
93220W        W61614  13.203  23.561  13.800
93221W        W61615  24.593   3.489   0.993
93222W        W61616   4.384  13.869  14.043
93223W        W61617  15.622  18.239   2.775
93224W        W61618  40.094   7.463  13.363
93225W        W61619  13.756  15.411   3.632
93226W        W61620  35.575  24.444   1.740
93227W        W61621  29.006  31.995  11.098
93228W        W61622   1.810   0.946  13.542
93229W        W61623  30.795  26.293  11.525
93230W        W61624   6.915  11.560   4.229
93231W        W61625  36.651  13.914  13.888
93232W        W61626  41.549  40.934   4.272
93233W        W61627  38.299  43.132   1.013
93234W        W61628   8.632  33.823   4.469
93235W        W61629  20.059  28.085   1.827
93236W        W61630   0.571  33.530  12.336
93237W        W61631  25.481  23.918  13.487
93238W        W61632   7.698  36.509  13.058
93239W        W61633   9.352   3.425   1.918
93240W        W61634  37.306  11.725  13.884
93241W        W61635   7.286  22.912   4.911
93242W        W61636  18.937  18.864   1.611
93243W        W61637   0.055  19.624  13.401
93244W        W61638  20.734   9.605  12.098
93245W        W61639  38.856  31.496  11.278
93246W        W61640  32.534  39.511   4.036
93247W        W61641  30.079  37.986  14.566
93248W        W61642  12.990  26.636  11.534
93249W        W61643  40.269  13.262   0.467
93250W        W61644  13.194  16.674   1.531
93251W        W61645  34.476   4.701   1.870
93252W        W61646  16.052   3.597   3.360
93253W        W61647  12.311  33.978   4.203
93254W        W61648  31.048  28.094   3.829
93255W        W61649   5.967   7.800  12.422
93256W        W61650   2.857  20.356   3.140
93257W        W61651  13.368   4.016  14.039
93258W        W61652  36.599  37.665   1.397
93259W        W61653   3.617  10.960  12.542
93260W        W61654  15.390  11.427  13.372
93261W        W61655   5.351  12.165   0.958
93262W        W61656  33.650  20.159   0.008
93263W        W61657   6.639  23.021  13.822
93264W        W61658  27.192   4.257  13.104
93265W        W61659  33.434  30.655   2.397
93266W        W61660  37.974   0.326   1.990
93267W        W61661  27.466   3.781   1.452
93268W        W61662  35.170   3.971  13.430
93269W        W61663   4.357  12.600   9.983
93270W        W61664  18.513  44.440  13.017
93271W        W61665  10.122   5.071   1.108
93272W        W61666  33.642  22.293   4.256
93273W        W61667   3.484  37.979   0.736
93274W        W61668  39.906   3.218  12.087
93275W        W61669  34.362  16.241  13.497
93276W        W61670  33.498  23.217   1.385
93277W        W61671  24.662  28.455   4.351
93278W        W61672  28.225  14.180  12.844
93279W        W61673  11.172  44.396   4.701
93280W        W61674  23.052   2.457   1.934
93281W        W61675  34.903  15.045  10.555
93282W        W61676  40.985  12.357  12.346
93283W        W61677  42.310  33.640   2.611
93284W        W61678  30.375  16.295  13.036
93285W        W61679  34.902   4.255  13.788
93286W        W61680   4.866  31.323  12.643
93287W        W61681  42.894  26.570   0.003
93288W        W61682   0.881  43.446  12.446
93289W        W61683  30.625  15.841  11.961
93290W        W61684  20.973  33.347   0.442
93291W        W61685  41.365  12.065   1.308
93292W        W61686  35.693   5.445  13.346
93293W        W61687  40.565   2.454  12.014
93294W        W61688  22.608  17.692   4.756
93295W        W61689  44.562  19.759   0.800
93296W        W61690  26.014  10.718   0.338
93297W        W61691   6.930  13.047   4.205
93298W        W61692   2.029   9.159  14.259
93299W        W61693  18.347  12.615  13.880
93300W        W61694  27.429  37.084   2.668
93301W        W61695  25.194  20.787  10.743
93302W        W61696   4.939   2.689  13.847
93303W        W61697  30.361  35.055   4.306
93304W        W61698   1.369  12.382   2.498
93305W        W61699  35.939  17.279   5.376
93306W        W61700  21.085  20.805  14.968
93307W        W61701  37.059  23.810   4.217
93308W        W61702  22.037  31.727  12.846
93309W        W61703   0.013   3.270  12.285
93310W        W61704  44.836  35.789  13.427
93311W        W61705   5.991  22.472   3.236
93312W        W61706   3.216  31.352   2.363
93313W        W61707  14.108  17.496  11.469
93314W        W61708  36.476  10.877  12.422
93315W        W61709  36.287   5.771  12.537
93316W        W61710  13.183  33.519   0.007
93317W        W61711  16.734  17.231   2.239
93318W        W61712  12.377  15.290   0.474
93319W        W61713  22.711  37.391   2.012
93320W        W61714   3.488  13.312   2.154
93321W        W61715   3.028   3.424  10.339
93322W        W61716  30.512  32.416   0.235
93323W        W61717  41.284  39.191   0.372
93324W        W61718  34.238  44.531   3.439
93325W        W61719   0.879   5.993  10.929
93326W        W61720  19.252   3.510  11.510
93327W        W61721  29.430  40.838  10.680
93328W        W61722  37.735  28.470   1.186
93329W        W61723  14.212  41.345  13.615
93330W        W61724  17.130  21.875  12.407
93331W        W61725  41.356  17.716   0.772
93332W        W61726  11.418  24.745  11.593
93333W        W61727  16.389  36.091  11.912
93334W        W61728   9.949  24.617   3.832
93335W        W61729  32.960   1.472  13.885
93336W        W61730  19.561  22.611  11.668
93337W        W61731   7.176  32.481   2.863
93338W        W61732  25.208  43.080   1.867
93339W        W61733  38.270  10.196   0.539
93340W        W61734   5.172  20.985   1.762
93341W        W61735  20.883  25.273   0.915
93342W        W61736  33.858  28.518   1.201
93343W        W61737  33.865  32.822  14.893
93344W        W61738  21.236  35.172  14.481
93345W        W61739   7.747   9.061  12.101
93346W        W61740  14.076  29.460  13.616
93347W        W61741  44.935  35.422   0.080
93348W        W61742   5.141  34.502   3.686
93349W        W61743  19.034  34.485  12.495
93350W        W61744  38.076  17.802   4.959
93351W        W61745  41.010  17.706   4.444
93352W        W61746  32.463  30.907   0.767
93353W        W61747  25.782  33.999  10.876
93354W        W61748   4.739  38.614   0.735
93355W        W61749  26.177  33.682  11.048
93356W        W61750  31.001  36.962   2.096
93357W        W61751   8.858  30.098   3.790
93358W        W61752  16.285  34.844   4.227
93359W        W61753  22.639  22.455  13.500
93360W        W61754  44.461  32.427  12.905
93361W        W61755  24.679  30.086  14.109
93362W        W61756   9.688  24.832   4.777
93363W        W61757  34.847  29.513   0.730
93364W        W61758  37.540  17.248  14.258
93365W        W61759   9.156  20.363   2.357
93366W        W61760  44.296  22.259  10.910
93367W        W61761  37.538  37.348  11.201
93368W        W61762   2.545  36.419  12.042
93369W        W61763  30.102  23.719  14.958
93370W        W61764  35.844   0.447   0.283
93371W        W61765  17.328  39.533  14.851
93372W        W61766  24.136  24.047  13.090
93373W        W61767  27.753  42.212   2.268
93374W        W61768  41.165  14.960  12.912
93375W        W61769  25.163  29.000   4.551
93376W        W61770   5.318  16.565   2.054
93377W        W61771  36.998  30.454  14.013
93378W        W61772   0.818  36.372   1.361
93379W        W61773  28.507  27.438   2.191
93380W        W61774  14.202  39.821  14.289
93381W        W61775  34.930   5.796   1.934
93382W        W61776  13.295  28.577   1.447
93383W        W61777  32.114   8.694  12.398
93384W        W61778  29.692  39.324   3.725
93385W        W61779  10.838  26.015   2.700
93386W        W61780  11.988  33.112   3.809
93387W        W61781  35.590  30.880  13.526
93388W        W61782  12.934  33.190  11.625
93389W        W61783  34.539  28.860  14.366
93390W        W61784   4.185  18.979  12.387
93391W        W61785   9.216  30.587  13.188
93392W        W61786  31.283  10.257   4.835
93393W        W61787  15.529  29.023  14.337
93394W        W61788  17.529  22.233   2.134
93395W        W61789   2.975  37.775   4.117
93396W        W61790  25.343  31.601   3.123
93397W        W61791  34.493  29.123  13.892
93398W        W61792  38.739  20.433   0.526
93399W        W61793   4.842  35.459  10.216
93400W        W61794  35.172   9.793  13.437
93401W        W61795  41.304   3.378  13.493
93402W        W61796  35.230  25.933  11.232
93403W        W61797  23.011  28.418  14.340
93404W        W61798  25.006  30.377   4.939
93405W        W61799  16.862   2.219   4.600
93406W        W61800  41.484  40.211   1.756
93407W        W61801  15.678  40.108  13.223
93408W        W61802   3.255  25.565   3.325
93409W        W61803  26.729   0.131  10.658
93410W        W61804   3.994  18.884  10.703
93411W        W61805   9.168  28.652   1.844
93412W        W61806  14.558  30.762   5.095
93413W        W61807  41.346   6.707  13.302
93414W        W61808  12.572  30.595  11.015
93415W        W61809  43.783  12.618  10.766
93416W        W61810  23.924  44.105   2.116
93417W        W61811  18.638  22.150  11.643
93418W        W61812   2.864  11.260  11.195
93419W        W61813  11.749  32.660  12.896
93420W        W61814   9.081   7.222  13.387
93421W        W61815  42.890  32.645   4.590
93422W        W61816  42.324  26.956  13.976
93423W        W61817   9.364  43.166  14.388
93424W        W61818   6.198  16.953  11.562
93425W        W61819  44.472   2.458   3.654
93426W        W61820  41.950  16.482  12.383
93427W        W61821  31.623  10.209   1.718
93428W        W61822  22.695  24.749  12.456
93429W        W61823  23.944  40.452  12.064
93430W        W61824  17.062  18.074   2.600
93431W        W61825  24.221   8.870   9.650
93432W        W61826   4.761  38.560   2.910
93433W        W61827   8.294  30.590   3.063
93434W        W61828  11.537  21.143   4.626
93435W        W61829  39.519  20.837   1.664
93436W        W61830  20.863  18.276   4.519
93437W        W61831   9.749   8.880   1.529
93438W        W61832  12.845   2.835  12.773
93439W        W61833   8.925  30.374  10.586
93440W        W61834  12.993  25.449   3.028
93441W        W61835  19.115  33.244  13.609
93442W        W61836  14.607  32.144  13.357
93443W        W61837  22.250  24.896   0.293
93444W        W61838   8.750  20.052   4.446
93445W        W61839  38.602  20.054  12.230
93446W        W61840  38.565  12.230  12.067
93447W        W61841  10.347  43.253  14.797
93448W        W61842   4.926   5.273  12.044
93449W        W61843   5.184  20.853  12.898
93450W        W61844  15.608  32.085  12.962
93451W        W61845  28.066  39.843  12.489
93452W        W61846  20.522  41.372   0.529
93453W        W61847  17.986  14.238   3.187
93454W        W61848  14.756  29.453  14.003
93455W        W61849  16.835   3.248  13.904
93456W        W61850  18.712  13.695  10.880
93457W        W61851   1.706  28.470   3.816
93458W        W61852  36.434   6.346   4.420
93459W        W61853  23.597   8.739  14.800
93460W        W61854  22.962  23.601   1.881
93461W        W61855  40.205  30.580   2.639
93462W        W61856   0.489  31.134   3.275
93463W        W61857  28.679   4.941   4.143
93464W        W61858  18.727  29.188   3.522
93465W        W61859   2.565  22.141   3.687
93466W        W61860  34.123  25.933  12.038
93467W        W61861  38.400  17.435  14.680
93468W        W61862  30.596  33.118   0.839
93469W        W61863  24.136  33.717   3.127
93470W        W61864  43.939  11.139  11.105
93471W        W61865  25.532  40.979  14.824
93472W        W61866  34.091  11.782  12.658
93473W        W61867  40.114  29.679   2.579
93474W        W61868  11.167  14.184   4.309
93475W        W61869   3.695  35.473  12.964
93476W        W61870  20.387  42.804   2.823
93477W        W61871  34.017  15.020   2.367
93478W        W61872  42.589  40.851   0.528
93479W        W61873   9.450   1.384  12.935
93480W        W61874   6.113  21.199  13.335
93481W        W61875  10.233   6.573   1.744
93482W        W61876  18.322  35.884  13.352
93483W        W61877   5.852  25.589  13.514
93484W        W61878  19.498  10.436   4.709
93485W        W61879   1.063   9.169  11.629
93486W        W61880  34.089  44.913   0.469
93487W        W61881  44.499  32.755  14.079
93488W        W61882  25.667  23.086  14.987
93489W        W61883  11.460  21.730  14.247
93490W        W61884  31.942  28.260   1.165
93491W        W61885   6.870  19.002  13.139
93492W        W61886  23.615  14.795   4.090
93493W        W61887  32.045  25.610  13.889
93494W        W61888  15.187   1.312  14.778
93495W        W61889  14.796  34.662   4.506
93496W        W61890  40.909   0.054  11.050
93497W        W61891  40.985  21.986   2.629
93498W        W61892  11.209  28.005   0.805
93499W        W61893  32.204  12.706  12.962
93500W        W61894  17.251  10.665   3.249
93501W        W61895  32.080  41.396   1.295
93502W        W61896  39.285  33.087  14.921
93503W        W61897  19.192  17.388  11.058
93504W        W61898  43.814  41.058  13.489
93505W        W61899  12.381  23.613  13.038
93506W        W61900  17.971  14.132  11.714
93507W        W61901  12.621  20.184   3.153
93508W        W61902  33.977  18.742   2.428
93509W        W61903   0.138   5.022  13.032
93510W        W61904  38.276   2.621  11.220
93511W        W61905  42.052  17.537  14.403
93512W        W61906  31.927   8.246   2.252
93513W        W61907  14.248  41.032   3.793
93514W        W61908  41.239  34.406  13.107
93515W        W61909  13.735  43.848  10.993
93516W        W61910  17.670   5.650   2.766
93517W        W61911  14.997  43.221   4.276
93518W        W61912   3.767  20.282   3.143
93519W        W61913   8.312   5.483  13.894
93520W        W61914  19.204  10.635  13.483
93521W        W61915   9.896  17.335   2.815
93522W        W61916  28.065  15.193  13.081
93523W        W61917   5.473  13.902  11.575
93524W        W61918  27.162  33.071   3.045
93525W        W61919  39.269  22.797  12.450
93526W        W61920  27.350   1.222   4.099
93527W        W61921   3.255  11.183   1.074
93528W        W61922  21.900  18.881   3.675
93529W        W61923  22.644  14.133  13.114
93530W        W61924   3.458  33.029   3.756
93531W        W61925  36.926  18.280   0.979
93532W        W61926  14.094   8.837   3.214
93533W        W61927  33.918  43.843   2.333
93534W        W61928   5.222  10.772  10.597
93535W        W61929  38.276  28.613   5.077
93536W        W61930  34.101  30.022   0.887
93537W        W61931  19.095  19.008   5.100
93538W        W61932   2.012  27.255   3.185
93539W        W61933  33.507  34.428  10.142
93540W        W61934   4.768  31.694   2.786
93541W        W61935  15.567  21.267   3.708
93542W        W61936   1.308   0.180  14.748
93543W        W61937  44.158  27.439  14.923
93544W        W61938  28.455  14.997  14.845
93545W        W61939  11.607  41.299  14.452
93546W        W61940  15.670  15.246   4.300
93547W        W61941   2.900  14.240   0.220
93548W        W61942   3.223  11.564  11.752
93549W        W61943  12.307  30.393   1.556
93550W        W61944  14.790  14.329   1.419
93551W        W61945  21.637  33.390   0.862
93552W        W61946  24.369  17.604  11.365
93553W        W61947  38.827  29.054   0.789
93554W        W61948  17.965  19.514   9.709
93555W        W61949   7.386   0.227  13.979
93556W        W61950  24.708  32.226  11.074
93557W        W61951  32.764   3.317  11.639
93558W        W61952  29.967   1.946   3.632
93559W        W61953   3.190  10.144   2.259
93560W        W61954  31.582  29.267   1.217
93561W        W61955   5.376  32.520   3.056
93562W        W61956   5.307   7.697  11.262
93563W        W61957   4.911   9.276   4.427
93564W        W61958  11.931   8.789   0.941
93565W        W61959   3.185  22.065  13.359
93566W        W61960   7.361  29.078  12.713
93567W        W61961  24.524  16.684   1.665
93568W        W61962   7.779  36.470   2.878
93569W        W61963  42.850  36.530   1.802
93570W        W61964  32.807  16.851  12.478
93571W        W61965  12.486  15.316  12.150
93572W        W61966  40.724  43.069  10.774
93573W        W61967  40.332   8.824  10.715
93574W        W61968  35.458  15.132   3.606
93575W        W61969  12.252  16.664   3.832
93576W        W61970  28.091  44.396  11.560
93577W        W61971  21.718  33.506  14.545
93578W        W61972  25.410  26.501  12.593
93579W        W61973  12.246  43.812   1.636
93580W        W61974   1.560  35.409   2.841
93581W        W61975   1.148  23.065   1.839
93582W        W61976  38.421   5.878   4.549
93583W        W61977  20.757   6.508   0.919
93584W        W61978  36.609  25.795   2.326
93585W        W61979   8.800  28.607  11.131
93586W        W61980  11.967   3.314   0.944
93587W        W61981  39.719  44.984   0.543
93588W        W61982  34.083  38.617  14.275
93589W        W61983  39.365  26.496   4.195
93590W        W61984  15.223  34.966  13.394
93591W        W61985  18.581  41.181  11.936
93592W        W61986  34.585  29.034  14.862
93593W        W61987  39.811  28.225  14.047
93594W        W61988  11.696   8.768   2.367
93595W        W61989  15.781   9.695  14.586
93596W        W61990   1.168   9.322   4.234
93597W        W61991  36.100   6.476   2.623
93598W        W61992  23.165  43.955   4.423
93599W        W61993  14.284  38.531  14.797
93600W        W61994  36.323  44.716  12.602
93601W        W61995  13.628   1.399   0.027
93602W        W61996  10.253  34.536   1.392
93603W        W61997   5.517  20.673   3.291
93604W        W61998  15.586  18.119  11.595
93605W        W61999  20.149  37.045  12.378
93606W        W62000  36.119  10.111   1.969
93607W        W62001  12.277  11.041  11.571
93608W        W62002   2.187  43.856   3.116
93609W        W62003  24.805   5.693   1.520
93610W        W62004   5.862  18.400   3.908
93611W        W62005   5.118   6.814  11.419
93612W        W62006   0.545  38.760   4.654
93613W        W62007  27.082   9.084   2.783
93614W        W62008  33.190  40.874   1.171
93615W        W62009  17.119  37.547   0.125
93616W        W62010  28.743   9.880  14.996
93617W        W62011  27.081  26.632  13.408
93618W        W62012  29.870   1.934  12.990
93619W        W62013   4.872   1.736   3.654
93620W        W62014   1.269  24.954  12.584
93621W        W62015  37.686  37.930  13.326
93622W        W62016  24.964  31.013  12.543
93623W        W62017  39.930  20.003   4.782
93624W        W62018   6.200  15.147  13.791
93625W        W62019  38.072  17.073   1.806
93626W        W62020   2.411  30.405   0.404
93627W        W62021  37.793   8.386  13.946
93628W        W62022  19.091   6.361   1.486
93629W        W62023   5.493   6.230   1.897
93630W        W62024  37.014  18.684   4.518
93631W        W62025  16.278  42.214  14.463
93632W        W62026  27.972  35.447   1.303
93633W        W62027  36.851  33.661   1.224
93634W        W62028  30.067   8.135  14.760
93635W        W62029   0.247  43.931   1.321
93636W        W62030  38.040  41.542   1.229
93637W        W62031  42.868  39.071   5.391
93638W        W62032  19.549  38.325  10.644
93639W        W62033  15.734  31.734   4.932
93640W        W62034  22.673  29.330  12.362
93641W        W62035  13.304  37.037   2.758
93642W        W62036  24.732  32.686   2.433
93643W        W62037  21.594  10.163  12.968
93644W        W62038   4.682   0.800   0.290
93645W        W62039  43.324   3.631  10.503
93646W        W62040  25.301  24.806   5.168
93647W        W62041  17.742  21.018   0.008
93648W        W62042  40.579  41.725   1.834
93649W        W62043  42.382  31.447   2.370
93650W        W62044   6.325  40.778   1.872
93651W        W62045   8.083  16.297  13.943
93652W        W62046  28.463  17.750  13.942
93653W        W62047  43.917  24.706  12.519
93654W        W62048   6.238  23.993   1.347
93655W        W62049  40.865  28.418  14.208
93656W        W62050  34.165  24.635   2.901
93657W        W62051  23.474  15.287  11.649
93658W        W62052  16.043  31.875  14.774
93659W        W62053  24.007  28.625   0.965
93660W        W62054  36.951  14.615  13.945
93661W        W62055  24.084  28.380  13.466
93662W        W62056  22.813  18.682   1.911
93663W        W62057  43.004   9.292   2.890
93664W        W62058  14.730  17.488  14.145
93665W        W62059  22.567  23.058   4.166
93666W        W62060   7.768  25.434  12.025
93667W        W62061   7.294   2.739   1.835
93668W        W62062  37.304  38.468  10.615
93669W        W62063   4.319  15.675  10.722
93670W        W62064   9.960  28.952   3.561
93671W        W62065  21.184   9.101  12.398
93672W        W62066  26.088  12.579   4.116
93673W        W62067  36.078  39.865   3.643
93674W        W62068  29.552   1.918   9.755
93675W        W62069  38.141   8.272   4.012
93676W        W62070   5.425  37.622  10.785
93677W        W62071  29.379  15.847  11.139
93678W        W62072  31.953  35.228   2.851
93679W        W62073  43.816   3.838  11.437
93680W        W62074  19.020  28.379   2.547
93681W        W62075  11.853   8.669  11.089
93682W        W62076  19.711  17.249  14.730
93683W        W62077   4.401  36.527  13.097
93684W        W62078  18.206  11.621   1.597
93685W        W62079  32.445   9.647   3.124
93686W        W62080  14.226  37.106   0.689
93687W        W62081  39.857  28.216   0.056
93688W        W62082   3.319  29.239   1.652
93689W        W62083  24.953  10.733   2.791
93690W        W62084  26.179   8.910   0.870
93691W        W62085  36.781  43.265  11.163
93692W        W62086  10.452  31.031  11.466
93693W        W62087  42.146  14.539  12.956
93694W        W62088  37.400  14.794  12.656
93695W        W62089  24.437   8.426  10.634
93696W        W62090  11.841  35.109  14.509
93697W        W62091  44.769  19.845  11.089
93698W        W62092  28.198  24.751  11.521
93699W        W62093  14.770  33.891  14.583
93700W        W62094   5.723   9.737  14.537
93701W        W62095  32.442  20.694  11.239
93702W        W62096   8.463  27.433  10.663
93703W        W62097  18.230  10.588   0.484
93704W        W62098  34.991  28.140  11.714
93705W        W62099   7.793  37.547   5.122
93706W        W62100  41.127   3.391   0.906
93707W        W62101  13.647  33.913  13.302
93708W        W62102  32.086   9.710   0.102
93709W        W62103  19.556   1.884  13.781
93710W        W62104   5.336  21.308   1.355
93711W        W62105  34.524  29.662  12.109
93712W        W62106  43.159  29.082   3.101
93713W        W62107  15.590  13.156   0.297
93714W        W62108  17.306  21.710   2.686
93715W        W62109  12.555   3.877   3.704
93716W        W62110  23.676  31.634  12.166
93717W        W62111  19.286   3.831  14.431
93718W        W62112   6.360   7.649   1.734
93719W        W62113  21.825  26.958   5.689
93720W        W62114  37.617  19.817  11.175
93721W        W62115  44.301  10.392  11.120
93722W        W62116   3.364   5.078  10.353
93723W        W62117   4.201  15.625  11.210
93724W        W62118  32.065  21.171   2.166
93725W        W62119   0.408  35.311  12.779
93726W        W62120  43.279   7.474   4.311
93727W        W62121  26.879   3.878   3.615
93728W        W62122  30.125   1.242  13.381
93729W        W62123   4.293  30.396  12.337
93730W        W62124   2.244  38.543   4.357
93731W        W62125  15.215   6.609   4.507
93732W        W62126   6.290  37.360   0.516
93733W        W62127  25.247  24.593  12.058
93734W        W62128  12.682  20.612  14.902
93735W        W62129  29.944  41.045   0.042
93736W        W62130  21.221  22.507   5.182
93737W        W62131  33.074   1.452  10.723
93738W        W62132  41.970  20.559  14.773
93739W        W62133  20.928  38.694  12.642
93740W        W62134   5.419  28.573  12.848
93741W        W62135  26.375  31.165   4.108
93742W        W62136  36.884  44.558   3.315
93743W        W62137  15.819  19.499   0.883
93744W        W62138   4.707  43.710   0.877
93745W        W62139  15.851  18.453  13.868
93746W        W62140  21.741  29.649  11.543
93747W        W62141  27.892   3.269   0.805
93748W        W62142  27.555  16.326  13.585
93749W        W62143  21.676  17.309  13.933
93750W        W62144   9.190  34.098   0.421
93751W        W62145  42.920  34.589   1.775
93752W        W62146  40.200  24.646   4.082
93753W        W62147   0.145  42.024   3.306
93754W        W62148   8.037   1.865   4.430
93755W        W62149  19.841  32.476  14.016
93756W        W62150  14.227  12.397   4.639
93757W        W62151  37.206   9.805  13.576
93758W        W62152  12.438   5.145  14.367
93759W        W62153  15.063  17.173   1.223
93760W        W62154   8.154  24.190   1.430
93761W        W62155  32.457   7.825   4.414
93762W        W62156  23.736  44.760   4.543
93763W        W62157   4.270  33.971   2.291
93764W        W62158  36.419  42.170  11.977
93765W        W62159   4.689  30.146   2.344
93766W        W62160  26.332  27.389   4.111
93767W        W62161  40.347  39.442   3.264
93768W        W62162  16.743  42.469  14.358
93769W        W62163  19.167   7.356   0.756
93770W        W62164  43.540  43.230  14.865
93771W        W62165  17.502  20.868  13.352
93772W        W62166  44.852  23.268   2.500
93773W        W62167   9.361  10.587   1.266
93774W        W62168  14.273  22.756  12.521
93775W        W62169  23.648  31.865   1.657
93776W        W62170  18.743  25.136   2.480
93777W        W62171  38.946   9.891  12.855
93778W        W62172  17.236  15.289  14.957
93779W        W62173  34.098  15.851  12.826
93780W        W62174  33.150   9.799  14.391
93781W        W62175  17.239  33.640  14.177
93782W        W62176  15.090  13.075   0.167
93783W        W62177  19.928  35.123  14.661
93784W        W62178  19.965  11.903   4.365
93785W        W62179   8.076  10.303   0.907
93786W        W62180  16.679   1.971  10.595
93787W        W62181  24.102  34.870  13.982
93788W        W62182  42.761  21.033   3.314
93789W        W62183  22.087  13.710  12.488
93790W        W62184  13.007  15.064  10.723
93791W        W62185   1.298  21.511  11.666
93792W        W62186   6.458   6.121   1.577
93793W        W62187   0.618  40.010  11.405
93794W        W62188  24.060  41.715   2.977
93795W        W62189   4.717  25.926  10.504
93796W        W62190  33.474  11.655  13.532
93797W        W62191   2.712  12.853   2.410
93798W        W62192  36.030  20.187   1.467
93799W        W62193  32.611   0.940   1.305
93800W        W62194  18.305   3.318   2.377
93801W        W62195  32.467   1.057  11.393
93802W        W62196  41.829  13.721   2.778
93803W        W62197  23.504  40.259   4.578
93804W        W62198  43.698  10.143   5.204
93805W        W62199  20.119  31.156   0.502
93806W        W62200  20.442  38.417   4.570
93807W        W62201  33.170  33.487  11.156
93808W        W62202  37.508  30.017  13.152
93809W        W62203  41.840  14.513   1.355
93810W        W62204  38.266  34.013  12.851
93811W        W62205  15.528  12.301   1.941
93812W        W62206  18.613  29.062  10.771
93813W        W62207  27.957  12.161  10.698
93814W        W62208  20.712  41.511   2.480
93815W        W62209   6.279  29.420  14.026
93816W        W62210  30.979  10.868  11.603
93817W        W62211  31.673  10.989  12.530
93818W        W62212  27.724  34.988  10.796
93819W        W62213  44.712   6.353   0.515
93820W        W62214  20.582  26.240   1.338
93821W        W62215   1.732  32.348   0.509
93822W        W62216  25.582  40.510   0.748
93823W        W62217  26.626  39.857  12.494
93824W        W62218  22.438   4.343   2.296
93825W        W62219  28.080  43.882  11.599
93826W        W62220  34.639  34.370  13.423
93827W        W62221  33.108  43.606   2.788
93828W        W62222  22.559  29.572   5.101
93829W        W62223   0.739  18.550  10.749
93830W        W62224  36.098  22.716   1.489
93831W        W62225   3.509  26.417   4.430
93832W        W62226  20.770   2.663  10.655
93833W        W62227   2.450  24.302  12.579
93834W        W62228  25.479  25.399  11.557
93835W        W62229  24.168  41.329   2.196
93836W        W62230  22.701  30.555  12.397
93837W        W62231  20.050  39.098  13.717
93838W        W62232  12.942  14.676  12.791
93839W        W62233   2.930  44.606  11.455
93840W        W62234  26.644  42.387   0.955
93841W        W62235  30.779  33.235  14.126
93842W        W62236  33.123  22.716   3.929
93843W        W62237   4.020  35.829  12.655
93844W        W62238   3.986  11.147   4.645
93845W        W62239  29.072  30.398   3.632
93846W        W62240  12.686   7.135  11.751
93847W        W62241  28.131  30.681  14.565
93848W        W62242   0.076  24.572   2.731
93849W        W62243  27.610  27.896   2.132
93850W        W62244  16.821  25.542  12.502
93851W        W62245  16.205  11.329   0.810
93852W        W62246  21.772  27.516  11.628
93853W        W62247   9.180  22.527  14.846
93854W        W62248  41.145  36.292  13.315
93855W        W62249  21.747  26.092   2.733
93856W        W62250  23.491  16.264   1.346
93857W        W62251  36.409  35.300  11.161
93858W        W62252  21.276   4.873  11.453
93859W        W62253  42.591  29.557   2.717
93860W        W62254  39.906  37.758  11.516
93861W        W62255  24.971   4.705  12.329
93862W        W62256  26.441  38.991  10.726
93863W        W62257  18.447  23.105   3.677
93864W        W62258  42.217  38.830   3.299
93865W        W62259  17.513  36.910   4.858
93866W        W62260  44.552  21.639  14.293
93867W        W62261   3.627   4.731   4.598
93868W        W62262  30.454   3.728  14.374
93869W        W62263  43.702  42.302  11.606
93870W        W62264  16.965  19.215   4.096
93871W        W62265  31.485   3.154   0.196
93872W        W62266   9.586  22.189  14.844
93873W        W62267  37.331  17.127  12.864
93874W        W62268  24.651   7.942   0.815
93875W        W62269  15.942  33.155   3.528
93876W        W62270  18.176  19.684   2.096
93877W        W62271  33.971   0.230   2.234
93878W        W62272   8.157   4.199   2.358
93879W        W62273  19.187  42.317   4.620
93880W        W62274  44.688  33.610   0.379
93881W        W62275   3.773  22.792   2.240
93882W        W62276  24.764  40.518   5.094
93883W        W62277  12.573  42.980   2.479
93884W        W62278   0.875   9.172  11.149
93885W        W62279  23.059  31.535  11.046
93886W        W62280  36.149   4.868   1.270
93887W        W62281  17.603   6.330   1.265
93888W        W62282  25.076  31.207  13.028
93889W        W62283  12.679  43.354   2.122
93890W        W62284  41.526  40.247   2.857
93891W        W62285   2.878  30.152  13.095
93892W        W62286  43.942   2.318  12.021
93893W        W62287  29.479  33.553   4.927
93894W        W62288  10.874  13.126  12.564
93895W        W62289  42.137   3.508  11.748
93896W        W62290  24.891  25.641   4.112
93897W        W62291  43.272  11.700   4.082
93898W        W62292   0.461  10.502   4.169
93899W        W62293  38.961   0.743  10.582
93900W        W62294   5.017  44.772   3.845
93901W        W62295  10.286  22.587   4.491
93902W        W62296  39.059  39.107   2.416
93903W        W62297  30.970  10.294  10.703
93904W        W62298  26.610  41.024   1.436
93905W        W62299  26.719   0.991   1.418
93906W        W62300  14.807  14.264   0.205
93907W        W62301  22.494  14.379  14.582
93908W        W62302   2.965  11.112   0.274
93909W        W62303  21.573  43.527   1.493
93910W        W62304  38.028  17.012  12.442
93911W        W62305   4.634  19.333   3.250
93912W        W62306   7.767  38.813  14.302
93913W        W62307  38.531  13.665   0.419
93914W        W62308  24.836  19.607  10.593
93915W        W62309  21.300  36.894   0.140
93916W        W62310  12.374  21.152   1.045
93917W        W62311  20.781  31.554   0.800
93918W        W62312  15.274  12.400   4.630
93919W        W62313  25.593   1.262   4.292
93920W        W62314  36.929  40.718   4.346
93921W        W62315  21.546  11.387  13.835
93922W        W62316  29.577  42.329   3.688
93923W        W62317  33.889   5.952   1.739
93924W        W62318  41.609  41.025  11.464
93925W        W62319  15.653  20.237   3.653
93926W        W62320   4.911  27.372  10.006
93927W        W62321   2.071  41.348   4.196
93928W        W62322  28.884  18.747   4.135
93929W        W62323  26.234  20.632  12.182
93930W        W62324  14.168   3.963   0.572
93931W        W62325  23.293   0.691   4.641
93932W        W62326  34.563   2.176   1.252
93933W        W62327  38.789  33.002  11.436
93934W        W62328  14.213  13.113   0.362
93935W        W62329  11.108  12.644  12.499
93936W        W62330   3.403  40.778   3.684
93937W        W62331  37.078  27.363   2.857
93938W        W62332  32.581   2.338  13.995
93939W        W62333   0.512  19.136   4.626
93940W        W62334  20.401  11.288   0.165
93941W        W62335  42.736  36.880  10.739
93942W        W62336  15.867  39.409  11.417
93943W        W62337  41.286  22.561  13.946
93944W        W62338   5.318  11.287   3.336
93945W        W62339  35.016  28.815   4.470
93946W        W62340   7.411  10.379  11.617
93947W        W62341  35.188  42.828  13.542
93948W        W62342  41.142  18.622  13.521
93949W        W62343  31.330  39.017  10.525
93950W        W62344  40.117   9.274  13.313
93951W        W62345  34.425  13.699   1.748
93952W        W62346  43.775  13.295   2.491
93953W        W62347   7.906   4.465  13.897
93954W        W62348  41.852  26.694   4.556
93955W        W62349  26.111   5.679   1.439
93956W        W62350   4.879  35.578  14.952
93957W        W62351  19.894  26.653  14.548
93958W        W62352  25.197  31.601   4.365
93959W        W62353  43.999  15.308   3.616
93960W        W62354  23.120  24.543  13.148
93961W        W62355  17.325  33.625   5.129
93962W        W62356  18.844   9.176   2.219
93963W        W62357  42.505  42.865  14.262
93964W        W62358  12.403  34.001  11.010
93965W        W62359  30.140   0.750   4.367
93966W        W62360  34.588  39.106  12.613
93967W        W62361  35.439   8.086  12.077
93968W        W62362  33.462  36.710  14.870
93969W        W62363   9.078   1.180  12.642
93970W        W62364  22.678  12.663  11.992
93971W        W62365  43.926  23.736   2.861
93972W        W62366  21.184   8.332  14.942
93973W        W62367  14.371   7.673  14.275
93974W        W62368   9.380  24.132   4.971
93975W        W62369   6.399   1.729  12.466
93976W        W62370  33.786  36.983  11.978
93977W        W62371   6.284  11.680  12.146
93978W        W62372  35.170  25.444  11.127
93979W        W62373  21.768  17.778   2.988
93980W        W62374   4.748  23.467   0.903
93981W        W62375  38.134  34.309   2.782
93982W        W62376  26.154  42.795  11.131
93983W        W62377  17.226  29.238   0.448
93984W        W62378  36.729   6.824   4.539
93985W        W62379  28.201  18.204  12.652
93986W        W62380  15.233  23.027  12.485
93987W        W62381  23.225  11.827   2.287
93988W        W62382  30.589  20.024  13.967
93989W        W62383  38.130  19.532  14.170
93990W        W62384   4.583  37.549   3.777
93991W        W62385  31.472  25.498   2.990
93992W        W62386  10.928  40.483  12.792
93993W        W62387  43.005  35.991  13.016
93994W        W62388  11.662  40.842   2.181
93995W        W62389  14.693   1.233  10.695
93996W        W62390   2.653  29.173  13.682
93997W        W62391  39.964  18.483  13.882
93998W        W62392  31.929  16.155   2.424
93999W        W62393  42.758   1.113   1.662
94000W        W62394  37.076  35.522  14.763
94001W        W62395  24.678  39.497  14.214
94002W        W62396  24.859   8.721   5.751
94003W        W62397  19.933  12.574  10.646
94004W        W62398  38.970  27.355   2.667
94005W        W62399  40.548  11.928   5.010
94006W        W62400  27.436   0.744   2.205
94007W        W62401  24.986   4.727  14.282
94008W        W62402  33.182  16.812  11.580
94009W        W62403  17.830  29.458  10.781
94010W        W62404  14.154  15.639  13.024
94011W        W62405  34.394  26.633   0.833
94012W        W62406  20.032  35.657  13.534
94013W        W62407  11.412   5.727   4.565
94014W        W62408   9.678  18.829  10.857
94015W        W62409  28.042  15.335  12.590
94016W        W62410  13.299   1.797   3.127
94017W        W62411  16.348  24.096  11.774
94018W        W62412  16.089  30.625   4.493
94019W        W62413  30.276  24.694   0.305
94020W        W62414   9.305  39.643   1.806
94021W        W62415  27.550   7.150   4.761
94022W        W62416  26.710  28.112   0.533
94023W        W62417  13.583  21.142  11.642
94024W        W62418  24.527  32.093   1.889
94025W        W62419   0.418  16.312   0.401
94026W        W62420  20.529  21.283   2.321
94027W        W62421  13.044   8.654   0.981
94028W        W62422  28.404  10.185   2.771
94029W        W62423  20.068  32.505   4.613
94030W        W62424   3.205  18.115  13.357
94031W        W62425  17.012   4.813  12.916
94032W        W62426   8.730  21.453   4.956
94033W        W62427  11.412  43.087   4.891
94034W        W62428   7.395  12.039  11.054
94035W        W62429   3.481  37.264  11.564
94036W        W62430  25.651  27.989  10.306
94037W        W62431   4.108  25.184  14.025
94038W        W62432  22.013  37.738  11.637
94039W        W62433  31.795  32.920   4.456
94040W        W62434  23.152  21.491  14.931
94041W        W62435  25.219  32.344  12.348
94042W        W62436  22.241  44.886   4.588
94043W        W62437  40.769  34.580  13.166
94044W        W62438   9.313   5.101  11.531
94045W        W62439   9.706  16.721   1.914
94046W        W62440   3.768  21.187   0.969
94047W        W62441  34.814   8.319   4.001
94048W        W62442  39.791  15.257  14.979
94049W        W62443  32.129  15.351   0.295
94050W        W62444  16.008  20.771   4.270
94051W        W62445   8.778  39.100  14.542
94052W        W62446  17.605   7.182   1.784
94053W        W62447   9.610   5.151  11.993
94054W        W62448  33.102  39.384  13.686
94055W        W62449  32.748  14.816   1.903
94056W        W62450  34.542  19.791  14.873
94057W        W62451  20.580  24.501  11.863
94058W        W62452   3.333  36.285   3.567
94059W        W62453  44.169   5.499   0.257
94060W        W62454  38.536  35.586   0.481
94061W        W62455  31.566   6.922  12.472
94062W        W62456  42.631  38.111   2.779
94063W        W62457  27.296  15.495  10.115
94064W        W62458  13.297  16.380  11.516
94065W        W62459   4.370  31.896   2.048
94066W        W62460  38.821  25.171   3.186
94067W        W62461   1.889  24.568  14.899
94068W        W62462   3.165   5.859   9.940
94069W        W62463   6.381  15.350   1.410
94070W        W62464   6.851   2.317  11.275
94071W        W62465   2.890  31.477   3.408
94072W        W62466  40.783   8.171   0.968
94073W        W62467  42.138  28.985   4.251
94074W        W62468  30.643   9.625   2.360
94075W        W62469  26.941  11.712   0.421
94076W        W62470  29.590  24.211  12.569
94077W        W62471  37.506  41.096   1.941
94078W        W62472  31.641  15.742  14.433
94079W        W62473  34.135  44.503  12.943
94080W        W62474  17.583  43.321   1.046
94081W        W62475  27.431  17.029   2.838
94082W        W62476   9.813   4.825   3.047
94083W        W62477   5.183   3.815  13.331
94084W        W62478  38.987  30.474  13.928
94085W        W62479   6.079  18.983  11.054
94086W        W62480  43.632   2.037  13.829
94087W        W62481  20.505  21.508  12.822
94088W        W62482  37.409   5.340  10.898
94089W        W62483  14.747  34.493   1.372
94090W        W62484  23.907  31.437   1.412
94091W        W62485  21.376  41.940   2.527
94092W        W62486  38.456  31.760   2.757
94093W        W62487  22.183  34.653  12.599
94094W        W62488   2.686   7.248  12.185
94095W        W62489  15.382  23.953  12.595
94096W        W62490  15.799  31.772   1.933
94097W        W62491   4.953  27.220  14.842
94098W        W62492  32.208   5.873  14.809
94099W        W62493   0.977   5.966  11.549
94100W        W62494   8.219  40.186   2.669
94101W        W62495   5.107   3.933  12.365
94102W        W62496  36.227  33.446   4.553
94103W        W62497  16.804   5.469   1.963
94104W        W62498  13.629  34.032  14.308
94105W        W62499  34.674   1.500   2.820
94106W        W62500  41.010  14.145  12.557
94107W        W62501  44.205   9.425   2.292
94108W        W62502  14.868  24.577   1.739
94109W        W62503  28.895   9.544  11.606
94110W        W62504  44.721  37.971   9.724
94111W        W62505  39.169  11.886  10.535
94112W        W62506  44.485   9.624  12.795
94113W        W62507  17.752  42.381   2.729
94114W        W62508  40.651   6.462   4.150
94115W        W62509   5.623   2.224  14.371
94116W        W62510  43.764  30.227   4.845
94117W        W62511  14.584  35.004  12.679
94118W        W62512  24.503  14.649   4.654
94119W        W62513  42.957  12.701  12.833
94120W        W62514  42.560  20.341   3.421
94121W        W62515  36.809  33.823  13.914
94122W        W62516  21.760  35.151  11.066
94123W        W62517  43.894  21.504  10.697
94124W        W62518  16.545   3.403  10.375
94125W        W62519  23.806  17.822  13.917
94126W        W62520  35.015  35.355   0.652
94127W        W62521  32.845  29.826   0.333
94128W        W62522   2.865  41.755  12.492
94129W        W62523   0.164  44.380  14.362
94130W        W62524  14.745   5.763  12.797
94131W        W62525  33.166  36.245   1.461
94132W        W62526  24.110  12.827   3.843
94133W        W62527  10.470  40.115  12.117
94134W        W62528  10.074  33.838   3.883
94135W        W62529   2.467  39.791  11.122
94136W        W62530  20.323  37.405   2.716
94137W        W62531   0.320  21.059   3.937
94138W        W62532  33.191  41.969   0.507
94139W        W62533   6.408  38.716   9.870
94140W        W62534  32.126   2.650   3.650
94141W        W62535   7.999  32.984   4.041
94142W        W62536  13.059  41.978  14.485
94143W        W62537  26.419  30.645  14.756
94144W        W62538  13.320   4.771   1.934
94145W        W62539  34.881   5.234  13.026
94146W        W62540  33.423  11.276   0.675
94147W        W62541  15.883  23.553   4.809
94148W        W62542   4.312  33.635  13.390
94149W        W62543   0.481  18.679  13.402
94150W        W62544  17.033  44.389   2.468
94151W        W62545  25.295  19.548  13.261
94152W        W62546  14.161  29.860  10.604
94153W        W62547  18.162  40.689   1.351
94154W        W62548  19.503   6.309  13.543
94155W        W62549  34.349  16.095  11.218
94156W        W62550  28.559  36.576  12.112
94157W        W62551  37.566   6.993  12.695
94158W        W62552  40.353  43.650  13.857
94159W        W62553  32.611  19.764  10.260
94160W        W62554  27.460  41.599   1.180
94161W        W62555  25.638  14.917  11.959
94162W        W62556  34.405  25.298   0.413
94163W        W62557  25.591  35.973   3.237
94164W        W62558  10.571  43.992  14.903
94165W        W62559  30.524  43.741  14.893
94166W        W62560  28.061   7.398  10.792
94167W        W62561   3.372  28.680   0.875
94168W        W62562  43.530  44.637   2.360
94169W        W62563  24.440  37.279   4.640
94170W        W62564  13.571  37.126   4.832
94171W        W62565   2.780  40.138  10.793
94172W        W62566  19.695  44.236   2.617
94173W        W62567  21.681  15.384   4.187
94174W        W62568  40.747  15.957  14.517
94175W        W62569  36.938  21.071   2.236
94176W        W62570  36.268  18.816   2.844
94177W        W62571  39.517  25.997   2.698
94178W        W62572  22.555  44.382  12.440
94179W        W62573  15.045  35.113   0.013
94180W        W62574  10.895  19.485   3.653
94181W        W62575   6.419   3.154   2.910
94182W        W62576   0.629   2.736   0.385
94183W        W62577  32.869  43.308   0.783
94184W        W62578  11.936  23.415  12.869
94185W        W62579   6.340  41.431  13.649
94186W        W62580  25.995  10.227   2.390
94187W        W62581  34.109  32.437   3.589
94188W        W62582  10.996   0.615   0.226
94189W        W62583  24.159  24.565  13.020
94190W        W62584  26.114  25.454   1.665
94191W        W62585  19.662   8.227  13.604
94192W        W62586  28.701  21.567  13.099
94193W        W62587  33.567  27.451  11.549
94194W        W62588  33.912  25.014  12.857
94195W        W62589   0.026  25.045   4.516
94196W        W62590  16.055   6.728   1.747
94197W        W62591  21.128  38.017   0.042
94198W        W62592  14.305   8.663  14.380
94199W        W62593   1.801  22.509  10.446
94200W        W62594  36.491  34.899   1.677
94201W        W62595  43.809   0.255  10.667
94202W        W62596  21.585   0.171  14.744
94203W        W62597   9.654  16.165  11.433
94204W        W62598  36.959  20.128  14.336
94205W        W62599  33.931  36.519   2.213
94206W        W62600  10.903  10.298  14.464
94207W        W62601  18.971  12.643   4.565
94208W        W62602   7.587  31.616  12.836
94209W        W62603  42.865  44.426   3.200
94210W        W62604  43.758  13.419  13.996
94211W        W62605  28.628   0.418   1.468
94212W        W62606   3.381  37.356  14.077
94213W        W62607   8.200  35.855   3.643
94214W        W62608  44.504   0.752   2.332
94215W        W62609  14.321  39.186  13.477
94216W        W62610  39.092  14.404  14.000
94217W        W62611  16.603  23.222   0.275
94218W        W62612   8.111  17.179  14.188
94219W        W62613   9.234  44.425  10.803
94220W        W62614  39.598  32.411   1.888
94221W        W62615  16.127  10.005  14.053
94222W        W62616  39.919  20.247  14.450
94223W        W62617  23.549  39.608  13.057
94224W        W62618   9.330   3.480  10.337
94225W        W62619  40.010   7.222  11.980
94226W        W62620  26.111   1.923  14.133
94227W        W62621   7.307  17.662   1.373
94228W        W62622  20.224  13.661  14.141
94229W        W62623  42.400  23.186   3.473
94230W        W62624   1.123   5.638   1.855
94231W        W62625   3.542   3.439   2.733
94232W        W62626   8.188  20.280   1.665
94233W        W62627  14.889  32.331   0.221
94234W        W62628  43.508  34.723  11.579
94235W        W62629  38.297  21.608  14.951
94236W        W62630   8.197  12.612  14.894
94237W        W62631  34.072  10.259   4.193
94238W        W62632   0.720  17.264  10.299
94239W        W62633  38.482  30.000  11.134
94240W        W62634  26.618   8.191   2.396
94241W        W62635  28.687  24.640   2.330
94242W        W62636   3.782   3.388  11.491
94243W        W62637   4.534  10.894   0.991
94244W        W62638  36.763  31.344  13.044
94245W        W62639  28.204  21.270  12.788
94246W        W62640  25.437  12.585   2.495
94247W        W62641   0.837   8.319   3.235
94248W        W62642   6.817   4.608  11.635
94249W        W62643  15.871  23.729  13.427
94250W        W62644  14.850   8.823   3.771
94251W        W62645  37.749  41.978   5.021
94252W        W62646  38.682  34.012  10.353
94253W        W62647  37.745  41.386   3.193
94254W        W62648   3.669  24.567   0.971
94255W        W62649  10.064  11.522  11.608
94256W        W62650  44.013   4.760   5.164
94257W        W62651  32.182   6.849  11.135
94258W        W62652  33.945   1.540   3.560
94259W        W62653  23.874   2.720  11.025
94260W        W62654   6.689  41.391  14.033
94261W        W62655  23.067   2.899   2.693
94262W        W62656  22.629  23.065  10.705
94263W        W62657  29.569  32.160   3.314
94264W        W62658  43.379  35.909  10.089
94265W        W62659  11.818  32.713   1.407
94266W        W62660  22.996  30.356  11.980
94267W        W62661  18.203  32.998  11.008
94268W        W62662  18.548  22.885   1.700
94269W        W62663  13.839  43.432   0.937
94270W        W62664  28.060  28.321  12.701
94271W        W62665  24.967  37.117  14.746
94272W        W62666  19.546  37.480   1.871
94273W        W62667  18.623  11.365   1.981
94274W        W62668  18.139  28.667   1.758
94275W        W62669  44.027  14.220   2.640
94276W        W62670  26.605   5.821   0.833
94277W        W62671  23.612  32.928   1.431
94278W        W62672  28.738   5.754  11.432
94279W        W62673   1.892  17.706   4.183
94280W        W62674  38.094   8.279  13.018
94281W        W62675  13.843   4.511   1.144
94282W        W62676  15.661  38.960  11.911
94283W        W62677  11.875  14.085   0.368
94284W        W62678  31.277   1.945  12.122
94285W        W62679   8.183  26.516   1.814
94286W        W62680  27.117   3.246   2.816
94287W        W62681   8.385   3.622  13.415
94288W        W62682   2.866  38.905  13.144
94289W        W62683  42.181  16.067   0.671
94290W        W62684   3.469  22.954   2.608
94291W        W62685  32.988  39.592   0.968
94292W        W62686  17.565  15.069  12.103
94293W        W62687  14.318  11.058   2.178
94294W        W62688  36.417  14.627   4.229
94295W        W62689  42.604  31.136  12.155
94296W        W62690   2.499   5.167   5.138
94297W        W62691  10.386  17.781  12.501
94298W        W62692  35.993  14.352   1.813
94299W        W62693  15.746  25.418   3.079
94300W        W62694   2.829  11.717  11.450
94301W        W62695  35.300  28.517  14.927
94302W        W62696  30.911  11.880  14.872
94303W        W62697  20.432  13.713   3.087
94304W        W62698   6.455   9.231   4.680
94305W        W62699  31.418  14.399  14.408
94306W        W62700  35.915   7.474  11.410
94307W        W62701  17.895  40.174   0.069
94308W        W62702  33.829  17.363  12.147
94309W        W62703  28.026  29.538  13.407
94310W        W62704  15.304  15.082   0.217
94311W        W62705  27.432  39.443   3.696
94312W        W62706  35.640   8.400   0.208
94313W        W62707  15.996   9.672  11.486
94314W        W62708  34.283   2.409   4.569
94315W        W62709  34.591  30.769   2.079
94316W        W62710  33.590   4.964   1.658
94317W        W62711  36.888  36.401   3.769
94318W        W62712  44.124  31.482  14.918
94319W        W62713  17.968  20.855   1.918
94320W        W62714  13.241   9.771   1.431
94321W        W62715   4.389   9.458   4.512
94322W        W62716  35.906   1.916  14.870
94323W        W62717  14.299   4.738  12.610
94324W        W62718   6.197   7.175  10.161
94325W        W62719  33.502   5.116   0.785
94326W        W62720   1.746   4.375  12.073
94327W        W62721  43.680  37.163   2.712
94328W        W62722   7.771  30.579   0.983
94329W        W62723  12.323  37.623  13.509
94330W        W62724  43.302  30.153  14.276
94331W        W62725  22.793   6.650   1.999
94332W        W62726   3.751  22.637  10.931
94333W        W62727  41.801   4.330  14.540
94334W        W62728  16.134  17.043  12.673
94335W        W62729  15.990  33.912   4.114
94336W        W62730  34.634  29.766   2.217
94337W        W62731  33.933   7.292  11.271
94338W        W62732  36.791   0.579   1.440
94339W        W62733  18.863  34.682   4.175
94340W        W62734  38.099  43.305  14.640
94341W        W62735  40.790  36.363  12.409
94342W        W62736   1.311   4.410  13.051
94343W        W62737  14.825  24.527  11.286
94344W        W62738   0.990  11.179   4.495
94345W        W62739   6.193   7.854   2.622
94346W        W62740  25.521  10.716  11.466
94347W        W62741  17.754   1.000   2.547
94348W        W62742  33.155  33.426   4.573
94349W        W62743  13.210   9.686  10.719
94350W        W62744  27.516  26.433   2.377
94351W        W62745  25.992  29.678  11.990
94352W        W62746  18.737   1.542  11.435
94353W        W62747  15.345  38.461   2.771
94354W        W62748  25.901  11.726   0.325
94355W        W62749   7.981  16.250   4.135
94356W        W62750  40.404  27.855   1.165
94357W        W62751  19.066   0.512  11.204
94358W        W62752  31.546   4.564   3.762
94359W        W62753  35.011  26.482   2.030
94360W        W62754   0.886  39.607   3.264
94361W        W62755   6.396  41.049  14.961
94362W        W62756   3.706   2.495   3.845
94363W        W62757  27.077   7.892   4.851
94364W        W62758  35.490  22.139  11.182
94365W        W62759   7.221   4.926  14.324
94366W        W62760   1.689   7.906   5.098
94367W        W62761  11.444  11.225   1.137
94368W        W62762  17.613  25.495   2.301
94369W        W62763  26.310   9.531   1.695
94370W        W62764  31.583  38.555  10.611
94371W        W62765  42.566  28.661   4.277
94372W        W62766  30.513  40.879  12.924
94373W        W62767  26.896  29.869   0.574
94374W        W62768  40.931  22.575   3.507
94375W        W62769  31.054  22.065  10.706
94376W        W62770  34.581  22.608   2.627
94377W        W62771  44.551  17.720  13.867
94378W        W62772  35.466  18.023  13.342
94379W        W62773  38.394  31.232   2.718
94380W        W62774   9.776  25.132   3.117
94381W        W62775  29.108  26.146   1.237
94382W        W62776  20.675   1.358   0.984
94383W        W62777   7.288   6.586  13.343
94384W        W62778  13.732   4.683  13.799
94385W        W62779  34.877  26.456  12.472
94386W        W62780  43.779  34.561  12.206
94387W        W62781  22.482  29.763   0.938
94388W        W62782  11.138  20.618   3.366
94389W        W62783  36.310  29.960   3.745
94390W        W62784  41.062   5.926  14.374
94391W        W62785  39.871  44.756   1.734
94392W        W62786   7.641  40.058   0.375
94393W        W62787  33.097   5.441  14.915
94394W        W62788  35.056  20.805   3.887
94395W        W62789  26.705  44.458  10.697
94396W        W62790   7.981  26.656  13.981
94397W        W62791  26.115  21.510   1.232
94398W        W62792  13.212  22.219   1.249
94399W        W62793   9.307  29.997   1.224
94400W        W62794  33.878  19.960  11.474
94401W        W62795  19.493  29.622   0.615
94402W        W62796   1.779  24.769  14.435
94403W        W62797  17.938  32.883  13.833
94404W        W62798   3.797  41.525   0.238
94405W        W62799  39.501  30.894  10.934
94406W        W62800  23.065  29.032   4.640
94407W        W62801  12.665  15.583   2.847
94408W        W62802  19.160  24.437   2.232
94409W        W62803  28.925  39.260   3.207
94410W        W62804  31.172  44.373   1.391
94411W        W62805  24.275   2.419   1.280
94412W        W62806  28.460  18.755  13.027
94413W        W62807  23.567   5.924   0.336
94414W        W62808  40.432  15.556  11.058
94415W        W62809  26.444  16.138  10.685
94416W        W62810  25.030   4.286  13.581
94417W        W62811  21.506   5.277   2.685
94418W        W62812  33.031  23.676   4.539
94419W        W62813  18.730  14.214   2.475
94420W        W62814  32.445   1.921   2.677
94421W        W62815   6.991  27.830   2.962
94422W        W62816  28.232  40.897  11.611
94423W        W62817  16.383  36.916  11.418
94424W        W62818   3.511  38.068  11.117
94425W        W62819   3.718  40.799  13.598
94426W        W62820  11.551   7.038   4.906
94427W        W62821  17.182  11.914  12.522
94428W        W62822  29.648  27.898  11.629
94429W        W62823  22.166  42.417   4.503
94430W        W62824  36.220  36.179   3.277
94431W        W62825  36.934  12.426   2.865
94432W        W62826  28.732  32.300   3.786
94433W        W62827   4.253   1.980   0.458
94434W        W62828   5.550  34.976  12.593
94435W        W62829  18.245   4.781  10.653
94436W        W62830  23.926  37.530  14.268
94437W        W62831  28.901  10.313   2.775
94438W        W62832   6.414  10.305   0.797
94439W        W62833  14.051  14.106   0.062
94440W        W62834  13.680  33.310  14.954
94441W        W62835   5.470  33.658  14.973
94442W        W62836  35.839  44.980  13.577
94443W        W62837  19.722  37.854   3.646
94444W        W62838  18.493  29.691   0.948
94445W        W62839  39.283  17.156  12.027
94446W        W62840  22.213   0.806  11.916
94447W        W62841   8.405   8.404  12.882
94448W        W62842  42.484  12.191  13.340
94449W        W62843  15.130   5.100   0.335
94450W        W62844  19.799  35.931   3.684
94451W        W62845  26.112  34.323   2.314
94452W        W62846  27.600  11.661  14.408
94453W        W62847  10.924  20.845  14.537
94454W        W62848  13.461  34.483   1.372
94455W        W62849  44.932  15.640  12.945
94456W        W62850  24.705  26.534   2.617
94457W        W62851  19.091  39.429  11.367
94458W        W62852  14.755   9.759   4.333
94459W        W62853  40.798   3.228  12.572
94460W        W62854  16.556  19.486  13.407
94461W        W62855  39.935  13.163  13.899
94462W        W62856  22.396  42.066   3.827
94463W        W62857  16.123   9.822   1.881
94464W        W62858   0.280  10.692   1.480
94465W        W62859  28.424   1.744  11.846
94466W        W62860  36.330  42.436  11.537
94467W        W62861   4.881  23.224   4.631
94468W        W62862  16.333   3.701   3.831
94469W        W62863  43.072  11.033  13.632
94470W        W62864  14.936  32.106  10.552
94471W        W62865  27.956   5.829   1.255
94472W        W62866  42.492  41.376  14.393
94473W        W62867  44.827  19.901   0.354
94474W        W62868  28.511  40.583  12.420
94475W        W62869  34.172  33.058  10.999
94476W        W62870  11.362  32.467   4.225
94477W        W62871  23.210   3.999  12.017
94478W        W62872  18.635  31.652  12.192
94479W        W62873  27.093   8.431   1.332
94480W        W62874  33.058  16.022  14.896
94481W        W62875  21.920   1.970   0.808
94482W        W62876  27.035  23.107   4.930
94483W        W62877  40.902  17.511   2.227
94484W        W62878  34.945   4.761  10.270
94485W        W62879  32.060  28.576   4.256
94486W        W62880   2.915  39.218   1.172
94487W        W62881  39.724  40.573   4.231
94488W        W62882  37.838  22.662  12.584
94489W        W62883  26.185  43.441   4.830
94490W        W62884   3.770  29.842  13.978
94491W        W62885  31.997  32.842  13.325
94492W        W62886  25.679  25.262  13.757
94493W        W62887  43.272  32.129   1.930
94494W        W62888  34.383  16.105   3.379
94495W        W62889  36.518   8.277   4.268
94496W        W62890  35.983   4.327  12.799
94497W        W62891   3.390  38.837  13.032
94498W        W62892  23.889   6.595  11.747
94499W        W62893  44.282  34.131   0.390
94500W        W62894  44.452   6.954   1.761
94501W        W62895  11.403   0.784  12.429
94502W        W62896   7.814  34.478  12.901
94503W        W62897  42.212  12.405  10.669
94504W        W62898   1.924   5.617   0.357
94505W        W62899   1.719  29.064   4.665
94506W        W62900  37.432  15.541   2.346
94507W        W62901  14.325  24.772   3.193
94508W        W62902   0.779  21.984  13.351
94509W        W62903  17.516  24.983  11.888
94510W        W62904  20.099  43.454   0.797
94511W        W62905   5.199  20.061   3.578
94512W        W62906   6.741  35.392   0.183
94513W        W62907  17.889  44.350   2.042
94514W        W62908  36.927  20.663   1.906
94515W        W62909  17.210   5.362  10.043
94516W        W62910  15.297  29.628  12.740
94517W        W62911  22.314  37.842  13.906
94518W        W62912   4.879  35.877   1.797
94519W        W62913  32.161  38.491  14.261
94520W        W62914  31.972  38.341  11.369
94521W        W62915  15.313  14.111  11.528
94522W        W62916  17.535  17.736  12.112
94523W        W62917  29.253  42.833  10.291
94524W        W62918  32.667  37.619  13.344
94525W        W62919  18.630  21.488  10.930
94526W        W62920   4.010  37.564  12.463
94527W        W62921  19.751   8.863  14.402
94528W        W62922  34.803   5.346  12.139
94529W        W62923  34.677  41.695  11.031
94530W        W62924  12.991  27.948  11.511
94531W        W62925  18.624   8.625  11.796
94532W        W62926  22.229  36.314  10.747
94533W        W62927   2.982  44.914  12.400
94534W        W62928  33.367  10.125   2.164
94535W        W62929   3.011  41.616  10.457
94536W        W62930  10.364  38.349   1.715
94537W        W62931  21.587  12.134   4.378
94538W        W62932  11.223  19.741  11.881
94539W        W62933  30.756   1.154   2.302
94540W        W62934  20.511   1.957  12.006
94541W        W62935  22.448  29.231  11.184
94542W        W62936  11.823  18.141  13.428
94543W        W62937   2.815  24.993   4.224
94544W        W62938  34.500  43.832  12.516
94545W        W62939  32.948  11.616   5.029
94546W        W62940  38.592   7.892   4.671
94547W        W62941   3.480  40.040   4.294
94548W        W62942  30.093  43.707   4.423
94549W        W62943  28.678  33.359  11.889
94550W        W62944  32.883  35.555   4.946
94551W        W62945   0.832  12.479  12.200
94552W        W62946  27.208  44.699  13.732
94553W        W62947  10.276  32.234   1.741
94554W        W62948  44.900  12.693  12.737
94555W        W62949   3.674  30.477  13.080
94556W        W62950  38.237   6.842   2.167
94557W        W62951  37.627  10.215  12.087
94558W        W62952  29.905   1.487   0.490
94559W        W62953  31.099  25.772  13.402
94560W        W62954  26.461  11.831  11.163
94561W        W62955  32.564  22.273  13.897
94562W        W62956  24.426  40.021   3.803
94563W        W62957  27.238   1.848   1.359
94564W        W62958  41.771  14.016   1.455
94565W        W62959  12.259   1.966   2.632
94566W        W62960  32.643  19.662  12.054
94567W        W62961  16.278  17.113  14.848
94568W        W62962   4.755  16.027  14.350
94569W        W62963   8.440  37.923  13.396
94570W        W62964  34.005  23.217  12.668
94571W        W62965  42.404  18.880   2.189
94572W        W62966  18.444  14.695  12.612
94573W        W62967  41.509  20.924  10.535
94574W        W62968  39.422  31.023  11.927
94575W        W62969  36.388  41.838   0.207
94576W        W62970  43.772  39.294  11.953
94577W        W62971  35.668  39.109  11.174
94578W        W62972  13.605   9.364  10.742
94579W        W62973  29.900  28.649  11.157
94580W        W62974  36.438  13.786   0.256
94581W        W62975  21.211  36.557   2.980
94582W        W62976   9.942  29.522   1.747
94583W        W62977  14.647  28.991   1.668
94584W        W62978  36.851   5.110  12.043
94585W        W62979   7.600  13.706   4.302
94586W        W62980  21.803   0.355   3.713
94587W        W62981  28.876   0.704   2.325
94588W        W62982  41.982   3.948  14.062
94589W        W62983  41.256   0.968  12.883
94590W        W62984  34.460  31.104  11.178
94591W        W62985  13.185  37.591   1.872
94592W        W62986  34.443  33.089  10.527
94593W        W62987  14.370  36.351  14.342
94594W        W62988  14.409  40.313   1.786
94595W        W62989   6.703  34.914  11.100
94596W        W62990  41.047  39.996   1.469
94597W        W62991   4.942  43.633   4.403
94598W        W62992  31.197   1.915  13.442
94599W        W62993  29.548  25.735   4.687
94600W        W62994  11.899  28.757  14.399
94601W        W62995  11.695  25.588   2.823
94602W        W62996   4.970   9.270  14.359
94603W        W62997  40.338  44.820   3.076
94604W        W62998  27.552   6.657   3.359
94605W        W62999  16.036  27.413   2.353
94606W        W63000  43.817  31.327  14.549
94607W        W63001  35.139   6.328  13.273
94608W        W63002  40.409  15.519   3.214
94609W        W63003   7.272   1.369  10.617
94610W        W63004  43.794  30.391   0.996
94611W        W63005  30.524  13.506  12.550
94612W        W63006  27.615   3.511  13.432
94613W        W63007   0.915   0.751  14.339
94614W        W63008  19.448  11.940   4.515
94615W        W63009  38.769  42.532  13.006
94616W        W63010  25.695   3.570   1.371
94617W        W63011  35.173  34.902   4.604
94618W        W63012  11.619   2.435   3.252
94619W        W63013  43.241  17.190  12.805
94620W        W63014  14.795   4.209  10.223
94621W        W63015   4.006   0.772   3.270
94622W        W63016  12.804  43.845   3.899
94623W        W63017  24.823  28.181  11.488
94624W        W63018  30.122  15.245   3.666
94625W        W63019  38.054  40.893  10.716
94626W        W63020  15.988   6.852  12.325
94627W        W63021  10.899   5.238  11.638
94628W        W63022  27.130  10.412  12.793
94629W        W63023  19.641  10.735  12.604
94630W        W63024  42.852  38.567   2.768
94631W        W63025  32.871  18.900   2.904
94632W        W63026  21.746   0.222   4.247
94633W        W63027   2.030  17.757   1.215
94634W        W63028   9.638   2.296   4.459
94635W        W63029  43.817   3.051  11.092
94636W        W63030  16.976  43.918  10.255
94637W        W63031  42.344   3.890  12.787
94638W        W63032  13.757  27.976  12.504
94639W        W63033  10.063   9.103  12.054
94640W        W63034   3.730  40.557   2.250
94641W        W63035  41.992   0.769  13.448
94642W        W63036  28.241  39.990   4.883
94643W        W63037  32.876  14.226   3.544
94644W        W63038  39.168  31.095  14.574
94645W        W63039  38.253  14.109  12.490
94646W        W63040  28.645  44.990   5.013
94647W        W63041  29.611   0.309  14.978
94648W        W63042  25.670  41.908   1.691
94649W        W63043  19.026  18.251   2.590
94650W        W63044  23.108  38.576   2.758
94651W        W63045  14.609  37.403   1.723
94652W        W63046   4.362  29.899  11.664
94653W        W63047  43.024  28.647   2.233
94654W        W63048  33.929  26.729  12.385
94655W        W63049  24.182  17.113  14.847
94656W        W63050  42.471  18.617   2.652
94657W        W63051  36.014  29.119   0.940
94658W        W63052  19.191   9.240  14.968
94659W        W63053  39.436  11.930  13.410
94660W        W63054  35.568   5.445   1.848
94661W        W63055   6.140  36.476   1.929
94662W        W63056   9.762  35.844   1.698
94663W        W63057  23.979  22.689  14.859
94664W        W63058  17.485   8.084  10.326
94665W        W63059  15.101  28.780  10.727
94666W        W63060  10.649   5.998   1.291
94667W        W63061   3.277   0.372   4.580
94668W        W63062  36.949  40.187   4.271
94669W        W63063  33.152  28.924   4.770
94670W        W63064  32.077  14.664   0.822
94671W        W63065   1.470  11.190   0.249
94672W        W63066   8.765  35.928   1.423
94673W        W63067   4.371  12.977   5.115
94674W        W63068  33.675   2.907   0.411
94675W        W63069  42.274  40.951   0.999
94676W        W63070  30.212  42.978   3.708
94677W        W63071  42.012  43.362  11.147
94678W        W63072  28.487  27.600  13.035
94679W        W63073  22.642  20.361  14.120
94680W        W63074  33.462  26.742  13.357
94681W        W63075  11.249  33.520   3.684
94682W        W63076  11.151   8.980  12.027
94683W        W63077  28.679  25.261   3.714
94684W        W63078   3.583  39.017  10.622
94685W        W63079  34.533  10.853  11.711
94686W        W63080   0.374  28.005   2.154
94687W        W63081  19.588  38.856   0.929
94688W        W63082  29.596  35.079  12.140
94689W        W63083  44.663   5.361   0.363
94690W        W63084   7.187  12.047  13.372
94691W        W63085  37.466  14.790  11.146
94692W        W63086  32.096  27.723  12.494
94693W        W63087   8.257  12.252   4.274
94694W        W63088  11.879  20.613  10.541
94695W        W63089  24.094  26.107   3.398
94696W        W63090  35.526   3.346  12.386
94697W        W63091  15.872  27.870   1.504
94698W        W63092  24.264  23.629   1.405
94699W        W63093  25.253  42.073   1.955
94700W        W63094   7.740   9.059  11.579
94701W        W63095  26.141  31.980  13.857
94702W        W63096  37.505  21.501  14.767
94703W        W63097  23.808   9.377  10.774
94704W        W63098  31.606  27.934  14.713
94705W        W63099  43.911  36.568   0.368
94706W        W63100  30.664   7.089   3.849
94707W        W63101  34.075  36.874   2.778
94708W        W63102  16.238  11.573   2.764
94709W        W63103  30.049  36.004  11.561
94710W        W63104  12.714  20.212   3.690
94711W        W63105   9.797   3.455  11.116
94712W        W63106  43.480  41.762   3.936
94713W        W63107  17.296  38.642   4.102
94714W        W63108  28.089  16.129   0.277
94715W        W63109  31.612  37.967  11.475
94716W        W63110  40.345  37.322  11.043
94717W        W63111  39.897  10.618  14.137
94718W        W63112   9.277  34.874   3.695
94719W        W63113  29.606  25.227  12.424
94720W        W63114   6.212  17.376  12.080
94721W        W63115  43.894  11.129  13.399
94722W        W63116  16.713  38.070   3.383
94723W        W63117  16.205   6.518   0.731
94724W        W63118  31.341   6.864   2.576
94725W        W63119  39.539  26.342  11.562
94726W        W63120   0.772  25.513  11.199
94727W        W63121   3.880  35.673   1.542
94728W        W63122  14.500   8.769  12.016
94729W        W63123  16.464  43.167  13.605
94730W        W63124  26.814  11.617  14.087
94731W        W63125  17.527   7.457   2.670
94732W        W63126  21.580   2.311   1.898
94733W        W63127   2.294  41.368   0.838
94734W        W63128  34.948  16.419   0.896
94735W        W63129   9.362  43.663  13.525
94736W        W63130  13.092  18.145  12.521
94737W        W63131  14.820  27.147  11.282
94738W        W63132  24.961  35.819  13.092
94739W        W63133  26.591  22.067  11.256
94740W        W63134  34.343   6.127   3.668
94741W        W63135  26.634   2.886   1.991
94742W        W63136  22.156  15.256  10.750
94743W        W63137  19.345  41.015   0.914
94744W        W63138  41.310  10.222  12.408
94745W        W63139  37.023  44.819  11.227
94746W        W63140  10.343   4.837   0.686
94747W        W63141  18.803  30.941  14.396
94748W        W63142  36.756  10.676   0.334
94749W        W63143   5.170  42.773   4.620
94750W        W63144  33.529  26.734   0.500
94751W        W63145   3.030   0.397  14.741
94752W        W63146  33.767   4.070  10.051
94753W        W63147  24.040  34.370   0.816
94754W        W63148  43.089  38.484   4.640
94755W        W63149  29.738  44.065   4.278
94756W        W63150  18.553  23.624  12.944
94757W        W63151  42.214  22.751   2.123
94758W        W63152  34.054  38.357   3.857
94759W        W63153  17.339   0.924  11.101
94760W        W63154  39.509  40.062   3.556
94761W        W63155   4.151  26.400  14.856
94762W        W63156  32.825  19.417   2.779
94763W        W63157   6.145  35.840  11.638
94764W        W63158  41.906   9.882   3.107
94765W        W63159  29.382  14.825  12.485
94766W        W63160  35.608  34.872   0.526
94767W        W63161   6.865   5.272   2.889
94768W        W63162   4.993   1.091  11.663
94769W        W63163   4.909  41.986   1.561
94770W        W63164  10.553  13.243  14.867
94771W        W63165  44.009  26.436   4.617
94772W        W63166  12.579  41.073   3.681
94773W        W63167  37.879  18.732  13.645
94774W        W63168  32.439   3.908   4.937
94775W        W63169  38.775  10.181   2.766
94776W        W63170  44.921  21.558  12.928
94777W        W63171  23.864   1.461   2.271
94778W        W63172  44.930  27.781  13.688
94779W        W63173  28.717  36.085   0.298
94780W        W63174  30.155   0.968  13.814
94781W        W63175  29.826  41.369  11.054
94782W        W63176  36.616   9.899  14.851
94783W        W63177  28.537   0.268  11.665
94784W        W63178   5.161  11.720  12.447
94785W        W63179   1.018   4.824  12.940
94786W        W63180  37.343  18.748  12.851
94787W        W63181  24.518  21.767   3.205
94788W        W63182  20.483  26.522   2.271
94789W        W63183  38.085   3.186   0.657
94790W        W63184  19.271  22.740   2.659
94791W        W63185  44.014  21.833   2.459
94792W        W63186  24.091   8.611   4.557
94793W        W63187  31.782  11.589  10.483
94794W        W63188  43.614   5.263  11.432
94795W        W63189  35.825   7.243   3.731
94796W        W63190   1.755  35.092  12.024
94797W        W63191  11.040  11.770   3.215
94798W        W63192  31.005   7.478  12.110
94799W        W63193   5.729  43.984  10.746
94800W        W63194  41.606   7.730  14.750
94801W        W63195  23.982  30.709   4.173
94802W        W63196  24.989   0.057   5.062
94803W        W63197   9.049  36.876   2.154
94804W        W63198  22.858  18.322   1.146
94805W        W63199   5.283  14.775  11.583
94806W        W63200  37.838  15.982  14.991
94807W        W63201  32.531   6.189  11.098
94808W        W63202  19.954  32.444   1.761
94809W        W63203  15.345  43.312   2.830
94810W        W63204  10.514  18.292  12.473
94811W        W63205  27.590  22.686   2.698
94812W        W63206  25.610   5.184  11.466
94813W        W63207   9.556  26.095   2.744
94814W        W63208  37.874  23.202   4.139
94815W        W63209   4.061  28.921   4.322
94816W        W63210   3.782  24.547   0.477
94817W        W63211  27.411  20.179   3.710
94818W        W63212  10.841  32.540  12.947
94819W        W63213   0.032  10.182  11.569
94820W        W63214  13.158  15.148  13.544
94821W        W63215  33.750   1.238  14.228
94822W        W63216   7.842  39.565   2.292
94823W        W63217   6.271   6.725   3.779
94824W        W63218  18.756  36.034  10.943
94825W        W63219  23.492  17.793   1.918
94826W        W63220  13.380   2.477  10.512
94827W        W63221   6.653  36.073   2.294
94828W        W63222  13.553  32.159   3.314
94829W        W63223  28.400   3.419  10.620
94830W        W63224  15.134   1.302   0.316
94831W        W63225  34.720  15.753   2.148
94832W        W63226  23.511  14.991   4.580
94833W        W63227  35.521  25.065  10.399
94834W        W63228   9.673  17.171   2.171
94835W        W63229   5.982  38.350  13.461
94836W        W63230  17.583   0.934   1.636
94837W        W63231  44.017  15.571   1.919
94838W        W63232  43.760   4.445   0.833
94839W        W63233  35.882  28.085  13.740
94840W        W63234  21.673   2.421   0.548
94841W        W63235  29.093   0.354  13.890
94842W        W63236  22.867  44.350  12.847
94843W        W63237  18.769  30.633  12.059
94844W        W63238  22.185  16.283  12.898
94845W        W63239   2.304  40.843   2.452
94846W        W63240  38.872  30.636   4.399
94847W        W63241  18.513  44.887   0.859
94848W        W63242  24.627  37.548  12.128
94849W        W63243  23.549   1.564  14.442
94850W        W63244  10.985  29.470   2.440
94851W        W63245  27.585  37.031   3.844
94852W        W63246   3.005  39.844  12.110
94853W        W63247  40.727   5.372   2.147
94854W        W63248  17.846   3.609  13.265
94855W        W63249  30.687  11.899  11.141
94856W        W63250  22.138   4.915   3.184
94857W        W63251  28.129  13.810   1.976
94858W        W63252   1.610   2.755   1.233
94859W        W63253  14.439  14.691  13.994
94860W        W63254  23.019  40.501   1.889
94861W        W63255   4.352  33.853  11.945
94862W        W63256  15.083  35.851   4.240
94863W        W63257   8.897  27.046  11.408
94864W        W63258  16.155  32.361   0.840
94865W        W63259  32.207  12.700   4.959
94866W        W63260   6.184  36.948   0.201
94867W        W63261   0.702  31.504   0.848
94868W        W63262   4.864  23.070   2.101
94869W        W63263  17.416  27.457  13.006
94870W        W63264   1.366   6.438  12.446
94871W        W63265  12.455  33.319  11.150
94872W        W63266  28.157  17.651   1.279
94873W        W63267   1.561  31.477  14.782
94874W        W63268  44.891  40.506  11.348
94875W        W63269  11.191   4.716   1.321
94876W        W63270  41.811  42.166  13.988
94877W        W63271  28.356  22.474   0.003
94878W        W63272  27.925   9.111  14.826
94879W        W63273   7.323  24.044  11.938
94880W        W63274   9.473  26.212  14.595
94881W        W63275  22.663  26.630   2.022
94882W        W63276  42.102  16.483  11.174
94883W        W63277  28.616  24.945   4.158
94884W        W63278  34.779  19.355   4.079
94885W        W63279  35.040  12.924  13.991
94886W        W63280  10.768  41.527   3.662
94887W        W63281  12.307  11.639   1.251
94888W        W63282   4.034  38.559   4.026
94889W        W63283   9.669  40.815   3.633
94890W        W63284  36.339   4.756  11.013
94891W        W63285   6.332  35.546   0.484
94892W        W63286   6.105   0.895   0.303
94893W        W63287  20.602  19.819  12.373
94894W        W63288  23.598  23.050  14.307
94895W        W63289  41.062   8.463   0.551
94896W        W63290  18.548  44.490  14.879
94897W        W63291  44.324   5.397   4.120
94898W        W63292   4.658  38.565  13.929
94899W        W63293  22.285  43.640  14.423
94900W        W63294   3.770  37.751   3.581
94901W        W63295  14.225   9.207   0.662
94902W        W63296  36.399  39.053  11.236
94903W        W63297  44.021  44.041  11.916
94904W        W63298   3.789  11.272  14.576
94905W        W63299  25.688  11.222   0.438
94906W        W63300   8.098  25.163  14.470
94907W        W63301  23.606  20.146  11.428
94908W        W63302  26.562   4.378   0.344
94909W        W63303  15.263  41.881  10.647
94910W        W63304   6.034  14.717   4.135
94911W        W63305  24.937  16.861   3.275
94912W        W63306  17.590  22.061  14.808
94913W        W63307  27.128  33.314   3.739
94914W        W63308  37.756  32.594   3.416
94915W        W63309  22.080  14.908   4.490
94916W        W63310  18.105  12.515   0.374
94917W        W63311  16.534  23.543  12.913
94918W        W63312  17.668  30.821  13.107
94919W        W63313   2.706  11.602   2.703
94920W        W63314  28.034   3.922   3.643
94921W        W63315  27.580  27.228   1.892
94922W        W63316  36.054  40.484  11.129
94923W        W63317   7.746  15.651   4.578
94924W        W63318  22.511  21.487   4.307
94925W        W63319  10.206  32.165  11.186
94926W        W63320  38.465  20.566   2.863
94927W        W63321  16.402  17.404  12.965
94928W        W63322  36.434  10.323   1.617
94929W        W63323  15.385  13.606   1.527
94930W        W63324  15.144  37.172  12.499
94931W        W63325  40.645  27.217  14.646
94932W        W63326  30.192   2.291   4.010
94933W        W63327  18.211  14.041   0.247
94934W        W63328  13.117  18.644  14.356
94935W        W63329  31.983  11.400  12.501
94936W        W63330  12.866  27.261  12.520
94937W        W63331  41.904  39.569   4.072
94938W        W63332   4.901   1.461   4.158
94939W        W63333  21.755   2.307  12.381
94940W        W63334   8.199  14.852  13.684
94941W        W63335  41.580   2.818   3.010
94942W        W63336  32.774  11.841   2.115
94943W        W63337  30.524  44.795   0.911
94944W        W63338  24.944  29.952  11.912
94945W        W63339   1.988  43.349   3.151
94946W        W63340  10.659  22.720  11.052
94947W        W63341  26.101  35.054   0.447
94948W        W63342  30.534  11.660   1.718
94949W        W63343  43.917  38.374   0.186
94950W        W63344   5.273   0.913   1.336
94951W        W63345   4.398  29.647   0.793
94952W        W63346   5.271  35.964  12.870
94953W        W63347  21.287   4.341  11.533
94954W        W63348  14.741  14.624  12.089
94955W        W63349  20.883  44.910   4.011
94956W        W63350  42.006  19.554  11.968
94957W        W63351  20.693  25.294  11.946
94958W        W63352  39.538  33.449   1.848
94959W        W63353  16.558  38.311   0.415
94960W        W63354  26.099   1.728  14.947
94961W        W63355  43.726  34.853  12.921
94962W        W63356   6.906  27.070  10.241
94963W        W63357  36.016   0.460  14.792
94964W        W63358  41.984  27.440   2.480
94965W        W63359  41.589  37.461   3.582
94966W        W63360  10.279  34.788  13.581
94967W        W63361  16.228   1.830   2.755
94968W        W63362  44.964  38.527  12.497
94969W        W63363  19.826   4.327  13.943
94970W        W63364  29.297  23.570   2.310
94971W        W63365   3.592  39.953  13.486
94972W        W63366  21.300  44.945  12.390
94973W        W63367  43.430  12.061   0.888
94974W        W63368  33.942  44.423   9.531
94975W        W63369  12.803  22.041   4.096
94976W        W63370  30.199  29.422  13.501
94977W        W63371  17.382  40.076  10.717
94978W        W63372  39.962  30.377   3.620
94979W        W63373  36.072  40.005   4.553
94980W        W63374  19.058   9.368   4.161
94981W        W63375  36.027   2.557  14.908
94982W        W63376  22.220  31.966   4.728
94983W        W63377  40.960  32.177   2.434
94984W        W63378  23.500  43.856   1.874
94985W        W63379  37.393  25.962   4.093
94986W        W63380   5.200   0.784   3.825
94987W        W63381   0.458  24.143  13.489
94988W        W63382  33.950  35.476  11.511
94989W        W63383  24.608   3.004   3.789
94990W        W63384  26.032  28.955  10.872
94991W        W63385  25.313  40.597  12.386
94992W        W63386  29.592   4.728   0.264
94993W        W63387   3.465  18.535  12.022
94994W        W63388   3.850  10.622   0.429
94995W        W63389  27.941  27.035   4.500
94996W        W63390  28.719  36.417  14.061
94997W        W63391  31.971  31.527  10.641
94998W        W63392  20.744  35.118   0.694
94999W        W63393  33.487  22.193   2.644
95000W        W63394   2.002  44.470   3.614
95001W        W63395  15.819  29.039  11.051
95002W        W63396  29.577  19.099   2.790
95003W        W63397  27.198  22.095   2.884
95004W        W63398  41.816   3.312  13.475
95005W        W63399  26.527  11.700   1.955
95006W        W63400  26.997  12.372  14.325
95007W        W63401  23.327  14.690  14.851
95008W        W63402   6.906  43.734  14.254
95009W        W63403  32.676  20.290  12.886
95010W        W63404  17.244  28.998  13.948
95011W        W63405  31.439   3.863   3.494
95012W        W63406  40.064  19.829  13.475
95013W        W63407   0.208  22.436  10.767
95014W        W63408  20.933  13.595   3.284
95015W        W63409  42.069  35.397   1.811
95016W        W63410  42.125  43.940  13.504
95017W        W63411  40.837  14.076   4.903
95018W        W63412  31.360  39.800   5.093
95019W        W63413  10.022  36.053  13.720
95020W        W63414  41.168  38.582   4.991
95021W        W63415   3.934  38.075   3.198
95022W        W63416  10.207  21.793   3.761
95023W        W63417  22.579  12.991  12.375
95024W        W63418  32.040   5.733  12.984
95025W        W63419  17.275  18.478  12.410
95026W        W63420   0.902  20.716   2.746
95027W        W63421   5.169  15.967   4.505
95028W        W63422  14.749  43.187   0.966
95029W        W63423  27.947  31.523  12.976
95030W        W63424  21.920  17.559  12.533
95031W        W63425  33.286  20.600   2.215
95032W        W63426  26.757  15.084   4.530
95033W        W63427  36.993   9.336   4.310
95034W        W63428  34.922  37.396   4.007
95035W        W63429   6.775  33.996   0.037
95036W        W63430   8.334  35.482  13.872
95037W        W63431   8.094   3.244   2.302
95038W        W63432  39.040  14.034   4.431
95039W        W63433   7.345  28.838   2.189
95040W        W63434   5.661  25.124   3.174
95041W        W63435  23.705  22.292  12.048
95042W        W63436  37.036  15.247   0.809
95043W        W63437  39.505  11.876   2.817
95044W        W63438  36.147  33.575  14.542
95045W        W63439  15.585  16.624  14.283
95046W        W63440  23.450  18.180   0.294
95047W        W63441  43.437  19.059   4.054
95048W        W63442  16.824  43.694  14.945
95049W        W63443  20.762   6.841  12.563
95050W        W63444  12.557  19.216  13.825
95051W        W63445  40.006  11.728   1.697
95052W        W63446   8.083  12.342   4.819
95053W        W63447  39.966  26.029  11.567
95054W        W63448  20.804   0.324  13.019
95055W        W63449  18.024  33.477  11.085
95056W        W63450  32.054  15.035  10.598
95057W        W63451  26.664  10.707  10.605
95058W        W63452   9.545   6.903   3.111
95059W        W63453  40.382   0.183   4.335
95060W        W63454  32.915   1.457   4.809
95061W        W63455  30.385  31.518  11.949
95062W        W63456  24.190  18.823  11.685
95063W        W63457  13.613  22.600  11.516
95064W        W63458  27.558   6.849   4.290
95065W        W63459  24.457  44.140  11.099
95066W        W63460  34.864   6.696   2.452
95067W        W63461  13.124  31.578   2.801
95068W        W63462  21.290  11.822  12.449
95069W        W63463  28.761   4.346  14.320
95070W        W63464  14.310  14.870   2.834
95071W        W63465  41.330  40.493  12.905
95072W        W63466   0.315  35.994  13.353
95073W        W63467  29.037  12.422   4.539
95074W        W63468  36.987   4.255  10.603
95075W        W63469   7.198  39.100  10.699
95076W        W63470  25.631  29.718   1.244
95077W        W63471  19.212  35.507  13.220
95078W        W63472  36.388  13.799   1.172
95079W        W63473  13.095  41.824  12.869
95080W        W63474   6.846  39.228  13.458
95081W        W63475  24.203  43.823  11.981
95082W        W63476  14.362  36.584   3.731
95083W        W63477  17.505  36.981  12.484
95084W        W63478  13.794  40.240  13.476
95085W        W63479  15.489   1.653   1.699
95086W        W63480  39.769   6.299  11.124
95087W        W63481  37.380  29.609   2.822
95088W        W63482   1.207  12.685   4.676
95089W        W63483   2.909   5.717   0.107
95090W        W63484   9.848  16.170  14.891
95091W        W63485   4.476  12.099  12.028
95092W        W63486  28.224   1.350   2.271
95093W        W63487   3.468  35.666  13.390
95094W        W63488  18.900  43.398  13.609
95095W        W63489  37.847  13.902   3.170
95096W        W63490  40.115  21.587   0.600
95097W        W63491  22.264   4.088  10.220
95098W        W63492  14.853  18.151  10.556
95099W        W63493  40.746  21.754  11.656
95100W        W63494  41.434  41.572  12.901
95101W        W63495   3.488  32.085  14.373
95102W        W63496  23.597  32.466  11.508
95103W        W63497  18.468  40.658  11.936
95104W        W63498  37.231  12.101  13.449
95105W        W63499   1.044  37.889   3.718
95106W        W63500  12.370  34.049  10.497
95107W        W63501  11.565  16.950   2.083
95108W        W63502  29.199   2.854  12.575
95109W        W63503  32.301  38.974   3.268
95110W        W63504  13.493  19.091  12.012
95111W        W63505  21.449   3.233  11.998
95112W        W63506   0.509   9.822   2.007
95113W        W63507  27.081  42.361  10.191
95114W        W63508  17.807  30.159  11.033
95115W        W63509  21.673  20.522  10.713
95116W        W63510  16.798  28.318  12.367
95117W        W63511  17.685   3.777   3.715
95118W        W63512  26.417  41.849  13.370
95119W        W63513  30.542  32.142   3.987
95120W        W63514  39.544   9.773   0.963
95121W        W63515  14.284  12.057  10.680
95122W        W63516   1.762   1.376   0.969
95123W        W63517   9.813  35.326   1.728
95124W        W63518  39.515  43.503   3.451
95125W        W63519  42.627  18.841   1.342
95126W        W63520   2.472  40.439  11.659
95127W        W63521  40.269  12.072   0.918
95128W        W63522  28.614   8.196  14.583
95129W        W63523   5.786  30.660  10.787
95130W        W63524   0.981  25.344   4.014
95131W        W63525  32.304  35.918   4.106
95132W        W63526   2.885  44.241   2.175
95133W        W63527  24.638  22.221  10.909
95134W        W63528   7.208  29.108   4.108
95135W        W63529   0.967  28.677  13.022
95136W        W63530  24.133  32.965   0.518
95137W        W63531  30.957   8.374   0.767
95138W        W63532  35.065   6.334  12.773
95139W        W63533   9.285  19.071   2.776
95140W        W63534  42.262  23.273  14.452
95141W        W63535  27.274  36.586   2.792
95142W        W63536  17.549  27.905   4.198
95143W        W63537  40.428   0.757   3.340
95144W        W63538  15.073   0.741  13.010
95145W        W63539  13.305  18.155  14.476
95146W        W63540  25.054  44.766   3.927
95147W        W63541  43.518  23.330  13.486
95148W        W63542  25.481  33.027  11.836
95149W        W63543  20.507  31.629   2.674
95150W        W63544  37.896   8.914   2.829
95151W        W63545  44.108   7.742  11.061
95152W        W63546  30.887   3.136   2.964
95153W        W63547  18.373   3.307   4.190
95154W        W63548  27.473   3.632  12.561
95155W        W63549  11.676  13.572   3.316
95156W        W63550  17.060  44.567  13.971
95157W        W63551  18.320   0.220  10.551
95158W        W63552  33.580  25.739   4.106
95159W        W63553  16.048  34.895  14.840
95160W        W63554  34.084  14.957  12.565
95161W        W63555   7.315  39.829  13.040
95162W        W63556  37.640  22.276  11.653
95163W        W63557  14.139  21.555  14.238
95164W        W63558  20.141  18.815   3.558
95165W        W63559  42.528  19.809  10.982
95166W        W63560  22.813  31.505   4.187
95167W        W63561  42.004   7.578   1.862
95168W        W63562  39.801  14.332   1.275
95169W        W63563   6.686  24.628  12.873
95170W        W63564  27.773  41.293  12.416
95171W        W63565   6.886  18.741   2.435
95172W        W63566   4.063  40.911   2.704
95173W        W63567  12.427  29.629  12.534
95174W        W63568  13.606  24.969   1.379
95175W        W63569  13.786   5.748  12.084
95176W        W63570  34.027  26.476  10.526
95177W        W63571  11.870  28.873   4.081
95178W        W63572  15.919  27.910   2.360
95179W        W63573  35.873  30.917  10.559
95180W        W63574  13.161  15.865   2.842
95181W        W63575  26.523  41.135  10.585
95182W        W63576  37.770  41.800   0.882
95183W        W63577  25.015  16.273  10.945
95184W        W63578  10.952  39.370   3.164
95185W        W63579  32.081  10.278   2.637
95186W        W63580  40.521  34.060  12.322
95187W        W63581  18.142   1.940   0.768
95188W        W63582   9.659  12.164   3.231
95189W        W63583  44.426   7.727   3.763
95190W        W63584  14.229  39.303  14.381
95191W        W63585   9.832  26.827   0.909
95192W        W63586  22.526  41.086   3.637
95193W        W63587  43.867  22.951  11.926
95194W        W63588   7.890  10.237   2.307
95195W        W63589   9.930  17.295   1.723
95196W        W63590  37.500  26.092   4.573
95197W        W63591  24.231  44.812   9.746
95198W        W63592  38.837  11.841  14.391
95199W        W63593  33.494  13.828   2.224
95200W        W63594  19.526  19.036  14.905
95201W        W63595   8.517   8.697   4.912
95202W        W63596  39.429  32.320  13.970
95203W        W63597  31.568  36.054   2.746
95204W        W63598  24.647   7.490  12.254
95205W        W63599  30.084  44.202   4.626
95206W        W63600   5.257  17.687   3.604
95207W        W63601  35.793   7.392  12.433
95208W        W63602  13.507  19.306  11.555
95209W        W63603  23.470   7.427   0.425
95210W        W63604  32.448  35.997  14.061
95211W        W63605   9.379  36.945  14.293
95212W        W63606  21.727   7.420   1.473
95213W        W63607  38.060  17.927  12.955
95214W        W63608  41.275  35.350   1.383
95215W        W63609  42.827  19.921  14.421
95216W        W63610   8.210  31.411  12.082
95217W        W63611   2.944  19.598  13.591
95218W        W63612  27.917  29.101  10.011
95219W        W63613  17.571  44.857   3.632
95220W        W63614  13.290  23.806   4.196
95221W        W63615  15.790  14.785   4.095
95222W        W63616  24.223  19.999  12.138
95223W        W63617  19.664  40.941  14.543
95224W        W63618  39.056  41.510  11.515
95225W        W63619  39.068  16.769   1.673
95226W        W63620  35.650   9.202   4.699
95227W        W63621  24.204   8.754  10.158
95228W        W63622   5.820  27.858   2.314
95229W        W63623   9.197  43.749   3.755
95230W        W63624  19.007  30.083  14.551
95231W        W63625  37.610  16.665  11.559
95232W        W63626  15.197  23.066  13.464
95233W        W63627  13.658  41.390   1.802
95234W        W63628   9.871  21.554  11.511
95235W        W63629  44.316  31.657  12.498
95236W        W63630   0.186  29.394   0.192
95237W        W63631  12.620  44.427  12.466
95238W        W63632  33.968  14.041  13.871
95239W        W63633  30.692   6.558   2.700
95240W        W63634  35.383  19.175   2.085
95241W        W63635  14.440  24.817  13.129
95242W        W63636   3.229  24.247  14.717
95243W        W63637  39.480  23.000   3.386
95244W        W63638   7.964   2.826   3.867
95245W        W63639  14.206  23.912   2.661
95246W        W63640  18.567  18.412  13.504
95247W        W63641  42.732  44.040   0.354
95248W        W63642  20.255  30.455  12.791
95249W        W63643  14.344  29.066   0.747
95250W        W63644  33.923  16.890  12.030
95251W        W63645  27.868   2.148   4.167
95252W        W63646  27.819  16.574   0.167
95253W        W63647  35.352  26.876   4.158
95254W        W63648  27.886  16.593  14.360
95255W        W63649  31.980  23.472  11.848
95256W        W63650  36.528   5.931   2.126
95257W        W63651  31.186   9.240  12.910
95258W        W63652  17.408  16.709   0.373
95259W        W63653  37.475  13.657   3.431
95260W        W63654  29.099  22.507   3.401
95261W        W63655  22.623  15.184  11.719
95262W        W63656  17.589   0.873   3.460
95263W        W63657  15.080  24.189  12.948
95264W        W63658  39.626  41.014   2.266
95265W        W63659  28.771  26.668  11.513
95266W        W63660   9.252  32.272   3.184
95267W        W63661   1.026  38.862  14.119
95268W        W63662  44.721  27.462  10.696
95269W        W63663  40.422  15.865  11.507
95270W        W63664  44.301  43.414   4.128
95271W        W63665  18.509  27.675  12.027
95272W        W63666  19.609  13.056   1.280
95273W        W63667   1.211  24.308   1.501
95274W        W63668  14.826   8.863   4.646
95275W        W63669  29.305  41.440  12.593
95276W        W63670  15.253  26.585   4.112
95277W        W63671  40.439  23.127   3.331
95278W        W63672  42.314  27.357  13.177
95279W        W63673  18.231  42.475  11.133
95280W        W63674  15.273  14.767   4.880
95281W        W63675  40.142  27.008  11.559
95282W        W63676  32.726  33.575  10.883
95283W        W63677  42.709  26.628   4.342
95284W        W63678  36.007   3.386   1.932
95285W        W63679  29.852  43.721  11.682
95286W        W63680  17.428  37.388   9.945
95287W        W63681  40.285  15.598   2.226
95288W        W63682  22.526  39.735  10.190
95289W        W63683  11.203  10.932   2.835
95290W        W63684   5.932  43.840  12.505
95291W        W63685  29.254   3.817   4.194
95292W        W63686   9.430  22.181   3.559
95293W        W63687  41.577  31.145  13.748
95294W        W63688  20.392   5.556   0.314
95295W        W63689   5.391  25.811   3.658
95296W        W63690  11.752  41.278  14.956
95297W        W63691  34.866  13.902  11.927
95298W        W63692  16.049  22.685  14.808
95299W        W63693   9.169   9.768   2.376
95300W        W63694  32.638  14.739   4.212
95301W        W63695  18.067   8.729   2.462
95302W        W63696  17.710  10.731  10.691
95303W        W63697  44.379  17.042   1.182
95304W        W63698   6.499  41.996  13.004
95305W        W63699  14.017   2.097   2.307
95306W        W63700  38.063  34.446  12.061
95307W        W63701  17.943  44.508  14.302
95308W        W63702   2.195  24.756   0.792
95309W        W63703  31.086  29.338   1.378
95310W        W63704  18.880  44.497   1.678
95311W        W63705  25.048  14.757   1.131
95312W        W63706  25.003  30.963   2.772
95313W        W63707  27.744  21.790  14.234
95314W        W63708   5.868   0.809  13.526
95315W        W63709  34.889   0.708   4.496
95316W        W63710   1.286  43.316   0.414
95317W        W63711  34.228  24.585  10.760
95318W        W63712  13.129  19.255  12.369
95319W        W63713  13.740   1.824   1.374
95320W        W63714  19.611  32.373   3.735
95321W        W63715   5.127  18.333   5.023
95322W        W63716   7.554  17.118   1.872
95323W        W63717  32.370  12.852  11.658
95324W        W63718  27.691  37.880   0.920
95325W        W63719  32.838  20.997  11.346
95326W        W63720   3.939  19.767   0.401
95327W        W63721  20.602  20.587  11.244
95328W        W63722  41.347  38.769  13.912
95329W        W63723  40.012  30.641  14.979
95330W        W63724  35.152  11.334  13.063
95331W        W63725  25.872  10.385  11.618
95332W        W63726  15.103   4.360   0.816
95333W        W63727  12.355   0.925  11.171
95334W        W63728  18.698  25.621  10.741
95335W        W63729  37.076  40.443   1.818
95336W        W63730  13.458   9.625  11.602
95337W        W63731  22.461  10.309  11.652
95338W        W63732   5.749  30.198   1.894
95339W        W63733  23.209   7.797  12.477
95340W        W63734  42.104   1.191  11.414
95341W        W63735  29.304  32.675   1.533
95342W        W63736  26.968  24.112   4.862
95343W        W63737  25.604  26.123  13.231
95344W        W63738  19.548  35.472  10.831
95345W        W63739  30.453  27.572  12.145
95346W        W63740  42.977  34.966   4.747
95347W        W63741  37.767   4.926  12.489
95348W        W63742  39.174   6.787  12.848
95349W        W63743  39.492  27.471  10.732
95350W        W63744  22.305  44.486   1.408
95351W        W63745  17.291   1.427  14.857
95352W        W63746  26.862  17.982   1.293
95353W        W63747  33.405   9.615   4.102
95354W        W63748  41.034  13.011   0.917
95355W        W63749  15.843  12.907  14.577
95356W        W63750   7.015  43.366  13.904
95357W        W63751  33.787   6.421  14.358
95358W        W63752  15.708  23.560   3.095
95359W        W63753   3.762   4.611   2.046
95360W        W63754  35.310   2.257   5.181
95361W        W63755  16.360  44.836  12.517
95362W        W63756  20.523  13.764   4.477
95363W        W63757  33.517  44.250   0.445
95364W        W63758   3.263   4.673   2.293
95365W        W63759  29.724  40.857   1.826
95366W        W63760   4.263  24.778  10.580
95367W        W63761  30.151  34.854  12.976
95368W        W63762  10.684  43.837  12.550
95369W        W63763  29.052   2.208   2.552
95370W        W63764  43.891  30.049   4.346
95371W        W63765   2.007  21.873  13.014
95372W        W63766  19.272  31.416   3.796
95373W        W63767   2.885  30.968  14.539
95374W        W63768  10.085  13.321  13.791
95375W        W63769  38.274  17.837   0.645
95376W        W63770  15.640  15.110   0.848
95377W        W63771   0.463  14.193  12.400
95378W        W63772  23.630  15.129  12.109
95379W        W63773  28.967  34.980  14.276
95380W        W63774  42.791  34.810   9.924
95381W        W63775  43.979  12.176   2.115
95382W        W63776  43.583   9.223  12.780
95383W        W63777  24.107  30.742  12.943
95384W        W63778  12.635  40.263  12.013
95385W        W63779  27.857   6.500   1.942
95386W        W63780   2.895  34.025   2.678
95387W        W63781   3.429   0.743   0.877
95388W        W63782   3.933  20.258   4.932
95389W        W63783  35.586  39.001   2.585
95390W        W63784  16.418  12.252   0.335
95391W        W63785  15.360  21.445   2.175
95392W        W63786  43.519  21.332   4.624
95393W        W63787  44.799  20.972   3.227
95394W        W63788  36.662  37.940  13.470
95395W        W63789  32.847  17.790  14.404
95396W        W63790   8.980  22.514  11.892
95397W        W63791  37.169  26.501   1.352
95398W        W63792  18.091  31.123   3.231
95399W        W63793  40.136   3.688  10.774
95400W        W63794  28.403  33.599   4.050
95401W        W63795   8.775  27.019   1.691
95402W        W63796  41.397  19.062   3.783
95403W        W63797  18.247  35.308  10.996
95404W        W63798  11.705   9.008   5.062
95405W        W63799  38.644  20.137  12.735
95406W        W63800  38.836  20.037   0.170
95407W        W63801  36.903  41.317   2.977
95408W        W63802  18.704  18.632   4.933
95409W        W63803   3.163  17.257   2.220
95410W        W63804   1.438  23.738  11.987
95411W        W63805  19.171   7.374  11.720
95412W        W63806  16.042  15.855  14.290
95413W        W63807  39.099  31.558   1.743
95414W        W63808  23.965  20.355  12.581
95415W        W63809  25.106   3.296   0.981
95416W        W63810  42.752  33.416   2.377
95417W        W63811   5.856  23.191  11.792
95418W        W63812   5.969  40.028  13.950
95419W        W63813  42.671   8.501  10.738
95420W        W63814  42.543  12.637   4.297
95421W        W63815  23.055  16.244  13.072
95422W        W63816   6.793  17.535   0.610
95423W        W63817   1.922  11.052   2.912
95424W        W63818  30.772   2.018  12.107
95425W        W63819   4.775  28.528  12.158
95426W        W63820   4.775  23.228  13.386
95427W        W63821  24.747  22.430  12.771
95428W        W63822  15.115  36.926   2.282
95429W        W63823  29.604  32.874   3.852
95430W        W63824  43.978  14.766   4.333
95431W        W63825  19.921  12.707  11.612
95432W        W63826  19.219  19.148  12.977
95433W        W63827  24.697  29.874   1.770
95434W        W63828   2.313  32.538  14.032
95435W        W63829  14.144  27.258   0.871
95436W        W63830   0.578  30.139   0.665
95437W        W63831  29.128  39.758  14.594
95438W        W63832   1.409  21.933   1.329
95439W        W63833  18.859  22.526  13.332
95440W        W63834  28.121  15.834  12.554
95441W        W63835  16.698  42.831   2.299
95442W        W63836   5.573  12.358  11.544
95443W        W63837  29.804  11.273   3.847
95444W        W63838  25.448  31.257  14.305
95445W        W63839   3.902  30.144  14.450
95446W        W63840  37.942   5.701   0.085
95447W        W63841  26.578  31.529   1.399
95448W        W63842  34.113  43.878   3.208
95449W        W63843  36.787  36.053  10.777
95450W        W63844  44.721  37.167  12.153
95451W        W63845   6.072  20.542   4.135
95452W        W63846  17.156  12.293   3.392
95453W        W63847  31.885  16.930   3.568
95454W        W63848  35.315  23.065   0.493
95455W        W63849   1.435  39.423   0.311
95456W        W63850  14.822  18.607   3.347
95457W        W63851  16.684  30.192   0.044
95458W        W63852  35.666  31.315   3.718
95459W        W63853  11.662   7.260   3.832
95460W        W63854  37.770  14.162   0.337
95461W        W63855  21.288  35.823   3.676
95462W        W63856  43.950  22.269  14.880
95463W        W63857  31.308  37.550  11.409
95464W        W63858  35.082  43.284   3.712
95465W        W63859  25.509  14.750   1.777
95466W        W63860  22.070  14.394  14.848
95467W        W63861  40.881  23.885   2.873
95468W        W63862  12.366  25.438   2.178
95469W        W63863  37.851  11.736  12.973
95470W        W63864  42.316  20.071   3.778
95471W        W63865  42.582  43.347   0.280
95472W        W63866   3.248  10.612  13.507
95473W        W63867  13.320  16.290   0.908
95474W        W63868  11.220  11.744  11.626
95475W        W63869  35.884  16.379  11.964
95476W        W63870   8.103  11.774  11.499
95477W        W63871  28.278   0.693   0.236
95478W        W63872   7.371   7.637  14.828
95479W        W63873  44.765   5.860  11.174
95480W        W63874  32.614  32.519   4.634
95481W        W63875   6.988  16.574   1.054
95482W        W63876   2.297  23.309  12.855
95483W        W63877   0.865  28.214  13.270
95484W        W63878  41.546  24.173  11.223
95485W        W63879  36.071  33.029  12.131
95486W        W63880  40.851  14.132  14.316
95487W        W63881   5.455  15.609  14.841
95488W        W63882  19.501  16.271  13.874
95489W        W63883   8.123   0.767  11.895
95490W        W63884  29.832  32.690  11.752
95491W        W63885  42.294  17.149   1.701
95492W        W63886  30.700  42.871  13.929
95493W        W63887  27.054  40.275  12.180
95494W        W63888  13.237  42.774  10.306
95495W        W63889  11.350   6.445   4.010
95496W        W63890  18.314  43.385  12.349
95497W        W63891  18.106   1.264  12.573
95498W        W63892  19.586  23.731  10.997
95499W        W63893   3.437  35.459   1.342
95500W        W63894   6.942  37.461  13.400
95501W        W63895   2.772   7.093  12.681
95502W        W63896   4.676  16.233   4.072
95503W        W63897  32.522  38.219   3.668
95504W        W63898   7.404   0.476   0.348
95505W        W63899  11.221  21.698  14.694
95506W        W63900   3.257  38.464   3.666
95507W        W63901  21.101   1.336   1.271
95508W        W63902   1.382  28.177   4.961
95509W        W63903  44.686   1.736   1.277
95510W        W63904  43.970  36.615   0.879
95511W        W63905  15.660   8.346   0.355
95512W        W63906  35.505  40.869   2.716
95513W        W63907  21.047  42.881  14.343
95514W        W63908  22.100  27.090   4.274
95515W        W63909   8.188  24.460  12.587
95516W        W63910   9.425  10.342   0.436
95517W        W63911  40.281  37.983  13.067
95518W        W63912  13.020   6.184  14.503
95519W        W63913   5.300  18.861  13.900
95520W        W63914  27.018  23.151   3.851
95521W        W63915  33.811  16.710   3.610
95522W        W63916  19.504  33.809  11.166
95523W        W63917  19.232  13.130  13.854
95524W        W63918  32.533  33.381  12.962
95525W        W63919  39.430  10.649   2.299
95526W        W63920  39.526  13.196  14.877
95527W        W63921  24.174   9.148  10.509
95528W        W63922   5.542  22.678   3.410
95529W        W63923  15.028  41.572  14.923
95530W        W63924  22.865  31.052  12.493
95531W        W63925  27.573  27.740   1.637
95532W        W63926  16.158  41.812   0.410
95533W        W63927   3.728  18.352   0.962
95534W        W63928  35.825  29.940   2.410
95535W        W63929  42.819  12.929  10.642
95536W        W63930  15.793  33.972  10.654
95537W        W63931   9.882   1.301  14.566
95538W        W63932  30.927  12.862  11.533
95539W        W63933  44.261  24.932   3.839
95540W        W63934   2.954  14.258  14.720
95541W        W63935  40.428  25.629  14.348
95542W        W63936  35.693   9.708   3.246
95543W        W63937  40.308  14.282   2.149
95544W        W63938  13.603  38.175  12.270
95545W        W63939  17.012   7.371  13.424
95546W        W63940  19.701  38.856  14.021
95547W        W63941  25.109  14.865   2.366
95548W        W63942  24.620  43.313  14.822
95549W        W63943   0.746  18.638  12.982
95550W        W63944  27.364  33.952  12.787
95551W        W63945  18.771  16.292   0.458
95552W        W63946   4.823  31.682  11.735
95553W        W63947  41.849  31.859  11.165
95554W        W63948  28.451   9.166  10.677
95555W        W63949  35.524  37.913   2.617
95556W        W63950  10.525  28.148   3.649
95557W        W63951  12.146  36.474   1.182
95558W        W63952  40.562  35.047   4.726
95559W        W63953   4.266  23.649   0.339
95560W        W63954  14.860  12.703   1.074
95561W        W63955  37.427  43.779   1.255
95562W        W63956  21.639   8.820   1.169
95563W        W63957   1.937  26.948   1.238
95564W        W63958   6.506  28.024   5.045
95565W        W63959   9.812  39.474   4.171
95566W        W63960   7.982  39.056  11.148
95567W        W63961  40.557  33.566  11.577
95568W        W63962  40.772  13.671   2.694
95569W        W63963  10.346  32.978   0.761
95570W        W63964  35.550  30.686   0.273
95571W        W63965  30.566  25.233   3.182
95572W        W63966  14.921  13.819   1.450
95573W        W63967  13.533  15.336   4.142
95574W        W63968  29.539  19.646   1.688
95575W        W63969   4.774  10.361   0.809
95576W        W63970  11.769  35.870  13.982
95577W        W63971   2.982  29.136  11.963
95578W        W63972   3.507  28.138   0.832
95579W        W63973  20.682  39.336   4.613
95580W        W63974  31.445   7.449  10.772
95581W        W63975  29.180   2.812  10.629
95582W        W63976  11.634  17.010   0.255
95583W        W63977  11.239  36.524   2.197
95584W        W63978   5.910   7.703   2.192
95585W        W63979  12.821  32.959  14.857
95586W        W63980  13.354  42.395  14.641
95587W        W63981  35.786  11.856   1.161
95588W        W63982  15.164   4.393  12.996
95589W        W63983   6.709  27.679   1.609
95590W        W63984  23.740  23.188  11.239
95591W        W63985   2.344  34.166  13.631
95592W        W63986   7.792   0.952   2.375
95593W        W63987  17.092  44.610  12.614
95594W        W63988  17.198   2.343  14.320
95595W        W63989   5.908  22.730  10.436
95596W        W63990  44.423  29.865   1.825
95597W        W63991  20.471  12.869   1.215
95598W        W63992  37.065  14.189  11.650
95599W        W63993   1.491  17.789   4.499
95600W        W63994  23.037  32.547   4.597
95601W        W63995  14.813   8.716  14.475
95602W        W63996  36.906  22.557   3.716
95603W        W63997  38.563  13.548  10.734
95604W        W63998  18.252  10.506   4.139
95605W        W63999  26.649   4.377   3.722
95606W        W64000  21.133   1.860   1.403
95607W        W64001   9.780  38.365   4.208
95608W        W64002  41.038  29.987   1.120
95609W        W64003  20.290   7.752   4.843
95610W        W64004  35.443  43.269  13.445
95611W        W64005   1.972  36.316   4.426
95612W        W64006  12.133   4.353  12.812
95613W        W64007  20.248  42.546   4.159
95614W        W64008  33.043  18.485   3.670
95615W        W64009  28.253  18.182   3.740
95616W        W64010  43.534  34.643  14.547
95617W        W64011  34.595  27.701   2.377
95618W        W64012  44.745  14.198  12.789
95619W        W64013  37.885  24.521  11.689
95620W        W64014  12.918   4.180   1.376
95621W        W64015  44.684   4.838  12.209
95622W        W64016  36.467  12.663  13.192
95623W        W64017  29.050  41.068  11.434
95624W        W64018  35.571  34.866  13.461
95625W        W64019  38.610  37.843  13.268
95626W        W64020  30.779  18.335   3.320
95627W        W64021  18.298  13.381   4.821
95628W        W64022  42.394   6.431  11.095
95629W        W64023  29.639  18.003  13.088
95630W        W64024   8.696  39.272  13.425
95631W        W64025  37.581  37.842   2.399
95632W        W64026  24.249  35.026  12.522
95633W        W64027   5.949   4.374  11.206
95634W        W64028  31.611  42.777  13.120
95635W        W64029  29.698  18.877  12.031
95636W        W64030  11.801  10.824   1.953
95637W        W64031   6.966  42.922  12.691
95638W        W64032  13.896  21.222   0.813
95639W        W64033  37.147  34.241  12.625
95640W        W64034  23.488  27.882  12.766
95641W        W64035  20.742  11.761  11.434
95642W        W64036  17.466  35.643  13.444
95643W        W64037  40.845  13.378   2.278
95644W        W64038  14.314  19.113  14.204
95645W        W64039  25.216  10.789   1.750
95646W        W64040   4.220  23.767  11.486
95647W        W64041  42.406  32.871  14.898
95648W        W64042   4.312  13.000  14.350
95649W        W64043   8.940   6.585   0.848
95650W        W64044  19.087  16.662  14.692
95651W        W64045  23.464   3.933   0.000
95652W        W64046  38.545   4.790  14.806
95653W        W64047   1.656   3.385   3.033
95654W        W64048  19.069  44.490  14.910
95655W        W64049  37.373   6.245   1.884
95656W        W64050  29.224  34.550   2.768
95657W        W64051  15.980  11.955  13.545
95658W        W64052   2.816   0.587   4.820
95659W        W64053  13.622   4.307   1.890
95660W        W64054  24.625  37.422  10.097
95661W        W64055   2.188  13.709  10.344
95662W        W64056   4.311  15.804   5.412
95663W        W64057  20.613  10.285   0.298
95664W        W64058   6.423  28.179  12.071
95665W        W64059  23.208  21.206  13.405
95666W        W64060  14.377  31.577   2.333
95667W        W64061  41.893  16.089  10.467
95668W        W64062  27.059  19.320  14.983
95669W        W64063  20.219   6.720   3.679
95670W        W64064  41.989  35.208   3.318
95671W        W64065  36.581  25.202  12.970
95672W        W64066   3.863  25.511   1.322
95673W        W64067   1.607  24.474  13.659
95674W        W64068  35.963  28.034   1.324
95675W        W64069   6.013   2.924   0.845
95676W        W64070  27.597  27.632  12.909
95677W        W64071   3.991  30.439  11.120
95678W        W64072  24.225  38.373   0.009
95679W        W64073  10.298  30.249   2.412
95680W        W64074  27.928   4.059  12.597
95681W        W64075  31.312  38.711   1.924
95682W        W64076  36.053  40.998  11.154
95683W        W64077  38.408  42.776   2.041
95684W        W64078   1.341  37.772   1.371
95685W        W64079   6.980  31.194  11.536
95686W        W64080  27.551  11.364  13.003
95687W        W64081  34.647  35.975  13.013
95688W        W64082  20.537  27.279   1.382
95689W        W64083  34.538  28.878  13.442
95690W        W64084   5.119   4.298   2.685
95691W        W64085  12.400  15.752   4.117
95692W        W64086  21.345  21.176  12.940
95693W        W64087   6.330   8.666   2.258
95694W        W64088   7.376  16.097  14.422
95695W        W64089  36.583  43.385   2.194
95696W        W64090   4.805  23.805  13.378
95697W        W64091  21.976  33.991  11.553
95698W        W64092   9.001  21.565   1.905
95699W        W64093  21.706  20.635  12.022
95700W        W64094  38.802   6.967   1.237
95701W        W64095   7.255  25.491  12.051
95702W        W64096  37.617  21.005  10.597
95703W        W64097  37.502   7.716   0.269
95704W        W64098  12.021   6.022   1.286
95705W        W64099  27.564  30.427  13.418
95706W        W64100   1.416   9.376   0.747
95707W        W64101  14.274   1.345  12.818
95708W        W64102  21.595  38.866   0.861
95709W        W64103   3.217  17.506   3.552
95710W        W64104  42.003  36.303  10.889
95711W        W64105  15.634  11.400   3.335
95712W        W64106  16.179  26.935  11.385
95713W        W64107  44.407  15.560   4.509
95714W        W64108   0.123  17.108   0.094
95715W        W64109   0.734   8.843  12.092
95716W        W64110  25.010  22.492   4.113
95717W        W64111   1.259  10.401  14.235
95718W        W64112  13.049  40.801  12.995
95719W        W64113  41.846  15.192  14.220
95720W        W64114   8.687  39.185   3.238
95721W        W64115  19.364  22.692  14.927
95722W        W64116  19.133  42.627   0.853
95723W        W64117  39.997   1.305   4.547
95724W        W64118  41.499  22.653   3.672
95725W        W64119  24.647  23.336   0.512
95726W        W64120  40.060  36.320   2.299
95727W        W64121  16.713  41.656  11.678
95728W        W64122  35.887   3.546   0.043
95729W        W64123  43.030  42.171  14.281
95730W        W64124   0.360  34.944   3.072
95731W        W64125  31.464  39.542   3.047
95732W        W64126  34.027  10.380  12.448
95733W        W64127  17.741  41.059  14.692
95734W        W64128   8.302   6.904  11.689
95735W        W64129  38.648   3.487   1.240
95736W        W64130  28.520  13.682   2.266
95737W        W64131   6.330   9.028  13.261
95738W        W64132  40.024  15.510  14.104
95739W        W64133  17.111  35.843   4.218
95740W        W64134  10.577  36.362  12.580
95741W        W64135  36.348  26.285  14.284
95742W        W64136   0.045  35.611   4.181
95743W        W64137  44.011  31.090  10.742
95744W        W64138  21.800  19.402   4.472
95745W        W64139  43.102  32.115  10.655
95746W        W64140  14.929  35.873  12.148
95747W        W64141  22.817  26.072   3.792
95748W        W64142  33.907  37.403   0.282
95749W        W64143  11.242  41.032   2.396
95750W        W64144  18.469  11.419  12.141
95751W        W64145   6.845  42.459  12.473
95752W        W64146  25.129  19.515  11.937
95753W        W64147  22.040  16.087  11.056
95754W        W64148  32.135  42.601  11.970
95755W        W64149  21.938  11.317   4.104
95756W        W64150   1.027  40.012   0.931
95757W        W64151   4.564  15.809   4.973
95758W        W64152  21.238   9.915  10.212
95759W        W64153  28.449   0.045   3.682
95760W        W64154  28.058  34.979   2.446
95761W        W64155  35.917  25.661   4.210
95762W        W64156  36.072  30.632  13.554
95763W        W64157   1.326  18.567  11.329
95764W        W64158  29.161  43.659   1.694
95765W        W64159  34.443  16.681  12.889
95766W        W64160   6.025  24.408  14.013
95767W        W64161   9.348  39.508   4.386
95768W        W64162  28.016  12.892  13.441
95769W        W64163  37.481  18.481  12.328
95770W        W64164  13.145  33.937   2.680
95771W        W64165  40.042  35.328  13.363
95772W        W64166  16.590  37.660  11.975
95773W        W64167  38.504  35.910   0.876
95774W        W64168  44.858   8.520   2.946
95775W        W64169  39.466  14.335   3.991
95776W        W64170   8.866  21.013   2.751
95777W        W64171  11.933  41.596   3.045
95778W        W64172  21.849  20.573  12.517
95779W        W64173   3.551  39.953  12.481
95780W        W64174  41.558  28.052  12.502
95781W        W64175  17.089  19.240  11.673
95782W        W64176  35.603  21.873   3.096
95783W        W64177  14.598   3.868  13.745
95784W        W64178   8.882  23.152  12.547
95785W        W64179  24.164  32.636  14.067
95786W        W64180  22.419  26.682  13.509
95787W        W64181   1.855  17.663   2.553
95788W        W64182  17.548  25.191   1.862
95789W        W64183  43.602  13.873   1.373
95790W        W64184   8.202   1.279   0.227
95791W        W64185  29.861  26.052   0.847
95792W        W64186  10.096  13.615   2.280
95793W        W64187   1.768  36.834  14.871
95794W        W64188  29.636  10.543  12.446
95795W        W64189  22.579  13.539  12.362
95796W        W64190  17.155  29.932  12.442
95797W        W64191   6.796  17.241   2.318
95798W        W64192  30.582   2.524   4.249
95799W        W64193  29.939   2.260  11.582
95800W        W64194   0.724  34.765   2.761
95801W        W64195   1.498   2.407  12.373
95802W        W64196  36.414   3.709  11.542
95803W        W64197  29.747  41.002  11.911
95804W        W64198  20.100  33.068  11.933
95805W        W64199  13.802   3.886   1.625
95806W        W64200  24.211  39.052   1.945
95807W        W64201  44.794   9.629   1.273
95808W        W64202  29.557  15.077  10.711
95809W        W64203   3.671  38.777  13.926
95810W        W64204   8.776  15.149  11.152
95811W        W64205  16.981  22.285  10.695
95812W        W64206  37.896   0.412   3.313
95813W        W64207  17.202  22.348  14.023
95814W        W64208  35.429   4.726  12.756
95815W        W64209  35.672  25.910   2.837
95816W        W64210  40.604  19.593  11.146
95817W        W64211  40.812  27.892  14.062
95818W        W64212  17.832  21.717  13.535
95819W        W64213  32.168  18.650   3.236
95820W        W64214  10.859  40.031  13.033
95821W        W64215  35.330   5.902  12.615
95822W        W64216  37.911  26.172   0.696
95823W        W64217  24.635  28.021  12.093
95824W        W64218   4.835  17.308   1.360
95825W        W64219   4.836  31.690  10.580
95826W        W64220  22.067  14.843   1.772
95827W        W64221  25.204  31.688  11.673
95828W        W64222  20.967  35.417   3.511
95829W        W64223  17.946  42.044   4.106
95830W        W64224   7.655  38.950  11.621
95831W        W64225  24.804  38.556  14.276
95832W        W64226  35.587  24.527   2.635
95833W        W64227  24.751   0.992  14.130
95834W        W64228  40.948   5.909   0.715
95835W        W64229   5.428  36.075  14.959
95836W        W64230  33.090   5.361   0.984
95837W        W64231  37.265  13.624   2.380
95838W        W64232   6.087  12.296  11.558
95839W        W64233   0.773  16.670  11.090
95840W        W64234   3.842  21.460  13.884
95841W        W64235  42.924  35.294   9.703
95842W        W64236  22.288  32.387  13.547
95843W        W64237   8.480  39.304   4.890
95844W        W64238  43.937   7.434   2.601
95845W        W64239  24.704  26.628  10.725
95846W        W64240  22.196   3.731   4.835
95847W        W64241  36.936   4.210   3.360
95848W        W64242  33.991  38.984   1.775
95849W        W64243  32.586   3.303  10.707
95850W        W64244   2.442  22.197  13.982
95851W        W64245  10.940  28.098   0.374
95852W        W64246   7.823  14.152   4.130
95853W        W64247  28.880  35.859   4.336
95854W        W64248  20.479   1.831  13.877
95855W        W64249  19.511  43.282  11.135
95856W        W64250  41.165  17.059   2.395
95857W        W64251   2.802  15.970  14.484
95858W        W64252  41.908  39.048  12.061
95859W        W64253  15.626  13.864   4.647
95860W        W64254  42.200  20.679  12.038
95861W        W64255  42.692  10.244  13.618
95862W        W64256   6.754  30.130  12.962
95863W        W64257  13.147  23.595  12.242
95864W        W64258  24.153  11.949   3.726
95865W        W64259  34.957  20.729   2.870
95866W        W64260  12.034  41.004  11.901
95867W        W64261  39.931   4.653  14.006
95868W        W64262  23.942   6.760  14.488
95869W        W64263  13.324  24.814  11.598
95870W        W64264   0.221  13.735   2.207
95871W        W64265  35.161  30.863  13.900
95872W        W64266   0.726  15.828   3.689
95873W        W64267  44.102  38.785   4.763
95874W        W64268  36.305  37.909  11.981
95875W        W64269  27.043  16.800  14.682
95876W        W64270  26.193  37.929  12.485
95877W        W64271   4.444  10.827  14.039
95878W        W64272   5.144  13.231   3.633
95879W        W64273  15.513  19.539  10.598
95880W        W64274  16.525  40.958   0.295
95881W        W64275  24.588   9.386  10.297
95882W        W64276  10.863   6.720   4.221
95883W        W64277  34.810  21.337  13.645
95884W        W64278   3.442   4.788   0.888
95885W        W64279  33.689   1.160   0.234
95886W        W64280  33.198  30.564  12.931
95887W        W64281  44.807   8.615   1.167
95888W        W64282  16.614  20.573   4.571
95889W        W64283  28.481  23.920  12.930
95890W        W64284  10.279  28.828  12.978
95891W        W64285  12.948  15.652   3.271
95892W        W64286  33.128   7.891   1.776
95893W        W64287  24.126  30.402   0.043
95894W        W64288  41.197  28.434  11.481
95895W        W64289  40.586  12.578  13.068
95896W        W64290  22.645  20.865  12.267
95897W        W64291  39.502   7.145   3.682
95898W        W64292  21.151   4.357  12.492
95899W        W64293  14.419  13.638  12.932
95900W        W64294   3.929  32.163  14.060
95901W        W64295  22.955  12.882   3.206
95902W        W64296  33.462  16.241   2.412
95903W        W64297  15.607  30.399  14.249
95904W        W64298  21.880  16.691  10.748
95905W        W64299  39.929  38.804   0.165
95906W        W64300   4.682  27.403  10.473
95907W        W64301  24.626   1.790  14.975
95908W        W64302  36.860  29.391   1.740
95909W        W64303  31.235  41.970  13.784
95910W        W64304   8.209  24.095   3.353
95911W        W64305  20.517  40.344  11.690
95912W        W64306   8.691  11.973   4.177
95913W        W64307  13.780  14.616   4.821
95914W        W64308  44.242  14.538   2.994
95915W        W64309   0.397  20.822   4.927
95916W        W64310  23.287   9.205   4.153
95917W        W64311  28.926  33.018  10.795
95918W        W64312  19.123  29.178   4.657
95919W        W64313  31.647  17.512   3.937
95920W        W64314  21.943  39.983  13.371
95921W        W64315  17.001  15.073   4.681
95922W        W64316  26.181  22.779   2.889
95923W        W64317  13.305  37.551  14.055
95924W        W64318  12.141   3.647  13.480
95925W        W64319  38.375  18.794  11.123
95926W        W64320  30.995   2.229   3.329
95927W        W64321  22.493  37.721  11.184
95928W        W64322  20.217  34.307   2.358
95929W        W64323   5.032   9.334  10.652
95930W        W64324  30.422  31.489   0.065
95931W        W64325  37.675  13.815  10.700
95932W        W64326  10.005  39.301   1.843
95933W        W64327  12.695  19.660  14.987
95934W        W64328   0.394   4.695   4.460
95935W        W64329   3.548  22.212  14.301
95936W        W64330  21.627  23.660   0.497
95937W        W64331   5.340  21.636  14.944
95938W        W64332  17.185  30.081   3.608
95939W        W64333  17.592  29.628  12.433
95940W        W64334  15.031  15.662   4.678
95941W        W64335  15.012  31.950   3.941
95942W        W64336  26.132   1.235   1.746
95943W        W64337  14.264  16.546  10.478
95944W        W64338  36.327  20.164  12.577
95945W        W64339  36.884  43.311  10.625
95946W        W64340  31.919  31.834  11.600
95947W        W64341  13.833  44.989   0.493
95948W        W64342  40.994   9.730   1.795
95949W        W64343  17.544  11.546   3.401
95950W        W64344  13.317  38.823   1.097
95951W        W64345  24.764   2.734  12.906
95952W        W64346  15.101  34.688  13.807
95953W        W64347  22.048   8.310   3.431
95954W        W64348  26.203   9.189   0.401
95955W        W64349  21.156   9.935  12.126
95956W        W64350  19.518   8.116   0.940
95957W        W64351  21.688  30.689  11.549
95958W        W64352  10.693   2.993  14.511
95959W        W64353  14.088  26.229   3.854
95960W        W64354  22.467   3.738   4.402
95961W        W64355  26.660  25.695   5.226
95962W        W64356  42.434  24.382  11.600
95963W        W64357   9.857  12.845  11.713
95964W        W64358  31.506  17.969   3.773
95965W        W64359  16.500  31.174  12.245
95966W        W64360  43.811  29.135   0.018
95967W        W64361  37.090   6.227  14.904
95968W        W64362   8.918  37.651   3.647
95969W        W64363   3.936  23.978   2.725
95970W        W64364  11.740  18.046   3.404
95971W        W64365   8.117   9.898   0.592
95972W        W64366   2.982  20.612   3.571
95973W        W64367   7.693  15.690  12.002
95974W        W64368  12.897   5.954   0.944
95975W        W64369   6.373  21.319  11.780
95976W        W64370  40.565   6.714  14.784
95977W        W64371  41.830  30.192   3.515
95978W        W64372  31.908  24.426  14.670
95979W        W64373  33.630   7.783   1.778
95980W        W64374  12.299   8.911   3.157
95981W        W64375  40.818  17.192   1.231
95982W        W64376  40.411  33.122   5.038
95983W        W64377  29.324  28.061  10.822
95984W        W64378   6.770   3.321  12.988
95985W        W64379  15.936  31.428   0.108
95986W        W64380  39.837   6.359   4.335
95987W        W64381   5.916   2.945   5.241
95988W        W64382  31.407  20.282   3.296
95989W        W64383  34.921  19.531   1.503
95990W        W64384   4.639  24.659  10.126
95991W        W64385  27.861  41.552   2.990
95992W        W64386  14.725  30.903   2.275
95993W        W64387  16.825  41.395   1.933
95994W        W64388  16.688  15.702   0.791
95995W        W64389  29.262   5.411   4.647
95996W        W64390  30.667  26.573   0.094
95997W        W64391  26.691   7.395  12.098
95998W        W64392  27.052   6.776  12.202
95999W        W64393  29.440   2.356   3.379
96000W        W64394  26.166  13.317  13.847
96001W        W64395   5.444  29.785  11.016
96002W        W64396  17.846   1.434  14.172
96003W        W64397   9.677   4.090   5.075
96004W        W64398  34.039  19.474   1.326
96005W        W64399  41.503   5.786   4.101
96006W        W64400   8.132  10.175   4.181
96007W        W64401  10.680  22.514  12.958
96008W        W64402  18.748  10.107   2.680
96009W        W64403   4.510  41.180  12.148
96010W        W64404  28.068   7.775   0.300
96011W        W64405  11.785   2.741  13.941
96012W        W64406  14.289   1.244   2.657
96013W        W64407  22.179   4.224   3.434
96014W        W64408   8.756   5.026   2.318
96015W        W64409  18.303   5.874  14.417
96016W        W64410  17.873  17.112  14.738
96017W        W64411  41.251   5.618   2.618
96018W        W64412   9.267  42.075  11.262
96019W        W64413   4.560   2.069   0.897
96020W        W64414  33.455  30.419   4.280
96021W        W64415  43.370  35.619  12.906
96022W        W64416  21.581  26.412  13.631
96023W        W64417  26.260  13.315   3.598
96024W        W64418  29.536   2.328   2.412
96025W        W64419   0.489  19.315  14.170
96026W        W64420  44.981  42.702  12.899
96027W        W64421  15.606  35.851  11.455
96028W        W64422   7.436  43.495  14.181
96029W        W64423   7.484  37.486  11.900
96030W        W64424   9.231   4.086   2.824
96031W        W64425  21.120   5.199   4.134
96032W        W64426  25.646  15.073  11.069
96033W        W64427  37.397  28.146   4.573
96034W        W64428  22.173  16.334   4.320
96035W        W64429   6.685  41.737   4.255
96036W        W64430  37.461  30.427  11.240
96037W        W64431  34.808  17.958   3.930
96038W        W64432  12.862  39.465  11.416
96039W        W64433  27.271  32.779  14.267
96040W        W64434  44.265  26.897  10.690
96041W        W64435  36.712  22.627   4.935
96042W        W64436  42.437  33.121   0.347
96043W        W64437  18.765  37.457  12.364
96044W        W64438  27.545   7.191  13.130
96045W        W64439  30.179   5.153   4.167
96046W        W64440  20.343  30.218  11.687
96047W        W64441  16.479  17.084  14.341
96048W        W64442  44.438  17.149  13.443
96049W        W64443   7.700   3.674   3.948
96050W        W64444  34.823  39.556  12.485
96051W        W64445  17.053   8.907  12.749
96052W        W64446  15.567  19.894   4.979
96053W        W64447  40.566  11.574   2.323
96054W        W64448  33.421   2.983  10.698
96055W        W64449  21.783  15.589  10.859
96056W        W64450  41.250  23.525  11.936
96057W        W64451   5.511  36.899   3.650
96058W        W64452  12.626  37.451   3.456
96059W        W64453   9.855  41.919   0.085
96060W        W64454  24.098   4.369   4.525
96061W        W64455  33.698  28.946  12.902
96062W        W64456   7.282   0.986  12.486
96063W        W64457  15.190  22.458  14.712
96064W        W64458  15.165  43.891   0.040
96065W        W64459  32.392  30.898   1.640
96066W        W64460   4.675   0.835  14.223
96067W        W64461   0.592   8.183  12.521
96068W        W64462  16.311  23.925   2.889
96069W        W64463  24.822  26.212   0.884
96070W        W64464  22.229   4.284  12.553
96071W        W64465  38.950  18.682   1.898
96072W        W64466  18.604  10.607  14.818
96073W        W64467  41.445  38.540   1.353
96074W        W64468  12.075   9.696  14.444
96075W        W64469   6.248  23.051   2.266
96076W        W64470  24.771  24.893   1.129
96077W        W64471  43.423  40.861   4.516
96078W        W64472   2.336  43.004   2.911
96079W        W64473  11.740  37.765   2.221
96080W        W64474  43.028  44.027  13.127
96081W        W64475  15.263  15.837   0.957
96082W        W64476   3.130   4.327   0.353
96083W        W64477  16.675  21.816   4.600
96084W        W64478  14.887  32.635  14.784
96085W        W64479  38.302  24.616  13.513
96086W        W64480   8.317  26.291  13.825
96087W        W64481  24.646  12.825  13.391
96088W        W64482  31.482   7.135  13.814
96089W        W64483  23.047  12.904  14.985
96090W        W64484   3.910  33.877  12.575
96091W        W64485  34.525  42.031   3.281
96092W        W64486  25.158   4.071   4.113
96093W        W64487  41.305  11.440   4.043
96094W        W64488  11.423  37.450   4.321
96095W        W64489   8.158  20.287   0.310
96096W        W64490  26.626  37.911   4.418
96097W        W64491   9.785  14.160   3.693
96098W        W64492   5.965   4.444   0.741
96099W        W64493  12.147  32.306   1.584
96100W        W64494   8.824  34.165  11.646
96101W        W64495  21.532  27.376   2.948
96102W        W64496  18.023  23.463  12.983
96103W        W64497  41.928  22.613  12.517
96104W        W64498  19.587  24.759   0.038
96105W        W64499  41.794  15.829   3.381
96106W        W64500  31.102  22.947  14.401
96107W        W64501  38.783  32.203  10.212
96108W        W64502  41.257  37.329   2.106
96109W        W64503  15.864  32.192   1.620
96110W        W64504  24.012   4.265  12.539
96111W        W64505  34.328  27.653  12.078
96112W        W64506  39.858  15.287  10.952
96113W        W64507  17.685  37.062   0.847
96114W        W64508   3.909  29.525   0.848
96115W        W64509  14.182  35.654  13.078
96116W        W64510  20.577   5.700  13.973
96117W        W64511  44.473  16.265   3.761
96118W        W64512  34.619  18.217   0.909
96119W        W64513  42.564   8.793  11.968
96120W        W64514  23.768  44.341   2.626
96121W        W64515  29.562  30.350  12.158
96122W        W64516  28.740  21.738  11.682
96123W        W64517  37.287   5.897  12.532
96124W        W64518  24.703   7.347  14.950
96125W        W64519  10.700  26.490  11.997
96126W        W64520  14.589  26.485  11.519
96127W        W64521   9.876  11.399   1.727
96128W        W64522   8.464  11.797  11.920
96129W        W64523  18.668  40.808  14.158
96130W        W64524   6.792  11.908  12.161
96131W        W64525  11.256   8.909  14.441
96132W        W64526   4.212   3.798  12.344
96133W        W64527   0.049   8.441   0.743
96134W        W64528  36.593  33.502   3.226
96135W        W64529  12.216  29.985   0.871
96136W        W64530  13.167   2.678  11.108
96137W        W64531   0.004  12.568  11.113
96138W        W64532   2.745   7.732  11.218
96139W        W64533  19.444  42.323  13.475
96140W        W64534  14.495  43.785  11.948
96141W        W64535   6.777  27.763  12.923
96142W        W64536  12.543   7.860   1.572
96143W        W64537   0.834   1.807  11.017
96144W        W64538   2.272  41.777   3.977
96145W        W64539  12.144  13.261  12.932
96146W        W64540  33.314   3.986   1.294
96147W        W64541  20.004  21.603   1.209
96148W        W64542   6.841   1.767   1.806
96149W        W64543  40.928   3.708   0.449
96150W        W64544  25.496   8.659  12.056
96151W        W64545  30.637  23.418   2.552
96152W        W64546  21.228  24.149   1.724
96153W        W64547  15.168   8.231   9.954
96154W        W64548  19.539  15.356   1.000
96155W        W64549  36.176  36.961   0.005
96156W        W64550  31.587  17.302  10.687
96157W        W64551   5.346   5.028  11.150
96158W        W64552  15.608  17.898  14.907
96159W        W64553  42.935  25.035  12.061
96160W        W64554  32.693  33.060   2.127
96161W        W64555  13.133  43.512   4.851
96162W        W64556  40.256  24.993   0.745
96163W        W64557  20.716   3.559   2.915
96164W        W64558  28.934  31.530   2.124
96165W        W64559  18.004   1.955   2.300
96166W        W64560  37.130  24.739  14.013
96167W        W64561  16.641  33.875   0.994
96168W        W64562   0.364  24.263  10.525
96169W        W64563  31.616  11.537   4.608
96170W        W64564  38.545  40.907  10.518
96171W        W64565  39.548  29.561   3.646
96172W        W64566  39.222  42.227  11.203
96173W        W64567   4.532  28.723   5.021
96174W        W64568  27.451  31.423  12.952
96175W        W64569  33.154  10.227  12.691
96176W        W64570   2.676  31.908  13.335
96177W        W64571  14.807   9.764   2.554
96178W        W64572  31.904  33.009   2.673
96179W        W64573  38.969   8.783   2.852
96180W        W64574   8.151  42.521  13.860
96181W        W64575  36.396  37.807  13.888
96182W        W64576  16.739  24.082  10.697
96183W        W64577  43.425  16.843   0.367
96184W        W64578  33.611  35.820   3.655
96185W        W64579  35.870  11.737   2.474
96186W        W64580  30.605   3.865   2.494
96187W        W64581  37.992  30.408  14.311
96188W        W64582  24.631  33.585   3.129
96189W        W64583   5.147  32.150   4.236
96190W        W64584   2.066  29.912  13.033
96191W        W64585  26.431   0.483   4.173
96192W        W64586  39.021  16.439  11.629
96193W        W64587   1.709  44.852   4.869
96194W        W64588   7.734  38.904  10.731
96195W        W64589   3.710  42.728   1.214
96196W        W64590  20.606  44.028   1.436
96197W        W64591  42.621  16.577  11.163
96198W        W64592  16.035  28.990   1.702
96199W        W64593   5.774   1.804   0.471
96200W        W64594   5.228   7.619   2.881
96201W        W64595  30.490  38.160   2.853
96202W        W64596  23.451  34.412  11.106
96203W        W64597  38.355  15.837  11.165
96204W        W64598  19.304  26.010  10.269
96205W        W64599   5.229  28.554   2.393
96206W        W64600  17.732  38.545  13.370
96207W        W64601  35.792  40.817  12.792
96208W        W64602  24.021  12.777   2.679
96209W        W64603  38.125  17.801  11.383
96210W        W64604  30.806  33.214  12.906
96211W        W64605  36.124  34.452  11.449
96212W        W64606  11.230   1.740   3.588
96213W        W64607  23.048  33.645   3.704
96214W        W64608  13.130  32.171   3.633
96215W        W64609  41.955   9.603  12.898
96216W        W64610  43.519   9.173  11.514
96217W        W64611  40.120  19.831  11.110
96218W        W64612  19.209   2.870  10.694
96219W        W64613  34.308  36.560   3.687
96220W        W64614   0.831  10.571   0.789
96221W        W64615  17.131  29.100  12.887
96222W        W64616  39.392  28.871  13.491
96223W        W64617  17.316  19.547   2.103
96224W        W64618  29.941  16.224   4.581
96225W        W64619   4.198   3.219  10.213
96226W        W64620  39.530  14.134  14.934
96227W        W64621  34.237  26.542   1.321
96228W        W64622  10.660   3.893  14.505
96229W        W64623   6.664   2.263  14.297
96230W        W64624  21.265   5.118   2.279
96231W        W64625  39.434  28.721  12.813
96232W        W64626   1.558  26.637   0.488
96233W        W64627   1.291  14.341  14.421
96234W        W64628   2.913  36.858  11.146
96235W        W64629  28.102   7.436   3.146
96236W        W64630  43.759  10.763   4.158
96237W        W64631  42.355  21.998  11.485
96238W        W64632  40.883  27.495   4.699
96239W        W64633  42.914  10.635  13.358
96240W        W64634  40.886   8.799  13.335
96241W        W64635  11.174   4.643   2.879
96242W        W64636  14.776  37.843  11.916
96243W        W64637  10.699  44.646   9.797
96244W        W64638   7.280  13.112  14.410
96245W        W64639   7.964  42.651   1.646
96246W        W64640  40.523  35.171   0.161
96247W        W64641  15.056  41.054   4.327
96248W        W64642  43.320   4.281   1.964
96249W        W64643  12.787  21.084  12.883
96250W        W64644  30.836  17.525  11.294
96251W        W64645   7.277  41.550  14.845
96252W        W64646   4.290  31.432   2.663
96253W        W64647   0.523  16.797  10.428
96254W        W64648  37.845   2.053  14.834
96255W        W64649  15.265  36.545  14.798
96256W        W64650  34.542  29.134   0.376
96257W        W64651   7.780   7.297   0.717
96258W        W64652  37.709  36.952   0.011
96259W        W64653  11.417  22.099   2.954
96260W        W64654  33.167   8.804  11.097
96261W        W64655  32.450  42.146  11.689
96262W        W64656  21.685  34.375  14.458
96263W        W64657  22.756   3.806   2.202
96264W        W64658   9.568  42.240   3.773
96265W        W64659  42.827  40.190   2.230
96266W        W64660   9.374   9.304   2.437
96267W        W64661  25.475  43.601   3.421
96268W        W64662  44.044  34.981  11.397
96269W        W64663   6.232  16.685   2.129
96270W        W64664  44.742  42.534  12.164
96271W        W64665  37.423  33.346   4.173
96272W        W64666  28.651  22.085  12.356
96273W        W64667   8.999  26.570  11.234
96274W        W64668  11.720  44.824  13.316
96275W        W64669  27.057  31.700   2.754
96276W        W64670  33.903  23.591  11.468
96277W        W64671   5.562  44.810  14.106
96278W        W64672  10.850  19.987   4.535
96279W        W64673  21.148  10.409  13.901
96280W        W64674  16.694  10.648   2.718
96281W        W64675   6.144  31.117   4.314
96282W        W64676  19.286  18.195   1.107
96283W        W64677   9.853  21.099   2.846
96284W        W64678  18.255  31.425   3.779
96285W        W64679   4.308   9.772   0.557
96286W        W64680  33.565   3.706   0.953
96287W        W64681  15.142  42.873   4.618
96288W        W64682   6.158  40.854   1.374
96289W        W64683  32.134   8.251  11.635
96290W        W64684  36.871   7.520  11.508
96291W        W64685  10.322  36.821   0.442
96292W        W64686  29.729  43.568  10.812
96293W        W64687   7.402   1.827  12.472
96294W        W64688   2.906   2.422  11.612
96295W        W64689  31.932   9.529  14.288
96296W        W64690  12.284  15.064  13.330
96297W        W64691  24.782   5.639   2.821
96298W        W64692  26.966  29.449   0.885
96299W        W64693  34.032  21.092   2.289
96300W        W64694  37.974  34.825   2.646
96301W        W64695  37.437   2.574   5.032
96302W        W64696   8.003  37.041   1.874
96303W        W64697   0.448   1.886   4.479
96304W        W64698  21.923  17.819  12.083
96305W        W64699  30.466  26.978   3.707
96306W        W64700   5.766  23.003   2.505
96307W        W64701  12.335  28.280   4.827
96308W        W64702  27.007  39.262  11.975
96309W        W64703  11.204  42.721  13.361
96310W        W64704  40.552   5.238   0.216
96311W        W64705  21.690   4.712  11.712
96312W        W64706   6.434  25.023  12.069
96313W        W64707  10.288  26.673   4.720
96314W        W64708  32.661  34.795   1.344
96315W        W64709  42.909  30.235   2.025
96316W        W64710  26.660   8.749   1.337
96317W        W64711   1.988  11.361   3.314
96318W        W64712  15.672  42.758  12.046
96319W        W64713  22.814  37.932  12.839
96320W        W64714  38.278   8.349   1.775
96321W        W64715  11.825   2.902   1.838
96322W        W64716  21.281  29.848  12.580
96323W        W64717  35.431  15.134   4.602
96324W        W64718  16.557  12.407  14.859
96325W        W64719  24.576  34.817   3.806
96326W        W64720  36.328  25.511  13.935
96327W        W64721  38.712  11.135   0.397
96328W        W64722   5.270  13.388  12.872
96329W        W64723  15.224  14.904  10.463
96330W        W64724  14.789  26.388   4.196
96331W        W64725   2.456   4.657  11.281
96332W        W64726  13.652   0.460   1.128
96333W        W64727  10.779  11.386  11.996
96334W        W64728  23.787  23.041   2.780
96335W        W64729   0.505  21.998   3.493
96336W        W64730  24.761  14.554  10.912
96337W        W64731  44.369  43.050  14.278
96338W        W64732  24.535  32.165  11.954
96339W        W64733  14.044  31.033  14.914
96340W        W64734   0.923  38.859   1.867
96341W        W64735  26.589   0.331  14.999
96342W        W64736   5.505   9.743   2.315
96343W        W64737  21.515  37.248   2.757
96344W        W64738  36.216  21.307   3.798
96345W        W64739  11.426  29.686  14.302
96346W        W64740  15.689  40.265   0.576
96347W        W64741  15.759  16.325  14.966
96348W        W64742  28.060   9.119  13.016
96349W        W64743  44.351   7.766  12.364
96350W        W64744  18.750  20.680   1.167
96351W        W64745  27.167  34.537  14.513
96352W        W64746  42.271  14.654   4.252
96353W        W64747  40.385  33.763  10.645
96354W        W64748  29.409   5.861  14.236
96355W        W64749  26.558  43.337   3.674
96356W        W64750  14.701  33.660   4.170
96357W        W64751  35.326  26.740  10.930
96358W        W64752  25.934  11.720  11.984
96359W        W64753  29.744  44.305  13.443
96360W        W64754  14.366  33.355   2.262
96361W        W64755   1.258  18.335   1.266
96362W        W64756  38.995  12.572   1.679
96363W        W64757  43.361   3.176   2.770
96364W        W64758  17.563  16.212  12.097
96365W        W64759   9.626   6.493  13.090
96366W        W64760   8.829  35.576  14.842
96367W        W64761  41.748  19.646   1.227
96368W        W64762  27.934  25.179   2.366
96369W        W64763  36.495  42.750  13.109
96370W        W64764  30.104  18.651   1.331
96371W        W64765   6.184  24.371   0.216
96372W        W64766   6.436  19.047   2.167
96373W        W64767  27.713   3.775   4.037
96374W        W64768  42.505   5.198  12.556
96375W        W64769   8.457   4.586  10.096
96376W        W64770  41.945  27.081   1.828
96377W        W64771  35.861  17.223   2.455
96378W        W64772   5.053  22.096   3.133
96379W        W64773  15.877  17.566   3.172
96380W        W64774  15.765  25.988   0.066
96381W        W64775  36.831  43.271   1.698
96382W        W64776  28.703  11.144   0.360
96383W        W64777   3.642   2.242   3.417
96384W        W64778  42.464  27.472   4.630
96385W        W64779  44.295  12.614  13.968
96386W        W64780  14.544  38.069   4.435
96387W        W64781  30.945  34.110   1.222
96388W        W64782  37.103   9.693   0.858
96389W        W64783  44.889  28.191  11.843
96390W        W64784  18.160  16.323  14.989
96391W        W64785  43.063  40.487   3.673
96392W        W64786  34.552   8.722   1.166
96393W        W64787  39.692  15.611   0.806
96394W        W64788   4.779  44.471   1.221
96395W        W64789   7.248   8.837  14.792
96396W        W64790  37.103  28.135   1.796
96397W        W64791  26.702  12.174   0.285
96398W        W64792  34.353  18.043   1.319
96399W        W64793  26.532   0.111   5.278
96400W        W64794   6.143  30.245   2.230
96401W        W64795  21.451   2.976  12.472
96402W        W64796   7.881  10.164  11.152
96403W        W64797  23.518  40.775   3.152
96404W        W64798   6.194  24.872  14.441
96405W        W64799  30.553   8.779  12.040
96406W        W64800  43.143  28.095   1.158
96407W        W64801  29.421  11.991  12.002
96408W        W64802  22.734   7.352   1.255
96409W        W64803  43.390  27.881  13.999
96410W        W64804   9.738   9.170   3.788
96411W        W64805  39.272  16.132   0.841
96412W        W64806   0.018  23.195  10.689
96413W        W64807  11.027  34.078  14.035
96414W        W64808  38.817  41.410   3.854
96415W        W64809  32.064  31.205   5.272
96416W        W64810  21.416  28.492   4.226
96417W        W64811  30.512  30.870  11.552
96418W        W64812  28.223  41.541  12.084
96419W        W64813  15.587  40.506   3.710
96420W        W64814   5.155  37.891   4.070
96421W        W64815  31.952  44.900  11.833
96422W        W64816  26.759  16.693   3.744
96423W        W64817   7.759  29.815   0.710
96424W        W64818  20.069  33.536   0.909
96425W        W64819  21.652  13.295  13.125
96426W        W64820  16.919   3.039  12.556
96427W        W64821  25.297  39.032  12.588
96428W        W64822  44.742   0.901   0.812
96429W        W64823  33.601  28.640   3.598
96430W        W64824  11.801  39.894  12.075
96431W        W64825  13.874  36.374  14.578
96432W        W64826  22.561   9.390   4.569
96433W        W64827   0.490  23.396  10.814
96434W        W64828  19.494  41.578   2.670
96435W        W64829  19.551   3.887  14.006
96436W        W64830  44.971  18.705  14.664
96437W        W64831  41.554  34.607   1.632
96438W        W64832  40.439  27.861  11.555
96439W        W64833  32.801   8.495   1.331
96440W        W64834  30.582   4.352  10.789
96441W        W64835  24.507   8.218   3.545
96442W        W64836  38.534   5.686  11.063
96443W        W64837  20.088  15.238  13.409
96444W        W64838  16.937  26.154  11.781
96445W        W64839  15.159   6.124  13.809
96446W        W64840  13.731   5.514  11.623
96447W        W64841  14.445  35.978  12.048
96448W        W64842  13.170  41.083  14.281
96449W        W64843  23.083  28.555   3.312
96450W        W64844  13.117  24.692   4.116
96451W        W64845  17.634  28.691  12.585
96452W        W64846  25.522  44.369   0.769
96453W        W64847  27.055  28.755  10.697
96454W        W64848   6.239   2.901   4.464
96455W        W64849  39.610  38.142   1.978
96456W        W64850  41.014  26.700   0.933
96457W        W64851  24.184  12.062  13.505
96458W        W64852  22.050  37.932   2.279
96459W        W64853  37.449  20.051   0.802
96460W        W64854   0.413   3.380   4.580
96461W        W64855  34.592  14.791   1.640
96462W        W64856  34.132  10.660  13.931
96463W        W64857   9.956  23.528   4.968
96464W        W64858  12.876  42.515  13.228
96465W        W64859  43.817  18.600   4.153
96466W        W64860  30.223  13.529  12.123
96467W        W64861  31.463  19.232   4.269
96468W        W64862  24.522  44.387   0.427
96469W        W64863  40.711  31.982  11.191
96470W        W64864  25.925  20.418  11.169
96471W        W64865   9.956  29.189   0.646
96472W        W64866  40.021  34.424   4.125
96473W        W64867  14.336  22.751   4.637
96474W        W64868  14.884  10.167   4.024
96475W        W64869  23.485  26.059  13.833
96476W        W64870   3.404  21.194   2.364
96477W        W64871   0.701  37.494  14.274
96478W        W64872  17.181  17.685  12.958
96479W        W64873  32.458  13.126  10.692
96480W        W64874   4.549   6.969   3.327
96481W        W64875  10.232  21.396  14.836
96482W        W64876  43.368   4.466   3.881
96483W        W64877  28.652  18.245  14.043
96484W        W64878  26.477  29.533  12.079
96485W        W64879  43.542  42.270   3.210
96486W        W64880   7.992  26.519   4.968
96487W        W64881   0.840  34.044   0.473
96488W        W64882  34.807  10.188   2.288
96489W        W64883  21.760  13.701  11.811
96490W        W64884   7.676  44.300  12.575
96491W        W64885  19.770   7.398  13.253
96492W        W64886  42.092  13.201   1.841
96493W        W64887  17.567  39.585   4.084
96494W        W64888  21.595  18.598  13.112
96495W        W64889  21.067  43.897  13.481
96496W        W64890  24.394  19.004   1.863
96497W        W64891  12.403   3.598  12.614
96498W        W64892  20.249   5.620   4.495
96499W        W64893  33.089  11.687   0.718
96500W        W64894  11.402  36.573  13.370
96501W        W64895  15.154  40.995   3.824
96502W        W64896  20.266  31.609   0.792
96503W        W64897  42.851  12.807   0.822
96504W        W64898   3.812  28.451   1.979
96505W        W64899  31.002  33.440   2.435
96506W        W64900  37.901  27.803   3.644
96507W        W64901   6.151  19.830   4.908
96508W        W64902  41.993  34.002   3.681
96509W        W64903   7.935  35.435  10.860
96510W        W64904  35.251  12.697   1.426
96511W        W64905   3.866  16.642   1.372
96512W        W64906  40.915  24.984   2.760
96513W        W64907   0.925  30.880  14.586
96514W        W64908  16.649   2.866  12.968
96515W        W64909  43.261   6.634  13.225
96516W        W64910  29.059  40.330   3.214
96517W        W64911  20.615   5.612  11.624
96518W        W64912  31.541   8.233  12.954
96519W        W64913  40.748  11.860   2.701
96520W        W64914  21.516  12.764  14.841
96521W        W64915  10.622  28.203  11.071
96522W        W64916  30.338  24.267  13.816
96523W        W64917  20.148  42.308   4.619
96524W        W64918  13.558  10.210   4.531
96525W        W64919   8.667  22.155   1.950
96526W        W64920   9.130  12.182   4.320
96527W        W64921  43.361  14.734   4.201
96528W        W64922  10.265  39.821  11.751
96529W        W64923   5.214  35.406   3.715
96530W        W64924   0.819  19.677  10.922
96531W        W64925  39.202  32.657  11.344
96532W        W64926  18.655  36.471  11.631
96533W        W64927  19.189   9.827   3.600
96534W        W64928  15.877  39.415  10.391
96535W        W64929   6.967  35.998  13.413
96536W        W64930   4.601  26.834   5.074
96537W        W64931  33.615  28.903   0.272
96538W        W64932  41.471   7.371   1.820
96539W        W64933  42.794   2.851   1.348
96540W        W64934   1.019   7.694  11.344
96541W        W64935  24.919  28.831   1.843
96542W        W64936   2.924   7.736   2.793
96543W        W64937  44.682  24.299  13.919
96544W        W64938  29.660   4.214   0.165
96545W        W64939   6.831   3.593  11.932
96546W        W64940  12.901  36.534  13.870
96547W        W64941   1.761  21.531  10.820
96548W        W64942  25.987  36.364   0.767
96549W        W64943  21.689  44.031   4.916
96550W        W64944  14.632  27.917  11.618
96551W        W64945   4.230   8.679   5.053
96552W        W64946  23.805  18.418  11.577
96553W        W64947  38.364  27.180  13.387
96554W        W64948  28.355  23.043   4.257
96555W        W64949  28.517  27.565  10.411
96556W        W64950  36.772  26.581   2.393
96557W        W64951  18.099  35.435   3.372
96558W        W64952  17.787  39.761  10.591
96559W        W64953  28.708   0.507   3.678
96560W        W64954  20.399  44.459  11.314
96561W        W64955  17.314  11.699   1.648
96562W        W64956  28.675  39.708   4.835
96563W        W64957  22.410  44.100  12.976
96564W        W64958  43.560  43.311  12.134
96565W        W64959  17.619   6.100   1.755
96566W        W64960  24.417  26.653   0.819
96567W        W64961  24.986  29.217   4.055
96568W        W64962  44.318  29.323  11.604
96569W        W64963  10.056  35.574   1.356
96570W        W64964  37.316  37.210  11.669
96571W        W64965  40.381   5.788  12.888
96572W        W64966  18.043  30.897   4.119
96573W        W64967   5.893   9.825   0.028
96574W        W64968  30.964  25.007   3.482
96575W        W64969   1.834  29.207  13.343
96576W        W64970  44.799   6.160   4.188
96577W        W64971  20.642  12.327  13.008
96578W        W64972   8.766  37.658   2.253
96579W        W64973   8.334  37.425  14.819
96580W        W64974  40.124  24.102   4.568
96581W        W64975  15.612  20.922   5.041
96582W        W64976  17.728  41.646   5.148
96583W        W64977  43.859   3.230  12.705
96584W        W64978  31.121   0.268  11.515
96585W        W64979  30.613  32.095  11.137
96586W        W64980  29.104  37.852   0.736
96587W        W64981  42.960   1.868  12.966
96588W        W64982  38.912   7.491   0.317
96589W        W64983  14.894  16.208  14.805
96590W        W64984  22.269  21.537  14.814
96591W        W64985  19.703  18.999   2.129
96592W        W64986  40.673  43.089  13.791
96593W        W64987  26.905  44.439  12.438
96594W        W64988  32.572   3.978   3.924
96595W        W64989  43.440   4.815  14.855
96596W        W64990  19.644  33.115   0.251
96597W        W64991   9.285  28.944   1.435
96598W        W64992  10.061  17.982  13.824
96599W        W64993  38.466  33.566   1.686
96600W        W64994  21.256  26.052  10.912
96601W        W64995  44.739  36.103   1.292
96602W        W64996   7.483  44.271   0.914
96603W        W64997  31.303  37.651   2.955
96604W        W64998  23.587  22.459   2.252
96605W        W64999  24.885   0.620   2.837
96606W        W65000  28.154  29.020  12.470
96607W        W65001   7.716   0.924  11.641
96608W        W65002  25.411  20.591  14.362
96609W        W65003  11.297  15.305   1.681
96610W        W65004  37.411  41.677   1.246
96611W        W65005  29.662  44.474   3.226
96612W        W65006  17.814  16.323  12.567
96613W        W65007  16.348   1.165  14.317
96614W        W65008   3.278   4.660   1.361
96615W        W65009  13.913  42.188   0.349
96616W        W65010  18.650  10.847  12.366
96617W        W65011   9.747  19.347   3.551
96618W        W65012  20.750  18.358  10.029
96619W        W65013  36.747  14.931   4.498
96620W        W65014  11.773   2.929   4.512
96621W        W65015  38.469  39.483  11.687
96622W        W65016  43.259  11.667   3.198
96623W        W65017  33.550  37.851  10.539
96624W        W65018  18.334  42.334   4.720
96625W        W65019   9.427  13.140   0.702
96626W        W65020  44.377  41.446   4.310
96627W        W65021   4.881   2.712  14.558
96628W        W65022  41.291   3.428   3.714
96629W        W65023   4.856  16.005   3.630
96630W        W65024  21.984  16.509  12.395
96631W        W65025   2.253   5.581  10.987
96632W        W65026  26.538  12.928  11.590
96633W        W65027  14.287  15.637  13.986
96634W        W65028  31.573  29.929   1.861
96635W        W65029  36.438  19.575   3.255
96636W        W65030  29.023  13.712   3.817
96637W        W65031  40.019  10.624   1.034
96638W        W65032  14.836  22.060  12.092
96639W        W65033  21.448  41.263   0.581
96640W        W65034  44.873  28.073  10.534
96641W        W65035  31.850   3.256   5.037
96642W        W65036  25.136  44.054   1.217
96643W        W65037  11.133  19.877   2.281
96644W        W65038  17.865  19.320   2.309
96645W        W65039  42.130  27.353   4.234
96646W        W65040  38.839  23.676  12.951
96647W        W65041  19.641   1.594  10.598
96648W        W65042  10.390  22.523   2.229
96649W        W65043  40.784  10.302  12.421
96650W        W65044  15.098   0.285  14.968
96651W        W65045  34.246  42.393  14.975
96652W        W65046  36.541   1.493  10.654
96653W        W65047  38.430  27.014   3.211
96654W        W65048  41.742  36.360  13.451
96655W        W65049  29.394   8.296  14.006
96656W        W65050  21.258   1.762  12.888
96657W        W65051   3.396  20.756  13.217
96658W        W65052   2.652  44.623   0.304
96659W        W65053  32.421  24.933  14.454
96660W        W65054  19.915  40.574  10.967
96661W        W65055  28.888   3.771  12.511
96662W        W65056  17.289  28.624   1.952
96663W        W65057   2.406  13.186  10.578
96664W        W65058  15.159  32.823  13.579
96665W        W65059  36.908  36.256   4.508
96666W        W65060  27.150  24.232   1.399
96667W        W65061   5.922  11.145  13.337
96668W        W65062  22.948  32.064  12.477
96669W        W65063  12.730   4.297  11.980
96670W        W65064  21.973  42.298   3.633
96671W        W65065  24.923  14.033  12.531
96672W        W65066   3.302   9.836  13.103
96673W        W65067  12.708   5.755  11.690
96674W        W65068  41.469   7.415   3.829
96675W        W65069   6.326   3.372   0.848
96676W        W65070  19.601  10.479   0.284
96677W        W65071   0.374  25.631  13.900
96678W        W65072  37.910  12.274   3.773
96679W        W65073   1.312   6.319   4.023
96680W        W65074  18.253  24.804   1.357
96681W        W65075   3.947  26.572   4.629
96682W        W65076  31.936  36.406   3.505
96683W        W65077  33.134  33.103   4.142
96684W        W65078   2.689  13.862  14.922
96685W        W65079   6.826   9.698  13.901
96686W        W65080  32.403  13.371   1.774
96687W        W65081   2.561  16.099   3.859
96688W        W65082   7.636  33.480   0.363
96689W        W65083  39.347  21.769   2.756
96690W        W65084  37.613   2.409   0.633
96691W        W65085  40.467  17.810   4.476
96692W        W65086  18.464  36.975  10.494
96693W        W65087   6.258   5.808   1.935
96694W        W65088  22.203   9.769  13.725
96695W        W65089  23.709   2.201  12.507
96696W        W65090  20.970  16.774   1.906
96697W        W65091  16.084  18.545   0.927
96698W        W65092  14.885  14.870  11.632
96699W        W65093   7.365  41.401   2.316
96700W        W65094  34.600   5.795   4.271
96701W        W65095  40.340  31.509  12.343
96702W        W65096  21.886  11.771  14.805
96703W        W65097   3.712   5.426  10.171
96704W        W65098  38.356  21.797  11.113
96705W        W65099  32.860  13.724  12.095
96706W        W65100   9.611  30.772   3.277
96707W        W65101  31.574  36.632   2.700
96708W        W65102   4.680  12.820   1.899
96709W        W65103  19.706  32.661   0.863
96710W        W65104   1.194   4.444  14.879
96711W        W65105  23.214   3.397   2.769
96712W        W65106  25.434  37.586   4.999
96713W        W65107  40.576  31.643  12.971
96714W        W65108  37.273  12.556  12.907
96715W        W65109  30.869  19.559   2.696
96716W        W65110  33.244  39.551  12.511
96717W        W65111  27.609  32.457  12.880
96718W        W65112   2.514   4.043   3.781
96719W        W65113  25.978  22.620   1.559
96720W        W65114  43.971  42.986  11.060
96721W        W65115  21.403  11.736   4.639
96722W        W65116  26.151  23.643  10.725
96723W        W65117  42.513  31.383   3.781
96724W        W65118  26.684  19.019  12.499
96725W        W65119  29.047   6.704  12.478
96726W        W65120  25.801  41.697   4.778
96727W        W65121  37.647  44.979   2.266
96728W        W65122  23.265  42.329   4.634
96729W        W65123  27.893   5.805   2.380
96730W        W65124  39.033  30.120  14.811
96731W        W65125   5.296   1.200   0.834
96732W        W65126  42.767   3.437   1.842
96733W        W65127  32.607  28.405   4.084
96734W        W65128   6.188  43.286   0.353
96735W        W65129  35.950  22.111  13.383
96736W        W65130  32.122   8.717   0.359
96737W        W65131  37.478   7.185  13.939
96738W        W65132  25.911  15.150   1.508
96739W        W65133  26.990  43.865   3.221
96740W        W65134  21.621  32.850   0.017
96741W        W65135   8.255   0.023   4.927
96742W        W65136  28.608   5.471   2.620
96743W        W65137  14.892  20.554  14.327
96744W        W65138  17.791  22.029   2.595
96745W        W65139   6.684  37.430  13.879
96746W        W65140  13.695   3.996   3.166
96747W        W65141  40.995  20.617   2.370
96748W        W65142   9.758  20.286  11.983
96749W        W65143  28.312  12.421  13.346
96750W        W65144   6.695  22.086  10.221
96751W        W65145  38.029  42.999  12.820
96752W        W65146  28.441  37.958  12.149
96753W        W65147  10.417   8.958   4.722
96754W        W65148  31.237   5.010   2.910
96755W        W65149   3.260  36.689  13.507
96756W        W65150   1.882  39.545  11.309
96757W        W65151   6.822  35.432   3.262
96758W        W65152  26.983  24.763   3.342
96759W        W65153  20.017  18.005  13.984
96760W        W65154  30.467  27.999   2.365
96761W        W65155  13.898  40.406   0.857
96762W        W65156  11.194   6.154  10.972
96763W        W65157   6.420  34.825  11.509
96764W        W65158  19.391  21.701   2.336
96765W        W65159  22.600   0.088  13.308
96766W        W65160  14.142  17.735  13.433
96767W        W65161  29.558   6.377  12.131
96768W        W65162  44.025   1.807   4.498
96769W        W65163  43.428  17.393   1.191
96770W        W65164  27.631  29.191  12.944
96771W        W65165  42.943   8.261  12.556
96772W        W65166  20.595  32.124   2.857
96773W        W65167  41.952  22.469  13.041
96774W        W65168  20.973   0.427  12.547
96775W        W65169  19.644   9.310  14.731
96776W        W65170  19.052  29.108  14.823
96777W        W65171  26.195  29.890   4.145
96778W        W65172  36.129  23.649  13.978
96779W        W65173  36.498  24.724  14.305
96780W        W65174  10.654  41.550   2.832
96781W        W65175   3.223  23.258  12.036
96782W        W65176  11.179  10.795   0.243
96783W        W65177  34.638  44.432  14.759
96784W        W65178  39.466  23.512   3.589
96785W        W65179   6.858  41.037   3.599
96786W        W65180  13.165   8.316  11.118
96787W        W65181  16.724   5.217  10.970
96788W        W65182  16.838  10.222  13.280
96789W        W65183   9.769  23.220  12.029
96790W        W65184   9.896   4.353  12.375
96791W        W65185   6.329  36.094   4.012
96792W        W65186  32.663  36.891   0.299
96793W        W65187  43.815  24.468  12.962
96794W        W65188  42.453  16.616   0.006
96795W        W65189  29.160  33.868  10.615
96796W        W65190  25.227  13.856  13.892
96797W        W65191  40.425  41.476  14.049
96798W        W65192  33.076  44.911  14.582
96799W        W65193  21.921  42.321  14.494
96800W        W65194  35.024  28.275   4.487
96801W        W65195  23.637   0.698  11.821
96802W        W65196   7.128  26.911  11.970
96803W        W65197  15.868  27.585   3.714
96804W        W65198  42.312  26.607   2.123
96805W        W65199  44.113  13.741   4.256
96806W        W65200   9.738  16.172  10.420
96807W        W65201  19.379  37.855   0.319
96808W        W65202  23.066  17.407   4.569
96809W        W65203  44.280  23.707  12.843
96810W        W65204  36.502   3.951  13.298
96811W        W65205  23.367  16.336   2.561
96812W        W65206   5.831  31.427   4.034
96813W        W65207  37.547  21.856  12.863
96814W        W65208  20.019  22.186   2.463
96815W        W65209  19.338  10.322   1.692
96816W        W65210  40.955  31.010  14.355
96817W        W65211  17.028   3.879  13.363
96818W        W65212   6.128  33.725   0.432
96819W        W65213   6.406  19.061   3.662
96820W        W65214  23.805  21.010   2.560
96821W        W65215  26.061  25.192   3.652
96822W        W65216  12.894  19.049  11.052
96823W        W65217   8.412  26.569   3.207
96824W        W65218  12.383  38.597   3.513
96825W        W65219   8.738  38.247  12.035
96826W        W65220   6.954  21.952  11.894
96827W        W65221   4.501  25.876  12.513
96828W        W65222   7.266  41.248  12.049
96829W        W65223  10.274   6.517  10.642
96830W        W65224  30.144   8.137  12.857
96831W        W65225   8.376  11.939   4.681
96832W        W65226  36.704   0.490  13.994
96833W        W65227  29.954  13.869   3.798
96834W        W65228   0.664  20.722  14.874
96835W        W65229  41.004  32.050   4.183
96836W        W65230  37.447  41.451  13.879
96837W        W65231  30.435  20.470   3.358
96838W        W65232  10.196  33.466   0.921
96839W        W65233  17.146  19.365   2.633
96840W        W65234  43.922   8.257  14.994
96841W        W65235  14.106   2.633  10.886
96842W        W65236  14.901  37.920   5.010
96843W        W65237  11.754  42.786   4.382
96844W        W65238   4.253  37.378  11.186
96845W        W65239  30.717  31.429   0.485
96846W        W65240  24.467  19.449  10.959
96847W        W65241  28.819  28.059  13.534
96848W        W65242  13.663  19.199   2.379
96849W        W65243  14.684  15.101   3.787
96850W        W65244  13.209  15.655   1.457
96851W        W65245  33.086  33.652  12.153
96852W        W65246   9.395  29.667   4.372
96853W        W65247   1.336  22.456   2.640
96854W        W65248  15.382  26.734   4.990
96855W        W65249  31.046  35.931  14.433
96856W        W65250  23.741  15.781  13.273
96857W        W65251  15.077   8.899  11.205
96858W        W65252  24.015  41.676  10.651
96859W        W65253  36.728  39.678  13.578
96860W        W65254   2.305  37.172  13.027
96861W        W65255   3.443  11.400  12.250
96862W        W65256  35.398  27.171  12.965
96863W        W65257   1.509  20.062   1.077
96864W        W65258   8.478  36.643   0.285
96865W        W65259  33.608  18.332  11.865
96866W        W65260  29.576  31.165  10.599
96867W        W65261  34.840  24.221  13.950
96868W        W65262  22.523  11.833  11.101
96869W        W65263  18.752  19.983   4.540
96870W        W65264   3.886   0.088   0.314
96871W        W65265  38.320  35.175   3.618
96872W        W65266  16.263  16.733   2.998
96873W        W65267   2.837  10.154  12.853
96874W        W65268  31.036   5.601  11.631
96875W        W65269  32.475  19.997  12.437
96876W        W65270  13.896  22.906   0.300
96877W        W65271   3.961  34.262  11.142
96878W        W65272  32.040  25.637  11.206
96879W        W65273  38.008  24.850   1.304
96880W        W65274  25.756  15.294   0.997
96881W        W65275  40.346  34.834   0.516
96882W        W65276  16.922  29.213   1.540
96883W        W65277  27.853  41.625  13.515
96884W        W65278  19.202  20.080  13.994
96885W        W65279  19.200  31.111  11.207
96886W        W65280  34.537  28.037  12.911
96887W        W65281   3.525  38.478   4.092
96888W        W65282   5.693  28.398   0.151
96889W        W65283  27.685  28.678  12.944
96890W        W65284  20.007  20.801   3.819
96891W        W65285  43.508  11.796   1.398
96892W        W65286  12.338  27.829   1.773
96893W        W65287  26.140   1.664   0.903
96894W        W65288  29.089  34.315  10.374
96895W        W65289   2.361   8.742  14.326
96896W        W65290  18.532  41.393   2.906
96897W        W65291  13.271  41.945   0.456
96898W        W65292  41.740  44.630   1.701
96899W        W65293  17.195  29.646   2.920
96900W        W65294  38.217  13.676  13.535
96901W        W65295  17.105  40.217  10.297
96902W        W65296  17.170  13.167   2.756
96903W        W65297  28.927  10.743   2.432
96904W        W65298  12.680  32.068   4.440
96905W        W65299  42.009   3.191   0.333
96906W        W65300   3.374  20.787  11.321
96907W        W65301   5.967  37.264   2.865
96908W        W65302   8.776  41.409  14.668
96909W        W65303  21.577  44.178   2.234
96910W        W65304  25.870  32.571   3.775
96911W        W65305   4.836  32.072  12.173
96912W        W65306  33.445  27.238   3.734
96913W        W65307   5.937  22.147  12.885
96914W        W65308  25.005  13.209  12.127
96915W        W65309  26.105  43.585  11.607
96916W        W65310  17.844  40.358  14.342
96917W        W65311  40.874  12.680   0.555
96918W        W65312  10.583  35.031   4.270
96919W        W65313  11.611  17.377   2.391
96920W        W65314  38.889  15.540   5.326
96921W        W65315  28.787  33.514   1.376
96922W        W65316  28.999   8.554  14.429
96923W        W65317  25.582  27.436  14.906
96924W        W65318  19.293  34.466   3.277
96925W        W65319   2.345  35.121  14.029
96926W        W65320   3.021  33.017   0.265
96927W        W65321  19.683  31.279  14.262
96928W        W65322  32.678   1.194  10.947
96929W        W65323  33.002  32.040  13.562
96930W        W65324   0.204   7.808  14.045
96931W        W65325  22.237  37.506  12.535
96932W        W65326  14.326  41.159  11.318
96933W        W65327  31.061  44.859  12.422
96934W        W65328   1.458  40.827   2.074
96935W        W65329  11.259   4.806  11.637
96936W        W65330  34.231  10.671   0.718
96937W        W65331  39.291  32.397   4.736
96938W        W65332   6.731  21.227  14.844
96939W        W65333  24.404  28.530   0.641
96940W        W65334  13.720  28.604  11.818
96941W        W65335  38.520   6.438  10.417
96942W        W65336  14.421  39.329  11.471
96943W        W65337  12.360   5.225   0.318
96944W        W65338  16.761  36.097  12.316
96945W        W65339  29.348   5.663  10.537
96946W        W65340   1.654  25.476   1.792
96947W        W65341  37.514  13.857  11.638
96948W        W65342  42.567   8.423   2.821
96949W        W65343  21.347  31.794   0.307
96950W        W65344  21.759  11.451   9.869
96951W        W65345   7.844  31.004   1.289
96952W        W65346  31.879  24.460  11.990
96953W        W65347  35.865  40.140  14.867
96954W        W65348  43.294  10.767   0.426
96955W        W65349  44.832  33.154  10.651
96956W        W65350  40.084  13.764   0.393
96957W        W65351  39.664   2.384  14.215
96958W        W65352  23.234  14.382  12.480
96959W        W65353   8.219  29.137   1.848
96960W        W65354  10.758  20.449   1.518
96961W        W65355   9.203   6.529   3.158
96962W        W65356  43.372  24.247   4.690
96963W        W65357  41.820  13.238   1.396
96964W        W65358  42.789  16.986  11.458
96965W        W65359  32.425  11.890   4.986
96966W        W65360  25.222  17.202   1.881
96967W        W65361   1.012  21.083  10.855
96968W        W65362  40.897  18.012   0.934
96969W        W65363  16.370   8.688  11.576
96970W        W65364   9.661  21.496   0.467
96971W        W65365  23.148  25.660  11.480
96972W        W65366  11.873  23.749  12.461
96973W        W65367   4.389  25.815  11.999
96974W        W65368  35.901  31.713  14.373
96975W        W65369  24.498  27.856  11.233
96976W        W65370  23.049  23.192   3.252
96977W        W65371  21.136   1.379   4.626
96978W        W65372  35.531  33.384   1.201
96979W        W65373  25.606   2.991   4.320
96980W        W65374  42.827   7.721  11.099
96981W        W65375   2.219  29.609  12.032
96982W        W65376  24.784  34.512   2.113
96983W        W65377  19.055  13.284  14.348
96984W        W65378  33.054  36.382   2.798
96985W        W65379  18.078  33.381   2.835
96986W        W65380  21.634  22.737   2.691
96987W        W65381  43.810  25.133   0.225
96988W        W65382  31.961  21.878   2.903
96989W        W65383  27.994  19.623  10.237
96990W        W65384  38.995   6.085  10.808
96991W        W65385  10.295  16.771  12.491
96992W        W65386   0.864  30.192  13.946
96993W        W65387  43.893  18.649  10.589
96994W        W65388  32.694  11.675  11.179
96995W        W65389  38.592  41.513  11.263
96996W        W65390  20.579   9.774   0.426
96997W        W65391  22.119  26.049  10.860
96998W        W65392  37.038   9.727   4.662
96999W        W65393  19.649  18.276  14.281
97000W        W65394   7.679  34.713  13.347
97001W        W65395  38.364  37.790   0.903
97002W        W65396  14.929  20.148   4.153
97003W        W65397  16.036  37.871  11.129
97004W        W65398  12.419   5.110  13.824
97005W        W65399  43.791  41.347  11.147
97006W        W65400  23.018  27.578   2.298
97007W        W65401  19.019  44.771   0.356
97008W        W65402  22.596  22.948  11.630
97009W        W65403  28.578  20.046   1.927
97010W        W65404  42.888  35.615  13.578
97011W        W65405  34.209   3.970   3.156
97012W        W65406  28.349  35.506  12.902
97013W        W65407   2.603  13.075  10.109
97014W        W65408   1.957   3.199  13.596
97015W        W65409  27.388  36.823  11.964
97016W        W65410  38.548   7.689  10.714
97017W        W65411  20.790  37.664   0.311
97018W        W65412  29.670  40.420   0.047
97019W        W65413  31.963  40.362  10.364
97020W        W65414  31.517  27.938   1.183
97021W        W65415  14.268  43.356  13.407
97022W        W65416  17.523  24.294   2.711
97023W        W65417  16.939   1.330   1.924
97024W        W65418   6.230  16.029  11.167
97025W        W65419  10.363  26.259  11.693
97026W        W65420  38.526  38.162   1.270
97027W        W65421  31.098  28.637  10.727
97028W        W65422  32.451  16.697  14.995
97029W        W65423  36.135  25.052   5.035
97030W        W65424  16.458  34.409  10.840
97031W        W65425  22.103   2.432   1.995
97032W        W65426   4.879  14.645  11.868
97033W        W65427  15.170  28.672  14.566
97034W        W65428  36.480  20.722  11.031
97035W        W65429   3.938  19.742   1.882
97036W        W65430   9.286  16.543   4.141
97037W        W65431  11.133  29.425  10.732
97038W        W65432  14.786   3.526  14.730
97039W        W65433  31.478  33.793   2.478
97040W        W65434  44.489  30.731   3.232
97041W        W65435  14.172  39.537   3.484
97042W        W65436   3.300  29.050   3.142
97043W        W65437  41.541  15.529   1.811
97044W        W65438  23.308  25.212   2.292
97045W        W65439   0.496  10.372   3.652
97046W        W65440   2.463  44.978  13.132
97047W        W65441  39.089   1.497   0.561
97048W        W65442   4.036  35.973  11.388
97049W        W65443  28.390  29.121   2.847
97050W        W65444   5.733  20.339  10.713
97051W        W65445  17.685  25.879   4.091
97052W        W65446   1.677   7.464  14.919
97053W        W65447   8.208  26.740   3.652
97054W        W65448  27.720   1.861  12.522
97055W        W65449  26.100  28.151   4.601
97056W        W65450  14.316  14.640  10.474
97057W        W65451  13.265   2.415   2.658
97058W        W65452   5.354  39.832   0.099
97059W        W65453  29.578  15.201   0.528
97060W        W65454  33.633  14.279  11.223
97061W        W65455  34.549  22.403   2.107
97062W        W65456   9.216  29.021  10.531
97063W        W65457   6.273   1.520   4.203
97064W        W65458  26.851  18.295  13.360
97065W        W65459  20.682  36.537   4.793
97066W        W65460  14.123   1.840  13.925
97067W        W65461   9.417  29.151  13.385
97068W        W65462  41.362  32.900  14.529
97069W        W65463   8.850   2.418   2.914
97070W        W65464  24.991  20.076  10.781
97071W        W65465   8.560  14.854   0.418
97072W        W65466  41.102  26.908   3.290
97073W        W65467   3.756  16.561  12.263
97074W        W65468   1.234  37.550   1.841
97075W        W65469   8.444  44.278  14.401
97076W        W65470   7.386  38.424  11.907
97077W        W65471  23.732  14.019   1.822
97078W        W65472  38.542  27.049   1.745
97079W        W65473  29.379  42.843  14.216
97080W        W65474   9.112   7.103  12.490
97081W        W65475  26.260  27.041  13.485
97082W        W65476  31.587   7.437  12.509
97083W        W65477  10.396  19.564   0.267
97084W        W65478  16.496   4.213  11.586
97085W        W65479  40.870  38.960  12.114
97086W        W65480   9.869  30.064   2.863
97087W        W65481   1.378  12.709  10.811
97088W        W65482  42.474  31.620   0.830
97089W        W65483  23.522  15.657  10.401
97090W        W65484  37.782  34.358  14.475
97091W        W65485  43.267  40.573  13.982
97092W        W65486  42.333  14.696  10.582
97093W        W65487  21.989  27.836  13.852
97094W        W65488  16.294  19.239   0.245
97095W        W65489  24.040   3.800   2.780
97096W        W65490  37.050  10.117  11.214
97097W        W65491  18.186  43.856  14.085
97098W        W65492  36.571  27.016   0.308
97099W        W65493  24.104  27.900  14.515
97100W        W65494   8.778  10.413   0.008
97101W        W65495  18.627  20.634  11.433
97102W        W65496  18.792  28.013   1.295
97103W        W65497  25.487   9.299   2.298
97104W        W65498  17.057  23.085   4.026
97105W        W65499  27.083  34.589   0.956
97106W        W65500  16.307  11.820   3.760
97107W        W65501  39.885  13.309  13.413
97108W        W65502  31.396  41.045  14.922
97109W        W65503   6.165  14.119  14.271
97110W        W65504  14.395  19.211  13.263
97111W        W65505  36.436  10.488   1.118
97112W        W65506  19.180  18.804   4.213
97113W        W65507  25.476  27.548  13.898
97114W        W65508  38.933   3.696   0.869
97115W        W65509   8.132  29.020   0.824
97116W        W65510  30.748  35.486  12.646
97117W        W65511  19.724  34.944  12.646
97118W        W65512  32.335  10.716  14.333
97119W        W65513  35.077  15.846  12.405
97120W        W65514  14.036  14.646  14.346
97121W        W65515  28.967   4.187  12.063
97122W        W65516  24.062  17.145   4.323
97123W        W65517  15.744  32.207  12.486
97124W        W65518  42.549  34.842   4.029
97125W        W65519   9.937   7.944   4.365
97126W        W65520  44.269  17.371  11.018
97127W        W65521  41.452  38.550  14.903
97128W        W65522  27.725  26.556   1.379
97129W        W65523  30.655   4.214  14.353
97130W        W65524  23.010  10.408   1.331
97131W        W65525  27.329   9.201  14.414
97132W        W65526   9.431   4.238   9.723
97133W        W65527  11.971  14.731  13.040
97134W        W65528  12.275   3.138   4.600
97135W        W65529  41.784  43.900  11.677
97136W        W65530   9.718  41.902   1.070
97137W        W65531  19.356  27.922  13.055
97138W        W65532  37.384   3.500  10.709
97139W        W65533  20.419  31.927   1.419
97140W        W65534   5.610  23.506   4.997
97141W        W65535  26.730  35.676   0.221
97142W        W65536  11.829   5.482  11.390
97143W        W65537  14.277  38.223  13.438
97144W        W65538  33.837  23.444   4.709
97145W        W65539   5.434  13.186   0.716
97146W        W65540   3.250  43.402  12.800
97147W        W65541   5.020  43.463   1.306
97148W        W65542  25.647  16.150  14.544
97149W        W65543  18.137  43.286  11.466
97150W        W65544  41.041  16.741  12.047
97151W        W65545   8.877  32.078   1.940
97152W        W65546  33.541   5.690  14.915
97153W        W65547  27.449   8.261   3.862
97154W        W65548  29.143  16.572   4.294
97155W        W65549  39.495  14.178  10.681
97156W        W65550   8.191  44.745   3.599
97157W        W65551   2.475  39.017  14.590
97158W        W65552  25.764  24.577  12.107
97159W        W65553   7.878  29.352  10.749
97160W        W65554  13.786  11.964  14.960
97161W        W65555   8.141  23.552  13.370
97162W        W65556   0.212  39.590   4.104
97163W        W65557  28.542  13.317  11.876
97164W        W65558  39.783  44.930   2.211
97165W        W65559  44.426  20.741  11.589
97166W        W65560  41.533  35.452  13.856
97167W        W65561  18.883   7.538  12.584
97168W        W65562  26.662   0.240   4.552
97169W        W65563   8.776  15.362  11.628
97170W        W65564  25.825  15.927   4.973
97171W        W65565  22.753   0.019  13.800
97172W        W65566  43.177  15.745  10.500
97173W        W65567  24.326  16.772  10.780
97174W        W65568  22.548  41.293  14.981
97175W        W65569  41.032  27.208   1.000
97176W        W65570  36.684  36.020   4.915
97177W        W65571  19.076  30.665  11.540
97178W        W65572  13.883  19.191  13.452
97179W        W65573  12.739  44.913   3.256
97180W        W65574  16.118  31.066  11.910
97181W        W65575  38.375  43.944   4.579
97182W        W65576   9.352  25.538   4.829
97183W        W65577  32.939  20.714   4.104
97184W        W65578   6.161  34.084   3.104
97185W        W65579   7.035  38.532  14.437
97186W        W65580  20.483  23.684   2.657
97187W        W65581   4.831  24.271   4.750
97188W        W65582  36.462   4.910  13.379
97189W        W65583  20.317  26.729   0.325
97190W        W65584  36.141  20.100   3.327
97191W        W65585  37.096  38.283  14.372
97192W        W65586  23.573   3.696   1.379
97193W        W65587   7.214   7.828   1.167
97194W        W65588  21.098   4.681   1.381
97195W        W65589  29.628   4.387   1.212
97196W        W65590  22.204  29.390  11.635
97197W        W65591  17.975  39.540  14.199
97198W        W65592   7.260   0.495   2.159
97199W        W65593  14.180  32.406   4.834
97200W        W65594  10.043  15.714  10.333
97201W        W65595  27.714  11.601  10.524
97202W        W65596  15.651  30.936  12.133
97203W        W65597  36.647   0.806   3.429
97204W        W65598  31.119  28.978  11.125
97205W        W65599  42.903   2.377   3.865
97206W        W65600  22.566   2.852   4.700
97207W        W65601   4.208  26.694  12.053
97208W        W65602  13.862  17.750   1.445
97209W        W65603  42.317  32.434  13.338
97210W        W65604  34.391   4.770   2.744
97211W        W65605  34.394  19.758  11.586
97212W        W65606   4.443  34.435  13.773
97213W        W65607  23.611   9.755   0.210
97214W        W65608  24.579  42.925   1.317
97215W        W65609  14.376  16.123  13.121
97216W        W65610  43.952  34.793  14.832
97217W        W65611   4.671  13.256   1.241
97218W        W65612  31.438  38.022  11.955
97219W        W65613  19.541  43.315   0.918
97220W        W65614  34.732  35.353  11.974
97221W        W65615  40.401  12.764   0.338
97222W        W65616  34.797  32.586  14.330
97223W        W65617   4.566  31.676   4.529
97224W        W65618  13.129   8.520  13.636
97225W        W65619  12.299   1.945  10.347
97226W        W65620  16.276  31.414   1.089
97227W        W65621  10.517   2.595  14.210
97228W        W65622  18.155  17.377   1.214
97229W        W65623   4.148  18.190  13.481
97230W        W65624  30.509  43.922   4.717
97231W        W65625  15.549  21.863   2.426
97232W        W65626  19.666  34.149  10.822
97233W        W65627  16.076  37.432   3.213
97234W        W65628  25.761  40.844   2.788
97235W        W65629  38.324  42.891   1.503
97236W        W65630  43.854  44.255  13.709
97237W        W65631  29.384   1.709   4.158
97238W        W65632  10.419  31.745   1.870
97239W        W65633   0.722   6.493   1.982
97240W        W65634  38.849  28.561  13.557
97241W        W65635  36.213  19.590  10.354
97242W        W65636  36.590  11.155  12.864
97243W        W65637  21.279  35.872  13.927
97244W        W65638   0.210   4.333  10.439
97245W        W65639   5.339  42.743  10.705
97246W        W65640  35.822  13.837  11.601
97247W        W65641  13.276  27.992   2.756
97248W        W65642  25.620   6.384   0.987
97249W        W65643  37.773   0.419  12.487
97250W        W65644   9.585   8.165  11.889
97251W        W65645  28.030  29.192   2.449
97252W        W65646   6.327  13.044  10.952
97253W        W65647  25.040   6.915  10.658
97254W        W65648   0.831   2.339  10.734
97255W        W65649  40.876  39.727  11.791
97256W        W65650  21.181   9.827  13.112
97257W        W65651  33.157  36.130  13.503
97258W        W65652  10.858   9.436  11.955
97259W        W65653   5.959  25.529   3.024
97260W        W65654  14.582  35.834   4.076
97261W        W65655   0.142  12.076   3.382
97262W        W65656  25.494  10.189   4.102
97263W        W65657  42.736   2.415   2.637
97264W        W65658  27.381   5.732  14.205
97265W        W65659  37.863   2.838   4.500
97266W        W65660  26.297  21.063  14.479
97267W        W65661  11.339  29.623   0.924
97268W        W65662  42.949  11.878  10.444
97269W        W65663  21.061   4.703  14.489
97270W        W65664  14.552  18.734  14.515
97271W        W65665  14.763  28.938  13.910
97272W        W65666  22.678  25.725   0.250
97273W        W65667  13.118  18.552   0.787
97274W        W65668  28.473  34.632   4.149
97275W        W65669  38.406  11.239  14.917
97276W        W65670  13.600   3.717   3.629
97277W        W65671  10.181  23.183  14.405
97278W        W65672  11.874  41.857   4.202
97279W        W65673  25.383   0.850  11.973
97280W        W65674  10.280  41.000  13.522
97281W        W65675  14.499  11.500   1.932
97282W        W65676  22.484   4.894  12.636
97283W        W65677   6.476   9.729  13.436
97284W        W65678  18.127  37.399   0.017
97285W        W65679  41.519  21.718   1.896
97286W        W65680  39.401  28.390  14.781
97287W        W65681  20.549   9.039   1.671
97288W        W65682  13.157  42.445  10.701
97289W        W65683   2.365   7.595  10.893
97290W        W65684  10.292  39.468   4.436
97291W        W65685   7.893   5.364   3.792
97292W        W65686  21.559  42.753  14.466
97293W        W65687  42.794  41.047   0.972
97294W        W65688  30.221   1.630  14.328
97295W        W65689  28.677  15.576   2.594
97296W        W65690  21.918  39.321  12.365
97297W        W65691  44.310  17.981  12.339
97298W        W65692  40.433  20.257  13.825
97299W        W65693  35.468  22.769   2.222
97300W        W65694  44.340  28.137   1.303
97301W        W65695  37.858  35.814  13.829
97302W        W65696  19.486   7.695   1.319
97303W        W65697  28.422  19.133   2.655
97304W        W65698  36.478  38.899  10.763
97305W        W65699  23.510  11.670   0.807
97306W        W65700  39.554  27.755  11.654
97307W        W65701  37.715  25.433  13.452
97308W        W65702  32.365  31.549   1.230
97309W        W65703  23.473  31.384   1.667
97310W        W65704  30.524  36.520   1.912
97311W        W65705   2.337  17.940  10.154
97312W        W65706  28.725   7.660  14.542
97313W        W65707  10.724  40.559   4.533
97314W        W65708  30.926  37.507  11.082
97315W        W65709   5.840   8.637   2.397
97316W        W65710  23.686  11.477  14.838
97317W        W65711  34.127  24.748  12.470
97318W        W65712   2.309  10.079  13.441
97319W        W65713   8.289   4.241   1.095
97320W        W65714  15.257   9.492  13.831
97321W        W65715  27.192  15.274  12.075
97322W        W65716  25.793  19.109  14.229
97323W        W65717  41.979   4.827   3.244
97324W        W65718  29.594  24.194   0.486
97325W        W65719  35.538  21.257   4.980
97326W        W65720   5.868  35.615   2.272
97327W        W65721   6.354  11.099   2.852
97328W        W65722   0.723   8.300   2.697
97329W        W65723  42.169  13.294  14.515
97330W        W65724   5.962  33.174   4.073
97331W        W65725  26.998  17.290   2.982
97332W        W65726  12.038  30.847  12.363
97333W        W65727  24.684   6.886   4.032
97334W        W65728  12.240   8.397   2.647
97335W        W65729  44.479   3.988  12.099
97336W        W65730  18.037  44.307  13.291
97337W        W65731   4.310  27.036  10.390
97338W        W65732  42.484   6.269   0.941
97339W        W65733  31.578  20.847  13.471
97340W        W65734  30.710   2.265   4.686
97341W        W65735  30.263   5.361  11.196
97342W        W65736  33.658   0.572   5.218
97343W        W65737  33.520  19.023   3.287
97344W        W65738  31.932  42.016   2.705
97345W        W65739  27.136  23.231   3.352
97346W        W65740  11.723  33.058  13.751
97347W        W65741   0.032  38.601  14.530
97348W        W65742  41.008  12.898   1.419
97349W        W65743  20.621  40.324   3.683
97350W        W65744  42.027  26.584  10.328
97351W        W65745  10.159  29.536  14.041
97352W        W65746  41.688  33.141   3.357
97353W        W65747   0.177  34.983  13.935
97354W        W65748  43.559  14.440  14.420
97355W        W65749  32.131  37.882  11.214
97356W        W65750  20.686  40.018   1.706
97357W        W65751  14.772   5.893  14.109
97358W        W65752  15.290  13.408   4.203
97359W        W65753  19.271  25.946   3.245
97360W        W65754   6.483  35.874   3.006
97361W        W65755   3.485  25.610  12.461
97362W        W65756  12.111   4.176   4.612
97363W        W65757   9.849   9.816  11.093
97364W        W65758  41.856  19.810  14.451
97365W        W65759   4.360   9.548  14.035
97366W        W65760   5.348  30.343   3.665
97367W        W65761  32.593   5.203   3.831
97368W        W65762   5.783  30.561  13.853
97369W        W65763  18.110  18.743   4.410
97370W        W65764  12.524   5.836   0.054
97371W        W65765  43.574  44.314  10.216
97372W        W65766  28.866  14.937   2.102
97373W        W65767   2.992   1.980   0.911
97374W        W65768  31.503  33.472   1.183
97375W        W65769   4.125  10.828  13.625
97376W        W65770   4.565  22.186   2.947
97377W        W65771  11.536  20.787  13.004
97378W        W65772  42.361  29.038  12.113
97379W        W65773  31.245   9.641  14.045
97380W        W65774  40.960  33.150  10.716
97381W        W65775  30.656  16.606   1.261
97382W        W65776  28.523   1.801  13.862
97383W        W65777  24.150  41.000  14.762
97384W        W65778  39.246  20.220  11.003
97385W        W65779   5.288  24.869  14.068
97386W        W65780  13.320  20.694  11.270
97387W        W65781  42.954  41.565  14.497
97388W        W65782  40.389  37.390   2.433
97389W        W65783  17.163  13.396   0.982
97390W        W65784  17.359  23.271  11.562
97391W        W65785  18.466  43.085  11.098
97392W        W65786  37.321  22.508  13.894
97393W        W65787  33.383  24.761   3.076
97394W        W65788  41.321   1.879   4.181
97395W        W65789  19.543   5.298   1.758
97396W        W65790  41.871  30.924  10.758
97397W        W65791   1.246  21.095  14.939
97398W        W65792  32.200  37.015  11.568
97399W        W65793   1.446  23.450   1.666
97400W        W65794  33.399  13.139   4.885
97401W        W65795  23.584  12.154   2.117
97402W        W65796   2.242  29.967   4.560
97403W        W65797  19.758  39.093   5.688
97404W        W65798  39.034  20.083  10.297
97405W        W65799   1.924  11.624   3.765
97406W        W65800   9.418   0.469   0.855
97407W        W65801  14.807   5.783   1.025
97408W        W65802  40.827  10.640   4.831
97409W        W65803  15.732  25.847  12.322
97410W        W65804  43.896  17.736  10.734
97411W        W65805  17.771  25.648   1.836
97412W        W65806  31.682   9.793  13.783
97413W        W65807  19.013   5.685   4.555
97414W        W65808  44.096  32.835   2.157
97415W        W65809  23.961  22.689   1.340
97416W        W65810   0.581  17.600  11.438
97417W        W65811  26.393  35.888  13.376
97418W        W65812  27.911  13.660   2.432
97419W        W65813  11.672  33.833  11.167
97420W        W65814   0.714  27.131  10.724
97421W        W65815  36.008   1.791  13.105
97422W        W65816   9.165   5.417  11.162
97423W        W65817  42.325  11.751  11.136
97424W        W65818  12.548  40.997  10.669
97425W        W65819  29.433  17.779   0.509
97426W        W65820  39.766  30.250   1.913
97427W        W65821  20.225   0.286   0.237
97428W        W65822   5.957   6.719   3.135
97429W        W65823  32.895  31.694  13.955
97430W        W65824  24.755  28.717   3.644
97431W        W65825  35.889   3.425  12.780
97432W        W65826   2.916  28.325  13.846
97433W        W65827   7.584  22.723  13.278
97434W        W65828  40.998   0.825  11.644
97435W        W65829   3.751  44.259  11.678
97436W        W65830  22.717  11.298   0.822
97437W        W65831  28.670   4.216  14.796
97438W        W65832  11.137  30.074   0.778
97439W        W65833   9.094  19.704  10.700
97440W        W65834  29.234   1.230   2.338
97441W        W65835   5.288  19.043  10.552
97442W        W65836  13.221  32.074   1.601
97443W        W65837   5.006  12.864  12.012
97444W        W65838  38.509   9.402   0.937
97445W        W65839   1.777   6.824  11.251
97446W        W65840  36.848  25.494  10.701
97447W        W65841  18.258  25.204   2.655
97448W        W65842  26.035  11.988  14.374
97449W        W65843  41.243  16.110   0.948
97450W        W65844  36.185   0.322   3.651
97451W        W65845  36.972   6.116   3.134
97452W        W65846  43.264  39.999  11.893
97453W        W65847  42.839  33.406   4.178
97454W        W65848  30.030  22.768  13.350
97455W        W65849  37.604  42.051  10.764
97456W        W65850  17.675  38.870  13.830
97457W        W65851  24.096   3.909  14.296
97458W        W65852  36.083  38.357  11.797
97459W        W65853  31.630  34.909   1.363
97460W        W65854  29.392  21.223  13.750
97461W        W65855  41.440   4.661  14.725
97462W        W65856  26.294  28.189  14.631
97463W        W65857  43.515  18.135   3.822
97464W        W65858  12.291  22.597  12.940
97465W        W65859   8.121  36.068  11.387
97466W        W65860  44.362   5.261  12.949
97467W        W65861  43.447   7.678   0.711
97468W        W65862   9.005  25.932   4.674
97469W        W65863   8.210  31.566   2.843
97470W        W65864  15.724  39.718   3.084
97471W        W65865  30.882  12.027   2.381
97472W        W65866   3.328  39.879   1.292
97473W        W65867  41.407  23.515  12.886
97474W        W65868   5.209   6.633  13.768
97475W        W65869  15.747  15.701  11.037
97476W        W65870  28.943  21.075  12.389
97477W        W65871  15.259  11.642   4.125
97478W        W65872  22.709  10.769   3.818
97479W        W65873  40.847   9.968  14.928
97480W        W65874  31.728  26.902   2.334
97481W        W65875   0.342   9.726  10.680
97482W        W65876  28.910   8.918   1.264
97483W        W65877   3.881  22.210   4.133
97484W        W65878  23.419  42.961   2.104
97485W        W65879  39.403   0.848  13.484
97486W        W65880  39.962  40.030  14.006
97487W        W65881   0.423  43.614  11.616
97488W        W65882  21.848  27.706   4.975
97489W        W65883  14.268   7.566   1.846
97490W        W65884  24.448  12.285  11.230
97491W        W65885  13.348  39.886  11.505
97492W        W65886  16.779  24.759   3.852
97493W        W65887  16.459   5.028   4.137
97494W        W65888  32.801  44.778   0.029
97495W        W65889  35.392   8.586   4.149
97496W        W65890  36.478  37.519  10.293
97497W        W65891   2.355  31.884   0.291
97498W        W65892  17.671  43.339   1.555
97499W        W65893   9.454  30.141  13.006
97500W        W65894  42.329  16.195  12.616
97501W        W65895  27.454  17.594  13.898
97502W        W65896   0.455  28.004   4.524
97503W        W65897  20.242   8.752   2.881
97504W        W65898  30.125  23.479   2.761
97505W        W65899  24.759  28.184   0.771
97506W        W65900  10.449   3.143   5.002
97507W        W65901  17.849  12.858  12.932
97508W        W65902  39.453  12.796   4.099
97509W        W65903  43.399  27.246   0.940
97510W        W65904  33.590  25.391  12.695
97511W        W65905  31.249  25.202   5.173
97512W        W65906  21.317  43.204  10.240
97513W        W65907   7.665  19.856  10.302
97514W        W65908  28.071  15.899   4.287
97515W        W65909   8.177   2.991  13.954
97516W        W65910  37.552  12.633   4.946
97517W        W65911  43.587  31.969   0.267
97518W        W65912  22.735  19.191   0.408
97519W        W65913   9.186  18.174   1.390
97520W        W65914  39.808  18.257   1.203
97521W        W65915  43.528   2.079   3.708
97522W        W65916   7.393  16.160  13.421
97523W        W65917  11.357  31.320   3.352
97524W        W65918   5.028  41.331   4.189
97525W        W65919  37.008  19.775   4.012
97526W        W65920   3.867   6.693   4.124
97527W        W65921  36.369  14.760  12.751
97528W        W65922   4.468   4.252   0.804
97529W        W65923  29.978  29.147  13.112
97530W        W65924   1.178  11.315  14.824
97531W        W65925  32.511  41.003  12.518
97532W        W65926  37.835  37.513  14.792
97533W        W65927   6.144  10.693   4.097
97534W        W65928  17.249   0.967   2.307
97535W        W65929  17.675   1.057   0.285
97536W        W65930   3.683  15.765  14.858
97537W        W65931  32.655  30.527   3.681
97538W        W65932  30.714   1.946  10.431
97539W        W65933   5.024  39.325  14.421
97540W        W65934  17.049  30.098   0.959
97541W        W65935  21.555  23.553  13.989
97542W        W65936   7.582  43.116   4.531
97543W        W65937   9.826   2.753   3.115
97544W        W65938  23.769  35.583  14.504
97545W        W65939  13.748   6.631   1.453
97546W        W65940  31.136   2.349  11.565
97547W        W65941  34.438   6.973   2.397
97548W        W65942   5.872  32.418   3.148
97549W        W65943  23.206   9.950  12.135
97550W        W65944  37.113  40.898  10.369
97551W        W65945  11.780  17.210   3.108
97552W        W65946  30.162  15.831   0.345
97553W        W65947  14.659  37.276  11.119
97554W        W65948  37.567  14.384  14.018
97555W        W65949  36.337   3.089  14.428
97556W        W65950   6.307  24.107   2.268
97557W        W65951  20.495  13.630   2.560
97558W        W65952  17.856   0.043  14.328
97559W        W65953  36.980   4.606  13.475
97560W        W65954  31.110  15.794   4.988
97561W        W65955  31.304  18.782   4.095
97562W        W65956  32.015  19.461  13.833
97563W        W65957  18.587   4.879  14.681
97564W        W65958  11.416  43.851   1.375
97565W        W65959  15.518  42.824  11.077
97566W        W65960  29.679  34.546  13.978
97567W        W65961  15.657  35.506  11.827
97568W        W65962  42.448  31.917  14.510
97569W        W65963  38.065  28.609  11.122
97570W        W65964  10.699  12.814   2.584
97571W        W65965  13.704  20.644   3.318
97572W        W65966   9.557  33.971   2.641
97573W        W65967  40.574  44.455  14.192
97574W        W65968  32.460   9.767   3.614
97575W        W65969  41.808   8.578  13.088
97576W        W65970   9.790   7.444  13.977
97577W        W65971  34.178  30.730  11.442
97578W        W65972  20.075  41.778   3.743
97579W        W65973  37.621  40.794   1.176
97580W        W65974   5.939  18.473  11.114
97581W        W65975  31.442  30.063   4.098
97582W        W65976   2.256  33.604  13.370
97583W        W65977  13.904  14.117   5.016
97584W        W65978  20.050  17.980  13.468
97585W        W65979   7.368   9.299  12.441
97586W        W65980  11.841  10.833   4.514
97587W        W65981  18.495  20.583   2.224
97588W        W65982  30.880  21.114  12.534
97589W        W65983   9.675  40.814  11.655
97590W        W65984  43.907  33.933  11.666
97591W        W65985  31.729  24.494   0.667
97592W        W65986  13.393   5.628   3.288
97593W        W65987  23.006  27.002   1.713
97594W        W65988  29.665  35.482   0.788
97595W        W65989   2.941   5.922  13.836
97596W        W65990   2.555  20.499   0.875
97597W        W65991  20.504  27.962  13.433
97598W        W65992  34.455   4.972  10.343
97599W        W65993   3.692   6.023   1.011
97600W        W65994  24.195  16.744   0.199
97601W        W65995   9.964  23.540  10.205
97602W        W65996  19.473   9.218   3.362
97603W        W65997  26.695  15.719   1.303
97604W        W65998  20.698  35.734   0.146
97605W        W65999  18.662  15.780   2.422
97606W        W66000  10.001  24.515  11.312
97607W        W66001   7.094  24.437  11.099
97608W        W66002  39.498  23.284   1.837
97609W        W66003   5.472  42.412   2.890
97610W        W66004   9.289  43.452  14.820
97611W        W66005  17.216  11.907  10.680
97612W        W66006   7.753  35.915   3.399
97613W        W66007   9.367   9.805  14.386
97614W        W66008   6.458  10.555  11.134
97615W        W66009  32.588  42.026  12.510
97616W        W66010  26.325  42.446  13.199
97617W        W66011  35.530   3.732  13.694
97618W        W66012  20.985  25.113   1.812
97619W        W66013  25.551  17.082   0.894
97620W        W66014  25.015  32.406  11.879
97621W        W66015  19.791  30.252   1.299
97622W        W66016   4.762  42.123   3.374
97623W        W66017  33.311  29.650   3.761
97624W        W66018  11.144  35.505  10.788
97625W        W66019   3.228  43.558  13.296
97626W        W66020  36.958  35.816  12.926
97627W        W66021   6.476  22.114  12.777
97628W        W66022  44.940  32.099  11.719
97629W        W66023  33.925  15.298   0.909
97630W        W66024   7.406  15.630   2.320
97631W        W66025  22.568  28.724   3.328
97632W        W66026   1.325   6.801  10.961
97633W        W66027  19.719  38.065   5.493
97634W        W66028  21.407   8.325   4.623
97635W        W66029  25.233  17.347  11.953
97636W        W66030  27.846  29.099  10.999
97637W        W66031  31.228  19.626  12.023
97638W        W66032  40.296  16.288   0.787
97639W        W66033  25.778   2.934  10.305
97640W        W66034  11.298  41.570   1.766
97641W        W66035  17.606  35.775   5.057
97642W        W66036  41.789   7.392   1.039
97643W        W66037  24.147  37.819  13.801
97644W        W66038   1.778  33.985  12.874
97645W        W66039   8.787  27.977   0.463
97646W        W66040  40.383  26.594  13.898
97647W        W66041  24.983   8.300   3.329
97648W        W66042   2.685  14.647   1.373
97649W        W66043  12.543   2.478   3.963
97650W        W66044  26.006  28.380   1.337
97651W        W66045   5.422  22.204  11.977
97652W        W66046  24.330   6.275   4.827
97653W        W66047  31.614  10.228  13.284
97654W        W66048  13.218   3.312  11.697
97655W        W66049   1.781  10.758  11.367
97656W        W66050  42.308  39.435  12.430
97657W        W66051   7.622  21.247  12.847
97658W        W66052  43.459  10.723   2.867
97659W        W66053   6.451   9.208  12.408
97660W        W66054  33.661  12.912  13.920
97661W        W66055  28.677  30.098   1.907
97662W        W66056  21.432  13.325   4.607
97663W        W66057   4.732  12.495   3.290
97664W        W66058   7.522   0.283   0.807
97665W        W66059  41.371  39.792   0.300
97666W        W66060   2.288  29.938   1.733
97667W        W66061  24.340  43.659  13.352
97668W        W66062  30.542  35.646   1.401
97669W        W66063   8.051  35.366   1.566
97670W        W66064  26.387  43.962  13.393
97671W        W66065  39.872   4.945   2.161
97672W        W66066  24.549  36.764  11.691
97673W        W66067   6.797   7.154   2.307
97674W        W66068   6.269  18.262   2.697
97675W        W66069  17.891  10.151   4.052
97676W        W66070   3.880  40.931  12.598
97677W        W66071  27.897  30.528   4.559
97678W        W66072  27.591  24.133  14.990
97679W        W66073  15.265  12.766  13.301
97680W        W66074  12.387  35.010  12.906
97681W        W66075  41.412  33.387   4.813
97682W        W66076   2.334  42.575  10.645
97683W        W66077  19.555  36.830   1.295
97684W        W66078  14.235   0.644  10.238
97685W        W66079  21.605  17.050   2.695
97686W        W66080  24.054  35.051  11.570
97687W        W66081  29.253   7.768   3.619
97688W        W66082  21.169  38.789   3.652
97689W        W66083  25.464  30.706   1.229
97690W        W66084  14.324  22.107  10.985
97691W        W66085  32.569   1.474  10.518
97692W        W66086  14.318  24.829  11.995
97693W        W66087  22.130  41.922   4.323
97694W        W66088   3.400  34.682   4.565
97695W        W66089  11.950   9.122  10.837
97696W        W66090  43.824   8.927  11.169
97697W        W66091  24.735  26.574  11.629
97698W        W66092  44.250  31.837   0.719
97699W        W66093  34.875  26.495   0.651
97700W        W66094  25.675   0.252  12.946
97701W        W66095  41.916  12.596  12.921
97702W        W66096  33.156  12.256   1.390
97703W        W66097  35.175  44.886  13.616
97704W        W66098  16.830  13.318  13.503
97705W        W66099  42.807  16.836  13.857
97706W        W66100  37.900  19.020   0.493
97707W        W66101  18.109   8.279   4.593
97708W        W66102  40.513  15.086   4.086
97709W        W66103  36.993  40.484   3.868
97710W        W66104  25.578  27.553  12.882
97711W        W66105  24.470  26.117  11.550
97712W        W66106  31.566  23.565  10.996
97713W        W66107  43.032  34.184  11.667
97714W        W66108  11.663  38.992   3.289
97715W        W66109  42.423  35.627   5.386
97716W        W66110  24.715  43.939  14.394
97717W        W66111  15.991  17.602  13.255
97718W        W66112  31.103  21.619   0.844
97719W        W66113  35.067  10.377   5.160
97720W        W66114   2.236  42.045   2.481
97721W        W66115  11.800   1.263  11.861
97722W        W66116  21.045  40.621  14.908
97723W        W66117  12.761   2.976   4.735
97724W        W66118  17.133  43.610  12.410
97725W        W66119  17.292   7.721  10.726
97726W        W66120  41.608  19.167   2.233
97727W        W66121  33.586  15.146   4.382
97728W        W66122   8.305  16.561   1.375
97729W        W66123  14.233   4.765   3.231
97730W        W66124  11.901  23.058   2.816
97731W        W66125  44.272  24.013  13.269
97732W        W66126  38.517  31.863  11.980
97733W        W66127   4.424  42.869   4.320
97734W        W66128  10.204  20.568  11.404
97735W        W66129  21.930  38.843   1.298
97736W        W66130  16.985   7.886  10.350
97737W        W66131  13.742  17.120  14.418
97738W        W66132  35.304   0.780   4.921
97739W        W66133  44.540  26.293   4.176
97740W        W66134  27.121  38.551   1.415
97741W        W66135  30.942   0.533   1.857
97742W        W66136   1.787  14.148  13.746
97743W        W66137  28.541  36.695   3.704
97744W        W66138   7.602  26.077   2.104
97745W        W66139  41.498  25.654  11.646
97746W        W66140  43.020  34.365   3.183
97747W        W66141  27.148   7.533  12.958
97748W        W66142  15.295  25.612   3.243
97749W        W66143  21.142  41.232   9.999
97750W        W66144  43.853  41.565  14.378
97751W        W66145  19.101   6.969   0.377
97752W        W66146  43.763  18.795  14.322
97753W        W66147  43.272  28.074   3.308
97754W        W66148  11.040  42.670  13.865
97755W        W66149  43.217   8.869  12.831
97756W        W66150   0.771  32.662   0.433
97757W        W66151  10.623  44.180   1.268
97758W        W66152  27.845   4.364  14.911
97759W        W66153   3.252  23.608  10.637
97760W        W66154  23.665  28.688  11.689
97761W        W66155  30.985  43.704   2.156
97762W        W66156   6.182   2.083   5.089
97763W        W66157   7.462  21.563   4.139
97764W        W66158  35.584  18.699  12.467
97765W        W66159  37.515   2.373   1.160
97766W        W66160  29.456   1.868  10.840
97767W        W66161  22.711  29.424   4.287
97768W        W66162  38.386  29.898  12.768
97769W        W66163  44.952  21.790   2.155
97770W        W66164  26.227  29.159  11.701
97771W        W66165  43.392  31.434  12.230
97772W        W66166   6.880  15.885   1.835
97773W        W66167  31.875  12.088  11.180
97774W        W66168  20.642  15.698  12.387
97775W        W66169   6.875  20.552   2.854
97776W        W66170  22.103  30.022   1.681
97777W        W66171   9.792  20.770   3.923
97778W        W66172  33.634  30.661  10.769
97779W        W66173  29.194  35.512   1.144
97780W        W66174   1.673   9.368   3.261
97781W        W66175  22.490  21.557   3.806
97782W        W66176  33.432  11.612  12.434
97783W        W66177  31.547  37.971  13.099
97784W        W66178  19.052  36.018   4.112
97785W        W66179  43.766  32.090   0.864
97786W        W66180  40.930  28.613   3.911
97787W        W66181   6.347  17.052  14.377
97788W        W66182   1.788  32.470  13.118
97789W        W66183  11.800   6.510   0.325
97790W        W66184  14.843  28.452   2.986
97791W        W66185  11.326  31.498  14.413
97792W        W66186  35.902  14.738  11.522
97793W        W66187   7.670   4.818  12.088
97794W        W66188  23.584  20.546  12.297
97795W        W66189  28.998  40.855  10.982
97796W        W66190  14.858  16.728  14.947
97797W        W66191  10.286  35.020   4.698
97798W        W66192  20.140   9.320   0.025
97799W        W66193  22.146  42.149  14.929
97800W        W66194  19.109  26.722   2.782
97801W        W66195   7.649  43.047  12.259
97802W        W66196  42.231  27.477   1.687
97803W        W66197  39.831  20.056  13.948
97804W        W66198  25.806   5.242   2.185
97805W        W66199  30.966  44.328   3.216
97806W        W66200   1.550  26.961   3.296
97807W        W66201  38.260  13.067   0.613
97808W        W66202   7.439   2.700   0.346
97809W        W66203  15.731  31.452  14.638
97810W        W66204   8.695  17.197  13.369
97811W        W66205  42.426   6.675  12.146
97812W        W66206  17.012   3.355  10.637
97813W        W66207  36.634  12.767   0.888
97814W        W66208  23.528  17.355   3.170
97815W        W66209  43.087  12.781   1.285
97816W        W66210   5.152   9.854   4.419
97817W        W66211  25.441  32.439   1.902
97818W        W66212   8.646  27.516  13.203
97819W        W66213  23.558  19.310   4.208
97820W        W66214  33.185  16.253   0.427
97821W        W66215  36.408   3.909  13.809
97822W        W66216  43.395   1.506   0.973
97823W        W66217   7.815  16.360   1.337
97824W        W66218  16.516   9.656  11.567
97825W        W66219  28.866  38.264  11.159
97826W        W66220  25.500  44.833   2.084
97827W        W66221  30.412  17.965   0.791
97828W        W66222   2.993   9.418   1.192
97829W        W66223  32.555  22.294  10.676
97830W        W66224  39.479  37.008  14.556
97831W        W66225   4.202   4.997   3.257
97832W        W66226  11.473  41.090   0.386
97833W        W66227  33.379  43.976  10.357
97834W        W66228  10.428  39.485  10.608
97835W        W66229  43.765  40.823   0.807
97836W        W66230  11.260  40.692  10.845
97837W        W66231  21.049  33.893  14.626
97838W        W66232  15.118   5.591   3.331
97839W        W66233  32.062   7.324   2.648
97840W        W66234  35.610   5.378  13.860
97841W        W66235  42.251  14.241   4.572
97842W        W66236  11.514  10.798  12.080
97843W        W66237  43.403  12.073  14.976
97844W        W66238  11.411  25.721  12.457
97845W        W66239  39.835  40.075   4.192
97846W        W66240  30.482  26.945   2.787
97847W        W66241   0.321  37.382  11.868
97848W        W66242   7.226  32.355  11.340
97849W        W66243  20.392  17.143   3.889
97850W        W66244   6.717  40.104   3.795
97851W        W66245  12.278  38.558   1.855
97852W        W66246  18.551  23.543   5.269
97853W        W66247  40.042   3.832   2.634
97854W        W66248  43.797  17.773   4.430
97855W        W66249  16.621  39.274   3.689
97856W        W66250  39.271  11.406  11.174
97857W        W66251  22.242   6.770  12.715
97858W        W66252  14.266  37.525   2.871
97859W        W66253  13.275  11.725  12.923
97860W        W66254   0.280  35.431   2.197
97861W        W66255  12.686   7.085  12.515
97862W        W66256  19.584   5.349   3.335
97863W        W66257  31.656   2.762   0.498
97864W        W66258   5.321  11.108   0.912
97865W        W66259  12.117  21.750  13.691
97866W        W66260  34.079  28.657  13.478
97867W        W66261   0.797   5.388  14.660
97868W        W66262  39.321  24.791  11.523
97869W        W66263  14.943  37.394   3.645
97870W        W66264  37.375   0.042  10.916
97871W        W66265  23.999  18.322  14.454
97872W        W66266  27.599  15.221  12.808
97873W        W66267  30.176  18.068  13.064
97874W        W66268  38.429   1.198  12.781
97875W        W66269  40.828  42.311   3.185
97876W        W66270  13.221  37.656   0.406
97877W        W66271  18.249  15.582   5.558
97878W        W66272   7.106  27.338  12.906
97879W        W66273  42.578   3.253   4.377
97880W        W66274  40.418  17.779   2.241
97881W        W66275  36.532  34.021   2.480
97882W        W66276  27.557   2.533  11.732
97883W        W66277   9.851  41.944  14.113
97884W        W66278  27.951  30.061   1.373
97885W        W66279  40.746  23.985  10.735
97886W        W66280  26.715  35.612   3.776
97887W        W66281  14.053   6.846  13.024
97888W        W66282  40.396  38.091  13.547
97889W        W66283  12.916  23.659   1.981
97890W        W66284  16.768   3.429  11.990
97891W        W66285  22.900  19.573   3.683
97892W        W66286  16.069   6.436   2.242
97893W        W66287  10.683   3.945   2.373
97894W        W66288  34.110  35.764  14.579
97895W        W66289  17.032  11.825   4.117
97896W        W66290   9.416   6.134   0.507
97897W        W66291  34.086  38.594   3.397
97898W        W66292   0.782  43.039  10.789
97899W        W66293  12.297  34.159   0.473
97900W        W66294   3.862  35.693  12.169
97901W        W66295  38.928   8.157  11.171
97902W        W66296  38.892  17.020   3.691
97903W        W66297   6.732   3.936   3.298
97904W        W66298  22.174  15.390   4.384
97905W        W66299  20.474  35.549  14.261
97906W        W66300  33.101  15.912   1.798
97907W        W66301  29.109   7.693   2.294
97908W        W66302  39.076  10.605  13.357
97909W        W66303  27.615  22.319   4.611
97910W        W66304   4.920  39.376   4.872
97911W        W66305  23.280  18.685   0.992
97912W        W66306  23.601  41.805  11.972
97913W        W66307  27.147   4.271   3.761
97914W        W66308  32.572  34.860   2.332
97915W        W66309  42.799   7.123   0.787
97916W        W66310   2.225  22.315   4.103
97917W        W66311  31.040  44.453   2.723
97918W        W66312  37.664   4.314   1.737
97919W        W66313   0.684  19.305   3.619
97920W        W66314  29.483  15.284   1.349
97921W        W66315  29.993   0.365  14.319
97922W        W66316  17.387  15.226  13.455
97923W        W66317  32.925   1.833   2.898
97924W        W66318  12.186  42.921   0.675
97925W        W66319   0.839   7.749  12.036
97926W        W66320  30.263   7.103  14.971
97927W        W66321   3.302  31.130   1.370
97928W        W66322  32.458  33.563  11.934
97929W        W66323   0.339   7.540  10.620
97930W        W66324   6.953  35.219  10.774
97931W        W66325  11.157  16.967   2.440
97932W        W66326  21.363   9.288   5.008
97933W        W66327  32.473  13.377  11.857
97934W        W66328   6.884  33.001  12.520
97935W        W66329   7.819  32.639  10.690
97936W        W66330  12.528  23.023   0.284
97937W        W66331   8.164  22.230   3.435
97938W        W66332  35.007  43.498  11.870
97939W        W66333   3.852  29.528  13.548
97940W        W66334   2.200   1.097   4.154
97941W        W66335   6.148  13.372  12.946
97942W        W66336  10.390  21.994   2.791
97943W        W66337  11.230  40.275  10.543
97944W        W66338   2.660  36.231  13.945
97945W        W66339  19.046  13.766  14.539
97946W        W66340  33.566  30.164  10.888
97947W        W66341  34.496  27.029  13.065
97948W        W66342   9.687  23.693   0.780
97949W        W66343  35.820  10.595   3.720
97950W        W66344   0.784  33.783   3.286
97951W        W66345  38.827  24.605   0.765
97952W        W66346  27.222  32.411   4.152
97953W        W66347  36.128  37.440  12.207
97954W        W66348  27.664  14.943  14.333
97955W        W66349  26.027   5.188  11.149
97956W        W66350  15.132  32.532   1.809
97957W        W66351   9.261  18.175   3.775
97958W        W66352  38.783  27.100  12.078
97959W        W66353  18.274  21.077  10.963
97960W        W66354  29.154  24.458  11.192
97961W        W66355  34.118  17.617   3.665
97962W        W66356  22.685  27.193  14.308
97963W        W66357  38.399  28.906   3.129
97964W        W66358  37.567  17.994   4.890
97965W        W66359  28.947   3.018   0.038
97966W        W66360  35.534  15.043   1.295
97967W        W66361  21.804  12.972   4.485
97968W        W66362  18.989   5.748  13.359
97969W        W66363   7.979  21.280   3.337
97970W        W66364  30.540   6.764  11.935
97971W        W66365   2.380  27.689  13.740
97972W        W66366   2.411   4.244  11.609
97973W        W66367   6.661   7.382   1.412
97974W        W66368  34.890  12.374  14.930
97975W        W66369  41.531  16.010  13.002
97976W        W66370  26.431  31.542  14.684
97977W        W66371  14.161   6.224  12.504
97978W        W66372   1.015  30.015  11.463
97979W        W66373  14.108  32.846  10.294
97980W        W66374  29.946  38.383  13.921
97981W        W66375  13.872  19.674   1.942
97982W        W66376  36.603  22.631   0.267
97983W        W66377   1.391  29.956  12.046
97984W        W66378  38.851  20.921   0.393
97985W        W66379  15.034  17.910  13.350
97986W        W66380  36.396  21.631  10.487
97987W        W66381  12.240   0.919  13.302
97988W        W66382  14.040  37.978   4.594
97989W        W66383  28.622  14.789   4.576
97990W        W66384  23.680  30.610  14.760
97991W        W66385  14.517  21.087  12.600
97992W        W66386  24.124  42.948   0.544
97993W        W66387  11.392  43.771  14.494
97994W        W66388  19.512   4.858  14.991
97995W        W66389  31.040  15.678   0.198
97996W        W66390  13.107  21.718  14.819
97997W        W66391  32.567  33.890  10.493
97998W        W66392  41.240   8.760   2.779
97999W        W66393  26.229  42.399   1.279
98000W        W66394  10.096   7.358   4.766
98001W        W66395   0.214  37.987   3.341
98002W        W66396  44.250  28.504  10.247
98003W        W66397   3.422  30.426   0.270
98004W        W66398  34.072  39.877  13.798
98005W        W66399  27.514  44.156  13.517
98006W        W66400  38.186   4.942  11.406
98007W        W66401  32.449  21.742   0.660
98008W        W66402  36.497  22.600   2.764
98009W        W66403   7.578  20.842   2.200
98010W        W66404  20.567  29.525   4.226
98011W        W66405  22.510  13.107   3.221
98012W        W66406  33.756  15.545   4.089
98013W        W66407   8.248   3.061  11.737
98014W        W66408  10.601  43.300   1.336
98015W        W66409   4.863  26.947  10.296
98016W        W66410  17.851   4.523   4.394
98017W        W66411  25.316   2.365  11.678
98018W        W66412   6.868   8.862  13.345
98019W        W66413  14.108  28.189  14.738
98020W        W66414   1.606  14.748   4.905
98021W        W66415   5.458  27.476   2.019
98022W        W66416  14.572  33.983  13.590
98023W        W66417  30.478  17.217  11.532
98024W        W66418  43.329  16.230   3.243
98025W        W66419  26.121  42.586  13.669
98026W        W66420  33.841  17.730  10.802
98027W        W66421  28.377  37.486   3.118
98028W        W66422  30.762  22.985  14.771
98029W        W66423  33.853  37.266  12.410
98030W        W66424  21.254  26.059  13.416
98031W        W66425  39.979  18.572   4.141
98032W        W66426  27.746  27.436   0.821
98033W        W66427  23.066   7.227  13.434
98034W        W66428  42.858  23.015   3.274
98035W        W66429  39.973  38.054  13.852
98036W        W66430   4.936  13.191  13.544
98037W        W66431  38.649   6.923  12.728
98038W        W66432  43.425  29.911   2.786
98039W        W66433  41.496  19.549  12.576
98040W        W66434  12.078   2.609  11.644
98041W        W66435  27.630  32.566  10.657
98042W        W66436  41.497  25.070  11.200
98043W        W66437  42.420  30.408   1.890
98044W        W66438  28.251   2.533  14.447
98045W        W66439   3.854  21.509   1.373
98046W        W66440  26.997   5.367  14.822
98047W        W66441  41.936  24.476  13.788
98048W        W66442  10.494   5.710   1.672
98049W        W66443  11.196  26.258  12.132
98050W        W66444  32.064  32.998  10.577
98051W        W66445   6.235  29.830  14.348
98052W        W66446  38.501  15.662  12.512
98053W        W66447  10.048  42.938  11.968
98054W        W66448  12.546  14.126   2.971
98055W        W66449  24.261  20.561   0.453
98056W        W66450  35.654  24.708   1.294
98057W        W66451  11.256   8.466   4.751
98058W        W66452  10.294  20.023  13.425
98059W        W66453   2.875  38.447   2.728
98060W        W66454  20.978  30.573   4.889
98061W        W66455  40.309  32.038  12.453
98062W        W66456  20.031  19.486   2.103
98063W        W66457  10.827  40.380  14.812
98064W        W66458  33.870  30.861  14.690
98065W        W66459  28.223  13.562  10.504
98066W        W66460  38.461  23.153  14.559
98067W        W66461   3.398  31.575  10.695
98068W        W66462   6.784  43.512   2.902
98069W        W66463  16.685  40.443  14.494
98070W        W66464  11.831  44.817   1.372
98071W        W66465  41.377  26.510   3.090
98072W        W66466  44.870  22.553   1.553
98073W        W66467  44.671  24.517   2.422
98074W        W66468   2.250  44.069   4.361
98075W        W66469  33.652  10.777   3.667
98076W        W66470  13.795   4.949   2.082
98077W        W66471  11.090  14.435  14.028
98078W        W66472  26.700   6.348  13.467
98079W        W66473  17.065   1.126  14.519
98080W        W66474  27.273   7.813  14.246
98081W        W66475   9.739  27.289  11.073
98082W        W66476  25.716  28.035   3.374
98083W        W66477   7.444  25.711   2.441
98084W        W66478  14.089  25.724   1.201
98085W        W66479   4.986  17.215   5.011
98086W        W66480  25.059  30.460   0.280
98087W        W66481  26.597  33.913   2.730
98088W        W66482  27.931  12.587   3.779
98089W        W66483  10.159  37.307  12.447
98090W        W66484  16.189  34.993   3.183
98091W        W66485  14.642  25.481   0.088
98092W        W66486  21.498  13.744  10.398
98093W        W66487  38.918  26.259  13.909
98094W        W66488  28.213   4.994  12.516
98095W        W66489  42.333   0.334   3.380
98096W        W66490  36.831  22.630   2.323
98097W        W66491  23.519  21.370  11.960
98098W        W66492  17.692  24.681  14.103
98099W        W66493  42.540  37.406  14.877
98100W        W66494  30.555   3.051   1.989
98101W        W66495   2.249   7.677   0.844
98102W        W66496  10.214  18.343  12.967
98103W        W66497  20.591  31.517   4.656
98104W        W66498  12.729  21.449   0.294
98105W        W66499  10.638  44.688   0.505
98106W        W66500  37.486  16.141   0.974
98107W        W66501  24.771  33.177  11.093
98108W        W66502  27.576  27.882  11.913
98109W        W66503  21.116  39.575  14.866
98110W        W66504  43.551  24.663  14.435
98111W        W66505  40.326  30.010  13.063
98112W        W66506   4.436  15.813  11.619
98113W        W66507  10.435  27.571  10.335
98114W        W66508  24.160  33.922  13.599
98115W        W66509  36.404  23.905   2.761
98116W        W66510  42.338   5.773   3.128
98117W        W66511  26.549  40.406   5.093
98118W        W66512  23.127  27.057  13.530
98119W        W66513  18.222   6.154  13.932
98120W        W66514   9.399  14.017  13.561
98121W        W66515  40.866  40.560   0.499
98122W        W66516  38.095  13.314  13.869
98123W        W66517  23.127  38.111  10.741
98124W        W66518  28.907  13.599  13.485
98125W        W66519  44.642  43.389   3.733
98126W        W66520   9.159   7.031   0.722
98127W        W66521  42.543  11.449  13.005
98128W        W66522  25.757  37.990   0.350
98129W        W66523  23.219  15.348   0.503
98130W        W66524   1.950  37.284   1.728
98131W        W66525  31.032  28.186  12.089
98132W        W66526  22.075   9.070   2.771
98133W        W66527  22.763  32.102  11.985
98134W        W66528  26.661  44.790  11.928
98135W        W66529  32.019  25.264  14.324
98136W        W66530  39.585  17.274  11.180
98137W        W66531  30.825  18.678  12.796
98138W        W66532   8.708  26.971   1.167
98139W        W66533  26.248  12.759  11.126
98140W        W66534  34.879  30.891   0.749
98141W        W66535  25.342  11.268   1.939
98142W        W66536   5.519  33.413   4.071
98143W        W66537  32.901  30.985   1.628
98144W        W66538  43.075  43.405   0.003
98145W        W66539   2.787  28.047   4.749
98146W        W66540  35.879  21.059   3.457
98147W        W66541   5.137   5.753   2.710
98148W        W66542  34.094  12.784  14.997
98149W        W66543  40.331  28.373   1.218
98150W        W66544   6.043   5.488   4.664
98151W        W66545  36.515  15.490   2.401
98152W        W66546  20.628  40.600  12.655
98153W        W66547  37.381  32.916   3.186
98154W        W66548  22.654  14.700   4.041
98155W        W66549   6.736  20.955   1.406
98156W        W66550  12.282  18.061  13.170
98157W        W66551  39.206  16.281  13.895
98158W        W66552  20.631   7.764   2.777
98159W        W66553  25.903  24.014   4.132
98160W        W66554  43.105  12.104   4.361
98161W        W66555  40.871  15.343  12.080
98162W        W66556  22.169  16.076   3.335
98163W        W66557  17.544  12.804   2.715
98164W        W66558  44.032  21.697  14.484
98165W        W66559  35.365  41.491   0.968
98166W        W66560  40.472  25.824  12.955
98167W        W66561  13.711  35.549   1.300
98168W        W66562  34.716  31.596   3.922
98169W        W66563  12.207  21.947  11.521
98170W        W66564  11.576   8.797  10.677
98171W        W66565  17.077  10.059  13.915
98172W        W66566  43.155  31.146  13.358
98173W        W66567  17.083  30.004  14.765
98174W        W66568  32.975   8.269  14.407
98175W        W66569  34.940  11.583   0.327
98176W        W66570  42.750  40.532   3.261
98177W        W66571  18.486  33.889  14.857
98178W        W66572  27.868  19.245  10.635
98179W        W66573  15.591   2.826  12.755
98180W        W66574   7.619  21.731   4.629
98181W        W66575  18.831   2.989  12.909
98182W        W66576  10.338  23.462   2.515
98183W        W66577  26.238  42.462   4.550
98184W        W66578   4.346  32.849  13.794
98185W        W66579  27.588  24.024   0.491
98186W        W66580  11.888  14.052   2.718
98187W        W66581  36.887  43.063   3.625
98188W        W66582  25.605  27.470  12.333
98189W        W66583  30.606  30.387  10.553
98190W        W66584   6.847   1.696   9.611
98191W        W66585  27.835  16.776  12.516
98192W        W66586  37.039  18.171   4.488
98193W        W66587  27.020  35.345   0.500
98194W        W66588  25.665  25.042  11.890
98195W        W66589   7.782  13.889  12.766
98196W        W66590  27.917  33.609   0.393
98197W        W66591   9.751   4.194   2.856
98198W        W66592  10.815  19.698   1.901
98199W        W66593  12.885   6.765   2.841
98200W        W66594  21.973  23.826   4.283
98201W        W66595  36.944  43.606   3.572
98202W        W66596  41.930   7.503   0.091
98203W        W66597  43.481  44.278   1.844
98204W        W66598  20.205   1.207   1.729
98205W        W66599  22.556  16.083  13.275
98206W        W66600  30.656  19.658  12.437
98207W        W66601  30.367  24.452  13.003
98208W        W66602  16.900  23.018   1.138
98209W        W66603   6.771  41.070  10.741
98210W        W66604   7.902  12.303  13.706
98211W        W66605  38.805   1.374   2.317
98212W        W66606   6.813  37.883   3.210
98213W        W66607  31.604  18.614  11.155
98214W        W66608  24.545   3.179  12.763
98215W        W66609  37.953   8.873  13.799
98216W        W66610  16.700  22.117   1.729
98217W        W66611  10.888  27.589   2.117
98218W        W66612  18.530  39.825   0.991
98219W        W66613   3.703  41.382  11.479
98220W        W66614  43.232  39.958   5.476
98221W        W66615  40.068  28.523   3.714
98222W        W66616  12.772  18.633   2.797
98223W        W66617  25.377  32.160  11.610
98224W        W66618  25.296   0.238  10.758
98225W        W66619   9.929  38.511   3.372
98226W        W66620   9.254  10.806  14.384
98227W        W66621  38.873   2.367   0.002
98228W        W66622  42.480  20.701   0.724
98229W        W66623  44.972   4.812   0.837
98230W        W66624  21.641  20.691   4.019
98231W        W66625  40.902   6.263   0.329
98232W        W66626  30.468  14.150  14.309
98233W        W66627  15.557  43.697  12.022
98234W        W66628  24.439  42.862   3.724
98235W        W66629  12.182  22.626   2.548
98236W        W66630   4.477  35.855   0.130
98237W        W66631   6.235   9.162   1.572
98238W        W66632  27.110  29.580   3.396
98239W        W66633   3.961  21.775  13.031
98240W        W66634   9.524  19.628   1.340
98241W        W66635   7.801   8.672  10.314
98242W        W66636  22.697  11.870   2.325
98243W        W66637  33.217  34.053  13.819
98244W        W66638  17.534  35.165   3.315
98245W        W66639  27.229   4.906  13.376
98246W        W66640  26.190  18.795   0.906
98247W        W66641  34.880  24.000  11.051
98248W        W66642  35.580   4.022   2.263
98249W        W66643  34.083  13.725   3.790
98250W        W66644  39.642  41.669   2.776
98251W        W66645  44.889   6.667  10.498
98252W        W66646   9.287  24.085  14.326
98253W        W66647  28.226  33.131  10.316
98254W        W66648  36.295  11.125  11.540
98255W        W66649  17.762   5.365   2.320
98256W        W66650   3.382  41.221  14.424
98257W        W66651  31.061  43.408  11.402
98258W        W66652  31.985  36.016   0.938
98259W        W66653  26.851  21.164  12.368
98260W        W66654  28.133  29.257  12.962
98261W        W66655  30.645  19.776   1.140
98262W        W66656  34.458  17.160   2.375
98263W        W66657  20.284  17.488  13.683
98264W        W66658   7.700   4.175  12.118
98265W        W66659  20.231  23.441   2.277
98266W        W66660  27.743   2.469  14.424
98267W        W66661  32.958  18.278  12.445
98268W        W66662  23.171  16.039   3.543
98269W        W66663  33.641  31.420   0.918
98270W        W66664   8.901  26.085  12.044
98271W        W66665  36.031  41.591   1.729
98272W        W66666   3.532  42.447  10.632
98273W        W66667  20.696  41.849   0.648
98274W        W66668  15.760  33.890  14.283
98275W        W66669  32.555  31.165  13.001
98276W        W66670   9.097  27.071  14.505
98277W        W66671  29.169  33.884  14.413
98278W        W66672   3.912  30.699  11.594
98279W        W66673  25.622  18.223   3.691
98280W        W66674  17.121  22.548   4.758
98281W        W66675  21.320  26.162   3.854
98282W        W66676  23.017  29.857   4.245
98283W        W66677  16.259   1.674  14.426
98284W        W66678  11.900  19.986  12.549
98285W        W66679   9.865  21.779   0.027
98286W        W66680  10.778  22.465  11.949
98287W        W66681  39.512  13.828   2.163
98288W        W66682  38.518  40.893   4.082
98289W        W66683  43.694   6.204  11.803
98290W        W66684  36.728   5.645  13.840
98291W        W66685  41.104   4.629   1.253
98292W        W66686  44.449   5.712   2.638
98293W        W66687  16.297  16.138  13.703
98294W        W66688  12.470   5.546   3.289
98295W        W66689  43.183  32.025   1.414
98296W        W66690  34.931  34.017   4.595
98297W        W66691   8.158  32.938  11.741
98298W        W66692  12.840  30.220  13.277
98299W        W66693  18.762  13.673  11.895
98300W        W66694   6.869  43.200  14.927
98301W        W66695  38.580  27.190   0.427
98302W        W66696  21.927  18.338   3.739
98303W        W66697   1.947  34.024   1.279
98304W        W66698  23.456  15.767   3.175
98305W        W66699  16.755   6.877   1.327
98306W        W66700  43.773  29.132   2.282
98307W        W66701  27.723   4.225   1.540
98308W        W66702  34.726   4.041   2.311
98309W        W66703  35.598  27.770   4.223
98310W        W66704  27.777   7.880  14.319
98311W        W66705  37.068  39.620  10.780
98312W        W66706  17.437  39.587   0.675
98313W        W66707   4.385  14.635   4.586
98314W        W66708  24.977  18.815   3.274
98315W        W66709   1.758  14.737   4.414
98316W        W66710  14.604   9.310   4.549
98317W        W66711  38.946   9.626  12.391
98318W        W66712  28.506  18.628  10.750
98319W        W66713  19.803  42.303   3.295
98320W        W66714  32.644   2.089  14.479
98321W        W66715  12.689   1.459   1.755
98322W        W66716  28.144  29.915  10.764
98323W        W66717  37.520  30.922   3.045
98324W        W66718  26.747  15.129  11.837
98325W        W66719   1.822  29.936  14.831
98326W        W66720  18.283  29.206   0.868
98327W        W66721  20.941  35.520   4.023
98328W        W66722   7.243  12.613   0.782
98329W        W66723  10.063   9.363  12.510
98330W        W66724  23.168  19.152   3.873
98331W        W66725  40.995   2.464   2.387
98332W        W66726  35.838   7.406  10.715
98333W        W66727  31.795  38.965   1.809
98334W        W66728  24.822  32.215  13.374
98335W        W66729  32.493  11.593  10.720
98336W        W66730  39.943  41.871   4.151
98337W        W66731  12.736  39.763  12.131
98338W        W66732   1.056  15.533  14.959
98339W        W66733  23.741   9.776  13.789
98340W        W66734  44.463  36.468   0.889
98341W        W66735  38.455  28.560   0.838
98342W        W66736   5.910  21.978   1.252
98343W        W66737  17.090  16.602   1.813
98344W        W66738  23.018  11.628  13.903
98345W        W66739  42.533  30.595   0.471
98346W        W66740  23.529   7.825  12.896
98347W        W66741  15.214  10.636  13.010
98348W        W66742   0.409  30.434  13.779
98349W        W66743  42.340   5.668  14.810
98350W        W66744  10.082  41.508  13.478
98351W        W66745   6.499  39.360   1.711
98352W        W66746   3.514  24.522  11.611
98353W        W66747  19.686   9.925   3.747
98354W        W66748  39.143   1.966  12.109
98355W        W66749   7.418  27.763  13.525
98356W        W66750  12.320  40.527   0.687
98357W        W66751  24.808   6.661  12.169
98358W        W66752  38.900  28.898   2.936
98359W        W66753   3.194  23.466   0.969
98360W        W66754  17.883  18.071  11.978
98361W        W66755  43.826   4.882  10.870
98362W        W66756  15.209  27.020   1.229
98363W        W66757  23.584   7.322  13.853
98364W        W66758  14.301  36.275   2.296
98365W        W66759  17.287   6.179  12.949
98366W        W66760  15.754  43.223  12.329
98367W        W66761  42.081  38.917  13.405
98368W        W66762   7.243  16.315   1.419
98369W        W66763  22.842   0.661  10.212
98370W        W66764  34.413  15.220   0.762
98371W        W66765  21.797  16.084  14.407
98372W        W66766   5.441   3.020   2.209
98373W        W66767  35.520  35.646   3.799
98374W        W66768  38.615  28.169  11.607
98375W        W66769  39.991  25.740  12.671
98376W        W66770  37.633  44.967   3.284
98377W        W66771  20.463  33.453   0.408
98378W        W66772  34.456  15.520  14.637
98379W        W66773  29.872   2.235  12.527
98380W        W66774  11.372  24.483   3.504
98381W        W66775   7.381  17.743  13.147
98382W        W66776  36.398  15.800   4.823
98383W        W66777   5.298  44.744  10.462
98384W        W66778  29.046  11.611  11.175
98385W        W66779  40.431  42.259   1.845
98386W        W66780  41.525  29.188  12.983
98387W        W66781   4.762  17.490   3.706
98388W        W66782  18.427   8.852  13.433
98389W        W66783   9.511  28.101  13.499
98390W        W66784  14.262  13.736  10.984
98391W        W66785  27.584  24.180  14.465
98392W        W66786  23.210  18.551  13.909
98393W        W66787  36.975  12.714   1.878
98394W        W66788  28.591  37.863  13.457
98395W        W66789  36.774  17.982  12.873
98396W        W66790  40.408   3.038  10.296
98397W        W66791  22.783  16.771  13.916
98398W        W66792   9.739  27.075   1.385
98399W        W66793  22.417  11.638   3.591
98400W        W66794  24.190   4.976   0.189
98401W        W66795  21.278  26.178   5.028
98402W        W66796  19.746  19.802   4.958
98403W        W66797  21.185  17.113  14.584
98404W        W66798  14.874  13.139  14.707
98405W        W66799  31.099  36.666  13.003
98406W        W66800  35.124   4.945   2.470
98407W        W66801  42.598  13.688   1.241
98408W        W66802  44.944  38.848  11.586
98409W        W66803  16.268   8.152   3.276
98410W        W66804  42.659  43.911  13.530
98411W        W66805  33.733  28.237   4.852
98412W        W66806  26.349  19.505   2.179
98413W        W66807   8.815  36.088  14.555
98414W        W66808   9.877  36.884  14.240
98415W        W66809  35.077  37.931   2.901
98416W        W66810  28.123  43.284  12.802
98417W        W66811  40.098  40.720  11.869
98418W        W66812  35.513  31.338   1.911
98419W        W66813  30.963  44.434   0.199
98420W        W66814   0.168  11.816  11.640
98421W        W66815  23.482  21.557  13.086
98422W        W66816  20.709   5.423   4.363
98423W        W66817   9.227  19.591  14.527
98424W        W66818  20.278  19.196  11.513
98425W        W66819   9.753   1.813  11.600
98426W        W66820  25.296  23.678   1.141
98427W        W66821  19.448   2.985  13.934
98428W        W66822  36.519  37.996  12.489
98429W        W66823   4.634  10.356  14.049
98430W        W66824   3.900  14.075   2.070
98431W        W66825  39.611  34.160  13.417
98432W        W66826  29.734   2.755  11.505
98433W        W66827  24.458  21.992   0.900
98434W        W66828  39.367  22.492   3.336
98435W        W66829  27.806   1.838   4.597
98436W        W66830  38.360   8.295  13.463
98437W        W66831  20.218  12.499   3.152
98438W        W66832   8.399  44.373  10.353
98439W        W66833  17.225  16.516  14.143
98440W        W66834  29.093  38.028   1.271
98441W        W66835  19.570  11.633   4.099
98442W        W66836  15.665  22.630  12.111
98443W        W66837   5.898  33.051  12.558
98444W        W66838  11.464  25.065   1.839
98445W        W66839  30.564  17.573  14.842
98446W        W66840  39.447  22.324   1.645
98447W        W66841  12.522   8.335  10.532
98448W        W66842   7.479  27.679   3.027
98449W        W66843  20.776   5.161  14.487
98450W        W66844  34.586  28.730   2.370
98451W        W66845  36.433   6.814   4.112
98452W        W66846   3.454  30.491  13.913
98453W        W66847  21.831  29.507   2.419
98454W        W66848   2.818   8.015  12.927
98455W        W66849  21.108  18.663  13.907
98456W        W66850  26.695  24.505  11.969
98457W        W66851  29.058  40.547   4.765
98458W        W66852  35.388  19.517   0.321
98459W        W66853   3.540  32.053  11.534
98460W        W66854   4.764  25.164  10.128
98461W        W66855  30.825   5.038  13.240
98462W        W66856  25.595  43.108  12.104
98463W        W66857  24.465   3.390  11.391
98464W        W66858   7.568  36.500  14.395
98465W        W66859  22.060  14.536  13.456
98466W        W66860  32.892  13.157  10.977
98467W        W66861  22.143  25.045  14.284
98468W        W66862   0.520  10.336  11.580
98469W        W66863  10.423  19.979   1.162
98470W        W66864   4.447  33.633  14.782
98471W        W66865  38.428  29.485   1.713
98472W        W66866  30.002  11.699  14.526
98473W        W66867  15.494  26.506  13.053
98474W        W66868   2.104  11.771   0.466
98475W        W66869   1.258  42.570  13.410
98476W        W66870  36.865  31.178   1.413
98477W        W66871  16.762   1.753   1.177
98478W        W66872  24.363  15.839   5.019
98479W        W66873  19.779  31.888  13.886
98480W        W66874   3.979  24.231   4.392
98481W        W66875  28.677  38.479  14.367
98482W        W66876  37.616   9.000   0.123
98483W        W66877  23.140  13.743   4.647
98484W        W66878   0.676  22.742   4.139
98485W        W66879  43.908   9.117  13.980
98486W        W66880  10.894  22.568   2.243
98487W        W66881   3.860  19.513  14.930
98488W        W66882  33.799  36.486   1.645
98489W        W66883   3.411  39.070  12.061
98490W        W66884  10.411   3.667   3.173
98491W        W66885  34.478  35.212  13.484
98492W        W66886   2.038  18.510   0.007
98493W        W66887  36.540  30.868  13.398
98494W        W66888  26.425  40.272   4.140
98495W        W66889  11.824  42.453   3.676
98496W        W66890   0.387   2.299   3.650
98497W        W66891  36.314  31.022   1.477
98498W        W66892  33.316   6.050  13.085
98499W        W66893  38.892  19.527   0.353
98500W        W66894  26.536  25.071  10.190
98501W        W66895  38.455  18.277   2.069
98502W        W66896  38.827  24.715   9.956
98503W        W66897   2.831  29.432   0.977
98504W        W66898  16.464  36.372  12.660
98505W        W66899  39.988  36.578   4.781
98506W        W66900  12.786  43.360   1.146
98507W        W66901  17.749  25.239   2.791
98508W        W66902  36.444  18.258   5.054
98509W        W66903   8.733  37.578  14.335
98510W        W66904  34.920  16.190  11.962
98511W        W66905  16.177  27.670   1.886
98512W        W66906  17.202  40.542  10.674
98513W        W66907   6.484  21.632  13.510
98514W        W66908  20.339  22.548   0.816
98515W        W66909  11.980   9.395   2.691
98516W        W66910  33.192  14.880   1.041
98517W        W66911  15.105   5.725   1.977
98518W        W66912  24.724  21.306  13.615
98519W        W66913  19.881  28.046  13.059
98520W        W66914  22.597  44.225   2.226
98521W        W66915   7.681  37.572   2.418
98522W        W66916  30.250   2.350   3.512
98523W        W66917  32.388  44.145   0.788
98524W        W66918  37.027  14.665  11.419
98525W        W66919  42.035   3.360  12.213
98526W        W66920  37.999  12.430  14.334
98527W        W66921  17.041  13.709   0.336
98528W        W66922   9.952  14.286  14.989
98529W        W66923  42.305  17.844   2.189
98530W        W66924  37.610  30.371   0.502
98531W        W66925  37.817  16.922   0.382
98532W        W66926  23.899  10.539  10.406
98533W        W66927  37.453  35.610   2.897
98534W        W66928  18.641  34.878   4.600
98535W        W66929   4.100  37.363   2.679
98536W        W66930  36.300  19.631  12.530
98537W        W66931  14.570   8.990   5.089
98538W        W66932  16.277  40.851   0.758
98539W        W66933  32.126  19.726  14.290
98540W        W66934   0.875  11.791   2.923
98541W        W66935   5.671  16.436   3.858
98542W        W66936  31.472   9.776   4.584
98543W        W66937  21.245  32.543   4.294
98544W        W66938  42.454  24.045   4.070
98545W        W66939  40.863   2.940   0.876
98546W        W66940  35.092  32.619  11.248
98547W        W66941  33.154  13.571  14.363
98548W        W66942   3.338  15.393  11.036
98549W        W66943  19.589  24.105   4.335
98550W        W66944  27.576  33.594   3.784
98551W        W66945  21.957  29.225   1.945
98552W        W66946  22.348  41.946  11.353
98553W        W66947  30.371  43.295  12.125
98554W        W66948   3.355  20.324   3.765
98555W        W66949  19.334  33.086   3.555
98556W        W66950  23.899  43.168   5.045
98557W        W66951  15.783  32.330   4.086
98558W        W66952  15.655  17.625   4.162
98559W        W66953  36.540  12.368   4.527
98560W        W66954  41.661  12.902   0.566
98561W        W66955  34.806  23.879   3.831
98562W        W66956  10.317  32.893  12.854
98563W        W66957  19.318   5.304  12.917
98564W        W66958  39.474  18.348   2.869
98565W        W66959  18.101  19.185   3.279
98566W        W66960  40.942  22.202   3.957
98567W        W66961  23.360  43.794  13.065
98568W        W66962  25.554  36.054   2.369
98569W        W66963  13.224  33.735   1.842
98570W        W66964  22.138  43.552   2.690
98571W        W66965  17.161  36.963   0.873
98572W        W66966  20.440  42.849  12.914
98573W        W66967  18.088   0.781   1.745
98574W        W66968  44.696  20.507   1.193
98575W        W66969  22.438   9.059  11.012
98576W        W66970  14.097  10.233  13.573
98577W        W66971  34.258  36.782  11.176
98578W        W66972  18.297  12.060   0.243
98579W        W66973  20.754   0.341   2.806
98580W        W66974  22.217  39.077  11.145
98581W        W66975  42.769   0.551  11.518
98582W        W66976   1.220  13.261  11.518
98583W        W66977  28.121  25.629   0.745
98584W        W66978  17.236   8.920  13.316
98585W        W66979  29.956  36.238   0.200
98586W        W66980  23.096   2.922  10.606
98587W        W66981  33.076  43.773  10.730
98588W        W66982  15.685  15.375  14.899
98589W        W66983  41.266  18.546   0.260
98590W        W66984   6.874  22.888   3.123
98591W        W66985  37.276  39.480   2.679
98592W        W66986  41.003   6.857  14.264
98593W        W66987   3.661  28.376  14.959
98594W        W66988   3.113   3.818  13.350
98595W        W66989  21.508   6.973  12.997
98596W        W66990   2.777   9.178   2.436
98597W        W66991  21.426  13.593  11.406
98598W        W66992  22.902  21.284   0.368
98599W        W66993  28.341  20.119   4.594
98600W        W66994   8.020  26.244   3.001
98601W        W66995   1.754  38.853   3.266
98602W        W66996  27.902  10.400   0.544
98603W        W66997   4.768   3.773   1.181
98604W        W66998   9.350  41.104  13.601
98605W        W66999  40.086   8.578   1.231
98606W        W67000   8.415  21.122   1.473
98607W        W67001  11.713  31.325  14.756
98608W        W67002   3.968   5.889  12.778
98609W        W67003   6.853  13.372   2.855
98610W        W67004  23.965  26.097  11.403
98611W        W67005  25.156  22.385  12.426
98612W        W67006  18.352   1.080  11.062
98613W        W67007  30.286  15.250  14.900
98614W        W67008  30.377  24.805  14.818
98615W        W67009  35.095   7.774  12.354
98616W        W67010  34.371  27.516  12.912
98617W        W67011  14.717   5.596   4.082
98618W        W67012  42.834  32.784   1.835
98619W        W67013  22.590   1.702   4.631
98620W        W67014  28.325  16.195   2.049
98621W        W67015  32.528  13.330   0.417
98622W        W67016  19.082  40.940   1.398
98623W        W67017  15.607   3.359  12.594
98624W        W67018   4.412  33.511  10.659
98625W        W67019  41.016  30.936   4.941
98626W        W67020  14.037  44.829   3.796
98627W        W67021  28.402  13.461  14.005
98628W        W67022  40.930  10.605   3.325
98629W        W67023  26.795  31.105   3.204
98630W        W67024   8.775  20.789  14.804
98631W        W67025   0.637  21.510  13.449
98632W        W67026  43.414  23.950   0.223
98633W        W67027  21.074  40.364  12.975
98634W        W67028  31.065  25.585   4.835
98635W        W67029  41.270  12.661   4.593
98636W        W67030   1.506  36.662  13.427
98637W        W67031  23.533  14.667  10.652
98638W        W67032  11.309  15.338  13.899
98639W        W67033   5.521  43.466  14.055
98640W        W67034  39.581  32.370  10.519
98641W        W67035  41.350  20.269   1.668
98642W        W67036  27.537   1.719   2.372
98643W        W67037  41.901  30.971  14.917
98644W        W67038  35.018  26.382  11.139
98645W        W67039   0.832   0.083   1.978
98646W        W67040  12.919  30.425   2.313
98647W        W67041  30.592  43.880  14.031
98648W        W67042  23.291   3.018   0.391
98649W        W67043   1.356  13.673  12.146
98650W        W67044  17.529   4.541  10.246
98651W        W67045  11.683  10.646   4.050
98652W        W67046   8.724  21.185  14.054
98653W        W67047   2.434  24.972   2.086
98654W        W67048  17.519   4.804  12.012
98655W        W67049  20.939  22.351  12.589
98656W        W67050  22.410  17.687  12.091
98657W        W67051  44.953  33.126  14.429
98658W        W67052  37.475  17.215  11.431
98659W        W67053  20.742  40.922   1.771
98660W        W67054  11.229   3.113  11.543
98661W        W67055  42.803  19.887   3.641
98662W        W67056  35.409  39.285   4.830
98663W        W67057  37.437   3.790   0.939
98664W        W67058  31.015  12.057  12.987
98665W        W67059  11.236  15.225  12.994
98666W        W67060  17.378  41.683  11.654
98667W        W67061   2.448   1.743  13.415
98668W        W67062   2.493  37.806  11.051
98669W        W67063  44.264  43.741   3.687
98670W        W67064  23.451  19.976  10.448
98671W        W67065  26.408  43.817   1.948
98672W        W67066  12.685  12.156  10.817
98673W        W67067  14.838  31.614   3.382
98674W        W67068  37.802  38.279   0.732
98675W        W67069  34.477  37.500  10.676
98676W        W67070  11.748   8.725  14.613
98677W        W67071  31.096  23.200   2.753
98678W        W67072  20.688  20.223   0.457
98679W        W67073  23.009  15.284  10.918
98680W        W67074  38.801  36.851  13.425
98681W        W67075   4.298  23.545  12.471
98682W        W67076  12.588  39.904   0.541
98683W        W67077  19.836   6.735   0.880
98684W        W67078   6.927  22.097  11.125
98685W        W67079  34.476   4.448   1.366
98686W        W67080  27.054   1.770  11.435
98687W        W67081  37.944  28.817  12.510
98688W        W67082   7.289   5.156  10.760
98689W        W67083  35.413  17.303  13.815
98690W        W67084  13.622  27.324   2.099
98691W        W67085   9.190  16.081   4.885
98692W        W67086  10.976  29.989   4.517
98693W        W67087  20.737  21.583  11.488
98694W        W67088  16.663  35.319  14.001
98695W        W67089   7.728  20.287   0.004
98696W        W67090   0.093  22.155  12.867
98697W        W67091  22.106  17.975  10.087
98698W        W67092  23.498  18.484  14.543
98699W        W67093  25.077  18.086   3.674
98700W        W67094  38.543  29.921  13.355
98701W        W67095   8.588  28.091   3.401
98702W        W67096   2.811  28.539  12.436
98703W        W67097   3.146  23.901   4.629
98704W        W67098   0.003  32.185  10.512
98705W        W67099  26.536  20.361   3.845
98706W        W67100   2.331  18.802  14.303
98707W        W67101  33.405  37.816   4.657
98708W        W67102  32.557  17.247   2.284
98709W        W67103  11.754   4.942   3.425
98710W        W67104  42.911  16.816   2.688
98711W        W67105  32.866   0.943  13.919
98712W        W67106  34.348  24.391  13.634
98713W        W67107  17.321  40.496  13.416
98714W        W67108  16.417  29.919  13.995
98715W        W67109  11.655  18.234   2.713
98716W        W67110  29.211  24.382  13.911
98717W        W67111  18.069   4.354   0.972
98718W        W67112  23.618  42.792  10.326
98719W        W67113   9.163  35.504   0.965
98720W        W67114  42.372   9.956  12.882
98721W        W67115   6.676   9.198   2.506
98722W        W67116  13.111  24.294   0.477
98723W        W67117  26.334  37.045   4.527
98724W        W67118  25.491  20.319  11.608
98725W        W67119   7.751   9.625  12.768
98726W        W67120  19.259  17.366  14.224
98727W        W67121   2.392  21.153  10.144
98728W        W67122  33.983  36.965   3.660
98729W        W67123  25.567  12.063  12.991
98730W        W67124  34.011  43.555  11.066
98731W        W67125  21.404  31.709   3.851
98732W        W67126   7.349  25.948   1.662
98733W        W67127  39.464  10.632  13.000
98734W        W67128  17.217  41.164  12.394
98735W        W67129  31.886  30.710  12.434
98736W        W67130  12.320  15.656  11.599
98737W        W67131  20.985  22.099  11.600
98738W        W67132  22.563  25.239  14.063
98739W        W67133  40.391  27.137   3.854
98740W        W67134   1.619  27.719   1.339
98741W        W67135  25.349  10.229  11.456
98742W        W67136  25.692  18.040   2.410
98743W        W67137  31.694  15.709   0.909
98744W        W67138   5.367  11.286  11.308
98745W        W67139  27.675   3.133   0.291
98746W        W67140  10.128  21.952   3.262
98747W        W67141   6.773   5.765   0.513
98748W        W67142  42.388  23.001  14.887
98749W        W67143   9.647  42.800   5.028
98750W        W67144   4.460  24.307  10.451
98751W        W67145  27.208   1.172   9.817
98752W        W67146  16.178  17.629   9.819
98753W        W67147  44.282  12.636  14.879
98754W        W67148  12.536  44.212  14.874
98755W        W67149  29.571   6.047   0.915
98756W        W67150  23.402  32.982   0.099
98757W        W67151   4.668  34.975  10.938
98758W        W67152  19.434  38.367   0.813
98759W        W67153  23.803  35.107   4.241
98760W        W67154   6.214  18.007   1.323
98761W        W67155  26.698  19.031   2.107
98762W        W67156  21.181   8.685  13.915
98763W        W67157  15.837   8.860   0.493
98764W        W67158  22.809  14.759   1.254
98765W        W67159  38.400   9.278   3.838
98766W        W67160  33.404  16.908  12.940
98767W        W67161  12.531  43.354  11.182
98768W        W67162  40.078  27.637   3.164
98769W        W67163  15.964  37.422   2.249
98770W        W67164  12.138  23.753  14.379
98771W        W67165   5.627  10.190  14.779
98772W        W67166   8.797   8.946  12.900
98773W        W67167  24.091   3.151   1.867
98774W        W67168   5.927   7.341   1.791
98775W        W67169   2.905  30.342   4.900
98776W        W67170  16.059  23.069   3.218
98777W        W67171  17.234  12.869   2.017
98778W        W67172  39.095  38.272  11.040
98779W        W67173  25.616  40.997   1.712
98780W        W67174  40.845  18.952   1.725
98781W        W67175  39.080   1.471   3.743
98782W        W67176   9.703   1.244   3.630
98783W        W67177  43.903  11.641  13.450
98784W        W67178  24.149   5.191  11.062
98785W        W67179   8.320  39.857   3.592
98786W        W67180  31.150  22.232  14.666
98787W        W67181  33.265  12.112  13.400
98788W        W67182   4.146  44.024  10.947
98789W        W67183  24.962   8.817  12.418
98790W        W67184  17.834   7.813  11.154
98791W        W67185   8.499  14.853  10.605
98792W        W67186  28.937   1.175  14.358
98793W        W67187  35.449  36.794  14.557
98794W        W67188  24.185   9.489  11.079
98795W        W67189  39.945  20.339  13.533
98796W        W67190   0.940   3.894  14.752
98797W        W67191  43.730   7.338   4.558
98798W        W67192  11.789  33.184   4.626
98799W        W67193  19.770  39.379   5.220
98800W        W67194   6.966  36.120   1.850
98801W        W67195   6.423   3.890   0.769
98802W        W67196  41.890  19.791   3.783
98803W        W67197  26.064   9.446   0.833
98804W        W67198  27.933  20.142   3.671
98805W        W67199   3.719  43.326   4.279
98806W        W67200   1.772  38.489  12.156
98807W        W67201   3.455  29.129  12.097
98808W        W67202  23.722   8.703  11.939
98809W        W67203  39.341  19.241   1.737
98810W        W67204   7.217  27.951  13.995
98811W        W67205  39.441   3.233  12.329
98812W        W67206  30.321  33.569  12.771
98813W        W67207  27.151  26.401  14.039
98814W        W67208  25.221  23.261   0.797
98815W        W67209  28.516  37.802   4.034
98816W        W67210   7.213  12.874   3.235
98817W        W67211  10.287  26.606  14.879
98818W        W67212  27.020  33.909  11.645
98819W        W67213   0.438  17.923  13.703
98820W        W67214  41.334  18.293  13.881
98821W        W67215  15.761  21.318  14.910
98822W        W67216  38.075  35.090   4.050
98823W        W67217  26.797  16.843  14.238
98824W        W67218  16.302   1.966   3.234
98825W        W67219  30.471  11.220   0.788
98826W        W67220   9.455  11.355   2.615
98827W        W67221  31.466  33.878  12.084
98828W        W67222  15.161   2.887  13.060
98829W        W67223   7.455  11.902   1.300
98830W        W67224  37.162  44.466  12.012
98831W        W67225  23.657  28.473   1.336
98832W        W67226  24.125   5.276  12.411
98833W        W67227  30.484   7.966   1.333
98834W        W67228  37.133  19.689   3.516
98835W        W67229   8.521  25.448   4.186
98836W        W67230   3.246   3.340   5.032
98837W        W67231   5.232  10.039   0.900
98838W        W67232  19.964  21.167  13.914
98839W        W67233  18.192  10.891   0.929
98840W        W67234   9.334  24.610   1.954
98841W        W67235  22.703   5.956   4.134
98842W        W67236  34.018  44.222  12.079
98843W        W67237   7.436  29.055   3.638
98844W        W67238  16.233  24.486   1.925
98845W        W67239  22.686  28.932   1.249
98846W        W67240  29.310  35.847   2.068
98847W        W67241   7.319  12.283   1.619
98848W        W67242   9.901  25.519  13.443
98849W        W67243  11.769  30.569  13.775
98850W        W67244  23.885  13.112  12.568
98851W        W67245  12.751  33.698  14.774
98852W        W67246  32.783  21.293   2.810
98853W        W67247  20.172  42.374   2.240
98854W        W67248  33.923  26.545  11.031
98855W        W67249   5.987  35.434  11.928
98856W        W67250  18.215  30.874   2.642
98857W        W67251  29.470  13.250  12.457
98858W        W67252  23.052  20.014  14.040
98859W        W67253   6.667  40.023  11.847
98860W        W67254  19.567  43.331  14.425
98861W        W67255   5.807  20.141   4.338
98862W        W67256   4.987  18.846   4.138
98863W        W67257  33.917  18.218  10.984
98864W        W67258   3.774  35.482   3.315
98865W        W67259   9.174  26.935   1.351
98866W        W67260  31.999  42.047  11.128
98867W        W67261   2.453  18.711  13.310
98868W        W67262  22.020  23.083   2.203
98869W        W67263  41.932   0.885  13.968
98870W        W67264  27.422  18.562   0.392
98871W        W67265  24.146  44.728  13.554
98872W        W67266  37.859  15.810  10.777
98873W        W67267   8.097  26.246  11.345
98874W        W67268  39.045   9.280   3.053
98875W        W67269   9.643  28.547   3.690
98876W        W67270  26.073  32.166   0.987
98877W        W67271  30.662   9.303  12.003
98878W        W67272  20.675   9.875   4.957
98879W        W67273   4.526  18.693   2.407
98880W        W67274  12.538  20.201  11.518
98881W        W67275  31.542  15.469   4.073
98882W        W67276  14.752  27.069   4.701
98883W        W67277  29.119  26.000   3.814
98884W        W67278  26.104  10.657   1.206
98885W        W67279  13.662  37.550   1.688
98886W        W67280  32.044  17.814   1.350
98887W        W67281  40.536   7.802   4.715
98888W        W67282  17.193   1.862   1.992
98889W        W67283   5.957  11.762   4.559
98890W        W67284  10.316   7.235   3.125
98891W        W67285  27.073  39.726   4.020
98892W        W67286  39.303  39.374  14.883
98893W        W67287  21.716  19.520  10.581
98894W        W67288  13.560  13.770  12.228
98895W        W67289  24.715  26.923   2.205
98896W        W67290   5.403  21.966   1.768
98897W        W67291   0.931  25.695  12.025
98898W        W67292  42.328  10.088   3.326
98899W        W67293   8.289  35.654  11.645
98900W        W67294  29.024   5.300   4.190
98901W        W67295  11.126  24.671  12.038
98902W        W67296  29.011  11.343   1.727
98903W        W67297  24.034  41.000   3.187
98904W        W67298  17.811  26.262  14.015
98905W        W67299  21.084  37.780  10.663
98906W        W67300  32.122   1.846   0.413
98907W        W67301  10.332  25.063   1.045
98908W        W67302  32.034  10.297  10.562
98909W        W67303  21.399  32.807  10.650
98910W        W67304  22.049  14.652   0.279
98911W        W67305   6.421  39.471   2.622
98912W        W67306  42.459  39.583   4.923
98913W        W67307  23.811  25.226  12.035
98914W        W67308   6.698   2.104   4.499
98915W        W67309  15.143   7.364  11.191
98916W        W67310  33.904  43.312   0.869
98917W        W67311  29.919  20.212  13.471
98918W        W67312  18.363   7.419  11.625
98919W        W67313  43.379  27.641  14.438
98920W        W67314  12.033  36.611  10.771
98921W        W67315  16.673  13.278   0.324
98922W        W67316   5.808   5.920  13.380
98923W        W67317  23.843  28.189  11.829
98924W        W67318  16.646  27.509  12.562
98925W        W67319   8.461  38.975  14.949
98926W        W67320  11.708  36.147  14.455
98927W        W67321  11.653   8.789  14.128
98928W        W67322  31.152  17.572  13.984
98929W        W67323   2.161  16.205  13.813
98930W        W67324   1.685   3.269   0.439
98931W        W67325  34.205   0.773  13.303
98932W        W67326   1.017   5.451  11.602
98933W        W67327  30.501  26.815  14.666
98934W        W67328  20.154  36.687  10.091
98935W        W67329   5.395  34.105   2.098
98936W        W67330  44.817  43.296  13.743
98937W        W67331   0.660  31.671  14.954
98938W        W67332   6.667  23.571   5.003
98939W        W67333  24.701  25.201   0.719
98940W        W67334   7.456  12.313   2.131
98941W        W67335  10.855   0.187  12.161
98942W        W67336  22.525  34.475  10.346
98943W        W67337  20.502  39.082   2.277
98944W        W67338   7.322  18.041  10.648
98945W        W67339  22.221  40.900   0.349
98946W        W67340  13.267  38.547  12.002
98947W        W67341  14.777   2.089  13.066
98948W        W67342   7.366  36.272   2.655
98949W        W67343  44.565  18.004   1.303
98950W        W67344  18.073   6.952   1.785
98951W        W67345  14.827   8.808   0.471
98952W        W67346  11.885   4.229  12.054
98953W        W67347  24.986  21.691  13.359
98954W        W67348   7.484  28.415  14.271
98955W        W67349   7.755  43.918  13.880
98956W        W67350  30.801  22.918  13.984
98957W        W67351  31.768   9.718  13.282
98958W        W67352  11.291  31.655  11.495
98959W        W67353  40.463  24.427   3.191
98960W        W67354  14.677   9.694  14.999
98961W        W67355   9.141  25.863   1.390
98962W        W67356  23.248  44.296   2.611
98963W        W67357   7.432  41.777  12.913
98964W        W67358  36.833   2.941  14.472
98965W        W67359  12.797  28.391   3.718
98966W        W67360  41.801   8.709  11.637
98967W        W67361  32.592   3.785   4.433
98968W        W67362  21.952  28.076   0.245
98969W        W67363  11.177  41.322  12.496
98970W        W67364   2.004  38.974   0.430
98971W        W67365  44.425  39.475  13.390
98972W        W67366  10.754  16.639   3.650
98973W        W67367  18.433  21.061  13.704
98974W        W67368  33.765  27.108   4.111
98975W        W67369   3.376  23.783  14.008
98976W        W67370  34.130  17.090   3.770
98977W        W67371  21.758  34.839   0.735
98978W        W67372  20.697  15.281  14.371
98979W        W67373   6.138  37.451   3.706
98980W        W67374  35.880   2.018   1.763
98981W        W67375  22.596  17.484  14.310
98982W        W67376  24.058  27.611  14.964
98983W        W67377  21.221   1.434  14.292
98984W        W67378  31.723  39.690   3.609
98985W        W67379  26.244  13.081  10.730
98986W        W67380   3.863  17.377   2.828
98987W        W67381  13.315   5.291  14.873
98988W        W67382  27.429  42.015   3.074
98989W        W67383   6.516  20.073  11.976
98990W        W67384   5.268  31.633  12.430
98991W        W67385  20.228  26.839  14.153
98992W        W67386  31.840  23.994   0.553
98993W        W67387  16.235  34.396  12.136
98994W        W67388  24.038  12.179  14.425
98995W        W67389  22.707  21.450  13.422
98996W        W67390  39.146   0.904  14.995
98997W        W67391  39.172  37.528   1.465
98998W        W67392   8.334  10.827   3.899
98999W        W67393  38.092  33.174   1.555
99000W        W67394   8.482  44.949   2.769
99001W        W67395  32.962  19.276  14.340
99002W        W67396   2.806  41.185  10.169
99003W        W67397  30.942  39.875   2.753
99004W        W67398  44.223  14.111  10.775
99005W        W67399  18.263  14.987   1.560
99006W        W67400  32.835  32.528  13.400
99007W        W67401   9.300  17.621   2.920
99008W        W67402  11.641  18.602   0.551
99009W        W67403   4.505  20.484   0.910
99010W        W67404  20.847  10.840  12.899
99011W        W67405  36.035  33.476  10.475
99012W        W67406   4.742  16.269  13.882
99013W        W67407  29.080  15.288  10.735
99014W        W67408  43.484   4.653  10.341
99015W        W67409  29.489   6.536   4.911
99016W        W67410   6.207   8.640  13.655
99017W        W67411  35.732  25.664  13.059
99018W        W67412   5.695   8.509  13.512
99019W        W67413  32.117  27.743  11.522
99020W        W67414  15.211  19.007   9.779
99021W        W67415  41.587   1.786   3.751
99022W        W67416  16.132   3.737   4.329
99023W        W67417   7.378   6.844   9.655
99024W        W67418  20.239  24.158   4.633
99025W        W67419  11.510   9.321   3.605
99026W        W67420  14.750  21.042   4.782
99027W        W67421   4.934  14.198   2.683
99028W        W67422   7.354  26.545  10.505
99029W        W67423  21.430  26.737  14.514
99030W        W67424  22.767  26.862   1.236
99031W        W67425  30.060  13.374   4.867
99032W        W67426   7.892  43.357  13.953
99033W        W67427   1.284  29.445   1.714
99034W        W67428  34.137  20.868  13.924
99035W        W67429   9.766   5.856  14.510
99036W        W67430  34.235   2.731   0.390
99037W        W67431  22.012   2.403  14.203
99038W        W67432  39.306  17.937  11.625
99039W        W67433  10.935   1.821   3.159
99040W        W67434  42.395   8.029   1.673
99041W        W67435  21.995  31.717  12.340
99042W        W67436   3.729  31.895   4.246
99043W        W67437  17.581  14.781   3.154
99044W        W67438  27.476   5.631   1.135
99045W        W67439  19.317  15.201  11.654
99046W        W67440  34.590  38.821   0.982
99047W        W67441  37.074  32.611   3.536
99048W        W67442  18.099  22.429  12.974
99049W        W67443  25.231   7.746   2.668
99050W        W67444   1.860  15.343   3.177
99051W        W67445  28.580  40.394  13.580
99052W        W67446  21.432   0.722  13.514
99053W        W67447  19.192  12.648   3.196
99054W        W67448  25.253  11.892  11.092
99055W        W67449  26.489  44.316   2.858
99056W        W67450  38.378  25.443  12.723
99057W        W67451   7.174  23.601   1.986
99058W        W67452  13.640  32.963   0.360
99059W        W67453  31.667  16.570   3.136
99060W        W67454  14.363  37.294   3.365
99061W        W67455  26.707  13.343   1.273
99062W        W67456  40.475  17.471  11.101
99063W        W67457   8.283  11.675   1.247
99064W        W67458  34.764   5.342   1.756
99065W        W67459   8.131  38.894   0.631
99066W        W67460   2.272  13.148  14.218
99067W        W67461  13.221  27.669   3.175
99068W        W67462   0.424  33.129  13.774
99069W        W67463  23.215  30.612  12.412
99070W        W67464  12.271  22.252   0.908
99071W        W67465  42.081  19.611  11.453
99072W        W67466  21.428  28.167  10.267
99073W        W67467  16.749  15.863  12.928
99074W        W67468  40.842   1.482  10.439
99075W        W67469  26.935  21.642  14.030
99076W        W67470  34.911  38.214   1.466
99077W        W67471  41.510  30.170  13.920
99078W        W67472  23.109  30.485   4.730
99079W        W67473   9.304  25.598  11.220
99080W        W67474  37.071  27.511  11.204
99081W        W67475  30.552   6.658  13.857
99082W        W67476   2.862  18.849   1.382
99083W        W67477  10.828  19.409   4.477
99084W        W67478   3.916  37.609   4.055
99085W        W67479  14.419  16.887   2.455
99086W        W67480  13.828  27.431   0.352
99087W        W67481  19.109  39.105   3.577
99088W        W67482   5.890  30.573  12.988
99089W        W67483  33.099   1.358   1.805
99090W        W67484  10.769  29.198   1.260
99091W        W67485  42.546  15.647  12.056
99092W        W67486  34.452  42.829   1.492
99093W        W67487  21.280  35.114  13.339
99094W        W67488  21.166  30.742  14.384
99095W        W67489  26.600  35.265  13.428
99096W        W67490  19.603  15.878   5.272
99097W        W67491  31.407  24.018   1.846
99098W        W67492  37.116   7.824   0.612
99099W        W67493  42.361  25.759   3.590
99100W        W67494  34.134   4.854  12.462
99101W        W67495   4.201   4.944  14.540
99102W        W67496  37.784   4.822  14.033
99103W        W67497  23.179  21.130   4.330
99104W        W67498  20.203  19.263   0.478
99105W        W67499  24.040  37.552  13.326
99106W        W67500  10.803  33.926   1.451
99107W        W67501   9.939  26.660   5.110
99108W        W67502  28.926  15.258  13.947
99109W        W67503  29.221  26.502  12.492
99110W        W67504   8.009   8.199   1.237
99111W        W67505  32.043   7.859   5.253
99112W        W67506  41.355  25.113  14.692
99113W        W67507  35.524  37.137   0.910
99114W        W67508  29.960  22.324  14.940
99115W        W67509  12.019   4.514   2.784
99116W        W67510  35.048   2.375   1.966
99117W        W67511  31.479  21.068  13.926
99118W        W67512   8.697  21.219   0.069
99119W        W67513  27.197   8.297   4.312
99120W        W67514   2.373  44.162  10.717
99121W        W67515  34.584  23.074  13.579
99122W        W67516  28.434  11.723   4.777
99123W        W67517  22.215   9.212   1.659
99124W        W67518  36.082   4.308  13.300
99125W        W67519  20.772  18.689   2.837
99126W        W67520  13.463  28.956   2.730
99127W        W67521  39.451  30.445   2.311
99128W        W67522   4.200  33.164  14.900
99129W        W67523  23.514  14.256  13.556
99130W        W67524  40.326  20.696  13.552
99131W        W67525  39.723  27.765   4.076
99132W        W67526   4.690  18.794  14.486
99133W        W67527  28.877  37.867  12.458
99134W        W67528  26.162  38.910  12.754
99135W        W67529  15.383  34.811   0.325
99136W        W67530  32.491  39.972  13.430
99137W        W67531  33.639  32.045  11.450
99138W        W67532  38.434   5.930   2.405
99139W        W67533  26.344  43.963   4.108
99140W        W67534   7.937  19.524   4.279
99141W        W67535  22.219  14.197   0.473
99142W        W67536  26.504  24.725   2.135
99143W        W67537   2.389  22.486  11.134
99144W        W67538  36.095  36.931  14.024
99145W        W67539  24.419  31.206   1.934
99146W        W67540  40.454  34.871   2.882
99147W        W67541  14.216   8.113  13.035
99148W        W67542  37.442  15.632   0.195
99149W        W67543  44.680   4.469   4.438
99150W        W67544  40.800  30.422  13.039
99151W        W67545  12.103  29.484  11.241
99152W        W67546  12.449   0.541  14.310
99153W        W67547  22.037  28.620  13.462
99154W        W67548  34.047  26.738   4.328
99155W        W67549  24.289   4.781   3.273
99156W        W67550  30.496  29.045  13.310
99157W        W67551  16.080  36.008  11.396
99158W        W67552  11.853   5.373   0.490
99159W        W67553  22.832  42.507  10.894
99160W        W67554  27.948  39.908   1.917
99161W        W67555  34.239  18.278   2.404
99162W        W67556   0.489  44.966  12.015
99163W        W67557   1.956  44.979   0.976
99164W        W67558   8.611  32.345  11.288
99165W        W67559   8.783   7.992  12.585
99166W        W67560  41.779  23.683   2.226
99167W        W67561  16.767  19.102   4.884
99168W        W67562  22.073   6.479  13.363
99169W        W67563   1.002  16.279   3.656
99170W        W67564  19.071   1.903  13.969
99171W        W67565  34.567  24.691  13.989
99172W        W67566  36.803   5.497   2.677
99173W        W67567  15.704  13.824   1.161
99174W        W67568  13.150   4.750   4.212
99175W        W67569   0.282   2.146   3.130
99176W        W67570  18.594  44.531   1.242
99177W        W67571  44.727  27.011   3.111
99178W        W67572  43.413   8.288   4.834
99179W        W67573  33.867   3.460   0.643
99180W        W67574  32.417  23.154   2.411
99181W        W67575  25.220  32.637   0.027
99182W        W67576  18.622  13.163  10.729
99183W        W67577  29.638  36.393  14.685
99184W        W67578  32.137  17.341   3.778
99185W        W67579  44.038  40.388   3.566
99186W        W67580  15.289  39.417  12.510
99187W        W67581  29.390  17.523   0.955
99188W        W67582  24.597  27.289  13.927
99189W        W67583  43.910   9.440   4.699
99190W        W67584  32.305  30.004  13.539
99191W        W67585  19.648   9.860   0.306
99192W        W67586   9.521  29.424  14.765
99193W        W67587  43.852  41.314   1.940
99194W        W67588  10.647  36.413  10.627
99195W        W67589   5.871  20.730  14.319
99196W        W67590  11.274  14.774   1.667
99197W        W67591  26.879  30.439   4.468
99198W        W67592  42.782  16.529   4.606
99199W        W67593  19.864  33.532  11.718
99200W        W67594  36.055  25.043   2.272
99201W        W67595  18.613   9.836   3.555
99202W        W67596   4.419  38.090  13.866
99203W        W67597  27.043  22.265   3.813
99204W        W67598  26.643   4.498   1.334
99205W        W67599  27.168  21.199  13.243
99206W        W67600  10.163  17.283  12.421
99207W        W67601  30.118  28.441  10.729
99208W        W67602  15.544  33.514   1.244
99209W        W67603  20.658  26.415  10.318
99210W        W67604  33.390  17.741  10.558
99211W        W67605  36.989  27.730   3.242
99212W        W67606  17.880  10.759  11.188
99213W        W67607   5.857  30.013   1.432
99214W        W67608  27.024  43.329  14.998
99215W        W67609  40.289   4.149   4.226
99216W        W67610   5.683  25.558   4.011
99217W        W67611  30.502  43.960   0.865
99218W        W67612   8.212   1.231  13.369
99219W        W67613   5.332  40.787   0.349
99220W        W67614  24.515   5.297   1.341
99221W        W67615   1.427   3.123  14.996
99222W        W67616  14.701  43.818   1.791
99223W        W67617  24.396  14.406   4.201
99224W        W67618  22.303   0.387  14.169
99225W        W67619  33.528  29.894  12.114
99226W        W67620  32.460  25.523  12.936
99227W        W67621   1.728  38.098   2.521
99228W        W67622  14.507  22.030   1.334
99229W        W67623   4.947  15.686  13.050
99230W        W67624  38.292  15.984   4.922
99231W        W67625  34.908  41.454  13.344
99232W        W67626  20.030  15.171  14.868
99233W        W67627  11.993   6.832   4.690
99234W        W67628  11.474  39.457   0.726
99235W        W67629  17.107  17.010   3.512
99236W        W67630  31.545  18.574   5.041
99237W        W67631  17.296   2.864  12.220
99238W        W67632  37.246  20.581  12.520
99239W        W67633  32.937  30.117  12.942
99240W        W67634  25.801  26.174  12.750
99241W        W67635  16.853   0.399   4.632
99242W        W67636  12.740   9.148   3.191
99243W        W67637   8.018  42.086  14.911
99244W        W67638  12.330  17.609   2.336
99245W        W67639  21.044  13.828  11.104
99246W        W67640  35.160   4.500   2.736
99247W        W67641   7.621  44.822   1.754
99248W        W67642  18.908  20.544   1.772
99249W        W67643   8.463  37.184  12.005
99250W        W67644   8.878   3.010   3.594
99251W        W67645  16.194  21.372  14.236
99252W        W67646  18.086   6.699   4.063
99253W        W67647  22.459  36.809  10.768
99254W        W67648   4.374  24.543   3.332
99255W        W67649  26.928   4.648  11.191
99256W        W67650  43.855  35.231   1.116
99257W        W67651  36.302  24.093   3.788
99258W        W67652   7.227  11.824  11.490
99259W        W67653  43.962  18.124  14.971
99260W        W67654  35.519   1.021  13.294
99261W        W67655  25.800   7.944  13.915
99262W        W67656  21.123  26.435  10.097
99263W        W67657  35.539  28.283   3.340
99264W        W67658  41.247  28.195  11.012
99265W        W67659  41.835  24.309  11.625
99266W        W67660  42.386  27.472  12.116
99267W        W67661  14.041  16.780   1.651
99268W        W67662  14.237  25.303  12.415
99269W        W67663  37.887   8.892  10.813
99270W        W67664  17.305   8.226  10.783
99271W        W67665  21.494   1.608   0.928
99272W        W67666  18.997  21.573   0.331
99273W        W67667  21.310  13.227  12.410
99274W        W67668  11.174  29.665  13.422
99275W        W67669  18.254  23.655   1.913
99276W        W67670   2.431  19.289   2.766
99277W        W67671  34.831   0.302   3.142
99278W        W67672  21.931  42.693   1.253
99279W        W67673  22.111  37.769  13.412
99280W        W67674  23.029   6.923   0.682
99281W        W67675   9.812  29.051   1.527
99282W        W67676  23.456  22.265   0.898
99283W        W67677  20.293  11.565  12.430
99284W        W67678  39.709  13.965  12.642
99285W        W67679  34.250  14.571  12.172
99286W        W67680   1.464   3.045  12.848
99287W        W67681  42.453  35.353  13.366
99288W        W67682   5.243  13.872  13.009
99289W        W67683  21.880  13.136   4.972
99290W        W67684   4.472  19.703  11.861
99291W        W67685  16.703   0.818   4.317
99292W        W67686  35.283  21.762  13.402
99293W        W67687   4.822  44.044  13.372
99294W        W67688  28.715  29.649  11.999
99295W        W67689  31.329  16.502   0.010
99296W        W67690  30.270  12.644  13.044
99297W        W67691  20.395  20.076   4.315
99298W        W67692   8.582  40.952  14.824
99299W        W67693  22.131  22.507  11.130
99300W        W67694  26.439  42.546  10.780
99301W        W67695  26.834  34.644  11.752
99302W        W67696  41.421  24.688  14.344
99303W        W67697  31.799  20.273  11.746
99304W        W67698  33.509  17.850   0.303
99305W        W67699   0.396  20.637   2.602
99306W        W67700   9.367  20.452   3.234
99307W        W67701  39.461   3.715  12.572
99308W        W67702  34.122  31.323  14.707
99309W        W67703  22.690   1.268   0.854
99310W        W67704  24.235  30.069   3.426
99311W        W67705  11.900  12.980  11.612
99312W        W67706  31.533   1.675   4.237
99313W        W67707  15.361   2.791  11.366
99314W        W67708  40.303  30.171  11.468
99315W        W67709  37.900  28.697   3.616
99316W        W67710  32.374  10.192  14.890
99317W        W67711   0.827  31.059  12.705
99318W        W67712  19.525   1.911  14.280
99319W        W67713  12.383  35.791  12.868
99320W        W67714  44.993  30.556   3.236
99321W        W67715  18.762  13.966  12.339
99322W        W67716  23.205   9.322  10.610
99323W        W67717   2.142  22.469   2.356
99324W        W67718  38.149  16.730   2.653
99325W        W67719  32.359  39.396  12.927
99326W        W67720  10.618  15.005   4.213
99327W        W67721  16.632  16.389  12.976
99328W        W67722  18.098  34.888   2.709
99329W        W67723   3.727  23.275   3.310
99330W        W67724  42.188  11.820  13.101
99331W        W67725  15.690  10.870   3.317
99332W        W67726   6.545   9.144   0.376
99333W        W67727  12.417  44.400  12.966
99334W        W67728  21.052   0.338  13.487
99335W        W67729  33.933  41.945   2.777
99336W        W67730  21.358   5.353   0.339
99337W        W67731  22.991  11.417  13.013
99338W        W67732  14.755   6.683  14.511
99339W        W67733  44.588  37.001  14.776
99340W        W67734  24.966  17.498   5.219
99341W        W67735   7.406  29.510  13.997
99342W        W67736  30.630  41.289  11.640
99343W        W67737  41.264  26.010  14.791
99344W        W67738  27.670  16.713  13.896
99345W        W67739  38.610  23.487   1.360
99346W        W67740   8.672  37.454   4.602
99347W        W67741  20.051   5.744  14.008
99348W        W67742  30.495  23.518  12.789
99349W        W67743  40.725  34.313  14.929
99350W        W67744  44.248  43.663  11.623
99351W        W67745  44.026  31.437  11.141
99352W        W67746  28.392  16.371   0.862
99353W        W67747   7.625   0.520   1.256
99354W        W67748  29.729  28.055   4.147
99355W        W67749   2.056  17.363   1.984
99356W        W67750   1.891  41.144   2.329
99357W        W67751  26.735  15.628   3.528
99358W        W67752  35.056  23.003   4.472
99359W        W67753   1.402  42.542   2.624
99360W        W67754   2.377  30.521  14.510
99361W        W67755   2.579  22.707   3.310
99362W        W67756  36.038  37.708   2.272
99363W        W67757  18.240  21.706   2.671
99364W        W67758   4.189   3.581   4.719
99365W        W67759   8.893   3.638  13.805
99366W        W67760  35.684  37.800   0.315
99367W        W67761   9.268  15.489   0.370
99368W        W67762   3.724  20.226  11.993
99369W        W67763  29.418   7.485   1.526
99370W        W67764  34.631  19.635  13.499
99371W        W67765  42.146  12.244  14.274
99372W        W67766  42.266  40.956  13.001
99373W        W67767  29.559  25.258   4.521
99374W        W67768  28.549  13.378   1.799
99375W        W67769  31.161  12.856  11.998
99376W        W67770  43.319  31.576  10.454
99377W        W67771  23.491  39.086   1.300
99378W        W67772   3.236  26.455   3.630
99379W        W67773   9.089  18.162   2.326
99380W        W67774  11.868  42.929   1.130
99381W        W67775  40.129  18.853   2.542
99382W        W67776  15.770  23.362   3.594
99383W        W67777   2.947  26.349  10.962
99384W        W67778  32.088  28.757  14.921
99385W        W67779  29.389  39.525  12.035
99386W        W67780  25.321  28.513  13.083
99387W        W67781  42.260   9.531  11.552
99388W        W67782   0.129  24.738   1.724
99389W        W67783   7.324   1.770  10.246
99390W        W67784   7.783  10.176   3.752
99391W        W67785  16.801  18.715   4.109
99392W        W67786   9.132  14.274  13.158
99393W        W67787   9.272  28.242  13.012
99394W        W67788  33.957  26.923  11.899
99395W        W67789   4.306  44.182   4.094
99396W        W67790   0.425  16.425   2.668
99397W        W67791  16.000  26.487  13.099
99398W        W67792  26.677  39.370   3.986
99399W        W67793  38.402   3.273  12.407
99400W        W67794   9.774  19.178   1.290
99401W        W67795  36.909   8.114   2.356
99402W        W67796  17.234   3.749   2.870
99403W        W67797  27.886  27.537   4.201
99404W        W67798  15.767   2.021   3.993
99405W        W67799  18.033  31.493   4.859
99406W        W67800  23.485  13.442  12.518
99407W        W67801   4.263  33.900   3.309
99408W        W67802  31.103  11.902   2.838
99409W        W67803   4.777  36.842   1.426
99410W        W67804  15.311   2.078   1.374
99411W        W67805  29.515  39.814   4.452
99412W        W67806   7.371   6.269   0.117
99413W        W67807  37.456  43.658  14.865
99414W        W67808  16.937   2.556  12.435
99415W        W67809  22.561  11.148  11.328
99416W        W67810  21.798   5.418   3.738
99417W        W67811  44.993  38.788   1.409
99418W        W67812  18.013  28.190  11.018
99419W        W67813  39.536  11.675  10.833
99420W        W67814   2.794  15.554   1.287
99421W        W67815   5.661  41.736  13.396
99422W        W67816  15.135  27.657  11.944
99423W        W67817  40.031  40.985   4.172
99424W        W67818  39.044  36.774  12.083
99425W        W67819   6.872  14.175   3.242
99426W        W67820  18.813   3.427  11.754
99427W        W67821  42.795  16.931  12.050
99428W        W67822  29.633  22.015  11.775
99429W        W67823  41.352  23.720   0.212
99430W        W67824  22.337  33.471   1.937
99431W        W67825  14.678  38.313  14.012
99432W        W67826  15.262  18.684   2.425
99433W        W67827  12.923  16.108  12.486
99434W        W67828  18.982   4.768   3.140
99435W        W67829  13.362  19.300   0.352
99436W        W67830  10.593  37.885   1.554
99437W        W67831  23.016  12.387   4.135
99438W        W67832  11.888  35.390  11.122
99439W        W67833  42.249  23.523  14.954
99440W        W67834  32.988   5.148   4.369
99441W        W67835  27.983  23.433   3.640
99442W        W67836  35.383   4.766   4.569
99443W        W67837   7.268  18.014   2.355
99444W        W67838  44.476   9.880   2.286
99445W        W67839   7.900   6.417  14.968
99446W        W67840  11.135  21.965   4.788
99447W        W67841  25.513  22.459   4.161
99448W        W67842   1.616  43.358  11.540
99449W        W67843  10.252  35.942  14.555
99450W        W67844  20.770  35.991   0.961
99451W        W67845  33.944  18.522   1.951
99452W        W67846  44.516  11.004   4.217
99453W        W67847  33.603  40.303   4.131
99454W        W67848  17.276  34.142   4.534
99455W        W67849  16.764  15.027   3.478
99456W        W67850  20.225   1.421  12.278
99457W        W67851   0.455  27.190  13.043
99458W        W67852  25.664  36.403   3.721
99459W        W67853  44.342   0.084   3.157
99460W        W67854  31.456   8.258   0.884
99461W        W67855  36.613  17.748   4.996
99462W        W67856  34.934  21.985   4.682
99463W        W67857   4.344   4.642  13.070
99464W        W67858  37.317  31.861  12.382
99465W        W67859   5.166   2.257  14.730
99466W        W67860  40.503  40.328   3.789
99467W        W67861  22.823  31.975   3.396
99468W        W67862   7.737  31.409   0.401
99469W        W67863  20.563   6.830   1.712
99470W        W67864  18.237  44.859  11.532
99471W        W67865  23.238  30.603  10.666
99472W        W67866  14.858  13.323   2.224
99473W        W67867   9.448  28.967  11.526
99474W        W67868  28.020  17.492   2.129
99475W        W67869  10.131  22.175   4.113
99476W        W67870  17.021  15.278   2.428
99477W        W67871  19.075   8.632  12.044
99478W        W67872  21.124  26.580  12.673
99479W        W67873  38.452  23.067   0.068
99480W        W67874  17.207  17.469  11.537
99481W        W67875  19.100  43.959   2.344
99482W        W67876   6.389  19.917   2.533
99483W        W67877  21.064  41.101   4.599
99484W        W67878   4.961  16.310   3.218
99485W        W67879  15.708  11.373   4.231
99486W        W67880  33.666  30.548   3.814
99487W        W67881  28.978  36.287  11.034
99488W        W67882  27.163   8.246  14.530
99489W        W67883  37.578  44.000   3.291
99490W        W67884  17.137  28.512  11.150
99491W        W67885   9.752  35.429  13.388
99492W        W67886  40.095  39.588  10.156
99493W        W67887  44.601  42.546   0.782
99494W        W67888   0.984  36.003   2.806
99495W        W67889  23.717   6.423   1.260
99496W        W67890  32.670   5.187   1.779
99497W        W67891   3.767  12.661  11.802
99498W        W67892  19.733   1.962   2.792
99499W        W67893  29.527   6.419   3.646
99500W        W67894  18.068   7.425  14.526
99501W        W67895  26.027  41.083   2.175
99502W        W67896   3.159  14.167   4.012
99503W        W67897  39.310  22.830  11.425
99504W        W67898   6.837  14.335  12.490
99505W        W67899  13.688  37.509   4.113
99506W        W67900  31.985  13.202   3.726
99507W        W67901  23.407   3.508   3.232
99508W        W67902  30.081   9.184   4.589
99509W        W67903  17.190  39.060   0.482
99510W        W67904  35.895  21.283  14.536
99511W        W67905  15.831  19.395  12.859
99512W        W67906  44.057   8.343   3.563
99513W        W67907   3.738   4.779  11.130
99514W        W67908  33.771  25.518  14.518
99515W        W67909  39.355  29.594   0.461
99516W        W67910  30.039   3.461   4.652
99517W        W67911  25.769  32.525   1.502
99518W        W67912  39.805  36.943  12.607
99519W        W67913   6.957  44.360  13.108
99520W        W67914  37.640  26.725   1.350
99521W        W67915  11.684  34.550  12.797
99522W        W67916   1.777   7.377  10.734
99523W        W67917  12.411  25.323   0.929
99524W        W67918  28.476   1.340  12.619
99525W        W67919  16.054  34.043  12.844
99526W        W67920  25.661   3.886  10.863
99527W        W67921  13.782   6.002  13.382
99528W        W67922   3.317  40.463   1.023
99529W        W67923  39.263  11.071   0.304
99530W        W67924   2.333  21.821   4.045
99531W        W67925   3.529   1.998   1.782
99532W        W67926   8.690  14.215   4.844
99533W        W67927  37.945  25.109   0.699
99534W        W67928   4.635  13.177   3.629
99535W        W67929   2.679  17.613   3.552
99536W        W67930  31.811  13.934   0.226
99537W        W67931  30.091   3.625   3.117
99538W        W67932   8.777  20.520   2.714
99539W        W67933  26.680  41.298   3.760
99540W        W67934  35.407  28.772   0.373
99541W        W67935   5.179  13.222   1.182
99542W        W67936  40.902  11.843   0.577
99543W        W67937   7.771  29.189  12.431
99544W        W67938  42.722   2.510   1.740
99545W        W67939  40.910   9.530  13.780
99546W        W67940  24.774  14.152  13.903
99547W        W67941  34.293  13.211   0.759
99548W        W67942  19.799  42.434  11.987
99549W        W67943  29.059   0.769  10.413
99550W        W67944  44.187  29.225   2.554
99551W        W67945   5.934  11.767   3.540
99552W        W67946   1.295  14.171  10.455
99553W        W67947  40.221  27.584   3.648
99554W        W67948  15.725  22.255  11.145
99555W        W67949  19.576  25.622   0.951
99556W        W67950  13.537  34.164   1.776
99557W        W67951  37.234  29.337  10.233
99558W        W67952  42.308   2.679   1.481
99559W        W67953   4.840  20.765  10.370
99560W        W67954  43.427  22.607   4.155
99561W        W67955  16.286  35.848   3.813
99562W        W67956  24.494  39.506  11.837
99563W        W67957  28.224  21.914   0.738
99564W        W67958  28.097  15.570   0.844
99565W        W67959   8.813  29.674  12.527
99566W        W67960  12.764  14.691   3.098
99567W        W67961  28.042  40.788  13.082
99568W        W67962   6.778  20.658  12.769
99569W        W67963  31.968  36.177   1.811
99570W        W67964  28.681  18.580  13.508
99571W        W67965  25.246   8.971   1.438
99572W        W67966   7.599  35.987  11.491
99573W        W67967  17.810  34.438  10.727
99574W        W67968  19.519   9.153  12.459
99575W        W67969  28.010  12.700   5.161
99576W        W67970  35.826  33.095   3.292
99577W        W67971  23.290  41.858   2.576
99578W        W67972  11.559  30.183  11.090
99579W        W67973  11.363  41.774  14.348
99580W        W67974  22.725  10.986  14.981
99581W        W67975  32.284  41.072   2.849
99582W        W67976  39.826  17.689  14.673
99583W        W67977  44.727   7.358  11.254
99584W        W67978  32.026   1.306  13.184
99585W        W67979  30.420  11.101  12.443
99586W        W67980   0.955  24.636   1.208
99587W        W67981  13.403   9.639  14.906
99588W        W67982  23.023   5.746  14.906
99589W        W67983  36.269   1.327   3.645
99590W        W67984  34.703  34.911  14.539
99591W        W67985   6.623  16.126  10.762
99592W        W67986  35.036   0.760   0.600
99593W        W67987  43.510  16.619   1.877
99594W        W67988  11.724  44.501  10.100
99595W        W67989  25.872   7.873   0.786
99596W        W67990  15.712  11.795   0.140
99597W        W67991  13.364   0.877   3.898
99598W        W67992  16.899  17.718   1.337
99599W        W67993   3.428  10.681  14.387
99600W        W67994   7.099  34.094  11.235
99601W        W67995  10.411  16.065  12.514
99602W        W67996  40.601  39.074   4.197
99603W        W67997  30.968  28.185  12.964
99604W        W67998  33.434  27.495   0.269
99605W        W67999  43.871   9.857  14.484
99606W        W68000  35.546  12.553   2.251
99607W        W68001  15.749  14.066   0.363
99608W        W68002  26.605   1.791  13.610
99609W        W68003   6.334  27.708   0.498
99610W        W68004  38.522  14.106   0.812
99611W        W68005   8.139  13.451  14.068
99612W        W68006  31.098  43.866   4.071
99613W        W68007   3.279  42.956   3.402
99614W        W68008  42.253  30.315   4.250
99615W        W68009   7.117   0.496   1.289
99616W        W68010  26.946  37.793   4.013
99617W        W68011  18.132  31.706  14.418
99618W        W68012  21.814   2.714   3.314
99619W        W68013   9.333   0.221   0.382
99620W        W68014  21.672  37.429  12.554
99621W        W68015   3.192  37.093   0.744
99622W        W68016  21.172  36.395  10.623
99623W        W68017   9.990  28.142  13.293
99624W        W68018  20.044  39.081   9.991
99625W        W68019  33.268  14.782  10.562
99626W        W68020  37.975  42.986  13.346
99627W        W68021  12.187  16.092   4.479
99628W        W68022  43.819   4.396  10.658
99629W        W68023  28.956   8.353   1.857
99630W        W68024  10.253  38.114   3.283
99631W        W68025  39.028  30.138  13.446
99632W        W68026  12.674   7.253   3.745
99633W        W68027  26.537   4.185   3.249
99634W        W68028   4.253   6.213  13.049
99635W        W68029  24.507  39.826  10.669
99636W        W68030   5.214   1.826   3.173
99637W        W68031   1.955  43.287   2.637
99638W        W68032  25.567   1.191   4.825
99639W        W68033  30.554  33.532  13.229
99640W        W68034  23.507  40.387   2.791
99641W        W68035   6.764   9.635   0.342
99642W        W68036  13.202  39.219   3.859
99643W        W68037  11.322  26.612  10.840
99644W        W68038  43.378   1.404   4.265
99645W        W68039   7.585  32.585  12.213
99646W        W68040   4.347  15.974   0.238
99647W        W68041  32.534  40.585  11.505
99648W        W68042  38.254   6.452   1.756
99649W        W68043  24.704  12.124  12.122
99650W        W68044  22.568  13.621  13.911
99651W        W68045  38.444   3.953   1.269
99652W        W68046   7.700  40.731   3.232
99653W        W68047  20.998  31.670  14.333
99654W        W68048  19.620  43.366   3.883
99655W        W68049   5.856  17.749   0.097
99656W        W68050   5.676  14.898   9.745
99657W        W68051  34.908  41.816  11.504
99658W        W68052  26.308   1.290  13.367
99659W        W68053   1.218   8.491  13.360
99660W        W68054  20.515  35.714  11.847
99661W        W68055  33.423  27.517   4.607
99662W        W68056  16.461  38.991   3.297
99663W        W68057  41.699  21.349   2.287
99664W        W68058  13.210   3.281   4.551
99665W        W68059  36.903   8.670  14.654
99666W        W68060  11.790   7.248   2.493
99667W        W68061  14.216  15.083  14.829
99668W        W68062  31.708  28.998   1.656
99669W        W68063  29.900  18.448   4.304
99670W        W68064  37.632  35.968  14.713
99671W        W68065   2.469   4.447   1.485
99672W        W68066   9.780  14.325   1.820
99673W        W68067  39.926  14.204   3.727
99674W        W68068   8.372   5.839   3.635
99675W        W68069  31.011  14.583  10.695
99676W        W68070  28.218   1.806  12.563
99677W        W68071  19.588  20.325  11.715
99678W        W68072  15.085   3.611   0.437
99679W        W68073   2.710   5.207  12.510
99680W        W68074  44.446  26.566  10.329
99681W        W68075   4.266  25.214  10.275
99682W        W68076  30.621   2.515   1.900
99683W        W68077   7.903  19.065   1.308
99684W        W68078  22.951  28.016  11.140
99685W        W68079  40.300   7.761   0.259
99686W        W68080  31.550  25.638  13.734
99687W        W68081  31.338  25.776  12.833
99688W        W68082  12.460  33.911   2.217
99689W        W68083  36.850   4.504   1.773
99690W        W68084  35.433  24.266   2.217
99691W        W68085  37.367  10.189  11.626
99692W        W68086  42.877  18.627  12.621
99693W        W68087  22.958  41.887   3.715
99694W        W68088   0.593  37.849   5.062
99695W        W68089  27.092   6.143   3.222
99696W        W68090   4.710  36.617   3.927
99697W        W68091  10.210   9.840  14.138
99698W        W68092   7.163  30.622  13.069
99699W        W68093  23.169  32.526  12.612
99700W        W68094  22.173  14.058  13.301
99701W        W68095  32.886  12.167  13.773
99702W        W68096  26.068  17.883  13.897
99703W        W68097  28.277  12.560   0.188
99704W        W68098  34.591  39.467   3.276
99705W        W68099  16.789   5.232  13.660
99706W        W68100  36.492   6.482   1.309
99707W        W68101   4.012   8.460  14.983
99708W        W68102  35.419  14.170  14.365
99709W        W68103  26.471  21.595  14.331
99710W        W68104  40.551  27.203   1.774
99711W        W68105   2.525   4.343   4.224
99712W        W68106  15.571  16.840  12.790
99713W        W68107  33.431   9.835   4.575
99714W        W68108  13.168  30.738   4.232
99715W        W68109   0.911   2.154   1.056
99716W        W68110  14.721  21.246  11.230
99717W        W68111   9.891  11.257  10.745
99718W        W68112   3.567   2.903   4.970
99719W        W68113  38.188   8.877   4.673
99720W        W68114   1.286  30.612   0.356
99721W        W68115   8.913  25.417   4.595
99722W        W68116   5.507  17.336  12.690
99723W        W68117   4.198  21.116   4.639
99724W        W68118  42.337  30.194   3.366
99725W        W68119  20.068   8.236  12.513
99726W        W68120  30.874  12.846  12.464
99727W        W68121  35.782  20.145  11.006
99728W        W68122  41.800  32.183  11.638
99729W        W68123  34.870  16.152  11.164
99730W        W68124   5.772  19.629  14.065
99731W        W68125   5.253  19.610  14.273
99732W        W68126  39.330  29.459  10.770
99733W        W68127   9.208   9.061   4.474
99734W        W68128   0.524  39.545  10.813
99735W        W68129  16.673   2.970   4.082
99736W        W68130  44.670  18.244  13.307
99737W        W68131  42.991  17.368  11.791
99738W        W68132   0.554  33.867  14.737
99739W        W68133   9.332  14.246   3.113
99740W        W68134   8.727   7.839   0.857
99741W        W68135  33.397  26.528   0.967
99742W        W68136   8.251  14.372  11.164
99743W        W68137  23.146   9.439   3.722
99744W        W68138  27.097  20.577   0.497
99745W        W68139  21.389  26.867  13.432
99746W        W68140   6.314  19.495   0.366
99747W        W68141  17.117   6.251   1.802
99748W        W68142   7.463  36.423   0.299
99749W        W68143  10.362  19.535  13.594
99750W        W68144  24.242  30.699   1.795
99751W        W68145  24.241  20.102   3.234
99752W        W68146  20.673   9.251   0.215
99753W        W68147  12.637  22.833   2.357
99754W        W68148  26.877  20.490  14.780
99755W        W68149  44.766  11.925   0.024
99756W        W68150   5.958  39.877   0.864
99757W        W68151  16.564  32.636   0.938
99758W        W68152  22.918  26.991   0.413
99759W        W68153   1.925  26.030  11.223
99760W        W68154   1.187  31.853  14.891
99761W        W68155  11.680   0.881  14.034
99762W        W68156  38.007   4.842  10.916
99763W        W68157  18.722  43.021  10.591
99764W        W68158  17.127  37.366  11.619
99765W        W68159  37.875  43.935  10.634
99766W        W68160  37.833  44.446   3.129
99767W        W68161   4.246   5.487  12.610
99768W        W68162  16.761  25.747   1.663
99769W        W68163  19.030  41.325   2.723
99770W        W68164  30.135  34.914   3.760
99771W        W68165  10.383  25.434   0.299
99772W        W68166  43.546  21.253   1.957
99773W        W68167  18.231  30.745   0.171
99774W        W68168  33.363   3.356   0.526
99775W        W68169   7.106  16.026  11.009
99776W        W68170   5.991  41.078  11.551
99777W        W68171  38.405   5.031   2.303
99778W        W68172  29.917  24.604  14.823
99779W        W68173   1.756   4.970  11.607
99780W        W68174  12.369   7.847  10.707
99781W        W68175  41.382  16.664  14.235
99782W        W68176  18.105   7.255   4.640
99783W        W68177  10.196  26.546  10.247
99784W        W68178  13.636  14.370   4.058
99785W        W68179  43.778  21.581  12.108
99786W        W68180  43.027   2.946   1.782
99787W        W68181  32.979  23.850  12.466
99788W        W68182  22.178   1.311  13.759
99789W        W68183   2.494  40.032   0.947
99790W        W68184  33.886  23.580   2.761
99791W        W68185  33.570  28.763   5.039
99792W        W68186  40.345  38.451   2.355
99793W        W68187  41.554  43.961  12.174
99794W        W68188   0.784  41.310  10.673
99795W        W68189  10.530  38.127   4.135
99796W        W68190  26.734  25.820   3.243
99797W        W68191  17.341  18.947  12.162
99798W        W68192  38.857   3.214  10.232
99799W        W68193  11.366  22.204  14.531
99800W        W68194  20.619  33.562  14.460
99801W        W68195  18.505  26.209   9.861
99802W        W68196   2.762  25.140  11.910
99803W        W68197   1.258  10.875   3.395
99804W        W68198   4.805  36.329   1.485
99805W        W68199  36.948  13.477   2.792
99806W        W68200   8.456  23.707   3.093
99807W        W68201  27.955  14.708   0.730
99808W        W68202  13.424  42.708  11.703
99809W        W68203  37.926  42.955  12.313
99810W        W68204  23.078  24.976  13.408
99811W        W68205  11.862  40.332  12.313
99812W        W68206   8.858  32.776   4.288
99813W        W68207  20.024  30.924  13.982
99814W        W68208  32.548   8.691   3.805
99815W        W68209  34.253  41.445  13.783
99816W        W68210   6.748  42.007  10.685
99817W        W68211  31.458  21.552   2.125
99818W        W68212  24.127  30.483  10.114
99819W        W68213   9.400  15.013   2.187
99820W        W68214  29.589  32.091  10.669
99821W        W68215  11.051  43.709  12.210
99822W        W68216  22.608   6.890   1.023
99823W        W68217   4.755  21.235  13.030
99824W        W68218   3.040  22.769  12.180
99825W        W68219  38.276  12.674  12.935
99826W        W68220  14.803   6.706   2.040
99827W        W68221  28.058  27.428   0.381
99828W        W68222  12.309   9.438   3.185
99829W        W68223   6.228   9.382   0.754
99830W        W68224  28.514  28.979  12.073
99831W        W68225  16.740  39.370   2.716
99832W        W68226   0.003  32.939   0.900
99833W        W68227   2.750  33.919  12.500
99834W        W68228   6.888   6.470  13.822
99835W        W68229  41.958  27.973   2.298
99836W        W68230  44.718   7.454  12.642
99837W        W68231  10.686  10.841   0.060
99838W        W68232  21.552   6.688   3.787
99839W        W68233  20.261  23.682  12.523
99840W        W68234  29.989  30.552   1.682
99841W        W68235   5.790  17.991  11.002
99842W        W68236  33.412  19.799  11.607
99843W        W68237  37.148  44.981   3.164
99844W        W68238  16.243  24.493   0.902
99845W        W68239  38.802  34.283   0.318
99846W        W68240  12.487  31.835   0.720
99847W        W68241   3.791  17.351   1.917
99848W        W68242  29.569  15.587  11.555
99849W        W68243  37.435  31.569  12.792
99850W        W68244  30.415  39.912  13.344
99851W        W68245  33.989  38.377  12.390
99852W        W68246  34.868  37.035   3.279
99853W        W68247  15.416  39.412  11.659
99854W        W68248  30.488  34.354   1.511
99855W        W68249  36.540  40.749  11.067
99856W        W68250   7.783  33.107  10.424
99857W        W68251  39.270  18.575   2.375
99858W        W68252  28.548   9.123   3.628
99859W        W68253   9.577  16.199  11.990
99860W        W68254   3.805  29.972   4.435
99861W        W68255  41.687  30.281  14.394
99862W        W68256   9.753  25.298   4.583
99863W        W68257  31.515   9.854  10.976
99864W        W68258  14.676  13.337   0.365
99865W        W68259  27.189  36.624  10.740
99866W        W68260  16.122  43.483   1.774
99867W        W68261  18.499  25.158   2.031
99868W        W68262  33.466  36.514   2.464
99869W        W68263  39.488   5.259   1.449
99870W        W68264  41.557  40.566  13.735
99871W        W68265   3.018  35.002   4.393
99872W        W68266  11.144  38.927  14.374
99873W        W68267  42.013  27.643  14.952
99874W        W68268   7.450  11.646   4.904
99875W        W68269  13.811  16.568  11.420
99876W        W68270  13.544   8.906   4.049
99877W        W68271  12.141  18.208  14.022
99878W        W68272  32.076  43.575   3.552
99879W        W68273  30.392  16.113  14.817
99880W        W68274   3.299  43.984   1.780
99881W        W68275  36.626  17.221   3.563
99882W        W68276   5.772  40.324   2.036
99883W        W68277  23.164  10.683   0.742
99884W        W68278  32.834   7.469   4.293
99885W        W68279  26.520  31.038  11.469
99886W        W68280  31.616   7.536  11.637
99887W        W68281  35.651  33.459   3.651
99888W        W68282  12.839   7.420  14.538
99889W        W68283  14.670  21.003   3.136
99890W        W68284  10.658   6.174   4.862
99891W        W68285  13.594  41.949   0.869
99892W        W68286  25.718   7.032  11.186
99893W        W68287  37.612  41.283   0.968
99894W        W68288  40.945  12.353  13.374
99895W        W68289  17.216   9.709   4.693
99896W        W68290  16.117  11.698   4.223
99897W        W68291   0.206   1.298  11.387
99898W        W68292  27.206  34.409   3.555
99899W        W68293  41.212  27.230   4.201
99900W        W68294   0.169  28.524   3.708
99901W        W68295  40.927   0.943   3.370
99902W        W68296  40.373  29.595  12.245
99903W        W68297  36.887  15.854  12.995
99904W        W68298  36.654  41.963  14.269
99905W        W68299   8.641  16.693  13.213
99906W        W68300  15.643  32.897  13.392
99907W        W68301   5.866  30.185  14.237
99908W        W68302   9.761  38.783  10.990
99909W        W68303  30.646   6.177   0.917
99910W        W68304  27.122   2.346   1.293
99911W        W68305  23.055  25.738   4.324
99912W        W68306  11.028  16.659   4.110
99913W        W68307  37.310  30.420   4.392
99914W        W68308  23.827  18.684   0.957
99915W        W68309  35.090  16.635   1.749
99916W        W68310  13.685  15.341  10.714
99917W        W68311  33.094  27.156  14.564
99918W        W68312  39.761   4.494   0.844
99919W        W68313  16.414  30.554  11.214
99920W        W68314  29.194   6.011   1.838
99921W        W68315   0.995  38.483  12.556
99922W        W68316  44.757   8.884  10.478
99923W        W68317  17.326  31.957   4.500
99924W        W68318  17.151  35.834  12.556
99925W        W68319  12.959  33.022   3.926
99926W        W68320   0.375   9.197  13.864
99927W        W68321  29.415  26.940  11.590
99928W        W68322   3.375  29.078  14.913
99929W        W68323  17.005  25.152   1.941
99930W        W68324   2.740  27.671  13.381
99931W        W68325   5.750  43.019  13.902
99932W        W68326  33.550  27.355  14.681
99933W        W68327  37.616  26.426   4.084
99934W        W68328  12.267  10.877   1.731
99935W        W68329  16.729  22.291  13.231
99936W        W68330  18.725  20.105   0.499
99937W        W68331  28.745   6.978  14.018
99938W        W68332  43.930  33.149   2.650
99939W        W68333  28.371  17.549   1.743
99940W        W68334   6.667   8.360   3.728
99941W        W68335  42.069  24.195  12.486
99942W        W68336  11.211  43.692  13.504
99943W        W68337   9.335  43.963  10.602
99944W        W68338   4.933  27.262  13.484
99945W        W68339  18.723  24.627  13.945
99946W        W68340  42.510  16.520   2.363
99947W        W68341   3.008  24.051   0.334
99948W        W68342  26.028  30.446   5.011
99949W        W68343   1.468  23.077   3.928
99950W        W68344  10.717  36.561  14.428
99951W        W68345   9.757  17.820   2.743
99952W        W68346  16.580  14.838  11.609
99953W        W68347  22.538   8.688  10.621
99954W        W68348  39.787  22.680   1.427
99955W        W68349  30.992  32.711   3.777
99956W        W68350  23.563  21.040   2.122
99957W        W68351  17.381  25.632   3.231
99958W        W68352  31.963  32.528  12.894
99959W        W68353  16.274  18.758  11.556
99960W        W68354  24.070  31.404  11.917
99961W        W68355  18.174  23.222   3.178
99962W        W68356  31.126  15.779   4.064
99963W        W68357   2.189  37.122  11.602
99964W        W68358  28.337  27.876  14.963
99965W        W68359   6.699  24.850   1.769
99966W        W68360  10.682  31.462   0.702
99967W        W68361  37.098  25.134   4.614
99968W        W68362  15.830  20.645  10.354
99969W        W68363  34.936  33.379  12.674
99970W        W68364  43.795  16.477   0.513
99971W        W68365  27.248  40.393  13.538
99972W        W68366  39.391  17.320   2.918
99973W        W68367  44.818  19.186   0.888
99974W        W68368  34.470  11.112  12.149
99975W        W68369  43.485  15.717   0.857
99976W        W68370  37.913  42.251  11.199
99977W        W68371  25.646  15.097   4.443
99978W        W68372  11.274   6.757   3.578
99979W        W68373  19.545  24.649   0.544
99980W        W68374  34.851  42.352  10.612
99981W        W68375  13.413  14.675   0.741
99982W        W68376   2.734  28.517  11.911
99983W        W68377   5.949  28.024  12.169
99984W        W68378  39.213  37.608   4.113
99985W        W68379  32.378  22.260   3.761
99986W        W68380  24.239  41.364   1.689
99987W        W68381   5.750   9.284   4.131
99988W        W68382  19.673  15.400  14.587
99989W        W68383   5.072  40.006   0.760
99990W        W68384  28.705  34.375   2.871
99991W        W68385  28.474  12.579   1.194
99992W        W68386  38.572  21.062   4.179
99993W        W68387  38.740   9.922  14.510
99994W        W68388  18.895  16.137   3.202
99995W        W68389  28.826   9.057  14.507
99996W        W68390  43.328  15.935   1.317
99997W        W68391  42.921  26.980   3.645
99998W        W68392  20.070  39.888  14.115
99999W        W68393   9.317   8.357   2.818
    0W        W68394   1.948  40.871   1.868
    1W        W68395  10.260  10.445   2.721
    2W        W68396  22.551   8.664  12.783
    3W        W68397  16.789  27.882   2.776
    4W        W68398   3.099  29.418  14.483
    5W        W68399  25.499   8.159   4.186
    6W        W68400  18.201   8.684   0.265
    7W        W68401  39.378  24.124   4.876
    8W        W68402  35.830  10.894   3.283
    9W        W68403  21.833  20.670   1.089
   10W        W68404  31.908  35.451   0.282
   11W        W68405  19.061  36.352   3.352
   12W        W68406  31.062  10.408  14.720
   13W        W68407  23.027  13.857  13.830
   14W        W68408  42.286  36.366  13.296
   15W        W68409  43.981   4.132   0.482
   16W        W68410   9.455  26.182   1.686
   17W        W68411  30.988  39.847  12.550
   18W        W68412  18.554   4.902  13.738
   19W        W68413  30.092  10.716   1.928
   20W        W68414   3.934  14.730  12.997
   21W        W68415  18.560  33.886   3.880
   22W        W68416  25.454  21.773  12.964
   23W        W68417  24.563  19.252  14.861
   24W        W68418  22.516  10.223  12.669
   25W        W68419   9.729  43.701   0.027
   26W        W68420  42.456   1.930  11.959
   27W        W68421  43.226   7.894   3.239
   28W        W68422  43.112   2.807   0.434
   29W        W68423   1.924  31.545   3.879
   30W        W68424   8.568   4.395  12.114
   31W        W68425  14.291   7.826   3.795
   32W        W68426  18.518  35.383   0.897
   33W        W68427  31.782  17.052   0.622
   34W        W68428  39.690  32.784  14.710
   35W        W68429  31.151  43.971  10.700
   36W        W68430  12.536   4.290   1.879
   37W        W68431  38.506  23.990  10.342
   38W        W68432   4.399  37.225   0.828
   39W        W68433   0.544  19.076   2.776
   40W        W68434  19.529  27.963   4.582
   41W        W68435  18.600  33.003   1.400
   42W        W68436   5.480  20.531   1.791
   43W        W68437  27.232  35.464   1.811
   44W        W68438  14.744  35.517   2.317
   45W        W68439  11.602  44.346   1.329
   46W        W68440   8.138  19.421  14.027
   47W        W68441   4.328  24.673   5.388
   48W        W68442  14.461  13.891  13.759
   49W        W68443  19.950  23.426   1.417
   50W        W68444   4.516   2.726   1.041
   51W        W68445  25.006  24.190   2.588
   52W        W68446  33.851  39.607   0.865
   53W        W68447  32.861  34.623  11.933
   54W        W68448  22.565  44.549  11.902
   55W        W68449  33.542  20.543  11.029
   56W        W68450  14.945   3.404   3.217
   57W        W68451  38.262  33.731  11.125
   58W        W68452  39.051   0.287   5.019
   59W        W68453  37.487  40.168   0.378
   60W        W68454  41.474   7.512   0.641
   61W        W68455  10.438   6.327  12.033
   62W        W68456  21.913   4.878   4.395
   63W        W68457  33.610  13.741   3.605
   64W        W68458  16.974   2.821   0.204
   65W        W68459  23.257  34.479  14.432
   66W        W68460  13.364  11.166   1.717
   67W        W68461  30.238   7.945   0.675
   68W        W68462  42.463   9.742  14.909
   69W        W68463   6.616  38.116   1.257
   70W        W68464   7.791  20.317   3.200
   71W        W68465  33.520  23.894   4.666
   72W        W68466  26.964   9.859  10.678
   73W        W68467   9.239  37.625  11.532
   74W        W68468  15.736  40.989  14.895
   75W        W68469   2.541  29.373   0.404
   76W        W68470  39.379  24.349  10.401
   77W        W68471  14.279   9.306   3.185
   78W        W68472  36.458  15.074   2.105
   79W        W68473  10.232   0.845  14.215
   80W        W68474  32.830   2.265  12.468
   81W        W68475  17.140  12.852   0.959
   82W        W68476   5.400  41.635  13.873
   83W        W68477  40.995   3.298  11.661
   84W        W68478  20.047  12.602   0.952
   85W        W68479  42.750  36.323   3.187
   86W        W68480  29.978   0.700  12.539
   87W        W68481  40.876  34.872  14.918
   88W        W68482  42.095   0.421  12.054
   89W        W68483   0.492  19.120  11.196
   90W        W68484  43.409   1.233   1.470
   91W        W68485   4.695  19.687  12.755
   92W        W68486  16.284  33.474   0.785
   93W        W68487   5.440  28.484  10.585
   94W        W68488   7.320  27.136   3.667
   95W        W68489  43.114  24.025  11.198
   96W        W68490  28.449   9.818  11.393
   97W        W68491  10.805  11.639  14.994
   98W        W68492  26.058   4.120   0.297
   99W        W68493   6.741   1.069   4.717
  100W        W68494  24.562   2.456  14.267
  101W        W68495  44.684   9.751  11.435
  102W        W68496  38.024  18.193  14.853
  103W        W68497   3.617  29.509   1.270
  104W        W68498  22.719  11.754   1.383
  105W        W68499  35.724  34.326  12.628
  106W        W68500   3.580  26.230   3.924
  107W        W68501   3.400  28.456  13.986
  108W        W68502  30.097  16.819  13.864
  109W        W68503   1.527  14.545  14.006
  110W        W68504   7.244  29.564  13.512
  111W        W68505   8.982  12.753  11.754
  112W        W68506  31.879  18.553   0.759
  113W        W68507   9.326  44.811   0.791
  114W        W68508   8.709  35.847   4.412
  115W        W68509  10.894  43.509  11.060
  116W        W68510  10.128  15.204  14.792
  117W        W68511  44.443   5.414  12.444
  118W        W68512  18.754  22.048   0.258
  119W        W68513   7.091  21.728   0.416
  120W        W68514  21.655  31.398   2.018
  121W        W68515  43.488  35.962  11.227
  122W        W68516  12.736  13.071  14.361
  123W        W68517   2.416  34.151  11.517
  124W        W68518   9.714  19.106   3.070
  125W        W68519  16.623  35.282  10.932
  126W        W68520  21.023  37.408  13.833
  127W        W68521  26.918  36.144  13.904
  128W        W68522  12.097  39.087   4.345
  129W        W68523  25.464  40.732   0.295
  130W        W68524  40.569  28.894   2.410
  131W        W68525   7.548  30.439   4.087
  132W        W68526  16.977  21.726   0.472
  133W        W68527  17.275  40.305  14.332
  134W        W68528  22.271  40.528  14.354
  135W        W68529  33.258   2.784   2.584
  136W        W68530  13.674  44.799   0.937
  137W        W68531  23.092  41.561  13.348
  138W        W68532  23.219   1.344  11.122
  139W        W68533   7.033  16.641   3.606
  140W        W68534  32.689  30.515   1.784
  141W        W68535  42.076   9.131   1.481
  142W        W68536   7.221   4.216  13.042
  143W        W68537  24.742   1.057   1.361
  144W        W68538   5.363  29.013   3.989
  145W        W68539  12.634  24.710   3.868
  146W        W68540  24.615   6.187   4.325
  147W        W68541  41.885  15.624  11.170
  148W        W68542   0.412  14.424   3.905
  149W        W68543  32.438  22.257   0.213
  150W        W68544  35.050  35.873   0.638
  151W        W68545  39.360  29.133   2.926
  152W        W68546   1.308  27.526  13.274
  153W        W68547  34.084  20.732   1.804
  154W        W68548  12.341  15.057  13.823
  155W        W68549  13.836  13.601  14.407
  156W        W68550  19.784  34.628   0.856
  157W        W68551  24.109  25.621  11.133
  158W        W68552   7.419   4.259  14.830
  159W        W68553  12.973  42.326  12.775
  160W        W68554  31.349  44.481  10.736
  161W        W68555  14.942  38.520  10.734
  162W        W68556  10.336  40.062   2.380
  163W        W68557  31.546   5.800  11.571
  164W        W68558  14.574  26.132   2.691
  165W        W68559   2.299  10.818   0.428
  166W        W68560  31.832  12.308   2.188
  167W        W68561  17.529  15.192   0.884
  168W        W68562  26.445  12.802   2.978
  169W        W68563  33.010  12.275   1.901
  170W        W68564  11.835  42.231   4.600
  171W        W68565  15.182  34.919   2.882
  172W        W68566  36.187  31.020   3.789
  173W        W68567  30.607  44.495   2.453
  174W        W68568  23.834   3.351   9.953
  175W        W68569  16.532  35.304   4.200
  176W        W68570   4.809   8.652   1.087
  177W        W68571  23.125  20.053   4.470
  178W        W68572  13.800  30.505   2.681
  179W        W68573  14.787  24.537  14.600
  180W        W68574  15.006  39.634  10.827
  181W        W68575  32.520  43.474  11.993
  182W        W68576  25.399  42.293   0.496
  183W        W68577  25.904   7.255   3.697
  184W        W68578  31.224  26.897  11.783
  185W        W68579  36.731  34.801  13.927
  186W        W68580  25.503  25.646   0.595
  187W        W68581  39.634   7.663   2.651
  188W        W68582  38.949   0.565   3.379
  189W        W68583  10.525   7.696   0.708
  190W        W68584  34.831  40.839  11.497
  191W        W68585  10.129   4.083   3.719
  192W        W68586  35.049   4.455  12.554
  193W        W68587   1.530  19.275   2.959
  194W        W68588  16.563  34.911  14.774
  195W        W68589  19.728   9.368  12.860
  196W        W68590  19.949  41.420  11.957
  197W        W68591  39.535  40.623   1.912
  198W        W68592  21.527  25.149   2.817
  199W        W68593  23.297   4.641  12.971
  200W        W68594  33.825  40.440   2.909
  201W        W68595  21.785  28.963   4.165
  202W        W68596  23.800  37.098  11.193
  203W        W68597  16.136  44.607  11.580
  204W        W68598  32.348   0.972  10.597
  205W        W68599   5.991  24.189   1.874
  206W        W68600  22.754  30.044  14.945
  207W        W68601  37.105  38.376   3.719
  208W        W68602  16.117  41.551   1.918
  209W        W68603   9.264  19.579   3.666
  210W        W68604  30.818  10.334   3.871
  211W        W68605  16.597  25.188   0.281
  212W        W68606  23.198  20.629   2.117
  213W        W68607  37.176  32.307   2.550
  214W        W68608  40.841   7.975  11.241
  215W        W68609  25.028  13.938   3.215
  216W        W68610   4.536   9.915  13.266
  217W        W68611  35.049  40.437  12.137
  218W        W68612  42.832  20.853  10.268
  219W        W68613  40.543   8.719  11.168
  220W        W68614  15.324  24.938   1.850
  221W        W68615  16.310  44.874   4.321
  222W        W68616  29.409  20.008   0.699
  223W        W68617  36.574   3.278  12.607
  224W        W68618  32.452  10.845  12.383
  225W        W68619   8.617  36.947  11.585
  226W        W68620  12.673   2.224   0.472
  227W        W68621  42.329  16.936   0.380
  228W        W68622  16.656  30.719  12.462
  229W        W68623  32.829  18.706   4.072
  230W        W68624  23.891   4.696  11.073
  231W        W68625  15.154  36.368   2.348
  232W        W68626   9.872  18.667  12.085
  233W        W68627   5.686  31.074  14.012
  234W        W68628  39.283  14.020  11.137
  235W        W68629  34.982  39.842  12.918
  236W        W68630  20.387  22.419   2.212
  237W        W68631  21.742   0.907  11.717
  238W        W68632  23.587  43.120  14.401
  239W        W68633  30.726  10.675  12.422
  240W        W68634  37.462  25.087   1.315
  241W        W68635  26.209  12.779   4.587
  242W        W68636  22.918  35.562   3.883
  243W        W68637  44.327  31.284  13.469
  244W        W68638  10.547   3.770   3.750
  245W        W68639  44.974  26.186   0.775
  246W        W68640  38.903  24.274   3.244
  247W        W68641  24.796  33.437  11.530
  248W        W68642  39.964  18.578  11.368
  249W        W68643  44.364  33.943  10.942
  250W        W68644  37.935  38.791   0.822
  251W        W68645  12.990   5.767  13.710
  252W        W68646  43.768   4.807   3.779
  253W        W68647   4.795   4.754  11.921
  254W        W68648   4.489  34.772   0.824
  255W        W68649  16.601   0.863  14.809
  256W        W68650  42.775  32.619   3.721
  257W        W68651   2.844  21.650   1.095
  258W        W68652  17.912  26.343  10.613
  259W        W68653  24.506  27.919   2.520
  260W        W68654  23.222   5.898   0.906
  261W        W68655  30.845  24.999  14.816
  262W        W68656  13.197  33.057   4.670
  263W        W68657  18.948  39.927   0.012
  264W        W68658  24.412  43.790  14.789
  265W        W68659  13.503  43.320   3.355
  266W        W68660   3.837  28.464  11.046
  267W        W68661  39.648  37.321   1.411
  268W        W68662  44.048   5.302  12.102
  269W        W68663  40.213  38.496  14.868
  270W        W68664  15.033  40.129  12.064
  271W        W68665  41.392  44.399   0.237
  272W        W68666   6.149   3.581   4.121
  273W        W68667  23.072  29.924  11.444
  274W        W68668  24.677  12.468   1.753
  275W        W68669   9.601   0.788  13.518
  276W        W68670  10.874   1.247   4.417
  277W        W68671   1.920  32.330  10.916
  278W        W68672  23.480  28.935  14.871
  279W        W68673   9.090   6.142  13.927
  280W        W68674  14.946  15.140  11.206
  281W        W68675  21.901  21.035  11.299
  282W        W68676  32.052   1.376  10.672
  283W        W68677   7.380  15.169  11.990
  284W        W68678  34.858  42.976  14.750
  285W        W68679  40.788  28.160  10.795
  286W        W68680  16.599  18.701  14.195
  287W        W68681  13.104  16.808  12.944
  288W        W68682  33.384  22.149   3.842
  289W        W68683   1.853  36.274   1.629
  290W        W68684  15.121  38.463   2.302
  291W        W68685   3.219  14.668   4.076
  292W        W68686  39.283   7.896  12.429
  293W        W68687  29.401   9.345   2.679
  294W        W68688  41.759   2.179   0.354
  295W        W68689   7.697   0.699   4.622
  296W        W68690  27.563  18.754  13.000
  297W        W68691  25.051  10.708  11.240
  298W        W68692  14.616  17.602  14.624
  299W        W68693   9.395  25.563   4.321
  300W        W68694   9.263  43.537   3.282
  301W        W68695   0.807  13.000  12.327
  302W        W68696  36.607  44.365   3.695
  303W        W68697   1.812  16.563   2.744
  304W        W68698  31.672  12.001   0.412
  305W        W68699   0.915  28.986   3.446
  306W        W68700  17.722   5.475  10.076
  307W        W68701  40.893  12.232  14.261
  308W        W68702   1.266  19.714  11.226
  309W        W68703  42.074   7.397  10.686
  310W        W68704  13.784   5.619   4.502
  311W        W68705  34.069  14.018   0.762
  312W        W68706  18.041  30.515   3.580
  313W        W68707  42.369  34.912  14.988
  314W        W68708   1.616  34.496   0.436
  315W        W68709  20.817  33.300  11.470
  316W        W68710  25.599   5.266  14.966
  317W        W68711  26.217  20.628   4.687
  318W        W68712   3.696  11.715   2.330
  319W        W68713  40.887  39.535   0.257
  320W        W68714   9.731   6.723  14.699
  321W        W68715  36.347  12.085  10.370
  322W        W68716  39.451  21.121  14.240
  323W        W68717  41.084  37.340  11.552
  324W        W68718   6.726  43.824   2.186
  325W        W68719  33.619   1.982  13.537
  326W        W68720  13.787   1.676  10.644
  327W        W68721  44.915  40.277  10.348
  328W        W68722  28.324   6.730  14.344
  329W        W68723  14.678  17.458   3.621
  330W        W68724  23.584   0.436  14.268
  331W        W68725   0.318  11.826   2.946
  332W        W68726  35.938  33.876   3.825
  333W        W68727  22.057  18.105   0.867
  334W        W68728  24.599  37.638   1.344
  335W        W68729  42.340  15.405  10.560
  336W        W68730  35.054  37.161  10.627
  337W        W68731  23.836   2.916   0.705
  338W        W68732  21.668  26.527   3.032
  339W        W68733  29.075  11.417  14.356
  340W        W68734   3.292  44.850  14.286
  341W        W68735  39.738  26.184   0.455
  342W        W68736  23.261  19.712  11.145
  343W        W68737  25.573  35.775  12.402
  344W        W68738  23.001   3.286  10.973
  345W        W68739   4.859  26.438   3.315
  346W        W68740  30.223   3.936   2.168
  347W        W68741   7.572  25.233   2.256
  348W        W68742  17.071  40.033   3.348
  349W        W68743   2.716  40.106   4.069
  350W        W68744  18.745  17.734   3.713
  351W        W68745  27.894  24.501   2.887
  352W        W68746  43.125  39.543   4.721
  353W        W68747  17.327  34.606   0.894
  354W        W68748   8.942  24.717   1.637
  355W        W68749  19.550   5.110  14.511
  356W        W68750  16.310  28.203  13.350
  357W        W68751  12.479   8.682   4.913
  358W        W68752   1.248   5.404   2.725
  359W        W68753   8.715  11.393  14.893
  360W        W68754  36.442  42.300  13.940
  361W        W68755  16.012  35.993  14.226
  362W        W68756  28.614   6.452  14.013
  363W        W68757  37.304  29.218  12.026
  364W        W68758  38.561  24.604   1.998
  365W        W68759  36.435  28.560   2.795
  366W        W68760  39.256  17.380   4.198
  367W        W68761  38.816   1.888   1.840
  368W        W68762  40.441  15.768   0.342
  369W        W68763  15.699  17.382  14.903
  370W        W68764   5.779  24.095   4.233
  371W        W68765  42.556   0.856   4.212
  372W        W68766  10.155  25.427   2.833
  373W        W68767  34.705  10.096   0.185
  374W        W68768  13.112  18.844   3.725
  375W        W68769   1.252   4.629   2.767
  376W        W68770  17.809  12.053   2.330
  377W        W68771  11.890  42.245  13.289
  378W        W68772  19.566  40.014  14.071
  379W        W68773   4.352  23.906  10.783
  380W        W68774  10.376  10.248  14.474
  381W        W68775  30.581  23.601  13.311
  382W        W68776  32.997  36.993   1.466
  383W        W68777   8.721  27.022  10.457
  384W        W68778  41.488  31.701  12.940
  385W        W68779  20.854  25.185  11.131
  386W        W68780  44.359   1.371   3.889
  387W        W68781   5.265   6.190   0.642
  388W        W68782  23.527  26.385   0.524
  389W        W68783  22.903  10.265  11.371
  390W        W68784  34.168  12.758   0.523
  391W        W68785  10.325   9.331  11.674
  392W        W68786  12.134  13.333  11.307
  393W        W68787  25.594  17.023  12.887
  394W        W68788  30.631  28.417  10.742
  395W        W68789  43.594  41.473  14.840
  396W        W68790   8.037  10.803   0.764
  397W        W68791  39.976  40.330   4.629
  398W        W68792  16.346   9.695   1.439
  399W        W68793  21.227  28.287  13.499
  400W        W68794  39.334  44.056  14.151
  401W        W68795  10.864  17.172  11.610
  402W        W68796   3.330   8.547  11.169
  403W        W68797  16.721  35.831   1.141
  404W        W68798  26.970  24.686   0.519
  405W        W68799  41.095  44.537   2.276
  406W        W68800  31.145  36.669  14.852
  407W        W68801  26.892   1.066   0.910
  408W        W68802  39.772  19.141  10.709
  409W        W68803  26.916  30.562  14.954
  410W        W68804  24.703  44.892   0.383
  411W        W68805  14.106  40.036  12.911
  412W        W68806   7.361   7.926  13.489
  413W        W68807   8.799   0.557   1.657
  414W        W68808  33.994  20.474   4.642
  415W        W68809  21.505  11.684   4.122
  416W        W68810  10.673  32.570  10.720
  417W        W68811  10.113  34.643  11.806
  418W        W68812  31.972  36.605   2.143
  419W        W68813  20.314  15.264   9.706
  420W        W68814  27.272  18.829  11.141
  421W        W68815  10.274   7.920  14.790
  422W        W68816  41.318  28.933  13.409
  423W        W68817  26.021  15.500   1.874
  424W        W68818  28.975   9.789  12.198
  425W        W68819  12.191  30.570  10.525
  426W        W68820  42.764  38.808   1.394
  427W        W68821  38.885  38.289   2.353
  428W        W68822  23.562  37.476  13.047
  429W        W68823  44.821  34.193  12.084
  430W        W68824  35.927  35.094   0.965
  431W        W68825  40.485  21.143  13.323
  432W        W68826  18.724  26.210  12.111
  433W        W68827  14.813  35.910  13.397
  434W        W68828  21.238   9.666   0.145
  435W        W68829  27.187  26.465   3.692
  436W        W68830  42.807  34.823  10.522
  437W        W68831  37.162  21.086   3.635
  438W        W68832  14.799  34.910  11.600
  439W        W68833  10.253   7.779  11.384
  440W        W68834  38.387  18.014   4.359
  441W        W68835  26.809  29.753  13.804
  442W        W68836  20.535  30.634  11.444
  443W        W68837  23.000  31.664   0.982
  444W        W68838  22.478   2.705  12.603
  445W        W68839  31.416   6.702   4.836
  446W        W68840  39.960  15.282  13.250
  447W        W68841  20.979  19.502  12.577
  448W        W68842  39.035  13.799   0.395
  449W        W68843  18.253   4.736   1.308
  450W        W68844   6.473  28.486   1.806
  451W        W68845  21.722  41.421  10.957
  452W        W68846  31.601  32.651  11.574
  453W        W68847  41.847   4.909   0.011
  454W        W68848  11.310  31.311  13.917
  455W        W68849  22.635  12.842  11.080
  456W        W68850   7.736  37.098   3.307
  457W        W68851  15.974  41.449   1.425
  458W        W68852  14.676  16.844  12.207
  459W        W68853  14.150  21.814   4.453
  460W        W68854  35.837  10.801   1.901
  461W        W68855  10.258  27.848  12.953
  462W        W68856  23.141  34.338  11.822
  463W        W68857  41.906  13.911   0.010
  464W        W68858  43.811  12.893  13.932
  465W        W68859  41.643  17.255  12.194
  466W        W68860  40.029  16.866  14.954
  467W        W68861  28.998   8.951   2.724
  468W        W68862  16.391  26.922   2.745
  469W        W68863   1.779  29.170   3.064
  470W        W68864  25.236  38.709   4.968
  471W        W68865  14.496  41.063   1.240
  472W        W68866   5.349  37.818   2.952
  473W        W68867  15.861   7.789   0.181
  474W        W68868   8.472  25.998  10.352
  475W        W68869  30.161  38.632   4.549
  476W        W68870  11.771  21.857   3.350
  477W        W68871  21.309  41.324  12.313
  478W        W68872  38.984  27.636  14.491
  479W        W68873  17.920  44.039  11.871
  480W        W68874  32.117  37.139   2.255
  481W        W68875  14.795  21.514  14.699
  482W        W68876  14.251  31.481   4.658
  483W        W68877  35.108  38.514  14.012
  484W        W68878  17.224   4.778  14.549
  485W        W68879  32.834   8.507   4.196
  486W        W68880   5.724  43.079  12.101
  487W        W68881  20.124  29.050  13.424
  488W        W68882  19.259  37.621   4.568
  489W        W68883   1.118  26.700  10.840
  490W        W68884  27.290  30.936   3.117
  491W        W68885  42.459   9.301   2.139
  492W        W68886  28.102  10.847   0.363
  493W        W68887  37.824  33.420   3.806
  494W        W68888  38.336  10.214   3.583
  495W        W68889  14.120  38.532   2.360
  496W        W68890  25.463  18.642  10.791
  497W        W68891  31.332  42.386   0.971
  498W        W68892  31.362  34.006   3.683
  499W        W68893   5.408  29.916  14.269
  500W        W68894  33.666  11.293  10.262
  501W        W68895  44.487   2.380  12.036
  502W        W68896  17.803  20.020  10.518
  503W        W68897  17.158  16.189   2.165
  504W        W68898  41.350  36.468   0.811
  505W        W68899  26.386   7.464  12.510
  506W        W68900  44.949  33.003  13.926
  507W        W68901  36.982  42.787  13.868
  508W        W68902  29.008  22.290  13.543
  509W        W68903  18.535  28.785   3.191
  510W        W68904   2.761  18.157  14.277
  511W        W68905  10.332  32.346  13.701
  512W        W68906   5.850  43.249   4.069
  513W        W68907  29.981  12.514   0.902
  514W        W68908  21.648  19.070  11.814
  515W        W68909  12.309  17.798   4.670
  516W        W68910  29.501  12.905  13.396
  517W        W68911  40.448   4.406  11.419
  518W        W68912  17.632  43.810   0.837
  519W        W68913   1.861  16.230  13.386
  520W        W68914   7.148  42.268   4.764
  521W        W68915  26.390  23.835  11.163
  522W        W68916  36.957  30.609  11.222
  523W        W68917   9.845  34.762   0.638
  524W        W68918  33.041   5.894   0.861
  525W        W68919  28.204   3.390   2.290
  526W        W68920  13.972  43.697   3.182
  527W        W68921  32.551  42.756   1.161
  528W        W68922   5.811  23.721  10.789
  529W        W68923   2.312  27.677   2.067
  530W        W68924  35.796  40.431   2.757
  531W        W68925   8.295  41.336  14.527
  532W        W68926   8.110  18.596  14.387
  533W        W68927  15.857  13.703  11.194
  534W        W68928   9.780   6.386   4.696
  535W        W68929  11.304   7.247   3.309
  536W        W68930  34.810  38.856  12.108
  537W        W68931  17.053  21.474  13.327
  538W        W68932  13.102  38.892  11.594
  539W        W68933  26.731  39.387  12.388
  540W        W68934   6.084  14.331   4.503
  541W        W68935   7.215  43.463  13.432
  542W        W68936  23.150  38.105   3.815
  543W        W68937  37.407   0.441   0.339
  544W        W68938   4.466  36.950   2.721
  545W        W68939  44.806   0.717   0.318
  546W        W68940  34.568  35.024   3.812
  547W        W68941  18.881  20.230   2.253
  548W        W68942  29.479  31.641   0.773
  549W        W68943  39.731  28.953  13.137
  550W        W68944  34.938  19.795   0.308
  551W        W68945  15.736  14.357   1.252
  552W        W68946  13.215  40.927  14.985
  553W        W68947  34.646  38.858   2.879
  554W        W68948  13.169  15.899  10.180
  555W        W68949  41.828  42.339  11.155
  556W        W68950  37.586  24.600  12.610
  557W        W68951  44.404  28.928   3.499
  558W        W68952   4.484   3.224   2.282
  559W        W68953  44.916  35.368  10.976
  560W        W68954   5.785  40.525  13.922
  561W        W68955  35.314   3.526   0.776
  562W        W68956  23.609  12.373   0.380
  563W        W68957   8.556  36.489   3.218
  564W        W68958   7.384  14.126   3.810
  565W        W68959  32.903  35.201   4.564
  566W        W68960   5.504  31.931   2.357
  567W        W68961  44.003  17.513  13.427
  568W        W68962   4.381  28.410   0.525
  569W        W68963  37.937  36.366   2.804
  570W        W68964  22.110  44.317   3.267
  571W        W68965  21.307  43.266   0.251
  572W        W68966  22.460  39.099  11.612
  573W        W68967  15.789  27.444   1.216
  574W        W68968  21.281  28.390  14.014
  575W        W68969  39.823  33.703   2.243
  576W        W68970  12.774  32.306   0.528
  577W        W68971  30.629  40.777   4.642
  578W        W68972  13.798  32.945   1.392
  579W        W68973  39.889  23.284  14.841
  580W        W68974   6.362  17.666   3.345
  581W        W68975  12.279  32.657   4.176
  582W        W68976  13.416  27.522  13.262
  583W        W68977  44.487  23.225  10.678
  584W        W68978  19.284   6.764   2.300
  585W        W68979  29.670  44.173   4.951
  586W        W68980  21.820  21.527  14.031
  587W        W68981   3.310  35.057   3.167
  588W        W68982  32.779  38.985  13.571
  589W        W68983  17.666   5.219  10.798
  590W        W68984   3.913   2.506  12.356
  591W        W68985  17.109  16.039   3.726
  592W        W68986  28.721  21.165   0.732
  593W        W68987   3.869  37.074  11.264
  594W        W68988  24.450  41.119  11.056
  595W        W68989   7.976  26.484  12.886
  596W        W68990   6.156  31.585   1.181
  597W        W68991  17.689  32.380  13.979
  598W        W68992  23.471   8.713  12.378
  599W        W68993  31.913  11.744  14.588
  600W        W68994  21.287   9.897   0.953
  601W        W68995  23.352  33.647   1.823
  602W        W68996  39.532  25.519   0.235
  603W        W68997   9.211  17.641  14.284
  604W        W68998  14.651   5.625   2.953
  605W        W68999  21.248  44.890  13.633
  606W        W69000   6.495   4.735  13.544
  607W        W69001  24.192  23.851  12.236
  608W        W69002   3.489   9.899  14.887
  609W        W69003   7.320  22.594   3.189
  610W        W69004  23.783   8.376  14.453
  611W        W69005  44.799  41.712  12.596
  612W        W69006   2.790  31.679  14.289
  613W        W69007   4.358  32.760   1.990
  614W        W69008   9.182  10.112  11.944
  615W        W69009  37.579  43.830  10.212
  616W        W69010  11.584   3.854  14.353
  617W        W69011  21.539  19.273   1.197
  618W        W69012  40.866  29.642  12.089
  619W        W69013   0.102  42.377   4.120
  620W        W69014  40.873   7.289  13.998
  621W        W69015  29.710   9.326   4.914
  622W        W69016  37.977  23.230  14.749
  623W        W69017   0.117  43.397  11.237
  624W        W69018  28.634  26.152  12.684
  625W        W69019  30.683  42.276  10.799
  626W        W69020   3.141  39.287  12.912
  627W        W69021  14.782  21.993  13.130
  628W        W69022  44.069  24.503   0.355
  629W        W69023   4.146  15.205   2.455
  630W        W69024  38.905   0.351  14.127
  631W        W69025  25.851  14.230  11.668
  632W        W69026  23.109  40.923   2.178
  633W        W69027  20.113  44.477  13.830
  634W        W69028  27.237  30.125  13.092
  635W        W69029  33.137  28.598   2.774
  636W        W69030   0.950  13.121   4.754
  637W        W69031  21.678   7.925  14.001
  638W        W69032  37.606  26.921   0.315
  639W        W69033  19.606  32.527   4.815
  640W        W69034  19.306  23.556   3.640
  641W        W69035  14.690  13.039  11.230
  642W        W69036  31.450  27.081  13.566
  643W        W69037  39.654  42.983  10.718
  644W        W69038  16.606  38.558  14.453
  645W        W69039  14.314  17.445  11.012
  646W        W69040  28.213  19.087  12.403
  647W        W69041  15.631  15.612   1.897
  648W        W69042  44.396   3.731  13.866
  649W        W69043   2.224  42.255   0.439
  650W        W69044   9.470   2.700  14.510
  651W        W69045   8.111  32.682   3.615
  652W        W69046  30.416  29.057  13.937
  653W        W69047  34.292   3.529  13.683
  654W        W69048  39.859  38.821   3.905
  655W        W69049  24.550  29.596  13.944
  656W        W69050  17.809  18.821  10.265
  657W        W69051  24.165  44.859   4.223
  658W        W69052  39.828  33.337  12.560
  659W        W69053  22.933  12.180  11.539
  660W        W69054  42.247  25.399   4.884
  661W        W69055   8.124   8.345  14.974
  662W        W69056  20.144  16.595  13.695
  663W        W69057  42.372  19.137   4.218
  664W        W69058  43.838  12.905  14.874
  665W        W69059  32.546  22.862  11.526
  666W        W69060  32.651  38.077  12.395
  667W        W69061  34.650  19.733   3.711
  668W        W69062  37.483  24.866  11.907
  669W        W69063  28.085  27.886  10.355
  670W        W69064  25.246  30.676   0.740
  671W        W69065   1.381  27.240   1.327
  672W        W69066  11.816   2.362  13.397
  673W        W69067  36.974  42.315  10.850
  674W        W69068  42.828  35.934  14.452
  675W        W69069  43.226  20.192  11.540
  676W        W69070  27.402   2.029  11.712
  677W        W69071   0.521   9.943  13.786
  678W        W69072  43.526   0.573   1.907
  679W        W69073  28.937  20.859  14.470
  680W        W69074  20.269  22.989  11.068
  681W        W69075   0.764  41.565  11.871
  682W        W69076  30.065   4.937  12.442
  683W        W69077  34.967  43.879   1.261
  684W        W69078   9.363  38.117  12.445
  685W        W69079   1.580  34.175  11.873
  686W        W69080   9.435  25.615   5.333
  687W        W69081  18.000  27.730   4.490
  688W        W69082  12.808  35.171  11.024
  689W        W69083  28.815  21.096  11.041
  690W        W69084  15.976   2.675   2.280
  691W        W69085  10.236  23.429  14.979
  692W        W69086  23.480   1.364   1.283
  693W        W69087  24.440   1.979  10.773
  694W        W69088  20.233  11.442  14.580
  695W        W69089  13.193  21.172   4.103
  696W        W69090  32.899  18.312  14.294
  697W        W69091  21.266  38.964   0.445
  698W        W69092  13.268  12.557  10.619
  699W        W69093  13.774  15.736  14.806
  700W        W69094  18.229  12.097   1.803
  701W        W69095  20.666  31.325  12.482
  702W        W69096   0.678   9.146   3.174
  703W        W69097  28.390  33.541  14.485
  704W        W69098  29.499  41.116   0.293
  705W        W69099  37.113  44.097   3.496
  706W        W69100  22.574  26.091  12.821
  707W        W69101  27.381  41.774   5.028
  708W        W69102   1.173   7.386   3.004
  709W        W69103  24.467  30.071  11.638
  710W        W69104  13.859  37.488   4.592
  711W        W69105  27.935  36.867   0.885
  712W        W69106  14.000  26.677   4.716
  713W        W69107  39.844   6.690   3.110
  714W        W69108  30.041  20.648  11.190
  715W        W69109   0.415  40.371   0.481
  716W        W69110  32.125  16.747  13.247
  717W        W69111  25.972  30.054  11.569
  718W        W69112  14.268   6.667   1.356
  719W        W69113  40.103  31.526  11.312
  720W        W69114  35.373  44.232  14.332
  721W        W69115  20.153  29.125   5.149
  722W        W69116  37.147  43.029  13.416
  723W        W69117  30.165  35.121  14.399
  724W        W69118   6.202  30.568  12.466
  725W        W69119   6.424  15.940  10.282
  726W        W69120  11.660  44.921  10.951
  727W        W69121  34.915  33.353   0.883
  728W        W69122  41.611  29.179  11.661
  729W        W69123  34.896   2.953  11.139
  730W        W69124   3.379  13.703   4.102
  731W        W69125  16.227  22.011   4.852
  732W        W69126  40.248  25.776  11.993
  733W        W69127   9.739  18.810  13.950
  734W        W69128  25.540   9.670   3.256
  735W        W69129  15.766   0.737   4.535
  736W        W69130  13.541  10.800   0.452
  737W        W69131  21.813   8.340  14.940
  738W        W69132  44.026  23.772   4.297
  739W        W69133  28.405  25.484  11.062
  740W        W69134  11.347  24.156  10.759
  741W        W69135  18.087  44.755  13.013
  742W        W69136   5.802  44.710   1.343
  743W        W69137  14.191  28.115  13.265
  744W        W69138  10.769  32.982   1.963
  745W        W69139  17.533  29.972   0.892
  746W        W69140  24.850   7.674  10.534
  747W        W69141  36.885  32.099  11.442
  748W        W69142  24.258  29.464   0.006
  749W        W69143  37.232  42.226  13.462
  750W        W69144   7.286  21.234   4.823
  751W        W69145  14.971  13.166  13.449
  752W        W69146   5.262  14.204   1.765
  753W        W69147  29.642  18.399   4.783
  754W        W69148  17.485  42.875   3.426
  755W        W69149  16.277  30.898   2.760
  756W        W69150  31.115  32.636  14.468
  757W        W69151  19.790   9.392  13.352
  758W        W69152  30.922  12.728   0.273
  759W        W69153   5.137  39.081   0.734
  760W        W69154   6.147  25.982   0.806
  761W        W69155  14.201  44.078  11.126
  762W        W69156  33.461  21.679  13.849
  763W        W69157  29.128  23.760   1.390
  764W        W69158  20.524  15.596   2.423
  765W        W69159  37.585  38.797   2.187
  766W        W69160   5.223  26.684  13.056
  767W        W69161  21.948   2.306  11.808
  768W        W69162  34.049   3.176   4.197
  769W        W69163  42.686  26.962   0.312
  770W        W69164  40.417  32.075   2.909
  771W        W69165  22.725  10.424   0.872
  772W        W69166   1.328  23.925   1.851
  773W        W69167  26.867  33.049  10.912
  774W        W69168  24.681  41.333  14.297
  775W        W69169  27.392  41.652  12.434
  776W        W69170  42.607  40.041   5.135
  777W        W69171  27.023  10.911  13.508
  778W        W69172  18.567   5.307  11.624
  779W        W69173  14.796  12.483   3.139
  780W        W69174  13.390   0.748   1.974
  781W        W69175  14.875   0.980   1.218
  782W        W69176  20.130   0.298   2.103
  783W        W69177  11.853  29.025   4.570
  784W        W69178   5.395  18.104   0.801
  785W        W69179  21.133  40.190  11.009
  786W        W69180   2.946  30.391  11.667
  787W        W69181   8.363  17.349   4.232
  788W        W69182   1.372   3.696   1.809
  789W        W69183  15.589  23.031  11.650
  790W        W69184  44.540  35.523   4.130
  791W        W69185  27.094  16.711   0.881
  792W        W69186  25.105   2.199   0.873
  793W        W69187  14.800   5.389   1.684
  794W        W69188  35.841  34.592   4.536
  795W        W69189  27.521  38.319   0.719
  796W        W69190  17.657  10.417   4.561
  797W        W69191  30.646  36.933  12.424
  798W        W69192  40.902  42.494   1.825
  799W        W69193  30.978   8.271   4.453
  800W        W69194  16.765  14.252  13.473
  801W        W69195  24.894  42.010  12.420
  802W        W69196   9.796  42.578   2.206
  803W        W69197  43.380  17.752   4.133
  804W        W69198  30.688   9.844  11.424
  805W        W69199   7.818   9.669   1.594
  806W        W69200   0.029   0.837   2.374
  807W        W69201  30.382  42.476   0.655
  808W        W69202   1.355  38.520   3.218
  809W        W69203  26.272  38.698   4.075
  810W        W69204  15.542  24.164  12.107
  811W        W69205   5.194   9.222  14.844
  812W        W69206  37.910  28.929  10.759
  813W        W69207   9.372  40.246   0.842
  814W        W69208  32.565  43.705   1.048
  815W        W69209  33.165  28.061   0.693
  816W        W69210  43.083  14.868   4.599
  817W        W69211  20.230  29.632  12.347
  818W        W69212   0.405  37.998   4.211
  819W        W69213   2.255  37.815   1.355
  820W        W69214  42.317   4.219   4.957
  821W        W69215  22.940  40.334  11.246
  822W        W69216  35.753  22.401   3.003
  823W        W69217  19.662   5.112   4.676
  824W        W69218  41.630   1.941  12.519
  825W        W69219  37.656   6.140  13.832
  826W        W69220  42.552   8.666   4.079
  827W        W69221  30.121   5.729  11.525
  828W        W69222  41.751  10.743   4.309
  829W        W69223   1.425   5.787  10.710
  830W        W69224  23.558  15.162  13.994
  831W        W69225   9.971  44.845   2.645
  832W        W69226  15.388  10.159   4.083
  833W        W69227   1.904  22.428  10.940
  834W        W69228  34.010  33.000  14.420
  835W        W69229  13.709   9.084   0.955
  836W        W69230  11.234  12.677  10.619
  837W        W69231  21.424  42.124  14.037
  838W        W69232  37.034  14.673  10.871
  839W        W69233  30.535   3.410   3.278
  840W        W69234  14.473  19.037  12.757
  841W        W69235   7.118   2.314   0.295
  842W        W69236  24.060   5.377   1.594
  843W        W69237  44.071  31.178  11.579
  844W        W69238   2.352  29.016   3.388
  845W        W69239  31.416  28.161  11.535
  846W        W69240  42.789  43.465  13.281
  847W        W69241  16.752   4.670  11.597
  848W        W69242  44.780  36.276   3.586
  849W        W69243  17.389   8.729  11.816
  850W        W69244  12.106  11.744   0.236
  851W        W69245  30.394  14.926   3.341
  852W        W69246   0.442  21.771   1.409
  853W        W69247  14.042   0.167   0.955
  854W        W69248  14.871   4.783   5.468
  855W        W69249  18.893  31.343   4.420
  856W        W69250  16.825  12.240  13.865
  857W        W69251  44.915  31.613  12.920
  858W        W69252  11.702   9.731  14.837
  859W        W69253   6.206  23.151   3.993
  860W        W69254  40.912  34.912   4.075
  861W        W69255  12.612  17.863  12.393
  862W        W69256  41.756   1.043  12.590
  863W        W69257  40.829  23.524  13.842
  864W        W69258  18.715  16.523  11.018
  865W        W69259  38.931  35.919  12.834
  866W        W69260  26.435  34.553  12.077
  867W        W69261  25.375  39.988  11.158
  868W        W69262  22.825  41.033   2.615
  869W        W69263  42.360  36.380   4.169
  870W        W69264   5.724  41.932  10.689
  871W        W69265  33.034  16.345   4.620
  872W        W69266  28.719   4.232  12.650
  873W        W69267  22.484   7.158  12.972
  874W        W69268  17.947   2.919   3.545
  875W        W69269  24.439  20.439   2.858
  876W        W69270  24.458  22.272   3.131
  877W        W69271  13.242   7.947   4.189
  878W        W69272  35.407  36.136   0.927
  879W        W69273  27.545   8.895  12.928
  880W        W69274  39.301   7.224   2.823
  881W        W69275  11.304   4.051  11.166
  882W        W69276  34.608  22.164   4.317
  883W        W69277  40.918  41.491   2.840
  884W        W69278  37.065  28.248   3.188
  885W        W69279  16.135  34.413   0.038
  886W        W69280   1.767  22.062  13.439
  887W        W69281  27.046  13.361  14.053
  888W        W69282  41.657   3.785  11.128
  889W        W69283  30.500  31.143   0.915
  890W        W69284  37.597  25.039   4.835
  891W        W69285  24.576   3.496   3.641
  892W        W69286  25.001   1.981   3.129
  893W        W69287  34.150   2.373   3.894
  894W        W69288  37.955  21.043  11.938
  895W        W69289  24.430  38.430   3.866
  896W        W69290  30.587  39.312   4.694
  897W        W69291  18.683  10.376   0.297
  898W        W69292  35.499  33.617  10.733
  899W        W69293  18.743   8.240  12.089
  900W        W69294  18.224  21.037  10.438
  901W        W69295   6.276  27.622  12.136
  902W        W69296  32.027  30.848  13.536
  903W        W69297  31.732   6.971   2.862
  904W        W69298  44.962  30.982  12.576
  905W        W69299   1.829   7.696   3.521
  906W        W69300  37.960  43.916   1.279
  907W        W69301  40.923  41.401  11.209
  908W        W69302   9.103  30.632  14.403
  909W        W69303  27.247  42.175   5.335
  910W        W69304  26.746  18.236   3.261
  911W        W69305  36.824  41.871   2.066
  912W        W69306  13.597  43.552  14.065
  913W        W69307   6.210  41.111   2.265
  914W        W69308  22.604  15.350   1.650
  915W        W69309  39.904  40.411   0.376
  916W        W69310  17.510  41.222   4.909
  917W        W69311  13.696  32.230   0.667
  918W        W69312  36.526  18.490   3.286
  919W        W69313   6.915  44.494   1.973
  920W        W69314   6.457  40.429   4.100
  921W        W69315  41.831  12.309   1.355
  922W        W69316  36.818  10.987  14.020
  923W        W69317  13.530  31.665  11.156
  924W        W69318  40.311   6.587   4.554
  925W        W69319  36.601  36.029  13.575
  926W        W69320  22.628  31.456  10.223
  927W        W69321  33.921  22.146   3.795
  928W        W69322   5.686  31.526  12.078
  929W        W69323   2.951  32.213  13.009
  930W        W69324   0.291  14.862  12.397
  931W        W69325  13.145  42.073  13.313
  932W        W69326  23.772   6.648   1.725
  933W        W69327   4.670  39.943  12.614
  934W        W69328  29.482  10.852   3.711
  935W        W69329  23.612   4.172  12.901
  936W        W69330   7.419  44.554   3.223
  937W        W69331  42.144   5.806  12.522
  938W        W69332  39.767   3.771   4.056
  939W        W69333  20.944  24.608  14.387
  940W        W69334  32.792  26.287   1.300
  941W        W69335  23.144   6.168   4.314
  942W        W69336  22.953  23.659  11.562
  943W        W69337   1.353  24.961   3.758
  944W        W69338   7.708  37.394  12.393
  945W        W69339  34.518  34.248   1.263
  946W        W69340  44.714  36.167   2.227
  947W        W69341   1.885  20.686  10.633
  948W        W69342  25.342  29.392   4.842
  949W        W69343  25.710   1.412   1.986
  950W        W69344  34.613  37.994   0.810
  951W        W69345  35.253  43.388  12.482
  952W        W69346  26.436  32.527  11.636
  953W        W69347  33.997  23.637   3.279
  954W        W69348   4.450  14.922  12.993
  955W        W69349  31.122  22.295  11.594
  956W        W69350  24.403  16.196   2.354
  957W        W69351  21.206  11.689   3.054
  958W        W69352  12.190  19.536  14.924
  959W        W69353  20.743   5.637  12.487
  960W        W69354   2.852  11.098   3.577
  961W        W69355  22.361  22.053  14.445
  962W        W69356  19.761  10.926  10.682
  963W        W69357  19.007  17.876   1.415
  964W        W69358   0.001   0.762   3.364
  965W        W69359   0.724  30.351   0.121
  966W        W69360   0.990  18.682   2.816
  967W        W69361  38.529  18.249  13.889
  968W        W69362  14.818  12.188   3.592
  969W        W69363  36.297  24.551  12.086
  970W        W69364  21.847  27.210   3.821
  971W        W69365  40.874   0.386   4.353
  972W        W69366   1.496   6.245   2.383
  973W        W69367  37.561  36.630  13.880
  974W        W69368  25.806  30.692   4.615
  975W        W69369  36.645  28.977  11.425
  976W        W69370  30.262  22.725   1.868
  977W        W69371  23.389  31.094  12.542
  978W        W69372  14.064  12.839   3.136
  979W        W69373   9.879  28.953   4.591
  980W        W69374  26.149  10.804   3.648
  981W        W69375  11.181  15.545   2.129
  982W        W69376  33.598  14.779  11.435
  983W        W69377  42.514   7.499   1.760
  984W        W69378  36.850  43.597  14.465
  985W        W69379   5.229  28.653   1.446
  986W        W69380  31.351   6.131  14.912
  987W        W69381  22.155   4.187   2.721
  988W        W69382  19.780  24.668  12.315
  989W        W69383  14.730  32.407   2.798
  990W        W69384  19.338  37.534  11.575
  991W        W69385  34.447  15.864   0.037
  992W        W69386  40.268   4.435   3.761
  993W        W69387  43.011  38.112   0.904
  994W        W69388  34.904  28.301  13.884
  995W        W69389   9.194  14.280   4.748
  996W        W69390  37.461   1.686   3.723
  997W        W69391  14.331  38.576   1.852
  998W        W69392   6.480   1.430   1.011
  999W        W69393  41.371  32.098   0.415
 1000W        W69394   5.318  34.937   4.984
 1001W        W69395  24.952  12.863  12.492
 1002W        W69396  26.606  33.951   4.058
 1003W        W69397  29.168  26.064   4.870
 1004W        W69398   9.209  13.749   2.882
 1005W        W69399  30.471   7.883   0.227
 1006W        W69400  12.280  42.447   2.831
 1007W        W69401  12.776  17.804  13.234
 1008W        W69402  16.770  27.202  11.136
 1009W        W69403   5.403  17.885  11.500
 1010W        W69404  26.745  21.350  10.672
 1011W        W69405  33.948  19.105   0.912
 1012W        W69406   0.472  20.577  14.404
 1013W        W69407  23.044  31.052   4.191
 1014W        W69408  18.734  33.653  10.674
 1015W        W69409   9.947  15.901  11.744
 1016W        W69410   2.807  11.780  12.959
 1017W        W69411  22.002  23.557   1.444
 1018W        W69412  23.962  18.104   0.384
 1019W        W69413  42.934  44.256  11.064
 1020W        W69414   5.805  42.995   3.624
 1021W        W69415  20.272  14.635   2.607
 1022W        W69416  17.329  34.023   2.354
 1023W        W69417  15.764  31.224   4.786
 1024W        W69418   3.214  37.285  11.119
 1025W        W69419  42.711  35.417   2.808
 1026W        W69420  18.583  22.738  10.239
 1027W        W69421  17.979  40.625  10.347
 1028W        W69422  24.216  14.187   2.751
 1029W        W69423  30.496  24.623  13.466
 1030W        W69424  14.285   5.946  12.942
 1031W        W69425  44.597   5.950  14.128
 1032W        W69426   9.145  37.406   0.476
 1033W        W69427  14.719   4.658  12.901
 1034W        W69428  34.609   9.741  13.486
 1035W        W69429  25.034  34.369  13.293
 1036W        W69430   1.784   9.147   1.933
 1037W        W69431  13.680  27.702   2.442
 1038W        W69432  15.179  36.046  14.586
 1039W        W69433   6.892  35.845  12.687
 1040W        W69434   6.664  12.165   1.428
 1041W        W69435   3.217  10.967  14.836
 1042W        W69436   6.245  11.826   0.757
 1043W        W69437  17.192  34.672   3.672
 1044W        W69438   7.326  30.007   0.895
 1045W        W69439  38.520  41.481   4.711
 1046W        W69440  41.739   7.648  10.996
 1047W        W69441   3.428  29.902   0.332
 1048W        W69442   0.759  24.578   1.709
 1049W        W69443  25.203  30.938  10.735
 1050W        W69444  41.545  31.101  11.223
 1051W        W69445  12.387  39.028  11.107
 1052W        W69446  36.309  15.378  14.768
 1053W        W69447  19.657  32.559  12.606
 1054W        W69448  12.670  23.764  10.630
 1055W        W69449   1.264   8.347   1.380
 1056W        W69450  10.593  32.840   2.835
 1057W        W69451   9.700   9.314   0.063
 1058W        W69452  20.321   4.798  10.482
 1059W        W69453  28.540   4.303   0.686
 1060W        W69454  17.109   7.776   2.649
 1061W        W69455  41.822  20.293  12.061
 1062W        W69456  22.199  23.051  11.032
 1063W        W69457  18.538  35.247   4.224
 1064W        W69458  18.265  42.009  14.061
 1065W        W69459   6.658  10.626  13.487
 1066W        W69460  20.508  31.509   0.354
 1067W        W69461  23.469  34.506   0.945
 1068W        W69462  13.678  20.750  13.949
 1069W        W69463  36.030   4.784  13.070
 1070W        W69464  13.121   7.323  12.387
 1071W        W69465  34.933  34.584   3.341
 1072W        W69466  31.711  13.641   3.615
 1073W        W69467  30.064  16.402  10.731
 1074W        W69468  13.432  41.525  14.366
 1075W        W69469   2.444   5.523   1.683
 1076W        W69470  23.659  19.170   2.168
 1077W        W69471  44.002  20.031   2.691
 1078W        W69472  18.938  19.607   0.494
 1079W        W69473  42.045  43.335   1.344
 1080W        W69474  11.455  12.384   2.688
 1081W        W69475  40.595  13.666   0.385
 1082W        W69476   6.306   1.801  13.318
 1083W        W69477  42.897  39.572  11.959
 1084W        W69478  20.986  34.021  12.019
 1085W        W69479   6.483  11.162   1.699
 1086W        W69480  17.776  33.543  14.441
 1087W        W69481   2.381  10.196  14.905
 1088W        W69482   5.183  17.720  11.071
 1089W        W69483  21.657  44.040   2.925
 1090W        W69484  21.455  20.739   0.743
 1091W        W69485  10.630   6.235   1.789
 1092W        W69486  26.983  36.632   2.361
 1093W        W69487  25.161  32.425  10.892
 1094W        W69488  42.860   6.801  11.408
 1095W        W69489  43.933   8.838  14.532
 1096W        W69490  14.370   8.670   2.811
 1097W        W69491  20.644   1.885  11.037
 1098W        W69492   7.456  28.544   2.918
 1099W        W69493  10.395  41.268   4.175
 1100W        W69494  30.449  28.072  14.232
 1101W        W69495   7.110  38.704   3.669
 1102W        W69496   2.034  31.957   3.555
 1103W        W69497  20.687  11.099  13.969
 1104W        W69498  22.658  22.705   1.868
 1105W        W69499  28.450  18.712   2.315
 1106W        W69500  36.428  34.077  10.651
 1107W        W69501  16.339  32.654  14.397
 1108W        W69502  42.298  32.350   3.654
 1109W        W69503   4.379  29.390   0.345
 1110W        W69504  30.650  38.093  12.995
 1111W        W69505  16.920  12.430   0.228
 1112W        W69506  33.621  12.007   0.253
 1113W        W69507  14.233  17.351  14.382
 1114W        W69508  20.637  28.438   3.275
 1115W        W69509  16.458   3.925  11.149
 1116W        W69510  38.005   0.746   2.929
 1117W        W69511  24.662  31.416  11.583
 1118W        W69512   0.965  30.896   3.213
 1119W        W69513  19.151  43.516   2.772
 1120W        W69514   8.255  32.669  11.003
 1121W        W69515   9.817  38.909   4.966
 1122W        W69516   4.293  11.869  13.815
 1123W        W69517   9.319  36.461   2.337
 1124W        W69518  25.199  27.678  12.567
 1125W        W69519   9.834  30.143  11.696
 1126W        W69520  37.312  22.575  10.826
 1127W        W69521  39.328  37.457  14.781
 1128W        W69522  16.242  32.686  10.689
 1129W        W69523  14.233  42.251   2.229
 1130W        W69524  21.556  39.958  14.735
 1131W        W69525  34.023  40.456  11.158
 1132W        W69526   9.069  27.522  12.369
 1133W        W69527  40.050  39.478  12.774
 1134W        W69528  22.682   5.366   0.054
 1135W        W69529   6.405  22.096  11.085
 1136W        W69530  39.049  44.696   3.770
 1137W        W69531  23.028  32.983  10.984
 1138W        W69532  18.993  43.953  10.381
 1139W        W69533  28.441  14.813  11.783
 1140W        W69534  30.074  25.578   0.905
 1141W        W69535  25.693   9.320   0.230
 1142W        W69536  29.177  14.236  13.576
 1143W        W69537   1.446  39.904   3.956
 1144W        W69538   3.766  16.711   4.171
 1145W        W69539  42.475  12.470   0.949
 1146W        W69540  38.939  21.035  13.585
 1147W        W69541   6.877  41.532  11.917
 1148W        W69542   4.204  32.086   4.487
 1149W        W69543  19.631   9.338   0.253
 1150W        W69544  14.011  28.479   4.161
 1151W        W69545  42.899   1.907  14.948
 1152W        W69546   4.835  33.639  12.483
 1153W        W69547  40.263  37.898   4.636
 1154W        W69548   8.702  19.372  12.326
 1155W        W69549  44.759   1.463   4.628
 1156W        W69550  31.822   5.791   1.035
 1157W        W69551  16.982  31.141  12.437
 1158W        W69552  41.498   0.954  13.357
 1159W        W69553  40.509  35.411  11.848
 1160W        W69554  17.230   4.889  13.395
 1161W        W69555  29.449  25.022  12.880
 1162W        W69556  20.765  41.478  12.551
 1163W        W69557  44.659  14.593  13.787
 1164W        W69558  13.573  18.606   0.535
 1165W        W69559  22.525  28.065  10.384
 1166W        W69560  24.530  28.026   1.974
 1167W        W69561  24.027  22.329   0.260
 1168W        W69562  19.518  13.028  14.320
 1169W        W69563  33.138  39.893   1.389
 1170W        W69564  39.848  41.803   0.810
 1171W        W69565  44.811  36.385   4.661
 1172W        W69566  43.753  17.945   4.938
 1173W        W69567  36.708  16.702   3.694
 1174W        W69568   2.055   5.920  13.974
 1175W        W69569   2.656  11.849  12.466
 1176W        W69570  44.774  25.216   1.688
 1177W        W69571  32.014   4.959   1.138
 1178W        W69572  24.042  32.047   4.501
 1179W        W69573  29.993  19.443   4.013
 1180W        W69574  16.828  39.249   1.375
 1181W        W69575  17.568  11.144   4.192
 1182W        W69576  22.515  19.517  11.473
 1183W        W69577  25.491  10.791  13.304
 1184W        W69578  24.059   6.225  13.261
 1185W        W69579  40.149   5.324  12.843
 1186W        W69580  38.401  39.233   2.201
 1187W        W69581  28.486  17.376  11.064
 1188W        W69582   8.598  36.879   4.469
 1189W        W69583  11.725   3.238  11.935
 1190W        W69584   2.815  19.541   0.476
 1191W        W69585  20.804  39.349   4.092
 1192W        W69586  16.296  32.431  14.854
 1193W        W69587  17.272  40.653   4.078
 1194W        W69588  29.501  12.274  10.867
 1195W        W69589  44.201  32.380   2.369
 1196W        W69590  41.716  43.545   2.827
 1197W        W69591  32.904   0.520   1.422
 1198W        W69592   6.465  12.651   4.525
 1199W        W69593  21.059  15.433  12.481
 1200W        W69594   2.403  20.030   0.984
 1201W        W69595   2.702  29.986  12.484
 1202W        W69596  11.375  14.250  14.503
 1203W        W69597  10.454  43.533   5.257
 1204W        W69598   1.626  11.718   0.274
 1205W        W69599  17.255  15.527   4.752
 1206W        W69600  12.372  19.131   2.444
 1207W        W69601  23.363  35.573  11.058
 1208W        W69602  14.405  27.239  10.999
 1209W        W69603  20.160  41.491   4.156
 1210W        W69604  23.461  19.725  11.689
 1211W        W69605   3.525   3.846  11.600
 1212W        W69606  41.059  25.397   1.356
 1213W        W69607  13.554  16.726   0.196
 1214W        W69608   4.563  20.094  14.260
 1215W        W69609   4.620  29.222   5.095
 1216W        W69610  19.741  40.332  12.373
 1217W        W69611  41.030  12.736  14.544
 1218W        W69612  32.364  16.032  12.517
 1219W        W69613  33.997  35.677   2.172
 1220W        W69614   9.020  12.584   0.478
 1221W        W69615  25.370   8.637   4.137
 1222W        W69616   6.238  42.530  14.762
 1223W        W69617  37.785  16.821  12.872
 1224W        W69618  30.397  13.578   4.076
 1225W        W69619  33.493  23.762   0.453
 1226W        W69620  20.078  15.295  11.056
 1227W        W69621  37.879  40.288   4.160
 1228W        W69622  26.025  32.897  11.749
 1229W        W69623  37.970   6.166  12.930
 1230W        W69624  40.085   5.787  11.884
 1231W        W69625  21.025   1.905  10.224
 1232W        W69626   4.113  14.037  11.640
 1233W        W69627  15.017  39.783   1.425
 1234W        W69628   8.162   7.821  12.197
 1235W        W69629  21.708  33.534  11.512
 1236W        W69630   8.896  27.215  10.895
 1237W        W69631  12.354  11.648  13.024
 1238W        W69632  31.202  44.308  10.282
 1239W        W69633  22.760  32.390   4.177
 1240W        W69634  42.405  35.110  11.187
 1241W        W69635   8.819  44.621   5.053
 1242W        W69636  30.230  14.541   4.246
 1243W        W69637  22.998  37.367   3.713
 1244W        W69638   9.516  13.562  13.351
 1245W        W69639  39.865   2.458   3.871
 1246W        W69640  38.476   8.316   0.461
 1247W        W69641  33.493  30.789   3.353
 1248W        W69642  44.828  11.237  12.942
 1249W        W69643  35.471  11.616   0.834
 1250W        W69644   5.302   1.255  14.884
 1251W        W69645  18.097  40.516  13.924
 1252W        W69646  32.509  10.337  12.288
 1253W        W69647  44.945  43.039   1.859
 1254W        W69648  44.754  12.203  13.008
 1255W        W69649   5.670  42.700   4.558
 1256W        W69650   8.337  17.766   1.382
 1257W        W69651  39.108  24.055   4.256
 1258W        W69652  41.600   4.315  14.043
 1259W        W69653  18.804   0.764   2.813
 1260W        W69654  32.586  43.233   0.362
 1261W        W69655  29.846  23.283  13.351
 1262W        W69656  21.441   1.808   1.831
 1263W        W69657   5.877  11.567  10.539
 1264W        W69658  30.667  36.438   2.831
 1265W        W69659   7.166  23.055  13.017
 1266W        W69660   6.932  12.829   2.807
 1267W        W69661  34.586  23.079   4.289
 1268W        W69662  16.650  20.623   0.136
 1269W        W69663  26.558  42.866  11.467
 1270W        W69664  13.118   7.478   2.173
 1271W        W69665   3.852  20.654  13.450
 1272W        W69666  21.183   2.145  13.841
 1273W        W69667  25.516  21.952  14.476
 1274W        W69668  21.837  26.592   9.642
 1275W        W69669  16.188   8.613   4.474
 1276W        W69670  31.916   7.141   4.580
 1277W        W69671   0.228  32.618   4.300
 1278W        W69672  42.929  31.735   4.995
 1279W        W69673   3.209  26.411   2.752
 1280W        W69674  39.539  41.798  14.537
 1281W        W69675  27.591  25.517   4.077
 1282W        W69676  44.437  15.640   2.242
 1283W        W69677   5.226  19.985  11.479
 1284W        W69678  19.823  13.940  10.624
 1285W        W69679   9.821  35.511  12.475
 1286W        W69680   5.186  38.840  13.418
 1287W        W69681  42.054   2.787  13.420
 1288W        W69682   4.550  39.949   0.788
 1289W        W69683   3.392   9.764  12.205
 1290W        W69684  11.283  34.962   0.371
 1291W        W69685  37.162  41.809  12.161
 1292W        W69686  13.654   6.272   3.773
 1293W        W69687  13.434   1.868   4.496
 1294W        W69688  27.400  27.220  14.300
 1295W        W69689  25.573  37.537  14.615
 1296W        W69690   8.266  18.992  13.512
 1297W        W69691  26.575  43.437   0.324
 1298W        W69692  42.799  10.916   1.854
 1299W        W69693  20.678  23.428   1.694
 1300W        W69694  40.354  20.511  14.458
 1301W        W69695  20.250   6.733  11.628
 1302W        W69696   0.888  17.528  14.524
 1303W        W69697   3.638  19.242  10.741
 1304W        W69698  42.680  28.541  13.326
 1305W        W69699  44.002  20.711   0.960
 1306W        W69700  12.254  32.069   0.288
 1307W        W69701  13.250  38.406  11.480
 1308W        W69702   0.596  40.297  13.631
 1309W        W69703  40.483  27.426  10.662
 1310W        W69704  27.396  24.671   2.012
 1311W        W69705  10.647  30.409   4.568
 1312W        W69706  10.664  39.444   3.645
 1313W        W69707  34.526   8.882   0.670
 1314W        W69708  22.513  29.589   3.852
 1315W        W69709  22.334  12.687  14.045
 1316W        W69710  43.330  25.289   5.014
 1317W        W69711  25.647  14.674  11.495
 1318W        W69712  26.981  32.871   0.308
 1319W        W69713  17.736  10.656   4.124
 1320W        W69714   3.862  28.580   3.319
 1321W        W69715  16.260   3.466  12.031
 1322W        W69716  15.747  39.112   3.781
 1323W        W69717   1.981  10.652   0.826
 1324W        W69718  39.036   2.801  14.784
 1325W        W69719  29.878  16.612   3.807
 1326W        W69720  25.789   9.878   1.736
 1327W        W69721  14.267  38.269  14.344
 1328W        W69722  15.517   1.386  10.475
 1329W        W69723  40.396   9.172  11.413
 1330W        W69724  37.229   1.171  11.972
 1331W        W69725  26.086  20.015  10.867
 1332W        W69726   5.147  26.010   4.533
 1333W        W69727  23.723  24.202   1.784
 1334W        W69728   9.387   4.456   1.938
 1335W        W69729  35.818  17.556  12.924
 1336W        W69730  31.326   2.838  11.987
 1337W        W69731  32.865  27.474  13.704
 1338W        W69732  41.002   2.647  11.742
 1339W        W69733   5.417   8.395  13.936
 1340W        W69734  26.207  11.635  12.528
 1341W        W69735  18.846  40.321   4.149
 1342W        W69736  44.649  31.418  14.852
 1343W        W69737  11.840   7.036   0.351
 1344W        W69738  31.571  41.722  13.000
 1345W        W69739  38.139  34.516   1.405
 1346W        W69740  43.759  24.208  13.415
 1347W        W69741  23.239  18.630  10.697
 1348W        W69742  39.739  22.678   1.939
 1349W        W69743  14.176  13.155   4.053
 1350W        W69744  17.558  23.510   3.155
 1351W        W69745  36.423  34.049   0.350
 1352W        W69746  24.817   2.451  11.630
 1353W        W69747  15.169  35.828  10.590
 1354W        W69748  39.073  40.323   3.584
 1355W        W69749  26.342  40.852   1.859
 1356W        W69750  11.831  23.621   0.691
 1357W        W69751  16.682  39.675  11.412
 1358W        W69752   9.811  10.190   2.891
 1359W        W69753  14.834  32.148   1.610
 1360W        W69754  21.427   9.279   1.272
 1361W        W69755  43.485  21.213  10.733
 1362W        W69756  33.577  13.361  13.125
 1363W        W69757  19.134   0.703  13.057
 1364W        W69758   2.261  32.567  12.182
 1365W        W69759  26.001   0.689   0.767
 1366W        W69760  41.023   5.916   3.936
 1367W        W69761  23.476  18.059  10.993
 1368W        W69762   1.308   8.766  13.802
 1369W        W69763  34.288   6.926   3.312
 1370W        W69764  19.703   8.667  11.195
 1371W        W69765   3.587   3.334  14.573
 1372W        W69766  19.204  31.211   2.849
 1373W        W69767  10.855  32.909  14.854
 1374W        W69768  18.084  11.009   4.237
 1375W        W69769  43.405  13.239  13.615
 1376W        W69770   6.754  33.488  14.348
 1377W        W69771   2.880  41.099   3.641
 1378W        W69772  13.530  22.461   2.753
 1379W        W69773  23.141   3.751  14.644
 1380W        W69774  37.845  38.903  12.036
 1381W        W69775   9.374  41.711  14.809
 1382W        W69776  24.919  33.068  14.959
 1383W        W69777  33.947  28.093   3.629
 1384W        W69778  34.352  21.611   1.738
 1385W        W69779  16.727  10.821   0.218
 1386W        W69780  13.693   3.800  11.328
 1387W        W69781  19.833  32.478  13.114
 1388W        W69782  33.162  18.671  11.077
 1389W        W69783  20.766  23.124   0.343
 1390W        W69784  42.237  35.913  10.646
 1391W        W69785   3.279  17.007   3.742
 1392W        W69786  14.333  21.782  14.687
 1393W        W69787   1.362   4.533   3.683
 1394W        W69788  27.152  30.496  11.828
 1395W        W69789  17.609   1.257  12.425
 1396W        W69790  39.445  35.551   3.761
 1397W        W69791   9.879   9.415  11.396
 1398W        W69792   9.204   8.345  10.507
 1399W        W69793  35.163  33.902   1.878
 1400W        W69794  34.437  39.795   3.671
 1401W        W69795  21.686  15.851  13.894
 1402W        W69796  22.631   8.952  14.765
 1403W        W69797  31.589  19.059   2.929
 1404W        W69798  24.686  40.090  12.507
 1405W        W69799  25.471  35.920  13.336
 1406W        W69800  13.104  37.899  13.707
 1407W        W69801  28.822  43.178   0.763
 1408W        W69802  14.042  26.439  13.766
 1409W        W69803  35.822  42.238   3.782
 1410W        W69804   6.404  23.870   1.817
 1411W        W69805  38.534  24.367   3.662
 1412W        W69806   3.406  36.607   3.143
 1413W        W69807   5.453  41.836  11.165
 1414W        W69808   1.423  38.304   4.872
 1415W        W69809  26.605   7.373   1.706
 1416W        W69810  16.899  28.083   1.445
 1417W        W69811  19.644  36.374   1.539
 1418W        W69812  42.993  14.607   5.022
 1419W        W69813  31.462  43.814   1.910
 1420W        W69814   4.292   3.841   2.857
 1421W        W69815  10.361  25.783   4.609
 1422W        W69816  12.198  44.363  13.451
 1423W        W69817  34.653  40.239  13.040
 1424W        W69818  10.910   4.762  12.990
 1425W        W69819  23.764  11.258  12.058
 1426W        W69820  34.180  34.909  14.503
 1427W        W69821  18.621  44.800  14.038
 1428W        W69822  41.561  41.267  10.476
 1429W        W69823  23.062  20.220  12.745
 1430W        W69824  31.515   4.103  14.763
 1431W        W69825  29.455   8.873   0.113
 1432W        W69826  30.341  41.317   1.589
 1433W        W69827  27.927  39.655   3.820
 1434W        W69828  17.308  14.111   3.786
 1435W        W69829   3.012  34.589   0.390
 1436W        W69830  38.431   2.313  14.092
 1437W        W69831   1.663  44.410  12.481
 1438W        W69832  17.355  19.631   0.730
 1439W        W69833  19.524  23.654   1.259
 1440W        W69834   5.470  36.069   4.009
 1441W        W69835  14.584   9.914   0.936
 1442W        W69836  39.066  43.789   2.804
 1443W        W69837   1.503  11.672  11.131
 1444W        W69838  44.057  37.869  12.005
 1445W        W69839   3.875  25.578   4.532
 1446W        W69840  39.481  26.602  13.116
 1447W        W69841  28.672  30.882   4.713
 1448W        W69842  42.494  25.181  13.889
 1449W        W69843  24.473  37.569   4.206
 1450W        W69844  27.501  40.487   3.606
 1451W        W69845  13.444  32.027   1.116
 1452W        W69846  10.509  12.358   1.462
 1453W        W69847  38.130  20.291  14.779
 1454W        W69848  38.742  16.540  13.816
 1455W        W69849  35.035  31.617   0.484
 1456W        W69850  17.211  10.769   4.117
 1457W        W69851  16.853  15.156  13.491
 1458W        W69852  26.178  26.224  12.337
 1459W        W69853  14.329  10.370   1.357
 1460W        W69854  15.907  24.465   3.322
 1461W        W69855  40.453  23.929   3.163
 1462W        W69856  22.772   9.776   1.357
 1463W        W69857   5.911  10.395   0.743
 1464W        W69858  12.121  14.195   4.458
 1465W        W69859   8.839   4.530  12.572
 1466W        W69860  29.591  32.304   1.250
 1467W        W69861  42.444  34.509  12.395
 1468W        W69862  36.887   1.823   0.879
 1469W        W69863  39.658   6.818   4.084
 1470W        W69864  32.087  40.751   0.498
 1471W        W69865  11.088  43.326  12.673
 1472W        W69866  10.054  23.980   3.226
 1473W        W69867  20.392  34.919  14.774
 1474W        W69868   3.027  20.696   0.823
 1475W        W69869   2.196  37.556  12.582
 1476W        W69870   4.047  27.404   1.484
 1477W        W69871  31.531  18.277   4.615
 1478W        W69872  27.695  13.874  12.475
 1479W        W69873  27.669  15.933  14.476
 1480W        W69874  20.502   4.759   3.802
 1481W        W69875  24.602  31.750  14.578
 1482W        W69876  28.599  40.721   0.641
 1483W        W69877  20.328  25.565   4.368
 1484W        W69878  12.613  34.608  14.311
 1485W        W69879  21.316  21.059  10.683
 1486W        W69880  12.086  42.351  12.843
 1487W        W69881  29.472  11.733   4.550
 1488W        W69882  31.218   9.898  13.376
 1489W        W69883  23.299  19.563   0.855
 1490W        W69884   8.999   2.438   1.933
 1491W        W69885  18.370  35.915   0.183
 1492W        W69886  39.184  12.726  11.684
 1493W        W69887  44.698  44.885   3.825
 1494W        W69888  20.094  37.618   3.217
 1495W        W69889   6.147   7.424  14.484
 1496W        W69890  17.222  43.869   1.692
 1497W        W69891  17.588  36.477  11.628
 1498W        W69892   6.462  12.561   2.829
 1499W        W69893   2.143  14.384   4.269
 1500W        W69894  34.988  16.914   0.731
 1501W        W69895  43.065   2.774  14.377
 1502W        W69896  19.123  43.391  11.672
 1503W        W69897  16.815  25.507  14.500
 1504W        W69898  31.997   0.351  11.590
 1505W        W69899  15.885  13.383  13.069
 1506W        W69900  16.126   8.343   1.319
 1507W        W69901   0.097   6.923   4.086
 1508W        W69902  32.215  17.466  11.031
 1509W        W69903  32.924  42.115   2.716
 1510W        W69904  33.586  35.658  12.437
 1511W        W69905  11.117   7.512  10.756
 1512W        W69906  36.127  16.364   2.359
 1513W        W69907  18.563  34.933  11.183
 1514W        W69908   7.940   8.683  12.879
 1515W        W69909  43.469  44.887   0.154
 1516W        W69910  15.264  40.521   0.744
 1517W        W69911  41.848  35.611   2.257
 1518W        W69912   3.262  15.171   0.427
 1519W        W69913  18.243  18.462   4.004
 1520W        W69914   8.463  25.063   0.346
 1521W        W69915  23.706  26.916  12.921
 1522W        W69916  33.414  33.633   4.161
 1523W        W69917  36.514  35.039  14.526
 1524W        W69918   1.306  22.678   2.168
 1525W        W69919  42.459  36.987   3.296
 1526W        W69920  16.502  40.352  14.963
 1527W        W69921   1.813  28.798  10.625
 1528W        W69922  23.956  33.068   3.761
 1529W        W69923  17.539   9.717  13.048
 1530W        W69924  41.744  31.597  14.909
 1531W        W69925  35.899   9.354   2.411
 1532W        W69926  44.751  14.164   3.533
 1533W        W69927   2.472   1.147   0.639
 1534W        W69928  18.579   6.285   1.392
 1535W        W69929  26.536  40.329  11.149
 1536W        W69930  39.961  42.498  14.524
 1537W        W69931  37.301  26.868   3.193
 1538W        W69932  40.446   6.522  12.220
 1539W        W69933  35.422  33.408  13.831
 1540W        W69934  31.888  13.062  14.897
 1541W        W69935  36.107  38.450   0.606
 1542W        W69936  15.467  21.359   2.677
 1543W        W69937  10.427  29.027   0.760
 1544W        W69938  21.565   5.687  13.786
 1545W        W69939  24.013  18.335   2.335
 1546W        W69940  13.196  30.105   3.167
 1547W        W69941  27.012   5.510   0.821
 1548W        W69942   2.770  20.015  14.261
 1549W        W69943   5.480  24.088   1.775
 1550W        W69944  29.635  20.737   2.186
 1551W        W69945  10.714  21.033  11.356
 1552W        W69946  29.119   2.529  14.892
 1553W        W69947  15.973  44.735   3.675
 1554W        W69948  18.189  38.390   2.228
 1555W        W69949   0.645  36.802  13.724
 1556W        W69950  30.972  43.014   1.902
 1557W        W69951   3.233   5.597   5.162
 1558W        W69952  39.304  36.529   4.127
 1559W        W69953  14.866  15.723   3.144
 1560W        W69954  34.437  28.190   3.821
 1561W        W69955  23.125  41.307  11.231
 1562W        W69956   8.891  17.705   0.112
 1563W        W69957  41.617  38.479   4.709
 1564W        W69958  43.916  10.560   3.692
 1565W        W69959  26.461  27.573   2.291
 1566W        W69960   7.797  13.104   2.751
 1567W        W69961  23.465   9.899   4.997
 1568W        W69962  31.949  11.934   4.581
 1569W        W69963  44.473  28.337   4.666
 1570W        W69964  23.015  28.044  11.636
 1571W        W69965  16.607  20.572   9.953
 1572W        W69966  39.884   2.717  10.517
 1573W        W69967  36.088  28.574   2.411
 1574W        W69968   5.746  30.691   2.789
 1575W        W69969  39.046   3.345  12.638
 1576W        W69970  25.102  12.544  13.317
 1577W        W69971  34.808  17.656  11.395
 1578W        W69972  43.808  36.577   3.688
 1579W        W69973  21.145   6.993   3.656
 1580W        W69974  44.714   2.839  13.525
 1581W        W69975   8.163  16.074   2.224
 1582W        W69976   2.636   1.098   1.141
 1583W        W69977  37.783  20.008  12.967
 1584W        W69978   7.268  15.062   3.755
 1585W        W69979  38.046   2.034   1.470
 1586W        W69980  25.753  16.797  11.977
 1587W        W69981  33.930  18.803   4.184
 1588W        W69982  16.086  31.984   2.754
 1589W        W69983  30.468  33.140  12.503
 1590W        W69984  17.064  16.137  11.062
 1591W        W69985  14.973  11.571  14.450
 1592W        W69986  33.388  31.854  12.433
 1593W        W69987   1.242  19.212  12.550
 1594W        W69988  32.774  25.210   2.625
 1595W        W69989  19.805   6.841   2.221
 1596W        W69990   7.203  13.592   1.163
 1597W        W69991  35.039  12.393  14.076
 1598W        W69992  21.714  44.356  14.701
 1599W        W69993  28.604  24.124   2.154
 1600W        W69994  13.679  13.804   0.272
 1601W        W69995   0.945  15.144  11.102
 1602W        W69996  38.456   0.940   0.842
 1603W        W69997  41.048   0.443   0.043
 1604W        W69998  26.000  40.852   3.673
 1605W        W69999  26.192  41.587   0.837
 1606W        W70000  19.249  30.465  12.851
 1607W        W70001   3.676  26.097  12.449
 1608W        W70002   4.881  18.524   2.803
 1609W        W70003  24.463  18.679   3.259
 1610W        W70004  31.908  38.222  13.370
 1611W        W70005  25.291  13.980   4.262
 1612W        W70006   1.276  18.227  13.426
 1613W        W70007  40.705  30.048  14.194
 1614W        W70008   1.231  42.802   1.249
 1615W        W70009  33.899  44.627  12.477
 1616W        W70010  10.540  40.023  12.613
 1617W        W70011  25.172  39.244   3.084
 1618W        W70012  16.772  19.360   3.644
 1619W        W70013  13.677  25.946  11.103
 1620W        W70014  29.041  21.747   1.270
 1621W        W70015  42.543  17.669  12.615
 1622W        W70016   5.548   6.648   0.615
 1623W        W70017   0.299   2.169   1.211
 1624W        W70018  24.279  26.484   4.203
 1625W        W70019  10.771  25.788   4.950
 1626W        W70020  30.924  11.189   2.763
 1627W        W70021  12.659  21.230  10.710
 1628W        W70022   6.066  16.234   0.195
 1629W        W70023  40.838  25.489   2.317
 1630W        W70024  43.988  13.560  13.188
 1631W        W70025   6.426  34.113   3.714
 1632W        W70026   7.975  27.637  14.535
 1633W        W70027  38.038  44.717   4.176
 1634W        W70028  17.109  11.801   3.205
 1635W        W70029  41.776  25.431   0.922
 1636W        W70030  39.254  35.060  11.121
 1637W        W70031  28.041  30.444  13.651
 1638W        W70032   9.287  35.829  11.128
 1639W        W70033   3.385   9.080   1.157
 1640W        W70034  42.363   4.360   3.526
 1641W        W70035  33.634  17.976  14.824
 1642W        W70036  27.595  37.291   1.774
 1643W        W70037  23.233  17.902   4.568
 1644W        W70038  12.243   6.186  12.649
 1645W        W70039  12.951  42.347   4.878
 1646W        W70040  19.927   7.923   1.204
 1647W        W70041  13.645  26.143   2.872
 1648W        W70042  35.780   8.891   4.315
 1649W        W70043  10.132  14.337  13.045
 1650W        W70044  16.738   4.751  12.466
 1651W        W70045  16.501  12.177   1.676
 1652W        W70046   7.099  19.816   4.186
 1653W        W70047   0.784  30.822  10.189
 1654W        W70048   7.694  29.428   1.756
 1655W        W70049   8.702  38.605   3.279
 1656W        W70050  25.084  13.111   2.861
 1657W        W70051  24.709  31.637   1.744
 1658W        W70052  26.696  18.601   1.816
 1659W        W70053  26.467  21.719   4.561
 1660W        W70054  29.711  33.509  14.871
 1661W        W70055  33.634  33.172   4.125
 1662W        W70056  18.964   8.170   0.047
 1663W        W70057  28.464  18.613   1.250
 1664W        W70058  34.977  32.415  10.796
 1665W        W70059  36.509  43.888  14.745
 1666W        W70060  18.268  38.222  13.321
 1667W        W70061  24.451  44.340  10.607
 1668W        W70062  41.948   4.723   4.135
 1669W        W70063  25.996  37.353  13.790
 1670W        W70064   8.922  14.855  11.590
 1671W        W70065  12.121   8.135   2.217
 1672W        W70066  31.640  14.378   3.146
 1673W        W70067   9.751   5.264  10.656
 1674W        W70068  15.202  18.218   2.158
 1675W        W70069  32.368   4.284  12.296
 1676W        W70070  39.539  39.803   1.259
 1677W        W70071   2.227  43.653  10.785
 1678W        W70072   2.164  25.884  12.847
 1679W        W70073  38.339  37.042   1.478
 1680W        W70074   9.678  30.782  14.986
 1681W        W70075   7.280  40.511   1.810
 1682W        W70076  18.713  41.733  12.848
 1683W        W70077  40.590  42.337  13.317
 1684W        W70078  33.666  37.997   1.243
 1685W        W70079   2.364  40.323   2.399
 1686W        W70080  35.064  14.892   1.446
 1687W        W70081  30.032  43.689   3.006
 1688W        W70082  43.505   2.796  10.800
 1689W        W70083  37.975  11.845   2.721
 1690W        W70084  37.348  16.335   2.652
 1691W        W70085  34.065   0.960  14.848
 1692W        W70086  11.764  25.655   4.907
 1693W        W70087  32.488   2.449  13.045
 1694W        W70088  17.519  31.131  11.752
 1695W        W70089  42.932  24.546   1.679
 1696W        W70090  13.390   0.777   4.909
 1697W        W70091  35.565  32.805   2.408
 1698W        W70092  41.745   3.767   2.324
 1699W        W70093  30.260  21.651   3.103
 1700W        W70094  13.402  37.494  12.665
 1701W        W70095  41.621   5.304   4.314
 1702W        W70096  19.454  28.879   9.845
 1703W        W70097  19.006  39.834   2.416
 1704W        W70098   9.841  17.822   1.500
 1705W        W70099  43.968  17.167  10.645
 1706W        W70100  12.845  13.300   3.166
 1707W        W70101  25.872  36.535  12.148
 1708W        W70102  33.485   5.389   0.340
 1709W        W70103  12.973   9.981   5.217
 1710W        W70104  33.779   7.686  11.564
 1711W        W70105  44.996  26.028   4.138
 1712W        W70106  40.467  19.822  10.694
 1713W        W70107  33.901   5.220  12.132
 1714W        W70108  43.301   7.262   3.835
 1715W        W70109  18.204  39.041   0.821
 1716W        W70110  14.953  18.066   1.150
 1717W        W70111  34.075  15.569  11.024
 1718W        W70112  35.730  28.194   0.275
 1719W        W70113   3.545   3.272   0.423
 1720W        W70114  24.759  18.791   4.158
 1721W        W70115  40.601  23.527   1.417
 1722W        W70116  33.515  18.743   2.203
 1723W        W70117  13.793  43.564  14.985
 1724W        W70118   4.815   8.415  12.074
 1725W        W70119  27.946  28.586  12.280
 1726W        W70120  27.383  19.064  13.877
 1727W        W70121  15.189   6.001  12.909
 1728W        W70122  21.969  37.387   0.746
 1729W        W70123  28.411   0.044   4.526
 1730W        W70124  21.520  15.339  14.893
 1731W        W70125  15.364   8.173   4.087
 1732W        W70126  26.710  21.052   1.711
 1733W        W70127  23.774  33.980  11.958
 1734W        W70128  42.358  36.832   3.786
 1735W        W70129  15.101   5.108  13.806
 1736W        W70130  44.336  17.538  14.328
 1737W        W70131  42.486  27.064   3.314
 1738W        W70132  41.605  19.204  12.999
 1739W        W70133  20.479   6.712   3.240
 1740W        W70134  33.903  17.081   2.400
 1741W        W70135  41.055  27.466   2.469
 1742W        W70136   6.187  32.603   0.026
 1743W        W70137   2.884  14.974   5.492
 1744W        W70138  26.056   3.902   1.946
 1745W        W70139   8.359  44.262  11.586
 1746W        W70140   1.918  26.280  14.402
 1747W        W70141  16.208  15.208  11.713
 1748W        W70142   1.706  27.509   1.886
 1749W        W70143  16.522   5.828  14.910
 1750W        W70144  26.691  16.075   4.368
 1751W        W70145  41.019  44.446  14.523
 1752W        W70146  31.223  31.717   3.573
 1753W        W70147  33.561  13.776  14.066
 1754W        W70148  25.934   5.710  11.081
 1755W        W70149  39.372  37.718  12.769
 1756W        W70150  25.262  40.125   1.804
 1757W        W70151  15.373  40.011   2.831
 1758W        W70152   0.075  42.078   0.438
 1759W        W70153   7.356  24.693   3.516
 1760W        W70154  34.150  42.494  11.112
 1761W        W70155  23.648  29.077  12.076
 1762W        W70156  21.807  23.389   3.621
 1763W        W70157   4.495  32.109   1.164
 1764W        W70158  33.135   8.609   2.360
 1765W        W70159  24.705  28.934   0.729
 1766W        W70160  39.497  31.307  13.950
 1767W        W70161  25.941  19.208  11.933
 1768W        W70162  16.040  17.340  14.465
 1769W        W70163  18.941   4.824   2.196
 1770W        W70164  24.075  30.240  12.893
 1771W        W70165  19.982   8.678   3.328
 1772W        W70166  30.160   8.133   1.710
 1773W        W70167  11.152  27.593   3.370
 1774W        W70168  35.391  44.790  14.060
 1775W        W70169  38.920  27.149   4.101
 1776W        W70170  42.978  43.438   0.945
 1777W        W70171  29.517  39.325   4.263
 1778W        W70172   4.966  39.870  14.389
 1779W        W70173   8.350  43.493   4.309
 1780W        W70174  43.120   0.843   0.568
 1781W        W70175  20.982  30.259  12.611
 1782W        W70176  18.045   2.235   1.806
 1783W        W70177  22.586   3.632  13.338
 1784W        W70178   4.524   8.207   1.275
 1785W        W70179  36.655  12.044   1.150
 1786W        W70180  19.240  11.188  13.454
 1787W        W70181  40.104   3.011   2.743
 1788W        W70182  13.565  31.867   2.895
 1789W        W70183  20.784  38.184   0.407
 1790W        W70184  40.008   9.847   0.786
 1791W        W70185  34.250  22.136  11.730
 1792W        W70186  29.010  12.387  14.503
 1793W        W70187   4.202  35.150   2.204
 1794W        W70188  36.932  14.823  12.922
 1795W        W70189  11.137  11.134   1.547
 1796W        W70190  37.449  39.309   0.058
 1797W        W70191  17.336  22.658   2.348
 1798W        W70192   1.320  16.788   0.410
 1799W        W70193  29.387   9.628   0.743
 1800W        W70194  24.994   6.531   1.162
 1801W        W70195   9.374   5.626   0.424
 1802W        W70196  10.028  44.926   1.753
 1803W        W70197  14.711   3.378  10.571
 1804W        W70198   9.761  32.674   4.842
 1805W        W70199   2.513  35.476   1.291
 1806W        W70200  37.868   7.619  11.571
 1807W        W70201   9.772   7.904  11.470
 1808W        W70202  36.407  22.111   0.310
 1809W        W70203  35.005  31.906   2.345
 1810W        W70204  19.453  41.864   2.241
 1811W        W70205   5.415  41.023  11.626
 1812W        W70206  37.721  40.274  11.230
 1813W        W70207  30.023  44.451   4.116
 1814W        W70208  23.993   8.676  10.621
 1815W        W70209  41.956  32.073   4.642
 1816W        W70210  24.160  28.551  11.632
 1817W        W70211   9.914  24.687  13.933
 1818W        W70212  42.597  40.408   4.572
 1819W        W70213  40.655  29.022  11.498
 1820W        W70214  24.630  32.014  12.949
 1821W        W70215  13.461   4.202   3.600
 1822W        W70216  44.444  13.414  12.391
 1823W        W70217   6.128  33.620   2.164
 1824W        W70218  28.517  29.944  12.506
 1825W        W70219   2.805  43.088  12.106
 1826W        W70220  44.875  37.559   3.174
 1827W        W70221  36.005  24.954  11.189
 1828W        W70222  15.032  17.015   0.354
 1829W        W70223  16.112   7.758   0.643
 1830W        W70224   4.166   9.373   0.856
 1831W        W70225  29.863  31.411   1.510
 1832W        W70226  10.149   1.351   1.890
 1833W        W70227   8.304  22.779   2.244
 1834W        W70228  15.236  31.485   4.771
 1835W        W70229  32.818  22.761  14.929
 1836W        W70230  16.063  13.742  13.438
 1837W        W70231  10.242  34.411   0.880
 1838W        W70232  30.110   1.961   0.344
 1839W        W70233  12.813  11.663  14.002
 1840W        W70234  25.515  12.798  13.502
 1841W        W70235   7.230   5.948  12.056
 1842W        W70236  17.433  36.934  14.477
 1843W        W70237  11.154  25.441   3.616
 1844W        W70238  43.768  14.726   2.918
 1845W        W70239   9.116  27.963   5.125
 1846W        W70240   3.240   5.970   4.426
 1847W        W70241   3.782  22.264   2.232
 1848W        W70242  41.568  16.544  11.132
 1849W        W70243  28.461  17.872  11.095
 1850W        W70244  28.996  30.475  11.475
 1851W        W70245  41.806  31.704  12.489
 1852W        W70246  39.379  32.167  11.499
 1853W        W70247  36.377   8.304  11.228
 1854W        W70248  21.673  17.222   0.807
 1855W        W70249  25.682  38.899   1.305
 1856W        W70250  21.194  10.919  13.928
 1857W        W70251  42.997  32.605  14.116
 1858W        W70252  36.035  24.995  13.588
 1859W        W70253  14.323  35.618  11.664
 1860W        W70254  17.417  37.995   1.312
 1861W        W70255   2.442  14.319   1.028
 1862W        W70256  37.413   6.388  12.295
 1863W        W70257  26.482  41.516   1.361
 1864W        W70258  11.330   7.239  11.149
 1865W        W70259  27.464   7.655  13.356
 1866W        W70260   1.666  21.039   2.682
 1867W        W70261  31.229  19.024   1.402
 1868W        W70262  21.535  13.829  13.883
 1869W        W70263  25.050  11.365   1.143
 1870W        W70264  22.038  38.583   0.866
 1871W        W70265  24.677  36.989   3.339
 1872W        W70266  32.875  18.963  13.032
 1873W        W70267   0.709  23.993  13.917
 1874W        W70268  34.568  17.663   0.283
 1875W        W70269  38.486  34.900  10.547
 1876W        W70270  33.643  27.615   4.123
 1877W        W70271   7.618  32.450   1.693
 1878W        W70272   9.619  41.813  10.990
 1879W        W70273  42.670  30.630   4.311
 1880W        W70274  26.137  10.721   2.179
 1881W        W70275   5.726  35.549   3.336
 1882W        W70276  25.834   7.447  11.492
 1883W        W70277  10.825  27.184  14.399
 1884W        W70278  34.819  20.712   2.376
 1885W        W70279  30.137   2.789   1.799
 1886W        W70280  25.204  10.323  12.495
 1887W        W70281  24.493  26.500   4.673
 1888W        W70282  28.401  42.560  10.650
 1889W        W70283  43.282  33.651   4.418
 1890W        W70284  42.363  14.131  14.970
 1891W        W70285  28.162  44.098  11.131
 1892W        W70286  33.096  34.495   2.647
 1893W        W70287  13.298  10.639   0.906
 1894W        W70288   2.979   4.221   2.197
 1895W        W70289  31.315  18.250   4.159
 1896W        W70290  15.855  19.107  14.436
 1897W        W70291  25.590  39.993   0.762
 1898W        W70292   8.381  16.855   4.429
 1899W        W70293   9.246  28.477  11.389
 1900W        W70294   6.402  14.850   1.278
 1901W        W70295  32.939  40.974   4.124
 1902W        W70296  21.712  13.103  11.433
 1903W        W70297  39.809   1.345  14.758
 1904W        W70298  27.699  26.009  12.824
 1905W        W70299   3.466  23.543   1.450
 1906W        W70300   8.266  10.762   0.272
 1907W        W70301  28.089   1.078  13.026
 1908W        W70302   4.431  39.449  11.614
 1909W        W70303  26.968  11.328  11.619
 1910W        W70304  25.633  38.892  14.849
 1911W        W70305  31.494  34.201  10.618
 1912W        W70306  26.938  40.212   4.139
 1913W        W70307   7.425  14.743  12.313
 1914W        W70308  27.525  14.505  14.553
 1915W        W70309  26.588   4.744   0.873
 1916W        W70310  38.986  15.312  10.717
 1917W        W70311  19.800  14.563   1.296
 1918W        W70312  39.822  18.956   0.838
 1919W        W70313  41.995  23.233   2.209
 1920W        W70314  16.594  14.856  12.436
 1921W        W70315   5.048  34.446   2.314
 1922W        W70316  25.009   9.833  12.483
 1923W        W70317   5.853  30.511   1.116
 1924W        W70318  12.599   3.949   2.299
 1925W        W70319   6.797  26.043   5.499
 1926W        W70320  42.068   4.941   2.736
 1927W        W70321  11.425  38.751  11.055
 1928W        W70322  22.641  42.339  14.893
 1929W        W70323  38.395  41.217  10.909
 1930W        W70324  15.004  38.093   1.778
 1931W        W70325  10.479  18.697   3.160
 1932W        W70326  41.484  31.865   0.880
 1933W        W70327   4.747  25.006   5.383
 1934W        W70328   0.515  11.530   1.612
 1935W        W70329  26.194  20.899   0.314
 1936W        W70330   3.048  40.847  11.154
 1937W        W70331  37.500   4.726   0.904
 1938W        W70332  34.942  22.047   2.233
 1939W        W70333  17.661   9.085  10.391
 1940W        W70334  35.250  27.449  14.029
 1941W        W70335   8.617  33.503   3.541
 1942W        W70336  15.040  18.193  11.031
 1943W        W70337   6.883  11.687   0.050
 1944W        W70338  42.388  40.883   4.654
 1945W        W70339  37.049  19.953   1.158
 1946W        W70340  31.664  44.940   3.067
 1947W        W70341  42.982  28.033  12.459
 1948W        W70342   1.002  40.318  11.400
 1949W        W70343  35.039  17.705   1.766
 1950W        W70344  18.655  40.321   0.924
 1951W        W70345   1.399  14.661  10.544
 1952W        W70346  12.063  16.810   2.956
 1953W        W70347  40.480  13.716   3.167
 1954W        W70348  22.395  11.766  14.900
 1955W        W70349  14.852  41.824   3.153
 1956W        W70350   7.738   1.453  13.869
 1957W        W70351   7.380  18.598  12.464
 1958W        W70352  26.588   4.334   2.213
 1959W        W70353   4.474   2.490  13.723
 1960W        W70354  41.533   9.863  14.315
 1961W        W70355  31.491  28.158   2.656
 1962W        W70356  10.316  22.311  11.206
 1963W        W70357   7.493  12.552  12.854
 1964W        W70358  23.191  24.577  12.652
 1965W        W70359   3.567  28.287  12.174
 1966W        W70360   7.638  23.611  11.880
 1967W        W70361  25.909   0.501   1.240
 1968W        W70362  43.511   6.759   3.860
 1969W        W70363  16.188  14.703  14.957
 1970W        W70364  38.036  22.955  14.319
 1971W        W70365  22.469  14.396   0.929
 1972W        W70366  22.407  32.112   1.428
 1973W        W70367  20.621  21.482   3.341
 1974W        W70368  32.033  20.893  10.965
 1975W        W70369  23.603  30.853   2.889
 1976W        W70370  39.476  33.832   0.328
 1977W        W70371  10.261   7.313  13.564
 1978W        W70372   3.529  14.335   1.282
 1979W        W70373  36.104   9.778  14.749
 1980W        W70374   1.689  16.767  11.072
 1981W        W70375  14.675   4.048   0.742
 1982W        W70376  13.301  40.292   4.711
 1983W        W70377  37.368  40.388  10.878
 1984W        W70378  14.192  40.862   2.355
 1985W        W70379  30.356   5.756  10.634
 1986W        W70380  34.783  13.269   0.910
 1987W        W70381  30.689   8.461   1.667
 1988W        W70382  36.606  31.741  11.980
 1989W        W70383  32.195  20.180  13.540
 1990W        W70384  42.043  15.868  12.956
 1991W        W70385  13.809   3.602   0.766
 1992W        W70386  11.214  18.740  14.088
 1993W        W70387  30.575  20.610   4.321
 1994W        W70388   2.217  41.637   0.356
 1995W        W70389  14.987  29.922  13.545
 1996W        W70390  15.553  12.865   3.171
 1997W        W70391  42.457  35.511  13.863
 1998W        W70392  30.414  42.073   3.230
 1999W        W70393   6.587  27.514   3.170
 2000W        W70394   6.823   9.711   3.663
 2001W        W70395   8.318  24.113   0.272
 2002W        W70396  43.315  32.616  14.520
 2003W        W70397  43.802   2.466   4.914
 2004W        W70398  44.441  20.002   1.342
 2005W        W70399  42.820   3.639   3.173
 2006W        W70400  13.506  30.926  11.751
 2007W        W70401  43.867  10.795  12.422
 2008W        W70402  18.659   0.915   5.274
 2009W        W70403  39.290  44.404   3.401
 2010W        W70404  40.891  37.203  14.411
 2011W        W70405   8.845  23.263  14.966
 2012W        W70406  21.140  10.790   1.201
 2013W        W70407  24.765   0.006   1.311
 2014W        W70408  25.195  43.007  14.407
 2015W        W70409  27.454  33.471  10.687
 2016W        W70410  19.278  15.465   0.360
 2017W        W70411  29.489  40.955   2.303
 2018W        W70412  44.757   2.415  13.851
 2019W        W70413  33.021  32.605   4.308
 2020W        W70414   5.675   2.231   1.932
 2021W        W70415  25.740  19.224  13.737
 2022W        W70416   8.824   6.494  14.486
 2023W        W70417  37.154   5.387   1.774
 2024W        W70418  29.188  44.258   3.231
 2025W        W70419  42.004  39.902  13.724
 2026W        W70420  17.521  19.063   1.974
 2027W        W70421   1.046  12.155  14.833
 2028W        W70422  13.697  29.982  12.528
 2029W        W70423  42.702   8.950  12.915
 2030W        W70424  33.069  10.322   2.829
 2031W        W70425  14.229  31.596  10.546
 2032W        W70426   6.382  13.851   1.689
 2033W        W70427  44.713  26.682   0.035
 2034W        W70428  35.084  24.032  13.494
 2035W        W70429   8.977  14.751  10.740
 2036W        W70430  39.294  22.249  12.532
 2037W        W70431   8.350  10.651  14.257
 2038W        W70432  21.286  25.912   9.900
 2039W        W70433  29.795   5.851  13.270
 2040W        W70434  43.499  11.316  12.155
 2041W        W70435  44.582  15.155  12.537
 2042W        W70436  38.767  33.807   1.355
 2043W        W70437   8.323  21.803  12.916
 2044W        W70438   6.389   1.282   0.530
 2045W        W70439  31.662  22.607  14.081
 2046W        W70440  36.708  30.109  12.384
 2047W        W70441  26.602  41.928  11.418
 2048W        W70442  40.057   3.976   3.669
 2049W        W70443   0.950  30.333   0.986
 2050W        W70444  27.894  18.159   5.046
 2051W        W70445  44.401  43.357   0.256
 2052W        W70446  24.697  22.624  10.597
 2053W        W70447  37.490  33.592  11.892
 2054W        W70448   6.224   9.122  11.091
 2055W        W70449  24.921  19.612  12.902
 2056W        W70450   3.729  30.694   2.883
 2057W        W70451   6.946  16.144   0.490
 2058W        W70452  37.608  44.936  13.237
 2059W        W70453  33.104  15.172  13.802
 2060W        W70454  10.103  40.746  13.123
 2061W        W70455  28.120  28.526   1.787
 2062W        W70456  35.353  38.437   3.137
 2063W        W70457  14.532   9.137  14.379
 2064W        W70458   1.907  29.377  13.837
 2065W        W70459  24.067  19.740  10.833
 2066W        W70460  12.895  26.416  12.883
 2067W        W70461  11.282   2.761   4.519
 2068W        W70462  37.070  40.912  13.344
 2069W        W70463  27.672  26.637  13.467
 2070W        W70464   2.063  42.548   3.731
 2071W        W70465   7.212  35.432   0.415
 2072W        W70466  26.704   4.394   2.754
 2073W        W70467  26.789  34.387  14.832
 2074W        W70468  37.909  15.638  12.075
 2075W        W70469  42.037   4.184   0.478
 2076W        W70470   7.323  36.902   4.237
 2077W        W70471   8.891   1.467   1.458
 2078W        W70472   6.401   0.957  10.445
 2079W        W70473  17.726  19.865  13.322
 2080W        W70474  31.876  12.191  14.013
 2081W        W70475  35.820  18.974  13.551
 2082W        W70476   8.576  30.996  12.073
 2083W        W70477  43.445  24.215  12.149
 2084W        W70478   9.507   5.538  10.290
 2085W        W70479  33.124  35.888  12.437
 2086W        W70480  42.588  31.492   0.316
 2087W        W70481   0.058  30.547  11.176
 2088W        W70482   7.130  41.650   0.759
 2089W        W70483  36.182   3.990  14.995
 2090W        W70484  42.464  38.670  10.751
 2091W        W70485  41.479  22.267  12.421
 2092W        W70486   0.480  29.063  12.497
 2093W        W70487   0.419   0.472   4.324
 2094W        W70488  11.399  40.731  10.340
 2095W        W70489   0.682   0.669   5.085
 2096W        W70490   5.258  44.276   1.217
 2097W        W70491  38.150   1.225  11.530
 2098W        W70492   8.310  21.345  10.703
 2099W        W70493  20.980  35.440  13.774
 2100W        W70494   0.917  28.996   3.959
 2101W        W70495  35.595  23.971   0.403
 2102W        W70496   8.472  25.715   2.416
 2103W        W70497  18.195  27.191   2.861
 2104W        W70498  36.008  14.826   1.432
 2105W        W70499  37.418  43.489   3.348
 2106W        W70500  44.420  23.759   3.114
 2107W        W70501   7.763  31.964   3.332
 2108W        W70502  33.645  13.717   3.088
 2109W        W70503  44.152   3.434   3.371
 2110W        W70504  22.970  28.467   0.938
 2111W        W70505  14.202  28.217   1.768
 2112W        W70506  11.334   6.832  11.506
 2113W        W70507  19.720   4.631   3.682
 2114W        W70508   7.736  29.512  12.842
 2115W        W70509  14.042  10.188   1.754
 2116W        W70510   9.978  30.151  12.954
 2117W        W70511  10.292  38.566  12.980
 2118W        W70512  12.294  39.449   3.619
 2119W        W70513  26.222  43.540  12.567
 2120W        W70514   0.738  11.603   0.455
 2121W        W70515  14.778  41.076  11.581
 2122W        W70516  12.595  13.725  14.818
 2123W        W70517  16.792  26.111   3.751
 2124W        W70518   7.365  44.709  13.591
 2125W        W70519  37.417  40.735   3.710
 2126W        W70520   5.403  16.242   2.949
 2127W        W70521  21.978   5.965  13.875
 2128W        W70522  28.673  26.333  13.689
 2129W        W70523   4.474  17.597  10.166
 2130W        W70524  10.151  43.745  14.697
 2131W        W70525  44.452   0.545  12.633
 2132W        W70526  19.557  18.041   3.693
 2133W        W70527  35.165  23.090   5.018
 2134W        W70528  37.344  40.258   3.506
 2135W        W70529   3.740  29.576  12.113
 2136W        W70530   4.849  42.275  14.868
 2137W        W70531  16.661   9.648   1.844
 2138W        W70532  25.623  19.538  14.520
 2139W        W70533   5.717  17.924   3.756
 2140W        W70534   5.725  42.967  11.606
 2141W        W70535   9.230   4.166   0.074
 2142W        W70536  28.153   4.431   3.796
 2143W        W70537   6.809   2.475  13.846
 2144W        W70538  40.127  30.621   1.767
 2145W        W70539  39.817  20.843  13.526
 2146W        W70540  36.245  28.418   0.230
 2147W        W70541  36.163  13.231   2.326
 2148W        W70542  22.234  37.272  10.741
 2149W        W70543  11.198  32.376   4.781
 2150W        W70544  31.500  11.200   2.489
 2151W        W70545   3.509  22.444   3.344
 2152W        W70546  32.169  15.595   0.753
 2153W        W70547  29.643  14.526   1.878
 2154W        W70548  29.609   7.432   2.251
 2155W        W70549  41.118  40.894  11.290
 2156W        W70550  27.250  22.625  14.071
 2157W        W70551  44.846  44.335  12.752
 2158W        W70552   2.887   5.779   4.800
 2159W        W70553   7.665  34.819   4.206
 2160W        W70554  20.171  10.362  11.000
 2161W        W70555  40.970  37.340   4.163
 2162W        W70556  22.217  19.084   0.431
 2163W        W70557  18.123   8.214   1.199
 2164W        W70558  28.674  15.563  10.099
 2165W        W70559  25.236  13.294  13.876
 2166W        W70560  43.963  26.984   2.901
 2167W        W70561  27.216   7.279  12.196
 2168W        W70562  19.827  36.998  13.129
 2169W        W70563  40.312  23.642  12.437
 2170W        W70564   2.106   0.391  12.108
 2171W        W70565  44.733  29.032   4.779
 2172W        W70566  33.377  33.910  10.075
 2173W        W70567  37.821   5.980   4.096
 2174W        W70568  14.224  28.957  13.893
 2175W        W70569   3.465  11.239   0.379
 2176W        W70570  27.118  29.438   4.386
 2177W        W70571  35.406  20.540   0.285
 2178W        W70572   1.791  10.632   2.651
 2179W        W70573   0.278  21.528   1.825
 2180W        W70574   5.593  20.527  12.905
 2181W        W70575  41.843  40.248   0.148
 2182W        W70576  28.514  44.397  14.312
 2183W        W70577  12.700  42.553   1.019
 2184W        W70578  38.528  21.686   1.422
 2185W        W70579  10.710  22.259   4.728
 2186W        W70580  10.866   9.018   3.589
 2187W        W70581  30.541  41.998   0.797
 2188W        W70582  32.432  30.898  11.004
 2189W        W70583  24.574  38.432   0.859
 2190W        W70584  26.763  36.407   1.950
 2191W        W70585   1.686  43.349   1.713
 2192W        W70586  36.299  26.504  10.717
 2193W        W70587  23.532  26.803   3.794
 2194W        W70588  10.134  22.684   3.548
 2195W        W70589   7.005  44.800   2.948
 2196W        W70590  34.576  17.103  12.596
 2197W        W70591  34.521   1.253  14.835
 2198W        W70592  21.913  32.551   2.131
 2199W        W70593   9.716  30.013   4.644
 2200W        W70594  40.451  26.171   3.118
 2201W        W70595  16.349  29.581   4.905
 2202W        W70596   3.761  25.547  10.651
 2203W        W70597   2.326   9.070  13.423
 2204W        W70598  27.796  31.610  10.756
 2205W        W70599  23.628   0.772   0.146
 2206W        W70600  28.148  13.344   1.136
 2207W        W70601  11.925  41.064   3.046
 2208W        W70602   9.595  23.956  10.568
 2209W        W70603  36.148  13.759   2.872
 2210W        W70604  39.288   4.900   3.326
 2211W        W70605  27.548  25.769   3.107
 2212W        W70606  25.182  12.577   0.149
 2213W        W70607  26.891  29.040   3.084
 2214W        W70608  24.123  31.196  13.834
 2215W        W70609  18.049   8.192   3.189
 2216W        W70610  31.675  18.075  11.987
 2217W        W70611  25.920  12.381  11.394
 2218W        W70612  13.310  40.530  12.656
 2219W        W70613  12.971  30.936  11.804
 2220W        W70614  23.125  16.800  12.270
 2221W        W70615   6.369  18.558   3.978
 2222W        W70616  42.736  37.417   3.206
 2223W        W70617   3.758  15.835   4.024
 2224W        W70618  12.828   9.624   1.157
 2225W        W70619  11.921   7.403  14.798
 2226W        W70620  30.075  20.780   4.299
 2227W        W70621  19.219  23.532  14.401
 2228W        W70622  36.121   2.942  13.996
 2229W        W70623   9.742   4.000   4.168
 2230W        W70624  19.147  25.803   1.180
 2231W        W70625  10.223   3.653   4.726
 2232W        W70626  16.219   1.030   3.255
 2233W        W70627  41.009   7.237  12.977
 2234W        W70628  36.269  37.391  14.153
 2235W        W70629  40.451  33.624   4.115
 2236W        W70630  23.539  36.364  11.540
 2237W        W70631  44.790  26.898  12.497
 2238W        W70632  31.438  11.599  11.463
 2239W        W70633   6.838  40.757  11.157
 2240W        W70634  15.386  42.795  14.372
 2241W        W70635  35.490   8.357   1.988
 2242W        W70636  31.763  23.486  14.642
 2243W        W70637  22.942  21.477   4.643
 2244W        W70638  17.901  13.546  11.070
 2245W        W70639  33.410  40.992  11.480
 2246W        W70640  11.078  13.184  14.008
 2247W        W70641   4.829   0.414   3.364
 2248W        W70642  21.266  36.939   3.879
 2249W        W70643  10.566  16.465   4.206
 2250W        W70644  36.455   6.994  10.709
 2251W        W70645  35.455  44.401   0.988
 2252W        W70646  39.314  43.271  12.480
 2253W        W70647  24.517  39.959  14.033
 2254W        W70648  34.392  23.965  13.910
 2255W        W70649  29.999  34.207  12.075
 2256W        W70650  35.323  11.603   4.061
 2257W        W70651  28.429   6.764   3.124
 2258W        W70652  14.270  12.296  12.134
 2259W        W70653  30.088   1.281  10.770
 2260W        W70654  25.853  25.402  13.290
 2261W        W70655  39.892   5.382   3.643
 2262W        W70656  10.692  16.501  14.777
 2263W        W70657  21.118  31.169  12.287
 2264W        W70658  30.884   3.262   3.613
 2265W        W70659   1.982  13.493   2.725
 2266W        W70660   5.297  34.559   1.863
 2267W        W70661  11.824  27.730  14.757
 2268W        W70662  18.775  17.094   3.179
 2269W        W70663   4.784  40.584  11.701
 2270W        W70664  43.092  25.734  11.620
 2271W        W70665  28.442  44.438  11.934
 2272W        W70666  32.022   2.735  13.914
 2273W        W70667  30.520   1.854  11.440
 2274W        W70668  13.914  20.624   2.724
 2275W        W70669  34.523  38.585   1.702
 2276W        W70670  18.835  34.515  10.331
 2277W        W70671  20.806  37.980  11.055
 2278W        W70672  29.347   9.647  10.834
 2279W        W70673  44.972   0.325   3.100
 2280W        W70674  37.113  34.628  13.582
 2281W        W70675  15.682  16.339   4.565
 2282W        W70676  22.559  17.223   4.488
 2283W        W70677   1.915  31.394  13.849
 2284W        W70678  21.103  41.910   3.530
 2285W        W70679  13.757  25.308  13.129
 2286W        W70680  26.621   2.551  13.058
 2287W        W70681  11.677  40.739  11.169
 2288W        W70682  36.071  34.399  11.962
 2289W        W70683  34.382  44.993   0.881
 2290W        W70684  37.460   5.470   2.265
 2291W        W70685  20.194  24.736   0.722
 2292W        W70686  16.152  12.651   0.541
 2293W        W70687  37.870  41.720  11.082
 2294W        W70688  39.861  32.964  10.721
 2295W        W70689  30.974  14.766  13.858
 2296W        W70690  43.034  21.281  11.521
 2297W        W70691   8.154  18.174  12.779
 2298W        W70692   7.934  44.313  11.269
 2299W        W70693  36.461  43.075  10.751
 2300W        W70694  39.113  16.540   2.704
 2301W        W70695  37.894  39.797  11.122
 2302W        W70696  30.890  11.352  14.916
 2303W        W70697  41.819   3.193   3.295
 2304W        W70698   6.323   4.482  14.023
 2305W        W70699   6.308  44.989   4.188
 2306W        W70700  37.908  13.480   2.371
 2307W        W70701  42.380  38.438   1.445
 2308W        W70702  43.408  25.499  14.352
 2309W        W70703  29.566   0.002  10.796
 2310W        W70704  27.631  39.083   4.246
 2311W        W70705  24.650   2.506   3.829
 2312W        W70706   7.250  33.641  12.931
 2313W        W70707   5.912  26.007  12.985
 2314W        W70708  23.235  10.648  11.245
 2315W        W70709  42.946  31.617   3.596
 2316W        W70710  34.491  29.968   3.159
 2317W        W70711  15.471  16.186  13.967
 2318W        W70712  19.068  18.585   2.022
 2319W        W70713   2.740  30.662   2.887
 2320W        W70714  25.493   6.952  14.190
 2321W        W70715  23.240  27.673  12.348
 2322W        W70716  29.934  29.103  11.703
 2323W        W70717  41.961  30.542   4.656
 2324W        W70718  17.156   6.620   3.638
 2325W        W70719  15.613  43.757   2.252
 2326W        W70720  40.081  38.479   3.086
 2327W        W70721  29.374  36.152  11.425
 2328W        W70722  36.454  26.223   2.603
 2329W        W70723  37.438  20.213  13.446
 2330W        W70724   1.332  10.101  13.374
 2331W        W70725   7.318  39.165  12.617
 2332W        W70726  35.372   5.867  13.408
 2333W        W70727  40.730  40.971   0.225
 2334W        W70728   1.988  13.855  13.348
 2335W        W70729  12.217   8.901   4.522
 2336W        W70730  10.425  28.880  11.763
 2337W        W70731  31.916  32.310  11.353
 2338W        W70732   9.708  44.250  13.920
 2339W        W70733  39.884  14.792   3.111
 2340W        W70734  22.686   0.543  13.837
 2341W        W70735  27.405  31.157   3.983
 2342W        W70736  11.394   5.394  11.691
 2343W        W70737  19.055  13.697   0.390
 2344W        W70738  42.992   9.767   3.661
 2345W        W70739  40.928  17.243  11.101
 2346W        W70740   3.728  20.811   2.264
 2347W        W70741  37.056  39.898  12.457
 2348W        W70742   7.176  18.174  14.489
 2349W        W70743  30.917   8.826  12.733
 2350W        W70744  40.276  38.909  13.045
 2351W        W70745  42.333  38.352  11.718
 2352W        W70746  35.970  29.460  14.995
 2353W        W70747  40.858  20.754  11.560
 2354W        W70748  22.762  40.744  11.596
 2355W        W70749  17.233   2.918  11.720
 2356W        W70750  40.923  22.440   2.991
 2357W        W70751  11.674  32.391  14.548
 2358W        W70752   7.912  36.626  13.704
 2359W        W70753  33.071  42.303  13.745
 2360W        W70754  38.679  17.766   2.424
 2361W        W70755  12.024  35.593  13.616
 2362W        W70756  27.564   6.993   1.924
 2363W        W70757  30.370  21.591  11.050
 2364W        W70758  15.870  42.278   1.283
 2365W        W70759  14.325   1.925   3.220
 2366W        W70760  43.916  16.272  12.443
 2367W        W70761  16.386  29.534  13.596
 2368W        W70762  43.976  40.425   1.687
 2369W        W70763  25.410  23.630  11.096
 2370W        W70764   9.478  35.956  13.869
 2371W        W70765  17.306  20.087  10.146
 2372W        W70766  23.732  20.054   2.222
 2373W        W70767  26.904  39.579   3.558
 2374W        W70768  42.825  42.598  13.510
 2375W        W70769   5.906   0.247  14.534
 2376W        W70770  33.213  15.325   4.694
 2377W        W70771  20.222  20.279  14.755
 2378W        W70772  37.554  11.690   2.992
 2379W        W70773  11.644  21.009  10.798
 2380W        W70774  32.357  24.285  12.095
 2381W        W70775  16.490  36.547   3.115
 2382W        W70776  11.353   9.399   4.441
 2383W        W70777  38.916   5.955   2.217
 2384W        W70778  26.532  44.851  11.447
 2385W        W70779  25.261  30.693   4.626
 2386W        W70780  34.864   4.525   2.287
 2387W        W70781  16.308  23.989  13.593
 2388W        W70782   4.238  10.764  13.104
 2389W        W70783   1.244   7.391   1.206
 2390W        W70784  32.404   1.419  12.840
 2391W        W70785  26.569  18.661  10.699
 2392W        W70786  41.413  32.127   3.839
 2393W        W70787  21.745   4.857  10.135
 2394W        W70788  39.286  44.737   0.359
 2395W        W70789   9.554   7.477  11.627
 2396W        W70790  37.406  35.341  11.264
 2397W        W70791  35.928  32.514   3.698
 2398W        W70792  22.200   9.021  11.873
 2399W        W70793  26.470  33.367  10.787
 2400W        W70794   3.712   6.239  14.848
 2401W        W70795  11.657  16.291  11.082
 2402W        W70796  30.479  32.606   2.217
 2403W        W70797  38.904  31.008  12.009
 2404W        W70798  10.161   0.718   5.102
 2405W        W70799   8.183  16.420   3.704
 2406W        W70800  28.528  34.326   0.910
 2407W        W70801  15.660   8.704  10.757
 2408W        W70802  15.989   6.368   0.283
 2409W        W70803   0.784   2.336  13.978
 2410W        W70804  21.969  22.425   3.667
 2411W        W70805  43.478  42.326   1.705
 2412W        W70806  12.342  19.564   1.349
 2413W        W70807  17.107  13.173  11.170
 2414W        W70808   3.594  10.054   1.323
 2415W        W70809  24.208   3.697  11.905
 2416W        W70810  43.501  16.027   4.090
 2417W        W70811  10.072  21.189  13.073
 2418W        W70812  32.625   0.566  10.485
 2419W        W70813  42.773  19.549  10.593
 2420W        W70814  29.921  41.452   2.738
 2421W        W70815  36.847  11.322   0.027
 2422W        W70816  21.748  39.020  13.094
 2423W        W70817  25.019  27.441  13.637
 2424W        W70818  38.236  21.703   0.872
 2425W        W70819  27.401   4.670   3.926
 2426W        W70820  36.234  16.273   1.374
 2427W        W70821  19.905  28.792  10.742
 2428W        W70822  19.180  19.783   2.175
 2429W        W70823  24.618  43.544   3.982
 2430W        W70824  13.195  18.166   1.121
 2431W        W70825  28.237  11.649   1.361
 2432W        W70826  13.588   8.312   0.245
 2433W        W70827  26.148   1.478  11.437
 2434W        W70828  29.482  40.523   3.437
 2435W        W70829  32.802  17.003  14.780
 2436W        W70830  34.924  31.111   4.299
 2437W        W70831  28.002  36.602  11.238
 2438W        W70832   4.702  13.424  11.230
 2439W        W70833   9.145   5.772  12.834
 2440W        W70834   9.747  18.057  11.277
 2441W        W70835  34.294  17.142  13.073
 2442W        W70836  23.052  38.312   0.925
 2443W        W70837   9.262  17.995   4.771
 2444W        W70838  17.338   3.661   1.923
 2445W        W70839   2.758  11.093   2.678
 2446W        W70840  36.459  42.253   1.143
 2447W        W70841   7.403  16.844  11.259
 2448W        W70842  16.756   4.520   5.002
 2449W        W70843  26.510  18.659   4.526
 2450W        W70844  18.054  11.153  14.074
 2451W        W70845  38.049  40.245   2.747
 2452W        W70846  17.039   8.412  10.373
 2453W        W70847  15.107   7.504  12.924
 2454W        W70848  30.104  36.129   2.307
 2455W        W70849  20.632   3.229   4.702
 2456W        W70850  23.134  16.644  12.768
 2457W        W70851  22.497  11.898  10.250
 2458W        W70852  37.799  23.699  12.033
 2459W        W70853  17.274  30.456  10.242
 2460W        W70854  32.354  11.648   3.791
 2461W        W70855  26.088   2.196   0.173
 2462W        W70856  25.537  30.947   3.849
 2463W        W70857   8.850  37.947  12.479
 2464W        W70858   4.129  16.828   0.331
 2465W        W70859  30.203   4.610   5.066
 2466W        W70860  21.735  32.077   4.918
 2467W        W70861  35.404   9.685  14.045
 2468W        W70862   2.981  34.469   2.391
 2469W        W70863   9.948  19.833   3.536
 2470W        W70864  41.527   2.374  11.134
 2471W        W70865  16.565  12.241   2.692
 2472W        W70866  18.337  37.100   3.150
 2473W        W70867  25.901   0.539  12.496
 2474W        W70868   3.936  36.969  13.492
 2475W        W70869  12.705  43.365   4.105
 2476W        W70870  17.682  39.101   0.685
 2477W        W70871   3.520  44.465  13.694
 2478W        W70872  36.869  26.231   0.379
 2479W        W70873  41.083  36.842   4.302
 2480W        W70874   0.701   7.875  13.001
 2481W        W70875  33.546   9.600  10.232
 2482W        W70876   0.795  20.189  10.691
 2483W        W70877  24.585  22.684  14.024
 2484W        W70878   4.650  16.048   4.526
 2485W        W70879  35.518  38.239   4.469
 2486W        W70880  21.036  30.260   2.151
 2487W        W70881  18.732  43.061  14.963
 2488W        W70882  20.987  34.652   0.339
 2489W        W70883  42.723   9.732   2.306
 2490W        W70884  14.852  19.075  14.964
 2491W        W70885  38.082  10.833  14.914
 2492W        W70886  22.315  16.556  11.045
 2493W        W70887  26.155  18.771   2.746
 2494W        W70888  11.092   3.711  14.295
 2495W        W70889  31.397  11.930   4.361
 2496W        W70890  16.284  33.355   3.140
 2497W        W70891  23.853  40.937  12.184
 2498W        W70892   1.720  33.931   2.256
 2499W        W70893  44.329  30.434   0.968
 2500W        W70894  35.974  25.879  11.911
 2501W        W70895  13.136  16.324  14.498
 2502W        W70896  23.614  28.258   3.657
 2503W        W70897  30.398  36.598  14.294
 2504W        W70898  26.648   2.831   0.854
 2505W        W70899  29.505  11.797   2.326
 2506W        W70900   0.302   1.454  13.248
 2507W        W70901  34.279  12.323   1.301
 2508W        W70902   6.165  40.543   4.504
 2509W        W70903  23.221  32.671   2.852
 2510W        W70904  41.432  14.772   4.612
 2511W        W70905  14.773  14.107  12.408
 2512W        W70906  13.827  32.561  11.177
 2513W        W70907   9.864   2.992   1.279
 2514W        W70908  44.910  27.260  13.537
 2515W        W70909   6.439  10.202   4.517
 2516W        W70910  37.542  19.323  11.984
 2517W        W70911  16.282  35.348  14.811
 2518W        W70912  10.701  31.099   1.419
 2519W        W70913  26.569  17.700  14.156
 2520W        W70914   4.630  24.922  12.469
 2521W        W70915  21.201  20.620   1.720
 2522W        W70916  13.683  11.575   0.870
 2523W        W70917  15.378  44.893  14.204
 2524W        W70918   8.539  29.345   4.085
 2525W        W70919  32.185  13.048  12.139
 2526W        W70920  38.974  14.525   2.669
 2527W        W70921   5.806  35.911  14.064
 2528W        W70922  26.436  41.234  13.410
 2529W        W70923   4.775  24.725  10.658
 2530W        W70924   0.149  16.266  12.811
 2531W        W70925   9.844  24.191  10.948
 2532W        W70926  12.288  19.387  13.375
 2533W        W70927  30.102  16.732  11.171
 2534W        W70928  14.331   8.951  12.470
 2535W        W70929  23.596  42.526   3.351
 2536W        W70930  28.144  35.592  14.264
 2537W        W70931  25.389  22.284  11.972
 2538W        W70932  44.136   0.433  14.850
 2539W        W70933  20.527  32.339  12.452
 2540W        W70934  44.952   1.489  13.969
 2541W        W70935   7.216   3.195   0.488
 2542W        W70936  13.246  24.159   3.176
 2543W        W70937  27.015  34.982  13.581
 2544W        W70938  34.404   9.152  14.200
 2545W        W70939  41.753  39.316  11.633
 2546W        W70940  21.870   7.425  12.001
 2547W        W70941  25.094   2.796   2.654
 2548W        W70942  13.052   6.665  14.791
 2549W        W70943  29.954  43.250   2.340
 2550W        W70944   8.454  14.712   2.142
 2551W        W70945  15.242   9.334  12.774
 2552W        W70946  12.948   5.938  13.226
 2553W        W70947   1.847  30.899  12.093
 2554W        W70948  22.634  16.125   4.920
 2555W        W70949   9.963   1.469  14.046
 2556W        W70950  39.741  15.407  12.792
 2557W        W70951   0.970   4.266  12.413
 2558W        W70952  30.563  21.505  11.908
 2559W        W70953  36.405  11.231  12.027
 2560W        W70954  33.996   7.806   4.707
 2561W        W70955   8.755  13.670  14.207
 2562W        W70956  25.555  10.987   0.920
 2563W        W70957   0.933   5.260   0.139
 2564W        W70958  26.373  36.609   0.315
 2565W        W70959   0.439  37.251  10.964
 2566W        W70960  43.762   1.011   1.809
 2567W        W70961  42.850  18.635  12.098
 2568W        W70962   6.815  23.079  10.499
 2569W        W70963  25.187  41.850  12.804
 2570W        W70964  30.690   0.784  12.981
 2571W        W70965   2.979  12.069   0.559
 2572W        W70966   4.159  11.767  10.193
 2573W        W70967  23.188   2.849  13.053
 2574W        W70968  11.689  17.193   4.579
 2575W        W70969   9.043   3.374   4.375
 2576W        W70970  17.486  32.628   2.493
 2577W        W70971   0.926  25.111   3.542
 2578W        W70972   6.114   9.689  12.456
 2579W        W70973  39.483  39.997  14.399
 2580W        W70974  24.207  23.374   4.756
 2581W        W70975   3.596  31.479   4.535
 2582W        W70976   5.819  42.219  11.104
 2583W        W70977  20.459  12.199   1.919
 2584W        W70978  19.701  42.889   1.644
 2585W        W70979   7.569  15.621   1.042
 2586W        W70980   5.087  28.979  14.297
 2587W        W70981  36.430  38.303  13.765
 2588W        W70982   7.455  38.324  13.288
 2589W        W70983  13.126  28.609   3.315
 2590W        W70984  30.091   6.962  12.160
 2591W        W70985  31.422  25.809  10.585
 2592W        W70986  43.722  24.201   3.801
 2593W        W70987  39.041  35.380  11.626
 2594W        W70988  21.599  20.521   5.162
 2595W        W70989   7.272  13.573   1.687
 2596W        W70990  38.587  36.578  13.051
 2597W        W70991  35.047  14.799   3.682
 2598W        W70992  25.786  31.871  11.454
 2599W        W70993  25.463  38.105  13.050
 2600W        W70994  12.090  23.537   4.640
 2601W        W70995  22.036  24.324   4.165
 2602W        W70996  40.793  17.462  13.825
 2603W        W70997   7.350   0.991   3.106
 2604W        W70998  36.623  35.562  14.294
 2605W        W70999  19.539  34.910   4.085
 2606W        W71000  35.120   7.832  11.805
 2607W        W71001  26.676   9.038   0.910
 2608W        W71002   7.626  36.251  13.935
 2609W        W71003  32.580  32.540  10.710
 2610W        W71004  27.939  16.063   0.797
 2611W        W71005  16.083  43.016  13.921
 2612W        W71006   8.651  32.614  10.329
 2613W        W71007  27.957  17.807   0.012
 2614W        W71008  22.713   7.257   4.610
 2615W        W71009   8.143  35.907  12.572
 2616W        W71010  41.254  20.122   2.318
 2617W        W71011   1.175  30.258   5.175
 2618W        W71012  32.591  11.293  13.528
 2619W        W71013  42.589   9.773   0.856
 2620W        W71014   9.845  23.627  13.049
 2621W        W71015  38.120  22.740  14.834
 2622W        W71016  12.118   5.688  13.450
 2623W        W71017  27.961  31.866   2.757
 2624W        W71018   4.229  11.303  13.849
 2625W        W71019   6.019  14.906   2.286
 2626W        W71020   1.299   6.284  10.842
 2627W        W71021   8.741  29.354   0.311
 2628W        W71022   0.865   0.600   1.180
 2629W        W71023   7.195  29.986  13.898
 2630W        W71024  23.952  13.957  11.645
 2631W        W71025  32.688  21.643  11.040
 2632W        W71026  20.991  28.349  12.586
 2633W        W71027  38.859  14.212   3.540
 2634W        W71028  23.767  11.942  11.691
 2635W        W71029  16.211  10.810   4.716
 2636W        W71030  37.787  24.753   2.403
 2637W        W71031  18.439  25.139  14.491
 2638W        W71032  16.750  24.071  14.026
 2639W        W71033  44.674  16.079  12.802
 2640W        W71034  36.474  15.875  14.912
 2641W        W71035  19.203  24.946   2.319
 2642W        W71036  32.705  28.802  13.050
 2643W        W71037  40.895  41.730  14.885
 2644W        W71038  43.620   9.631  12.391
 2645W        W71039   9.692  27.535  13.433
 2646W        W71040   2.755   9.962  10.648
 2647W        W71041   5.665  44.379   4.502
 2648W        W71042  23.626  40.841   4.501
 2649W        W71043  44.865   5.794  13.185
 2650W        W71044  36.473  33.865  11.155
 2651W        W71045  10.929   7.032  14.286
 2652W        W71046  12.690  42.359  10.436
 2653W        W71047  41.343  32.413  10.771
 2654W        W71048   6.742  14.605   5.346
 2655W        W71049  39.751  15.542   1.688
 2656W        W71050  14.130   3.221   0.908
 2657W        W71051  33.892  37.772  13.986
 2658W        W71052  30.158   4.285  11.589
 2659W        W71053  25.139  15.160   2.871
 2660W        W71054  39.788  31.710   3.124
 2661W        W71055  27.127  23.719  11.645
 2662W        W71056  22.045   2.357  11.289
 2663W        W71057  21.028  44.255   0.394
 2664W        W71058  16.700  40.804   3.817
 2665W        W71059   5.608  12.630   3.255
 2666W        W71060  29.933  13.882  14.980
 2667W        W71061  42.670  35.199   0.316
 2668W        W71062  28.108  35.024   1.005
 2669W        W71063  22.563  20.975   4.131
 2670W        W71064  17.287   5.451  10.544
 2671W        W71065  24.890  38.566   3.693
 2672W        W71066  27.660  31.998  14.849
 2673W        W71067  27.765  42.472  12.902
 2674W        W71068  34.163  16.846  14.253
 2675W        W71069   6.766  32.391   3.178
 2676W        W71070  37.102  34.384  13.121
 2677W        W71071  18.268  16.704  11.699
 2678W        W71072  12.285  41.707   3.445
 2679W        W71073  23.991  16.787   0.708
 2680W        W71074  42.102  13.601   0.374
 2681W        W71075  39.560  40.782  14.763
 2682W        W71076   5.477  42.877   1.791
 2683W        W71077  28.246  14.084  11.839
 2684W        W71078  35.489  27.777  14.427
 2685W        W71079   9.387  32.867   0.674
 2686W        W71080  26.016  43.522  14.813
 2687W        W71081  33.952  35.969  12.039
 2688W        W71082  18.037  18.122   1.778
 2689W        W71083  35.396   6.907   5.068
 2690W        W71084  22.850  32.843  14.245
 2691W        W71085  38.031   2.337  13.253
 2692W        W71086   5.278   0.538   3.146
 2693W        W71087  14.643  27.913  13.073
 2694W        W71088  40.993  24.500   3.666
 2695W        W71089  43.086  37.415  13.507
 2696W        W71090  26.530  42.828   2.818
 2697W        W71091  10.912   2.978  12.996
 2698W        W71092   5.465  20.233  11.115
 2699W        W71093   4.046  23.280  11.593
 2700W        W71094  28.669  19.845   4.881
 2701W        W71095  40.509  12.914   4.141
 2702W        W71096  33.938   5.430  13.989
 2703W        W71097   8.892  16.725  11.850
 2704W        W71098  43.604  40.138  13.405
 2705W        W71099  23.973  27.514   3.212
 2706W        W71100  35.073  38.630  10.927
 2707W        W71101  40.283  42.301  14.186
 2708W        W71102  26.984   7.904   1.321
 2709W        W71103  14.061   9.111   2.774
 2710W        W71104   5.839  10.164   3.852
 2711W        W71105  27.925  14.749  10.489
 2712W        W71106  12.297  31.189   3.806
 2713W        W71107  14.839  32.588  11.199
 2714W        W71108  13.751  16.624   2.754
 2715W        W71109  35.166   5.414  13.540
 2716W        W71110   4.221  17.116   0.736
 2717W        W71111  20.280  18.679   2.673
 2718W        W71112  30.536   8.322   3.163
 2719W        W71113  12.952  42.884   4.199
 2720W        W71114  11.809  30.031  12.090
 2721W        W71115  16.846   8.883   3.690
 2722W        W71116  30.985  38.162  13.845
 2723W        W71117  28.895  25.127   1.065
 2724W        W71118  13.222   8.930   4.475
 2725W        W71119  40.462   5.465  12.010
 2726W        W71120  16.518  44.199  12.858
 2727W        W71121  25.937  13.192  14.846
 2728W        W71122  21.918  24.991  12.938
 2729W        W71123  13.166  25.929   2.958
 2730W        W71124  35.915  13.337  13.588
 2731W        W71125  29.779  23.365   2.349
 2732W        W71126  34.776  42.150   4.540
 2733W        W71127  21.959  27.988   4.523
 2734W        W71128  42.989  34.339   9.653
 2735W        W71129   5.742   2.813   4.194
 2736W        W71130  10.232  42.594  12.334
 2737W        W71131  41.193  25.487  11.257
 2738W        W71132  29.530   3.244  11.620
 2739W        W71133  35.791   7.653  12.919
 2740W        W71134  35.589  43.997  11.507
 2741W        W71135   6.324  37.976  11.204
 2742W        W71136  19.136   9.217  13.879
 2743W        W71137  17.719  24.545   3.144
 2744W        W71138  40.943  42.930   2.435
 2745W        W71139  10.588  24.780   2.251
 2746W        W71140  41.366  15.735  12.577
 2747W        W71141  18.729  39.900   1.879
 2748W        W71142   4.447  26.485   9.787
 2749W        W71143   8.873  39.679   3.670
 2750W        W71144  22.234  32.708   3.417
 2751W        W71145  25.724  24.103  13.030
 2752W        W71146  33.024   6.162  10.957
 2753W        W71147  30.977  16.985   1.384
 2754W        W71148  41.649  29.220   1.367
 2755W        W71149  43.354  24.904   2.227
 2756W        W71150  20.337  11.341  11.529
 2757W        W71151  34.926  15.209  11.032
 2758W        W71152  18.215  36.982   0.720
 2759W        W71153  12.523  10.020   3.572
 2760W        W71154  42.217   7.284  12.489
 2761W        W71155  34.672  24.207  12.456
 2762W        W71156  22.316   9.131  10.215
 2763W        W71157   9.648  22.026  11.471
 2764W        W71158  13.876   4.447   3.849
 2765W        W71159  14.792  12.211  11.537
 2766W        W71160  33.776  10.731   1.660
 2767W        W71161  31.828  24.361   0.176
 2768W        W71162  13.503   8.604  13.975
 2769W        W71163  28.864  34.471   2.382
 2770W        W71164  36.921  21.937  12.469
 2771W        W71165  21.057  19.551   1.340
 2772W        W71166  34.124  18.181  11.882
 2773W        W71167  10.926  28.905   0.847
 2774W        W71168  42.814  19.031   0.893
 2775W        W71169  19.962   6.170  12.613
 2776W        W71170  21.182  14.203  12.103
 2777W        W71171  26.015  24.538   3.175
 2778W        W71172   6.243  29.427   1.839
 2779W        W71173  41.396   8.888  13.324
 2780W        W71174  17.183  27.029  12.836
 2781W        W71175  29.087   9.943   1.269
 2782W        W71176   4.618  41.012  13.889
 2783W        W71177  25.510  23.061  14.482
 2784W        W71178  14.150  36.494   4.566
 2785W        W71179  36.429  41.927  11.503
 2786W        W71180  41.593  44.527   5.014
 2787W        W71181  12.394  12.099   4.213
 2788W        W71182  13.427   0.735   2.828
 2789W        W71183  38.346   4.966  12.192
 2790W        W71184  33.060   9.354   3.816
 2791W        W71185   7.256  12.162   3.637
 2792W        W71186  29.506   9.559  12.376
 2793W        W71187  27.181   9.618  12.584
 2794W        W71188  34.959  20.887  14.571
 2795W        W71189  20.136  13.860   2.277
 2796W        W71190  41.638   8.363  10.724
 2797W        W71191  33.006  40.763  12.555
 2798W        W71192   0.791  13.631   3.570
 2799W        W71193   9.794  25.614   1.672
 2800W        W71194  13.317  14.625  10.745
 2801W        W71195  32.009  31.300   4.541
 2802W        W71196  44.235   1.324  12.825
 2803W        W71197  35.598  17.135  14.540
 2804W        W71198  11.334  18.812  12.134
 2805W        W71199  25.160  22.761   2.742
 2806W        W71200  11.240   4.628   0.378
 2807W        W71201   9.873  20.782  11.851
 2808W        W71202  14.744  23.237  11.124
 2809W        W71203  42.875  18.988  11.142
 2810W        W71204  41.487  41.521   2.299
 2811W        W71205  37.964  25.081  12.531
 2812W        W71206  21.034  14.097   1.850
 2813W        W71207   7.570  27.890  10.719
 2814W        W71208  38.328  20.684  14.459
 2815W        W71209  19.842  30.108  10.055
 2816W        W71210  37.400  37.050   0.438
 2817W        W71211  33.421  30.197   9.875
 2818W        W71212  27.846  21.820   2.262
 2819W        W71213  44.162  18.350  13.326
 2820W        W71214  13.237  42.555   0.993
 2821W        W71215  20.786  25.728   3.348
 2822W        W71216   7.692  30.774   2.330
 2823W        W71217  21.618  15.284   3.137
 2824W        W71218  36.863  20.613   0.260
 2825W        W71219  11.044  14.904  13.822
 2826W        W71220  20.196   3.099  14.801
 2827W        W71221   2.311  34.514  12.783
 2828W        W71222  34.557   3.969  11.127
 2829W        W71223  38.030  31.916   4.613
 2830W        W71224  20.640  12.349  14.148
 2831W        W71225  32.369  31.632  13.107
 2832W        W71226   6.164  11.124  14.506
 2833W        W71227  12.451   6.707   2.554
 2834W        W71228  44.015  28.003   0.697
 2835W        W71229   8.737   8.854   0.960
 2836W        W71230  15.391   2.856   0.739
 2837W        W71231  25.692  33.588   2.390
 2838W        W71232  10.565   3.797  11.690
 2839W        W71233  36.446  12.329  11.893
 2840W        W71234   4.809  10.751   4.486
 2841W        W71235  16.341  43.767  13.104
 2842W        W71236  10.228  19.301   3.782
 2843W        W71237  20.341   7.764  12.519
 2844W        W71238  21.663  34.061   0.250
 2845W        W71239  29.043  34.024   2.129
 2846W        W71240   3.843  42.863  11.753
 2847W        W71241  38.554  10.207  12.993
 2848W        W71242  35.611  17.594  11.272
 2849W        W71243  30.698  23.128  13.060
 2850W        W71244  10.612  31.179   5.000
 2851W        W71245  17.745  10.163  13.270
 2852W        W71246  44.027  14.306   2.114
 2853W        W71247  35.949  10.109   1.494
 2854W        W71248  23.495  28.612   0.835
 2855W        W71249  10.933  41.111  12.089
 2856W        W71250  16.260  33.395   4.734
 2857W        W71251  11.750  10.321  12.747
 2858W        W71252  42.858  19.716   2.057
 2859W        W71253   8.161   6.046  12.033
 2860W        W71254  26.769   7.801  12.609
 2861W        W71255  30.044  14.302  11.631
 2862W        W71256  38.288  16.110   4.182
 2863W        W71257  30.139  40.880   1.403
 2864W        W71258  32.161  36.856   0.389
 2865W        W71259  38.880   7.494   3.772
 2866W        W71260  43.739  10.111  14.052
 2867W        W71261  43.025  34.493   4.939
 2868W        W71262  44.531  23.058   0.345
 2869W        W71263  19.555   6.687   4.549
 2870W        W71264  21.112   5.405  11.625
 2871W        W71265  17.192  14.818  10.630
 2872W        W71266  14.638  21.723  14.250
 2873W        W71267  21.188  20.003   0.345
 2874W        W71268   6.339  41.914   0.635
 2875W        W71269   8.482  22.811  11.960
 2876W        W71270  18.092  17.361  10.355
 2877W        W71271  17.400  23.717  14.389
 2878W        W71272  33.812  33.753   1.808
 2879W        W71273  35.984  43.764   3.725
 2880W        W71274  36.541  38.704   0.771
 2881W        W71275   7.017  36.564  14.397
 2882W        W71276  11.428  17.579  11.925
 2883W        W71277  44.782  42.211  14.486
 2884W        W71278  14.097  15.903   4.527
 2885W        W71279  19.106  24.405  11.460
 2886W        W71280   9.963  20.124  13.844
 2887W        W71281   4.882  44.891  12.999
 2888W        W71282  22.059  20.274  12.987
 2889W        W71283  21.497  38.508  14.357
 2890W        W71284  21.973  41.915  11.020
 2891W        W71285  28.173  16.153   1.278
 2892W        W71286  29.462  42.146  14.833
 2893W        W71287  16.582  43.847   0.403
 2894W        W71288  19.321   1.478   1.771
 2895W        W71289  38.333  41.939   2.276
 2896W        W71290  16.275   5.306  11.188
 2897W        W71291  40.902  24.454   2.834
 2898W        W71292   4.812  20.998   4.277
 2899W        W71293  19.563  38.387  11.578
 2900W        W71294   9.775  31.587  10.702
 2901W        W71295   8.803  15.680  10.334
 2902W        W71296  13.384   6.728   2.639
 2903W        W71297  27.499  44.361   0.907
 2904W        W71298  39.039  11.395   4.316
 2905W        W71299  33.494   6.628  13.954
 2906W        W71300  14.098  32.128  12.944
 2907W        W71301   5.953  42.458   2.678
 2908W        W71302   3.452  38.449  14.853
 2909W        W71303  14.083  25.549  11.990
 2910W        W71304  33.925  24.196   4.022
 2911W        W71305  19.103  13.588  13.566
 2912W        W71306  29.872  36.332  12.530
 2913W        W71307  11.250  32.270  13.760
 2914W        W71308  34.014  42.181  14.559
 2915W        W71309   8.828  43.699  14.887
 2916W        W71310  18.038  35.101  13.824
 2917W        W71311  25.625  17.597   2.130
 2918W        W71312   0.932  12.860  10.575
 2919W        W71313  37.931   2.124  10.594
 2920W        W71314  16.766  42.975  14.282
 2921W        W71315  41.124  42.049  12.048
 2922W        W71316  43.899  21.148   1.237
 2923W        W71317   6.885  12.219   0.043
 2924W        W71318  17.606  44.666  13.935
 2925W        W71319  33.096  16.201  10.727
 2926W        W71320   6.203  24.364  11.035
 2927W        W71321   9.731  36.041  14.684
 2928W        W71322  10.037   6.963  11.491
 2929W        W71323   1.201  36.631  14.338
 2930W        W71324   5.342  20.097   4.073
 2931W        W71325  30.014  31.377   4.756
 2932W        W71326  21.617   5.799   4.072
 2933W        W71327  38.362  35.166   2.700
 2934W        W71328  18.966  19.060  11.560
 2935W        W71329  11.802   6.216   2.263
 2936W        W71330  25.416  35.255   1.789
 2937W        W71331  23.036   3.700   1.433
 2938W        W71332  36.425  44.742  14.232
 2939W        W71333   7.449  44.353  13.987
 2940W        W71334  16.976  12.728  13.829
 2941W        W71335  39.495  23.085   3.904
 2942W        W71336  33.408  31.879   4.733
 2943W        W71337  25.092  41.370  12.979
 2944W        W71338   9.760  16.057   2.646
 2945W        W71339  15.488  11.781  13.768
 2946W        W71340  38.858  31.112  13.581
 2947W        W71341  21.766   3.640  12.879
 2948W        W71342  44.198  18.415  12.814
 2949W        W71343  42.928  32.158  12.053
 2950W        W71344   6.675  37.458  12.013
 2951W        W71345  22.602  17.674   0.805
 2952W        W71346  39.701  36.390   9.986
 2953W        W71347  12.756  35.486   3.809
 2954W        W71348  19.567  33.401   4.682
 2955W        W71349  37.534   4.376  14.003
 2956W        W71350  35.554  28.411   0.721
 2957W        W71351  12.231  24.220   1.287
 2958W        W71352   3.326  27.253   3.199
 2959W        W71353  35.135   9.334  13.791
 2960W        W71354  25.922   2.299  10.751
 2961W        W71355  17.109  13.891   0.828
 2962W        W71356  41.925  23.043   0.885
 2963W        W71357  41.313   7.652   2.913
 2964W        W71358  24.661  38.313  11.682
 2965W        W71359  27.520   1.652  12.063
 2966W        W71360  24.559  21.937  12.887
 2967W        W71361  42.125  24.061   4.823
 2968W        W71362  17.019  26.763   0.376
 2969W        W71363  11.928   3.211  13.799
 2970W        W71364  20.947  41.839   1.517
 2971W        W71365  12.778  19.461   2.407
 2972W        W71366  15.085   9.413  10.493
 2973W        W71367  42.442  41.785  13.375
 2974W        W71368  10.270  28.031  10.558
 2975W        W71369  30.102  24.947  12.384
 2976W        W71370  38.888  30.637   3.092
 2977W        W71371  17.842  31.031   3.659
 2978W        W71372  13.223  18.158  11.324
 2979W        W71373  34.431  28.831   4.146
 2980W        W71374  13.928  34.158   4.935
 2981W        W71375  26.177  17.374  13.942
 2982W        W71376   9.383   2.349   1.205
 2983W        W71377  26.121  25.827   2.686
 2984W        W71378  10.258  39.716   0.952
 2985W        W71379  31.478   2.186  11.198
 2986W        W71380  18.177  35.119   3.766
 2987W        W71381   7.363  28.549   1.747
 2988W        W71382  34.349   7.696   1.258
 2989W        W71383  25.685  17.350   1.682
 2990W        W71384  30.909  19.192  12.112
 2991W        W71385  15.803  38.170  12.380
 2992W        W71386  37.642   9.559  13.344
 2993W        W71387  30.882   0.584   9.858
 2994W        W71388  34.944  30.230  12.505
 2995W        W71389   3.362  13.373  12.161
 2996W        W71390  43.335   6.275   0.680
 2997W        W71391  10.304  28.936  11.269
 2998W        W71392   5.206  29.843  12.778
 2999W        W71393  31.792  25.945   5.125
 3000W        W71394  28.752  17.322  13.984
 3001W        W71395   3.263   8.427   0.351
 3002W        W71396   6.430  43.414  11.080
 3003W        W71397  40.169  34.040   3.396
 3004W        W71398  21.697  22.044   3.891
 3005W        W71399  16.062  30.596   3.764
 3006W        W71400  30.057  34.636   0.501
 3007W        W71401  38.468   5.449  10.567
 3008W        W71402  20.596  14.206   0.354
 3009W        W71403   4.663  41.420  12.581
 3010W        W71404   0.061  14.813   4.814
 3011W        W71405   6.664  20.728   2.393
 3012W        W71406  24.490  12.449   9.961
 3013W        W71407  38.035  30.643   0.373
 3014W        W71408   0.219  29.647   4.143
 3015W        W71409  29.996  28.929   2.867
 3016W        W71410   4.230  24.160   1.234
 3017W        W71411  11.881  27.963  11.460
 3018W        W71412  42.808  27.504  10.542
 3019W        W71413  23.013  12.662  12.374
 3020W        W71414  43.803  13.299   3.476
 3021W        W71415  39.905  42.788   3.382
 3022W        W71416  18.636  14.635   4.643
 3023W        W71417  14.801  27.944   2.926
 3024W        W71418  19.513  24.544  14.578
 3025W        W71419  24.214  33.436  12.806
 3026W        W71420  12.086  34.729   3.682
 3027W        W71421  24.450  35.067  14.328
 3028W        W71422  18.586  34.268   2.014
 3029W        W71423  34.031  39.826  14.817
 3030W        W71424  12.345  11.877  14.080
 3031W        W71425  40.546  28.673   0.761
 3032W        W71426  43.587  31.491   0.003
 3033W        W71427  19.548   1.869  12.198
 3034W        W71428  34.945   9.327   1.070
 3035W        W71429  44.374  12.852  14.412
 3036W        W71430   9.159  11.908  12.341
 3037W        W71431  24.275  19.242   1.199
 3038W        W71432  33.036  20.115  11.464
 3039W        W71433  29.391  26.391   2.354
 3040W        W71434  14.362  37.551  12.034
 3041W        W71435  10.963  18.479  11.021
 3042W        W71436  28.105  40.508   1.182
 3043W        W71437   8.506  30.034   4.677
 3044W        W71438  27.628  19.489   4.534
 3045W        W71439  16.340  24.710  10.579
 3046W        W71440  35.766   5.366   2.917
 3047W        W71441  29.249  29.069   3.217
 3048W        W71442  23.295  34.908  12.973
 3049W        W71443  24.859  37.330   0.835
 3050W        W71444  32.320  14.206  12.450
 3051W        W71445   1.130  44.628  13.922
 3052W        W71446   9.381  33.622   0.334
 3053W        W71447   0.048  44.916   2.342
 3054W        W71448   9.797  43.769  10.441
 3055W        W71449  33.619  19.082  12.508
 3056W        W71450  20.151  17.276   1.919
 3057W        W71451  36.449   5.307  11.565
 3058W        W71452  11.832  27.253  14.513
 3059W        W71453  29.298  23.910  13.710
 3060W        W71454  16.596  39.257  12.866
 3061W        W71455  29.451  17.074   1.440
 3062W        W71456  18.190   1.766   2.745
 3063W        W71457  22.264   0.267  12.045
 3064W        W71458   0.330  14.244  14.218
 3065W        W71459   6.397  15.668  14.070
 3066W        W71460  30.890  32.273   1.446
 3067W        W71461  13.587  31.104   3.486
 3068W        W71462  33.574  20.798  10.576
 3069W        W71463  17.337  19.119  12.976
 3070W        W71464  14.584  17.268   2.148
 3071W        W71465   6.294   3.511  13.179
 3072W        W71466  18.371  18.324   1.150
 3073W        W71467  31.886   4.523  12.354
 3074W        W71468  30.102  35.221   1.819
 3075W        W71469  29.593  18.540   0.893
 3076W        W71470   3.930   9.193   1.277
 3077W        W71471  32.945  34.787  10.566
 3078W        W71472   9.973   1.218   5.079
 3079W        W71473  26.305  18.065   2.459
 3080W        W71474   3.682  19.902   2.332
 3081W        W71475   6.632  10.038  10.282
 3082W        W71476  39.483   9.214   4.284
 3083W        W71477  28.489  41.643   4.535
 3084W        W71478  36.013   9.349  10.624
 3085W        W71479   3.362  44.341   4.167
 3086W        W71480  35.422  15.609  11.942
 3087W        W71481   4.492  13.474  14.464
 3088W        W71482   5.035  10.841   2.677
 3089W        W71483  22.315  32.612  12.798
 3090W        W71484  14.674   9.818   5.667
 3091W        W71485  21.787  11.058   2.549
 3092W        W71486   2.090   3.988  14.853
 3093W        W71487  31.341  36.800   1.650
 3094W        W71488  15.831  35.961   2.898
 3095W        W71489   3.797   3.758   3.570
 3096W        W71490  44.005  17.299  12.397
 3097W        W71491   9.249  34.691   0.935
 3098W        W71492  35.094  42.422   1.528
 3099W        W71493  44.078  44.807  10.392
 3100W        W71494   1.815  31.483  10.947
 3101W        W71495  38.386  27.422  12.041
 3102W        W71496  39.531  19.488   1.285
 3103W        W71497   6.879  21.773   0.883
 3104W        W71498  12.346   0.032  11.091
 3105W        W71499   6.420  26.681  10.503
 3106W        W71500  40.501  14.521  11.203
 3107W        W71501   3.253  27.066  10.906
 3108W        W71502  10.763  33.089  10.614
 3109W        W71503  27.039  31.763  11.341
 3110W        W71504  29.320  40.158   0.309
 3111W        W71505  30.031   8.351  13.748
 3112W        W71506  24.244   0.014   1.717
 3113W        W71507  23.901  42.739   0.983
 3114W        W71508  12.890  37.909  10.926
 3115W        W71509  16.587  40.538  13.998
 3116W        W71510  29.498  16.750   0.282
 3117W        W71511   7.361   1.185   2.574
 3118W        W71512  16.980   6.279  13.378
 3119W        W71513  11.838  14.822  13.518
 3120W        W71514  41.802  37.142  12.958
 3121W        W71515  41.734  44.557  10.771
 3122W        W71516  24.756   3.941  11.062
 3123W        W71517  34.103   2.158  11.131
 3124W        W71518  43.776   6.625  11.508
 3125W        W71519   6.210  16.490   3.158
 3126W        W71520  32.575  22.507   2.878
 3127W        W71521  24.410  32.997  14.958
 3128W        W71522  28.616  17.804  12.016
 3129W        W71523  18.983  23.737  12.179
 3130W        W71524   8.726  14.612  14.336
 3131W        W71525  19.669  26.278   3.246
 3132W        W71526   3.218  44.789   4.390
 3133W        W71527  17.191  37.880   4.642
 3134W        W71528  23.209  42.010   0.197
 3135W        W71529  24.747  12.919   1.495
 3136W        W71530  21.957  18.168  13.752
 3137W        W71531  16.385  44.503   3.443
 3138W        W71532  44.233   7.268  12.463
 3139W        W71533  17.363  41.603  12.182
 3140W        W71534   0.845  33.286   3.416
 3141W        W71535  35.107  44.664  14.489
 3142W        W71536  36.352  40.560  13.530
 3143W        W71537  23.076  14.889  13.900
 3144W        W71538   7.384  10.666  12.893
 3145W        W71539  10.100  38.559  12.139
 3146W        W71540  38.028   6.717   2.886
 3147W        W71541  43.987  21.602  13.482
 3148W        W71542  44.311  38.644  11.628
 3149W        W71543  19.613  42.027   3.709
 3150W        W71544   4.218   8.733   3.049
 3151W        W71545  44.405  40.024   4.153
 3152W        W71546  26.617  37.583   2.213
 3153W        W71547  29.426   1.897  13.996
 3154W        W71548  27.460  10.832   3.920
 3155W        W71549  36.505  36.542   2.821
 3156W        W71550  32.407  32.060   2.790
 3157W        W71551   4.941  44.015   0.275
 3158W        W71552  24.526  17.089   4.561
 3159W        W71553   7.573  41.856   1.727
 3160W        W71554   1.737  40.023   1.520
 3161W        W71555  13.316  42.835  14.893
 3162W        W71556  25.260  25.101  12.201
 3163W        W71557  25.285  31.379  13.476
 3164W        W71558  14.545  25.549   4.758
 3165W        W71559  16.178  30.519   0.878
 3166W        W71560  29.273  20.458   0.865
 3167W        W71561   0.589  22.127  11.944
 3168W        W71562  11.829   9.243   4.614
 3169W        W71563  38.368  21.181  14.326
 3170W        W71564  17.263  22.036   3.939
 3171W        W71565   9.380   4.234   1.479
 3172W        W71566  20.938  44.869   1.778
 3173W        W71567  43.337   0.068   4.500
 3174W        W71568   1.174  19.500  11.680
 3175W        W71569  39.451  18.690  10.667
 3176W        W71570  40.862  39.562   4.213
 3177W        W71571   0.542   7.811   4.349
 3178W        W71572   6.351  43.126   0.834
 3179W        W71573  21.666  28.352   1.891
 3180W        W71574   4.265  23.053  13.392
 3181W        W71575  32.940   3.018  14.244
 3182W        W71576  23.695  38.763  13.361
 3183W        W71577  30.685   3.398  13.856
 3184W        W71578   9.806  12.528  13.496
 3185W        W71579  34.052   0.474  12.103
 3186W        W71580   1.940  25.740  12.401
 3187W        W71581  31.073  23.813   3.731
 3188W        W71582  12.845  32.957   1.271
 3189W        W71583  42.661   2.418  11.541
 3190W        W71584  19.637  26.764   1.316
 3191W        W71585   6.828  19.520   1.744
 3192W        W71586  35.608  42.867   2.941
 3193W        W71587  33.084  15.756   0.390
 3194W        W71588   0.078  33.559  12.534
 3195W        W71589  19.895  13.095  13.481
 3196W        W71590  18.838  33.461   3.990
 3197W        W71591  28.545  20.748  11.326
 3198W        W71592   4.481  34.956  12.967
 3199W        W71593  36.710  33.003  11.027
 3200W        W71594  43.456  43.382   2.783
 3201W        W71595   8.925   4.468  10.951
 3202W        W71596  10.842  16.521   2.614
 3203W        W71597   9.682   3.778   4.632
 3204W        W71598   7.687  15.730   1.886
 3205W        W71599  22.982   5.062  11.017
 3206W        W71600   8.671  35.033   5.015
 3207W        W71601   0.833  43.958   3.831
 3208W        W71602  40.418  34.308   1.639
 3209W        W71603  30.325   8.851  11.557
 3210W        W71604  24.790  31.537   4.924
 3211W        W71605  31.458  38.992  12.408
 3212W        W71606  40.978  31.829   5.246
 3213W        W71607  38.697   8.817   0.740
 3214W        W71608  20.609  25.615  10.953
 3215W        W71609  18.170  21.496  10.679
 3216W        W71610  32.432  20.235   0.842
 3217W        W71611  42.808   2.372  12.819
 3218W        W71612  37.036  13.066   2.244
 3219W        W71613   6.815  28.209   1.509
 3220W        W71614   9.803  39.757   3.714
 3221W        W71615  20.638  25.159   4.211
 3222W        W71616  27.740  25.546  13.843
 3223W        W71617  39.531  42.262  14.280
 3224W        W71618   1.978  33.927  11.689
 3225W        W71619  31.978  12.948  10.723
 3226W        W71620  26.624  30.338   1.868
 3227W        W71621  12.687  11.705   4.156
 3228W        W71622  19.446  25.012  12.115
 3229W        W71623  39.568   8.771  12.171
 3230W        W71624  37.925   0.892   4.962
 3231W        W71625   6.985  26.339  12.861
 3232W        W71626  42.289  15.411  12.967
 3233W        W71627  30.190  41.319   3.629
 3234W        W71628  35.127   1.554  12.405
 3235W        W71629   1.430   8.400   3.925
 3236W        W71630  20.026   0.038   4.329
 3237W        W71631  28.380  27.438   1.305
 3238W        W71632  44.357   0.858   0.043
 3239W        W71633  24.475   6.185  12.288
 3240W        W71634   2.518   8.638   2.207
 3241W        W71635  38.232  19.893   1.758
 3242W        W71636   7.020  42.068  13.105
 3243W        W71637  10.432  11.864   4.527
 3244W        W71638  24.015  21.795  11.162
 3245W        W71639  31.279  14.102  13.458
 3246W        W71640  42.023   1.472  14.905
 3247W        W71641  17.801  32.554   4.236
 3248W        W71642  19.729  36.376   1.037
 3249W        W71643  21.475  15.147   2.155
 3250W        W71644  41.844  11.694   4.827
 3251W        W71645   2.513   7.779   1.312
 3252W        W71646  14.536   2.149  11.153
 3253W        W71647  10.506   4.426   1.829
 3254W        W71648  44.055  27.201   4.115
 3255W        W71649  37.552  14.323   2.869
 3256W        W71650  10.106  29.521  10.657
 3257W        W71651   7.705   9.958  11.575
 3258W        W71652  35.999  24.102  13.744
 3259W        W71653   0.294  16.734  14.632
 3260W        W71654   5.243  36.238   2.699
 3261W        W71655  43.753  30.997  11.173
 3262W        W71656   1.816  17.575  14.254
 3263W        W71657  28.584  35.582  13.362
 3264W        W71658  40.126   4.184  13.896
 3265W        W71659  19.754  29.970  13.911
 3266W        W71660   8.532   5.606   5.090
 3267W        W71661  42.052  43.020  13.799
 3268W        W71662  23.615  27.504   4.028
 3269W        W71663  16.314  12.625   1.894
 3270W        W71664  18.712  34.921  13.520
 3271W        W71665  41.306  28.426  13.471
 3272W        W71666   6.305  24.991   1.066
 3273W        W71667  30.917   2.083  11.176
 3274W        W71668  21.191  10.466  12.917
 3275W        W71669  10.172   5.386  12.920
 3276W        W71670  40.820   9.285   1.513
 3277W        W71671  11.832  31.669  11.701
 3278W        W71672  43.403  22.893  12.612
 3279W        W71673  42.294   0.349  11.594
 3280W        W71674  16.814  30.193   1.883
 3281W        W71675  11.190  18.030  11.771
 3282W        W71676   2.767  24.166   2.724
 3283W        W71677  32.209  16.465   3.723
 3284W        W71678  21.827  36.610  12.785
 3285W        W71679  41.388   1.467  10.726
 3286W        W71680  39.192  38.827  10.849
 3287W        W71681  10.733  33.098   1.447
 3288W        W71682   2.978  25.454   4.029
 3289W        W71683  30.030  31.656  13.560
 3290W        W71684  40.094   8.943  12.887
 3291W        W71685  28.583  18.856   3.357
 3292W        W71686  42.285  16.871  11.460
 3293W        W71687  42.345  39.310   4.120
 3294W        W71688  32.100  22.006  11.528
 3295W        W71689   9.583   3.424   1.375
 3296W        W71690  19.910  35.901   5.112
 3297W        W71691  13.718  14.872  10.444
 3298W        W71692  14.824   3.686  10.159
 3299W        W71693  27.302  28.228   3.205
 3300W        W71694  39.342   8.591   0.058
 3301W        W71695   6.467  42.919  12.615
 3302W        W71696  44.261  17.663   0.044
 3303W        W71697  40.259  31.781   3.340
 3304W        W71698  42.010   1.058   1.230
 3305W        W71699   7.305  17.099  12.139
 3306W        W71700  33.787   3.905  10.566
 3307W        W71701  32.912  22.620   4.934
 3308W        W71702  30.698  30.998  14.982
 3309W        W71703  22.553  23.146   3.302
 3310W        W71704  21.421  28.178   3.669
 3311W        W71705  17.410  28.702  13.075
 3312W        W71706  37.496   6.317  12.785
 3313W        W71707  39.449  23.068   1.349
 3314W        W71708  27.368  39.998  11.359
 3315W        W71709  22.188  36.803   0.401
 3316W        W71710   2.541  15.129   1.507
 3317W        W71711   1.113  41.924   3.157
 3318W        W71712   5.412  33.097   1.876
 3319W        W71713  18.490  41.464  14.848
 3320W        W71714  39.944  11.782   3.148
 3321W        W71715  27.478   8.139  10.701
 3322W        W71716   5.913  16.992   4.748
 3323W        W71717  42.409   3.941  11.822
 3324W        W71718   0.975  21.515  11.242
 3325W        W71719   4.726  11.598   2.196
 3326W        W71720  35.436  15.761  12.965
 3327W        W71721  13.399  18.796   1.724
 3328W        W71722  26.561   7.773   0.014
 3329W        W71723  31.342  24.510  11.975
 3330W        W71724  19.281  42.552   4.147
 3331W        W71725  22.326  28.096  13.522
 3332W        W71726  28.628   1.783  12.852
 3333W        W71727  22.559  30.086  12.212
 3334W        W71728   5.115   5.801  14.056
 3335W        W71729  16.348  44.595  12.077
 3336W        W71730  26.653  28.394  14.320
 3337W        W71731   0.301  32.272  13.544
 3338W        W71732  18.778  40.860   0.976
 3339W        W71733   6.982  22.067  12.866
 3340W        W71734  35.907  40.848   0.797
 3341W        W71735  14.773  44.439   4.631
 3342W        W71736  20.418  15.190   3.768
 3343W        W71737  14.116   7.910  14.942
 3344W        W71738  30.602  24.493   1.483
 3345W        W71739  18.548  18.510   1.785
 3346W        W71740   6.767  31.638   2.777
 3347W        W71741  13.580   9.303   4.589
 3348W        W71742  30.067  10.417  12.722
 3349W        W71743  26.148  41.491  10.664
 3350W        W71744   8.614  41.345   0.935
 3351W        W71745  28.972   2.701   0.915
 3352W        W71746  12.346  22.297   4.345
 3353W        W71747  32.104  15.751  11.397
 3354W        W71748  40.022  41.254  11.920
 3355W        W71749  30.647  37.311   2.484
 3356W        W71750  41.204  35.599   2.824
 3357W        W71751   2.213  22.568   0.295
 3358W        W71752   9.498  36.897  12.046
 3359W        W71753  16.827  22.490   3.176
 3360W        W71754  16.558  26.527   0.392
 3361W        W71755  19.228  21.259  13.409
 3362W        W71756  20.490  41.392   4.574
 3363W        W71757   9.053   1.725   2.769
 3364W        W71758  11.340  22.774   4.609
 3365W        W71759  24.472  20.720   3.323
 3366W        W71760  37.065  13.706  11.849
 3367W        W71761  22.757   2.773   2.251
 3368W        W71762  15.296  22.936  14.434
 3369W        W71763   8.764  36.508   1.923
 3370W        W71764  13.150  18.788   1.261
 3371W        W71765  20.234   5.290  12.766
 3372W        W71766  30.920  34.869  14.830
 3373W        W71767  42.299  30.858  12.497
 3374W        W71768  24.277  19.757  11.316
 3375W        W71769  44.257   3.263   1.483
 3376W        W71770  24.076  41.824  13.928
 3377W        W71771  13.410  13.425  14.883
 3378W        W71772  29.997  16.169   4.072
 3379W        W71773  21.191  30.216   1.649
 3380W        W71774  14.580   1.722   3.665
 3381W        W71775  30.473  13.128   1.750
 3382W        W71776  17.694  19.156   1.498
 3383W        W71777  21.498  41.391   4.672
 3384W        W71778  14.398  28.647   2.853
 3385W        W71779  30.557  22.218   0.867
 3386W        W71780  31.499  27.116  11.328
 3387W        W71781  37.790  17.256  10.637
 3388W        W71782  29.143  26.449  11.106
 3389W        W71783  22.500  17.099  11.644
 3390W        W71784  40.011  37.243  11.428
 3391W        W71785  38.185  26.592  10.907
 3392W        W71786  41.336  33.439   0.927
 3393W        W71787  10.717  42.558   3.754
 3394W        W71788  32.852  10.086  14.047
 3395W        W71789  21.185   8.886   2.377
 3396W        W71790  27.674  34.685  14.682
 3397W        W71791  35.374  37.870  11.632
 3398W        W71792  29.140  19.524  12.609
 3399W        W71793   6.365  10.317   2.355
 3400W        W71794  12.892  38.495   0.394
 3401W        W71795   4.473   7.232   2.193
 3402W        W71796  43.795  11.105  11.705
 3403W        W71797  41.472  38.246   0.423
 3404W        W71798   6.255  11.779  13.993
 3405W        W71799  19.754   1.927   0.228
 3406W        W71800   8.398  42.760  10.616
 3407W        W71801  18.713  40.015  14.313
 3408W        W71802  42.848  22.422  12.987
 3409W        W71803  18.238  42.261  11.625
 3410W        W71804  36.651  15.128  12.014
 3411W        W71805  41.328   4.319   2.797
 3412W        W71806  22.493  19.640   3.368
 3413W        W71807   5.933  28.347   4.192
 3414W        W71808   2.398  17.779   0.460
 3415W        W71809  11.838   3.730  13.902
 3416W        W71810  15.192  38.573   0.229
 3417W        W71811   1.398  28.644   4.701
 3418W        W71812  41.955  28.226  12.787
 3419W        W71813  10.902   5.937   2.562
 3420W        W71814  34.845  10.416  10.877
 3421W        W71815  22.055   1.833   4.500
 3422W        W71816  13.604  28.784   3.240
 3423W        W71817  30.739  44.413  11.547
 3424W        W71818  26.017  13.044  13.414
 3425W        W71819  37.016   6.135  12.073
 3426W        W71820  14.212   2.501   0.318
 3427W        W71821  22.110  29.525   0.210
 3428W        W71822  28.162   0.571  13.013
 3429W        W71823  20.198  18.768  14.924
 3430W        W71824  17.032  38.898  14.345
 3431W        W71825  20.113  25.651  14.274
 3432W        W71826  25.370  17.452   4.016
 3433W        W71827  28.753  17.705  12.972
 3434W        W71828  44.790  15.883   4.545
 3435W        W71829  42.931   7.882  13.425
 3436W        W71830  16.655   8.639   0.845
 3437W        W71831  36.160  10.880   2.350
 3438W        W71832  42.865  26.292  11.096
 3439W        W71833   2.675   6.340  13.099
 3440W        W71834  28.399   4.482  13.984
 3441W        W71835  22.996  40.610   2.894
 3442W        W71836   8.900  31.396  12.148
 3443W        W71837  34.469  19.289  14.763
 3444W        W71838  19.760  36.475  13.000
 3445W        W71839   6.845  21.627  13.128
 3446W        W71840  21.641  19.296   2.172
 3447W        W71841  30.827  37.489  10.563
 3448W        W71842   3.396  20.201  12.373
 3449W        W71843  38.070   0.596  10.964
 3450W        W71844   8.145  10.273  10.724
 3451W        W71845  26.463   7.737   1.336
 3452W        W71846  36.599  11.858  12.546
 3453W        W71847  16.740   3.690  14.999
 3454W        W71848  43.002  19.887  12.055
 3455W        W71849  31.410  37.486   0.027
 3456W        W71850  40.542  40.995  14.253
 3457W        W71851  17.201   1.481   1.178
 3458W        W71852  32.014  25.686   0.310
 3459W        W71853  34.969   3.677  14.418
 3460W        W71854  14.935  42.528  14.376
 3461W        W71855  42.601  21.035  13.377
 3462W        W71856   6.604  21.764  10.639
 3463W        W71857  33.040  13.861   1.846
 3464W        W71858   0.345  42.705   0.242
 3465W        W71859  28.656  33.844   3.661
 3466W        W71860  11.867  37.523  14.859
 3467W        W71861   2.862   4.879  13.859
 3468W        W71862  30.886   4.717   2.644
 3469W        W71863  12.079  34.666  14.271
 3470W        W71864   7.232   9.085  12.892
 3471W        W71865   8.769   3.743  12.906
 3472W        W71866   1.411   5.280  10.882
 3473W        W71867   3.729   8.793   2.002
 3474W        W71868  25.386  29.908   2.818
 3475W        W71869   9.578  18.155  13.729
 3476W        W71870  19.674  25.271  12.484
 3477W        W71871  39.434   6.166  13.475
 3478W        W71872   0.881   2.476   0.013
 3479W        W71873  40.252  26.894   2.114
 3480W        W71874  24.566  27.430   2.319
 3481W        W71875  11.274  44.767   3.866
 3482W        W71876   5.282  33.963  11.154
 3483W        W71877   1.521  16.959   0.865
 3484W        W71878  38.025   8.157   2.197
 3485W        W71879  32.049   3.914  12.149
 3486W        W71880  33.314   7.235  13.651
 3487W        W71881  35.546   1.099   1.380
 3488W        W71882  13.104  39.846   4.523
 3489W        W71883  12.734  31.969  12.619
 3490W        W71884  12.545  32.566   4.633
 3491W        W71885  43.778  40.579   4.239
 3492W        W71886  32.962  22.476   0.327
 3493W        W71887  33.046  19.756   0.143
 3494W        W71888  27.489  13.521  13.781
 3495W        W71889  36.898  39.855   3.096
 3496W        W71890  19.036  43.466  13.115
 3497W        W71891  12.939  42.349   1.419
 3498W        W71892  14.060  43.039  10.361
 3499W        W71893  10.241  13.386  13.108
 3500W        W71894  29.384  12.577  10.063
 3501W        W71895  23.360  14.172  14.802
 3502W        W71896  25.302   0.787   4.541
 3503W        W71897   0.000  13.289   2.737
 3504W        W71898  27.901  28.026  11.385
 3505W        W71899  27.495  10.153  10.629
 3506W        W71900  29.053   5.260   2.855
 3507W        W71901  13.803   0.131  12.606
 3508W        W71902  40.740  42.385   0.940
 3509W        W71903  20.542  37.219  12.097
 3510W        W71904  21.770  33.292  10.728
 3511W        W71905  11.999   2.688   0.195
 3512W        W71906  21.312  10.947  11.208
 3513W        W71907  39.443  25.316  11.515
 3514W        W71908  10.211   1.450   2.822
 3515W        W71909   0.236  14.544   2.854
 3516W        W71910  35.875   5.915   0.184
 3517W        W71911  38.470  34.088  10.825
 3518W        W71912   7.130   4.905   2.650
 3519W        W71913   4.720  20.554   0.415
 3520W        W71914  42.821  17.579  14.946
 3521W        W71915  12.597  15.180   3.184
 3522W        W71916  20.727   9.915   2.814
 3523W        W71917  22.465  19.098  11.898
 3524W        W71918  21.186  40.919   0.303
 3525W        W71919   8.425   5.288  11.133
 3526W        W71920  42.445  12.649  13.089
 3527W        W71921  22.142  15.760  12.930
 3528W        W71922  21.257  17.657   0.214
 3529W        W71923  31.136  21.866  13.857
 3530W        W71924  24.016  43.829   1.681
 3531W        W71925  15.809   0.636   5.328
 3532W        W71926  31.873  10.150   2.177
 3533W        W71927  33.076   4.920  14.891
 3534W        W71928  44.393  22.454  13.279
 3535W        W71929  14.224  38.543  13.872
 3536W        W71930  42.069  33.944  11.031
 3537W        W71931  10.706  27.555  13.503
 3538W        W71932  32.627   5.202  14.951
 3539W        W71933  32.890  33.892   4.556
 3540W        W71934   2.274  15.259  11.426
 3541W        W71935  41.852  17.846   4.066
 3542W        W71936   3.276   8.377   2.693
 3543W        W71937  39.971   3.830   0.310
 3544W        W71938   6.553  40.858  13.949
 3545W        W71939  43.691  32.543  13.297
 3546W        W71940  43.206  20.545   4.077
 3547W        W71941   3.016  32.303   0.721
 3548W        W71942  16.113  43.904   4.671
 3549W        W71943  27.932  27.176   2.644
 3550W        W71944   1.387  43.093   3.685
 3551W        W71945  30.871  30.936   1.800
 3552W        W71946  43.386   3.907  14.829
 3553W        W71947   9.399  21.671  14.805
 3554W        W71948  44.474   8.632  14.741
 3555W        W71949   2.395  44.099   2.334
 3556W        W71950  34.278  10.837   1.683
 3557W        W71951   2.007  10.296   4.539
 3558W        W71952  33.483  36.072   2.769
 3559W        W71953   0.175   1.238   2.818
 3560W        W71954  18.729   0.351  13.316
 3561W        W71955  14.454   8.889  14.845
 3562W        W71956   4.161  25.968   2.830
 3563W        W71957   9.799  30.657  14.041
 3564W        W71958   3.229   9.258  12.091
 3565W        W71959  40.808  44.572  11.234
 3566W        W71960  32.946  39.579   4.313
 3567W        W71961  30.620  24.043   3.806
 3568W        W71962  22.077  40.952  12.279
 3569W        W71963  21.749   0.822  14.840
 3570W        W71964  15.773   2.071   1.618
 3571W        W71965  25.091   1.021   4.091
 3572W        W71966  19.720   6.910   0.080
 3573W        W71967   1.023   4.075  13.356
 3574W        W71968  41.945  44.161   1.620
 3575W        W71969  29.384  31.563  14.021
 3576W        W71970   1.360   5.399  12.371
 3577W        W71971  13.526   9.330   3.674
 3578W        W71972  43.500  39.641  14.941
 3579W        W71973  41.922  40.403   1.983
 3580W        W71974  32.076  15.210  11.088
 3581W        W71975   5.901   4.010   3.562
 3582W        W71976  27.743  32.641   2.066
 3583W        W71977  25.662   2.777  13.863
 3584W        W71978  41.305  20.514  14.349
 3585W        W71979  34.253  43.374  12.556
 3586W        W71980  17.592  22.681  13.488
 3587W        W71981  41.581  16.679   0.216
 3588W        W71982  41.524  12.102   0.231
 3589W        W71983  37.922  30.942   3.927
 3590W        W71984  30.226   1.482  13.836
 3591W        W71985  14.652  12.334  14.920
 3592W        W71986   0.321  28.973   2.101
 3593W        W71987  35.900   8.120  13.701
 3594W        W71988  39.005  40.306   2.691
 3595W        W71989   9.774  10.929  12.158
 3596W        W71990  28.314   7.720  12.442
 3597W        W71991  10.201  29.638  12.036
 3598W        W71992  33.558  10.428  13.032
 3599W        W71993  22.081  21.747   4.152
 3600W        W71994  13.321   3.872   1.773
 3601W        W71995  10.761  44.661   1.359
 3602W        W71996  12.224  21.671  14.645
 3603W        W71997  12.123  35.435  13.138
 3604W        W71998  24.728  22.002   2.768
 3605W        W71999   7.726  10.491   4.191
 3606W        W72000  37.379   8.438  14.558
 3607W        W72001  32.258  39.009  11.664
 3608W        W72002   3.480  32.882  12.990
 3609W        W72003  10.441  16.199  13.782
 3610W        W72004  20.485  11.868  12.011
 3611W        W72005  10.604  44.858  11.861
 3612W        W72006   5.186  41.022   2.126
 3613W        W72007  10.614  10.405   1.845
 3614W        W72008   2.263  42.908   2.419
 3615W        W72009  39.425  35.155   4.084
 3616W        W72010   0.235  39.691  11.452
 3617W        W72011  44.416  10.572   0.813
 3618W        W72012  40.781   7.340  10.769
 3619W        W72013  30.545  19.257   2.436
 3620W        W72014   6.914  17.705   2.092
 3621W        W72015  26.041  17.327  10.981
 3622W        W72016  44.817  35.394   3.707
 3623W        W72017  37.281  26.466   2.258
 3624W        W72018  21.113  43.963   2.834
 3625W        W72019  16.150  28.093   0.190
 3626W        W72020  42.471  14.101   0.845
 3627W        W72021   1.997  31.809   1.198
 3628W        W72022  16.847  22.548   1.477
 3629W        W72023   8.776  32.845   0.364
 3630W        W72024  38.530  28.594  14.437
 3631W        W72025  20.164  25.753  11.606
 3632W        W72026  10.436  31.008   2.692
 3633W        W72027  11.478   7.884   0.515
 3634W        W72028  38.771   3.378   2.873
 3635W        W72029  38.564  14.754  14.679
 3636W        W72030  34.321  25.874   0.373
 3637W        W72031  23.233   5.932  13.917
 3638W        W72032  35.340  13.744   4.787
 3639W        W72033  43.786  42.892  10.601
 3640W        W72034  17.088   8.071  12.498
 3641W        W72035  15.832  35.636   3.679
 3642W        W72036  43.820  41.789   4.735
 3643W        W72037  23.643   0.518   1.311
 3644W        W72038   1.263   9.899  14.402
 3645W        W72039   5.883  29.329  11.635
 3646W        W72040  20.657  15.189  11.706
 3647W        W72041  15.891  20.314   5.128
 3648W        W72042  16.234  35.604   1.160
 3649W        W72043  20.164  23.202   1.839
 3650W        W72044  31.679  44.023  11.646
 3651W        W72045  29.644  38.443   4.595
 3652W        W72046   3.604   0.202  13.440
 3653W        W72047  13.050  37.890  11.424
 3654W        W72048  11.671  14.423   1.744
 3655W        W72049  18.696  22.838  14.299
 3656W        W72050  43.719  32.380   2.140
 3657W        W72051  39.378  11.782   4.296
 3658W        W72052  21.108   9.364   2.240
 3659W        W72053   4.812  44.799  10.184
 3660W        W72054  14.858   9.704   4.817
 3661W        W72055  13.566  17.824   1.873
 3662W        W72056  10.759  14.688  14.760
 3663W        W72057  17.691  44.992  14.821
 3664W        W72058  20.330  25.162   5.620
 3665W        W72059  20.693   6.799   3.862
 3666W        W72060  38.213  43.639   0.900
 3667W        W72061  41.609   7.649  13.950
 3668W        W72062  20.704  27.031   0.535
 3669W        W72063  33.218  11.057   2.312
 3670W        W72064  12.602   2.357  12.611
 3671W        W72065  12.608  28.294   0.762
 3672W        W72066  36.504  33.186   4.180
 3673W        W72067  22.472  15.346  13.782
 3674W        W72068   6.096  26.563   1.800
 3675W        W72069  32.644  44.503   1.659
 3676W        W72070  20.524  27.724  14.432
 3677W        W72071   3.159  20.764   2.211
 3678W        W72072  14.443  23.545   2.960
 3679W        W72073  14.719   9.385  13.967
 3680W        W72074   2.931   7.615  14.047
 3681W        W72075  29.379   6.662   2.618
 3682W        W72076  28.398  33.120  12.882
 3683W        W72077  38.936  15.479  11.998
 3684W        W72078  42.961   9.418   4.397
 3685W        W72079   8.701  39.256   2.331
 3686W        W72080   8.198  43.258  11.450
 3687W        W72081   9.693  21.106  14.056
 3688W        W72082  28.856  31.989   2.699
 3689W        W72083   7.962  43.050   3.627
 3690W        W72084  19.591  42.449  14.985
 3691W        W72085  43.878   5.966   3.817
 3692W        W72086  14.734  15.266  12.835
 3693W        W72087  12.078  12.222  13.321
 3694W        W72088   2.200   3.740  10.958
 3695W        W72089  26.137  24.106   0.298
 3696W        W72090  13.727  21.709   0.719
 3697W        W72091  22.401  31.499   3.895
 3698W        W72092  16.536  11.372   3.201
 3699W        W72093   0.822  13.153   0.728
 3700W        W72094  16.221  19.765   3.080
 3701W        W72095  15.081  18.127   3.210
 3702W        W72096  19.220   4.494   3.822
 3703W        W72097   5.799   1.723  13.074
 3704W        W72098   7.661  11.706  11.781
 3705W        W72099  25.202  39.909  14.793
 3706W        W72100  25.546  36.948  11.398
 3707W        W72101  16.256  14.677   4.305
 3708W        W72102  38.004  14.102  14.876
 3709W        W72103  36.544  32.473  12.847
 3710W        W72104  11.893   0.959   0.600
 3711W        W72105   7.729  38.564  13.687
 3712W        W72106   6.782   5.270   1.377
 3713W        W72107  37.444  12.577  11.688
 3714W        W72108  32.084  21.300  10.652
 3715W        W72109  40.122  25.141   1.237
 3716W        W72110  21.164   9.891  14.105
 3717W        W72111  22.094   8.792   3.211
 3718W        W72112  38.588   7.415   3.340
 3719W        W72113  37.484  29.118   3.618
 3720W        W72114  10.943  37.317  12.856
 3721W        W72115  34.819  39.389  11.299
 3722W        W72116  26.737  38.192   4.849
 3723W        W72117  13.915  13.373  14.936
 3724W        W72118  31.990  33.900  12.467
 3725W        W72119   4.953  20.103   1.158
 3726W        W72120  33.039  35.880   4.583
 3727W        W72121  44.254  41.040  14.249
 3728W        W72122  22.087  12.191  11.416
 3729W        W72123  20.638  22.016  12.831
 3730W        W72124  21.518  27.337  11.198
 3731W        W72125  43.525  29.167  14.491
 3732W        W72126   5.707  42.022  12.024
 3733W        W72127  32.140  13.760  11.622
 3734W        W72128  19.122  42.739   2.309
 3735W        W72129  31.656  25.997  11.894
 3736W        W72130  41.068  13.180   1.864
 3737W        W72131  23.596  14.575   0.442
 3738W        W72132  32.612  11.735   1.619
 3739W        W72133  11.898  27.245  12.462
 3740W        W72134  13.258  24.096  13.095
 3741W        W72135  34.487   0.378   4.563
 3742W        W72136  15.272  35.987  13.625
 3743W        W72137  21.950  41.323   0.473
 3744W        W72138   1.735  13.614  12.925
 3745W        W72139  26.147  30.514   2.835
 3746W        W72140  44.390   4.543  11.505
 3747W        W72141   9.207  32.335  14.816
 3748W        W72142  26.225  20.686  10.788
 3749W        W72143  16.850  23.641   9.681
 3750W        W72144  10.810  41.738  14.774
 3751W        W72145  26.442  12.366  13.497
 3752W        W72146  16.994  30.973   0.773
 3753W        W72147  30.192  14.615  14.295
 3754W        W72148  35.927  41.235   2.119
 3755W        W72149  13.924  24.572  10.787
 3756W        W72150  22.439  35.500   3.213
 3757W        W72151  42.410   6.184  11.968
 3758W        W72152  32.666  44.239   2.110
 3759W        W72153  10.292  29.095  13.728
 3760W        W72154  43.222  15.813   9.819
 3761W        W72155  34.298  43.825   2.724
 3762W        W72156  23.819  28.537   1.831
 3763W        W72157   7.768  16.139   3.259
 3764W        W72158   2.209  18.617   0.789
 3765W        W72159  23.580  25.423  11.615
 3766W        W72160  41.764  26.734  11.298
 3767W        W72161  13.026   5.454   3.633
 3768W        W72162  24.621  31.449  13.048
 3769W        W72163  18.869  22.589   4.466
 3770W        W72164  30.424  30.099   1.512
 3771W        W72165  40.795  17.627  11.506
 3772W        W72166   6.422  34.525   3.168
 3773W        W72167  28.056  44.490   2.169
 3774W        W72168  18.243   7.942  10.775
 3775W        W72169   3.425  37.649  10.747
 3776W        W72170  32.177  37.085  10.692
 3777W        W72171   9.658  39.096  12.594
 3778W        W72172  43.319  35.388  10.027
 3779W        W72173   3.544  11.212   1.493
 3780W        W72174  24.615   5.992  13.997
 3781W        W72175  11.858  26.409  13.961
 3782W        W72176  43.439  31.084  10.742
 3783W        W72177   4.337   0.598  14.975
 3784W        W72178  25.541   0.454   0.876
 3785W        W72179  31.735   2.571   1.204
 3786W        W72180  15.406  39.414  10.598
 3787W        W72181  13.619  44.915  14.993
 3788W        W72182  22.762  19.703  13.623
 3789W        W72183  40.545   6.613   0.641
 3790W        W72184  19.248  22.088   1.819
 3791W        W72185   2.231  14.898   4.255
 3792W        W72186  34.498  29.475   3.332
 3793W        W72187  18.978  35.533   4.319
 3794W        W72188  25.490  19.593  14.012
 3795W        W72189  42.440   3.746  12.306
 3796W        W72190  44.294   7.418  14.070
 3797W        W72191  33.580   1.660   0.943
 3798W        W72192  12.268   5.222  13.269
 3799W        W72193  12.041  23.786  13.383
 3800W        W72194  13.021  38.949   4.798
 3801W        W72195  36.129  41.062  11.995
 3802W        W72196   7.523  38.358  14.390
 3803W        W72197   9.623   6.975   0.489
 3804W        W72198  11.015  38.275   3.983
 3805W        W72199  30.376  41.235  14.317
 3806W        W72200  35.287   0.350  11.525
 3807W        W72201  19.801  28.627  13.433
 3808W        W72202  37.918   2.898  11.922
 3809W        W72203  17.856  36.878  11.905
 3810W        W72204  11.805  25.150   4.159
 3811W        W72205  35.539  19.786  14.886
 3812W        W72206   5.157   7.348  12.889
 3813W        W72207   8.266  28.940   3.118
 3814W        W72208  13.882  10.856  10.969
 3815W        W72209  42.896  31.248  10.362
 3816W        W72210   6.822  38.487  11.189
 3817W        W72211  14.181  19.210   4.035
 3818W        W72212  36.928  41.492   1.303
 3819W        W72213  43.517  37.981   0.848
 3820W        W72214  21.076  13.648  14.004
 3821W        W72215  44.461   2.893  10.217
 3822W        W72216  39.981  42.567   0.065
 3823W        W72217  26.066  33.832   2.150
 3824W        W72218  10.289  38.396  14.495
 3825W        W72219   5.257  41.479   2.350
 3826W        W72220  28.159   3.849  10.411
 3827W        W72221  27.414  25.653  13.447
 3828W        W72222  26.019  25.118   0.306
 3829W        W72223  10.615   1.892  13.540
 3830W        W72224   9.325   6.387  14.910
 3831W        W72225  15.344  42.284  11.659
 3832W        W72226  37.441  13.260  12.443
 3833W        W72227  21.520  33.387   4.840
 3834W        W72228  26.774   5.214   1.693
 3835W        W72229  30.286  18.395  13.839
 3836W        W72230  35.438  41.532  11.591
 3837W        W72231  31.934  13.159   2.771
 3838W        W72232  40.093  10.660   2.387
 3839W        W72233  16.506  18.170  14.981
 3840W        W72234  18.198  29.654   1.892
 3841W        W72235  44.714  12.377  14.747
 3842W        W72236  35.169  33.050  11.858
 3843W        W72237  25.615  25.569  12.018
 3844W        W72238  34.905  17.809   4.403
 3845W        W72239  30.079  34.135   3.232
 3846W        W72240   6.742  32.523   1.216
 3847W        W72241  15.488   5.521   5.347
 3848W        W72242  28.635  23.211   3.874
 3849W        W72243  36.389  24.125  10.131
 3850W        W72244  44.424   6.816   3.550
 3851W        W72245  33.685  40.806  14.864
 3852W        W72246  13.687   9.828  14.461
 3853W        W72247  15.236  44.906  11.377
 3854W        W72248  35.246  21.533  13.874
 3855W        W72249  31.085  24.222  11.630
 3856W        W72250  21.571  34.935  11.488
 3857W        W72251  19.315  40.955  11.191
 3858W        W72252  15.621  42.511   4.622
 3859W        W72253  39.897   3.441  12.555
 3860W        W72254  24.119   3.942   0.799
 3861W        W72255  42.295  37.943   3.154
 3862W        W72256  18.277  42.870  12.523
 3863W        W72257  15.064  30.037   1.846
 3864W        W72258   6.831  10.772   1.700
 3865W        W72259   3.900  44.525  12.980
 3866W        W72260  41.376  20.002  14.392
 3867W        W72261  11.328  27.060  14.479
 3868W        W72262  43.467  39.652  13.429
 3869W        W72263  42.983   3.985   2.801
 3870W        W72264  22.763  31.183  13.883
 3871W        W72265  17.899  43.965   4.077
 3872W        W72266  37.517  20.177   2.888
 3873W        W72267   6.787  32.537   2.259
 3874W        W72268  14.703  34.246   0.907
 3875W        W72269  39.293  33.005   2.798
 3876W        W72270  15.498  28.476  11.903
 3877W        W72271   9.317  16.825  13.843
 3878W        W72272  16.707  24.765  13.435
 3879W        W72273  25.117  16.159   3.137
 3880W        W72274  18.378  27.927  14.893
 3881W        W72275  32.407   9.407  11.360
 3882W        W72276   9.157  24.289  13.378
 3883W        W72277   6.968  13.314   3.368
 3884W        W72278  32.581   7.240   4.756
 3885W        W72279  35.530   0.701  13.700
 3886W        W72280  15.124  13.252  11.417
 3887W        W72281  19.111  16.083  13.363
 3888W        W72282  40.553   7.328   3.856
 3889W        W72283  34.369  20.081  14.408
 3890W        W72284   4.916  29.333  12.653
 3891W        W72285  15.746  24.430   4.595
 3892W        W72286  26.944  17.290   2.477
 3893W        W72287  28.229  23.555  12.307
 3894W        W72288  44.033  22.291   2.743
 3895W        W72289  28.492   3.253   0.104
 3896W        W72290  43.792  15.671  13.563
 3897W        W72291   8.639  39.261   1.365
 3898W        W72292  31.321   6.188   0.458
 3899W        W72293  18.879   6.163   0.949
 3900W        W72294  23.022  17.694   4.147
 3901W        W72295   7.384  36.163   3.153
 3902W        W72296  38.535  40.074   2.705
 3903W        W72297  44.749  42.440  14.016
 3904W        W72298   2.489  25.898   0.476
 3905W        W72299  39.059  43.797  13.375
 3906W        W72300  26.604   8.825  10.705
 3907W        W72301  30.856  15.969   0.986
 3908W        W72302  11.265  28.611  13.548
 3909W        W72303  13.154  25.067   3.324
 3910W        W72304  42.051  42.779   3.423
 3911W        W72305   7.104  43.915   0.824
 3912W        W72306  25.031  22.640   1.382
 3913W        W72307  36.345   0.796   3.822
 3914W        W72308   0.970  26.522   4.915
 3915W        W72309  19.905  12.707   2.349
 3916W        W72310  20.807  12.706  13.840
 3917W        W72311  39.958  32.147  14.709
 3918W        W72312   7.823  28.026  14.256
 3919W        W72313  21.644  41.743   0.460
 3920W        W72314   0.105   7.391   3.849
 3921W        W72315  17.741  31.480   0.826
 3922W        W72316  29.183  16.437   2.231
 3923W        W72317  10.172  34.987  14.507
 3924W        W72318   4.914   4.858   2.755
 3925W        W72319  29.600  30.782  10.247
 3926W        W72320  44.513  27.011  13.319
 3927W        W72321   3.660  35.886   3.629
 3928W        W72322  15.956   3.830  11.184
 3929W        W72323  39.996  12.242   2.880
 3930W        W72324  27.249   2.292  14.432
 3931W        W72325  42.986  12.660  14.403
 3932W        W72326  42.370  25.032   2.324
 3933W        W72327  26.228  13.888  11.602
 3934W        W72328  37.137  43.347  12.959
 3935W        W72329  17.203  14.417   2.643
 3936W        W72330  24.931  10.438  11.666
 3937W        W72331  18.224  42.926   0.107
 3938W        W72332  10.317  20.922  11.039
 3939W        W72333  10.422  27.428  12.168
 3940W        W72334  37.449  42.414   1.734
 3941W        W72335  13.643  40.424  12.299
 3942W        W72336  30.558  23.655  10.635
 3943W        W72337  21.028  40.900  12.504
 3944W        W72338  32.875   0.445   3.667
 3945W        W72339  36.586  29.526   0.369
 3946W        W72340  31.482  33.565   1.681
 3947W        W72341  39.392  25.129   4.496
 3948W        W72342   7.944  29.557  11.204
 3949W        W72343  44.969   2.086  11.070
 3950W        W72344   8.885  34.280   4.515
 3951W        W72345  10.154   1.955   2.795
 3952W        W72346  22.479   2.060  11.253
 3953W        W72347  11.422  39.494  11.477
 3954W        W72348  42.989  43.058   1.733
 3955W        W72349  11.381  40.541   4.680
 3956W        W72350   2.430   5.311   2.156
 3957W        W72351  42.248  11.094   4.117
 3958W        W72352  33.193   0.278   4.046
 3959W        W72353  17.274  16.348  13.323
 3960W        W72354  38.465  23.246  11.707
 3961W        W72355  26.078  20.053   4.597
 3962W        W72356   0.371  18.709   4.911
 3963W        W72357  40.581  22.429  14.255
 3964W        W72358  11.623   8.316   3.795
 3965W        W72359   7.487  44.758   2.731
 3966W        W72360  33.762   6.891  12.163
 3967W        W72361  22.487  30.197   3.444
 3968W        W72362  29.156   2.196   2.058
 3969W        W72363  16.121   2.456  11.215
 3970W        W72364  38.964   6.993   0.376
 3971W        W72365  14.895  39.415   1.773
 3972W        W72366  16.629  21.154   1.446
 3973W        W72367  16.259  30.019  13.479
 3974W        W72368  44.697  10.643  11.336
 3975W        W72369  37.076  21.616   0.284
 3976W        W72370  32.703  34.616   0.818
 3977W        W72371  19.658  39.351  10.694
 3978W        W72372  15.364  34.870   0.863
 3979W        W72373  31.054   7.369   3.638
 3980W        W72374  19.280  23.079  10.657
 3981W        W72375   5.201  23.064   4.216
 3982W        W72376  38.786  24.392   1.237
 3983W        W72377  13.775   8.252  14.749
 3984W        W72378  26.515  24.990   3.470
 3985W        W72379   4.959   8.151  13.067
 3986W        W72380  42.780   3.859  11.416
 3987W        W72381   7.818  24.808   3.718
 3988W        W72382  11.808  38.503   2.102
 3989W        W72383  37.626  10.061  12.765
 3990W        W72384  34.283   5.581  14.341
 3991W        W72385  43.064  33.613  13.777
 3992W        W72386  43.016  25.774   3.250
 3993W        W72387  33.934  40.606   3.863
 3994W        W72388   0.756   8.668   5.093
 3995W        W72389  10.094  11.452  10.311
 3996W        W72390  26.170  39.903   2.167
 3997W        W72391  19.199   9.019  12.855
 3998W        W72392  38.819  43.411  13.650
 3999W        W72393  36.936  37.867   3.672
 4000W        W72394  35.419   3.274  14.986
 4001W        W72395  29.508  36.041   0.038
 4002W        W72396  12.679  24.664   5.005
 4003W        W72397   3.464  18.594   4.158
 4004W        W72398  28.390  37.021  11.234
 4005W        W72399  17.142  20.754   2.972
 4006W        W72400  20.732  35.148  14.452
 4007W        W72401  17.316  23.644   0.434
 4008W        W72402  31.552  21.232   3.496
 4009W        W72403  27.504  22.276  10.573
 4010W        W72404   7.203  43.590   2.124
 4011W        W72405   6.661  13.125   4.656
 4012W        W72406  29.396  13.758  12.413
 4013W        W72407  38.798   7.629  11.582
 4014W        W72408  30.358  42.995  10.910
 4015W        W72409  24.276   0.811   4.576
 4016W        W72410  38.667  37.355  13.434
 4017W        W72411  37.794  18.573  11.203
 4018W        W72412   2.462  29.939  13.425
 4019W        W72413  43.852  31.673   3.650
 4020W        W72414  25.743  17.842   1.632
 4021W        W72415  41.579   6.243   3.250
 4022W        W72416  43.894  21.004  10.461
 4023W        W72417  26.502   6.231   0.511
 4024W        W72418  36.467  43.232   1.335
 4025W        W72419  34.964   4.897   1.960
 4026W        W72420  21.093  35.872  13.087
 4027W        W72421  39.385   2.871   1.274
 4028W        W72422  28.590  15.554  10.643
 4029W        W72423  22.483  29.261  14.734
 4030W        W72424   7.145  32.560   3.911
 4031W        W72425  36.537  13.376   4.540
 4032W        W72426  41.479   7.176   4.292
 4033W        W72427  36.901  44.088   0.375
 4034W        W72428  16.225  29.838   4.134
 4035W        W72429  32.638  19.990  13.353
 4036W        W72430  10.386  18.008  13.411
 4037W        W72431  32.859  22.639   0.799
 4038W        W72432  29.266  21.536  14.923
 4039W        W72433   9.831   9.058  14.322
 4040W        W72434  26.026   2.685   0.288
 4041W        W72435  22.012  13.259   4.086
 4042W        W72436  38.968  21.218  14.060
 4043W        W72437  21.678  29.087  14.347
 4044W        W72438   1.429  27.991  14.032
 4045W        W72439  25.521  37.274   1.747
 4046W        W72440  38.457  21.805   0.423
 4047W        W72441   1.389  29.458  13.425
 4048W        W72442   0.346  41.189  10.437
 4049W        W72443  39.496  36.509  12.100
 4050W        W72444   4.996  24.669  14.933
 4051W        W72445   3.667  27.683   0.632
 4052W        W72446  28.184  22.704  14.293
 4053W        W72447  42.299  20.535   4.622
 4054W        W72448  15.628  34.490  11.203
 4055W        W72449  23.618  23.509  12.866
 4056W        W72450  25.104  44.525  13.973
 4057W        W72451  32.079  17.732   4.132
 4058W        W72452  22.618   4.276   3.723
 4059W        W72453   7.739  22.163   1.720
 4060W        W72454  19.195  21.957   0.954
 4061W        W72455  39.880  10.586  11.057
 4062W        W72456  41.778  42.472  11.645
 4063W        W72457  25.000  42.620  11.594
 4064W        W72458  14.123  38.612  10.155
 4065W        W72459   1.186  23.287  12.108
 4066W        W72460  30.194  16.194   1.326
 4067W        W72461  39.925   5.188   2.727
 4068W        W72462  21.758   5.491   2.300
 4069W        W72463  25.029   1.705   3.645
 4070W        W72464  13.083  19.551  11.104
 4071W        W72465  11.153  33.698   3.189
 4072W        W72466   1.821  37.557   1.276
 4073W        W72467  32.617  33.456   3.699
 4074W        W72468  30.590   5.876   1.355
 4075W        W72469  31.654  13.013   0.378
 4076W        W72470  23.595   5.954  14.391
 4077W        W72471  23.949  40.141  13.338
 4078W        W72472  39.807  20.834   1.249
 4079W        W72473   0.436  30.943  13.862
 4080W        W72474  22.635   7.299  10.894
 4081W        W72475   6.664  16.732  12.903
 4082W        W72476  36.993  33.859   2.679
 4083W        W72477   4.691  42.610   4.708
 4084W        W72478  32.349  39.556  12.457
 4085W        W72479  17.434  20.302   2.319
 4086W        W72480   4.846  34.704   4.050
 4087W        W72481  18.220  12.835  11.263
 4088W        W72482  41.584  40.352   0.954
 4089W        W72483   1.705  29.565  12.070
 4090W        W72484  41.011  24.145  11.199
 4091W        W72485   0.982   2.413  10.245
 4092W        W72486  44.900  10.669   0.617
 4093W        W72487   8.894   2.023  12.182
 4094W        W72488   6.276  40.844  11.933
 4095W        W72489  42.703  36.407  12.942
 4096W        W72490  37.322   8.194   0.939
 4097W        W72491  39.967  42.697  11.029
 4098W        W72492  41.331  37.568  13.393
 4099W        W72493   6.444   9.121  11.895
 4100W        W72494  18.809   4.438  13.020
 4101W        W72495  19.531  28.068   1.830
 4102W        W72496  35.201  34.982   1.380
 4103W        W72497  21.503  32.190   3.154
 4104W        W72498  11.707  18.762   2.728
 4105W        W72499  33.983   6.839   4.586
 4106W        W72500  10.180  25.518  13.864
 4107W        W72501  33.312  17.530  14.916
 4108W        W72502   7.813   7.017   1.189
 4109W        W72503  36.973   2.406  11.360
 4110W        W72504  29.054  15.026  11.242
 4111W        W72505  32.999   8.157  13.419
 4112W        W72506  23.364  13.256   4.873
 4113W        W72507  24.242  29.314   2.357
 4114W        W72508  19.763  24.771   3.701
 4115W        W72509  13.124  19.962   0.930
 4116W        W72510   2.297  44.992  12.646
 4117W        W72511   2.144  28.038  13.447
 4118W        W72512  31.508  24.714  14.880
 4119W        W72513  44.789   6.207  12.189
 4120W        W72514  39.925  34.978   2.722
 4121W        W72515   0.058  44.188   0.306
 4122W        W72516  36.369  44.530   1.918
 4123W        W72517  26.008  39.702   2.624
 4124W        W72518   6.166   7.741  13.859
 4125W        W72519  14.097  38.042  13.901
 4126W        W72520   5.194  30.047  10.339
 4127W        W72521  41.101  14.038   2.878
 4128W        W72522  44.943   0.671   4.388
 4129W        W72523  36.147  24.983  14.571
 4130W        W72524  24.671  27.400   3.793
 4131W        W72525  13.086  44.894  14.992
 4132W        W72526   0.263  23.231  12.972
 4133W        W72527  10.639  37.208   0.739
 4134W        W72528  33.983  28.738  11.478
 4135W        W72529  14.839  25.087   1.838
 4136W        W72530  27.953  44.179   2.567
 4137W        W72531  20.168   2.858   3.153
 4138W        W72532  34.269   8.893  10.664
 4139W        W72533  11.074   4.403   0.884
 4140W        W72534  30.192  39.563   3.477
 4141W        W72535  11.696  39.454  12.799
 4142W        W72536  35.858   2.880  13.572
 4143W        W72537  15.114   3.167  12.081
 4144W        W72538   6.429  33.466   1.725
 4145W        W72539   4.220  44.466   1.336
 4146W        W72540   3.625  38.532  12.634
 4147W        W72541  23.220   6.898  10.372
 4148W        W72542  39.527  37.951  13.592
 4149W        W72543  43.372  15.473   3.715
 4150W        W72544   2.875   4.438  12.858
 4151W        W72545  36.534   4.309   4.569
 4152W        W72546  35.159   6.676   3.720
 4153W        W72547  38.203  16.054   0.483
 4154W        W72548   0.165   7.868  11.858
 4155W        W72549  25.458  19.112  11.079
 4156W        W72550  17.190   9.398   1.321
 4157W        W72551  15.841  12.098  12.466
 4158W        W72552   4.431  44.378   4.590
 4159W        W72553  25.698   1.288  14.053
 4160W        W72554  41.390  18.563   3.637
 4161W        W72555   8.048   6.513   0.839
 4162W        W72556   4.420  30.327  11.355
 4163W        W72557  18.929  23.495   1.210
 4164W        W72558  10.315  30.118   4.266
 4165W        W72559  11.709  27.335   4.194
 4166W        W72560  13.610   8.409  11.458
 4167W        W72561  20.478   0.483   0.647
 4168W        W72562  22.661  38.080   1.744
 4169W        W72563  27.854   1.294   4.965
 4170W        W72564  24.230  16.641   4.454
 4171W        W72565  39.986  17.327  11.579
 4172W        W72566  39.479  30.963   2.196
 4173W        W72567  33.110   9.458  12.188
 4174W        W72568  38.971  31.964   3.675
 4175W        W72569  27.543  28.426   2.276
 4176W        W72570   9.332   2.077   4.031
 4177W        W72571  18.135  10.390   2.847
 4178W        W72572  14.064  18.920   2.531
 4179W        W72573  32.138   1.442  14.475
 4180W        W72574   9.979  17.036  11.521
 4181W        W72575  26.294  35.582   1.460
 4182W        W72576   4.681  28.552   1.451
 4183W        W72577  27.437  29.993   1.354
 4184W        W72578  35.468  36.588   3.752
 4185W        W72579   3.308  39.727  13.117
 4186W        W72580  20.337   0.307  14.220
 4187W        W72581   7.277  31.642   0.313
 4188W        W72582   2.985  40.805  14.692
 4189W        W72583  43.445   2.634  14.695
 4190W        W72584  40.097  42.193  10.755
 4191W        W72585  22.137  28.360   2.227
 4192W        W72586  39.397  43.417   4.478
 4193W        W72587  19.429  42.966   3.628
 4194W        W72588  38.936   2.077   1.366
 4195W        W72589   2.404  10.848  13.070
 4196W        W72590  28.470   1.045   1.894
 4197W        W72591  27.224  11.341  11.153
 4198W        W72592   3.874  42.772  13.518
 4199W        W72593   1.885   9.214  10.963
 4200W        W72594  16.509  28.429   4.482
 4201W        W72595  17.826  15.650  10.807
 4202W        W72596  38.325  44.328   3.300
 4203W        W72597   9.191  25.234   2.368
 4204W        W72598   8.184   6.900   2.453
 4205W        W72599  13.698   0.539  14.912
 4206W        W72600  27.199  40.801   3.283
 4207W        W72601   4.043  39.965   0.862
 4208W        W72602  42.505  20.094  14.029
 4209W        W72603  43.119  26.344  14.016
 4210W        W72604  35.514  13.386   0.449
 4211W        W72605  14.403  20.217   4.173
 4212W        W72606  38.011  33.796   2.858
 4213W        W72607   1.367  22.537  12.546
 4214W        W72608  13.091  18.258   5.187
 4215W        W72609  42.280  10.084   4.225
 4216W        W72610  24.208   7.746  13.502
 4217W        W72611  30.359  33.435   4.507
 4218W        W72612  17.641  43.503  14.466
 4219W        W72613  16.615  29.394  10.687
 4220W        W72614  23.198   0.759  12.949
 4221W        W72615  38.591   8.919  14.292
 4222W        W72616  21.961  36.838   4.572
 4223W        W72617   5.455  27.550  11.481
 4224W        W72618  21.259  35.660  11.237
 4225W        W72619  44.937  28.976  11.142
 4226W        W72620  14.660  28.165  12.083
 4227W        W72621   0.342  30.854   1.780
 4228W        W72622  17.662  27.967  13.573
 4229W        W72623  20.747  39.928   0.357
 4230W        W72624  30.985   5.396   1.979
 4231W        W72625   0.706  26.660   3.664
 4232W        W72626  25.970  18.290   1.739
 4233W        W72627  38.100   6.237  13.442
 4234W        W72628  41.298   3.704  11.552
 4235W        W72629  12.546   5.656   1.852
 4236W        W72630  41.305  22.140   4.363
 4237W        W72631  15.830  21.038  13.022
 4238W        W72632  42.585  11.153  13.419
 4239W        W72633  38.799  20.466  14.398
 4240W        W72634  24.284  21.765   2.703
 4241W        W72635  42.441  28.376  10.748
 4242W        W72636  38.660  39.277  12.122
 4243W        W72637   4.688  40.296   2.190
 4244W        W72638  35.514  32.109  14.962
 4245W        W72639  21.303  24.773  11.115
 4246W        W72640  15.262  14.255   3.088
 4247W        W72641  16.754  17.182  13.328
 4248W        W72642  21.599  42.443   4.611
 4249W        W72643  12.153  41.510   1.909
 4250W        W72644  14.721  21.556  12.451
 4251W        W72645   2.847   2.641  14.882
 4252W        W72646  35.641  41.364   2.887
 4253W        W72647  30.181  35.844   4.803
 4254W        W72648  39.451  39.508  11.719
 4255W        W72649  23.359  14.893  12.891
 4256W        W72650  17.738  40.804   0.165
 4257W        W72651  12.397  28.417  12.174
 4258W        W72652  44.979   9.278  10.727
 4259W        W72653  21.798  34.485  13.968
 4260W        W72654  41.527  20.229   4.179
 4261W        W72655  33.887   6.956  11.652
 4262W        W72656  35.953  24.520   2.257
 4263W        W72657  14.880  34.736   0.921
 4264W        W72658  31.153  24.990   0.241
 4265W        W72659   6.257  43.052  12.102
 4266W        W72660  10.417   1.834   3.220
 4267W        W72661   3.723  14.556  12.546
 4268W        W72662   8.598  36.183  12.474
 4269W        W72663  19.549  35.489  14.758
 4270W        W72664   6.913  35.319  14.696
 4271W        W72665   2.966   9.338   0.352
 4272W        W72666  12.823  25.969   4.213
 4273W        W72667   9.936   3.428   4.351
 4274W        W72668  23.530  30.130   1.182
 4275W        W72669   3.300  32.920   1.193
 4276W        W72670  31.184   7.877   4.729
 4277W        W72671  44.291  27.127  12.329
 4278W        W72672   7.838  17.519   4.301
 4279W        W72673  44.876   4.635  10.701
 4280W        W72674  10.774  10.578  10.607
 4281W        W72675  43.271  20.719   2.711
 4282W        W72676  14.409  40.413   4.142
 4283W        W72677   5.725  31.769  11.622
 4284W        W72678  25.971  41.893   2.775
 4285W        W72679   4.906  13.689   3.439
 4286W        W72680  28.433  42.934  13.437
 4287W        W72681  28.110  20.755  11.081
 4288W        W72682  38.787  18.753   2.379
 4289W        W72683   6.453  12.303  10.305
 4290W        W72684  39.466  42.173   2.746
 4291W        W72685  26.121   8.654   4.557
 4292W        W72686   2.826   4.961   2.276
 4293W        W72687  21.730  27.661   1.315
 4294W        W72688  20.986   2.837   4.388
 4295W        W72689   0.115  36.444   5.090
 4296W        W72690   4.260  35.435  12.904
 4297W        W72691  20.384  26.001  12.456
 4298W        W72692  19.353  44.862   3.747
 4299W        W72693   5.855  40.580   2.903
 4300W        W72694   8.119  40.315   3.442
 4301W        W72695   4.016   8.813   0.911
 4302W        W72696  36.974   7.880  14.048
 4303W        W72697  23.231  35.954   0.775
 4304W        W72698  16.610  27.284  10.662
 4305W        W72699  22.253   8.201   0.809
 4306W        W72700  13.156  35.338   1.336
 4307W        W72701  10.589  31.251   1.948
 4308W        W72702   2.614   3.892  14.784
 4309W        W72703  32.390  20.972   2.877
 4310W        W72704  19.540  32.786   1.708
 4311W        W72705  25.554  36.461  11.163
 4312W        W72706  38.350  12.524   3.790
 4313W        W72707   3.403  26.120  11.837
 4314W        W72708  16.214  21.077  14.843
 4315W        W72709   2.038   5.905   2.825
 4316W        W72710  31.678  29.439  13.878
 4317W        W72711  40.011  44.634  12.265
 4318W        W72712  20.176  13.889   0.482
 4319W        W72713  15.596  29.468  10.773
 4320W        W72714  27.496  40.042   0.463
 4321W        W72715  10.606   2.358   3.939
 4322W        W72716  33.936  29.374  12.776
 4323W        W72717   2.427  43.589  13.312
 4324W        W72718  31.555  21.676   3.159
 4325W        W72719  29.531  23.972  14.145
 4326W        W72720  32.190   5.062   1.954
 4327W        W72721   9.753  10.048   3.932
 4328W        W72722  44.028  33.130   3.316
 4329W        W72723   4.410   1.102   0.982
 4330W        W72724   2.004  16.919   1.756
 4331W        W72725   9.244  10.887   2.567
 4332W        W72726   9.729  34.315  10.542
 4333W        W72727  20.990  29.159  12.212
 4334W        W72728  38.276  42.953   3.177
 4335W        W72729   5.989  22.359  13.622
 4336W        W72730   6.884   5.711  13.396
 4337W        W72731  31.057  17.789  14.884
 4338W        W72732  14.063  33.036  14.120
 4339W        W72733   5.410  33.153  11.540
 4340W        W72734  37.811   4.342   2.801
 4341W        W72735   5.851  12.297   1.853
 4342W        W72736  28.082  18.324   0.139
 4343W        W72737  20.052  38.017  14.577
 4344W        W72738  12.150   0.972   4.199
 4345W        W72739  26.711  25.537  11.134
 4346W        W72740   6.968   2.341   1.916
 4347W        W72741   0.777   2.010  14.800
 4348W        W72742  38.055  31.936   2.247
 4349W        W72743  10.229  29.848  11.512
 4350W        W72744  30.183  42.354  11.126
 4351W        W72745  25.573  39.389  14.378
 4352W        W72746  21.128  12.393   3.650
 4353W        W72747  31.711  10.294   3.289
 4354W        W72748  14.168  27.055   3.837
 4355W        W72749  30.171  27.014  12.515
 4356W        W72750  16.781  10.146  12.776
 4357W        W72751  14.593  42.009   3.570
 4358W        W72752  11.134   0.783   4.128
 4359W        W72753   8.583  22.223   2.455
 4360W        W72754   9.437  32.811  12.921
 4361W        W72755  33.887  38.413   2.622
 4362W        W72756   7.868  23.129  14.408
 4363W        W72757  23.938  19.275  11.031
 4364W        W72758   1.032   0.772  12.784
 4365W        W72759  37.583  24.481  13.974
 4366W        W72760  21.549  32.509   4.702
 4367W        W72761  29.957  19.304  11.973
 4368W        W72762  22.716  25.715  13.523
 4369W        W72763  19.523  35.151  11.681
 4370W        W72764   3.899   8.297   4.867
 4371W        W72765  37.813  31.698  12.405
 4372W        W72766  29.055  23.150  14.623
 4373W        W72767   1.800  26.002  11.722
 4374W        W72768  40.807  21.112   5.158
 4375W        W72769   1.968  43.270  14.908
 4376W        W72770   2.367  27.148   0.944
 4377W        W72771   6.806  34.473   0.251
 4378W        W72772  40.518  42.557  13.790
 4379W        W72773  15.247   5.192  12.482
 4380W        W72774  30.542  22.514   1.424
 4381W        W72775  35.895  14.767   4.262
 4382W        W72776  19.355  39.065  11.099
 4383W        W72777  20.961   7.462  11.555
 4384W        W72778   6.487  39.037  14.525
 4385W        W72779   8.120  30.720   2.606
 4386W        W72780   8.376  25.601   1.409
 4387W        W72781  24.516  20.785   4.204
 4388W        W72782  32.406   2.041   0.826
 4389W        W72783  15.840  23.193  14.099
 4390W        W72784  22.435  24.354   4.540
 4391W        W72785  28.891   5.860  12.430
 4392W        W72786   8.637  29.872   1.935
 4393W        W72787   9.957  24.069  12.801
 4394W        W72788  18.176  32.499   1.929
 4395W        W72789   3.261  25.733  11.528
 4396W        W72790   2.786  16.669  14.544
 4397W        W72791  19.089  37.514  14.063
 4398W        W72792  22.062  36.242  13.074
 4399W        W72793  27.667  13.272   3.296
 4400W        W72794  32.665   5.937   2.321
 4401W        W72795  17.002  13.789   4.039
 4402W        W72796  20.992  33.919  14.071
 4403W        W72797  20.224  12.343   4.183
 4404W        W72798   7.595  34.549  14.949
 4405W        W72799  35.286  33.207  10.467
 4406W        W72800  17.161  11.364   4.846
 4407W        W72801  27.254  19.222   1.856
 4408W        W72802   6.870   8.897  10.652
 4409W        W72803  36.468  35.929   4.458
 4410W        W72804  29.225  21.983   0.834
 4411W        W72805  42.224  20.802   1.753
 4412W        W72806   6.742  15.593  14.832
 4413W        W72807   8.318   7.117   3.303
 4414W        W72808  16.642   7.381   3.680
 4415W        W72809  41.007  11.827   2.256
 4416W        W72810  19.050  28.214   1.698
 4417W        W72811  11.380  13.139  12.549
 4418W        W72812  41.774  41.834   3.100
 4419W        W72813  43.293  19.172   0.794
 4420W        W72814  43.470  23.748   3.745
 4421W        W72815  11.317  12.313   4.524
 4422W        W72816  24.518   5.479  13.962
 4423W        W72817   6.993  23.561   4.107
 4424W        W72818  43.470   3.412   2.291
 4425W        W72819   0.284  26.195  12.992
 4426W        W72820  18.264  28.149   0.353
 4427W        W72821  10.848  44.868   0.027
 4428W        W72822  23.584  17.993  14.376
 4429W        W72823  39.322   4.689  12.493
 4430W        W72824  25.321  16.535   3.411
 4431W        W72825   2.082  28.045  12.501
 4432W        W72826   6.858  22.181  13.919
 4433W        W72827   3.823  33.407  13.464
 4434W        W72828  27.583  32.813   3.247
 4435W        W72829   0.966  44.545  10.818
 4436W        W72830  28.469  23.041   1.031
 4437W        W72831  36.181  18.076   3.384
 4438W        W72832  40.909  39.353   2.345
 4439W        W72833  31.018  25.080   2.305
 4440W        W72834   6.182  13.390   0.357
 4441W        W72835   7.952   1.323  12.946
 4442W        W72836  40.453  15.331   1.278
 4443W        W72837  28.093  41.577  10.291
 4444W        W72838  20.301   8.371  14.766
 4445W        W72839  19.584  14.845   0.876
 4446W        W72840  18.902  13.303  11.137
 4447W        W72841  12.583  25.769   0.345
 4448W        W72842   0.942  40.401  14.401
 4449W        W72843  30.820  44.360   1.010
 4450W        W72844  19.725   5.223  12.049
 4451W        W72845  22.045   5.015  11.939
 4452W        W72846  12.960  14.691   4.168
 4453W        W72847  24.703  26.465  12.858
 4454W        W72848  36.290  18.894  14.247
 4455W        W72849  25.558  25.194   2.101
 4456W        W72850  39.199   2.703  10.894
 4457W        W72851  28.663  22.069   2.643
 4458W        W72852  28.753  43.312  11.099
 4459W        W72853  13.186  40.625   4.351
 4460W        W72854  41.897  14.136  13.688
 4461W        W72855   7.110  28.578   0.440
 4462W        W72856  42.500  42.328   0.696
 4463W        W72857  36.948  39.220   1.333
 4464W        W72858  15.620  23.631  11.962
 4465W        W72859  40.896  44.913  13.706
 4466W        W72860  40.814  40.248   3.200
 4467W        W72861  19.902   4.407   3.247
 4468W        W72862  16.709  31.416   0.817
 4469W        W72863  13.663  44.211   4.234
 4470W        W72864  43.621  28.074   1.001
 4471W        W72865   5.759  12.243   2.775
 4472W        W72866   8.344   3.947  13.890
 4473W        W72867  32.663  30.589   0.300
 4474W        W72868  10.724  40.486  13.807
 4475W        W72869  17.767  32.936   4.627
 4476W        W72870   9.748  29.870  12.134
 4477W        W72871  24.003  26.978  14.259
 4478W        W72872  23.143  25.473   0.405
 4479W        W72873  38.341  41.546  13.888
 4480W        W72874  20.355  38.863  10.902
 4481W        W72875  12.068  10.302  13.158
 4482W        W72876  20.832   2.580   2.435
 4483W        W72877  35.138  33.985  10.932
 4484W        W72878  21.313  23.059   0.328
 4485W        W72879   0.098  11.113   0.808
 4486W        W72880  42.736  10.342  11.195
 4487W        W72881   6.748  21.023  11.530
 4488W        W72882   0.419  20.186  13.041
 4489W        W72883  18.511  22.456  13.718
 4490W        W72884   1.237   0.077   1.645
 4491W        W72885  39.823  43.082   0.411
 4492W        W72886   1.973   5.774   3.760
 4493W        W72887  35.641  17.152  11.519
 4494W        W72888  44.568  11.197   3.262
 4495W        W72889  32.610   9.892  11.451
 4496W        W72890   0.221  33.876  12.144
 4497W        W72891  22.945  12.690  11.495
 4498W        W72892  10.628  25.224  13.315
 4499W        W72893  24.893   8.192  10.596
 4500W        W72894   1.166  13.731   5.400
 4501W        W72895  36.153  12.048  14.274
 4502W        W72896  44.681  32.707   0.232
 4503W        W72897  35.353  29.488   0.759
 4504W        W72898  34.134  19.491   2.838
 4505W        W72899  21.058  38.983   4.692
 4506W        W72900  20.720  40.807   3.911
 4507W        W72901  16.390  27.442  13.004
 4508W        W72902   9.347  38.786  12.897
 4509W        W72903  15.359   6.302   2.826
 4510W        W72904  10.636   2.879  12.517
 4511W        W72905  15.145  22.735  11.519
 4512W        W72906  11.886   5.163  11.812
 4513W        W72907   8.616  22.945  12.952
 4514W        W72908  41.272   2.776   4.122
 4515W        W72909   2.080  31.605  14.862
 4516W        W72910  24.481  27.370   3.285
 4517W        W72911  31.659  36.184   2.247
 4518W        W72912  17.754  41.689  11.081
 4519W        W72913   1.456  42.522  14.973
 4520W        W72914  34.342  44.980   3.693
 4521W        W72915  15.851  23.725  10.406
 4522W        W72916  15.585  15.749   3.700
 4523W        W72917  11.590  18.986  13.824
 4524W        W72918  42.844  17.862  11.672
 4525W        W72919  38.096   7.998   0.862
 4526W        W72920  42.933  18.602   4.301
 4527W        W72921  19.226  38.049  13.352
 4528W        W72922  18.520   4.282   2.811
 4529W        W72923  40.355  33.517   3.113
 4530W        W72924  36.433  31.643  12.450
 4531W        W72925   4.801   6.405  11.507
 4532W        W72926   9.156   0.913  10.464
 4533W        W72927   9.813  42.243  12.498
 4534W        W72928  42.747  22.066   3.245
 4535W        W72929  43.929  14.184  12.418
 4536W        W72930  35.616  21.511   2.703
 4537W        W72931  33.631  30.389  13.146
 4538W        W72932   0.350   3.509  13.030
 4539W        W72933  18.819  39.462  13.117
 4540W        W72934  35.572   2.783  14.966
 4541W        W72935  28.494  24.646  11.949
 4542W        W72936  29.031   0.413  11.726
 4543W        W72937  38.023  40.871  13.491
 4544W        W72938  13.617   1.393   1.081
 4545W        W72939   2.165  34.419   0.750
 4546W        W72940  10.621  18.165  10.752
 4547W        W72941  34.173  17.358   0.473
 4548W        W72942  17.171  24.581  14.222
 4549W        W72943  13.239   6.012  14.073
 4550W        W72944  27.424  23.748  14.704
 4551W        W72945  16.760  22.253  13.737
 4552W        W72946  14.523  16.969  11.137
 4553W        W72947  15.299  41.062   0.831
 4554W        W72948  30.836  44.393  10.675
 4555W        W72949   3.452  24.135   0.729
 4556W        W72950  25.512  15.240  14.725
 4557W        W72951  21.816  20.145  11.871
 4558W        W72952  32.417  13.871  10.874
 4559W        W72953  10.378   6.928   4.463
 4560W        W72954   3.086  21.287   2.814
 4561W        W72955  33.393  30.411   0.998
 4562W        W72956   9.772   5.375   0.231
 4563W        W72957  41.529  23.648   3.624
 4564W        W72958   0.841   9.934   1.461
 4565W        W72959  12.861  32.439  12.098
 4566W        W72960  28.712  29.226  13.973
 4567W        W72961   9.494  13.611   2.437
 4568W        W72962  22.705   1.564   3.809
 4569W        W72963   6.363  28.705  14.829
 4570W        W72964  20.208  37.380   3.646
 4571W        W72965  44.533  18.273   1.761
 4572W        W72966   3.227  36.863  14.869
 4573W        W72967   8.809   6.766  12.151
 4574W        W72968  10.272  35.834  11.251
 4575W        W72969   7.355  13.537   3.652
 4576W        W72970  34.612  29.163  12.977
 4577W        W72971  18.047  31.947   1.686
 4578W        W72972   0.942  29.280  12.563
 4579W        W72973  14.652  24.214   3.772
 4580W        W72974   5.195  31.520  10.910
 4581W        W72975  27.904   2.465  10.896
 4582W        W72976  28.672  34.850  12.190
 4583W        W72977  37.955  28.454   2.120
 4584W        W72978  21.544  29.703   2.914
 4585W        W72979  34.414  18.997  14.260
 4586W        W72980   7.042  29.976   0.456
 4587W        W72981  25.161  23.931   3.431
 4588W        W72982   7.167  20.317  13.991
 4589W        W72983  13.947  34.932   1.855
 4590W        W72984  12.915  21.111   3.357
 4591W        W72985  16.776  23.755   2.673
 4592W        W72986  10.639  44.339  12.035
 4593W        W72987  44.380  39.387  14.884
 4594W        W72988  22.497   3.897  10.679
 4595W        W72989  20.486  13.872   0.923
 4596W        W72990   1.306  13.804   2.799
 4597W        W72991  15.492  34.042   4.008
 4598W        W72992  26.902  28.898  11.187
 4599W        W72993  29.638  33.404   1.141
 4600W        W72994  40.467  15.858   1.238
 4601W        W72995  39.050  19.651   2.898
 4602W        W72996   1.994   4.724   1.501
 4603W        W72997   6.693  24.794  11.110
 4604W        W72998  42.104  41.026   0.518
 4605W        W72999  14.780  42.777   2.786
 4606W        W73000  14.892  33.416  11.454
 4607W        W73001   2.840  21.082  13.026
 4608W        W73002   0.857  24.827   4.003
 4609W        W73003  23.988  33.910  14.090
 4610W        W73004   8.150   5.752  11.127
 4611W        W73005  44.086   6.782  12.586
 4612W        W73006  38.939  22.627  11.144
 4613W        W73007   3.421   0.820  12.810
 4614W        W73008  29.670  13.560  12.840
 4615W        W73009  19.992  35.430   3.579
 4616W        W73010  17.581   4.397   3.991
 4617W        W73011  11.151  27.619   0.320
 4618W        W73012   5.310  20.965   2.666
 4619W        W73013  36.463  11.615   4.994
 4620W        W73014  13.481  35.474  13.467
 4621W        W73015  19.623  34.500  13.453
 4622W        W73016  39.276   9.651   2.340
 4623W        W73017   2.050  28.164   2.878
 4624W        W73018  27.183  18.299   3.831
 4625W        W73019  17.662   0.719   2.108
 4626W        W73020  38.361  41.015  11.387
 4627W        W73021  12.579  23.759   3.784
 4628W        W73022  30.979   0.383  12.858
 4629W        W73023  31.233  39.014   1.012
 4630W        W73024   1.788  12.380   1.794
 4631W        W73025  20.825  24.051   0.427
 4632W        W73026  24.306  39.303  12.650
 4633W        W73027  13.308  23.071   2.542
 4634W        W73028  33.228   0.341  11.075
 4635W        W73029  18.283  15.853   4.521
 4636W        W73030  32.326   0.839  13.678
 4637W        W73031  10.820  11.747  14.064
 4638W        W73032  20.523  39.817  10.490
 4639W        W73033  10.874   1.855   0.344
 4640W        W73034  21.900  43.994  12.921
 4641W        W73035  39.573  19.093  14.923
 4642W        W73036  19.828   0.273  14.369
 4643W        W73037  12.418   1.391   0.757
 4644W        W73038  43.580  11.083   0.132
 4645W        W73039  11.205  39.747  13.905
 4646W        W73040  21.768  33.995   3.295
 4647W        W73041   9.261  20.666  14.943
 4648W        W73042  36.333  11.544  14.320
 4649W        W73043  37.544  30.480   1.389
 4650W        W73044  11.497  12.082  13.030
 4651W        W73045  20.568  16.425   2.774
 4652W        W73046  12.243  20.241  10.664
 4653W        W73047  16.549  34.092  11.830
 4654W        W73048  34.410   8.239  14.832
 4655W        W73049  17.858  11.297   2.831
 4656W        W73050   6.415  31.135   1.140
 4657W        W73051   2.921   1.818  11.926
 4658W        W73052  10.062  40.145  14.463
 4659W        W73053   3.032   5.881   3.849
 4660W        W73054  31.162  11.280  14.357
 4661W        W73055   3.192  12.515   1.297
 4662W        W73056   4.176  23.351  12.961
 4663W        W73057  29.179   0.067  14.352
 4664W        W73058   6.680  25.078  14.497
 4665W        W73059  44.289  27.322   4.551
 4666W        W73060  18.286  41.307  14.394
 4667W        W73061   2.255  38.070   2.802
 4668W        W73062  24.243   3.968   0.244
 4669W        W73063  19.247  30.011  14.076
 4670W        W73064   3.391   4.669   0.033
 4671W        W73065  30.534   7.274  13.077
 4672W        W73066   0.108  17.702   2.673
 4673W        W73067  24.245  19.285  13.936
 4674W        W73068   6.218  38.372  14.816
 4675W        W73069  28.945   8.379   2.699
 4676W        W73070  31.779   0.125   4.417
 4677W        W73071   4.078  31.602   4.636
 4678W        W73072   9.260  30.405   3.138
 4679W        W73073  24.087  42.369  11.913
 4680W        W73074  13.125  26.964  13.348
 4681W        W73075  26.990  25.088  12.896
 4682W        W73076   8.864  17.080   3.463
 4683W        W73077   8.091  18.710   1.702
 4684W        W73078  13.547  13.866   4.178
 4685W        W73079  18.552  24.306  11.117
 4686W        W73080   7.366  26.694  11.542
 4687W        W73081  10.402  14.103   0.309
 4688W        W73082  25.987  25.067   3.155
 4689W        W73083   4.902   8.408  13.513
 4690W        W73084  12.300  13.808  14.398
 4691W        W73085  20.463  11.572  14.095
 4692W        W73086  43.063  40.389  10.846
 4693W        W73087  40.243   8.908   2.684
 4694W        W73088  34.409   6.146   1.081
 4695W        W73089  18.683  28.799  10.300
 4696W        W73090  29.377  34.451   2.232
 4697W        W73091  26.944  11.132   1.790
 4698W        W73092  27.041  32.027   2.305
 4699W        W73093  24.953   2.915   3.140
 4700W        W73094  21.964  31.241   4.244
 4701W        W73095  12.130  37.640  13.029
 4702W        W73096  17.581   8.110  13.430
 4703W        W73097  26.106  35.015   2.839
 4704W        W73098  37.891  37.577  10.305
 4705W        W73099  44.811  40.947  13.336
 4706W        W73100  40.297  15.690  12.440
 4707W        W73101  15.165   7.587  13.860
 4708W        W73102   6.879  18.232  12.428
 4709W        W73103  36.079   5.659  13.726
 4710W        W73104   2.797   1.444  13.870
 4711W        W73105  32.517  19.092   2.517
 4712W        W73106  44.011   3.080  14.078
 4713W        W73107  21.764  33.165   1.305
 4714W        W73108  43.144   1.774   1.341
 4715W        W73109  12.105  41.303  10.699
 4716W        W73110   9.099   6.365   4.112
 4717W        W73111  35.505  23.652   4.733
 4718W        W73112   3.373  21.298  11.157
 4719W        W73113   1.932  34.458  14.467
 4720W        W73114  19.896  25.272   3.603
 4721W        W73115  28.112  13.160   4.897
 4722W        W73116  43.921  24.925   0.666
 4723W        W73117  24.589  32.433   2.855
 4724W        W73118  39.102  34.203  13.461
 4725W        W73119   8.185  42.368  12.020
 4726W        W73120  12.035  14.943   1.340
 4727W        W73121  19.187  32.828  12.630
 4728W        W73122  22.320  30.899  12.484
 4729W        W73123  39.865  31.261   4.645
 4730W        W73124  35.918  19.639  10.768
 4731W        W73125  16.470   4.642   0.838
 4732W        W73126   4.381  41.304  14.369
 4733W        W73127  19.864  40.965   1.011
 4734W        W73128  38.141  35.552   3.331
 4735W        W73129   8.668  12.909   1.952
 4736W        W73130   2.413  11.383   3.617
 4737W        W73131  16.349  44.829  14.469
 4738W        W73132  15.638  42.782   2.259
 4739W        W73133  25.693  15.621  10.600
 4740W        W73134  23.260  30.129   3.862
 4741W        W73135  42.509  28.234   3.950
 4742W        W73136  32.938  16.396   1.702
 4743W        W73137  26.466  36.466   3.273
 4744W        W73138  26.956  11.900  14.535
 4745W        W73139  23.867  16.691   2.101
 4746W        W73140  38.334  28.416  12.470
 4747W        W73141  25.551  44.936   4.056
 4748W        W73142  12.739  42.776   4.683
 4749W        W73143  20.458  11.724   1.695
 4750W        W73144  33.362  29.059   2.840
 4751W        W73145  40.924   1.390  14.427
 4752W        W73146  42.888  18.156  14.253
 4753W        W73147  26.139   2.791  10.680
 4754W        W73148  11.386  39.326  12.042
 4755W        W73149  38.372   4.413   0.543
 4756W        W73150   2.495  42.292   3.870
 4757W        W73151   5.902  13.772   1.494
 4758W        W73152  43.046  14.914   3.268
 4759W        W73153  26.012  35.098   1.359
 4760W        W73154  30.216  17.784  10.670
 4761W        W73155   7.141  23.401   4.811
 4762W        W73156  36.645  36.849   3.579
 4763W        W73157  33.034  39.821   2.570
 4764W        W73158  12.687  16.753  13.843
 4765W        W73159  36.590  31.073   2.401
 4766W        W73160  31.370  22.398  13.239
 4767W        W73161  26.683  21.984  13.488
 4768W        W73162   7.355  24.555   0.691
 4769W        W73163   7.888   3.458  13.989
 4770W        W73164  13.934  37.267  12.035
 4771W        W73165   0.824  26.003   3.773
 4772W        W73166  15.271  11.118   4.117
 4773W        W73167  24.272  29.021   4.911
 4774W        W73168  12.159  37.215   0.166
 4775W        W73169  41.843  10.887   3.348
 4776W        W73170  27.143  17.030  13.069
 4777W        W73171  31.019  39.030   0.484
 4778W        W73172  37.803  17.812  10.600
 4779W        W73173  40.321  12.744  14.814
 4780W        W73174   0.392  15.710   2.271
 4781W        W73175  38.729  44.362  12.634
 4782W        W73176   6.201  38.544   2.746
 4783W        W73177  34.914  19.102  13.044
 4784W        W73178   4.789  31.446  11.224
 4785W        W73179   4.069  24.337  10.793
 4786W        W73180  12.180  26.955  12.128
 4787W        W73181   8.959  14.754  13.381
 4788W        W73182  32.674  23.166  14.570
 4789W        W73183   5.763  34.586  12.910
 4790W        W73184  39.907   9.760  13.405
 4791W        W73185  34.056   6.217   2.161
 4792W        W73186   5.913  22.047  11.151
 4793W        W73187  35.420  19.120   2.590
 4794W        W73188  25.878  27.145   2.896
 4795W        W73189  25.639   0.336  11.148
 4796W        W73190  32.465  20.286   1.848
 4797W        W73191  16.619  11.739   0.314
 4798W        W73192  10.058  32.980   3.589
 4799W        W73193  38.753   1.880  14.882
 4800W        W73194  20.832  28.142  13.805
 4801W        W73195   4.501  32.444   2.983
 4802W        W73196   6.465  34.136   0.467
 4803W        W73197   6.999  38.320   0.764
 4804W        W73198   6.188   3.802  12.397
 4805W        W73199  34.918  23.680   0.926
 4806W        W73200  34.681  39.043   2.414
 4807W        W73201  25.698   8.416  13.374
 4808W        W73202   2.343  24.962   4.420
 4809W        W73203  27.734   0.211   1.436
 4810W        W73204  16.316   5.353   4.972
 4811W        W73205   9.008  41.803  14.411
 4812W        W73206  29.923  39.084   1.275
 4813W        W73207  37.584   3.868   0.332
 4814W        W73208  40.247  41.759   3.629
 4815W        W73209  12.839  19.221   0.232
 4816W        W73210  41.015  30.551   0.438
 4817W        W73211  36.687  42.121  13.439
 4818W        W73212   1.791  19.182  13.557
 4819W        W73213  18.743  16.811   0.327
 4820W        W73214   7.929  41.336   2.348
 4821W        W73215  31.638  27.283  13.121
 4822W        W73216   5.672  44.486  11.485
 4823W        W73217  32.498  30.861  12.035
 4824W        W73218  44.511  11.851  11.215
 4825W        W73219  42.305   1.844   0.795
 4826W        W73220  25.871   4.294  12.481
 4827W        W73221   3.755  44.299   3.811
 4828W        W73222  43.998  14.163  14.502
 4829W        W73223  42.127  12.334   4.428
 4830W        W73224  18.133  26.409   5.240
 4831W        W73225  39.474  22.112  10.662
 4832W        W73226  26.584  12.117   2.256
 4833W        W73227  33.117   5.851  10.559
 4834W        W73228  36.066  29.635  13.622
 4835W        W73229  28.494  36.418  11.594
 4836W        W73230  41.039   4.318   3.261
 4837W        W73231  17.804  14.623  11.826
 4838W        W73232   9.508   2.010  13.444
 4839W        W73233  29.413  14.401   4.300
 4840W        W73234   3.700  10.949  10.401
 4841W        W73235  42.784  35.857  10.764
 4842W        W73236  18.748  19.766  10.920
 4843W        W73237  34.323  36.914   4.099
 4844W        W73238   7.431  40.995  11.640
 4845W        W73239  11.347  42.442  12.102
 4846W        W73240  25.562  21.282  12.934
 4847W        W73241  33.386  44.296   4.101
 4848W        W73242  43.061   8.155   3.662
 4849W        W73243  37.524  18.133   2.223
 4850W        W73244   7.056  39.698  12.020
 4851W        W73245   4.215  25.933   0.062
 4852W        W73246   1.872  30.387  13.999
 4853W        W73247  14.278  25.228   3.549
 4854W        W73248  27.636  18.962   4.454
 4855W        W73249  41.575  44.465  12.876
 4856W        W73250  19.666  28.847   3.550
 4857W        W73251  30.695  22.628   2.812
 4858W        W73252   0.476  18.355  14.637
 4859W        W73253  40.337  30.477  12.824
 4860W        W73254   9.164  17.505  13.332
 4861W        W73255   3.140  11.704  12.535
 4862W        W73256  22.618  31.503   3.417
 4863W        W73257  30.005  34.929  10.915
 4864W        W73258  24.518  30.078  13.112
 4865W        W73259   5.759  39.607  10.642
 4866W        W73260  30.633  32.382  11.590
 4867W        W73261  22.009  13.625   4.806
 4868W        W73262  18.230  22.250  10.567
 4869W        W73263  18.340  33.325   4.143
 4870W        W73264  12.773   9.602   3.418
 4871W        W73265  24.959  13.639  14.527
 4872W        W73266  12.236  17.273   4.505
 4873W        W73267  12.652  25.294   2.628
 4874W        W73268  43.801  22.927  11.039
 4875W        W73269  12.124  21.177  10.708
 4876W        W73270  29.666  14.730   2.703
 4877W        W73271  32.200  28.128   0.652
 4878W        W73272  17.837  25.014  13.741
 4879W        W73273  22.960   0.854   0.709
 4880W        W73274  34.348  26.020   1.320
 4881W        W73275   0.430  20.931   0.870
 4882W        W73276  11.427   1.678   1.690
 4883W        W73277  42.255  43.586   2.616
 4884W        W73278  42.489   8.413  12.778
 4885W        W73279  21.172  13.864  13.467
 4886W        W73280  43.217   3.229   3.304
 4887W        W73281  23.604  36.033  14.310
 4888W        W73282   2.968  33.457  12.589
 4889W        W73283  25.166  14.753  12.129
 4890W        W73284  42.972   7.727  12.507
 4891W        W73285  44.658   4.389   1.836
 4892W        W73286  43.037  39.078  12.034
 4893W        W73287  41.767  16.630  13.866
 4894W        W73288  40.741  29.603   5.022
 4895W        W73289   4.158  42.459   1.141
 4896W        W73290   6.165  26.129   1.436
 4897W        W73291  16.849  19.803   0.855
 4898W        W73292  11.239  18.961   0.524
 4899W        W73293  43.909  24.107   2.390
 4900W        W73294   5.205  30.160   0.724
 4901W        W73295  10.345   0.427  11.412
 4902W        W73296  31.979  34.087   0.837
 4903W        W73297   8.752  13.404   2.154
 4904W        W73298  36.947   5.363   4.827
 4905W        W73299  33.947   5.041  11.186
 4906W        W73300  39.696  16.768  11.117
 4907W        W73301  36.422  22.559  12.028
 4908W        W73302   2.328  36.063   2.491
 4909W        W73303  35.320  41.346  12.090
 4910W        W73304  32.863  39.360   2.798
 4911W        W73305  41.492  40.378  12.083
 4912W        W73306  28.540  34.327   1.979
 4913W        W73307  28.934  41.909   3.165
 4914W        W73308  24.007  40.808   4.077
 4915W        W73309   4.841   1.520  12.446
 4916W        W73310  25.576  34.054   2.092
 4917W        W73311  24.916  21.078   3.613
 4918W        W73312  13.854  40.482  12.762
 4919W        W73313  40.838  38.352  12.538
 4920W        W73314   3.728  10.384   0.909
 4921W        W73315  36.858  25.791   1.866
 4922W        W73316   7.137  44.246  14.932
 4923W        W73317  28.623  16.708   0.522
 4924W        W73318  38.938  32.645  12.805
 4925W        W73319  41.624   2.500  14.525
 4926W        W73320  13.337  20.778  13.554
 4927W        W73321  37.014  16.483  12.431
 4928W        W73322  41.609  33.120  13.568
 4929W        W73323   1.234  18.380   3.361
 4930W        W73324  42.353   1.826  14.286
 4931W        W73325   1.310   2.578  11.880
 4932W        W73326  30.948  27.663  12.110
 4933W        W73327  33.053  25.502   2.290
 4934W        W73328  31.207   8.504   1.683
 4935W        W73329   7.803  16.114  10.775
 4936W        W73330  16.242   3.428   0.442
 4937W        W73331  17.597  12.483   4.497
 4938W        W73332  38.515  28.075   1.743
 4939W        W73333  27.274  37.776   2.706
 4940W        W73334   2.947  34.164  12.089
 4941W        W73335  30.504  29.980   3.088
 4942W        W73336  29.454  39.378  10.833
 4943W        W73337  32.552  19.266  13.908
 4944W        W73338  27.636  41.758   4.583
 4945W        W73339  34.330  41.037  11.671
 4946W        W73340  19.894  36.832   0.900
 4947W        W73341  37.478  32.991  13.987
 4948W        W73342  10.673  30.044  11.594
 4949W        W73343  13.795  31.380   0.373
 4950W        W73344  18.689  17.958  11.537
 4951W        W73345  10.758  25.923  10.385
 4952W        W73346  40.266  19.607   0.170
 4953W        W73347  42.285  19.751  10.512
 4954W        W73348  43.337   6.279  12.519
 4955W        W73349  21.515  39.065   3.383
 4956W        W73350  17.513   3.226  10.730
 4957W        W73351   7.731   0.723  11.164
 4958W        W73352  33.333  35.377   3.767
 4959W        W73353  23.703   1.914  13.156
 4960W        W73354  41.094  18.236  14.374
 4961W        W73355  21.458  33.881   2.857
 4962W        W73356   1.997  29.425  12.470
 4963W        W73357  26.518   6.247  10.684
 4964W        W73358   6.279  41.002   0.863
 4965W        W73359  15.267  22.489  11.100
 4966W        W73360  16.083  11.610  11.993
 4967W        W73361  15.542  39.652  12.921
 4968W        W73362  40.320  38.620   4.155
 4969W        W73363  25.768   8.826   2.303
 4970W        W73364  39.489  12.384  14.323
 4971W        W73365  13.213  36.482  14.392
 4972W        W73366  41.857  15.792   9.995
 4973W        W73367   0.009  35.935   0.872
 4974W        W73368   1.352   6.202   1.302
 4975W        W73369   9.691  44.394  14.780
 4976W        W73370  43.851   2.735   4.032
 4977W        W73371  37.723  22.971  13.551
 4978W        W73372  18.509   4.372  14.360
 4979W        W73373  13.372  16.909  14.732
 4980W        W73374  30.348  12.647  14.468
 4981W        W73375  25.951  27.934  14.954
 4982W        W73376   6.817   7.966   1.725
 4983W        W73377  15.757   5.408  12.478
 4984W        W73378  20.534  21.100   4.611
 4985W        W73379   8.533  41.677   4.048
 4986W        W73380  13.802  43.947   2.705
 4987W        W73381  11.764  31.933   0.441
 4988W        W73382  27.779  19.831  13.004
 4989W        W73383  28.170  11.146   1.193
 4990W        W73384  31.376  29.946  10.372
 4991W        W73385  43.536  16.849  13.595
 4992W        W73386  40.856  18.658   4.244
 4993W        W73387  38.565  31.101  12.410
 4994W        W73388   5.718  41.026  13.010
 4995W        W73389  39.603  12.814  11.409
 4996W        W73390  12.114  25.586   3.134
 4997W        W73391  24.665  25.892   1.256
 4998W        W73392  43.195   2.274  11.539
 4999W        W73393  38.986   6.185   4.430
 5000W        W73394  26.662  43.466   3.184
 5001W        W73395  29.608   8.218  12.575
 5002W        W73396  16.237  41.861   3.162
 5003W        W73397   6.633  20.991  12.048
 5004W        W73398  32.733  37.028  11.585
 5005W        W73399   4.798  26.686  12.617
 5006W        W73400   1.953  20.200   2.251
 5007W        W73401  13.247  29.050  14.320
 5008W        W73402  19.096  19.486   1.674
 5009W        W73403  20.020  33.392   1.819
 5010W        W73404  24.037  42.184  13.540
 5011W        W73405   0.723  30.115  13.411
 5012W        W73406   5.323  36.728   0.824
 5013W        W73407  42.451  41.410   1.257
 5014W        W73408  20.707  27.413   3.264
 5015W        W73409  31.923  41.961   4.607
 5016W        W73410  29.600  20.847   3.337
 5017W        W73411  25.693  12.245   1.215
 5018W        W73412  17.272  44.104   3.701
 5019W        W73413   7.178  23.919   3.195
 5020W        W73414   7.874   7.202   4.131
 5021W        W73415  31.151  16.869  11.607
 5022W        W73416  10.655  25.159  11.505
 5023W        W73417  38.057   1.525   1.396
 5024W        W73418  42.898  33.914  12.481
 5025W        W73419  17.104  19.496  12.709
 5026W        W73420  18.093   4.253  11.524
 5027W        W73421   8.224   8.609   3.173
 5028W        W73422  25.554   5.185  10.383
 5029W        W73423   1.955  15.024  12.058
 5030W        W73424  21.316  20.063  13.498
 5031W        W73425  31.174  33.544  12.391
 5032W        W73426   4.948  10.705  13.780
 5033W        W73427  12.899   5.872   3.340
 5034W        W73428  13.419   3.375  13.196
 5035W        W73429  19.599   9.420   1.262
 5036W        W73430  29.992   6.462   0.266
 5037W        W73431  33.717  28.232  14.457
 5038W        W73432  34.044  23.945   1.407
 5039W        W73433   4.953   8.964   1.929
 5040W        W73434  24.755  27.569   1.789
 5041W        W73435  21.039  42.049   1.064
 5042W        W73436  43.297   8.925  11.066
 5043W        W73437  10.851   8.133  14.313
 5044W        W73438  43.864  39.039   3.379
 5045W        W73439  15.267  37.916   0.895
 5046W        W73440   9.730  36.424   3.620
 5047W        W73441  43.750  11.151   2.203
 5048W        W73442  40.983  28.095  13.241
 5049W        W73443  39.522  43.026   3.109
 5050W        W73444   9.222  15.316   3.685
 5051W        W73445  12.460  42.460   2.341
 5052W        W73446  35.408  18.497  12.039
 5053W        W73447  15.621   8.251  13.436
 5054W        W73448  14.399   1.521   5.010
 5055W        W73449   6.381  13.111  12.169
 5056W        W73450  37.581  35.310  14.053
 5057W        W73451  41.807  42.244  14.935
 5058W        W73452  17.541   3.296  11.513
 5059W        W73453   6.429  32.191  12.386
 5060W        W73454  24.227   7.747   2.045
 5061W        W73455  33.706  24.615   2.677
 5062W        W73456  26.618   5.329   4.723
 5063W        W73457  11.717   1.330  10.355
 5064W        W73458  34.131  31.104  14.220
 5065W        W73459  17.546   2.408   2.684
 5066W        W73460  27.862   1.155   4.113
 5067W        W73461   5.242  17.493   4.567
 5068W        W73462   4.066  38.805   4.880
 5069W        W73463  36.979  10.185  14.439
 5070W        W73464  28.614  13.176   2.298
 5071W        W73465   0.948   5.539   3.594
 5072W        W73466  23.564  16.088  10.705
 5073W        W73467  13.660   1.314  13.956
 5074W        W73468  24.586  23.125  14.337
 5075W        W73469  27.426  30.293   1.896
 5076W        W73470  43.879  21.659  11.616
 5077W        W73471  21.889  21.484  11.056
 5078W        W73472  28.735  33.893   1.721
 5079W        W73473  40.047  38.334  10.684
 5080W        W73474   0.134  20.024  14.936
 5081W        W73475  17.223  31.553   3.804
 5082W        W73476  31.967  28.459  12.040
 5083W        W73477  38.110  38.787   2.300
 5084W        W73478   1.052  29.753   5.065
 5085W        W73479  36.631  14.315  11.408
 5086W        W73480   0.813   1.418  13.914
 5087W        W73481  33.220  16.585   3.084
 5088W        W73482  43.695  23.568   1.860
 5089W        W73483  38.610  24.045   4.097
 5090W        W73484  38.535  24.630   4.792
 5091W        W73485  20.560  30.233   3.895
 5092W        W73486  34.398  25.129   1.542
 5093W        W73487  22.011  28.798   0.979
 5094W        W73488   0.761  12.373  11.445
 5095W        W73489  26.743   7.370  13.410
 5096W        W73490   7.842  24.266   3.695
 5097W        W73491  20.175  36.776  12.827
 5098W        W73492  36.963  23.230   1.655
 5099W        W73493  32.479   2.971  13.103
 5100W        W73494  28.559  33.185  14.138
 5101W        W73495  15.647  38.522  11.144
 5102W        W73496   9.011  42.522   2.770
 5103W        W73497  12.471  42.391  11.898
 5104W        W73498  12.599  31.589  11.182
 5105W        W73499  22.648  44.325  11.423
 5106W        W73500   6.545   2.632   0.182
 5107W        W73501  10.508  40.314  11.078
 5108W        W73502   1.470  25.969  14.357
 5109W        W73503  17.577  39.066   3.997
 5110W        W73504   6.683   2.628   4.504
 5111W        W73505  30.786  13.013   4.612
 5112W        W73506  19.657   3.015  13.078
 5113W        W73507   8.456  22.755   0.965
 5114W        W73508   6.201  43.976  12.918
 5115W        W73509  25.324   5.905  11.939
 5116W        W73510  28.082  16.611  11.142
 5117W        W73511  39.048  35.359  10.729
 5118W        W73512  35.005  15.884   1.162
 5119W        W73513   0.854  31.134   0.528
 5120W        W73514  20.299  33.997  12.389
 5121W        W73515   9.147  24.229   2.358
 5122W        W73516   2.887  29.732   3.020
 5123W        W73517  37.072   9.220   4.869
 5124W        W73518  25.980  31.280  12.905
 5125W        W73519   1.414  23.119   0.242
 5126W        W73520  10.838  36.800  12.813
 5127W        W73521  44.966   9.786  12.932
 5128W        W73522  12.068  42.865   3.904
 5129W        W73523  44.635  17.712   2.946
 5130W        W73524   6.746  30.199  13.790
 5131W        W73525   5.757  22.335   0.285
 5132W        W73526  30.178   2.324   4.526
 5133W        W73527  19.702  33.809   4.385
 5134W        W73528   8.595  16.395  13.958
 5135W        W73529  11.261  30.642   3.978
 5136W        W73530  36.152  17.279  14.470
 5137W        W73531  39.749   2.429  13.680
 5138W        W73532  23.982  20.743  13.486
 5139W        W73533  13.753  29.629   3.248
 5140W        W73534  10.624  40.885  13.068
 5141W        W73535  25.041  33.577   3.444
 5142W        W73536  24.626  12.000   2.333
 5143W        W73537  18.903  38.289   0.999
 5144W        W73538  44.643  42.129   3.366
 5145W        W73539  42.436  31.995   0.441
 5146W        W73540  18.720   5.448   2.375
 5147W        W73541  30.356  17.741   0.304
 5148W        W73542  20.659  12.617   0.197
 5149W        W73543  30.307  20.142   2.389
 5150W        W73544  20.822  22.631   0.551
 5151W        W73545  12.749  22.949  13.305
 5152W        W73546  28.985   7.168  12.733
 5153W        W73547  18.200  31.372  11.476
 5154W        W73548  23.309  41.594  12.426
 5155W        W73549  32.346  23.840  10.625
 5156W        W73550   9.357   1.248  14.711
 5157W        W73551  31.620  28.504  13.776
 5158W        W73552  23.523  14.345   3.144
 5159W        W73553   6.848  24.269   3.550
 5160W        W73554  39.830  13.867  12.157
 5161W        W73555  39.776  11.299  11.125
 5162W        W73556  16.663   9.133  12.447
 5163W        W73557  10.019  21.346  11.005
 5164W        W73558  20.740   4.928  10.156
 5165W        W73559  30.678  20.549   2.419
 5166W        W73560   2.981  43.625   2.810
 5167W        W73561  39.038  36.400  12.882
 5168W        W73562  18.548  12.596  11.604
 5169W        W73563  11.448  27.487  14.231
 5170W        W73564  38.840  12.305   4.554
 5171W        W73565  41.915  37.506   2.614
 5172W        W73566   2.729  29.601  12.028
 5173W        W73567  18.640  17.940  12.505
 5174W        W73568  18.077  42.469   2.280
 5175W        W73569  11.166  29.097   2.889
 5176W        W73570  14.782   0.774  11.676
 5177W        W73571  23.160  12.815   4.686
 5178W        W73572   3.028   3.872  11.471
 5179W        W73573   0.309  33.065   2.626
 5180W        W73574  18.331   2.889  10.759
 5181W        W73575  38.683  17.719  10.732
 5182W        W73576  19.728  41.070   1.791
 5183W        W73577  36.623  24.444   1.592
 5184W        W73578   8.378  36.369  13.858
 5185W        W73579  10.188  24.100  10.592
 5186W        W73580  24.797  36.318   5.013
 5187W        W73581  36.631   0.374   2.729
 5188W        W73582   9.228  29.554  14.330
 5189W        W73583   5.141   4.364   1.799
 5190W        W73584  37.482  32.031  13.002
 5191W        W73585  32.581  42.508   4.352
 5192W        W73586  12.425   3.225   1.164
 5193W        W73587  41.278  37.995  13.105
 5194W        W73588  13.339   6.660  13.444
 5195W        W73589  24.152  42.578   4.547
 5196W        W73590  42.766  23.516   3.210
 5197W        W73591  28.675  14.125  13.463
 5198W        W73592  32.979  14.347   2.666
 5199W        W73593  32.596  23.640   2.275
 5200W        W73594  37.481   2.214   3.667
 5201W        W73595  41.469   0.445   2.641
 5202W        W73596  10.175  42.233  12.867
 5203W        W73597  26.337   9.768  12.159
 5204W        W73598   6.883  38.919  12.866
 5205W        W73599  14.221  25.159   4.062
 5206W        W73600  13.104   5.976  11.920
 5207W        W73601   7.171  44.316  11.732
 5208W        W73602  14.799  36.462  13.440
 5209W        W73603  26.954   2.833   1.283
 5210W        W73604   7.471   8.379   4.121
 5211W        W73605  38.585  37.033   4.896
 5212W        W73606  21.634  26.901  13.907
 5213W        W73607  19.120  26.702  11.500
 5214W        W73608  30.534  42.308   4.565
 5215W        W73609   2.448  40.094  13.812
 5216W        W73610  33.040  26.069   0.912
 5217W        W73611  44.860  19.033   3.418
 5218W        W73612   0.423  37.000   3.173
 5219W        W73613   0.774   3.403  14.782
 5220W        W73614  39.023   5.457   1.305
 5221W        W73615  39.062  30.100   3.948
 5222W        W73616  29.579  33.121   2.335
 5223W        W73617  11.858  44.339  14.967
 5224W        W73618   0.054  15.643  10.757
 5225W        W73619  39.324  20.699  13.539
 5226W        W73620  28.018  43.743  14.245
 5227W        W73621  41.816  12.687  11.987
 5228W        W73622   8.116   2.972  14.825
 5229W        W73623  43.345  26.804  14.771
 5230W        W73624  26.012  27.321   1.389
 5231W        W73625  36.857   8.202   4.660
 5232W        W73626   6.601  36.629   0.207
 5233W        W73627  39.126   0.723   0.934
 5234W        W73628   6.492   1.212   5.527
 5235W        W73629  12.746   6.609  14.363
 5236W        W73630  18.092   3.940  12.832
 5237W        W73631  21.194  44.159   5.069
 5238W        W73632  20.963  17.290  11.485
 5239W        W73633  18.707  33.615  12.908
 5240W        W73634  37.298  14.517   3.767
 5241W        W73635  33.959   1.625  11.260
 5242W        W73636  13.707  16.680   0.726
 5243W        W73637  22.090  43.875   4.590
 5244W        W73638  10.160  39.281   5.043
 5245W        W73639  26.664   1.445   3.869
 5246W        W73640   3.040  28.227  10.972
 5247W        W73641  36.428   3.606   3.988
 5248W        W73642  32.993  23.215   3.155
 5249W        W73643   5.695  10.268  10.924
 5250W        W73644  33.145  11.218  14.423
 5251W        W73645   5.860  41.914  14.967
 5252W        W73646   1.757   2.773  12.057
 5253W        W73647  32.119   8.663  10.896
 5254W        W73648   6.770  18.809   3.295
 5255W        W73649  24.434  19.231  13.417
 5256W        W73650  44.026   5.049   1.435
 5257W        W73651   6.800  10.881   2.721
 5258W        W73652  40.817  30.610  11.160
 5259W        W73653  41.281  39.438  14.915
 5260W        W73654  30.888   8.685   4.140
 5261W        W73655  21.726  31.302   2.927
 5262W        W73656  41.170  23.380   2.799
 5263W        W73657  41.356  25.232  12.498
 5264W        W73658  38.525   7.839  11.209
 5265W        W73659   5.642   2.291   1.408
 5266W        W73660  18.123  35.931   3.179
 5267W        W73661  38.872  35.178  14.550
 5268W        W73662   2.289  28.739  11.687
 5269W        W73663  40.507  18.724   0.709
 5270W        W73664   3.832  41.366  12.910
 5271W        W73665  27.219  37.814  11.153
 5272W        W73666   4.698  23.189   3.033
 5273W        W73667  32.535  44.305   2.595
 5274W        W73668  32.901  33.984  11.198
 5275W        W73669  15.122  38.875   0.898
 5276W        W73670   9.052  34.642  14.561
 5277W        W73671   9.149  32.954  13.764
 5278W        W73672  40.384  42.390   2.806
 5279W        W73673   3.366  19.032  12.946
 5280W        W73674   7.511  19.947   3.538
 5281W        W73675  12.699   1.806   2.415
 5282W        W73676   7.137   7.580  13.146
 5283W        W73677   1.886  28.647  11.999
 5284W        W73678  26.552  36.776   0.971
 5285W        W73679  42.353  36.570   4.662
 5286W        W73680   4.472   6.433   0.945
 5287W        W73681  23.215  32.717  13.648
 5288W        W73682  35.692  21.251   0.036
 5289W        W73683   0.266  16.499  14.092
 5290W        W73684  42.029  23.760   1.312
 5291W        W73685  11.811  10.801  13.506
 5292W        W73686  35.323  41.909   3.669
 5293W        W73687  40.765  36.337  10.167
 5294W        W73688  19.323  13.526  12.600
 5295W        W73689  40.103  35.666   3.209
 5296W        W73690   5.696  36.352   0.332
 5297W        W73691  32.054  42.113  12.025
 5298W        W73692  10.191   1.688   4.987
 5299W        W73693  26.123  23.111  13.308
 5300W        W73694  24.267  40.804   0.905
 5301W        W73695   5.912  19.576  14.555
 5302W        W73696  44.332  13.577   2.385
 5303W        W73697  17.803  43.479   4.221
 5304W        W73698  26.479  24.340  13.628
 5305W        W73699   2.433   1.920  11.164
 5306W        W73700  25.450  17.098   4.371
 5307W        W73701  37.154  20.164   3.724
 5308W        W73702  40.103  37.046   0.042
 5309W        W73703  34.965  34.421  11.711
 5310W        W73704  10.894  20.669   1.968
 5311W        W73705  24.244  11.592   2.275
 5312W        W73706   1.314  41.453   3.326
 5313W        W73707   5.044  25.591  10.274
 5314W        W73708  42.954   2.343  11.070
 5315W        W73709  37.037  16.360  13.943
 5316W        W73710   3.773  11.855  13.326
 5317W        W73711  40.372  39.341   0.296
 5318W        W73712  13.416   8.825   1.328
 5319W        W73713  25.310  42.433  13.846
 5320W        W73714  10.882  22.670   4.080
 5321W        W73715   8.193  44.584  12.623
 5322W        W73716   6.110  35.125   3.636
 5323W        W73717  17.950  15.716   4.912
 5324W        W73718  36.316  33.245  14.923
 5325W        W73719  18.053   5.843   0.808
 5326W        W73720  27.389  16.820  13.478
 5327W        W73721  34.016  34.748   2.201
 5328W        W73722  14.075  21.946   0.129
 5329W        W73723  13.457  15.321  12.433
 5330W        W73724  18.841  39.451   0.820
 5331W        W73725  12.836  33.047  13.388
 5332W        W73726  21.996   8.051  14.404
 5333W        W73727  35.356  23.044   3.583
 5334W        W73728  14.589   9.985   2.977
 5335W        W73729   8.237  36.017  14.585
 5336W        W73730  19.142  36.826   4.298
 5337W        W73731  34.042  29.806  13.734
 5338W        W73732  22.670  16.158  12.747
 5339W        W73733  34.485  13.153   3.036
 5340W        W73734  22.078  17.088  14.750
 5341W        W73735   3.491  13.361  11.117
 5342W        W73736  29.204  19.532  14.110
 5343W        W73737  36.249  20.340  11.703
 5344W        W73738  10.812  36.662   2.510
 5345W        W73739  33.701  23.912   1.001
 5346W        W73740  41.914  36.589  11.594
 5347W        W73741  42.122  14.944  13.283
 5348W        W73742  21.811  27.633  12.366
 5349W        W73743  27.968  34.553   4.153
 5350W        W73744  27.913  12.846  14.200
 5351W        W73745  42.302   7.134   4.690
 5352W        W73746   7.755  20.089   2.737
 5353W        W73747   6.652  38.786   4.353
 5354W        W73748  22.191  35.147  12.564
 5355W        W73749  30.081  18.577  14.466
 5356W        W73750  42.938   4.483   4.168
 5357W        W73751  38.315  18.306   0.273
 5358W        W73752  20.698   9.303  12.553
 5359W        W73753  27.986  35.879   3.428
 5360W        W73754   4.415  27.510   0.300
 5361W        W73755  17.722  43.996  11.383
 5362W        W73756  16.015  19.220  11.538
 5363W        W73757  36.420  16.797  14.654
 5364W        W73758   3.677  40.084   2.495
 5365W        W73759   1.480   9.925  12.613
 5366W        W73760  40.525   5.913   3.742
 5367W        W73761   8.873  23.865   9.871
 5368W        W73762   9.904   9.370   1.436
 5369W        W73763   7.293  34.491   4.091
 5370W        W73764  18.828  13.920  14.987
 5371W        W73765  15.204  39.156  12.953
 5372W        W73766   4.372  43.397   2.472
 5373W        W73767  35.785  25.537  10.571
 5374W        W73768  38.914  15.801  10.540
 5375W        W73769   2.664  24.022   1.199
 5376W        W73770  24.481  19.541  14.411
 5377W        W73771  41.341   8.778  10.515
 5378W        W73772  24.681  15.838  14.371
 5379W        W73773  22.007   9.399   2.109
 5380W        W73774  35.646  40.869  10.809
 5381W        W73775  24.247  39.647   5.071
 5382W        W73776  16.529  25.493  13.860
 5383W        W73777  13.265  37.800  12.290
 5384W        W73778  44.941  36.607  12.993
 5385W        W73779   3.385  33.405   0.223
 5386W        W73780  10.384  41.360   1.707
 5387W        W73781  24.912  27.230   0.991
 5388W        W73782   0.070  22.084  11.988
 5389W        W73783   3.346   9.106  13.612
 5390W        W73784   0.198  42.480  14.348
 5391W        W73785  30.094  19.059  14.224
 5392W        W73786   3.898  27.216  10.623
 5393W        W73787  41.616  12.111  14.353
 5394W        W73788  14.244  31.462  12.055
 5395W        W73789  32.715   3.453   3.246
 5396W        W73790   0.983  14.700  11.418
 5397W        W73791  37.040  39.868  14.544
 5398W        W73792  24.031  10.281   1.432
 5399W        W73793  18.301  22.214   2.590
 5400W        W73794  12.691  26.689  14.313
 5401W        W73795   8.880  42.015   4.260
 5402W        W73796  32.063  31.899   3.157
 5403W        W73797  38.783   9.156   1.317
 5404W        W73798  37.459  41.534   4.121
 5405W        W73799  29.541  36.119  12.875
 5406W        W73800   8.294  18.016  13.519
 5407W        W73801  14.547  42.076  12.418
 5408W        W73802  39.051  12.146   0.330
 5409W        W73803  43.848  26.162  11.530
 5410W        W73804  26.070   2.557  11.171
 5411W        W73805  22.149  17.185  14.215
 5412W        W73806  20.324  36.889   4.960
 5413W        W73807  35.489  14.815  13.849
 5414W        W73808  12.833   5.160   0.536
 5415W        W73809  44.380  32.030   2.754
 5416W        W73810  41.889  18.477  12.153
 5417W        W73811  26.892  27.018   2.797
 5418W        W73812  15.657   1.299   5.062
 5419W        W73813   1.317  11.748   4.673
 5420W        W73814  20.949  31.593   4.093
 5421W        W73815   7.651   7.619   0.282
 5422W        W73816  14.623  10.776   1.280
 5423W        W73817  39.312  14.590   0.812
 5424W        W73818   1.446  31.909   2.634
 5425W        W73819  28.005   2.356  11.897
 5426W        W73820   4.861   4.606  12.860
 5427W        W73821  43.231  39.430   5.569
 5428W        W73822  33.893  13.692   1.888
 5429W        W73823  37.803  20.599   1.413
 5430W        W73824  14.403  24.786  11.476
 5431W        W73825   1.876   0.284   2.988
 5432W        W73826   8.381  26.226  13.016
 5433W        W73827  29.300  34.742  12.382
 5434W        W73828  40.613  26.491  10.850
 5435W        W73829  44.950  29.205  11.999
 5436W        W73830  42.431  41.502   2.256
 5437W        W73831  29.182   0.816   4.180
 5438W        W73832  18.016  36.962  12.400
 5439W        W73833  38.861  33.221   2.267
 5440W        W73834  33.332  27.598  11.100
 5441W        W73835  21.921   5.267  10.417
 5442W        W73836   1.245  29.678  11.148
 5443W        W73837  11.437  27.608  12.115
 5444W        W73838  41.970  23.635  12.544
 5445W        W73839   0.767  19.155  11.636
 5446W        W73840  26.380  18.600  12.510
 5447W        W73841   9.231  29.361   2.867
 5448W        W73842  22.601   2.043  10.752
 5449W        W73843  37.456  44.259   4.697
 5450W        W73844  37.931  12.687   4.105
 5451W        W73845  44.355  11.275   3.734
 5452W        W73846   3.220   2.783   1.198
 5453W        W73847  42.271   8.231  14.264
 5454W        W73848  31.445  30.512  14.750
 5455W        W73849   6.285  41.468   4.124
 5456W        W73850   5.923  20.181   1.856
 5457W        W73851  25.760   2.091   4.627
 5458W        W73852  39.312  33.132  11.155
 5459W        W73853   3.387   9.216   4.648
 5460W        W73854  26.642  23.969   1.333
 5461W        W73855   1.480   4.676  14.420
 5462W        W73856  15.611   2.843  14.667
 5463W        W73857  39.982  37.781  13.426
 5464W        W73858  13.306   8.858   3.583
 5465W        W73859  14.537  41.469   5.400
 5466W        W73860  12.775  37.595   1.317
 5467W        W73861  40.855  26.820  13.893
 5468W        W73862   2.782  32.152   1.158
 5469W        W73863  29.280  27.166  12.863
 5470W        W73864  14.746   6.692   1.126
 5471W        W73865  14.505  37.742  11.062
 5472W        W73866   8.461  42.244  13.537
 5473W        W73867   7.274  17.004   2.291
 5474W        W73868  10.340   0.639   3.784
 5475W        W73869  26.462  37.466  14.513
 5476W        W73870   9.910  44.883   4.053
 5477W        W73871  16.669  26.018   2.726
 5478W        W73872   5.279  43.997   3.356
 5479W        W73873   1.747  30.980  11.578
 5480W        W73874  36.528  29.107   0.758
 5481W        W73875  40.831   9.349  11.587
 5482W        W73876  30.168  16.832  11.704
 5483W        W73877  14.636  28.948  11.538
 5484W        W73878  39.409  25.827  11.645
 5485W        W73879  24.853  30.984  11.134
 5486W        W73880  10.174  33.953   4.916
 5487W        W73881  17.814   2.535  12.190
 5488W        W73882  30.123  14.110  13.440
 5489W        W73883   7.079  12.227  10.669
 5490W        W73884  13.089  27.730   1.342
 5491W        W73885  28.875  13.065   4.171
 5492W        W73886  37.447  33.398  13.398
 5493W        W73887  44.953  23.561  11.625
 5494W        W73888  36.332  34.862   4.173
 5495W        W73889  17.624   8.327   1.363
 5496W        W73890  15.748  34.532   2.838
 5497W        W73891   1.729  22.589  13.372
 5498W        W73892  36.060  31.162  13.499
 5499W        W73893  14.994   3.445  11.658
 5500W        W73894  28.140  44.424  14.708
 5501W        W73895  10.076  35.100  11.593
 5502W        W73896   2.260   5.942   3.358
 5503W        W73897  28.067  24.037  14.366
 5504W        W73898  29.036   4.709   2.190
 5505W        W73899  28.691  17.841   3.202
 5506W        W73900   0.831  24.570  11.107
 5507W        W73901  38.070   7.291   1.485
 5508W        W73902   9.187  37.976   3.324
 5509W        W73903  16.444  28.550  12.986
 5510W        W73904  27.561   0.839  14.449
 5511W        W73905   6.841  38.887   2.958
 5512W        W73906  20.750   8.375  13.808
 5513W        W73907  38.024  43.498  10.357
 5514W        W73908   0.678  40.564  12.421
 5515W        W73909  17.620  11.613  13.528
 5516W        W73910  39.328  25.535  10.776
 5517W        W73911  35.152   9.134  12.952
 5518W        W73912  28.969  39.848   0.072
 5519W        W73913   6.950  38.972  11.132
 5520W        W73914  17.049   7.120  12.948
 5521W        W73915  17.682   7.548  14.868
 5522W        W73916  13.183  26.748  11.090
 5523W        W73917   2.721   6.343  13.615
 5524W        W73918   7.307  26.883  14.742
 5525W        W73919  42.544  32.926   2.228
 5526W        W73920   7.461  32.412  10.393
 5527W        W73921  19.986  29.244  10.108
 5528W        W73922  42.849   3.380  10.618
 5529W        W73923  41.845  43.396   2.284
 5530W        W73924  19.858  25.011   5.417
 5531W        W73925  12.633  20.116  14.682
 5532W        W73926  14.322  44.824   0.228
 5533W        W73927  29.944  24.262   1.861
 5534W        W73928  30.268  17.602  11.228
 5535W        W73929  15.766  34.007  11.508
 5536W        W73930   4.449  34.577  10.606
 5537W        W73931  18.821   3.898   3.740
 5538W        W73932   4.203  26.663   2.011
 5539W        W73933  42.498  38.999   0.733
 5540W        W73934  19.571  43.964  12.360
 5541W        W73935   1.613  34.314   0.966
 5542W        W73936  14.874  44.883  14.355
 5543W        W73937  18.123   3.005  13.446
 5544W        W73938   9.219  33.011   4.596
 5545W        W73939  21.202  32.349   9.900
 5546W        W73940   5.762  19.702   4.566
 5547W        W73941  11.390   7.358   0.437
 5548W        W73942  11.800  22.992  14.259
 5549W        W73943  13.226  21.704  12.507
 5550W        W73944  42.460  29.141  13.705
 5551W        W73945   2.936   0.762  12.993
 5552W        W73946  14.825  24.500  12.266
 5553W        W73947   1.244  29.346  12.950
 5554W        W73948  31.422  17.179  13.308
 5555W        W73949   6.920  22.739  10.088
 5556W        W73950  21.751  27.591   9.869
 5557W        W73951  23.708  43.878   4.297
 5558W        W73952  36.280   2.414  11.202
 5559W        W73953  33.491  12.245  10.082
 5560W        W73954  38.838   2.372   4.216
 5561W        W73955  23.353  40.777  12.087
 5562W        W73956  20.115  26.909   4.097
 5563W        W73957   9.475   9.814  10.691
 5564W        W73958  31.337  14.293  11.560
 5565W        W73959  16.569   7.121  13.493
 5566W        W73960  26.655  41.629  10.710
 5567W        W73961   9.101  25.124   5.024
 5568W        W73962  23.476   1.159  12.814
 5569W        W73963  30.614   8.494  12.515
 5570W        W73964  30.884  14.234   2.740
 5571W        W73965   2.749  22.318  13.583
 5572W        W73966  29.964  23.765   0.461
 5573W        W73967  35.326   0.428   0.310
 5574W        W73968  25.735  19.056   0.256
 5575W        W73969  15.067  35.456  13.545
 5576W        W73970   4.114  30.362   4.154
 5577W        W73971   7.177  22.035  14.309
 5578W        W73972   3.951  17.856  10.771
 5579W        W73973  21.033   6.112   4.616
 5580W        W73974  19.950  41.894   2.416
 5581W        W73975  18.644  27.947   1.809
 5582W        W73976   7.158  17.185   1.291
 5583W        W73977  31.062  18.863  11.132
 5584W        W73978   7.804  20.640   2.667
 5585W        W73979  38.131   6.134  14.715
 5586W        W73980  19.910  10.928   4.065
 5587W        W73981   9.429  40.785   3.122
 5588W        W73982  44.421  13.795   1.056
 5589W        W73983  38.892   3.811  11.320
 5590W        W73984  29.224   3.267   1.434
 5591W        W73985  34.901   1.624  11.949
 5592W        W73986  29.709   6.355  13.499
 5593W        W73987  11.070  16.692   3.195
 5594W        W73988  35.816   9.787  13.730
 5595W        W73989  20.184  34.117   3.312
 5596W        W73990  27.204  36.179   2.417
 5597W        W73991  20.373  23.250   3.233
 5598W        W73992  19.904  29.070   2.636
 5599W        W73993  17.820  14.024   3.724
 5600W        W73994   3.160  26.173   4.711
 5601W        W73995  30.798   3.874   4.262
 5602W        W73996  16.978  14.371  11.568
 5603W        W73997  36.034  32.032   0.044
 5604W        W73998  12.107   4.775  12.522
 5605W        W73999  25.859  17.522   4.131
 5606W        W74000  12.771  23.710  12.604
 5607W        W74001  17.323  11.728   2.177
 5608W        W74002  19.587  26.149  14.796
 5609W        W74003  42.899  33.584  14.710
 5610W        W74004  35.389  32.692  10.597
 5611W        W74005  35.361  19.971   2.831
 5612W        W74006  42.551  22.954   5.053
 5613W        W74007  35.556  42.856  13.143
 5614W        W74008  36.148  17.646   0.646
 5615W        W74009   3.361  44.522   1.758
 5616W        W74010  29.629   1.348   3.327
 5617W        W74011  42.404   2.949   0.998
 5618W        W74012  10.093  42.796  14.853
 5619W        W74013  12.490  27.406  12.213
 5620W        W74014  15.692  30.582  12.509
 5621W        W74015  13.694  31.919   4.734
 5622W        W74016  26.449   4.825  14.389
 5623W        W74017  43.816  20.007   0.698
 5624W        W74018  36.603  39.937   9.992
 5625W        W74019  18.739  34.457  13.874
 5626W        W74020  31.985   4.961   2.886
 5627W        W74021  34.195  35.956  10.623
 5628W        W74022  11.832  24.694   3.330
 5629W        W74023  38.745  10.601   4.652
 5630W        W74024  33.673  36.063   2.271
 5631W        W74025  24.822  33.121   3.299
 5632W        W74026  15.712  15.236  12.663
 5633W        W74027  15.695  42.477   1.750
 5634W        W74028  44.850  19.547   2.668
 5635W        W74029  21.736  37.550   2.397
 5636W        W74030  39.317  35.744  14.901
 5637W        W74031  38.707  25.040  12.833
 5638W        W74032  31.673  16.827  12.996
 5639W        W74033  43.675  40.453   2.151
 5640W        W74034  24.867  40.055  13.358
 5641W        W74035   5.499  16.736   0.668
 5642W        W74036  20.052  19.746   3.652
 5643W        W74037  16.249  18.100  13.313
 5644W        W74038  44.453  40.012  13.424
 5645W        W74039  16.663  18.444  13.289
 5646W        W74040  31.314  23.103  14.836
 5647W        W74041  18.079   9.233  12.682
 5648W        W74042  27.137  23.174   1.371
 5649W        W74043   3.405  30.304  14.404
 5650W        W74044  11.197  27.201   4.095
 5651W        W74045   5.719   8.197   4.665
 5652W        W74046   8.851  29.187  12.330
 5653W        W74047   8.420   8.852  13.636
 5654W        W74048   2.202   2.410   0.835
 5655W        W74049  12.305  35.955  10.682
 5656W        W74050  39.059  37.098   3.086
 5657W        W74051  12.973  33.371   0.955
 5658W        W74052  27.529  39.427  12.951
 5659W        W74053  15.846  36.372   0.914
 5660W        W74054   9.587  22.607   1.791
 5661W        W74055   1.424  13.198   1.842
 5662W        W74056   9.812  39.377   4.678
 5663W        W74057  22.565  23.397  10.326
 5664W        W74058   7.666  25.038   3.264
 5665W        W74059  11.918  27.723  14.259
 5666W        W74060  38.887  41.536   2.275
 5667W        W74061  43.688  42.899   2.825
 5668W        W74062  39.377  43.932   3.197
 5669W        W74063  25.089  40.060   2.765
 5670W        W74064  28.719   2.848   3.652
 5671W        W74065  22.160  26.675   3.197
 5672W        W74066  31.162  22.082   1.178
 5673W        W74067  20.192   4.303  11.535
 5674W        W74068  21.095  20.545  13.402
 5675W        W74069   5.166  18.838   1.830
 5676W        W74070  41.431  15.513   4.121
 5677W        W74071  33.396   0.233   4.915
 5678W        W74072  36.794  39.839   0.040
 5679W        W74073  30.628  22.725  13.414
 5680W        W74074  35.566  41.951   4.126
 5681W        W74075   8.849  20.880   1.355
 5682W        W74076   0.889  28.520   2.717
 5683W        W74077   9.034  40.503   0.498
 5684W        W74078   5.214   7.525  14.024
 5685W        W74079  20.587  22.189   1.193
 5686W        W74080  18.741   1.216  10.483
 5687W        W74081  42.048  43.259   3.631
 5688W        W74082  35.879  39.591  11.116
 5689W        W74083  42.438   6.562  11.607
 5690W        W74084  28.783  44.611  11.108
 5691W        W74085  44.357  16.775  12.116
 5692W        W74086   1.866  18.300   0.484
 5693W        W74087   9.444  38.907  10.021
 5694W        W74088  39.876  14.108   4.747
 5695W        W74089  15.788  35.940  13.759
 5696W        W74090  27.615  21.348   2.241
 5697W        W74091  38.403  24.173   4.566
 5698W        W74092  43.259  34.941   2.380
 5699W        W74093   5.229  44.243  10.657
 5700W        W74094  36.078  34.288   1.949
 5701W        W74095  27.504  41.459   0.292
 5702W        W74096  19.394  33.437  11.508
 5703W        W74097  12.786  10.499   3.289
 5704W        W74098   8.808  35.101  10.671
 5705W        W74099  37.131  34.555  11.645
 5706W        W74100  33.682  20.077   0.644
 5707W        W74101  29.042  24.515  13.375
 5708W        W74102   0.513  22.206   0.418
 5709W        W74103  41.295  17.260   1.936
 5710W        W74104   7.917   5.759  12.568
 5711W        W74105  19.954  37.644   5.079
 5712W        W74106  38.445  43.487   4.304
 5713W        W74107  15.652  17.562  12.272
 5714W        W74108  24.550  11.333  14.525
 5715W        W74109   3.297  28.314  11.740
 5716W        W74110  15.633  25.162   2.663
 5717W        W74111  40.722  33.555   3.680
 5718W        W74112  44.651  28.940  11.594
 5719W        W74113  30.594  34.543   2.004
 5720W        W74114  28.628  28.444  10.958
 5721W        W74115  40.466  24.719   2.776
 5722W        W74116   3.457  25.176  10.850
 5723W        W74117  25.999  24.166  13.459
 5724W        W74118  44.938  33.582  14.835
 5725W        W74119  27.573  20.902   1.330
 5726W        W74120  11.307  11.159   2.027
 5727W        W74121   4.929  27.553  11.447
 5728W        W74122  39.907  17.779   3.611
 5729W        W74123  31.696  44.201  12.415
 5730W        W74124  34.569  39.891  14.454
 5731W        W74125  20.470  38.813  14.803
 5732W        W74126  33.172  42.938   4.200
 5733W        W74127  36.876  41.004  11.406
 5734W        W74128  20.301  29.066  12.911
 5735W        W74129  19.621  24.067  13.680
 5736W        W74130   6.153  18.134  14.938
 5737W        W74131  24.655  21.026  10.585
 5738W        W74132  19.765  27.144  12.653
 5739W        W74133  43.400  16.051  12.456
 5740W        W74134  19.936  36.385  11.146
 5741W        W74135  28.039  31.944  12.324
 5742W        W74136   9.898   2.219   2.433
 5743W        W74137  31.703  15.939   1.371
 5744W        W74138  12.364  35.079  14.091
 5745W        W74139  33.474  30.946   4.321
 5746W        W74140   2.636  36.111   5.114
 5747W        W74141   7.353  43.242  11.054
 5748W        W74142  30.549   4.329   2.743
 5749W        W74143  27.776  26.339   4.558
 5750W        W74144  42.353  14.637   1.303
 5751W        W74145  40.446  35.895   1.373
 5752W        W74146  38.564  20.615  11.497
 5753W        W74147  14.809  37.431  13.610
 5754W        W74148  15.715  23.882  12.960
 5755W        W74149  23.255  38.947  13.647
 5756W        W74150  19.539   9.841   1.572
 5757W        W74151  12.807  36.338  11.689
 5758W        W74152   2.452  24.942   0.382
 5759W        W74153   3.757  32.475  12.112
 5760W        W74154   4.937  32.690   2.810
 5761W        W74155   4.278  20.506   1.395
 5762W        W74156   7.866  43.397   4.884
 5763W        W74157   4.833  41.202  10.229
 5764W        W74158  20.250  41.481   3.344
 5765W        W74159  27.328   9.030  11.657
 5766W        W74160  29.807   4.856  13.457
 5767W        W74161  21.286  29.899  11.649
 5768W        W74162   1.496  25.571  14.733
 5769W        W74163   9.927  24.137   4.169
 5770W        W74164  30.250  18.910  13.711
 5771W        W74165  42.237  42.576   2.398
 5772W        W74166  24.911  10.320   3.280
 5773W        W74167  26.982  13.724  14.456
 5774W        W74168  23.700  17.248  12.076
 5775W        W74169  35.711  21.524   2.197
 5776W        W74170   8.222  22.048  14.958
 5777W        W74171  40.488   7.425   1.458
 5778W        W74172  17.995  38.318  12.892
 5779W        W74173  20.844  36.966   0.868
 5780W        W74174  27.518  10.602   4.836
 5781W        W74175  17.155  17.122  11.162
 5782W        W74176   5.174  25.029   3.110
 5783W        W74177  30.159  43.213   0.364
 5784W        W74178  32.945  21.569   0.779
 5785W        W74179   5.209  36.574  13.023
 5786W        W74180  26.072  33.168   1.220
 5787W        W74181  29.131  34.232   4.689
 5788W        W74182  33.044   3.821  14.211
 5789W        W74183  36.635  43.711  13.041
 5790W        W74184  15.783  12.613  12.502
 5791W        W74185  19.949  20.905  10.234
 5792W        W74186  23.775  44.504  14.886
 5793W        W74187  13.851   3.610   2.851
 5794W        W74188  20.586  10.899  13.504
 5795W        W74189  35.490   2.989   2.216
 5796W        W74190  14.435   0.733   4.073
 5797W        W74191   0.988   1.466   3.217
 5798W        W74192   6.866  40.334   2.182
 5799W        W74193   5.023  22.233  12.989
 5800W        W74194   9.623  29.627  10.424
 5801W        W74195   3.279  36.133   4.921
 5802W        W74196  36.825  36.267  12.066
 5803W        W74197   8.286  42.335  14.342
 5804W        W74198   1.792   5.100  12.595
 5805W        W74199  13.794  23.673  13.914
 5806W        W74200  40.432  38.823  13.926
 5807W        W74201  12.505  18.588  12.989
 5808W        W74202   1.043  13.196  13.913
 5809W        W74203  26.501  26.506   4.115
 5810W        W74204  23.564  24.700  14.534
 5811W        W74205  10.763   5.346   0.388
 5812W        W74206   7.165  10.273  14.757
 5813W        W74207  28.758   3.927   4.261
 5814W        W74208  19.189  25.197   2.770
 5815W        W74209  13.304  16.586  10.689
 5816W        W74210  39.579   8.648   3.542
 5817W        W74211  41.643  24.895  12.907
 5818W        W74212  35.008  27.597  14.472
 5819W        W74213  14.884   0.447   3.254
 5820W        W74214  44.278   4.898  12.529
 5821W        W74215  39.110  39.534  12.153
 5822W        W74216   8.711  40.468   0.907
 5823W        W74217  11.480  21.114   2.727
 5824W        W74218  13.749   7.017  13.450
 5825W        W74219  25.550  16.571   2.700
 5826W        W74220  44.419   0.797   4.970
 5827W        W74221  31.690   1.133   4.917
 5828W        W74222   4.472  11.169   4.434
 5829W        W74223  11.610   9.638  13.373
 5830W        W74224  32.287  30.429   4.123
 5831W        W74225  10.117   2.043  14.807
 5832W        W74226  42.370  35.492   2.376
 5833W        W74227  38.097  36.300  11.980
 5834W        W74228  29.429  43.680   3.696
 5835W        W74229  10.691  12.162  13.723
 5836W        W74230  23.597  27.942  14.289
 5837W        W74231   4.392  26.312   4.161
 5838W        W74232  43.217  25.976  14.466
 5839W        W74233   5.976  38.339   0.851
 5840W        W74234  23.513   3.273  13.273
 5841W        W74235   5.283   0.684   0.859
 5842W        W74236  26.716  21.093  13.485
 5843W        W74237  21.689  43.285   2.703
 5844W        W74238  33.558   8.848  14.864
 5845W        W74239  34.932   2.424  14.059
 5846W        W74240  15.409  16.169  11.938
 5847W        W74241   6.467  27.931  12.547
 5848W        W74242  37.319  12.275   2.582
 5849W        W74243  35.370  18.213   3.751
 5850W        W74244  30.082  41.526   4.624
 5851W        W74245  38.987  40.278  10.767
 5852W        W74246  43.504  40.710   5.009
 5853W        W74247  26.474   2.885  14.483
 5854W        W74248  30.114  30.715  14.464
 5855W        W74249  44.373  35.427  12.964
 5856W        W74250  16.311  38.658   0.768
 5857W        W74251   7.674   8.611  11.851
 5858W        W74252  35.468   4.818  10.380
 5859W        W74253  39.693  11.373   0.261
 5860W        W74254   5.710  23.673  10.293
 5861W        W74255  27.552  42.045   1.766
 5862W        W74256  17.054  38.490  12.120
 5863W        W74257  26.634   6.911   2.806
 5864W        W74258  19.614  24.174   2.127
 5865W        W74259  12.641  11.407  12.480
 5866W        W74260  13.535  14.282  12.014
 5867W        W74261  14.286  30.844   3.356
 5868W        W74262   5.214  16.414  12.975
 5869W        W74263   2.459   5.838   0.352
 5870W        W74264   5.668   9.645   4.498
 5871W        W74265  17.585   5.134  11.609
 5872W        W74266   6.537  20.639   3.260
 5873W        W74267   2.295  24.765  10.816
 5874W        W74268  39.476   5.190   2.445
 5875W        W74269  18.078  43.798  14.591
 5876W        W74270  23.267  21.688  14.409
 5877W        W74271  11.757  33.501   3.574
 5878W        W74272  12.606   5.717   3.759
 5879W        W74273  18.209   2.447   4.731
 5880W        W74274  28.609  42.685  13.871
 5881W        W74275  11.580  16.845  11.103
 5882W        W74276  31.066  38.726   4.211
 5883W        W74277  36.456  12.734   0.032
 5884W        W74278   8.425  15.643   1.428
 5885W        W74279  13.337  21.524  10.790
 5886W        W74280   0.669  16.291  12.869
 5887W        W74281  30.957  32.222   3.642
 5888W        W74282  23.109  28.994  13.969
 5889W        W74283   7.271   8.854  12.081
 5890W        W74284  27.941  44.917  10.868
 5891W        W74285  26.455   4.970   1.378
 5892W        W74286   5.787  11.492  14.225
 5893W        W74287  20.270  22.710  13.393
 5894W        W74288  16.370  33.600  12.786
 5895W        W74289  16.159  36.842   3.424
 5896W        W74290  34.022  34.766   1.698
 5897W        W74291  26.819  16.368   2.473
 5898W        W74292  14.194  37.083  13.891
 5899W        W74293   4.001  12.244   0.632
 5900W        W74294   3.446   1.707  14.995
 5901W        W74295  16.719  23.201  13.261
 5902W        W74296  41.696   4.855   3.678
 5903W        W74297  25.493  29.076   3.242
 5904W        W74298  26.380  34.780  13.514
 5905W        W74299  34.516  35.642  12.372
 5906W        W74300  32.132  31.209  13.946
 5907W        W74301  22.988  43.658   1.851
 5908W        W74302  23.739  20.335  13.240
 5909W        W74303   8.937  16.069  12.610
 5910W        W74304  26.452   2.883  11.270
 5911W        W74305  17.261  12.476   0.612
 5912W        W74306  19.111  14.343  11.360
 5913W        W74307  19.620  31.486   3.090
 5914W        W74308  28.667  11.870  13.843
 5915W        W74309  14.388  18.765   4.258
 5916W        W74310   9.525   3.842   0.345
 5917W        W74311  41.614   3.468  11.915
 5918W        W74312  11.824  10.285  13.634
 5919W        W74313  16.703  13.588   4.596
 5920W        W74314  17.117  43.899  13.432
 5921W        W74315  20.594  19.607  13.504
 5922W        W74316  15.096   2.646  12.608
 5923W        W74317   5.111   2.708  10.241
 5924W        W74318  30.629   2.064   2.808
 5925W        W74319  33.706   1.190   0.769
 5926W        W74320  36.956  22.215  13.641
 5927W        W74321  32.948  28.227   1.218
 5928W        W74322  42.602   1.456   3.463
 5929W        W74323   0.739  35.023   0.911
 5930W        W74324  44.989  40.495   1.834
 5931W        W74325  35.120  21.764  12.114
 5932W        W74326  36.093  29.522   2.161
 5933W        W74327  31.904  38.804   0.241
 5934W        W74328  15.618  25.038   0.637
 5935W        W74329  18.627  17.607   3.210
 5936W        W74330  13.059  24.616   4.631
 5937W        W74331  36.872  33.747   3.614
 5938W        W74332  29.056   8.278  13.484
 5939W        W74333   8.379  11.472  12.306
 5940W        W74334  34.057   3.468   3.129
 5941W        W74335   4.298  25.516  14.387
 5942W        W74336  32.371  26.176  13.571
 5943W        W74337  44.039  24.652  10.627
 5944W        W74338  37.837  21.377   0.915
 5945W        W74339   9.342  12.167   1.279
 5946W        W74340  36.474  15.603   4.333
 5947W        W74341  19.754  18.243  11.189
 5948W        W74342  10.341  41.857  11.501
 5949W        W74343   9.262  25.228  13.801
 5950W        W74344  17.860  14.854   0.408
 5951W        W74345   5.877  22.671   0.746
 5952W        W74346  13.868  31.459  14.392
 5953W        W74347  26.027   4.356   3.314
 5954W        W74348  34.884  44.133  10.783
 5955W        W74349  34.063  29.601  13.245
 5956W        W74350  35.304  15.107   0.844
 5957W        W74351  37.096  13.209   4.547
 5958W        W74352   2.110  31.756  11.612
 5959W        W74353  26.269   8.595  13.554
 5960W        W74354  44.168  40.898   1.748
 5961W        W74355  12.887  34.872   3.810
 5962W        W74356  37.060  43.083  12.537
 5963W        W74357  12.328   1.698   3.618
 5964W        W74358  20.544  15.720   5.367
 5965W        W74359  36.867  27.665   1.681
 5966W        W74360   3.595  29.283  14.501
 5967W        W74361   7.262   9.599  12.978
 5968W        W74362  30.805   2.904  13.913
 5969W        W74363  12.199  10.183   1.384
 5970W        W74364  37.447   9.296   1.170
 5971W        W74365   7.897  33.581   3.344
 5972W        W74366   2.026   7.790   3.054
 5973W        W74367   4.393  17.767   3.424
 5974W        W74368  16.044  33.354   0.293
 5975W        W74369  26.955  16.822   2.262
 5976W        W74370  22.037  12.811   3.852
 5977W        W74371  31.060  38.886  12.736
 5978W        W74372  44.492   4.412  12.443
 5979W        W74373  43.928  26.517  10.574
 5980W        W74374  11.322  28.840   3.309
 5981W        W74375   4.372  23.807  10.279
 5982W        W74376   3.374  25.943   4.295
 5983W        W74377  25.144   8.497   0.357
 5984W        W74378  28.240   0.950   4.937
 5985W        W74379  40.113  41.882  11.176
 5986W        W74380  15.066  32.848  10.804
 5987W        W74381  11.093  25.759   3.181
 5988W        W74382  24.887   4.200  12.222
 5989W        W74383  10.771  28.248   9.668
 5990W        W74384  31.440  25.014   0.696
 5991W        W74385  22.764  28.885  11.438
 5992W        W74386  27.851  38.416  11.697
 5993W        W74387  14.110   4.161  14.459
 5994W        W74388  12.781   3.347  13.920
 5995W        W74389  38.205   6.323   4.099
 5996W        W74390  35.419   1.517   4.682
 5997W        W74391  35.887  30.100  11.576
 5998W        W74392  23.428  25.454   4.102
 5999W        W74393  27.144  26.067  12.725
 6000W        W74394  29.125  22.438  10.987
 6001W        W74395  32.289   2.536  11.141
 6002W        W74396  44.026  11.231   4.205
 6003W        W74397  40.625  25.082   0.392
 6004W        W74398  24.501  20.688   0.935
 6005W        W74399  42.774   8.568   4.543
 6006W        W74400  13.704  20.108  10.674
 6007W        W74401  18.386  43.875   0.008
 6008W        W74402  33.658   9.982   3.210
 6009W        W74403  33.656  16.287  14.042
 6010W        W74404  18.810  22.328  12.425
 6011W        W74405  10.845   7.299  14.754
 6012W        W74406  20.875  17.266   2.360
 6013W        W74407   6.073  31.354   3.456
 6014W        W74408  42.412  11.550   4.907
 6015W        W74409  16.770  40.310   2.587
 6016W        W74410  21.720  26.977  11.645
 6017W        W74411  39.180  43.986   2.319
 6018W        W74412   8.671  37.653  10.349
 6019W        W74413  43.758  22.260   2.286
 6020W        W74414  27.073  10.942   3.141
 6021W        W74415  34.533  43.734  11.074
 6022W        W74416  18.131   9.351   3.864
 6023W        W74417  29.479  31.224  14.424
 6024W        W74418  38.310  41.924  11.247
 6025W        W74419  26.871   8.178   1.751
 6026W        W74420  10.739   5.853  14.057
 6027W        W74421  13.437  31.117   1.270
 6028W        W74422  25.625  37.701  10.304
 6029W        W74423  10.752  44.572  10.505
 6030W        W74424  26.068   4.408  11.541
 6031W        W74425   9.612   3.951  11.063
 6032W        W74426  37.346   1.153  11.185
 6033W        W74427  41.420  10.649   2.743
 6034W        W74428  19.511  26.569   0.837
 6035W        W74429   1.559  15.203   1.251
 6036W        W74430   5.295   1.830  12.934
 6037W        W74431   2.138   1.336  13.409
 6038W        W74432   4.716  12.205  13.924
 6039W        W74433  28.645  32.351   4.644
 6040W        W74434  12.613  28.043  13.959
 6041W        W74435   1.781  40.302  14.854
 6042W        W74436  27.707  34.902  12.909
 6043W        W74437   4.679  44.460   3.590
 6044W        W74438  21.667   8.357  11.224
 6045W        W74439   6.615  17.554  13.845
 6046W        W74440  42.033  26.776   0.324
 6047W        W74441   2.089  43.997  12.114
 6048W        W74442   6.692   7.737  13.892
 6049W        W74443  16.477   5.592  11.776
 6050W        W74444  43.404  11.680  11.176
 6051W        W74445  10.587  28.808   4.128
 6052W        W74446  16.185  18.189  10.226
 6053W        W74447   2.323   8.796   2.693
 6054W        W74448  19.500   7.249   3.850
 6055W        W74449  34.472  39.052   1.954
 6056W        W74450  31.597  20.822   1.516
 6057W        W74451   4.156  26.207  12.267
 6058W        W74452  13.733  29.408   4.212
 6059W        W74453  12.318  25.083   4.956
 6060W        W74454  14.717  28.843   2.171
 6061W        W74455  37.548  28.475  12.054
 6062W        W74456  18.873  14.766   9.972
 6063W        W74457  13.368  15.990   3.292
 6064W        W74458  24.211  27.469  14.235
 6065W        W74459  22.132  25.164  12.431
 6066W        W74460  27.505  25.125  11.952
 6067W        W74461  20.342   6.812   0.666
 6068W        W74462   8.784  20.554   4.563
 6069W        W74463  35.383   0.021  12.502
 6070W        W74464   7.776  29.015  14.377
 6071W        W74465  10.618   9.169   2.719
 6072W        W74466  43.841   3.930  14.524
 6073W        W74467  40.236  29.626  12.752
 6074W        W74468  14.507  14.172  14.794
 6075W        W74469   0.746  23.692   0.445
 6076W        W74470   0.721  32.947   1.288
 6077W        W74471  17.675   7.060  11.829
 6078W        W74472  28.675  43.407   1.782
 6079W        W74473  21.618  38.972   3.876
 6080W        W74474  31.006  42.725   2.343
 6081W        W74475  27.883   0.011   4.525
 6082W        W74476   5.816  10.306  13.296
 6083W        W74477  18.136  11.810   4.082
 6084W        W74478  28.918  16.668  13.374
 6085W        W74479   9.768  11.329  12.691
 6086W        W74480  36.873  21.474   1.277
 6087W        W74481  43.582  10.063  11.552
 6088W        W74482  33.908   2.896   1.291
 6089W        W74483  11.427  11.346   4.943
 6090W        W74484   2.870  33.862   3.820
 6091W        W74485  28.993  36.803  13.860
 6092W        W74486  14.590  17.319   2.684
 6093W        W74487   4.407  16.446   1.944
 6094W        W74488   6.933  40.543   1.390
 6095W        W74489  15.044  15.531  13.385
 6096W        W74490   8.912  15.788   2.130
 6097W        W74491  15.796  19.519  10.168
 6098W        W74492  42.298   2.798   4.269
 6099W        W74493  40.248  25.478   4.085
 6100W        W74494   7.347  40.813  11.181
 6101W        W74495  21.730  24.807   1.891
 6102W        W74496  37.402   7.280   0.822
 6103W        W74497  29.007  12.867  11.301
 6104W        W74498  43.584  39.307  13.045
 6105W        W74499  11.778  32.085  12.675
 6106W        W74500  30.666   9.252  12.910
 6107W        W74501  33.471  15.446   0.499
 6108W        W74502  27.733  20.599   4.583
 6109W        W74503   3.444  24.749   2.311
 6110W        W74504  36.435   0.797  11.671
 6111W        W74505  17.174  12.622   1.544
 6112W        W74506   3.515  39.102   2.816
 6113W        W74507  39.257  29.118  14.321
 6114W        W74508  40.232  17.106   0.382
 6115W        W74509  28.497  26.407   2.306
 6116W        W74510  38.855  28.287   4.218
 6117W        W74511  32.738   6.687  13.246
 6118W        W74512  37.558  21.438  11.967
 6119W        W74513  37.076  31.925   0.059
 6120W        W74514  11.202  10.457   0.768
 6121W        W74515  26.187  35.867  11.613
 6122W        W74516  32.317  11.722  14.279
 6123W        W74517   1.387  25.204   1.341
 6124W        W74518  11.456  18.677   3.178
 6125W        W74519  10.575   1.356   4.845
 6126W        W74520  21.616  10.232   5.206
 6127W        W74521  23.434  17.643  14.741
 6128W        W74522  25.834  26.721   3.201
 6129W        W74523  19.816  11.128   0.903
 6130W        W74524  35.234   5.122   1.596
 6131W        W74525  12.205  18.731   0.848
 6132W        W74526   7.940  15.710  14.021
 6133W        W74527  13.829  16.663  11.922
 6134W        W74528  41.467  37.148   4.024
 6135W        W74529  34.580   8.476   2.218
 6136W        W74530  28.089  35.381  10.625
 6137W        W74531  44.493  16.184  11.575
 6138W        W74532   6.913   0.325   2.897
 6139W        W74533   7.324  33.835  11.642
 6140W        W74534  43.273  35.427  11.916
 6141W        W74535  37.327  41.058   3.227
 6142W        W74536  35.434  16.126  14.392
 6143W        W74537  32.013  37.131  12.499
 6144W        W74538   4.552  14.514   3.537
 6145W        W74539  27.068  20.721  13.400
 6146W        W74540  28.080  29.887   4.190
 6147W        W74541  18.572  29.690  11.124
 6148W        W74542  32.417  30.122   0.305
 6149W        W74543   0.169  17.748  10.873
 6150W        W74544  38.037  29.131  11.233
 6151W        W74545  31.087   4.873   0.325
 6152W        W74546   0.203  40.352  14.999
 6153W        W74547   0.046   9.311   0.333
 6154W        W74548  37.338  33.974  12.199
 6155W        W74549  31.581  36.014  13.729
 6156W        W74550   0.845  44.815   4.382
 6157W        W74551  27.675  26.630   3.735
 6158W        W74552  37.482  39.073   0.926
 6159W        W74553   2.986  44.329   0.777
 6160W        W74554   5.474  34.544   4.672
 6161W        W74555  18.178  12.216  11.952
 6162W        W74556  32.519  30.149  14.412
 6163W        W74557  24.493  13.728  14.318
 6164W        W74558  27.217   0.492   5.030
 6165W        W74559  18.684  25.677   9.875
 6166W        W74560  20.481  25.099   2.747
 6167W        W74561  41.504  36.388  14.322
 6168W        W74562  31.972  18.737   3.719
 6169W        W74563  15.461   3.587  12.034
 6170W        W74564  42.258  11.201   2.367
 6171W        W74565  33.168  24.523   0.082
 6172W        W74566  15.220  16.270   2.230
 6173W        W74567  29.520  21.700  12.620
 6174W        W74568  16.045   3.031  10.766
 6175W        W74569  23.964  44.372   4.240
 6176W        W74570  23.587  17.215  14.982
 6177W        W74571  35.543  15.575   3.867
 6178W        W74572  12.098  10.688   1.283
 6179W        W74573  15.873  16.787   1.337
 6180W        W74574  42.215  22.466  12.094
 6181W        W74575  19.553  33.100   2.673
 6182W        W74576  11.543  28.583   1.379
 6183W        W74577  32.042   7.320   0.396
 6184W        W74578   2.469  34.645  13.789
 6185W        W74579  44.409  14.714  10.315
 6186W        W74580   7.828  22.668   3.375
 6187W        W74581  41.438  19.767   1.612
 6188W        W74582  27.341   1.003  14.894
 6189W        W74583   4.646   3.851  14.713
 6190W        W74584  32.256   8.669  10.410
 6191W        W74585  17.524  18.822  10.771
 6192W        W74586   4.388  38.387  12.112
 6193W        W74587  12.480  14.691  13.004
 6194W        W74588  43.878  18.787   4.656
 6195W        W74589   3.301  15.433  14.988
 6196W        W74590  35.486  25.746  12.073
 6197W        W74591  23.768  32.309  11.052
 6198W        W74592  26.891  23.302  10.965
 6199W        W74593   8.102  23.950  14.822
 6200W        W74594  15.650   6.758  13.147
 6201W        W74595  28.492  23.387  12.918
 6202W        W74596   9.417  44.269   4.564
 6203W        W74597  24.420  10.140   3.240
 6204W        W74598  22.508  31.632   0.763
 6205W        W74599  25.901   8.746   3.194
 6206W        W74600  16.995  19.780  14.602
 6207W        W74601  43.353  17.362   0.274
 6208W        W74602  40.801   6.393  14.425
 6209W        W74603  43.767  38.051  12.517
 6210W        W74604  29.056   6.160   3.216
 6211W        W74605  36.554  36.302  11.194
 6212W        W74606   9.162  17.258   2.155
 6213W        W74607   6.470  25.337   1.409
 6214W        W74608  36.331  10.102  13.815
 6215W        W74609  28.633  44.875  14.085
 6216W        W74610   3.772  15.763   4.534
 6217W        W74611  32.170  27.196  14.490
 6218W        W74612  23.559  33.725   0.408
 6219W        W74613  28.545  26.206  11.640
 6220W        W74614  18.064  43.433   1.224
 6221W        W74615   2.319  35.956   4.617
 6222W        W74616  40.201   1.016   1.149
 6223W        W74617  31.399  37.600  12.775
 6224W        W74618   0.725  19.626   1.145
 6225W        W74619  17.272  38.809   3.617
 6226W        W74620   1.945  21.983  12.089
 6227W        W74621  32.765  44.209   3.450
 6228W        W74622  14.732  10.768  11.079
 6229W        W74623  27.949  26.400  10.232
 6230W        W74624  18.903   3.698   4.517
 6231W        W74625   6.771   2.672  10.914
 6232W        W74626  17.637  12.366   3.632
 6233W        W74627  26.970  25.121   2.694
 6234W        W74628  13.757  42.441   0.976
 6235W        W74629  24.534   5.259   4.895
 6236W        W74630  11.512  29.915  12.484
 6237W        W74631  28.421  31.573  14.955
 6238W        W74632  39.437  12.718   3.211
 6239W        W74633  11.466  14.761  13.072
 6240W        W74634  24.221  39.880   2.489
 6241W        W74635   6.171  44.265  13.350
 6242W        W74636  44.740  12.642  12.221
 6243W        W74637  13.785  22.717   1.783
 6244W        W74638  30.902  33.605  10.750
 6245W        W74639  31.219  26.979   3.291
 6246W        W74640  16.326  13.642  12.059
 6247W        W74641  41.993  14.978   0.067
 6248W        W74642  23.968  18.511   3.178
 6249W        W74643  31.022  41.840  14.599
 6250W        W74644  19.981  18.164  10.690
 6251W        W74645  25.521  44.464   2.869
 6252W        W74646  43.614  33.424  11.965
 6253W        W74647  17.806  29.818  14.100
 6254W        W74648  40.380  42.718   4.145
 6255W        W74649  42.049  11.131  12.165
 6256W        W74650  32.561  13.916   3.800
 6257W        W74651  35.625  10.575  12.082
 6258W        W74652  22.100  20.474   1.970
 6259W        W74653  32.553  37.078   2.812
 6260W        W74654  34.091  17.509   1.738
 6261W        W74655  16.668   3.021  14.368
 6262W        W74656  41.051  17.699  14.422
 6263W        W74657  44.274  25.075   1.820
 6264W        W74658  32.902  42.260  10.741
 6265W        W74659  44.210  12.565  12.227
 6266W        W74660  31.542  14.312  10.518
 6267W        W74661  26.163  37.341   2.250
 6268W        W74662  13.834  37.421  10.505
 6269W        W74663  17.591  38.792   2.589
 6270W        W74664  31.869  38.351  12.867
 6271W        W74665  14.281  14.338  12.427
 6272W        W74666  40.608  11.393  10.686
 6273W        W74667  20.874  30.840  12.601
 6274W        W74668  25.026  43.269   0.686
 6275W        W74669  20.257  27.610   3.089
 6276W        W74670   9.312  26.489  11.651
 6277W        W74671  44.124   3.497   1.992
 6278W        W74672  34.111  27.042  12.744
 6279W        W74673  26.628  25.605  13.693
 6280W        W74674  38.040  24.217  13.924
 6281W        W74675  43.581  39.911  12.324
 6282W        W74676  27.399  17.884   2.414
 6283W        W74677  20.670  29.844   0.549
 6284W        W74678  29.053  18.069  13.203
 6285W        W74679  12.691  34.645   0.008
 6286W        W74680   5.694  40.445  10.777
 6287W        W74681  41.267   6.200  13.465
 6288W        W74682  39.445  36.835  13.531
 6289W        W74683   2.464   1.965   0.948
 6290W        W74684  20.577  15.976  10.260
 6291W        W74685   0.011  20.670  13.473
 6292W        W74686   3.808  14.298   3.528
 6293W        W74687  29.171   4.172   1.344
 6294W        W74688  13.800  10.188   2.233
 6295W        W74689  23.937  34.404  10.979
 6296W        W74690  23.854  21.994   2.896
 6297W        W74691  42.062  30.495  14.719
 6298W        W74692  23.534  10.899  12.353
 6299W        W74693  11.251  13.928  11.062
 6300W        W74694  30.852  40.572  11.119
 6301W        W74695  20.548  22.677  12.193
 6302W        W74696  14.744  19.999   2.219
 6303W        W74697  27.796  26.937  14.118
 6304W        W74698  41.917  30.157  13.545
 6305W        W74699  41.961   2.112  11.090
 6306W        W74700   9.236  44.746  11.199
 6307W        W74701  32.151  27.632  13.173
 6308W        W74702   2.995  16.813   1.903
 6309W        W74703  34.366  43.268   0.630
 6310W        W74704  35.012  25.604   3.386
 6311W        W74705   9.843  43.405  12.079
 6312W        W74706  16.114   1.365   4.837
 6313W        W74707  13.445  28.124   3.263
 6314W        W74708  12.209  40.538  11.998
 6315W        W74709   9.579  12.790   0.360
 6316W        W74710  30.641   9.810   1.862
 6317W        W74711  42.259   4.152  14.911
 6318W        W74712   7.954  27.628  11.596
 6319W        W74713  16.628   8.382  13.305
 6320W        W74714   1.814  14.685  13.609
 6321W        W74715   7.025   2.320   4.860
 6322W        W74716   6.682  31.122   4.284
 6323W        W74717  41.363  14.846  11.642
 6324W        W74718   9.159  10.661  11.940
 6325W        W74719   4.924  33.400   0.833
 6326W        W74720  21.991  34.576   4.577
 6327W        W74721  18.006  12.546   2.528
 6328W        W74722   0.243  40.389  14.067
 6329W        W74723  14.136  15.585   9.928
 6330W        W74724  30.932  16.612   0.331
 6331W        W74725  20.581  30.562   4.590
 6332W        W74726  25.107  21.316   2.141
 6333W        W74727  38.975   8.940   0.293
 6334W        W74728   0.587  40.322  10.156
 6335W        W74729   9.122   5.763   1.759
 6336W        W74730   9.793  15.563   2.507
 6337W        W74731  44.776  19.713  11.970
 6338W        W74732  39.860  24.982  11.559
 6339W        W74733  22.095  31.296  12.057
 6340W        W74734  14.417   6.616   2.788
 6341W        W74735  39.882  16.570   3.226
 6342W        W74736  40.563  11.342  11.540
 6343W        W74737  43.891   0.728   0.423
 6344W        W74738  18.224  29.110   4.125
 6345W        W74739  19.537  43.757  13.330
 6346W        W74740   6.145  41.076  14.493
 6347W        W74741  29.969  42.980  12.111
 6348W        W74742   3.816  31.633   3.806
 6349W        W74743  15.044   8.187  10.457
 6350W        W74744  24.074  32.497   5.004
 6351W        W74745  44.421  20.851   2.634
 6352W        W74746  29.471  24.424  12.106
 6353W        W74747   7.417   0.316   1.700
 6354W        W74748  30.548  26.038  13.399
 6355W        W74749   4.614   3.395  10.487
 6356W        W74750  12.000  34.941  10.709
 6357W        W74751  16.612  26.973   0.660
 6358W        W74752  36.289  33.851  13.773
 6359W        W74753  22.281  34.236   4.171
 6360W        W74754  30.894  21.659   1.357
 6361W        W74755  28.389  37.082  12.066
 6362W        W74756  27.372   4.138  14.884
 6363W        W74757  27.454  35.635   0.477
 6364W        W74758  37.028  18.212   1.469
 6365W        W74759  42.815  39.617   0.703
 6366W        W74760  28.053  31.505   3.127
 6367W        W74761  27.154  15.327  12.575
 6368W        W74762   5.360  19.813  13.808
 6369W        W74763  37.357  28.777  12.434
 6370W        W74764  31.394  30.448  11.583
 6371W        W74765  22.764   1.440   1.739
 6372W        W74766  15.737  29.874  12.842
 6373W        W74767  16.088  24.538  13.957
 6374W        W74768  41.731  22.638  10.353
 6375W        W74769  36.907  17.207  10.593
 6376W        W74770  41.811  21.276  11.512
 6377W        W74771  40.069  15.223  12.438
 6378W        W74772  27.659  31.026   4.580
 6379W        W74773  33.304   9.124  12.510
 6380W        W74774  17.196  10.918  12.628
 6381W        W74775  33.865  12.212  11.867
 6382W        W74776   5.016   5.297  14.782
 6383W        W74777   2.771  10.677  14.954
 6384W        W74778  15.715  37.415  11.952
 6385W        W74779   0.335  12.903   0.634
 6386W        W74780  13.593   0.324  13.980
 6387W        W74781   6.315  32.440  10.639
 6388W        W74782  18.777  25.191   4.998
 6389W        W74783   8.319  26.175   0.292
 6390W        W74784  39.953  23.324   4.649
 6391W        W74785   2.771  26.798  13.401
 6392W        W74786   3.924  24.984   1.764
 6393W        W74787   2.799  10.629  13.784
 6394W        W74788   7.095  25.850   9.827
 6395W        W74789  11.986  12.728  14.070
 6396W        W74790  13.669   3.256  11.447
 6397W        W74791  39.107   3.340  11.578
 6398W        W74792  10.393  10.916   1.828
 6399W        W74793  12.171   4.605   1.105
 6400W        W74794  40.424  33.451   0.581
 6401W        W74795  28.385  27.968   1.297
 6402W        W74796  41.363  35.852  13.116
 6403W        W74797   3.771  14.506   2.317
 6404W        W74798  11.854  30.468  11.400
 6405W        W74799  39.909  36.502  13.865
 6406W        W74800  10.217   0.423   1.744
 6407W        W74801   8.356  26.659  11.489
 6408W        W74802   5.334   6.843   0.183
 6409W        W74803  17.259   6.404   4.173
 6410W        W74804  43.373  30.463   4.597
 6411W        W74805  40.120  40.517   2.778
 6412W        W74806  26.029   2.560   3.641
 6413W        W74807  24.286  12.395   5.154
 6414W        W74808  16.223  16.175  12.670
 6415W        W74809  31.815  41.344  14.746
 6416W        W74810   7.269  24.808  12.447
 6417W        W74811  15.796   9.183  10.601
 6418W        W74812  44.883   4.460   2.284
 6419W        W74813  27.632  28.997  12.477
 6420W        W74814   0.115  23.102   1.625
 6421W        W74815  14.631  33.032  10.601
 6422W        W74816  42.893  24.515  12.050
 6423W        W74817  44.977   1.715   2.765
 6424W        W74818  36.110  37.578   1.407
 6425W        W74819  34.018  34.639   0.508
 6426W        W74820  30.512  39.503  12.998
 6427W        W74821  13.779  29.103   0.882
 6428W        W74822   0.715  44.420  12.168
 6429W        W74823   2.045  13.504  10.791
 6430W        W74824   8.641  16.250   2.126
 6431W        W74825   7.223  11.317   3.740
 6432W        W74826  30.856  39.098   1.379
 6433W        W74827  37.614  34.591   4.235
 6434W        W74828  42.441  11.267  10.848
 6435W        W74829   8.701  23.633  12.526
 6436W        W74830  34.120   6.401  13.363
 6437W        W74831  12.322  35.692  11.124
 6438W        W74832  17.620   2.630  13.536
 6439W        W74833   0.566  42.747   0.706
 6440W        W74834  21.503   0.433  11.620
 6441W        W74835  20.317  33.555  12.644
 6442W        W74836  31.085  12.869  14.760
 6443W        W74837  37.908   2.776  10.570
 6444W        W74838  13.645  42.003  14.911
 6445W        W74839  30.507  21.451  12.417
 6446W        W74840  13.102  31.996  13.006
 6447W        W74841   1.655  11.206  12.539
 6448W        W74842  22.726   5.388  14.542
 6449W        W74843  22.777  15.145  14.697
 6450W        W74844  29.300   8.500  12.256
 6451W        W74845  25.520   3.280   3.826
 6452W        W74846  29.846  17.103   2.362
 6453W        W74847  40.973   8.451  11.147
 6454W        W74848  24.182  29.946  14.248
 6455W        W74849  25.155  31.785  10.295
 6456W        W74850  18.941  42.846   3.708
 6457W        W74851  39.548  20.832  11.729
 6458W        W74852   7.007  22.638  10.612
 6459W        W74853  35.534   5.169   4.248
 6460W        W74854  42.821  41.599   1.923
 6461W        W74855   2.334   8.938   0.302
 6462W        W74856   4.485  23.921   0.802
 6463W        W74857  18.154  34.807  11.464
 6464W        W74858   6.408  35.340  11.622
 6465W        W74859  44.852   9.106   1.347
 6466W        W74860   7.318  33.609   4.165
 6467W        W74861  25.451  44.593  12.469
 6468W        W74862  25.276  33.313  11.458
 6469W        W74863  30.943  41.872  11.620
 6470W        W74864   4.301  12.420  12.967
 6471W        W74865   3.930   0.333  11.114
 6472W        W74866  11.114  12.396  13.949
 6473W        W74867  32.480  40.647  12.910
 6474W        W74868   8.207  41.743   2.147
 6475W        W74869   5.741  33.385   0.384
 6476W        W74870   0.463   5.654   4.692
 6477W        W74871  24.167  31.678   1.804
 6478W        W74872  18.723  42.726  14.297
 6479W        W74873  41.749  12.588   0.176
 6480W        W74874  42.744  44.431  10.632
 6481W        W74875  27.174   5.400  10.726
 6482W        W74876  25.677  31.047  14.746
 6483W        W74877  35.307  28.432  12.530
 6484W        W74878   5.821  21.462   2.420
 6485W        W74879  26.488  43.975   3.244
 6486W        W74880  18.120  33.559  13.050
 6487W        W74881   6.012  30.732   2.358
 6488W        W74882  22.061  39.898  11.464
 6489W        W74883  13.890  16.152   1.898
 6490W        W74884  44.781  32.461  10.915
 6491W        W74885  30.261  43.513  10.809
 6492W        W74886  28.176  24.585  14.416
 6493W        W74887   9.699  21.272  15.000
 6494W        W74888  25.360   1.349   2.378
 6495W        W74889  32.976  43.854  12.561
 6496W        W74890  33.109  24.969  14.821
 6497W        W74891   0.717  17.229  13.035
 6498W        W74892   9.346  36.411   4.102
 6499W        W74893   9.071  10.847  12.413
 6500W        W74894  15.576  26.570  10.184
 6501W        W74895   0.039  29.058  13.343
 6502W        W74896  19.495   6.473  12.823
 6503W        W74897  20.287  19.851   5.148
 6504W        W74898  26.633  10.653   3.459
 6505W        W74899  32.760  24.778   0.256
 6506W        W74900  30.554  21.939   2.806
 6507W        W74901  25.115  34.412  10.461
 6508W        W74902  39.126  16.672  12.445
 6509W        W74903  39.055  37.281  12.115
 6510W        W74904  40.387  34.368  14.062
 6511W        W74905  27.135  21.641  10.803
 6512W        W74906  39.426  19.764  14.102
 6513W        W74907   6.631  32.688   4.632
 6514W        W74908  30.709  19.641  11.936
 6515W        W74909   4.450  44.568   0.824
 6516W        W74910   1.144  32.069  13.942
 6517W        W74911  26.031  12.057  10.592
 6518W        W74912  11.657  26.460   2.411
 6519W        W74913   2.417  38.673  13.279
 6520W        W74914   8.367  42.307   0.267
 6521W        W74915  33.049  17.065  13.590
 6522W        W74916   7.841  34.011  14.786
 6523W        W74917  14.812  22.249  11.055
 6524W        W74918  44.439  38.466   1.804
 6525W        W74919  43.284   4.628   0.362
 6526W        W74920   7.423  22.623   4.530
 6527W        W74921  15.511  25.688  13.864
 6528W        W74922  40.438  21.143  12.798
 6529W        W74923  20.728  43.626   4.519
 6530W        W74924  28.616  39.542  12.851
 6531W        W74925  40.382  35.617   4.125
 6532W        W74926  41.319   5.828   3.076
 6533W        W74927  28.019  35.073   0.502
 6534W        W74928   3.659   3.732   2.102
 6535W        W74929   2.810  15.091   0.674
 6536W        W74930  20.145  12.739  11.122
 6537W        W74931   9.282  26.217   2.186
 6538W        W74932   1.415  44.430   4.327
 6539W        W74933  41.439  12.381  12.134
 6540W        W74934   6.746  39.015   0.294
 6541W        W74935  39.380  10.398  11.091
 6542W        W74936   6.668  36.934  11.114
 6543W        W74937  40.236   3.197  14.767
 6544W        W74938   0.663   8.995   4.722
 6545W        W74939  35.085  11.887  10.847
 6546W        W74940  26.536  34.073   2.226
 6547W        W74941  24.109  33.338  12.016
 6548W        W74942  13.141  18.305  13.969
 6549W        W74943  20.288  44.955   3.435
 6550W        W74944  25.500  23.193  12.066
 6551W        W74945   6.605  12.782  13.227
 6552W        W74946  22.658  39.947  12.679
 6553W        W74947  42.472  28.117  12.590
 6554W        W74948  25.792  26.084   3.534
 6555W        W74949  31.578  34.629   4.586
 6556W        W74950   7.365  41.766  12.036
 6557W        W74951   6.323  23.865  10.909
 6558W        W74952   5.767  21.083   1.181
 6559W        W74953  44.747  10.526   4.466
 6560W        W74954   3.240   8.582   5.446
 6561W        W74955  39.787  13.320   0.296
 6562W        W74956  26.728  25.639  12.818
 6563W        W74957  10.216  22.211  13.018
 6564W        W74958  13.701  24.075   1.538
 6565W        W74959  42.438  30.117  10.781
 6566W        W74960   3.322   6.758  13.932
 6567W        W74961   9.641  44.938  12.821
 6568W        W74962  11.892  11.184  13.875
 6569W        W74963  34.435  32.009  13.592
 6570W        W74964  40.114   1.582  12.705
 6571W        W74965  42.746  14.765   2.886
 6572W        W74966   2.559  34.963  12.615
 6573W        W74967  13.378  36.995   4.360
 6574W        W74968  21.406   3.427  13.176
 6575W        W74969  11.715  12.552  14.465
 6576W        W74970  18.785  39.936   3.734
 6577W        W74971  25.187  24.650  12.938
 6578W        W74972  40.188  34.993   2.060
 6579W        W74973  32.241   6.589   0.042
 6580W        W74974  18.839  25.217   3.591
 6581W        W74975  15.230  24.414   4.551
 6582W        W74976  26.086  27.164  11.481
 6583W        W74977  25.683   1.867  10.580
 6584W        W74978  21.625   9.508   0.870
 6585W        W74979  12.659  29.166  13.401
 6586W        W74980  44.674  28.490   3.554
 6587W        W74981  16.472  30.950   0.901
 6588W        W74982  13.832   7.880   1.820
 6589W        W74983  22.736   6.475   4.231
 6590W        W74984   3.919  42.203   4.954
 6591W        W74985  29.356  12.258  12.438
 6592W        W74986  42.525  14.046  12.844
 6593W        W74987  17.876  20.178  13.714
 6594W        W74988   2.171   2.440  12.824
 6595W        W74989   2.756  30.571  11.138
 6596W        W74990  30.034   4.183   0.929
 6597W        W74991  18.725  32.011   4.176
 6598W        W74992  42.725   5.387  14.999
 6599W        W74993  23.700  13.897   3.313
 6600W        W74994  29.592  43.354   1.874
 6601W        W74995  35.290  19.288   4.063
 6602W        W74996  11.755  26.160  14.432
 6603W        W74997  27.704   4.315  14.401
 6604W        W74998  12.897  16.694  11.659
 6605W        W74999  17.160  42.533  14.828
 6606W        W75000  32.423   7.779   3.360
 6607W        W75001  11.531  34.142  13.070
 6608W        W75002  38.627  38.892  11.671
 6609W        W75003  17.468   4.908   2.313
 6610W        W75004  31.719   9.807  14.720
 6611W        W75005  39.351  16.639  11.961
 6612W        W75006   4.584  24.336  10.949
 6613W        W75007  29.091  18.792   3.653
 6614W        W75008  38.714  37.122   1.839
 6615W        W75009  23.483  34.014   4.559
 6616W        W75010   8.993  32.612  11.517
 6617W        W75011  34.817  17.630  12.955
 6618W        W75012  18.794  17.496   2.718
 6619W        W75013   2.933  28.965  14.669
 6620W        W75014  41.620  28.276   4.197
 6621W        W75015  14.763  33.527  10.523
 6622W        W75016   1.026  15.809  13.971
 6623W        W75017  15.275  42.371   3.884
 6624W        W75018  35.863  40.244   1.524
 6625W        W75019  33.354  17.318  11.181
 6626W        W75020  17.616   1.211   4.069
 6627W        W75021  40.961   8.097  13.581
 6628W        W75022  23.757  10.404   4.450
 6629W        W75023  32.870   7.727   0.496
 6630W        W75024  22.412  36.836   1.427
 6631W        W75025  44.435  40.263  11.528
 6632W        W75026   9.891  19.200  14.285
 6633W        W75027  35.062  35.874   3.640
 6634W        W75028  30.378  31.536   3.289
 6635W        W75029  44.517  40.765  11.588
 6636W        W75030  31.653  23.577  12.233
 6637W        W75031  21.175  20.837  10.111
 6638W        W75032  42.703   9.166  14.444
 6639W        W75033  38.145  26.461  12.743
 6640W        W75034  27.664  40.597   3.103
 6641W        W75035  25.370  25.560  10.717
 6642W        W75036  15.496  21.676  14.208
 6643W        W75037  34.462   8.796   3.961
 6644W        W75038   3.702  26.773  10.749
 6645W        W75039  23.725  29.628  12.886
 6646W        W75040  19.973   0.260   0.694
 6647W        W75041  12.786  27.889   3.741
 6648W        W75042  36.355   4.830  14.303
 6649W        W75043  19.015  20.184  11.022
 6650W        W75044  21.983  21.482   3.721
 6651W        W75045  28.559   8.682   0.468
 6652W        W75046   0.889  14.296   3.320
 6653W        W75047  39.144  42.824  11.578
 6654W        W75048   1.887  16.855   1.231
 6655W        W75049  26.669  16.786   1.820
 6656W        W75050  36.441  13.142  12.922
 6657W        W75051  42.532  33.377   1.318
 6658W        W75052  30.365  22.470  11.955
 6659W        W75053  11.555  29.617   2.426
 6660W        W75054   4.526  34.782   4.472
 6661W        W75055  10.603   1.724   1.156
 6662W        W75056  36.558   0.041   1.303
 6663W        W75057  44.994  10.444  14.567
 6664W        W75058   9.400  29.240   3.347
 6665W        W75059  16.138  37.042   4.753
 6666W        W75060  37.920  13.420   2.897
 6667W        W75061  38.532  34.844  12.470
 6668W        W75062  20.551  17.695   2.283
 6669W        W75063   4.214  16.277  12.396
 6670W        W75064  13.733  29.734  14.044
 6671W        W75065   5.302  30.137  11.370
 6672W        W75066  27.140  44.493  13.274
 6673W        W75067  33.170  43.397   3.616
 6674W        W75068  20.507  42.839   2.288
 6675W        W75069  21.750  37.594   0.294
 6676W        W75070  25.574   8.242   0.522
 6677W        W75071  42.990  19.498  11.074
 6678W        W75072  25.450  11.835   4.072
 6679W        W75073  30.962   1.921   3.716
 6680W        W75074  31.485  35.034   2.630
 6681W        W75075  24.447  36.980  14.794
 6682W        W75076   6.865  39.263   0.765
 6683W        W75077  11.866  15.128   3.627
 6684W        W75078   6.836  38.808  14.820
 6685W        W75079   4.341  30.451  14.325
 6686W        W75080  32.119  14.848   2.832
 6687W        W75081  40.043   9.160  11.056
 6688W        W75082  21.891  33.022  14.355
 6689W        W75083   9.594  34.789   2.600
 6690W        W75084  15.127  21.345  14.317
 6691W        W75085  12.840  11.267  12.033
 6692W        W75086  41.779   8.802   0.542
 6693W        W75087  26.592  28.292   4.139
 6694W        W75088  28.216  28.612   2.823
 6695W        W75089  13.837  22.566  13.463
 6696W        W75090  11.300  28.899  12.564
 6697W        W75091  24.627  12.386  10.749
 6698W        W75092  28.198   6.353  12.581
 6699W        W75093  11.226  16.722  11.886
 6700W        W75094  15.679  29.666   0.967
 6701W        W75095   3.683  37.970  13.345
 6702W        W75096  33.066  11.763   4.175
 6703W        W75097  23.884  20.400  13.839
 6704W        W75098  19.770  30.671  11.110
 6705W        W75099  13.239   9.165   1.699
 6706W        W75100   0.811  20.612  11.008
 6707W        W75101  43.675  18.714  11.051
 6708W        W75102  13.265  38.986   2.928
 6709W        W75103  10.404   9.691  12.045
 6710W        W75104  17.831  32.193   2.151
 6711W        W75105  39.880   2.394   1.603
 6712W        W75106  38.453  18.946  14.760
 6713W        W75107  25.388  42.083   3.930
 6714W        W75108  30.419  38.924  10.508
 6715W        W75109  28.225  29.905   0.632
 6716W        W75110  20.735  28.750  12.413
 6717W        W75111  40.706  27.117  12.911
 6718W        W75112  32.609   4.139   1.863
 6719W        W75113   1.580  22.272  12.975
 6720W        W75114  20.838  16.320   0.447
 6721W        W75115   1.111  28.677   2.277
 6722W        W75116   3.950  40.067  14.287
 6723W        W75117   1.604  29.232   0.414
 6724W        W75118  14.708   6.377   1.537
 6725W        W75119  26.110  26.745  13.092
 6726W        W75120   0.213  38.012  11.228
 6727W        W75121  24.202  10.613  12.943
 6728W        W75122  32.154  25.014   1.351
 6729W        W75123  40.687  37.694  14.315
 6730W        W75124   4.284  16.592  10.984
 6731W        W75125  39.037  33.572   4.624
 6732W        W75126  36.091  16.277   4.061
 6733W        W75127  30.525  11.157  10.710
 6734W        W75128  33.166  19.022   1.938
 6735W        W75129  12.496  12.437   0.675
 6736W        W75130  17.881  15.864  11.258
 6737W        W75131  23.880  39.729   3.262
 6738W        W75132  26.158  40.297  12.096
 6739W        W75133   6.604  36.592   2.845
 6740W        W75134   0.477  43.828  14.351
 6741W        W75135  25.383  26.274  11.158
 6742W        W75136  30.174  31.012   3.400
 6743W        W75137  44.218  13.664  13.946
 6744W        W75138  43.724  20.626   4.098
 6745W        W75139  32.725  20.881   3.666
 6746W        W75140  36.818   1.485  12.003
 6747W        W75141  38.434  15.047  12.991
 6748W        W75142  22.465  32.098  11.086
 6749W        W75143  18.877  38.616   1.421
 6750W        W75144   3.992  29.666  10.777
 6751W        W75145  39.164  16.057  13.202
 6752W        W75146  34.598  44.239   3.652
 6753W        W75147  21.507  18.116  10.454
 6754W        W75148   8.845  25.087  11.469
 6755W        W75149   1.291   1.003  13.390
 6756W        W75150  39.776  44.497  11.574
 6757W        W75151   8.262  32.195  12.578
 6758W        W75152  22.620   5.732   2.327
 6759W        W75153   7.408  34.285   3.252
 6760W        W75154  23.489  39.040  14.401
 6761W        W75155  39.954  28.749  10.824
 6762W        W75156  12.298  25.119   3.913
 6763W        W75157  33.120  13.686   4.259
 6764W        W75158  43.299   7.838  11.839
 6765W        W75159  13.600  19.933  14.729
 6766W        W75160  26.541  16.512  13.322
 6767W        W75161  36.663   5.380  12.965
 6768W        W75162  44.760  40.091  13.907
 6769W        W75163  10.823  29.364  14.823
 6770W        W75164   6.115   1.238   9.898
 6771W        W75165  40.952  23.822  14.250
 6772W        W75166   2.932  31.344  10.747
 6773W        W75167  38.422  33.497   2.187
 6774W        W75168  16.666  33.230   0.222
 6775W        W75169  13.274  33.579   1.336
 6776W        W75170  43.544  29.447  10.976
 6777W        W75171  42.989  31.649  13.416
 6778W        W75172  21.515  23.272  10.566
 6779W        W75173   4.123  38.509  13.949
 6780W        W75174   9.884  21.369   4.990
 6781W        W75175  33.868  19.159  12.033
 6782W        W75176   0.059  10.174  10.713
 6783W        W75177  33.273  11.277  12.960
 6784W        W75178  18.771   2.282   0.241
 6785W        W75179  20.693  22.946  11.791
 6786W        W75180   6.755  43.838   1.224
 6787W        W75181   5.474  32.699   1.561
 6788W        W75182  13.258  36.602   3.112
 6789W        W75183  15.007   6.867  14.929
 6790W        W75184  17.813  12.375   1.906
 6791W        W75185  35.869  41.458  14.007
 6792W        W75186  29.482  37.491   1.796
 6793W        W75187  21.008  10.348  12.436
 6794W        W75188  24.895  42.088  10.613
 6795W        W75189  22.287   1.744  14.040
 6796W        W75190  41.451  21.188   2.761
 6797W        W75191  11.685  15.039   4.093
 6798W        W75192   9.375  24.689  13.071
 6799W        W75193  42.213  37.120  11.018
 6800W        W75194  43.931  21.628   1.013
 6801W        W75195  34.189  15.638   1.410
 6802W        W75196  12.636  16.229   0.336
 6803W        W75197  42.587  12.973  14.456
 6804W        W75198  10.521  34.972  12.496
 6805W        W75199  15.757   7.313  12.396
 6806W        W75200  13.737  35.216   2.779
 6807W        W75201  18.467  35.211  14.917
 6808W        W75202  11.963  44.431  13.947
 6809W        W75203   4.297   3.249   0.973
 6810W        W75204  28.394  27.737  13.538
 6811W        W75205  20.222  10.096   5.093
 6812W        W75206  15.839   2.217   1.134
 6813W        W75207  12.878  44.459   0.724
 6814W        W75208  17.790   8.409   3.647
 6815W        W75209   3.210   9.695   4.451
 6816W        W75210  20.254  40.970   4.169
 6817W        W75211  38.299  37.060  11.647
 6818W        W75212  29.574  41.727  13.900
 6819W        W75213   3.427  43.863   2.961
 6820W        W75214  13.688  28.892  13.055
 6821W        W75215  15.145  13.208   1.253
 6822W        W75216  40.775  44.216   1.902
 6823W        W75217  30.140   5.921   1.659
 6824W        W75218  11.906  28.232  14.430
 6825W        W75219  18.256   6.176  14.848
 6826W        W75220  33.721  31.217   1.408
 6827W        W75221  39.543  15.364   1.227
 6828W        W75222  29.168  41.395  14.004
 6829W        W75223   8.640  17.326   2.166
 6830W        W75224  19.648  11.302   2.356
 6831W        W75225  22.335   3.020   2.407
 6832W        W75226  12.269   9.599   3.685
 6833W        W75227   8.533  36.510  14.394
 6834W        W75228   8.103   3.974   2.801
 6835W        W75229  36.168  23.132   3.377
 6836W        W75230  38.334  34.897  11.982
 6837W        W75231  20.023  14.083  12.828
 6838W        W75232  14.333   5.494  14.043
 6839W        W75233  38.683   2.028   3.160
 6840W        W75234  21.249  32.016  13.962
 6841W        W75235  34.293   4.927   1.211
 6842W        W75236  24.060  43.319  10.710
 6843W        W75237  41.728  25.129  13.428
 6844W        W75238  36.387  33.851   3.576
 6845W        W75239   9.864  36.407   4.140
 6846W        W75240  19.543  22.588  10.645
 6847W        W75241  16.205  24.708  14.499
 6848W        W75242  38.265  13.285   0.136
 6849W        W75243   4.631  18.189  12.047
 6850W        W75244  39.233  38.305  14.853
 6851W        W75245  27.562   1.578  11.526
 6852W        W75246   9.458   6.604   0.815
 6853W        W75247   8.926  16.782  10.337
 6854W        W75248   1.318  12.795  13.685
 6855W        W75249  19.148  42.668  10.640
 6856W        W75250  20.783  17.530  12.881
 6857W        W75251  25.477  18.626   4.634
 6858W        W75252  41.835  35.373   4.581
 6859W        W75253  28.484  10.121  12.353
 6860W        W75254  44.379  31.226   3.163
 6861W        W75255  40.447  18.142   3.615
 6862W        W75256  18.225  11.677   2.120
 6863W        W75257  10.466  24.196  12.540
 6864W        W75258  20.957   9.142   1.388
 6865W        W75259   6.337  22.918   4.419
 6866W        W75260  29.533   1.875  11.829
 6867W        W75261  16.595  41.950   3.619
 6868W        W75262   1.267  28.663   4.196
 6869W        W75263  43.808  40.006   1.928
 6870W        W75264   8.234  17.837   4.447
 6871W        W75265  18.275  21.972  14.510
 6872W        W75266   2.487  22.247  10.675
 6873W        W75267  23.351  23.230   3.931
 6874W        W75268   6.718   4.423   2.000
 6875W        W75269   2.972  32.890   2.886
 6876W        W75270   0.549   1.973  11.592
 6877W        W75271   2.834   9.596  13.946
 6878W        W75272  10.930  18.685  13.241
 6879W        W75273  15.983  12.111   2.902
 6880W        W75274  41.408  19.374  10.755
 6881W        W75275  32.735  23.120   1.730
 6882W        W75276  10.852  24.596   1.495
 6883W        W75277  12.062  16.164  11.953
 6884W        W75278  10.775   8.800   2.366
 6885W        W75279  23.735  16.067   2.860
 6886W        W75280  11.311   0.948   4.577
 6887W        W75281  16.436   4.016   5.579
 6888W        W75282  42.985  44.583  13.854
 6889W        W75283  33.788  21.731  10.790
 6890W        W75284  22.190  14.377  11.887
 6891W        W75285  29.608  18.159  11.504
 6892W        W75286  11.573   3.918  12.531
 6893W        W75287  38.062  38.740   4.005
 6894W        W75288  34.995  23.982  14.537
 6895W        W75289   9.163   2.720   2.412
 6896W        W75290   3.260  16.649  11.961
 6897W        W75291   0.709  34.375   5.083
 6898W        W75292  13.148  19.484  11.902
 6899W        W75293  24.588  15.067   2.827
 6900W        W75294   6.889   6.218   0.284
 6901W        W75295  26.115   7.345  14.588
 6902W        W75296  28.532  25.635  14.305
 6903W        W75297  13.602  20.653  10.427
 6904W        W75298  41.895  26.493  14.887
 6905W        W75299  37.764  18.058  11.055
 6906W        W75300   3.928  38.355  13.024
 6907W        W75301  25.363   4.167   2.652
 6908W        W75302  16.291   0.748   2.125
 6909W        W75303   6.825   6.684  10.875
 6910W        W75304  43.747  25.222  13.430
 6911W        W75305   7.706  31.510   1.366
 6912W        W75306  31.619  13.885   2.367
 6913W        W75307  38.314  17.058   1.334
 6914W        W75308   2.517   8.413  10.931
 6915W        W75309  24.216  18.800   5.041
 6916W        W75310  10.398  30.617   4.149
 6917W        W75311  18.835  27.568   0.759
 6918W        W75312  25.030  17.199  12.541
 6919W        W75313  38.659  24.560  12.555
 6920W        W75314  43.308  13.825  12.884
 6921W        W75315  31.274  42.897   4.603
 6922W        W75316  13.128   9.138  14.811
 6923W        W75317  11.062  31.529   4.145
 6924W        W75318  11.831  19.474   3.267
 6925W        W75319  22.012  19.760  11.460
 6926W        W75320  15.548   3.831   2.457
 6927W        W75321   5.990   3.511  11.540
 6928W        W75322  22.300  21.925  12.460
 6929W        W75323   8.793  35.530  11.364
 6930W        W75324  42.967   1.289   1.205
 6931W        W75325   3.654   5.827   4.121
 6932W        W75326  15.658   6.083   4.228
 6933W        W75327  44.196   4.459  10.088
 6934W        W75328   8.730  18.804   3.921
 6935W        W75329  24.075   4.658  13.394
 6936W        W75330   2.586   3.525   2.879
 6937W        W75331  26.516  19.999   4.284
 6938W        W75332   1.456  40.382   0.260
 6939W        W75333   0.332  13.396  11.259
 6940W        W75334  32.104  15.671  10.887
 6941W        W75335   8.237   1.289  10.679
 6942W        W75336  27.811   1.994   2.913
 6943W        W75337  44.121  13.730   1.466
 6944W        W75338  31.947  18.995   4.190
 6945W        W75339  18.308  35.803  11.086
 6946W        W75340  40.440  36.985   5.125
 6947W        W75341  15.845  42.283  12.563
 6948W        W75342  37.665  16.632   0.968
 6949W        W75343  15.701  14.265   2.834
 6950W        W75344   5.447  23.572   4.072
 6951W        W75345   0.210  12.765   4.793
 6952W        W75346  36.589  19.005  13.832
 6953W        W75347  33.392  18.134   3.770
 6954W        W75348  12.260  44.464   0.826
 6955W        W75349   1.793  37.139   0.757
 6956W        W75350  17.729  26.037   3.093
 6957W        W75351   9.362  17.688   1.490
 6958W        W75352   1.474  10.092  13.880
 6959W        W75353  27.444  20.046   1.409
 6960W        W75354  37.733  32.350  13.325
 6961W        W75355  40.817  14.110  12.076
 6962W        W75356   6.644  44.262  13.533
 6963W        W75357  17.082  25.846  10.803
 6964W        W75358  20.026  43.923   1.382
 6965W        W75359  40.647   4.326  13.936
 6966W        W75360  40.734  21.547   2.482
 6967W        W75361   5.309  12.177   1.889
 6968W        W75362  39.827  36.148  10.984
 6969W        W75363   2.309  28.663  10.675
 6970W        W75364  17.850  15.180   2.963
 6971W        W75365  32.571  40.045   3.880
 6972W        W75366  41.784  40.755   3.298
 6973W        W75367  31.729   5.359   1.281
 6974W        W75368  33.030  33.434  14.570
 6975W        W75369   0.235  24.070  11.434
 6976W        W75370  20.732  40.030  11.342
 6977W        W75371   1.837  44.947  12.385
 6978W        W75372  21.585  11.394   2.857
 6979W        W75373  24.095  16.626  10.330
 6980W        W75374  37.382   5.897   4.679
 6981W        W75375  17.097  18.318   3.962
 6982W        W75376   7.992  30.852  13.592
 6983W        W75377  17.551  11.657   4.082
 6984W        W75378   3.855  19.308  12.129
 6985W        W75379  44.762  27.843   1.297
 6986W        W75380  28.597  14.305   3.873
 6987W        W75381  18.655   5.178   1.910
 6988W        W75382  12.577  13.549   4.163
 6989W        W75383  12.775  31.189   2.784
 6990W        W75384  29.255   5.628   0.972
 6991W        W75385  32.080   5.246  10.455
 6992W        W75386  20.408  40.472   4.144
 6993W        W75387  24.695   9.537  14.711
 6994W        W75388  39.407  33.590  14.786
 6995W        W75389  19.541  22.025  10.965
 6996W        W75390  43.247  18.037   3.095
 6997W        W75391   7.411  12.183   2.643
 6998W        W75392  16.550  30.017  12.964
 6999W        W75393  42.086  31.926  10.715
 7000W        W75394  32.588  34.617  12.822
 7001W        W75395  23.761   4.944   2.342
 7002W        W75396  26.171  43.015   3.806
 7003W        W75397  18.602  41.537   1.277
 7004W        W75398  44.898   6.647   1.737
 7005W        W75399  20.616   4.916   3.243
 7006W        W75400  39.275  22.819   1.767
 7007W        W75401   7.374  19.447  14.509
 7008W        W75402  20.112  19.973   1.269
 7009W        W75403   3.272  10.942  11.115
 7010W        W75404  30.485  38.889   0.399
 7011W        W75405  37.144  16.773   2.836
 7012W        W75406  26.550  17.115   3.256
 7013W        W75407  30.082  10.877   3.237
 7014W        W75408  41.734  19.474  14.007
 7015W        W75409   6.758  37.943   2.652
 7016W        W75410  26.475  25.797   0.426
 7017W        W75411   0.770   1.602   3.682
 7018W        W75412  34.543  41.531  12.779
 7019W        W75413  14.446  32.417   0.765
 7020W        W75414  24.949   9.287   2.362
 7021W        W75415  17.818  42.508  11.437
 7022W        W75416  35.040  41.968   0.295
 7023W        W75417  37.400  19.418  13.715
 7024W        W75418  18.892  12.734   2.780
 7025W        W75419  27.247  30.923   2.243
 7026W        W75420   4.816   6.200  14.342
 7027W        W75421  29.670  29.653  14.246
 7028W        W75422  12.789  18.148   0.810
 7029W        W75423  34.604  36.990   2.799
 7030W        W75424   3.443  44.672  11.473
 7031W        W75425  39.425  32.623  12.634
 7032W        W75426   8.218  20.704  11.221
 7033W        W75427  13.538  38.938   4.610
 7034W        W75428   0.369   2.979  13.909
 7035W        W75429  10.763  15.222   0.917
 7036W        W75430  10.157  18.789  11.666
 7037W        W75431  41.882  34.392  10.192
 7038W        W75432  39.470  40.533  10.740
 7039W        W75433  11.361  39.377   1.739
 7040W        W75434   3.493  27.546   4.456
 7041W        W75435  24.403   4.764   4.147
 7042W        W75436  11.218   1.277   1.934
 7043W        W75437   7.151  25.165  14.872
 7044W        W75438  11.562   3.178   2.750
 7045W        W75439  22.594  10.642  13.969
 7046W        W75440   6.249  20.641   2.762
 7047W        W75441  18.128  36.270  11.167
 7048W        W75442  10.577  19.625   2.849
 7049W        W75443  20.717  16.248   3.742
 7050W        W75444  31.861  25.130  12.507
 7051W        W75445   8.508  37.828  11.199
 7052W        W75446  44.701  31.746   4.542
 7053W        W75447   8.385  30.217   2.670
 7054W        W75448  20.085  24.608   3.258
 7055W        W75449  13.647  44.445  13.368
 7056W        W75450  27.036   8.217  12.440
 7057W        W75451   5.060  39.442   2.747
 7058W        W75452  10.140  11.112  11.174
 7059W        W75453  17.335  43.806  12.977
 7060W        W75454   8.282  13.947  12.488
 7061W        W75455  41.618  25.451   3.253
 7062W        W75456  11.842  32.502  11.137
 7063W        W75457  24.955  21.023   4.983
 7064W        W75458  20.138   9.824   2.306
 7065W        W75459   4.221  38.767   0.789
 7066W        W75460  10.249  14.074  14.357
 7067W        W75461  17.696  31.993  10.278
 7068W        W75462  31.029  26.824   1.886
 7069W        W75463   9.616   7.828   0.730
 7070W        W75464  37.577  12.071  14.410
 7071W        W75465  15.786  37.551   1.771
 7072W        W75466   3.090  26.012   1.749
 7073W        W75467   2.983  31.458  14.728
 7074W        W75468  42.393  35.547   4.595
 7075W        W75469   8.253  43.952   4.049
 7076W        W75470  40.920  23.450  11.480
 7077W        W75471  42.659   4.300  12.859
 7078W        W75472  29.873   6.478  11.165
 7079W        W75473  26.935  25.111   2.147
 7080W        W75474  24.453   2.756   1.947
 7081W        W75475  44.303  40.869  10.552
 7082W        W75476  29.529  14.614  10.477
 7083W        W75477   2.262   3.486  12.861
 7084W        W75478   1.331   1.246  14.889
 7085W        W75479  33.660   1.715  14.502
 7086W        W75480  23.632  32.420  13.374
 7087W        W75481  38.797  19.017   0.335
 7088W        W75482   3.205  13.796   3.219
 7089W        W75483  26.385  27.084   2.858
 7090W        W75484  35.540  14.685   3.868
 7091W        W75485  14.946   9.869  14.004
 7092W        W75486  30.633  41.260  10.814
 7093W        W75487   4.295  15.821  12.600
 7094W        W75488  22.041  15.652   3.680
 7095W        W75489  38.946  22.036  11.836
 7096W        W75490  16.281  26.070   0.355
 7097W        W75491  40.517  43.014  11.911
 7098W        W75492   4.403  35.356   0.205
 7099W        W75493  33.537  38.559  11.121
 7100W        W75494   4.471  24.282  13.698
 7101W        W75495  38.528  15.156  10.526
 7102W        W75496  11.909  28.617  12.997
 7103W        W75497  24.206   9.729  12.876
 7104W        W75498  23.036   1.067  12.538
 7105W        W75499  28.444  25.805   1.471
 7106W        W75500   1.719  26.290   4.952
 7107W        W75501   8.250  17.284   0.705
 7108W        W75502   9.018  30.861  11.346
 7109W        W75503  26.691  11.336  11.191
 7110W        W75504  43.460  40.387   3.284
 7111W        W75505  42.694   4.654  14.079
 7112W        W75506  37.396   8.890   1.529
 7113W        W75507   1.849  25.826   2.282
 7114W        W75508  42.274  40.821  10.422
 7115W        W75509   1.841   2.725  12.567
 7116W        W75510   4.150   7.209  13.091
 7117W        W75511  14.859   1.431   0.745
 7118W        W75512  29.287  34.281  11.628
 7119W        W75513   4.983  15.452  14.860
 7120W        W75514   6.270  10.805  10.704
 7121W        W75515   7.339  28.217   1.346
 7122W        W75516   2.875  17.049   1.450
 7123W        W75517  30.202  20.476  10.746
 7124W        W75518  16.228   9.743  13.538
 7125W        W75519  22.658  35.080   0.806
 7126W        W75520  38.390  43.542  12.890
 7127W        W75521  18.843  19.570   1.018
 7128W        W75522  37.034  41.663  14.097
 7129W        W75523   7.684  21.081   4.182
 7130W        W75524   4.002   4.904   4.893
 7131W        W75525   5.215   9.725  14.250
 7132W        W75526   1.822  31.912  10.656
 7133W        W75527  12.697  17.812   0.217
 7134W        W75528   8.925  15.508   1.687
 7135W        W75529   7.721  36.334  12.560
 7136W        W75530  39.580  24.204   0.499
 7137W        W75531   1.496  14.897  11.869
 7138W        W75532  19.237  44.800   4.658
 7139W        W75533  42.790  29.514  13.798
 7140W        W75534  28.198  34.873  10.571
 7141W        W75535  25.421   5.889  13.291
 7142W        W75536  13.922  20.033   5.040
 7143W        W75537   8.597   1.688  10.788
 7144W        W75538  41.044  37.034   2.851
 7145W        W75539  35.732  32.550  13.298
 7146W        W75540  23.636  26.171   3.163
 7147W        W75541   4.374   6.727  13.234
 7148W        W75542  16.737  40.885  12.117
 7149W        W75543  34.145   6.932  13.473
 7150W        W75544  19.990   9.748   1.283
 7151W        W75545  23.155  40.787  11.208
 7152W        W75546  10.946  14.229  14.931
 7153W        W75547  25.210  43.319  12.607
 7154W        W75548  21.196  18.116   1.798
 7155W        W75549  34.450  30.037   0.513
 7156W        W75550  14.530  32.488   4.011
 7157W        W75551  36.097  23.624   4.011
 7158W        W75552  23.644  28.689  14.442
 7159W        W75553  15.438  32.011  10.658
 7160W        W75554  13.110  38.883  10.692
 7161W        W75555   5.607  16.680   4.990
 7162W        W75556  22.474  26.757   0.341
 7163W        W75557  18.404  43.089   1.450
 7164W        W75558  31.145  41.809   3.274
 7165W        W75559   4.778  21.786   0.319
 7166W        W75560  31.620  38.823   0.705
 7167W        W75561   7.500   9.664  13.435
 7168W        W75562  43.889  35.358   4.563
 7169W        W75563  26.962   5.683   2.985
 7170W        W75564  13.651   9.096  14.035
 7171W        W75565   6.910   9.820  14.758
 7172W        W75566   1.824  43.821  11.673
 7173W        W75567  19.314  39.485   4.997
 7174W        W75568  18.710  18.128   0.192
 7175W        W75569  22.451   1.763   1.989
 7176W        W75570   7.986  24.177  12.983
 7177W        W75571   5.017  29.695  11.268
 7178W        W75572  32.462   8.952  14.879
 7179W        W75573  12.914  43.863   2.236
 7180W        W75574  43.400  16.727  14.867
 7181W        W75575  24.792  17.747   1.950
 7182W        W75576  40.796  22.494  11.015
 7183W        W75577  29.101  22.704  13.811
 7184W        W75578  44.720  24.200  12.691
 7185W        W75579  42.081   5.906  14.432
 7186W        W75580  42.018  24.954  13.899
 7187W        W75581  34.392  10.670  10.741
 7188W        W75582  24.963  18.718  10.693
 7189W        W75583  13.015  14.546   0.457
 7190W        W75584  11.133  22.964   0.294
 7191W        W75585  32.198  13.639  12.958
 7192W        W75586  17.656  19.226  11.077
 7193W        W75587  33.357  43.078  10.843
 7194W        W75588  25.437   8.362   3.700
 7195W        W75589  36.784  25.292   1.801
 7196W        W75590  27.201  24.193   2.197
 7197W        W75591   9.260  24.324   2.849
 7198W        W75592   8.918   0.080  14.410
 7199W        W75593   5.426  38.624  10.546
 7200W        W75594   3.377  28.215   1.779
 7201W        W75595  24.469  12.673   5.542
 7202W        W75596  32.405   8.237   4.103
 7203W        W75597  33.025   7.664   2.604
 7204W        W75598  38.539  24.398  13.943
 7205W        W75599  33.070  36.618   3.381
 7206W        W75600  34.018  10.546  11.092
 7207W        W75601  36.834  33.044   1.899
 7208W        W75602  42.314   3.007  11.155
 7209W        W75603  36.118   3.341  13.519
 7210W        W75604  42.346   0.757  11.301
 7211W        W75605  11.537  10.189   3.626
 7212W        W75606  37.887  32.950   2.537
 7213W        W75607  44.060   5.905   1.133
 7214W        W75608   0.805  14.686   3.645
 7215W        W75609  23.997  16.312  14.023
 7216W        W75610  16.982  10.915   3.676
 7217W        W75611  12.686  29.736  14.554
 7218W        W75612  30.475   9.832   4.843
 7219W        W75613  33.912  42.514  11.565
 7220W        W75614  18.323  14.982   3.328
 7221W        W75615  15.263  32.929   0.844
 7222W        W75616  43.762  38.933  12.735
 7223W        W75617  42.778  26.013   2.409
 7224W        W75618  10.390  21.752   0.961
 7225W        W75619  22.737   3.456  10.552
 7226W        W75620   2.433  11.927  10.142
 7227W        W75621  19.806  40.813   0.532
 7228W        W75622  17.067  24.107  14.415
 7229W        W75623  31.606  29.022   0.748
 7230W        W75624  22.671  38.277   3.749
 7231W        W75625  17.244  24.623   3.698
 7232W        W75626  38.450  23.476   3.701
 7233W        W75627  40.553   1.957  12.119
 7234W        W75628  29.194  24.702   1.671
 7235W        W75629  44.323  38.457  13.353
 7236W        W75630  23.252  23.642  13.201
 7237W        W75631   9.921   0.201   3.621
 7238W        W75632  10.685   0.076  10.297
 7239W        W75633  16.380  42.681   0.696
 7240W        W75634  36.121  31.368  10.786
 7241W        W75635  32.846  42.748  13.116
 7242W        W75636  32.291  42.644  13.809
 7243W        W75637  15.551  11.668  10.767
 7244W        W75638  34.442  18.707   2.165
 7245W        W75639  12.037  16.696   1.967
 7246W        W75640  23.126   2.160   3.363
 7247W        W75641  35.816  33.140   2.003
 7248W        W75642  30.413  22.125  14.477
 7249W        W75643  36.013  37.594   3.283
 7250W        W75644  30.979  35.670   1.119
 7251W        W75645  10.217  40.839  11.594
 7252W        W75646  16.591  11.375  14.539
 7253W        W75647  24.968  26.276  12.448
 7254W        W75648   6.234  21.563   1.410
 7255W        W75649  39.799  35.063  14.286
 7256W        W75650  21.514  31.876   1.218
 7257W        W75651  44.291  28.533  14.860
 7258W        W75652   8.094  13.295  11.971
 7259W        W75653  32.070  30.893  11.469
 7260W        W75654   1.276  31.946  13.444
 7261W        W75655  25.964  35.126  14.479
 7262W        W75656  30.405  32.967   0.387
 7263W        W75657  28.318   0.901   4.439
 7264W        W75658  26.504  39.869  11.504
 7265W        W75659  13.778   4.176  13.747
 7266W        W75660  35.013  23.735   2.843
 7267W        W75661  17.005  34.103   0.158
 7268W        W75662   8.711  44.860   4.587
 7269W        W75663  37.954  30.811  12.872
 7270W        W75664  32.680   3.161  12.308
 7271W        W75665  38.320  42.405   2.850
 7272W        W75666  43.329   5.321   3.931
 7273W        W75667  22.457  28.569   0.870
 7274W        W75668  26.804  44.852   1.194
 7275W        W75669   0.333  41.417   1.504
 7276W        W75670  29.070  44.554   3.670
 7277W        W75671  15.096  42.085   0.976
 7278W        W75672  43.928  26.720   0.504
 7279W        W75673  13.125  20.483   0.841
 7280W        W75674   3.649  17.664  11.960
 7281W        W75675  18.231   9.400  11.232
 7282W        W75676  32.227  35.929  10.547
 7283W        W75677  41.528  30.691  13.061
 7284W        W75678  39.556  17.715  12.894
 7285W        W75679  40.613  19.277  14.831
 7286W        W75680  33.086  17.988  14.847
 7287W        W75681  18.279   4.216   2.360
 7288W        W75682  41.892  32.677  14.737
 7289W        W75683  20.831  29.104  12.812
 7290W        W75684  40.050  24.715   1.851
 7291W        W75685  43.601  11.828  13.024
 7292W        W75686  26.507  16.938   0.624
 7293W        W75687  16.780   2.675  11.067
 7294W        W75688   5.406   4.460   2.242
 7295W        W75689  19.633  20.337  12.661
 7296W        W75690  44.826  18.251  10.682
 7297W        W75691  24.041  12.353   5.613
 7298W        W75692  16.656  24.606  11.587
 7299W        W75693  40.935  13.288  13.344
 7300W        W75694  35.855   4.961   4.653
 7301W        W75695  35.559  30.905  11.614
 7302W        W75696  29.637  22.659   0.461
 7303W        W75697  24.601  27.991  13.062
 7304W        W75698  28.036  30.542   3.533
 7305W        W75699   2.309  30.129  14.857
 7306W        W75700  34.410  23.455  13.880
 7307W        W75701   6.145  32.518   4.667
 7308W        W75702  33.478   7.405   2.566
 7309W        W75703  12.289  21.855   4.075
 7310W        W75704  28.178  16.243  11.924
 7311W        W75705   3.862  33.978   3.653
 7312W        W75706  24.673  15.658   1.475
 7313W        W75707  36.497  29.476   3.347
 7314W        W75708  36.494  23.197  11.985
 7315W        W75709  37.113  39.963   2.650
 7316W        W75710  40.192  18.261   4.507
 7317W        W75711  35.454  31.303   2.821
 7318W        W75712   3.032  41.737  14.967
 7319W        W75713  32.052   9.073   1.243
 7320W        W75714  30.211  26.540   3.641
 7321W        W75715  18.698  10.113   0.838
 7322W        W75716  40.576  23.126  11.739
 7323W        W75717   9.425  17.220   2.629
 7324W        W75718  38.072   4.885   9.835
 7325W        W75719   1.063  42.359   3.885
 7326W        W75720  17.090  40.419  14.811
 7327W        W75721   2.242   8.271   2.929
 7328W        W75722   5.451  12.576  13.990
 7329W        W75723  36.962  16.058   2.442
 7330W        W75724  17.922  22.506   2.363
 7331W        W75725  18.190  40.067   4.525
 7332W        W75726   9.835  38.727   3.832
 7333W        W75727   5.314  37.151   2.171
 7334W        W75728  36.502  16.242  10.569
 7335W        W75729  23.267  16.145  13.530
 7336W        W75730  39.118  30.593   0.316
 7337W        W75731   5.744  40.061   2.898
 7338W        W75732   9.127   5.332  11.944
 7339W        W75733  25.636   6.954   1.691
 7340W        W75734   5.333  14.091  14.875
 7341W        W75735  22.927  40.788  12.901
 7342W        W75736   6.129  28.122   1.919
 7343W        W75737   4.813   6.433   2.379
 7344W        W75738   1.962  42.807   0.821
 7345W        W75739   5.426  37.346  14.333
 7346W        W75740  26.306  39.664   1.298
 7347W        W75741  17.273  19.280   3.658
 7348W        W75742  39.182  24.782  13.544
 7349W        W75743  43.154  42.053   3.644
 7350W        W75744  20.091  36.455  10.638
 7351W        W75745  38.218  24.250   2.673
 7352W        W75746  18.377  41.228   1.906
 7353W        W75747   9.191  26.575  14.350
 7354W        W75748  38.813  42.736   4.339
 7355W        W75749  33.622  18.604   4.561
 7356W        W75750  36.336  41.918   4.750
 7357W        W75751  17.390  12.699  14.226
 7358W        W75752  30.114  26.047  14.515
 7359W        W75753  23.653  34.379  11.594
 7360W        W75754  13.417  35.324   3.251
 7361W        W75755  43.263  36.035  12.566
 7362W        W75756   4.905  23.492   3.413
 7363W        W75757  42.321  23.336   1.806
 7364W        W75758  32.989   7.966  11.832
 7365W        W75759   7.715   1.447  11.595
 7366W        W75760  20.740  23.083  11.294
 7367W        W75761  43.957  10.788  14.860
 7368W        W75762  19.547  36.391   2.939
 7369W        W75763  18.660  14.483  10.413
 7370W        W75764  12.438   0.902  12.492
 7371W        W75765   6.016  10.408  12.830
 7372W        W75766  20.035   5.962   1.453
 7373W        W75767   2.000  30.411   4.597
 7374W        W75768  39.367  42.474   0.939
 7375W        W75769  37.896   2.649   3.379
 7376W        W75770  26.430  29.111   0.358
 7377W        W75771  43.270  16.419   1.175
 7378W        W75772  13.270  40.056  14.365
 7379W        W75773   3.286   7.166  12.889
 7380W        W75774   6.884  27.807   1.124
 7381W        W75775  33.405  40.994   4.349
 7382W        W75776  32.887  15.650  10.841
 7383W        W75777  42.764  43.571  14.297
 7384W        W75778  26.424  40.931   0.069
 7385W        W75779  38.855  19.226   0.800
 7386W        W75780  15.691   0.058   2.651
 7387W        W75781  33.438  43.193   4.913
 7388W        W75782  41.458  20.780  13.907
 7389W        W75783  35.378  39.326  11.573
 7390W        W75784  24.224   0.121  13.916
 7391W        W75785  29.533  10.241   2.485
 7392W        W75786  17.174  38.349   2.087
 7393W        W75787  40.035   8.221   3.662
 7394W        W75788   7.408  28.588   3.424
 7395W        W75789  28.711  40.784   4.442
 7396W        W75790  25.445  10.262   1.247
 7397W        W75791  11.184  17.179  11.137
 7398W        W75792   7.375  20.471   3.477
 7399W        W75793  34.965  37.664  10.724
 7400W        W75794  41.930  34.132   4.217
 7401W        W75795  11.188  19.256   4.059
 7402W        W75796   3.357  41.878  12.522
 7403W        W75797  40.540  41.032   4.214
 7404W        W75798  13.026  42.328  11.955
 7405W        W75799   2.485  19.294  14.436
 7406W        W75800   7.296   3.440  13.080
 7407W        W75801   0.139  35.691  11.330
 7408W        W75802  33.174  39.092   5.075
 7409W        W75803  25.782   2.956  14.710
 7410W        W75804   1.374  43.304   2.157
 7411W        W75805  23.103  11.170  12.565
 7412W        W75806  28.878  16.290   0.732
 7413W        W75807  31.571  19.547   0.649
 7414W        W75808   6.286  29.647  11.558
 7415W        W75809  11.732   1.195  12.394
 7416W        W75810  19.331  17.345   0.166
 7417W        W75811  30.627  24.002  12.949
 7418W        W75812  38.589  24.006   2.418
 7419W        W75813  10.258  25.543   3.752
 7420W        W75814  10.415  19.018  13.442
 7421W        W75815   5.599   5.581   4.400
 7422W        W75816   5.457  16.266  13.404
 7423W        W75817  37.399  40.615   5.099
 7424W        W75818  31.022   0.823  13.893
 7425W        W75819  37.668   0.598  11.976
 7426W        W75820  37.890  15.653   4.794
 7427W        W75821  15.099  20.049   4.832
 7428W        W75822  44.954  31.516   1.317
 7429W        W75823  44.473  44.266   2.208
 7430W        W75824  10.140  14.584   0.410
 7431W        W75825   2.961  27.133   2.136
 7432W        W75826   1.846  20.843   3.156
 7433W        W75827  35.593  10.919   1.448
 7434W        W75828   3.021   1.101  10.887
 7435W        W75829  26.287  25.761   1.237
 7436W        W75830  44.208  27.385  10.557
 7437W        W75831  23.994  40.949   1.879
 7438W        W75832   7.489  11.462   1.838
 7439W        W75833  42.951  25.746   1.381
 7440W        W75834  31.973  18.277  11.503
 7441W        W75835  12.057  17.072  11.058
 7442W        W75836  41.452  42.456   4.905
 7443W        W75837  42.862  38.297   1.371
 7444W        W75838  40.380  16.870   1.246
 7445W        W75839   5.595  13.086   4.536
 7446W        W75840  11.016  24.716  10.654
 7447W        W75841  19.602  35.863  14.371
 7448W        W75842  21.191  10.855  12.515
 7449W        W75843  43.931  20.658  11.753
 7450W        W75844  16.612   6.407   1.086
 7451W        W75845   1.989   4.619  12.531
 7452W        W75846  38.566  44.299  14.758
 7453W        W75847  32.877  31.857  12.431
 7454W        W75848  14.906  16.088  13.327
 7455W        W75849   8.602   3.275   2.396
 7456W        W75850  13.202   9.123  10.513
 7457W        W75851  40.254  35.108   4.317
 7458W        W75852  34.675  39.484   1.703
 7459W        W75853  31.445  19.649   3.980
 7460W        W75854  32.354  27.594   4.315
 7461W        W75855  27.495  40.348   2.511
 7462W        W75856   0.807  38.251   0.462
 7463W        W75857   1.451   0.233   3.325
 7464W        W75858  11.912  25.196   0.967
 7465W        W75859  34.274   2.815   1.869
 7466W        W75860  22.812   7.842   1.416
 7467W        W75861  37.340  19.802   2.097
 7468W        W75862  42.033  23.378   2.725
 7469W        W75863  22.911  34.055   2.915
 7470W        W75864  42.764  30.746  13.330
 7471W        W75865  39.357   1.192   4.567
 7472W        W75866  42.138  39.020   0.098
 7473W        W75867  13.148   8.018  13.548
 7474W        W75868  39.146  35.061   2.201
 7475W        W75869  23.807  24.548   2.666
 7476W        W75870  10.506  35.490   3.483
 7477W        W75871  22.675  24.348  14.748
 7478W        W75872  34.408  10.195  13.865
 7479W        W75873  25.700   9.758  13.885
 7480W        W75874  16.834  42.785   1.801
 7481W        W75875   6.431  13.067   2.783
 7482W        W75876  10.975  16.014   2.411
 7483W        W75877  14.963  38.797   5.064
 7484W        W75878  43.389  40.509   0.995
 7485W        W75879  29.150  24.065   2.243
 7486W        W75880  42.398  21.731   3.027
 7487W        W75881  12.813  24.872  11.559
 7488W        W75882  23.631  13.173   0.710
 7489W        W75883  15.588  35.174  13.115
 7490W        W75884  14.320  42.630   4.114
 7491W        W75885  44.271  36.602  11.160
 7492W        W75886  32.976  27.521   0.934
 7493W        W75887  37.392  24.578  11.502
 7494W        W75888  27.568   3.357   2.411
 7495W        W75889  14.753   4.812   2.270
 7496W        W75890   7.369  39.091   4.620
 7497W        W75891  22.423  31.619  14.752
 7498W        W75892  27.108  22.294   4.827
 7499W        W75893   1.889  31.582   2.423
 7500W        W75894  40.033  20.119   4.268
 7501W        W75895   7.362  25.438   1.537
 7502W        W75896  28.215  34.638  12.026
 7503W        W75897  26.875  43.351  10.416
 7504W        W75898  20.603  43.229  14.840
 7505W        W75899  33.715   5.147  11.648
 7506W        W75900  39.542  16.054   2.233
 7507W        W75901  21.494  44.031   1.193
 7508W        W75902  16.041  19.035   4.205
 7509W        W75903   7.405  10.620  14.441
 7510W        W75904   7.849  20.672   1.775
 7511W        W75905  29.882  14.382   1.422
 7512W        W75906   5.690  34.972  12.072
 7513W        W75907  19.168  44.435  10.702
 7514W        W75908  44.449  19.956  14.153
 7515W        W75909  16.375  11.649  13.357
 7516W        W75910  14.722  19.702   0.814
 7517W        W75911  27.073  23.283   0.457
 7518W        W75912  34.431  15.824  12.020
 7519W        W75913  22.094   8.681   1.610
 7520W        W75914   3.238   9.904   0.937
 7521W        W75915  34.064  17.142  12.574
 7522W        W75916  30.388  35.454  13.043
 7523W        W75917  39.728  43.821   4.622
 7524W        W75918   9.978  12.121   1.276
 7525W        W75919  11.126  16.730  10.867
 7526W        W75920  11.370  37.412   4.835
 7527W        W75921  43.190   4.411   5.017
 7528W        W75922  40.849  34.126   0.454
 7529W        W75923  41.822  44.506  14.384
 7530W        W75924  13.367   4.212  14.590
 7531W        W75925  29.557   4.189   1.689
 7532W        W75926  44.225  22.522   4.034
 7533W        W75927  21.078  11.221   2.843
 7534W        W75928  23.477  43.764  14.986
 7535W        W75929  11.470  32.780   4.620
 7536W        W75930  14.898  18.718   4.241
 7537W        W75931  38.918   7.839   3.358
 7538W        W75932   0.505  12.374   4.634
 7539W        W75933   8.334  38.626  12.016
 7540W        W75934   6.832   5.861   4.585
 7541W        W75935  26.088  19.413  12.859
 7542W        W75936  34.410  10.200  13.317
 7543W        W75937  34.020  25.262  12.404
 7544W        W75938   6.793  34.149  10.645
 7545W        W75939  17.720  17.250   0.911
 7546W        W75940   3.253  30.673   2.608
 7547W        W75941  25.030  10.802   0.190
 7548W        W75942  34.915  13.037  11.621
 7549W        W75943  43.241  21.128   2.386
 7550W        W75944  31.726  12.813  11.146
 7551W        W75945  15.088  17.159   3.531
 7552W        W75946  20.360  24.742   4.085
 7553W        W75947  27.945  15.294  14.023
 7554W        W75948  17.044  26.452  14.461
 7555W        W75949  19.552  32.029  14.850
 7556W        W75950  12.978  35.830   2.205
 7557W        W75951  36.619   7.947  11.505
 7558W        W75952  18.384  22.616  14.635
 7559W        W75953  40.163  43.748   1.928
 7560W        W75954   0.240   8.065  10.511
 7561W        W75955  35.774  36.508  12.052
 7562W        W75956  33.055  21.758  14.979
 7563W        W75957  10.900  35.816   3.096
 7564W        W75958   7.021   8.273   1.343
 7565W        W75959  14.365  32.659  13.956
 7566W        W75960  21.123   6.629   4.622
 7567W        W75961  23.931  19.176  13.545
 7568W        W75962  14.312  14.155  10.669
 7569W        W75963  40.962  19.358   3.692
 7570W        W75964  29.691   0.745   4.115
 7571W        W75965   0.430  39.384   4.692
 7572W        W75966  37.625  20.138   4.592
 7573W        W75967  22.530  15.214  11.180
 7574W        W75968  37.449   0.852   1.558
 7575W        W75969   2.870  25.103   1.778
 7576W        W75970  42.976   0.424  10.882
 7577W        W75971  29.046  32.119  10.611
 7578W        W75972  38.810  41.264   1.845
 7579W        W75973   3.223   9.668  11.494
 7580W        W75974  21.338  38.643   3.140
 7581W        W75975  18.805   6.949   2.846
 7582W        W75976  25.987   3.723  14.317
 7583W        W75977  13.791  17.825   3.240
 7584W        W75978  23.962  38.455   4.133
 7585W        W75979  37.742  41.593   1.855
 7586W        W75980   9.845  36.964   2.880
 7587W        W75981  18.794  38.302   3.550
 7588W        W75982  44.716  38.649   2.228
 7589W        W75983  19.184  12.557   0.920
 7590W        W75984  21.214  16.227  12.878
 7591W        W75985   6.750  34.893  14.413
 7592W        W75986  29.437  24.276   1.860
 7593W        W75987   7.130  26.070   4.760
 7594W        W75988  26.822   5.210  13.585
 7595W        W75989  28.574  29.996   2.799
 7596W        W75990   4.741  23.768  11.673
 7597W        W75991  42.463   0.982  13.238
 7598W        W75992  38.618  29.958  12.104
 7599W        W75993  11.847  25.190   3.660
 7600W        W75994  38.180  12.867   1.567
 7601W        W75995  43.274  38.277  11.833
 7602W        W75996  16.411  31.585  13.902
 7603W        W75997  16.597  43.761   4.802
 7604W        W75998  19.186  38.037  11.642
 7605W        W75999  27.156  42.174  11.100
 7606W        W76000  23.859  18.888   1.765
 7607W        W76001  17.814   5.829   1.305
 7608W        W76002   7.155  26.150  10.245
 7609W        W76003  13.721  32.848  12.022
 7610W        W76004   6.143   0.160   4.667
 7611W        W76005  12.785   1.752   2.920
 7612W        W76006  24.448  44.885   2.198
 7613W        W76007  10.691  29.507   3.689
 7614W        W76008   6.730  39.490  14.447
 7615W        W76009  28.478  15.087  12.590
 7616W        W76010  36.989   3.700  13.266
 7617W        W76011  17.308  42.470  13.283
 7618W        W76012  36.010   0.013   0.053
 7619W        W76013  36.904  30.459  14.973
 7620W        W76014  13.115  32.353  12.561
 7621W        W76015  17.131  25.747  12.025
 7622W        W76016  33.867   6.968   1.919
 7623W        W76017  40.409  31.488   2.127
 7624W        W76018  18.918  14.947  12.564
 7625W        W76019   8.809  37.057   0.230
 7626W        W76020  18.202   3.410  10.152
 7627W        W76021  16.780  17.263   4.107
 7628W        W76022  19.278  27.105   3.646
 7629W        W76023  17.022  16.685   2.322
 7630W        W76024  41.989   2.978   4.684
 7631W        W76025   9.124   9.987  11.454
 7632W        W76026  35.638  30.414  12.457
 7633W        W76027  12.078  39.936   3.687
 7634W        W76028   6.230  10.588   1.927
 7635W        W76029  17.612  26.519  14.490
 7636W        W76030  25.535  31.537  13.048
 7637W        W76031  35.559  43.346   4.619
 7638W        W76032  16.274   6.810  14.363
 7639W        W76033  35.974  39.912   2.694
 7640W        W76034  13.094   1.751   3.596
 7641W        W76035   2.904  17.166   3.347
 7642W        W76036   4.513  18.120   4.488
 7643W        W76037  25.141  25.077   1.479
 7644W        W76038  40.933  19.643   0.888
 7645W        W76039  26.563  40.851   0.947
 7646W        W76040  44.627  33.928  13.970
 7647W        W76041  40.474  29.478  11.712
 7648W        W76042   6.837  40.775   1.874
 7649W        W76043  41.590  24.140  14.996
 7650W        W76044  41.014  44.650   4.164
 7651W        W76045   9.327  36.936   0.267
 7652W        W76046   9.199  13.849   3.418
 7653W        W76047   0.801  38.340  13.891
 7654W        W76048  11.525  23.104  14.984
 7655W        W76049  20.154  23.103  14.479
 7656W        W76050  37.137  22.089  10.783
 7657W        W76051  19.789  34.636  14.785
 7658W        W76052  23.404  28.963   3.287
 7659W        W76053  16.301  12.657  13.055
 7660W        W76054  11.933  23.465  11.208
 7661W        W76055   0.172  12.398   3.814
 7662W        W76056   8.300  36.324  10.938
 7663W        W76057  25.195  34.325   2.379
 7664W        W76058  17.570  35.593  14.989
 7665W        W76059  18.072  30.076  14.450
 7666W        W76060  34.744   3.967   3.157
 7667W        W76061  17.172  35.609   4.799
 7668W        W76062  26.280  41.427   2.843
 7669W        W76063  36.547  23.037   2.481
 7670W        W76064  13.017   6.347  11.586
 7671W        W76065  25.839   5.835  11.964
 7672W        W76066   5.857  17.791   3.287
 7673W        W76067  21.976  33.139  13.843
 7674W        W76068  21.153  32.615   3.792
 7675W        W76069  17.544  44.762  10.722
 7676W        W76070   1.954  33.408   1.571
 7677W        W76071  20.073  23.645  13.012
 7678W        W76072  12.264  41.516   0.942
 7679W        W76073  24.010   7.600  13.951
 7680W        W76074  14.031  27.965  11.469
 7681W        W76075  18.022  18.109   4.323
 7682W        W76076  15.860   7.356   0.452
 7683W        W76077  40.298  43.815   0.013
 7684W        W76078  14.695  23.425  11.820
 7685W        W76079  44.461  36.141   1.735
 7686W        W76080  42.340   6.631   4.847
 7687W        W76081  39.796  14.664   4.650
 7688W        W76082   2.405  37.706   4.160
 7689W        W76083  20.047   7.274  14.793
 7690W        W76084  41.997  18.313  12.645
 7691W        W76085  41.871  31.981   0.283
 7692W        W76086   6.645  44.328   4.356
 7693W        W76087  30.793  30.698  13.955
 7694W        W76088   4.875  36.968   2.378
 7695W        W76089  31.349  23.996  10.814
 7696W        W76090  20.557  32.788  13.282
 7697W        W76091  42.771  22.145   4.206
 7698W        W76092  13.711  15.387  13.066
 7699W        W76093   2.277   4.832   0.668
 7700W        W76094   0.772   3.246   0.407
 7701W        W76095  31.985   3.191   3.718
 7702W        W76096  24.292  13.242   3.367
 7703W        W76097  10.792  34.165  11.352
 7704W        W76098  26.799   0.561  10.354
 7705W        W76099  20.173  38.098   1.414
 7706W        W76100   3.726  12.204   3.613
 7707W        W76101  24.420  29.644  13.438
 7708W        W76102  41.837  21.740  10.795
 7709W        W76103  12.344  40.881   2.778
 7710W        W76104   9.085  18.298  10.735
 7711W        W76105  35.126  21.939   1.312
 7712W        W76106  35.363   6.830   2.366
 7713W        W76107   0.336  43.568  13.020
 7714W        W76108   7.353  42.992  14.279
 7715W        W76109  12.990  42.414   2.341
 7716W        W76110  17.531  26.834   5.312
 7717W        W76111  41.592  12.642  14.449
 7718W        W76112  21.058  19.714   4.647
 7719W        W76113  13.164  12.117   2.733
 7720W        W76114  38.000  30.877   2.179
 7721W        W76115  35.877   3.851  12.478
 7722W        W76116  41.924  20.537  13.884
 7723W        W76117   9.675  33.849  11.246
 7724W        W76118  32.082  10.828  13.900
 7725W        W76119  22.513  16.239  13.903
 7726W        W76120  15.554  29.905   3.460
 7727W        W76121  37.373  20.771   0.261
 7728W        W76122  16.139  16.987   4.672
 7729W        W76123   9.652  40.261  11.187
 7730W        W76124  14.627   8.339   0.323
 7731W        W76125   7.386  38.197  13.841
 7732W        W76126  42.016   6.468   0.865
 7733W        W76127  21.249  38.524  10.859
 7734W        W76128  22.302  21.358  14.318
 7735W        W76129   7.080   0.910  10.497
 7736W        W76130   5.222  31.660   3.365
 7737W        W76131  15.212  31.702  11.599
 7738W        W76132  13.361   5.524  13.986
 7739W        W76133  31.389  12.829  12.533
 7740W        W76134  18.460  39.463   0.353
 7741W        W76135  10.363  11.775  13.841
 7742W        W76136   3.001  34.384  11.624
 7743W        W76137  38.789  20.427  11.926
 7744W        W76138  35.073   1.001   4.125
 7745W        W76139   3.950  32.073  14.574
 7746W        W76140  19.606  38.814  12.564
 7747W        W76141   4.286   7.908   2.921
 7748W        W76142  27.628  28.398   0.964
 7749W        W76143  18.553  19.739   0.184
 7750W        W76144  39.614  36.522  14.356
 7751W        W76145  31.070   1.310  10.514
 7752W        W76146   1.064  22.002   3.539
 7753W        W76147  34.992  31.929   4.904
 7754W        W76148  21.068  25.272  11.577
 7755W        W76149  28.962  43.674   0.882
 7756W        W76150  41.281   8.605  11.529
 7757W        W76151  21.251  28.732  14.922
 7758W        W76152  20.154  14.127  12.329
 7759W        W76153  14.959   7.755  10.207
 7760W        W76154  33.591   6.805   3.819
 7761W        W76155   4.747  40.493  13.830
 7762W        W76156  19.073  21.508   2.708
 7763W        W76157  42.799  38.982  11.156
 7764W        W76158  38.378  43.475   4.810
 7765W        W76159  24.542  24.316   3.653
 7766W        W76160  10.339  43.353  11.969
 7767W        W76161  34.364  36.562   0.729
 7768W        W76162   8.670  15.154   2.402
 7769W        W76163  27.507   0.971  13.636
 7770W        W76164   8.230  33.365  10.546
 7771W        W76165   3.468  15.729  14.025
 7772W        W76166  36.838  32.146   0.528
 7773W        W76167  24.527   0.339   3.584
 7774W        W76168  10.407  37.528  11.212
 7775W        W76169  10.134  10.338  13.413
 7776W        W76170  39.162   6.589   5.042
 7777W        W76171  42.073  42.297  12.100
 7778W        W76172  37.371  43.268   1.414
 7779W        W76173  21.183   4.415  14.038
 7780W        W76174  20.487   9.117   1.165
 7781W        W76175   8.537   2.672   3.777
 7782W        W76176  17.199  24.105   3.770
 7783W        W76177  23.870  35.769  11.184
 7784W        W76178  15.797  32.388  10.663
 7785W        W76179  41.378  43.647   2.430
 7786W        W76180  21.542  10.370  10.269
 7787W        W76181  22.589   1.512  10.665
 7788W        W76182  15.589  31.567   0.481
 7789W        W76183   6.194  43.620   0.777
 7790W        W76184  12.310   7.027  11.392
 7791W        W76185  38.268  14.381   2.127
 7792W        W76186   4.650   9.445  11.506
 7793W        W76187  38.859  12.260  12.510
 7794W        W76188  27.121  42.797   0.076
 7795W        W76189  44.878  23.006  11.541
 7796W        W76190  40.492   7.866  11.604
 7797W        W76191  30.933  39.295   4.267
 7798W        W76192   7.891  33.866  12.582
 7799W        W76193  32.138  29.174   1.857
 7800W        W76194  22.412  44.341  14.046
 7801W        W76195  29.946  27.581  12.076
 7802W        W76196  22.829  38.900   0.753
 7803W        W76197   2.089  17.131  14.956
 7804W        W76198  31.856  40.511  11.214
 7805W        W76199   2.836  40.763   2.293
 7806W        W76200  36.465   3.820   1.278
 7807W        W76201   0.525  28.001  12.485
 7808W        W76202  29.519  41.910  14.375
 7809W        W76203   7.870  44.899   4.162
 7810W        W76204  26.089  16.676  13.513
 7811W        W76205  31.230  22.998  11.504
 7812W        W76206  10.933  18.908   2.261
 7813W        W76207   5.297  25.925   0.023
 7814W        W76208  42.853  23.499   4.906
 7815W        W76209   7.474  39.991   2.287
 7816W        W76210  37.891  22.136  12.597
 7817W        W76211  25.775   7.166  11.928
 7818W        W76212  22.048  32.508   4.748
 7819W        W76213  36.899   9.130  14.389
 7820W        W76214  29.043  13.538   1.804
 7821W        W76215  31.733  11.334  12.940
 7822W        W76216  13.704  21.832   4.126
 7823W        W76217  39.430  27.564   2.657
 7824W        W76218   7.179  25.485  14.446
 7825W        W76219   8.713   1.161  11.584
 7826W        W76220   6.273  24.752  12.572
 7827W        W76221   2.052   0.928  12.049
 7828W        W76222   0.424  41.287   0.498
 7829W        W76223  27.131  38.053   0.891
 7830W        W76224  16.607  25.820  12.127
 7831W        W76225  33.117  16.592   1.257
 7832W        W76226  24.971  17.725   4.230
 7833W        W76227  11.744  38.585  10.249
 7834W        W76228  18.423  36.498  14.027
 7835W        W76229  38.795  17.606   0.019
 7836W        W76230  42.102   2.327   0.790
 7837W        W76231  36.312   2.305  14.069
 7838W        W76232  23.654  25.971   4.620
 7839W        W76233  38.010  27.141   1.664
 7840W        W76234  13.352  21.772  11.239
 7841W        W76235  33.623   0.473   3.015
 7842W        W76236  30.085   6.614  11.758
 7843W        W76237  19.151  17.259   0.736
 7844W        W76238  35.691  32.591   1.059
 7845W        W76239  29.193  11.115  12.092
 7846W        W76240  39.464  23.344   4.909
 7847W        W76241  23.602  22.107   1.890
 7848W        W76242  10.572   9.727   2.368
 7849W        W76243  23.665   4.946   4.577
 7850W        W76244  32.894  23.143   3.657
 7851W        W76245   0.821  35.138   3.883
 7852W        W76246  44.708   9.188   3.860
 7853W        W76247  10.506   9.254  12.285
 7854W        W76248  18.168  15.463   3.236
 7855W        W76249  40.967   3.763  11.941
 7856W        W76250   4.546  16.742   5.128
 7857W        W76251  44.787   5.389   4.858
 7858W        W76252  11.556  43.755   0.850
 7859W        W76253  38.982  39.541   4.211
 7860W        W76254  25.982   4.466  14.833
 7861W        W76255  38.984   5.616   3.660
 7862W        W76256  43.320  21.590   2.626
 7863W        W76257  37.871  34.057   0.311
 7864W        W76258   8.739  38.349   4.202
 7865W        W76259  34.911   2.349   2.498
 7866W        W76260  10.225  18.595  14.433
 7867W        W76261  10.780   3.728  13.453
 7868W        W76262  43.432  13.804   4.097
 7869W        W76263  37.611  37.919  12.556
 7870W        W76264  21.023  32.966  13.038
 7871W        W76265  41.893  26.574   1.804
 7872W        W76266  31.646  44.679   0.785
 7873W        W76267  18.300  10.179   1.837
 7874W        W76268  13.411  23.018   4.597
 7875W        W76269  11.667  29.758   3.165
 7876W        W76270  11.011  22.506   0.885
 7877W        W76271  42.957  39.390   0.269
 7878W        W76272  32.407  26.960   4.228
 7879W        W76273  39.816  34.868  13.346
 7880W        W76274  30.338  11.187   1.805
 7881W        W76275   5.498  17.728  13.400
 7882W        W76276  18.038  26.983  11.679
 7883W        W76277   6.150  14.786  10.769
 7884W        W76278  10.355  15.224   2.432
 7885W        W76279   1.456  16.959  14.722
 7886W        W76280   4.178   2.440  10.586
 7887W        W76281  11.326  26.432  13.110
 7888W        W76282  11.107   8.931  11.154
 7889W        W76283  16.807   3.376   0.401
 7890W        W76284  42.495   8.778   2.317
 7891W        W76285   1.211  29.404  14.451
 7892W        W76286  19.214  37.990   2.313
 7893W        W76287  21.312  28.856  11.584
 7894W        W76288  21.211  31.586  14.833
 7895W        W76289  30.924  40.526   1.274
 7896W        W76290  19.735  36.646  13.514
 7897W        W76291  23.219  44.027  12.592
 7898W        W76292  27.597  24.383  12.438
 7899W        W76293  18.455   6.400  14.412
 7900W        W76294  32.512  18.338  11.594
 7901W        W76295   7.167  23.147   4.356
 7902W        W76296  42.283   6.672   3.290
 7903W        W76297  20.068  34.402  12.594
 7904W        W76298  32.058  41.579  12.931
 7905W        W76299  20.016   2.140   1.100
 7906W        W76300   8.929  22.986   0.471
 7907W        W76301  42.977  21.899  11.215
 7908W        W76302   7.665  21.997  11.614
 7909W        W76303  28.829  10.563  11.572
 7910W        W76304  38.501  17.349   3.736
 7911W        W76305  15.512  33.469   0.211
 7912W        W76306  20.979  32.169  14.450
 7913W        W76307   2.885  10.061   2.689
 7914W        W76308   8.678  28.864   1.744
 7915W        W76309  41.360   1.466  12.029
 7916W        W76310  10.830   0.898   3.710
 7917W        W76311   6.041  17.213  12.562
 7918W        W76312  34.376  12.252  11.188
 7919W        W76313   4.335  12.294  12.476
 7920W        W76314  34.509  29.386  13.441
 7921W        W76315  35.488  22.277   1.598
 7922W        W76316  40.544   4.325   0.171
 7923W        W76317   7.420  42.991   3.192
 7924W        W76318   5.345  29.096   4.490
 7925W        W76319   4.369  39.666   4.630
 7926W        W76320  12.066   1.288   3.793
 7927W        W76321  34.050   8.787  13.993
 7928W        W76322   6.756   0.763  13.147
 7929W        W76323  42.748   0.308   4.524
 7930W        W76324  41.606  43.851  13.594
 7931W        W76325   3.569   7.573   3.963
 7932W        W76326   6.006  16.447   4.677
 7933W        W76327  31.849   3.171  11.191
 7934W        W76328   7.388  11.748   0.179
 7935W        W76329  41.845  23.803  11.545
 7936W        W76330  41.801  11.402   3.225
 7937W        W76331  31.325  24.100   3.218
 7938W        W76332  17.314  33.426  12.360
 7939W        W76333  17.657   9.275   3.615
 7940W        W76334  12.115  40.826  10.916
 7941W        W76335  11.263  28.067   3.177
 7942W        W76336  38.712  12.887   0.842
 7943W        W76337  31.161  41.751   2.273
 7944W        W76338  23.575  25.443  13.028
 7945W        W76339  30.217  43.245   2.790
 7946W        W76340  34.675  43.700  10.561
 7947W        W76341  28.462  11.850   3.183
 7948W        W76342  17.389  38.100  13.427
 7949W        W76343  23.957  11.913   4.210
 7950W        W76344   7.602   7.407  13.287
 7951W        W76345  15.900  40.024  11.029
 7952W        W76346  33.828  11.783   4.838
 7953W        W76347   4.836  13.336  12.025
 7954W        W76348  14.059   0.814  12.104
 7955W        W76349  40.841  40.744  13.899
 7956W        W76350  38.949  11.375   3.288
 7957W        W76351  15.079   6.725  12.467
 7958W        W76352  29.636  19.646  12.677
 7959W        W76353  24.884  11.454  12.612
 7960W        W76354  22.772   9.187   4.118
 7961W        W76355  32.984   8.880   1.930
 7962W        W76356  33.740  29.958   3.756
 7963W        W76357  27.817  27.922   4.978
 7964W        W76358  12.353   0.796   2.812
 7965W        W76359  28.451  43.449   9.386
 7966W        W76360  29.877   5.402   3.801
 7967W        W76361  39.997  15.634   1.249
 7968W        W76362  29.125  15.992   0.197
 7969W        W76363   4.547   3.585  11.556
 7970W        W76364  44.967   3.213  13.251
 7971W        W76365  11.890  40.453  14.277
 7972W        W76366  22.671  42.282   0.748
 7973W        W76367  36.009  37.883   5.099
 7974W        W76368  29.989   0.324   4.074
 7975W        W76369  13.433  24.338  11.513
 7976W        W76370  19.105  25.410  12.088
 7977W        W76371  38.076  28.515   0.299
 7978W        W76372  19.196  38.525  12.401
 7979W        W76373  29.028  33.884  12.551
 7980W        W76374  40.848  16.281   4.199
 7981W        W76375  15.068  18.808   3.770
 7982W        W76376  23.628   5.127  11.118
 7983W        W76377  26.586  41.556  12.100
 7984W        W76378  28.624  39.179   1.796
 7985W        W76379  42.759   3.336  14.417
 7986W        W76380  22.013   6.821   4.716
 7987W        W76381  22.713  38.943   4.590
 7988W        W76382   6.216  20.690   3.658
 7989W        W76383  28.007  44.274  14.234
 7990W        W76384  22.117   6.744   0.927
 7991W        W76385  25.260  21.031  12.007
 7992W        W76386  31.225  34.506   2.568
 7993W        W76387  38.671   5.898   4.092
 7994W        W76388  24.648  21.090   2.305
 7995W        W76389   8.414  41.303   1.420
 7996W        W76390  21.458   0.430  10.710
 7997W        W76391  37.421   2.940  12.495
 7998W        W76392  17.184   8.404  14.370
 7999W        W76393   0.470   1.881  13.022
 8000W        W76394  35.834  21.466  11.737
 8001W        W76395  13.612  42.443  10.454
 8002W        W76396  15.091  21.742  12.831
 8003W        W76397  34.359   8.321  11.361
 8004W        W76398  33.535  14.609   4.657
 8005W        W76399  34.399  26.701  10.826
 8006W        W76400  10.375  39.989   2.887
 8007W        W76401  32.630  16.110   2.893
 8008W        W76402  23.900  13.228   5.089
 8009W        W76403  12.221  39.516   0.661
 8010W        W76404  26.080  36.919  11.294
 8011W        W76405  13.344   0.905  10.940
 8012W        W76406  32.078   9.825  11.450
 8013W        W76407  40.535  35.389  12.413
 8014W        W76408  24.954  23.505  13.367
 8015W        W76409   3.734  20.551   2.708
 8016W        W76410  26.778  34.062   1.773
 8017W        W76411  17.322  33.863  10.790
 8018W        W76412  36.630  40.711   1.816
 8019W        W76413  29.366   6.162   2.763
 8020W        W76414   0.713  15.786   5.011
 8021W        W76415  12.749   8.227  11.498
 8022W        W76416  41.549   3.848   2.820
 8023W        W76417   9.504   3.283   4.602
 8024W        W76418  12.643  18.670   4.744
 8025W        W76419  33.521  12.574  13.531
 8026W        W76420  30.595   6.166   1.787
 8027W        W76421  10.220  25.927   0.456
 8028W        W76422  30.075   9.355  14.501
 8029W        W76423  39.888   9.072  11.553
 8030W        W76424  27.141  15.887  11.789
 8031W        W76425  36.563  28.082   1.674
 8032W        W76426  41.603  20.770   0.675
 8033W        W76427  35.920   3.327   3.896
 8034W        W76428  17.290  15.775   0.089
 8035W        W76429  33.787  17.280  12.996
 8036W        W76430  22.042   5.748  11.488
 8037W        W76431  28.410  32.964   0.151
 8038W        W76432   0.868  42.710  11.684
 8039W        W76433  39.010  26.406   1.336
 8040W        W76434  41.071  44.006  11.986
 8041W        W76435  18.632   5.916  10.318
 8042W        W76436  17.232  37.373   5.151
 8043W        W76437  33.531   5.289  12.489
 8044W        W76438  29.544   0.806  10.206
 8045W        W76439  43.791  28.077   1.485
 8046W        W76440  11.801  13.665   1.041
 8047W        W76441  32.194  39.759  11.127
 8048W        W76442   5.274  11.921   1.431
 8049W        W76443  15.724  11.811  12.871
 8050W        W76444  19.577  34.474   3.796
 8051W        W76445  34.275  21.212  11.899
 8052W        W76446  44.527  31.376   1.847
 8053W        W76447   2.911  18.602  12.573
 8054W        W76448   0.874   3.225  12.223
 8055W        W76449  24.153   3.158  13.974
 8056W        W76450  38.282   8.583  12.234
 8057W        W76451   3.402   1.208   4.287
 8058W        W76452  13.670  43.563   1.902
 8059W        W76453  28.068  21.733   3.525
 8060W        W76454  26.400  26.428  11.242
 8061W        W76455  10.848   8.779  12.911
 8062W        W76456  22.793  42.771   5.146
 8063W        W76457  23.088  28.151  12.615
 8064W        W76458  23.332  43.354   2.732
 8065W        W76459  20.201  20.132  12.460
 8066W        W76460  20.322  22.412  11.030
 8067W        W76461  16.684  44.938  14.888
 8068W        W76462  38.230  18.301  11.149
 8069W        W76463   4.210  11.561  13.387
 8070W        W76464  24.261  38.499  12.675
 8071W        W76465   5.213  40.507  12.989
 8072W        W76466  18.303  13.629  13.870
 8073W        W76467  25.690  32.723  11.037
 8074W        W76468   4.750   0.490  12.186
 8075W        W76469  20.232  19.128  12.765
 8076W        W76470  36.164  35.318  10.396
 8077W        W76471  22.651   7.354  11.411
 8078W        W76472  36.352  26.149  11.139
 8079W        W76473  34.603  44.906   0.414
 8080W        W76474  33.998   7.159   3.706
 8081W        W76475  26.794   2.025   2.740
 8082W        W76476  31.050  17.562   3.090
 8083W        W76477  37.174   2.033   0.432
 8084W        W76478  19.993   1.237  11.856
 8085W        W76479  16.020   9.693  13.044
 8086W        W76480  39.759   7.792   0.216
 8087W        W76481  36.153  44.023   3.276
 8088W        W76482  30.159   3.965  12.556
 8089W        W76483  21.250  26.683   5.165
 8090W        W76484  38.275  27.293   2.161
 8091W        W76485  34.425   3.794  14.936
 8092W        W76486   7.157  34.294  14.794
 8093W        W76487  40.756  16.329  11.852
 8094W        W76488  31.626  15.702   3.126
 8095W        W76489  27.953   1.378  12.625
 8096W        W76490  19.281  24.036   3.445
 8097W        W76491  38.964  12.361  14.355
 8098W        W76492  38.749  32.468  11.510
 8099W        W76493   5.799   2.971   4.720
 8100W        W76494  14.745  39.577   0.398
 8101W        W76495  30.993  20.981   2.662
 8102W        W76496  25.639  38.290  11.513
 8103W        W76497  16.798   8.268   4.005
 8104W        W76498   1.550  32.153   3.567
 8105W        W76499  37.988  26.903  13.138
 8106W        W76500   1.453  32.513   4.812
 8107W        W76501  19.586   6.695  13.883
 8108W        W76502  20.608  36.383   4.276
 8109W        W76503  21.487  10.250  14.689
 8110W        W76504  40.045  27.118  12.070
 8111W        W76505  20.076   8.255   3.044
 8112W        W76506  42.479  10.094  11.576
 8113W        W76507  29.548   8.837  11.935
 8114W        W76508   6.635  33.631   0.416
 8115W        W76509   0.287  20.060   4.844
 8116W        W76510  32.599  14.006  13.026
 8117W        W76511   4.610  24.245  14.238
 8118W        W76512  18.291  32.752  14.702
 8119W        W76513  28.381  22.895   2.891
 8120W        W76514   1.508   7.733  11.539
 8121W        W76515  31.011   4.288   0.969
 8122W        W76516   6.357  21.771   1.841
 8123W        W76517  16.688  19.552   0.440
 8124W        W76518  36.992  30.011  12.806
 8125W        W76519  44.155  30.481   4.126
 8126W        W76520  35.540  42.350   2.859
 8127W        W76521  14.194  38.119   3.662
 8128W        W76522  27.679  13.550   1.984
 8129W        W76523  28.121  35.372  11.537
 8130W        W76524  19.316  25.439   3.223
 8131W        W76525  15.099  43.104  11.242
 8132W        W76526   1.405  36.082   1.776
 8133W        W76527  11.420  18.100  12.498
 8134W        W76528  18.428  31.176  10.666
 8135W        W76529  41.237  34.122  11.486
 8136W        W76530  17.221  37.109   4.073
 8137W        W76531   4.741   6.783   1.931
 8138W        W76532  11.374  13.332   3.761
 8139W        W76533  15.165   2.865   3.838
 8140W        W76534  41.805  39.029  13.852
 8141W        W76535  12.654  28.071  14.859
 8142W        W76536  16.672  43.285  14.693
 8143W        W76537  22.470  19.244  14.968
 8144W        W76538  31.817  12.819   2.004
 8145W        W76539   9.299  20.543   0.472
 8146W        W76540   6.211   7.453   0.408
 8147W        W76541  37.485  39.894   1.347
 8148W        W76542  44.084   2.791  10.749
 8149W        W76543  28.377  20.052  12.449
 8150W        W76544  32.717  17.450  11.117
 8151W        W76545  35.204  17.574  12.149
 8152W        W76546   7.723  41.645   0.073
 8153W        W76547  22.555  20.680  13.717
 8154W        W76548  44.968  24.642  10.924
 8155W        W76549   7.670   4.422  14.359
 8156W        W76550   6.929  13.283  12.539
 8157W        W76551  11.304  32.577  11.092
 8158W        W76552  31.559  28.142   3.173
 8159W        W76553  11.689  36.301   3.735
 8160W        W76554  21.142  13.768   0.374
 8161W        W76555  27.086  42.579   9.723
 8162W        W76556  24.584  42.160  11.229
 8163W        W76557   7.109  42.591  11.565
 8164W        W76558  16.979   6.391   2.283
 8165W        W76559  27.425  20.279  12.445
 8166W        W76560  15.015  26.610   4.622
 8167W        W76561  20.361  25.213   0.425
 8168W        W76562  12.870   1.686   4.272
 8169W        W76563  40.977  19.759   3.398
 8170W        W76564  17.674  16.045  10.534
 8171W        W76565   7.258  42.265  14.112
 8172W        W76566   7.636   1.377  12.481
 8173W        W76567  18.787   6.035   3.230
 8174W        W76568   6.836  28.766  13.768
 8175W        W76569  21.741  21.157   0.917
 8176W        W76570   1.011  36.866   1.741
 8177W        W76571  20.152  21.041  11.627
 8178W        W76572  24.200  12.826   4.363
 8179W        W76573  27.498   1.745   3.248
 8180W        W76574  39.965  18.477   0.723
 8181W        W76575  35.309  20.692  12.630
 8182W        W76576  20.636  37.928   4.607
 8183W        W76577   3.436  34.386  12.113
 8184W        W76578  23.538  22.746   3.153
 8185W        W76579  37.423   1.934  10.732
 8186W        W76580  30.698  16.858  11.868
 8187W        W76581  44.245  31.980   4.567
 8188W        W76582   9.059  12.656   2.731
 8189W        W76583  40.422  15.562  11.954
 8190W        W76584  32.412  16.071  10.961
 8191W        W76585  28.035  21.016  11.540
 8192W        W76586   9.216  12.016   0.792
 8193W        W76587  23.878  10.796   3.598
 8194W        W76588   8.237  29.914   1.332
 8195W        W76589  11.268  21.649  13.364
 8196W        W76590  11.804   2.463   0.868
 8197W        W76591  11.100  42.492  10.625
 8198W        W76592  15.276  37.652   1.746
 8199W        W76593  11.597   8.875   1.887
 8200W        W76594  11.065  21.303   1.368
 8201W        W76595  36.757  18.777  11.957
 8202W        W76596   2.482  13.970   2.502
 8203W        W76597   3.410  22.081   1.253
 8204W        W76598   6.731  19.569  10.647
 8205W        W76599  18.033  15.744  13.310
 8206W        W76600  17.419  20.512   4.301
 8207W        W76601  12.808  35.959   4.581
 8208W        W76602  41.905  21.086   3.070
 8209W        W76603   7.662  32.097  13.363
 8210W        W76604  41.514  24.237  12.489
 8211W        W76605  33.291   6.342   4.714
 8212W        W76606  13.221  37.330   3.997
 8213W        W76607  26.800  28.125   3.339
 8214W        W76608   6.299  31.149   0.259
 8215W        W76609  13.829  42.489   2.468
 8216W        W76610  14.048  33.777  14.526
 8217W        W76611   3.760  41.380   4.642
 8218W        W76612  34.376  18.343   1.752
 8219W        W76613  17.146  30.212  13.406
 8220W        W76614  18.371  44.663  12.579
 8221W        W76615  19.623  42.523   3.733
 8222W        W76616  34.214  16.163  13.992
 8223W        W76617  12.248   6.109  13.162
 8224W        W76618  24.225   1.402   3.125
 8225W        W76619  35.236  40.461   2.225
 8226W        W76620  39.891  34.598   2.346
 8227W        W76621  16.313  27.923   4.526
 8228W        W76622   4.217   3.099   4.114
 8229W        W76623  17.897  30.223   1.316
 8230W        W76624  37.069  43.793   3.097
 8231W        W76625  22.231  25.947  11.849
 8232W        W76626  39.364  42.060  13.642
 8233W        W76627  42.931  18.192   0.272
 8234W        W76628  36.467  17.543  13.411
 8235W        W76629   6.614   9.711  12.424
 8236W        W76630   8.902  24.409  10.747
 8237W        W76631  40.557   5.939  10.815
 8238W        W76632  42.268  36.536   0.405
 8239W        W76633   0.921   2.919   0.783
 8240W        W76634  42.957  26.257   1.452
 8241W        W76635  27.941  43.019  13.633
 8242W        W76636  35.675  24.645  13.811
 8243W        W76637  15.543  40.607   0.204
 8244W        W76638  33.406  24.903   0.950
 8245W        W76639  44.226  40.817  12.846
 8246W        W76640  19.735   2.507  13.012
 8247W        W76641  36.971   4.024   1.926
 8248W        W76642  42.773  41.810   1.392
 8249W        W76643   6.984   4.740   1.218
 8250W        W76644  34.004  12.562  13.343
 8251W        W76645  18.209   5.330  12.551
 8252W        W76646  16.105  33.453  12.369
 8253W        W76647  36.637  34.603  11.504
 8254W        W76648  16.487  40.224   1.271
 8255W        W76649  31.010  19.492   1.357
 8256W        W76650  27.517  21.898   3.234
 8257W        W76651  11.800   7.502  10.098
 8258W        W76652  36.841  23.738   0.786
 8259W        W76653  38.203  26.503   2.537
 8260W        W76654  17.162  15.692   3.349
 8261W        W76655  41.471   4.904   5.021
 8262W        W76656  39.308  38.645   3.393
 8263W        W76657  33.505  42.819   4.569
 8264W        W76658  25.769  34.634   1.317
 8265W        W76659   0.223  41.729  13.417
 8266W        W76660  12.204  12.834   1.969
 8267W        W76661   4.862  42.195   0.787
 8268W        W76662  26.062  44.406  12.984
 8269W        W76663  16.707  16.396   5.078
 8270W        W76664  22.736   3.882  11.138
 8271W        W76665  16.092   0.349   2.472
 8272W        W76666  34.878  28.056   2.619
 8273W        W76667  13.229  17.797  11.723
 8274W        W76668  21.966  17.061  12.396
 8275W        W76669  17.206  32.376   4.229
 8276W        W76670   4.330   0.465  11.881
 8277W        W76671  12.132   3.309   1.962
 8278W        W76672   3.130  27.617   3.674
 8279W        W76673  29.688  26.294  12.319
 8280W        W76674  31.553  13.249  10.688
 8281W        W76675  36.367  16.342  11.113
 8282W        W76676   5.818  42.831  14.820
 8283W        W76677  32.097  32.619  11.943
 8284W        W76678  33.313  40.435   0.643
 8285W        W76679  19.542  44.967   0.760
 8286W        W76680  30.660  31.367   2.713
 8287W        W76681  33.358  44.445  11.563
 8288W        W76682  44.241  42.316   0.470
 8289W        W76683  11.826  33.885  12.091
 8290W        W76684  12.117   9.240   1.181
 8291W        W76685  11.579   9.220  14.741
 8292W        W76686  13.382  20.481  13.054
 8293W        W76687   0.443   8.773   0.021
 8294W        W76688   9.257   7.898  11.484
 8295W        W76689   7.593  19.142   4.177
 8296W        W76690  26.366  43.077   0.684
 8297W        W76691   9.167  19.385  14.993
 8298W        W76692  41.982  36.023   1.279
 8299W        W76693  33.455   8.272   2.096
 8300W        W76694   2.196  31.870  11.115
 8301W        W76695   2.003  44.869  13.367
 8302W        W76696  37.287  12.205  12.530
 8303W        W76697  31.620  16.264  11.978
 8304W        W76698  15.676  15.608   0.695
 8305W        W76699   9.346  10.559  13.404
 8306W        W76700   2.475  10.590  14.488
 8307W        W76701  23.131  33.580  13.000
 8308W        W76702  43.349   7.277   1.027
 8309W        W76703   2.291  31.856  14.429
 8310W        W76704  13.699  19.404   0.968
 8311W        W76705  16.322  40.772  11.450
 8312W        W76706  40.697  27.381   4.215
 8313W        W76707  18.619  10.556  10.640
 8314W        W76708  42.968   8.235   1.485
 8315W        W76709  12.076  15.287  14.740
 8316W        W76710   9.610  14.106  13.084
 8317W        W76711  23.807  11.100  13.866
 8318W        W76712  35.902  17.111   1.923
 8319W        W76713  30.483  40.521   3.292
 8320W        W76714  22.545   9.369  12.533
 8321W        W76715  39.088  19.055  11.760
 8322W        W76716   5.879  23.998   0.959
 8323W        W76717   5.631   4.995   2.295
 8324W        W76718   9.319  25.629   0.945
 8325W        W76719   0.323  31.650   3.150
 8326W        W76720  19.558  37.348   4.178
 8327W        W76721  40.746  42.115   1.425
 8328W        W76722   2.228  19.110   1.735
 8329W        W76723  32.863  28.916  13.886
 8330W        W76724  15.213  38.370  12.474
 8331W        W76725  13.744  25.482   0.444
 8332W        W76726  39.647  18.198   4.251
 8333W        W76727  42.986  18.715   4.806
 8334W        W76728  44.299  16.251   0.851
 8335W        W76729  44.953  37.596  11.102
 8336W        W76730  24.664  26.130   1.721
 8337W        W76731  35.320  11.874   3.631
 8338W        W76732   5.390   1.812   4.776
 8339W        W76733  43.457   0.350  14.423
 8340W        W76734   4.338  42.236   4.624
 8341W        W76735  16.290  36.574  14.106
 8342W        W76736  18.425  15.683   5.077
 8343W        W76737  12.143  28.123  14.885
 8344W        W76738  11.998   7.441   4.198
 8345W        W76739  20.791  35.949   2.746
 8346W        W76740  20.530  11.417  13.587
 8347W        W76741  38.891  21.005  12.068
 8348W        W76742  36.962  18.299  13.222
 8349W        W76743  31.474  12.341   2.564
 8350W        W76744  12.468  42.895   1.990
 8351W        W76745  30.643   2.203   5.213
 8352W        W76746   9.067   4.200   1.079
 8353W        W76747  12.802  19.185   2.899
 8354W        W76748  14.332  33.476  14.227
 8355W        W76749  18.766  10.457  12.013
 8356W        W76750  21.712  18.338  10.011
 8357W        W76751   8.158  27.153   3.328
 8358W        W76752  13.843  12.713   2.300
 8359W        W76753  34.575   1.976  11.205
 8360W        W76754  20.103  26.297   1.944
 8361W        W76755  19.190  29.723   1.793
 8362W        W76756  34.094  31.645   4.215
 8363W        W76757  20.024  33.973  10.479
 8364W        W76758  44.363  27.035  10.104
 8365W        W76759  30.541  23.801   0.753
 8366W        W76760  15.623  10.530  13.313
 8367W        W76761  18.861  23.211   2.449
 8368W        W76762  21.299   6.821  12.559
 8369W        W76763  27.571  35.376   4.255
 8370W        W76764  20.102  22.090   1.955
 8371W        W76765   6.451   1.783  10.707
 8372W        W76766  22.279  29.535   1.673
 8373W        W76767  24.165  25.124   2.380
 8374W        W76768   4.397   8.447   4.105
 8375W        W76769   7.418  43.774   1.685
 8376W        W76770  20.996   3.163  12.298
 8377W        W76771  33.182  37.984   0.420
 8378W        W76772  24.593  23.247   3.359
 8379W        W76773  19.867   8.425   1.233
 8380W        W76774   6.499  19.255  14.426
 8381W        W76775   6.364   2.669   2.106
 8382W        W76776   1.586  44.366   3.289
 8383W        W76777   0.705  40.809  10.542
 8384W        W76778  10.776  10.451   1.361
 8385W        W76779  32.741  16.969   0.529
 8386W        W76780   3.245   1.732  13.987
 8387W        W76781  41.759   1.126   2.343
 8388W        W76782  38.826  16.010   3.547
 8389W        W76783   0.348  28.181  10.797
 8390W        W76784  35.860  39.089  12.044
 8391W        W76785  15.327  18.481  11.374
 8392W        W76786   9.623  17.644  13.574
 8393W        W76787  28.246  31.408  13.393
 8394W        W76788  34.410  17.105   4.957
 8395W        W76789  17.289  12.155  11.129
 8396W        W76790  10.720  39.745   1.229
 8397W        W76791  38.001  32.838   1.173
 8398W        W76792  22.550  14.625  10.641
 8399W        W76793   5.669  19.191  13.808
 8400W        W76794  41.243  27.565  12.432
 8401W        W76795  35.681  33.949   1.966
 8402W        W76796  32.790  24.239  14.857
 8403W        W76797  19.684  21.097   0.688
 8404W        W76798  35.486  10.400   4.857
 8405W        W76799  10.155  38.311   3.805
 8406W        W76800   5.196  23.152  12.976
 8407W        W76801  15.826  35.257   0.312
 8408W        W76802  41.321   7.981   3.777
 8409W        W76803  38.698   2.776  11.001
 8410W        W76804   0.458  41.768   0.312
 8411W        W76805   2.030  12.229  14.399
 8412W        W76806  34.047  11.609  13.159
 8413W        W76807   9.591  11.602  10.534
 8414W        W76808  38.896  24.193  11.244
 8415W        W76809  43.758  11.681   2.254
 8416W        W76810  31.902  25.661   4.567
 8417W        W76811  15.807  44.395   4.129
 8418W        W76812  14.777   3.161  11.042
 8419W        W76813  28.449   6.414  14.735
 8420W        W76814  25.083  23.002  13.422
 8421W        W76815   9.675  27.022  13.370
 8422W        W76816  41.117   4.535  14.084
 8423W        W76817   7.707  36.616   1.851
 8424W        W76818  27.410   2.325   0.863
 8425W        W76819   0.171  16.753   0.495
 8426W        W76820   7.246  40.610  12.646
 8427W        W76821  25.058  36.863   3.952
 8428W        W76822  43.290  28.073   1.644
 8429W        W76823  38.802  13.260   3.331
 8430W        W76824  14.342   8.745   3.685
 8431W        W76825  16.331  18.591   1.366
 8432W        W76826  37.049  42.341   2.067
 8433W        W76827  32.037  15.022   3.668
 8434W        W76828  30.392   8.954   4.228
 8435W        W76829  41.009  30.036   4.413
 8436W        W76830  23.197  24.274   4.063
 8437W        W76831  33.881   0.972  12.965
 8438W        W76832  44.903  30.165  12.083
 8439W        W76833   4.617   3.482  14.002
 8440W        W76834  35.171  35.960  14.242
 8441W        W76835  17.579   9.245   2.591
 8442W        W76836  44.476  37.806   2.766
 8443W        W76837  28.169  17.138  11.854
 8444W        W76838   6.364  29.932   1.280
 8445W        W76839   6.256   2.566   4.089
 8446W        W76840  16.701   1.651  11.026
 8447W        W76841   6.248  40.013   4.346
 8448W        W76842  36.898   4.261   2.376
 8449W        W76843  25.512  16.329   4.838
 8450W        W76844   5.398  17.197   3.718
 8451W        W76845  11.576  26.125   0.551
 8452W        W76846   7.422  42.520   0.991
 8453W        W76847  36.312  26.770  14.460
 8454W        W76848  20.373   5.681   1.749
 8455W        W76849   8.676   5.309   2.919
 8456W        W76850   5.434  31.393  14.385
 8457W        W76851  23.678  32.129   4.127
 8458W        W76852  26.497  25.142   2.446
 8459W        W76853  31.910  41.330  13.805
 8460W        W76854  34.099  11.996  13.982
 8461W        W76855  25.941  26.128  11.213
 8462W        W76856   8.715  24.449   2.631
 8463W        W76857  41.624   7.383  14.386
 8464W        W76858   8.264   9.342   4.578
 8465W        W76859   6.910  35.032   2.393
 8466W        W76860   1.977  17.825  12.951
 8467W        W76861  15.632  18.335   4.762
 8468W        W76862   3.724  23.059   3.794
 8469W        W76863  13.521  26.515   4.881
 8470W        W76864   1.770  20.522   2.697
 8471W        W76865  39.041  26.752  13.958
 8472W        W76866  11.487  24.513  13.946
 8473W        W76867  32.034   9.127  11.088
 8474W        W76868   1.928  28.775  14.453
 8475W        W76869  25.673   9.936   3.695
 8476W        W76870  24.148  18.151  10.664
 8477W        W76871  42.010  24.695  13.300
 8478W        W76872  33.861   7.579  10.837
 8479W        W76873  42.980  11.059  13.070
 8480W        W76874  34.341  14.395   2.434
 8481W        W76875   0.380  27.985  11.809
 8482W        W76876   8.648  24.561  11.243
 8483W        W76877  23.236  27.128   3.524
 8484W        W76878  44.390  14.261   0.239
 8485W        W76879  15.374  12.154   0.516
 8486W        W76880  36.410  22.547  13.072
 8487W        W76881  12.165  33.919  12.484
 8488W        W76882  18.378   8.918  10.479
 8489W        W76883   1.299  14.699  13.534
 8490W        W76884   9.721  26.609   2.882
 8491W        W76885   2.240  23.174   0.745
 8492W        W76886  42.270  42.284   2.823
 8493W        W76887  15.127  21.713   3.093
 8494W        W76888  12.334  41.015  12.321
 8495W        W76889   7.948   0.383  12.149
 8496W        W76890   5.056  17.512  12.500
 8497W        W76891  17.610  38.865  12.355
 8498W        W76892   6.715  21.504  14.049
 8499W        W76893  22.139  25.957  13.090
 8500W        W76894   9.894  33.208   3.167
 8501W        W76895  11.664  31.227  10.807
 8502W        W76896   1.577   8.414   2.371
 8503W        W76897   0.999  38.794  10.629
 8504W        W76898  30.530  44.872  12.077
 8505W        W76899  28.585  22.081   1.834
 8506W        W76900  29.146  20.031  12.979
 8507W        W76901   1.205   4.253  10.722
 8508W        W76902  44.332  43.564  14.350
 8509W        W76903  31.039  21.606  13.415
 8510W        W76904  22.219  27.586  10.235
 8511W        W76905   7.124   6.164   1.223
 8512W        W76906  35.970  35.782  10.558
 8513W        W76907  24.222  18.512   1.833
 8514W        W76908   2.460   2.547   3.044
 8515W        W76909  42.827  33.393   5.061
 8516W        W76910  11.262   1.175  10.628
 8517W        W76911  23.183  36.176  14.039
 8518W        W76912  40.152  42.319   2.335
 8519W        W76913  41.861  20.484   2.937
 8520W        W76914  11.429  32.632  13.307
 8521W        W76915  43.676  31.925   1.336
 8522W        W76916  40.652   0.827  13.797
 8523W        W76917  42.848  39.924   2.680
 8524W        W76918   1.425   8.677  12.922
 8525W        W76919   0.714   9.229  14.754
 8526W        W76920  40.936  22.631   1.832
 8527W        W76921  41.563  34.203   2.691
 8528W        W76922  15.930  32.650   3.698
 8529W        W76923  42.403   6.629  13.105
 8530W        W76924  43.846   4.124   4.385
 8531W        W76925   4.796  32.097  14.010
 8532W        W76926  21.555  40.808   2.170
 8533W        W76927  32.558  42.412   1.535
 8534W        W76928  33.106   9.620   2.443
 8535W        W76929  14.821  32.629  12.497
 8536W        W76930  29.711  16.593   0.771
 8537W        W76931  25.298   8.122   2.992
 8538W        W76932  35.612  20.822   3.812
 8539W        W76933  16.124  38.529   1.240
 8540W        W76934  33.853  42.442  12.501
 8541W        W76935  44.791  10.182  10.215
 8542W        W76936  19.095  39.188   1.609
 8543W        W76937  17.219  30.006  11.949
 8544W        W76938  18.287   3.654   1.923
 8545W        W76939  44.823   8.279  13.044
 8546W        W76940  41.854  17.609   2.321
 8547W        W76941  32.891  17.569  13.525
 8548W        W76942  14.739  25.005   3.999
 8549W        W76943  35.469   5.929   4.758
 8550W        W76944  36.440  39.076   1.214
 8551W        W76945  31.671   9.944   2.888
 8552W        W76946  19.845  44.258   1.774
 8553W        W76947  30.130  36.442   0.649
 8554W        W76948  21.058  14.504   3.213
 8555W        W76949   7.465  43.905  13.360
 8556W        W76950  10.818   3.780   2.863
 8557W        W76951   3.311   3.903   5.117
 8558W        W76952  41.226  12.415  10.790
 8559W        W76953  10.401  31.863  13.099
 8560W        W76954   8.359  19.633  12.041
 8561W        W76955  22.365  27.033   3.819
 8562W        W76956   5.751   6.440  12.124
 8563W        W76957  31.886  38.942   4.653
 8564W        W76958  38.286  29.160  14.097
 8565W        W76959  43.312  44.933  12.162
 8566W        W76960  35.009  19.130  10.703
 8567W        W76961  25.667   2.025   0.894
 8568W        W76962   0.037  32.721  12.265
 8569W        W76963  14.665  18.769  14.003
 8570W        W76964  43.875  11.853  13.916
 8571W        W76965  41.740  28.185   1.235
 8572W        W76966  23.946  43.389   3.363
 8573W        W76967  26.487  18.573   2.296
 8574W        W76968  10.286  20.915  13.942
 8575W        W76969  14.608   9.386   1.691
 8576W        W76970  38.746  13.175   0.400
 8577W        W76971  14.532   9.750   2.056
 8578W        W76972   4.631   2.254   3.674
 8579W        W76973  25.405  40.922   3.689
 8580W        W76974  28.607  32.009   3.372
 8581W        W76975  28.637  17.668  10.650
 8582W        W76976  31.038  44.739   2.262
 8583W        W76977  41.031   7.188   3.618
 8584W        W76978  16.045  10.276  12.041
 8585W        W76979   4.876  17.993  12.526
 8586W        W76980  16.806  15.818   0.258
 8587W        W76981  36.157   5.681  12.023
 8588W        W76982   4.636  14.621   2.550
 8589W        W76983  37.457  26.892  12.111
 8590W        W76984  39.021  43.223   2.081
 8591W        W76985  35.976   3.904   3.891
 8592W        W76986  10.135  43.263   3.807
 8593W        W76987  17.147   6.551   2.729
 8594W        W76988  33.502  38.513   2.270
 8595W        W76989  30.638   7.895  11.622
 8596W        W76990  33.036  27.559   3.736
 8597W        W76991  23.559  37.957  14.506
 8598W        W76992  16.343  42.239  11.687
 8599W        W76993  23.192  26.392   0.913
 8600W        W76994  37.311  24.637   0.374
 8601W        W76995  24.588  35.060  13.831
 8602W        W76996   1.882  15.061   0.820
 8603W        W76997  35.985  35.374  10.875
 8604W        W76998  39.307  23.766   1.830
 8605W        W76999  12.781  20.950  14.326
 8606W        W77000  22.981  39.762  13.821
 8607W        W77001  29.076  23.227   1.602
 8608W        W77002   0.171   2.327  12.860
 8609W        W77003   3.735  33.684   1.400
 8610W        W77004  27.491   4.625   1.336
 8611W        W77005  44.693  14.873  14.229
 8612W        W77006  40.057  44.498   2.206
 8613W        W77007  36.205  43.930  13.261
 8614W        W77008   7.706  41.970  14.168
 8615W        W77009  44.794  23.981  14.326
 8616W        W77010  13.918  34.580  13.975
 8617W        W77011  44.412  13.183  13.375
 8618W        W77012  18.479  34.903  13.995
 8619W        W77013   4.937  38.489  11.691
 8620W        W77014   6.956  12.599   3.593
 8621W        W77015  16.826  42.109  11.856
 8622W        W77016  30.790  25.409   1.282
 8623W        W77017   7.778  31.153  11.459
 8624W        W77018  26.433  11.726   4.001
 8625W        W77019  31.115  41.495   4.722
 8626W        W77020  13.283  29.179  12.324
 8627W        W77021  43.431  30.970  11.625
 8628W        W77022  23.030   4.239   4.005
 8629W        W77023  11.208  39.237  13.873
 8630W        W77024  40.805   0.706   5.195
 8631W        W77025   9.048   2.708  10.167
 8632W        W77026   1.634   5.780   1.822
 8633W        W77027  19.010  35.594  12.335
 8634W        W77028  11.161  40.289   1.418
 8635W        W77029  22.614  40.246  11.633
 8636W        W77030  32.436  19.137  12.071
 8637W        W77031  18.145  22.448  11.053
 8638W        W77032  28.215  28.752  12.912
 8639W        W77033  11.792  34.561   4.196
 8640W        W77034  31.680  26.939   4.382
 8641W        W77035  22.330  11.754  11.578
 8642W        W77036  44.949  43.924  13.049
 8643W        W77037   7.428  25.023  13.894
 8644W        W77038  28.185   9.188   1.365
 8645W        W77039  22.746  10.405   1.790
 8646W        W77040  22.255   6.744  10.704
 8647W        W77041  11.707  37.016  13.455
 8648W        W77042  17.103  10.598  14.909
 8649W        W77043  37.836  16.210  13.293
 8650W        W77044   4.641  20.176   1.550
 8651W        W77045  41.023  21.141   4.126
 8652W        W77046  30.144  36.295  12.999
 8653W        W77047  19.196   3.657  10.217
 8654W        W77048  43.937  23.196  13.876
 8655W        W77049  25.222  22.429   3.598
 8656W        W77050  28.412   2.440   3.714
 8657W        W77051   2.530   2.927   3.388
 8658W        W77052  29.972  24.595  10.967
 8659W        W77053  13.026   8.518  14.139
 8660W        W77054   0.104  25.065  14.924
 8661W        W77055  33.131   0.447   1.884
 8662W        W77056  10.085  34.041  14.086
 8663W        W77057   8.574  19.184  11.874
 8664W        W77058  24.493  13.549   0.714
 8665W        W77059  15.206  21.406   1.212
 8666W        W77060  26.879  39.899  13.541
 8667W        W77061   2.414  18.769   2.729
 8668W        W77062   3.252   8.239  11.555
 8669W        W77063   2.281  26.554   1.191
 8670W        W77064   7.945  41.597   3.227
 8671W        W77065  33.541   9.392   2.675
 8672W        W77066  13.916  43.696  13.620
 8673W        W77067   8.705  26.442   2.768
 8674W        W77068  21.058  37.345  12.110
 8675W        W77069  22.405   9.188   2.379
 8676W        W77070  44.917  14.669   1.779
 8677W        W77071  11.395  43.193  13.483
 8678W        W77072  12.390  38.819   0.858
 8679W        W77073  35.415  30.060  14.850
 8680W        W77074  33.015  14.752   0.584
 8681W        W77075  27.027  30.658   1.739
 8682W        W77076  16.691  12.204   4.686
 8683W        W77077  13.626  30.428   4.188
 8684W        W77078  23.845  38.391  11.234
 8685W        W77079   4.498  14.121   4.709
 8686W        W77080   8.443  39.844  11.492
 8687W        W77081  17.426   5.188   2.752
 8688W        W77082   4.891  33.193  11.551
 8689W        W77083  24.611  22.018  14.588
 8690W        W77084  44.243   0.921   3.626
 8691W        W77085  13.811  19.174  13.973
 8692W        W77086  19.170   7.605   2.733
 8693W        W77087  22.005  40.307   1.319
 8694W        W77088  37.476  20.306   1.846
 8695W        W77089  44.334  36.646   4.686
 8696W        W77090  43.988  36.375  12.928
 8697W        W77091  19.708  19.544  14.271
 8698W        W77092  28.458  43.688   1.396
 8699W        W77093   6.846  30.174  14.293
 8700W        W77094   8.644  33.160  11.787
 8701W        W77095  17.232  20.735  10.635
 8702W        W77096  20.444  15.753  14.274
 8703W        W77097  12.906  27.404   0.993
 8704W        W77098   2.246  44.127   1.018
 8705W        W77099  16.053  31.173  13.929
 8706W        W77100  11.247   5.457  13.141
 8707W        W77101  34.001  19.028   1.956
 8708W        W77102  34.532  14.114   1.462
 8709W        W77103  32.307  12.767  10.328
 8710W        W77104  10.197   9.381   1.879
 8711W        W77105  15.783  34.152   3.218
 8712W        W77106  18.939  24.955  12.224
 8713W        W77107  36.881   9.203  13.049
 8714W        W77108   7.936  34.113  11.600
 8715W        W77109  27.257  13.011  12.432
 8716W        W77110  36.943  23.460   3.850
 8717W        W77111  11.031  19.658  10.883
 8718W        W77112  20.761  35.809  11.181
 8719W        W77113  42.734  37.416   0.460
 8720W        W77114  40.737  21.748  14.506
 8721W        W77115   5.712  37.020   4.129
 8722W        W77116  32.386  34.149  13.546
 8723W        W77117   2.984  22.469  11.774
 8724W        W77118   9.353  44.803  14.476
 8725W        W77119  42.018  41.012   2.876
 8726W        W77120  28.681   6.744   0.584
 8727W        W77121  34.919   0.306  12.374
 8728W        W77122  41.862   7.220   1.509
 8729W        W77123   9.538   1.006  11.691
 8730W        W77124  37.872  18.081   0.400
 8731W        W77125  33.654  21.973   2.169
 8732W        W77126  11.732  37.109  11.330
 8733W        W77127  42.620   9.743  13.363
 8734W        W77128   2.906  21.621  13.026
 8735W        W77129   4.477   6.545  14.560
 8736W        W77130  39.327  21.704  12.081
 8737W        W77131   6.254  14.112   2.579
 8738W        W77132   1.383  14.184  13.424
 8739W        W77133  33.114  23.604  13.606
 8740W        W77134   2.547  40.813  11.336
 8741W        W77135  32.725   5.720  10.951
 8742W        W77136  14.417   5.682   1.404
 8743W        W77137   8.716  34.278  12.990
 8744W        W77138  29.547  31.080   3.093
 8745W        W77139   0.517   4.362   1.371
 8746W        W77140   0.769   9.646   4.365
 8747W        W77141   4.001  39.607  11.850
 8748W        W77142  44.943  18.171  14.688
 8749W        W77143  16.543  10.060   2.113
 8750W        W77144  41.352  25.883  10.999
 8751W        W77145  20.144  19.473   1.322
 8752W        W77146  28.298  32.563   1.453
 8753W        W77147  28.882  33.460  14.489
 8754W        W77148  41.830  40.945   4.715
 8755W        W77149  10.524  15.642  14.983
 8756W        W77150  35.396  26.549  10.461
 8757W        W77151  10.814  38.459  10.680
 8758W        W77152  28.580   0.418  13.966
 8759W        W77153   3.341  18.039   2.338
 8760W        W77154  30.582  11.454   4.370
 8761W        W77155  12.400  35.624   0.847
 8762W        W77156  25.520  23.230   4.583
 8763W        W77157  34.923  37.098   0.357
 8764W        W77158  23.432  38.056  11.150
 8765W        W77159  16.567  41.486   0.294
 8766W        W77160   5.899   3.619  14.491
 8767W        W77161  43.026  21.005  10.715
 8768W        W77162  18.566  42.555  13.225
 8769W        W77163  13.986  30.160  14.279
 8770W        W77164  13.753  40.422  14.867
 8771W        W77165  22.512   9.153  12.996
 8772W        W77166  13.663   6.700  13.872
 8773W        W77167  31.682  43.473   0.380
 8774W        W77168  37.639   3.502  11.607
 8775W        W77169  16.022  14.383  12.782
 8776W        W77170  36.998  19.607  13.986
 8777W        W77171   0.508  16.737   0.098
 8778W        W77172  42.433   0.040  13.411
 8779W        W77173   1.328  24.419   0.891
 8780W        W77174  19.502  28.684  12.028
 8781W        W77175  30.106  30.268   4.888
 8782W        W77176  27.567  23.822   2.251
 8783W        W77177  19.737  32.523  14.926
 8784W        W77178   8.243   6.056   1.730
 8785W        W77179   8.145  37.800  13.804
 8786W        W77180  16.738  34.869  14.270
 8787W        W77181  13.237  14.297  12.455
 8788W        W77182  20.554  25.775  12.018
 8789W        W77183  10.308  33.175   1.843
 8790W        W77184  21.225  17.118   4.132
 8791W        W77185  35.444  26.422  13.880
 8792W        W77186   5.461   3.407  12.144
 8793W        W77187  24.404  31.287  11.131
 8794W        W77188   2.414   2.180  14.084
 8795W        W77189  37.827  31.109  10.751
 8796W        W77190  14.146  25.539   2.142
 8797W        W77191   2.263  34.025  12.615
 8798W        W77192   2.441  43.042  11.370
 8799W        W77193  43.338  24.111  10.746
 8800W        W77194  43.575  20.588  11.380
 8801W        W77195  28.659  10.806   4.167
 8802W        W77196  44.016  11.267   3.243
 8803W        W77197  20.641   7.898  10.620
 8804W        W77198   4.124  10.112   3.577
 8805W        W77199  38.929  16.836  12.921
 8806W        W77200  37.075   3.795  14.540
 8807W        W77201  30.786   6.352   3.173
 8808W        W77202  12.144  39.871   0.276
 8809W        W77203   6.620  27.924  13.404
 8810W        W77204  23.647  17.133   1.917
 8811W        W77205  10.583  24.438  10.712
 8812W        W77206   9.143  40.601   1.763
 8813W        W77207  10.240  22.063   4.596
 8814W        W77208   7.003  17.034   3.254
 8815W        W77209  19.702  31.040   2.807
 8816W        W77210  31.699  37.193  14.370
 8817W        W77211  19.496  31.118   4.162
 8818W        W77212  18.851  18.593  13.897
 8819W        W77213  40.283  10.192   2.132
 8820W        W77214  26.799  21.721   2.032
 8821W        W77215  17.283  40.016   9.863
 8822W        W77216   0.379  10.607  14.912
 8823W        W77217  24.083   5.442  12.887
 8824W        W77218   4.237  21.750   3.233
 8825W        W77219  22.081  21.208   4.148
 8826W        W77220  23.933  12.266  11.320
 8827W        W77221   1.045  44.178  14.196
 8828W        W77222   3.841  26.231   3.229
 8829W        W77223  22.725  18.946   3.676
 8830W        W77224  18.675  13.288   2.193
 8831W        W77225  10.312  42.983   0.857
 8832W        W77226  15.684  24.723  13.361
 8833W        W77227   3.972   5.195   9.775
 8834W        W77228  42.297  11.634  11.662
 8835W        W77229   0.006  11.560  11.211
 8836W        W77230  26.297   9.534   4.632
 8837W        W77231  21.006  19.347   3.657
 8838W        W77232   6.315  20.747  14.047
 8839W        W77233  44.087  25.565   4.087
 8840W        W77234   7.373  40.811   1.405
 8841W        W77235  21.003   0.437   3.240
 8842W        W77236  21.796  43.253   0.484
 8843W        W77237   1.432  37.407   0.476
 8844W        W77238  41.788   0.271  11.593
 8845W        W77239  43.314  24.161   3.030
 8846W        W77240   2.298  28.981  12.708
 8847W        W77241   0.410  42.562  11.563
 8848W        W77242  40.051  23.988   2.785
 8849W        W77243  29.641  38.795   3.743
 8850W        W77244  43.504   6.773   0.799
 8851W        W77245  23.716  27.698  13.502
 8852W        W77246  29.153  30.941   1.811
 8853W        W77247  44.487   4.231   0.471
 8854W        W77248  36.299   0.186  14.020
 8855W        W77249  18.683  42.720  11.908
 8856W        W77250  18.274   2.262   3.390
 8857W        W77251  13.783  20.571  11.461
 8858W        W77252  20.503  22.198   2.662
 8859W        W77253  32.675  33.425  12.397
 8860W        W77254  28.337  41.469  11.077
 8861W        W77255  25.251  14.040   0.318
 8862W        W77256  11.774  20.294   1.509
 8863W        W77257  18.151  13.852  13.434
 8864W        W77258  19.548   8.306   3.214
 8865W        W77259  30.849  18.670   2.649
 8866W        W77260  11.822   3.105  14.776
 8867W        W77261  27.631  19.304   2.206
 8868W        W77262  28.177  44.618   0.724
 8869W        W77263   2.700  17.532   2.618
 8870W        W77264  42.438   4.839  13.110
 8871W        W77265  12.594  19.157   1.979
 8872W        W77266  15.788  35.554  14.878
 8873W        W77267  13.226   5.470   0.331
 8874W        W77268  40.855  13.769   1.780
 8875W        W77269   7.209  33.954  13.581
 8876W        W77270  41.743  35.844  13.498
 8877W        W77271   2.247  43.488  13.784
 8878W        W77272  33.934  26.557  14.538
 8879W        W77273   6.982  28.522  14.269
 8880W        W77274  11.239  38.023   3.217
 8881W        W77275   7.384  39.907   0.940
 8882W        W77276  29.357  30.650  14.892
 8883W        W77277  39.570  24.521  12.562
 8884W        W77278  16.303   8.019  13.932
 8885W        W77279  34.866   4.287   0.726
 8886W        W77280  13.130   4.336  11.630
 8887W        W77281  43.309  22.774  10.862
 8888W        W77282  32.890  22.287   3.795
 8889W        W77283  37.918  42.734   2.895
 8890W        W77284  44.476  36.547   1.402
 8891W        W77285   6.704  33.094   2.420
 8892W        W77286  31.367  22.195  11.130
 8893W        W77287  10.322  43.765   1.289
 8894W        W77288  38.560  29.908  14.779
 8895W        W77289  25.472   8.759  13.824
 8896W        W77290   5.960  42.713  11.215
 8897W        W77291   4.338   4.873   9.969
 8898W        W77292   2.951  22.199  10.416
 8899W        W77293  43.088  34.125  13.852
 8900W        W77294  29.676  10.241  13.036
 8901W        W77295  37.517  41.816  13.300
 8902W        W77296  19.661  16.135   4.555
 8903W        W77297   6.729  11.824  12.658
 8904W        W77298   8.274  17.529  13.324
 8905W        W77299   7.574  15.592  14.589
 8906W        W77300  44.804  32.438  13.295
 8907W        W77301  18.931  42.649   0.366
 8908W        W77302  26.689  23.506  11.426
 8909W        W77303   1.019  23.908  11.652
 8910W        W77304  15.654  36.346  11.421
 8911W        W77305   7.468  42.047   0.790
 8912W        W77306  12.027   5.389  12.285
 8913W        W77307  28.663  35.247   2.500
 8914W        W77308   4.734   6.274   1.385
 8915W        W77309  33.557  34.902   2.399
 8916W        W77310  31.537  39.060   2.826
 8917W        W77311  32.313  24.596  11.716
 8918W        W77312  24.514  30.491   3.628
 8919W        W77313   6.562   4.030  14.964
 8920W        W77314  44.053   3.445  13.160
 8921W        W77315  12.633   6.632  10.097
 8922W        W77316  27.152   7.721  13.758
 8923W        W77317  20.119  43.866  14.984
 8924W        W77318  13.174   0.209  13.702
 8925W        W77319   6.913  14.678   3.741
 8926W        W77320   1.697  15.845  11.113
 8927W        W77321  33.575  39.798   3.723
 8928W        W77322  28.418  14.589  13.541
 8929W        W77323  20.154  12.199  13.191
 8930W        W77324   6.616  42.028   1.482
 8931W        W77325  43.590  30.590   0.544
 8932W        W77326  22.192  42.577   2.691
 8933W        W77327  39.631  12.167  13.860
 8934W        W77328  41.872   0.840   5.035
 8935W        W77329  30.817  22.733  11.648
 8936W        W77330  38.523  14.993   0.599
 8937W        W77331   8.012  30.109  12.040
 8938W        W77332  30.128  36.424  13.870
 8939W        W77333   3.995  32.848  12.585
 8940W        W77334  38.747  28.048  14.286
 8941W        W77335  27.159  16.175  10.806
 8942W        W77336  25.665   0.379   2.828
 8943W        W77337   9.915  28.915  13.340
 8944W        W77338   9.757   4.244  10.681
 8945W        W77339   1.282  14.491   4.517
 8946W        W77340   8.416  34.006   4.900
 8947W        W77341   3.312  32.505  11.705
 8948W        W77342  20.718  17.778  13.781
 8949W        W77343  20.296  35.832   2.658
 8950W        W77344  24.895   7.456  12.895
 8951W        W77345  14.130  34.994   0.801
 8952W        W77346   0.541   4.946   0.625
 8953W        W77347  26.172  31.514   2.743
 8954W        W77348  22.032  21.461   1.312
 8955W        W77349  38.442  28.895  12.690
 8956W        W77350  42.974  24.990  12.996
 8957W        W77351  37.635  32.047  14.438
 8958W        W77352  35.428  10.130  14.303
 8959W        W77353   0.203  32.904  14.850
 8960W        W77354  16.654  28.061  14.249
 8961W        W77355  28.995  25.270  12.936
 8962W        W77356  38.386  32.314   4.247
 8963W        W77357  20.089  27.701   0.310
 8964W        W77358   3.330  43.995  13.591
 8965W        W77359  23.591  33.878  10.422
 8966W        W77360   3.676  33.470   4.657
 8967W        W77361  44.357  16.757   3.950
 8968W        W77362  36.066  29.644   4.763
 8969W        W77363  41.242  30.920   3.968
 8970W        W77364  43.792  24.731  14.901
 8971W        W77365  37.055  31.880   0.928
 8972W        W77366  31.540  13.539   2.747
 8973W        W77367   2.488  43.341   3.287
 8974W        W77368   2.349  42.029  11.515
 8975W        W77369  43.327  20.262  13.489
 8976W        W77370  38.066   7.165  11.950
 8977W        W77371  41.410  20.205  11.754
 8978W        W77372  41.824   1.773  10.724
 8979W        W77373  15.858  24.006  11.656
 8980W        W77374  23.649  20.130  11.986
 8981W        W77375  22.553   0.918   3.910
 8982W        W77376  36.918  29.878  10.640
 8983W        W77377  37.268   8.177  10.767
 8984W        W77378  16.832   0.011   4.145
 8985W        W77379  30.709  24.095  13.460
 8986W        W77380  44.862  15.289  14.722
 8987W        W77381  16.216  11.124   0.313
 8988W        W77382  10.179  24.549   2.498
 8989W        W77383  15.192   4.887   1.659
 8990W        W77384  16.026   7.794   2.032
 8991W        W77385  34.575  11.567  13.468
 8992W        W77386  36.888   9.857  10.728
 8993W        W77387  28.436  32.151   4.197
 8994W        W77388  44.225   9.202   3.681
 8995W        W77389  35.447  41.843  12.002
 8996W        W77390  37.924  39.385  14.803
 8997W        W77391   7.429  14.042   1.805
 8998W        W77392  21.120  14.163  13.932
 8999W        W77393  21.062   3.426  11.042
 9000W        W77394  44.222  41.691   1.217
 9001W        W77395  38.574  29.530   4.761
 9002W        W77396  17.911  19.699   0.813
 9003W        W77397  36.122   2.458   1.904
 9004W        W77398  32.234  35.453  13.474
 9005W        W77399  39.999  42.076   1.404
 9006W        W77400  26.441   5.869  12.459
 9007W        W77401  44.714   8.779  12.976
 9008W        W77402  17.223  35.287   2.186
 9009W        W77403  27.946   1.757   0.589
 9010W        W77404  41.905  14.686  10.870
 9011W        W77405  20.097  28.872   4.637
 9012W        W77406  11.457  27.006  11.575
 9013W        W77407  31.085  38.023   2.199
 9014W        W77408  44.699  38.040   3.369
 9015W        W77409   1.041  40.796   4.378
 9016W        W77410  14.603  19.639  13.452
 9017W        W77411  15.525  41.260   2.711
 9018W        W77412  23.588  31.481   3.704
 9019W        W77413  44.871  22.991   4.683
 9020W        W77414  15.974   7.787  12.526
 9021W        W77415  41.538   6.332  12.974
 9022W        W77416  14.552  16.664   3.365
 9023W        W77417  36.843  38.327   3.266
 9024W        W77418  38.515   3.689   2.351
 9025W        W77419  26.876  21.653   1.521
 9026W        W77420  22.181   9.767   0.206
 9027W        W77421  36.465  17.066  12.369
 9028W        W77422  14.131  16.644   4.033
 9029W        W77423  30.015  22.747   1.369
 9030W        W77424  36.860  32.013  13.557
 9031W        W77425  13.209  19.753   2.297
 9032W        W77426   6.328   6.676  10.994
 9033W        W77427  14.199  16.848  14.364
 9034W        W77428  17.192  20.243  14.474
 9035W        W77429   8.779  35.075   2.408
 9036W        W77430  24.851  41.482  12.528
 9037W        W77431  11.889  27.881   2.716
 9038W        W77432   1.932  42.201  13.933
 9039W        W77433  29.572  24.766   0.770
 9040W        W77434  31.855  29.572   2.661
 9041W        W77435  25.134  44.905  11.137
 9042W        W77436  34.810  13.631   1.362
 9043W        W77437  28.252  36.760   4.141
 9044W        W77438  30.493  30.850  13.568
 9045W        W77439  11.819  13.499   2.812
 9046W        W77440  22.676  16.062   4.388
 9047W        W77441  22.281   3.430  11.535
 9048W        W77442  24.199  25.931  14.389
 9049W        W77443  10.453  31.679   5.023
 9050W        W77444  35.560  17.586   2.729
 9051W        W77445  40.076   4.213  12.132
 9052W        W77446  15.265  18.781  12.331
 9053W        W77447  39.792  22.741  12.398
 9054W        W77448  42.509  34.068   2.791
 9055W        W77449  24.133  18.373  13.320
 9056W        W77450  34.317  14.958   3.160
 9057W        W77451  32.877  36.975  12.075
 9058W        W77452  40.474  20.036  14.346
 9059W        W77453  33.700   3.514  10.218
 9060W        W77454   2.212  28.407   0.460
 9061W        W77455  30.153  25.619   1.925
 9062W        W77456   1.211  13.332   3.739
 9063W        W77457  23.653  10.528  12.000
 9064W        W77458  40.672   5.348  12.960
 9065W        W77459  20.204  42.536   0.824
 9066W        W77460  39.792  10.082  11.168
 9067W        W77461   7.872  35.578  11.350
 9068W        W77462  30.558  39.585  12.485
 9069W        W77463   1.792   3.662  14.528
 9070W        W77464   2.007   0.505  14.390
 9071W        W77465  40.524   5.312  13.818
 9072W        W77466  11.596  10.654   0.496
 9073W        W77467   0.599  22.147  12.852
 9074W        W77468  26.017  14.970   4.110
 9075W        W77469  37.154  36.586   4.173
 9076W        W77470  41.020   3.242   4.141
 9077W        W77471   4.654  43.903   2.154
 9078W        W77472  39.970  29.754   4.351
 9079W        W77473  16.308  15.902   1.289
 9080W        W77474  36.367  29.568   1.713
 9081W        W77475  39.241  14.268   2.173
 9082W        W77476   5.962  44.681   4.780
 9083W        W77477  21.620   6.147   0.907
 9084W        W77478  13.282   9.344   4.148
 9085W        W77479  11.101  43.885  14.968
 9086W        W77480  27.900  34.009  12.911
 9087W        W77481  43.412  35.197   0.465
 9088W        W77482  40.279  19.059  14.444
 9089W        W77483   4.854  10.230  13.006
 9090W        W77484  26.739   4.783   2.399
 9091W        W77485  30.430  14.780  14.738
 9092W        W77486  43.340  11.830   1.889
 9093W        W77487   3.790  30.578   0.756
 9094W        W77488  39.496   1.809  10.705
 9095W        W77489  16.475   2.949   3.208
 9096W        W77490  21.803  24.992   1.347
 9097W        W77491  41.950  22.256  11.687
 9098W        W77492  15.137   2.335  12.202
 9099W        W77493  29.117  38.399   1.952
 9100W        W77494  12.460  13.129  10.946
 9101W        W77495  13.820  25.555  13.576
 9102W        W77496  33.502  11.253   2.700
 9103W        W77497  36.644  18.509  13.914
 9104W        W77498  19.646  34.094   3.062
 9105W        W77499   7.413   8.287   1.705
 9106W        W77500  41.530   5.746  10.841
 9107W        W77501  31.000  32.929   4.246
 9108W        W77502  36.096  30.060   0.929
 9109W        W77503   4.420  17.734  13.422
 9110W        W77504  40.947  20.519   1.868
 9111W        W77505  19.779  20.746   1.512
 9112W        W77506  22.360  27.514   3.997
 9113W        W77507   6.954  24.771  13.856
 9114W        W77508  38.484  41.793  11.742
 9115W        W77509   0.466  17.136   1.394
 9116W        W77510  26.944  25.462  14.925
 9117W        W77511   2.327  42.855  14.423
 9118W        W77512  20.891  29.645   5.670
 9119W        W77513   2.391  12.992   2.786
 9120W        W77514  32.982  41.835  13.925
 9121W        W77515  35.843  29.435   2.602
 9122W        W77516  22.323   7.841  12.346
 9123W        W77517  16.377   9.076   0.783
 9124W        W77518  30.904  14.226  11.299
 9125W        W77519  25.132  39.054  12.104
 9126W        W77520   9.814  18.596   2.199
 9127W        W77521  12.876  20.564   0.381
 9128W        W77522   1.140  31.598   4.230
 9129W        W77523   0.559  32.315   3.524
 9130W        W77524   4.880   4.832   1.838
 9131W        W77525  40.981   6.954  11.073
 9132W        W77526  34.324  34.544  12.274
 9133W        W77527  44.523  11.689   1.434
 9134W        W77528   4.278  10.592   1.770
 9135W        W77529   1.176   1.370   2.745
 9136W        W77530  11.114   4.123   2.573
 9137W        W77531  35.081  31.308   3.203
 9138W        W77532   3.974  33.722  10.415
 9139W        W77533  24.548  23.902   3.948
 9140W        W77534  13.917  38.010   0.884
 9141W        W77535   1.882  37.001   2.183
 9142W        W77536  30.216  13.712   2.976
 9143W        W77537  10.676  20.984  10.307
 9144W        W77538  23.120  41.166   0.285
 9145W        W77539  23.353  31.477   4.163
 9146W        W77540  28.968  38.604   4.133
 9147W        W77541  20.266   3.288  10.603
 9148W        W77542  12.436  18.186   0.445
 9149W        W77543   8.263  11.689   4.247
 9150W        W77544   6.812   7.795  12.364
 9151W        W77545   7.196  12.738   2.371
 9152W        W77546  10.930  39.296   1.403
 9153W        W77547  40.113  22.189   1.423
 9154W        W77548  33.391  12.235   2.733
 9155W        W77549  26.184  27.647  11.644
 9156W        W77550   7.905   9.810  10.650
 9157W        W77551  18.600   7.489   4.485
 9158W        W77552   5.451  18.367  14.005
 9159W        W77553  16.600  25.034   3.477
 9160W        W77554  44.487  26.023  14.429
 9161W        W77555  15.564  41.949   3.737
 9162W        W77556  44.192  44.831  11.758
 9163W        W77557  10.757   2.226   2.876
 9164W        W77558   7.096  37.238  11.027
 9165W        W77559   5.715  13.750   2.866
 9166W        W77560  22.074  33.857   2.401
 9167W        W77561  27.838  22.855  13.440
 9168W        W77562  16.255  44.878   2.282
 9169W        W77563   2.296  10.887  10.742
 9170W        W77564  36.635  19.249   0.667
 9171W        W77565  28.714  20.150   0.183
 9172W        W77566  18.603   7.328  14.326
 9173W        W77567  10.877  35.400  12.595
 9174W        W77568  25.420  43.134   3.671
 9175W        W77569  33.148   7.529   1.408
 9176W        W77570  27.501  41.989  12.004
 9177W        W77571  35.034   0.994  12.989
 9178W        W77572   2.875  43.244   0.055
 9179W        W77573  17.205  35.114   4.725
 9180W        W77574  25.131  38.070   1.951
 9181W        W77575  25.533   3.100  14.255
 9182W        W77576  35.453  19.256  14.868
 9183W        W77577  14.082  20.601   4.263
 9184W        W77578  22.686  30.232   0.891
 9185W        W77579  41.425  14.148   3.423
 9186W        W77580  13.219  34.616  10.762
 9187W        W77581  40.769   0.628  10.773
 9188W        W77582  28.310  18.261  13.675
 9189W        W77583  33.079   5.952  14.088
 9190W        W77584  43.436  19.178  11.102
 9191W        W77585  32.674  44.164  10.814
 9192W        W77586  21.567  29.595  14.424
 9193W        W77587   0.462   3.298  12.552
 9194W        W77588  19.732  39.638   2.603
 9195W        W77589  41.291  11.700   4.490
 9196W        W77590  44.434  11.954   0.903
 9197W        W77591  35.350   4.713   0.229
 9198W        W77592  24.495  31.009  13.478
 9199W        W77593  44.751  40.372  12.643
 9200W        W77594  31.718   0.365  12.007
 9201W        W77595   6.633  13.031  14.700
 9202W        W77596   6.405  37.466  10.730
 9203W        W77597  17.740   8.833   0.023
 9204W        W77598  15.822  29.969  10.923
 9205W        W77599  24.485  18.013   2.329
 9206W        W77600  23.688  14.530  12.675
 9207W        W77601  10.759  17.457  11.165
 9208W        W77602  44.066  31.457  13.875
 9209W        W77603  16.710  43.847   0.911
 9210W        W77604  35.392  40.201   3.790
 9211W        W77605   5.168   1.964  14.305
 9212W        W77606  25.933  22.603   2.118
 9213W        W77607  37.119  42.575   0.306
 9214W        W77608  11.370  29.120   2.410
 9215W        W77609  25.670  28.913  12.121
 9216W        W77610  19.610  37.569  11.105
 9217W        W77611  39.540  15.281   3.747
 9218W        W77612   3.256   0.903   0.382
 9219W        W77613  35.395  26.601  12.370
 9220W        W77614   9.223  25.137  14.370
 9221W        W77615  15.849  12.758   1.700
 9222W        W77616  43.405   3.736  14.293
 9223W        W77617   9.875  38.363   1.866
 9224W        W77618  12.727  15.591  14.725
 9225W        W77619  32.210   3.400   3.280
 9226W        W77620  20.239  23.723   1.820
 9227W        W77621  18.131  31.089   1.469
 9228W        W77622  42.707  39.441   4.447
 9229W        W77623  27.727  32.785  11.130
 9230W        W77624  27.218  15.543   3.743
 9231W        W77625  16.131  43.758   3.569
 9232W        W77626   7.139   5.941  11.076
 9233W        W77627  15.739  15.976   3.209
 9234W        W77628  20.184  20.329   3.916
 9235W        W77629  36.430  34.363   3.762
 9236W        W77630   4.799  18.742  13.358
 9237W        W77631  28.422  23.820   2.576
 9238W        W77632   5.027  34.697  13.738
 9239W        W77633  13.867  37.662  12.434
 9240W        W77634  24.390  30.783  11.209
 9241W        W77635  13.873  21.804  13.864
 9242W        W77636  14.147   3.685  13.513
 9243W        W77637  23.742   3.368   2.790
 9244W        W77638  32.780  44.747   4.556
 9245W        W77639   6.665   6.404  14.289
 9246W        W77640  20.987  23.441   3.293
 9247W        W77641  20.150  25.703   2.674
 9248W        W77642   7.749  23.608  12.372
 9249W        W77643  13.469   4.211   1.386
 9250W        W77644   4.975  21.234  12.581
 9251W        W77645  43.378  31.689  12.695
 9252W        W77646  40.986   1.784  11.378
 9253W        W77647  20.278  40.513   2.470
 9254W        W77648  33.692  15.605  11.537
 9255W        W77649  10.029  42.136   4.393
 9256W        W77650  29.452  16.330   3.658
 9257W        W77651  28.025   6.102  10.178
 9258W        W77652  30.093   3.344  13.145
 9259W        W77653   2.800  43.531  14.607
 9260W        W77654   3.407   5.987   0.200
 9261W        W77655  10.786  31.129   3.476
 9262W        W77656  33.439  28.552   4.555
 9263W        W77657   5.810  16.908  13.911
 9264W        W77658   7.978  16.640   3.206
 9265W        W77659  20.998   0.809   2.782
 9266W        W77660   8.061  18.642   0.634
 9267W        W77661  40.872  34.068  12.936
 9268W        W77662  24.926  37.228  10.928
 9269W        W77663  42.529  43.300   3.402
 9270W        W77664  36.339  20.481  14.263
 9271W        W77665   5.234  12.886  12.923
 9272W        W77666  28.423  29.910   2.308
 9273W        W77667  24.609  12.495  12.452
 9274W        W77668  12.722  11.067  13.300
 9275W        W77669  30.257  43.760   0.352
 9276W        W77670  15.700  40.521  14.714
 9277W        W77671  20.547  20.710   3.756
 9278W        W77672  42.896  39.189   0.986
 9279W        W77673   8.502  37.336   3.667
 9280W        W77674  11.112  43.011   1.900
 9281W        W77675  21.186  21.117  12.077
 9282W        W77676  42.061   0.920   4.129
 9283W        W77677   0.389  33.795  13.432
 9284W        W77678  11.796  26.484   3.943
 9285W        W77679  29.608   9.272   1.216
 9286W        W77680  39.491  35.260  14.888
 9287W        W77681   9.037  38.324  10.367
 9288W        W77682  36.124  35.597   1.511
 9289W        W77683  35.163  12.793   4.265
 9290W        W77684  17.045  37.092  10.254
 9291W        W77685  13.641  39.288   2.696
 9292W        W77686  16.509  27.098   5.493
 9293W        W77687  25.574  28.917   0.846
 9294W        W77688  41.035   8.557  11.983
 9295W        W77689  34.595  11.929   0.033
 9296W        W77690  31.882   5.648  10.719
 9297W        W77691  25.548  42.833   1.162
 9298W        W77692  33.456  39.972   2.845
 9299W        W77693  12.327  10.943   4.326
 9300W        W77694  18.025  16.722   3.139
 9301W        W77695   3.344  18.785   2.810
 9302W        W77696  38.462  41.439  12.157
 9303W        W77697  15.184  11.705   0.282
 9304W        W77698  21.725   3.853  11.113
 9305W        W77699  20.504  30.119  10.579
 9306W        W77700   6.644  28.443  13.381
 9307W        W77701  40.073  24.041  14.250
 9308W        W77702  24.140  19.367   2.187
 9309W        W77703  40.539  22.791   3.740
 9310W        W77704  36.881  26.652   3.401
 9311W        W77705  40.516  41.171   2.798
 9312W        W77706   3.822  10.577  12.811
 9313W        W77707  13.916   5.351  13.292
 9314W        W77708   3.702  15.837   3.098
 9315W        W77709  19.599  32.860   3.943
 9316W        W77710  41.904  26.011   3.721
 9317W        W77711   2.485   4.839  12.819
 9318W        W77712  17.027  42.409   2.167
 9319W        W77713  24.692  27.510   2.832
 9320W        W77714  38.900   7.290   0.815
 9321W        W77715  37.992  40.770  14.884
 9322W        W77716  25.416   4.360  10.522
 9323W        W77717  26.640  42.340   9.828
 9324W        W77718  42.570  33.572  11.506
 9325W        W77719  35.570  15.804  10.787
 9326W        W77720  34.911  32.171   2.820
 9327W        W77721  33.139  12.720  11.142
 9328W        W77722  26.378  20.673  14.840
 9329W        W77723  12.516   6.722  14.816
 9330W        W77724  26.110  35.995   3.121
 9331W        W77725  16.529  37.659   3.107
 9332W        W77726  14.780  17.756  11.164
 9333W        W77727  42.615  26.463  11.964
 9334W        W77728  33.315  26.234  14.923
 9335W        W77729  37.093  31.097   3.727
 9336W        W77730  15.533  34.110  12.942
 9337W        W77731   0.881   0.427  11.343
 9338W        W77732   1.775  12.674  13.869
 9339W        W77733  11.593  27.000  14.923
 9340W        W77734  37.417  41.246  11.027
 9341W        W77735   8.099  25.088  13.557
 9342W        W77736  41.492  42.580  12.628
 9343W        W77737  39.036   8.014   3.836
 9344W        W77738  10.252  39.573   1.461
 9345W        W77739  22.618   6.864  13.360
 9346W        W77740  18.671  12.342  12.068
 9347W        W77741  28.168   8.290   1.366
 9348W        W77742  44.687  35.632  10.604
 9349W        W77743  37.014  14.348   0.758
 9350W        W77744  17.194   6.587  13.830
 9351W        W77745  23.308  31.042   3.754
 9352W        W77746   3.543  16.640  13.947
 9353W        W77747   0.497  23.479   3.282
 9354W        W77748  26.908  37.665   4.829
 9355W        W77749   7.679  27.511   1.892
 9356W        W77750  22.407   8.008   2.765
 9357W        W77751  33.108   8.690   5.047
 9358W        W77752   7.293  25.971  11.153
 9359W        W77753  32.917  26.131  12.053
 9360W        W77754  16.656  43.338  13.159
 9361W        W77755  15.233  16.107   4.518
 9362W        W77756  39.298   9.420  11.135
 9363W        W77757  32.658  43.867   4.255
 9364W        W77758  38.187  16.318  12.910
 9365W        W77759  31.341  41.421  14.549
 9366W        W77760  20.709   8.918   2.656
 9367W        W77761  36.596  35.312  12.087
 9368W        W77762   5.454  37.633  11.568
 9369W        W77763  43.029  18.118   3.549
 9370W        W77764   2.619  22.604  10.315
 9371W        W77765  24.376   6.899  14.951
 9372W        W77766  28.969   7.693  12.887
 9373W        W77767  24.271  24.679   4.872
 9374W        W77768  14.760  25.457   1.471
 9375W        W77769  34.626   4.183   3.600
 9376W        W77770   8.251  25.908   3.297
 9377W        W77771   4.796  29.254   3.950
 9378W        W77772  40.457  16.381  11.415
 9379W        W77773  40.518  10.343  11.678
 9380W        W77774  38.846   4.311  13.631
 9381W        W77775  19.079  24.624  10.389
 9382W        W77776   2.512   9.608  11.083
 9383W        W77777  34.050  26.740   1.865
 9384W        W77778  22.528  40.053   3.568
 9385W        W77779  37.751  16.318   1.388
 9386W        W77780  42.499   5.680   4.315
 9387W        W77781  21.025  25.476   2.210
 9388W        W77782  39.118  38.416   1.519
 9389W        W77783  25.892  43.784  13.316
 9390W        W77784  34.219   3.945   2.287
 9391W        W77785  42.295  30.608  10.619
 9392W        W77786  32.168  31.341   1.653
 9393W        W77787  12.318  40.038  12.875
 9394W        W77788  34.135   1.739   1.352
 9395W        W77789  37.768  31.148  11.254
 9396W        W77790  34.532  23.532  13.219
 9397W        W77791  39.321  27.945   0.900
 9398W        W77792  29.661   3.968   2.947
 9399W        W77793  28.017   4.806  14.179
 9400W        W77794  38.658  21.895  10.703
 9401W        W77795  44.893  35.139   2.371
 9402W        W77796  25.541   8.898  14.727
 9403W        W77797  40.191   5.388   4.514
 9404W        W77798  18.820  26.460   0.069
 9405W        W77799   7.695  39.452   4.258
 9406W        W77800   0.225  35.663   3.024
 9407W        W77801  20.235  13.611  10.689
 9408W        W77802   8.705  12.305   4.599
 9409W        W77803   8.134   9.144   4.121
 9410W        W77804   9.880  44.879   3.195
 9411W        W77805  28.540  34.391  14.878
 9412W        W77806   2.680  24.392   5.010
 9413W        W77807   4.410  40.966   4.263
 9414W        W77808   8.799  41.555   3.630
 9415W        W77809   5.491  41.934   2.243
 9416W        W77810  39.678   0.906  13.944
 9417W        W77811  27.223  12.199  10.964
 9418W        W77812  38.369  10.312  14.423
 9419W        W77813  37.759  30.489   3.202
 9420W        W77814  31.477  15.127  11.152
 9421W        W77815   6.159  37.339   1.014
 9422W        W77816  16.045   3.761  14.308
 9423W        W77817   5.865  19.247   0.922
 9424W        W77818   5.769  29.549   3.255
 9425W        W77819  24.054  32.652  13.104
 9426W        W77820  11.822  10.250   4.907
 9427W        W77821  19.567  21.139  10.475
 9428W        W77822  10.358  30.535  11.649
 9429W        W77823   1.949  19.739  10.684
 9430W        W77824  19.655  33.227   0.761
 9431W        W77825  34.161  44.367   3.919
 9432W        W77826  18.796  33.159  12.633
 9433W        W77827  26.164  25.066  14.815
 9434W        W77828  10.143  42.303  13.897
 9435W        W77829  30.668  11.197  14.463
 9436W        W77830  31.457  15.859   2.188
 9437W        W77831   9.879  41.948  13.615
 9438W        W77832  28.966  38.013   4.177
 9439W        W77833  23.453  12.841  11.639
 9440W        W77834  29.839  42.497  14.901
 9441W        W77835  36.804  12.123   0.100
 9442W        W77836  11.553  41.733   2.701
 9443W        W77837  41.556  44.579  13.897
 9444W        W77838   5.001   0.470   2.503
 9445W        W77839   9.063  31.474  14.859
 9446W        W77840  33.279  25.775  12.545
 9447W        W77841   3.683  26.672   2.090
 9448W        W77842   7.165  34.975   4.213
 9449W        W77843   4.293  24.150  14.962
 9450W        W77844   7.425  18.877  11.055
 9451W        W77845  19.739  17.314  12.315
 9452W        W77846  23.964  20.668   1.809
 9453W        W77847   6.691  24.712   1.270
 9454W        W77848  44.646  31.217   4.447
 9455W        W77849  44.901  14.600   3.309
 9456W        W77850   4.744  39.048   3.607
 9457W        W77851  29.573  10.208   3.510
 9458W        W77852  22.281   0.069  14.953
 9459W        W77853  35.159  34.134   4.146
 9460W        W77854  21.729  17.821  14.086
 9461W        W77855  28.533  33.046   1.400
 9462W        W77856   7.093  29.732   4.641
 9463W        W77857   5.027   8.437  14.926
 9464W        W77858  43.482  21.006  12.094
 9465W        W77859   2.983  43.578  12.098
 9466W        W77860   4.402   5.769   0.483
 9467W        W77861   3.322   1.459   2.950
 9468W        W77862   6.971  41.429  14.453
 9469W        W77863  18.567  14.913  14.844
 9470W        W77864  38.317  37.588  11.598
 9471W        W77865  40.461  26.086   1.734
 9472W        W77866   4.246   0.953  13.940
 9473W        W77867  41.585  13.172   1.857
 9474W        W77868  16.210   7.427   2.359
 9475W        W77869   5.861   6.357   4.927
 9476W        W77870  29.203  39.476   3.594
 9477W        W77871  28.351  33.883   0.690
 9478W        W77872  28.981  22.274   0.490
 9479W        W77873  30.607  22.946   0.255
 9480W        W77874  13.706  14.824   1.543
 9481W        W77875  16.128  24.689   2.379
 9482W        W77876   2.664  14.149  11.265
 9483W        W77877  16.670  39.581  14.984
 9484W        W77878  31.073  24.097  12.185
 9485W        W77879  40.755  22.995  11.223
 9486W        W77880   3.778  30.085   4.947
 9487W        W77881   1.869  39.415   1.813
 9488W        W77882   5.831  39.454  11.588
 9489W        W77883  35.780  23.985   3.854
 9490W        W77884  33.338   2.895   1.280
 9491W        W77885  22.836   9.652  10.427
 9492W        W77886   3.679  31.978  10.503
 9493W        W77887  14.837  22.246   2.727
 9494W        W77888   8.165  38.849   2.084
 9495W        W77889   2.229  13.191   5.023
 9496W        W77890  14.036   2.273   1.440
 9497W        W77891   1.785  15.173   0.326
 9498W        W77892  31.506   1.052   3.308
 9499W        W77893  25.582  30.971  11.767
 9500W        W77894   9.872  44.047  14.364
 9501W        W77895  31.963  41.226   0.270
 9502W        W77896   9.418  34.301  11.276
 9503W        W77897  18.549   6.672  11.450
 9504W        W77898  13.063  35.068  10.576
 9505W        W77899  30.418  30.991   0.414
 9506W        W77900  13.805  31.326   4.451
 9507W        W77901  14.848  15.477   2.133
 9508W        W77902  39.799  33.023  13.016
 9509W        W77903  17.493  22.982  14.965
 9510W        W77904  21.000  35.600  14.272
 9511W        W77905  37.135  40.547  12.759
 9512W        W77906  21.571  34.836  11.992
 9513W        W77907  11.354  27.476  14.796
 9514W        W77908  17.578  25.625   4.540
 9515W        W77909  24.995  34.773  13.643
 9516W        W77910  18.282   7.713   1.177
 9517W        W77911   1.798  23.571   3.671
 9518W        W77912  39.059  16.536  13.396
 9519W        W77913  12.232   5.871   5.225
 9520W        W77914  40.474  17.787   0.741
 9521W        W77915  16.799  19.631  11.963
 9522W        W77916  13.190  17.474   1.841
 9523W        W77917  31.922  19.101   3.335
 9524W        W77918  17.072  20.181   3.719
 9525W        W77919  21.487  22.253   2.747
 9526W        W77920  25.102  15.226   3.398
 9527W        W77921  10.729  23.522  11.568
 9528W        W77922  21.043  27.655  14.356
 9529W        W77923   7.572  29.628  11.560
 9530W        W77924   6.652  34.438  14.747
 9531W        W77925  40.798  32.948   3.635
 9532W        W77926  39.827   8.662   1.688
 9533W        W77927  33.346  40.473   2.123
 9534W        W77928  20.054  37.971  10.587
 9535W        W77929  32.561  27.942  13.751
 9536W        W77930  37.492  38.622  14.359
 9537W        W77931   0.923  19.361   0.002
 9538W        W77932   1.683  37.181  10.756
 9539W        W77933   6.347  28.235   0.582
 9540W        W77934  10.316   2.291   1.681
 9541W        W77935  30.974   7.767   2.204
 9542W        W77936   9.297  26.228  13.067
 9543W        W77937   6.220  31.916  13.778
 9544W        W77938  12.806   4.994   5.438
 9545W        W77939  25.993   9.922  13.490
 9546W        W77940  10.381   5.394   2.074
 9547W        W77941  28.614  44.593  12.542
 9548W        W77942  33.165  11.238  13.482
 9549W        W77943  40.342  13.561  13.023
 9550W        W77944  21.128  26.872  13.884
 9551W        W77945   7.284  23.171  11.387
 9552W        W77946  17.778   3.492  11.092
 9553W        W77947  41.998  12.868  13.353
 9554W        W77948  28.567  35.593  10.608
 9555W        W77949  43.921  13.192  13.538
 9556W        W77950  25.693  41.795  12.465
 9557W        W77951   7.046  42.860   1.866
 9558W        W77952  18.771   5.194   4.420
 9559W        W77953   8.653  14.262   2.398
 9560W        W77954  26.087  18.548   4.197
 9561W        W77955  38.940   5.675  10.527
 9562W        W77956  17.089  13.828  13.401
 9563W        W77957  38.406  42.811  13.551
 9564W        W77958  19.141   8.347  13.735
 9565W        W77959   3.432  37.841  12.889
 9566W        W77960  25.055  39.033   3.698
 9567W        W77961  43.452  33.932   2.214
 9568W        W77962   9.741  24.951  12.794
 9569W        W77963  44.177  38.280   1.400
 9570W        W77964  20.775  10.153  13.001
 9571W        W77965  18.559  12.351   2.766
 9572W        W77966  25.079  24.448   1.735
 9573W        W77967  40.777  44.988  12.884
 9574W        W77968  37.581  11.004   3.866
 9575W        W77969   4.895  32.943   4.632
 9576W        W77970  26.955  37.038  13.826
 9577W        W77971  39.949  35.254  10.845
 9578W        W77972  34.945  24.363  10.174
 9579W        W77973  11.051  26.740   4.282
 9580W        W77974  18.342  33.567  14.421
 9581W        W77975  43.387  31.388   4.907
 9582W        W77976  20.255  14.290   1.350
 9583W        W77977  19.668  15.198   0.524
 9584W        W77978  29.943  38.989   4.206
 9585W        W77979  24.197  28.951   0.433
 9586W        W77980   9.771  32.112  11.655
 9587W        W77981  32.838  39.005   3.197
 9588W        W77982  37.992  40.837  12.597
 9589W        W77983   8.806  38.780  11.231
 9590W        W77984  32.080  32.852  11.481
 9591W        W77985  22.535  26.004  10.591
 9592W        W77986  12.637  25.955   4.827
 9593W        W77987  36.530  25.269   2.250
 9594W        W77988   2.775  21.535  11.150
 9595W        W77989   2.326   3.745  11.459
 9596W        W77990  13.152  15.546   4.477
 9597W        W77991  44.721  29.007  10.694
 9598W        W77992  43.588  40.559  10.066
 9599W        W77993  12.376  26.498  10.725
 9600W        W77994  14.715  40.451   4.571
 9601W        W77995  11.603  36.318   0.353
 9602W        W77996  14.583  41.024  13.482
 9603W        W77997   1.659  20.988  13.881
 9604W        W77998  44.417  10.538  14.932
 9605W        W77999   5.189  30.637  14.795
 9606W        W78000  30.209  10.275   4.651
 9607W        W78001  42.568  12.819  11.471
 9608W        W78002  36.191  34.233   3.318
 9609W        W78003  39.899   2.370  13.191
 9610W        W78004  26.374   8.196  13.875
 9611W        W78005  41.274   0.941   3.751
 9612W        W78006  29.286   0.937   1.384
 9613W        W78007  40.212   6.885   2.607
 9614W        W78008   1.291  20.184   3.707
 9615W        W78009  15.067  38.121  12.908
 9616W        W78010  20.829   5.481  14.990
 9617W        W78011  20.216  43.007   1.023
 9618W        W78012  30.684  11.281  12.015
 9619W        W78013  31.860   6.561   4.563
 9620W        W78014  27.966  20.124   0.815
 9621W        W78015   9.800  21.641  14.034
 9622W        W78016  30.576  40.952   4.157
 9623W        W78017  39.433  13.607  14.044
 9624W        W78018  21.478  21.589  14.569
 9625W        W78019  19.791  19.986   3.211
 9626W        W78020  17.289  14.618  11.916
 9627W        W78021   8.896  14.221  13.596
 9628W        W78022  38.924  33.501  12.397
 9629W        W78023  40.853  42.010   2.754
 9630W        W78024  18.670  41.697  11.913
 9631W        W78025  17.669   5.593   1.830
 9632W        W78026   2.288  37.278   3.191
 9633W        W78027  28.501  12.096   0.015
 9634W        W78028  32.073  20.365   2.182
 9635W        W78029  32.934  11.684  13.433
 9636W        W78030  35.985  29.868  12.952
 9637W        W78031  31.675   5.099   3.689
 9638W        W78032  33.323  37.497   0.262
 9639W        W78033  26.959  44.973  13.356
 9640W        W78034   8.875   9.818   3.879
 9641W        W78035  44.096  41.888   0.170
 9642W        W78036  43.482   8.780   4.036
 9643W        W78037  22.056   7.831  10.605
 9644W        W78038  34.356  42.427   0.886
 9645W        W78039  39.924  38.748  12.298
 9646W        W78040  21.167  36.829   1.247
 9647W        W78041  13.138   0.479  11.163
 9648W        W78042  14.124  32.104   4.004
 9649W        W78043  35.908   0.920  11.619
 9650W        W78044  21.755  25.618   0.354
 9651W        W78045  38.021  10.686  14.367
 9652W        W78046   4.458  37.407   1.722
 9653W        W78047  32.627   1.249   0.897
 9654W        W78048  13.210  15.725  12.677
 9655W        W78049  12.664   0.856   3.253
 9656W        W78050  32.120  19.093  14.823
 9657W        W78051   7.793  10.034  12.449
 9658W        W78052   5.897  27.063  11.112
 9659W        W78053  25.526  26.525  12.086
 9660W        W78054  12.255  35.661   3.596
 9661W        W78055  12.317  12.336  14.326
 9662W        W78056  23.897  18.560   4.396
 9663W        W78057  42.958  27.716  12.030
 9664W        W78058   0.571  36.914   3.644
 9665W        W78059  39.385  40.697   2.847
 9666W        W78060  36.427  19.699  14.760
 9667W        W78061  15.399  19.435  12.268
 9668W        W78062  17.075  18.357   3.448
 9669W        W78063   8.170  25.721   2.832
 9670W        W78064  10.800  37.770  11.441
 9671W        W78065  37.986  25.660  14.797
 9672W        W78066  33.043  14.051  13.337
 9673W        W78067  36.777  23.701   4.643
 9674W        W78068  19.842  35.519   1.688
 9675W        W78069  22.721  18.560  10.735
 9676W        W78070  36.116  14.740  13.342
 9677W        W78071  36.033  18.994  12.500
 9678W        W78072   9.511  34.629  12.450
 9679W        W78073  12.116  43.975  13.003
 9680W        W78074   6.883  21.087  14.357
 9681W        W78075  43.887  12.111   0.271
 9682W        W78076  23.315  44.263   0.026
 9683W        W78077  41.491  27.590   1.603
 9684W        W78078  15.829   3.499   3.847
 9685W        W78079  21.747  33.497   3.085
 9686W        W78080  21.058  24.281  11.098
 9687W        W78081  42.434  34.019  12.191
 9688W        W78082  35.124   5.850  11.170
 9689W        W78083  14.157  43.579  11.083
 9690W        W78084  27.171   0.422  10.712
 9691W        W78085  33.861  36.970   1.455
 9692W        W78086  43.494   9.691   4.946
 9693W        W78087  25.715  31.695   0.824
 9694W        W78088  14.328  11.194   4.478
 9695W        W78089  35.383   8.268   1.000
 9696W        W78090  21.107  36.004  14.942
 9697W        W78091   3.417  38.055   3.365
 9698W        W78092   9.897  25.803  12.362
 9699W        W78093  40.269  44.949   4.767
 9700W        W78094  18.907  24.830  11.727
 9701W        W78095  37.107   3.295   0.884
 9702W        W78096   7.369  17.367  13.522
 9703W        W78097  23.198  23.665  12.023
 9704W        W78098  33.053  17.621   0.418
 9705W        W78099   8.416  21.545   3.216
 9706W        W78100  36.481  43.068   3.299
 9707W        W78101   6.792  28.247  13.848
 9708W        W78102  13.757   4.671  11.973
 9709W        W78103   3.361  18.298  12.502
 9710W        W78104  30.173  28.434  14.474
 9711W        W78105  39.324  17.356   1.326
 9712W        W78106   1.354   2.282  13.898
 9713W        W78107  37.318  33.962  11.183
 9714W        W78108  31.398  25.185  13.996
 9715W        W78109  19.613  21.226   2.284
 9716W        W78110  16.665   9.387   0.257
 9717W        W78111  19.630  19.540   3.410
 9718W        W78112  32.850  23.622  10.559
 9719W        W78113  39.859  11.189   1.100
 9720W        W78114  26.994  25.691  12.378
 9721W        W78115  35.695  17.752  13.812
 9722W        W78116  36.583  23.508  10.711
 9723W        W78117  37.533  40.644   1.671
 9724W        W78118   3.746   1.800   1.343
 9725W        W78119  30.589  39.527   2.607
 9726W        W78120   6.348  31.048  14.391
 9727W        W78121  15.750   6.913   3.699
 9728W        W78122   3.251  44.711   3.375
 9729W        W78123  36.089   0.954   1.454
 9730W        W78124  33.880   0.329  13.367
 9731W        W78125  13.662  18.050   4.567
 9732W        W78126  26.085  19.291   2.824
 9733W        W78127  42.604  44.842   2.457
 9734W        W78128  21.463  29.351   2.071
 9735W        W78129  35.682   1.969  10.526
 9736W        W78130  26.902  44.936  14.169
 9737W        W78131  18.570  11.682  13.430
 9738W        W78132  29.151  22.699  14.346
 9739W        W78133  32.932   0.010   0.929
 9740W        W78134  42.887   8.341  14.567
 9741W        W78135  19.192  41.761   4.546
 9742W        W78136  18.995  34.074  12.976
 9743W        W78137  38.290  23.277   0.513
 9744W        W78138  44.421  14.797   2.010
 9745W        W78139   0.542  32.013  10.506
 9746W        W78140  32.978  12.305  11.426
 9747W        W78141  34.429  34.346   0.391
 9748W        W78142  10.099  12.164  12.485
 9749W        W78143  24.823  25.298  12.023
 9750W        W78144  26.028   2.599   1.274
 9751W        W78145  26.019  23.000  12.669
 9752W        W78146  41.016  26.540   4.389
 9753W        W78147  19.801  30.417   2.779
 9754W        W78148   9.627  33.176   2.724
 9755W        W78149  16.895  42.870  13.412
 9756W        W78150  27.011  24.066  10.653
 9757W        W78151  37.969  22.455  14.419
 9758W        W78152  26.565  11.337   4.499
 9759W        W78153  14.274  35.277   5.258
 9760W        W78154  23.520  22.778  13.393
 9761W        W78155  35.915  44.668  11.951
 9762W        W78156  12.219   6.245   0.522
 9763W        W78157  28.293  13.158  14.427
 9764W        W78158   7.684  44.438  11.744
 9765W        W78159   7.039  17.738  14.774
 9766W        W78160  23.743  27.766   3.605
 9767W        W78161   3.891  32.900  13.489
 9768W        W78162   1.322  26.027  11.893
 9769W        W78163  44.409  34.459   1.361
 9770W        W78164  24.705  36.926   4.347
 9771W        W78165   1.450   1.376  11.585
 9772W        W78166   4.281  41.782   0.203
 9773W        W78167  12.336  29.902   5.110
 9774W        W78168  30.024  33.338   2.084
 9775W        W78169  21.718  36.029  14.198
 9776W        W78170  14.874  11.779  12.410
 9777W        W78171  16.102  38.484   4.130
 9778W        W78172  30.491  44.303   3.876
 9779W        W78173  18.144  33.680   0.763
 9780W        W78174  26.864  13.883  10.659
 9781W        W78175  37.983  35.014  10.677
 9782W        W78176  27.567  33.583   1.936
 9783W        W78177  29.165  21.670   4.401
 9784W        W78178  10.083  41.460   0.217
 9785W        W78179  28.602  43.112   2.202
 9786W        W78180  34.082   9.297  13.815
 9787W        W78181  41.866  35.624  14.636
 9788W        W78182  41.029   7.746  12.241
 9789W        W78183   9.639  27.827   0.834
 9790W        W78184  11.642  28.064  11.926
 9791W        W78185  40.159  42.881   4.902
 9792W        W78186  21.746   8.294   1.636
 9793W        W78187  22.053  15.085   3.980
 9794W        W78188  21.053  16.675   3.899
 9795W        W78189   8.437  21.672   0.787
 9796W        W78190  33.943  40.389  12.566
 9797W        W78191  12.351  39.891  13.936
 9798W        W78192   0.950  25.072  10.032
 9799W        W78193  19.570  14.062   0.429
 9800W        W78194   6.494  11.262   3.314
 9801W        W78195  39.448  29.231  12.548
 9802W        W78196   5.413  34.978  13.079
 9803W        W78197  36.488  19.772   4.076
 9804W        W78198  43.906  44.341  10.610
 9805W        W78199   6.414  23.495  11.269
 9806W        W78200  42.784  27.999  13.367
 9807W        W78201  32.818   7.331  13.763
 9808W        W78202  15.174  14.349   4.623
 9809W        W78203  11.191  20.550  11.380
 9810W        W78204  27.533  12.335   1.661
 9811W        W78205   3.057  25.360  11.232
 9812W        W78206   0.820  42.762   1.599
 9813W        W78207  29.406  44.335  12.309
 9814W        W78208  19.989   0.267  11.001
 9815W        W78209  37.429   8.721   0.522
 9816W        W78210  20.990  20.324   2.899
 9817W        W78211  19.588  42.501  12.456
 9818W        W78212  21.849   4.673  12.912
 9819W        W78213  25.363  36.458  12.007
 9820W        W78214   9.948   8.196  11.077
 9821W        W78215  30.960  30.125   2.848
 9822W        W78216   4.955  36.084  12.492
 9823W        W78217  40.576   0.988  14.318
 9824W        W78218  26.987  43.634  11.421
 9825W        W78219  37.645  23.534  10.623
 9826W        W78220  41.810   9.445  14.485
 9827W        W78221  34.438  36.067  13.923
 9828W        W78222  41.935  40.732   2.436
 9829W        W78223   2.970   3.872   0.165
 9830W        W78224   9.200   8.606   4.151
 9831W        W78225  25.216  24.131  13.093
 9832W        W78226  20.088  43.237  11.550
 9833W        W78227  29.057   1.918   1.281
 9834W        W78228  35.109  20.327   4.061
 9835W        W78229   7.793  42.268   1.971
 9836W        W78230  34.018  18.011  13.424
 9837W        W78231  36.629  10.846   0.805
 9838W        W78232  23.235  33.720   0.992
 9839W        W78233  36.617  14.191  12.420
 9840W        W78234  37.634  13.122   4.676
 9841W        W78235   4.375  11.234   4.973
 9842W        W78236  39.121  26.344   2.688
 9843W        W78237  12.725   6.822   1.672
 9844W        W78238  20.323  26.215   0.381
 9845W        W78239  32.460   2.187   1.853
 9846W        W78240   9.939   0.431   4.629
 9847W        W78241  23.133  21.735  13.472
 9848W        W78242  26.493   5.836   4.652
 9849W        W78243  26.109  26.570   4.913
 9850W        W78244  42.812  35.814  14.985
 9851W        W78245  31.910   4.452   0.416
 9852W        W78246   1.675   5.919   4.142
 9853W        W78247   0.465  42.187  13.398
 9854W        W78248  23.684  37.919  14.006
 9855W        W78249   8.382   8.916   0.574
 9856W        W78250  10.662   5.444   3.416
 9857W        W78251  38.834  26.640   2.198
 9858W        W78252  34.457   9.748   3.636
 9859W        W78253  28.534   5.111  10.621
 9860W        W78254   5.873  15.610  12.980
 9861W        W78255  10.215   8.620  10.685
 9862W        W78256   8.865   2.558  11.077
 9863W        W78257  22.193   9.728   0.709
 9864W        W78258   6.401  13.717   3.694
 9865W        W78259  10.160  28.063   2.264
 9866W        W78260   8.171  39.533  12.158
 9867W        W78261  24.060  34.632  10.531
 9868W        W78262  27.245   0.388   1.855
 9869W        W78263  11.850  39.470   1.527
 9870W        W78264   8.227  16.004  14.877
 9871W        W78265   5.276  37.762  12.065
 9872W        W78266  30.701   5.407  12.174
 9873W        W78267  41.731  17.780  11.454
 9874W        W78268  35.784  14.052  13.860
 9875W        W78269  26.206  23.941  12.975
 9876W        W78270  35.283  35.043   2.587
 9877W        W78271  25.730  15.635  14.336
 9878W        W78272  44.565  41.005   4.077
 9879W        W78273  15.688   8.298   9.930
 9880W        W78274  14.817  18.166   5.228
 9881W        W78275  19.798  21.572  12.684
 9882W        W78276  11.167  44.360   2.258
 9883W        W78277  40.482  42.754  14.277
 9884W        W78278  11.183  21.801   1.461
 9885W        W78279  15.252  21.469  11.093
 9886W        W78280   0.851   1.079   4.770
 9887W        W78281   4.509  20.624  12.120
 9888W        W78282  12.896   9.354  14.424
 9889W        W78283  39.321   7.751   0.502
 9890W        W78284   4.279  38.629   1.299
 9891W        W78285  17.469  20.529   3.780
 9892W        W78286  11.707  17.637  13.634
 9893W        W78287  31.384  35.833  10.929
 9894W        W78288   4.203  11.125  14.923
 9895W        W78289  12.679  17.978   2.218
 9896W        W78290  35.148  38.008  14.266
 9897W        W78291  42.418  22.898  10.592
 9898W        W78292  42.374  18.696  14.855
 9899W        W78293  31.817  31.402  14.559
 9900W        W78294   2.394  34.006   4.114
 9901W        W78295  35.029  14.248   3.191
 9902W        W78296  12.893   4.305  12.471
 9903W        W78297  11.704  16.363  14.439
 9904W        W78298  26.711  36.396  14.835
 9905W        W78299  42.852  39.284  13.756
 9906W        W78300   0.237  44.605  12.906
 9907W        W78301   9.098  16.503  13.374
 9908W        W78302  16.210  22.013   2.989
 9909W        W78303  27.416   7.666   1.130
 9910W        W78304  29.728  14.273  10.791
 9911W        W78305  15.803  42.166   3.243
 9912W        W78306  19.014  20.246   1.283
 9913W        W78307  13.421  29.678   2.854
 9914W        W78308   1.683  21.331   3.124
 9915W        W78309  29.713  19.301   1.328
 9916W        W78310   0.479  15.337   3.714
 9917W        W78311   4.356   2.941  10.627
 9918W        W78312  13.774  36.105  10.664
 9919W        W78313  39.859  20.234   3.188
 9920W        W78314  25.185  25.498   1.854
 9921W        W78315  14.517   3.959  14.719
 9922W        W78316   5.330  19.334   0.236
 9923W        W78317  30.106  10.156  14.770
 9924W        W78318  39.553  10.071   4.845
 9925W        W78319  37.504  24.842  11.085
 9926W        W78320   0.564  35.680   2.629
 9927W        W78321   0.439  35.529   0.075
 9928W        W78322  34.958  31.943  13.086
 9929W        W78323   2.165   3.441   0.979
 9930W        W78324  12.349  31.062   0.516
 9931W        W78325  21.748  28.164  10.645
 9932W        W78326   5.229  39.515  10.493
 9933W        W78327  37.474  26.956   2.192
 9934W        W78328  14.006   1.090   0.680
 9935W        W78329  37.761  42.703  10.992
 9936W        W78330  41.804   5.292  12.072
 9937W        W78331  24.796  14.676  13.874
 9938W        W78332   5.831  20.627   1.410
 9939W        W78333  33.928  12.471  13.879
 9940W        W78334   2.266  12.555   1.705
 9941W        W78335   6.274  24.552   2.573
 9942W        W78336  36.580  27.662   2.888
 9943W        W78337   6.449  29.314  14.502
 9944W        W78338  17.743  11.008   4.648
 9945W        W78339  32.831  31.418   3.282
 9946W        W78340  25.328  18.772  12.523
 9947W        W78341  18.119  11.210   1.915
 9948W        W78342  28.186  24.155   4.140
 9949W        W78343   2.943  16.331  11.094
 9950W        W78344   0.487  43.348   2.748
 9951W        W78345  41.874  32.752   3.693
 9952W        W78346  18.545  20.935  12.278
 9953W        W78347  10.917  30.238   1.210
 9954W        W78348  19.682  27.587   1.971
 9955W        W78349  17.310  43.408  10.941
 9956W        W78350   1.943  23.747  12.085
 9957W        W78351  28.463  27.906   2.412
 9958W        W78352  27.034  43.993  13.271
 9959W        W78353  35.965   7.821   3.152
 9960W        W78354  20.163   5.487   1.301
 9961W        W78355  35.138  38.149  13.463
 9962W        W78356  35.309  16.314   3.834
 9963W        W78357   4.970  20.663  11.243
 9964W        W78358   5.735   5.473   3.613
 9965W        W78359  31.478  24.799   4.830
 9966W        W78360  26.901  11.132  14.785
 9967W        W78361   6.976  14.258  14.790
 9968W        W78362  38.760  41.093   4.940
 9969W        W78363  27.707   1.940   3.709
 9970W        W78364  10.905  25.616  11.560
 9971W        W78365   0.308  40.828   1.309
 9972W        W78366  20.594  20.741  13.395
 9973W        W78367  28.420  14.577  12.522
 9974W        W78368  14.595  44.829  10.813
 9975W        W78369  43.190   4.675   1.694
 9976W        W78370  13.540  10.057   2.677
 9977W        W78371  21.582   9.943   3.879
 9978W        W78372  40.664  29.008  13.965
 9979W        W78373   5.545  44.308   3.044
 9980W        W78374  29.600   5.153  12.572
 9981W        W78375  10.218  21.598   0.364
 9982W        W78376  18.562   3.777   2.370
 9983W        W78377  26.009  31.110  11.521
 9984W        W78378  16.777  16.118  13.402
 9985W        W78379  29.715  28.574   2.598
 9986W        W78380  38.822  16.203   4.558
 9987W        W78381  31.463  32.835   3.570
 9988W        W78382  14.751   0.456  14.611
 9989W        W78383   4.383  13.268   0.813
 9990W        W78384  23.662   7.485  14.336
 9991W        W78385   1.990   6.759  10.789
 9992W        W78386   6.414  40.777  11.439
 9993W        W78387  17.040  42.887   3.156
 9994W        W78388  30.259  37.404  13.766
 9995W        W78389  31.887  36.713  14.385
 9996W        W78390  16.607  21.735  11.110
 9997W        W78391   6.267   2.202   2.367
 9998W        W78392  14.042  16.615  10.939
 9999W        W78393  29.960   1.340   1.944
10000W        W78394   8.456   8.134   3.164
10001W        W78395  35.355  33.735  12.025
10002W        W78396  36.192  12.232  13.372
10003W        W78397  33.858   8.897  12.025
10004W        W78398   5.261   8.150   3.794
10005W        W78399   1.953  31.067  14.805
10006W        W78400  19.681  23.462   4.551
10007W        W78401  22.248   3.619  14.254
10008W        W78402  34.547   9.621  12.528
10009W        W78403  20.687  42.795   3.241
10010W        W78404   8.846   4.516   9.725
10011W        W78405  38.752  17.482   4.195
10012W        W78406   1.573  17.272   1.859
10013W        W78407  29.898   4.737   2.819
10014W        W78408  36.605  35.995  14.632
10015W        W78409  14.224  20.340   1.457
10016W        W78410  17.292  30.474  11.730
10017W        W78411  36.923   9.337   2.437
10018W        W78412   6.815  43.351   2.402
10019W        W78413  43.210   9.917   5.312
10020W        W78414  29.023   8.832  11.998
10021W        W78415   1.243  13.676  13.147
10022W        W78416  38.442  36.554   4.062
10023W        W78417  41.928  33.613  10.673
10024W        W78418  12.629   1.303  12.991
10025W        W78419  14.719  35.522  10.636
10026W        W78420  31.178   3.463   3.242
10027W        W78421  44.952  44.228   4.982
10028W        W78422  40.038  43.991   4.229
10029W        W78423  25.105  17.796  13.220
10030W        W78424   9.223   5.046  12.358
10031W        W78425  37.519  13.882  14.864
10032W        W78426   1.291  31.189  11.411
10033W        W78427  39.703  12.234   3.308
10034W        W78428  17.777  40.977   1.121
10035W        W78429  32.415  16.647  13.949
10036W        W78430  39.104  10.640  11.504
10037W        W78431   8.826  17.553  14.608
10038W        W78432   8.384  22.940   4.737
10039W        W78433   9.890  23.194  11.081
10040W        W78434  34.600   0.440   0.706
10041W        W78435  35.619  44.360  12.952
10042W        W78436  34.379  34.543  12.866
10043W        W78437  34.354  27.302   0.776
10044W        W78438   8.708  32.471  10.811
10045W        W78439  39.466  12.201  10.816
10046W        W78440  33.657   8.886   1.317
10047W        W78441  24.847  40.879   2.833
10048W        W78442  43.229  28.132  13.586
10049W        W78443  36.631  17.570   0.827
10050W        W78444  30.600  26.116   3.142
10051W        W78445  17.249  41.476   3.952
10052W        W78446   3.823  25.067  10.465
10053W        W78447  33.766  22.376   0.223
10054W        W78448  26.470  42.343   0.462
10055W        W78449   4.991  18.101  11.687
10056W        W78450   9.009  17.341  11.605
10057W        W78451  36.485  17.039  13.501
10058W        W78452  11.222  31.856   1.383
10059W        W78453   3.299  10.499   3.839
10060W        W78454  27.953  29.955  13.802
10061W        W78455  20.215  36.516  13.284
10062W        W78456  22.228  13.098  11.346
10063W        W78457  40.803  18.821  12.816
10064W        W78458  12.601  41.442   0.381
10065W        W78459   2.794  31.097  11.184
10066W        W78460  17.135  11.401   0.313
10067W        W78461  32.807  38.778  11.664
10068W        W78462  16.070  36.893  12.400
10069W        W78463   4.205  24.232  11.272
10070W        W78464  21.210  28.563   1.710
10071W        W78465   8.784  24.077  10.342
10072W        W78466   8.877  11.790   4.636
10073W        W78467  41.031  19.596  12.138
10074W        W78468  21.920   1.427  11.500
10075W        W78469  13.828  24.708  11.705
10076W        W78470  31.039  29.441  11.525
10077W        W78471  38.990  17.981   5.054
10078W        W78472  29.133  35.550   3.183
10079W        W78473  28.132  27.517   4.660
10080W        W78474  10.351  38.824   5.014
10081W        W78475  14.096  30.022   3.306
10082W        W78476  38.854   4.221  14.771
10083W        W78477   0.826  40.547  10.974
10084W        W78478  41.088   4.266  13.625
10085W        W78479  12.305   9.619  11.868
10086W        W78480   6.732  14.017  12.100
10087W        W78481  16.149   2.195   0.027
10088W        W78482   1.275  38.809   4.645
10089W        W78483  29.750   4.322  13.425
10090W        W78484  38.401   2.844  14.520
10091W        W78485  13.646   2.509  13.690
10092W        W78486  16.898  32.646  12.949
10093W        W78487  12.874   1.476  13.440
10094W        W78488  25.599  34.064  11.619
10095W        W78489  41.524  33.522  12.995
10096W        W78490   1.874  35.357  12.559
10097W        W78491  13.211  35.590   1.801
10098W        W78492   8.124  22.772  12.862
10099W        W78493  38.802  24.974  11.601
10100W        W78494  10.261  29.077   1.800
10101W        W78495   6.453   8.225  14.561
10102W        W78496   8.144  30.362  13.604
10103W        W78497  15.250  19.118   4.878
10104W        W78498   9.555   6.527   2.244
10105W        W78499  31.998  13.413   0.265
10106W        W78500   3.800  40.003   4.723
10107W        W78501  10.639  14.113   2.875
10108W        W78502  21.074  10.767  13.373
10109W        W78503  29.306  41.276  11.034
10110W        W78504  32.516   2.715   2.008
10111W        W78505  25.411   0.469  11.610
10112W        W78506  42.755  18.737  10.636
10113W        W78507  29.031  19.882   2.331
10114W        W78508  12.908  14.290  10.664
10115W        W78509   5.130  33.633  11.658
10116W        W78510  43.220  20.201   3.675
10117W        W78511  21.662  40.103   3.356
10118W        W78512  28.758  42.901  10.208
10119W        W78513  28.154  10.922  14.406
10120W        W78514  36.294  42.278  13.111
10121W        W78515  28.270   1.864   2.690
10122W        W78516   5.469  25.085   1.741
10123W        W78517  33.393  17.397  11.689
10124W        W78518   3.242  27.095   4.451
10125W        W78519  12.818  14.738  11.523
10126W        W78520   4.636  44.418   0.360
10127W        W78521   1.460  31.851   0.848
10128W        W78522   1.275  30.489   2.830
10129W        W78523  23.390  36.198  13.000
10130W        W78524   9.381  33.342   0.931
10131W        W78525  15.099  12.137  14.513
10132W        W78526  19.065  15.975  12.314
10133W        W78527   5.319  34.036   2.606
10134W        W78528  15.774  40.656   1.874
10135W        W78529  11.447   7.214  14.946
10136W        W78530  36.038  43.227   3.837
10137W        W78531  37.026  22.945  14.338
10138W        W78532  10.269  19.010   2.811
10139W        W78533   1.310  22.756  13.012
10140W        W78534   8.668  25.582  10.685
10141W        W78535  29.163   3.681  10.847
10142W        W78536  32.863  13.135  13.801
10143W        W78537   5.712  32.436  14.398
10144W        W78538  11.078  31.050  11.623
10145W        W78539  14.859  16.361  12.366
10146W        W78540  14.589  15.724  13.571
10147W        W78541  29.120  15.260   1.734
10148W        W78542  10.707  12.288   2.380
10149W        W78543  44.530  31.039   2.272
10150W        W78544  14.581  36.131   5.011
10151W        W78545  15.357  13.814  12.162
10152W        W78546  12.855  31.505  12.457
10153W        W78547  17.087   1.102   4.089
10154W        W78548  37.043   7.230  11.903
10155W        W78549  38.813  23.567   2.716
10156W        W78550  34.700   8.175  13.807
10157W        W78551   7.315  13.277   2.610
10158W        W78552  35.888  23.585  13.463
10159W        W78553  32.889  26.517   1.758
10160W        W78554   1.467  31.150  13.895
10161W        W78555   2.972  30.055  12.053
10162W        W78556  16.011  34.527  12.633
10163W        W78557  34.960  19.501  14.009
10164W        W78558  28.559   1.304  14.032
10165W        W78559  11.425  40.386   4.148
10166W        W78560  13.749  41.698   0.384
10167W        W78561  27.849  36.591   4.603
10168W        W78562   7.435  26.460  11.999
10169W        W78563  39.495  17.696   2.010
10170W        W78564  26.475   6.768  10.656
10171W        W78565  26.005  21.802   1.633
10172W        W78566   9.693  44.462  11.891
10173W        W78567  37.335  32.864   0.805
10174W        W78568  25.534  24.430  13.422
10175W        W78569   5.665  26.585  12.353
10176W        W78570  29.141  41.765   3.628
10177W        W78571   4.804  34.365   0.951
10178W        W78572  37.842  43.881  12.282
10179W        W78573   2.925   6.901   1.911
10180W        W78574  42.532  14.370   1.727
10181W        W78575   2.372  42.814  11.950
10182W        W78576  38.469  36.548  10.952
10183W        W78577  20.597   1.867   0.593
10184W        W78578  29.153  30.048   4.600
10185W        W78579  37.409  42.527  10.658
10186W        W78580  20.191  27.554  13.493
10187W        W78581  14.296  42.535  11.546
10188W        W78582  14.286   4.399  14.868
10189W        W78583  40.238  28.085   3.424
10190W        W78584  27.742   5.354   3.113
10191W        W78585  41.748  15.878   0.871
10192W        W78586   6.897  10.198   2.422
10193W        W78587   9.365  14.350  14.900
10194W        W78588  15.178   0.428   0.470
10195W        W78589  38.953  28.071  12.260
10196W        W78590  14.887  24.617   0.245
10197W        W78591  44.916  23.326  13.943
10198W        W78592  26.910   5.638  11.105
10199W        W78593  27.078   5.488   4.496
10200W        W78594  21.657  26.511   4.888
10201W        W78595  35.980  26.711   0.310
10202W        W78596  37.410  10.708  11.581
10203W        W78597  17.247  25.160   1.445
10204W        W78598  25.562  24.248   3.704
10205W        W78599  28.468  18.163   2.855
10206W        W78600  11.677  39.005  12.552
10207W        W78601  40.658   2.515   4.541
10208W        W78602  37.429  23.205   1.915
10209W        W78603  44.437  12.018   4.170
10210W        W78604  24.323  28.505   1.943
10211W        W78605  20.374  10.139   1.331
10212W        W78606  16.702   4.413  13.749
10213W        W78607  39.121   5.139   2.878
10214W        W78608   6.776  29.649  14.264
10215W        W78609  18.352  33.477   3.666
10216W        W78610  44.178  14.892   3.865
10217W        W78611  10.155  35.825   2.393
10218W        W78612  32.398  23.982   1.922
10219W        W78613  39.181  18.437   4.211
10220W        W78614   4.060  43.482  14.768
10221W        W78615  13.545  43.177  10.418
10222W        W78616  18.334   4.399  12.018
10223W        W78617  33.431  21.731   0.895
10224W        W78618  39.036   0.320  11.175
10225W        W78619  17.678  19.087  14.995
10226W        W78620   6.624  21.001   2.824
10227W        W78621  42.840   5.385  14.436
10228W        W78622   0.660  28.893   2.452
10229W        W78623  18.554   7.830  12.333
10230W        W78624  21.291  15.835   1.243
10231W        W78625  42.904  41.297   0.523
10232W        W78626  12.598  30.755   3.679
10233W        W78627  23.164   6.965  10.887
10234W        W78628   9.699  38.539  11.848
10235W        W78629  35.840  26.954  14.465
10236W        W78630  11.046   1.360   0.367
10237W        W78631  35.114  15.684  11.081
10238W        W78632  44.262   9.158  14.795
10239W        W78633  37.697  16.047   0.498
10240W        W78634  33.948   4.942  13.776
10241W        W78635  40.046   0.545   1.316
10242W        W78636  18.846  33.388   3.462
10243W        W78637  27.626  11.904  14.873
10244W        W78638   4.487  18.349   3.606
10245W        W78639  44.700  29.593   4.148
10246W        W78640  38.741  19.615  14.843
10247W        W78641  35.781  37.410  13.910
10248W        W78642  25.449   2.985   3.387
10249W        W78643   2.449  20.620   4.301
10250W        W78644  16.061  12.162  13.080
10251W        W78645   3.314  26.048  14.480
10252W        W78646  15.287   8.931   3.549
10253W        W78647  34.488  12.414   3.667
10254W        W78648  41.347  39.979  13.001
10255W        W78649  27.396  13.728   2.423
10256W        W78650  21.669  11.148  10.914
10257W        W78651  41.416   3.860  13.737
10258W        W78652   4.559  38.428   1.720
10259W        W78653  31.577  15.037   1.288
10260W        W78654  39.782  24.933   0.916
10261W        W78655  31.586  41.955   0.383
10262W        W78656  21.060   3.666   2.155
10263W        W78657  26.648  27.894  14.394
10264W        W78658   9.349  33.154  13.311
10265W        W78659  30.939  31.994  13.401
10266W        W78660  11.109  42.848  12.878
10267W        W78661  12.562  26.789   4.200
10268W        W78662  15.642  11.125   3.775
10269W        W78663   5.218   3.003   4.073
10270W        W78664  14.105  32.199  11.530
10271W        W78665  28.392  38.059  11.104
10272W        W78666   9.418   3.292  12.976
10273W        W78667   0.856  27.214   1.226
10274W        W78668  22.483  22.548   2.927
10275W        W78669  10.219  34.165  11.238
10276W        W78670  38.850  22.616   2.002
10277W        W78671  12.084  29.011   2.742
10278W        W78672  43.104   8.695   3.681
10279W        W78673   3.011   8.706  10.224
10280W        W78674  22.346  40.790  14.836
10281W        W78675   3.654  13.659   1.794
10282W        W78676   8.415  34.555   1.262
10283W        W78677   7.657  36.602   4.945
10284W        W78678  31.060   9.426  14.800
10285W        W78679  34.743  25.218   4.164
10286W        W78680   4.236  10.998   3.859
10287W        W78681  14.773   3.364  13.784
10288W        W78682   8.987  27.918  10.114
10289W        W78683  10.709  35.958  11.509
10290W        W78684  43.207  39.310   4.275
10291W        W78685  16.794  44.839  12.223
10292W        W78686  31.469   7.040  11.579
10293W        W78687   3.717  15.735  11.987
10294W        W78688  34.518  13.241   1.963
10295W        W78689  12.134   0.454   0.907
10296W        W78690  18.130   2.012   4.431
10297W        W78691  12.254   1.300   2.025
10298W        W78692  39.637  22.989   0.881
10299W        W78693  28.434  21.890   3.210
10300W        W78694  39.155   8.974   0.992
10301W        W78695  10.272  23.098  11.851
10302W        W78696  24.763  10.065  14.675
10303W        W78697   0.576  40.345   4.550
10304W        W78698   0.264  25.509  11.263
10305W        W78699   1.980  19.177  14.411
10306W        W78700  21.709  23.895   4.721
10307W        W78701  10.213  38.937  11.744
10308W        W78702  31.131   8.607   1.190
10309W        W78703  11.712  30.826   3.227
10310W        W78704  41.768  44.255  11.182
10311W        W78705   7.861   5.303  12.822
10312W        W78706  24.503   5.169   2.829
10313W        W78707  41.995   5.653   4.243
10314W        W78708   1.498  40.438  11.450
10315W        W78709  32.055  27.496  14.950
10316W        W78710   5.486  12.320  13.495
10317W        W78711  19.718  44.794   2.627
10318W        W78712  16.228  31.497  12.500
10319W        W78713   3.902  16.854   2.828
10320W        W78714   5.149  20.231  12.053
10321W        W78715  41.138  43.843   1.980
10322W        W78716  35.991  44.841  10.940
10323W        W78717   8.371  13.700   3.737
10324W        W78718  13.687  40.901  12.509
10325W        W78719  39.843  38.478   5.426
10326W        W78720  26.680   2.462   2.993
10327W        W78721  22.732  33.061   1.091
10328W        W78722  31.051  20.458   4.153
10329W        W78723  43.300  43.237   1.313
10330W        W78724  24.446  27.011  13.461
10331W        W78725  12.841   1.560   0.492
10332W        W78726  28.667  17.602   2.722
10333W        W78727  13.947  22.285  11.786
10334W        W78728  41.777   2.814   4.240
10335W        W78729  27.021   5.633   1.973
10336W        W78730  34.510   2.542   2.257
10337W        W78731  31.304   3.216   4.214
10338W        W78732   3.173   8.801   4.409
10339W        W78733  42.728   7.779   1.356
10340W        W78734  33.941  15.329  13.458
10341W        W78735   4.001  15.560   0.363
10342W        W78736  28.139  24.281   1.292
10343W        W78737  40.835   2.161   1.409
10344W        W78738   0.883   4.692   5.450
10345W        W78739   7.630  23.722   2.250
10346W        W78740  33.323  40.507  14.591
10347W        W78741   1.720  31.065   3.658
10348W        W78742  16.255  37.789   1.935
10349W        W78743  44.939  41.755   4.752
10350W        W78744  35.653   6.850   1.306
10351W        W78745   1.501  29.390   2.676
10352W        W78746  42.334  36.880   1.519
10353W        W78747   7.686  10.772  12.457
10354W        W78748  39.763  22.204  13.455
10355W        W78749  15.983  26.113  13.499
10356W        W78750  24.819  33.661   1.757
10357W        W78751  18.068  31.156  13.321
10358W        W78752  36.793  28.506   0.173
10359W        W78753  14.632  20.143   1.716
10360W        W78754  10.881  23.017   1.663
10361W        W78755  13.022   4.431  14.923
10362W        W78756  24.910  39.761  11.103
10363W        W78757   3.148  36.354  13.889
10364W        W78758  21.791  32.055  11.958
10365W        W78759  39.315  27.415   0.939
10366W        W78760  30.642   8.422  11.619
10367W        W78761   6.071   3.208   1.287
10368W        W78762  24.957  24.914  11.233
10369W        W78763  18.276  39.986   3.751
10370W        W78764  34.368   6.827  11.693
10371W        W78765  14.413  17.269   3.179
10372W        W78766  23.250  24.013   1.778
10373W        W78767  14.963  32.915  11.569
10374W        W78768  30.460  27.801   0.453
10375W        W78769   6.844  26.985  14.994
10376W        W78770   7.489   9.225   4.868
10377W        W78771   9.879  12.196   2.757
10378W        W78772  39.385  42.391   1.916
10379W        W78773  34.138  24.628  14.942
10380W        W78774   8.355  39.988  12.404
10381W        W78775  35.587   2.200  12.018
10382W        W78776  33.202  15.021  11.128
10383W        W78777  31.473  16.698  13.488
10384W        W78778  39.268  31.458   0.422
10385W        W78779  23.193  30.350  11.123
10386W        W78780   2.371  23.520  14.412
10387W        W78781   1.440  37.507   4.276
10388W        W78782  10.640  39.546   2.776
10389W        W78783   5.671  17.887  13.879
10390W        W78784  24.038  38.962  11.152
10391W        W78785  38.846  11.875   3.297
10392W        W78786   8.681  27.172  14.806
10393W        W78787  19.759  14.787   4.067
10394W        W78788  10.174  14.803   0.917
10395W        W78789  14.198  44.572  11.222
10396W        W78790  22.459   2.276  12.923
10397W        W78791   4.678  21.416  12.035
10398W        W78792   1.680  23.241  11.202
10399W        W78793  12.041   0.749  11.564
10400W        W78794  41.001  44.322   1.030
10401W        W78795  24.088  41.903  12.180
10402W        W78796  10.872   2.373  13.323
10403W        W78797  34.525  10.241  10.487
10404W        W78798  18.004   9.760   1.856
10405W        W78799  14.199  23.760   4.502
10406W        W78800   9.840   5.773  10.673
10407W        W78801  36.113   2.253   3.637
10408W        W78802  33.354  30.504   2.925
10409W        W78803  18.776  25.558   1.885
10410W        W78804  13.647  24.394  12.943
10411W        W78805  10.691  20.600  12.135
10412W        W78806  27.057  30.054   2.172
10413W        W78807   7.376  21.032  11.589
10414W        W78808  19.249  14.777   2.709
10415W        W78809  14.774  17.064  13.419
10416W        W78810   4.986  29.044  13.461
10417W        W78811  17.752  21.660   3.813
10418W        W78812  23.225   2.196   0.799
10419W        W78813   3.923   1.409   0.729
10420W        W78814  25.227   0.975  12.986
10421W        W78815  41.263  16.137  11.091
10422W        W78816  34.765   7.198   3.706
10423W        W78817  20.068  37.581   1.413
10424W        W78818  16.715  13.807  13.943
10425W        W78819  20.157   8.207   1.626
10426W        W78820  41.889  38.445  11.454
10427W        W78821  18.939  27.578  11.275
10428W        W78822   8.382   0.075  12.656
10429W        W78823  44.261   6.451   1.781
10430W        W78824  35.106  29.197   0.175
10431W        W78825  26.007  25.235  11.511
10432W        W78826  31.259  35.474  12.592
10433W        W78827  11.677  44.924   4.203
10434W        W78828  16.307   9.251   2.307
10435W        W78829  16.114  13.903  11.617
10436W        W78830   0.374   5.421   3.700
10437W        W78831   1.363  17.036  13.794
10438W        W78832  17.454  34.930   1.298
10439W        W78833  26.178  14.816  14.084
10440W        W78834  26.374  30.549   4.615
10441W        W78835  13.126  26.045   3.806
10442W        W78836  17.851  42.870  11.814
10443W        W78837  22.608  39.769   4.281
10444W        W78838  24.168  34.511   3.579
10445W        W78839  21.677  25.498  13.067
10446W        W78840  10.154  44.483   0.458
10447W        W78841   4.356  16.353   3.702
10448W        W78842  18.702  41.997  13.797
10449W        W78843  39.314  27.977  10.686
10450W        W78844  10.230   5.951   0.889
10451W        W78845  15.452   2.363  13.584
10452W        W78846   0.412  17.063  13.440
10453W        W78847  28.656  37.198  10.823
10454W        W78848  16.104   9.651   0.092
10455W        W78849  38.011  34.477  14.025
10456W        W78850  27.755  22.807   2.218
10457W        W78851  26.218  33.865  13.460
10458W        W78852  13.075   1.758  10.970
10459W        W78853  22.538  23.290  14.811
10460W        W78854   6.864  34.961   1.046
10461W        W78855  44.712   5.709  13.666
10462W        W78856   4.016  22.128  12.065
10463W        W78857  36.840  10.207   4.537
10464W        W78858  14.620  32.652   4.497
10465W        W78859  33.522   9.861   0.771
10466W        W78860  30.440  14.550  13.405
10467W        W78861  24.744  34.639   1.240
10468W        W78862  32.654  40.386   4.649
10469W        W78863  21.848  37.595   1.863
10470W        W78864   7.491  11.636  14.270
10471W        W78865  33.414  35.334   3.253
10472W        W78866  13.333   8.612   2.733
10473W        W78867  24.050  35.376  13.989
10474W        W78868  25.199  12.768   4.701
10475W        W78869  39.526  21.626   0.420
10476W        W78870  13.146  31.152   1.709
10477W        W78871   7.612  29.006   2.596
10478W        W78872  31.538  10.408  12.320
10479W        W78873   6.798  13.566  14.842
10480W        W78874   4.726  36.023   4.754
10481W        W78875  31.459  44.928  12.023
10482W        W78876  43.076   5.025   1.342
10483W        W78877  42.385  35.630   0.237
10484W        W78878  44.156   7.465   4.212
10485W        W78879  14.616  39.469   1.327
10486W        W78880  13.267  11.194   4.702
10487W        W78881  27.937  37.907  10.424
10488W        W78882  20.645  27.677   4.210
10489W        W78883  16.682  16.322   3.770
10490W        W78884   4.048  11.373   4.173
10491W        W78885  19.156   8.685   3.479
10492W        W78886  32.901  15.305   1.153
10493W        W78887  15.781  24.709   1.772
10494W        W78888  32.390   5.469   0.331
10495W        W78889  27.610  33.113   2.779
10496W        W78890   1.576  15.732   3.936
10497W        W78891  40.040  42.176   0.437
10498W        W78892  19.436  20.507   1.883
10499W        W78893  22.411   2.726  13.684
10500W        W78894  43.998   0.865   4.632
10501W        W78895  21.780  30.697  13.355
10502W        W78896   2.742   9.910   3.213
10503W        W78897  34.552  12.654   3.137
10504W        W78898  12.677   6.313  12.996
10505W        W78899  31.554  39.335   4.590
10506W        W78900  18.774  34.621   0.378
10507W        W78901   7.055  27.167   2.269
10508W        W78902  29.950   8.619   1.871
10509W        W78903  21.378  37.420   1.702
10510W        W78904  44.731  11.529   0.959
10511W        W78905  10.658   7.681  12.939
10512W        W78906  32.963   0.843  11.835
10513W        W78907   3.855  28.864  14.981
10514W        W78908   7.373  21.665  11.891
10515W        W78909   6.371  14.569  12.422
10516W        W78910  40.867  31.236  14.792
10517W        W78911   1.412  26.917  12.137
10518W        W78912  28.930  13.864  10.416
10519W        W78913  25.593  35.683   4.535
10520W        W78914  40.406  12.162  13.431
10521W        W78915  34.602  38.963   4.180
10522W        W78916  37.528   7.391  10.247
10523W        W78917  13.370  13.183   0.796
10524W        W78918   5.548  27.941  11.830
10525W        W78919  19.265  10.288   2.709
10526W        W78920  37.546  32.854  13.424
10527W        W78921  28.107  36.065  13.931
10528W        W78922  29.406  25.236  11.103
10529W        W78923  14.833  10.619  14.354
10530W        W78924   9.658  40.078   4.636
10531W        W78925  37.594   9.718   3.765
10532W        W78926  20.250  11.281   0.663
10533W        W78927   8.394   8.872   3.727
10534W        W78928   4.331  32.275   0.703
10535W        W78929  43.416   7.072   2.963
10536W        W78930   1.938  24.940   0.283
10537W        W78931   4.913  28.140   2.434
10538W        W78932   3.271  41.818  13.852
10539W        W78933   1.818  28.689  13.393
10540W        W78934  27.451  23.599   0.211
10541W        W78935  36.116   7.158  11.056
10542W        W78936  43.045   3.515   4.462
10543W        W78937  16.517  34.144  11.286
10544W        W78938  16.321  10.505  13.981
10545W        W78939  39.576  38.430   0.218
10546W        W78940  32.209  15.668   1.677
10547W        W78941  30.577  15.253   2.407
10548W        W78942  19.988   6.067   2.662
10549W        W78943  20.115   4.906   3.464
10550W        W78944   0.898  43.049  12.077
10551W        W78945  38.982  24.706  11.133
10552W        W78946  19.012  32.073   1.945
10553W        W78947   8.736  24.996  12.001
10554W        W78948  31.573  32.197   2.275
10555W        W78949  28.486  15.908   1.647
10556W        W78950  44.372  28.468  13.024
10557W        W78951  20.152   3.013   4.827
10558W        W78952  25.209   1.539   4.111
10559W        W78953  40.478  17.252   2.364
10560W        W78954  19.196  25.490   4.906
10561W        W78955  30.354   8.841   1.017
10562W        W78956  24.730  13.061  11.722
10563W        W78957  39.882  23.704   4.302
10564W        W78958   5.229  34.548   0.132
10565W        W78959  27.498  36.540   4.997
10566W        W78960  27.825  32.905  11.607
10567W        W78961  32.406  19.741   4.633
10568W        W78962  44.854  25.024   2.605
10569W        W78963  27.199  37.629   1.165
10570W        W78964  44.354  21.102   3.513
10571W        W78965   1.012  14.173  13.087
10572W        W78966   5.721  32.426  12.378
10573W        W78967  16.073  10.390   0.842
10574W        W78968  36.397   1.191  14.825
10575W        W78969  32.209  24.283   0.783
10576W        W78970  13.128  44.940  10.493
10577W        W78971  23.076   0.282   1.489
10578W        W78972   1.311  15.383  11.912
10579W        W78973  23.978  16.097   3.799
10580W        W78974   7.766  15.813  13.041
10581W        W78975  29.699  37.586   2.262
10582W        W78976   8.959  37.120   3.656
10583W        W78977  23.025  35.968  10.843
10584W        W78978  38.036   8.850   2.315
10585W        W78979  21.055  25.543  12.216
10586W        W78980   0.418  14.512   3.338
10587W        W78981  22.447  34.110   2.658
10588W        W78982   1.695   1.863   1.409
10589W        W78983  37.070  11.232  13.254
10590W        W78984  22.770  21.186   2.644
10591W        W78985   4.378   9.075  12.584
10592W        W78986  29.367  20.191  11.013
10593W        W78987  25.355  40.036   1.271
10594W        W78988  31.682  15.352  10.730
10595W        W78989   7.690  24.179  14.508
10596W        W78990   9.409  13.696   4.432
10597W        W78991  17.693  33.399  12.039
10598W        W78992  41.762  40.758  11.876
10599W        W78993   7.807  10.175   1.404
10600W        W78994  17.732  36.932  11.374
10601W        W78995  21.460  39.327  11.107
10602W        W78996  28.193   7.335   2.296
10603W        W78997  29.650  29.959   4.680
10604W        W78998   3.306   7.296   4.905
10605W        W78999   3.733  31.383   2.497
10606W        W79000  28.926  14.271  14.979
10607W        W79001  11.402  28.626   0.006
10608W        W79002  21.996  33.003  12.683
10609W        W79003  34.778  44.766  11.995
10610W        W79004  39.280  25.879  12.469
10611W        W79005  39.462  15.527   3.310
10612W        W79006  32.721  31.028  12.510
10613W        W79007  42.466  17.304  11.684
10614W        W79008  28.203   4.295   2.370
10615W        W79009  36.883  14.273   1.956
10616W        W79010   7.822  10.199  13.380
10617W        W79011   5.222  28.111   1.630
10618W        W79012  28.516  32.911  12.096
10619W        W79013  26.261   4.605   2.574
10620W        W79014  21.010  41.468   2.885
10621W        W79015  41.728   4.767   9.996
10622W        W79016  18.006  26.072   1.679
10623W        W79017  32.415  18.135   4.747
10624W        W79018   2.416   4.857   1.168
10625W        W79019  42.575  42.956  14.951
10626W        W79020  40.321  35.308  12.888
10627W        W79021  28.526  23.231  13.906
10628W        W79022  28.264  39.566  13.531
10629W        W79023  12.530  31.073   0.039
10630W        W79024  12.284  36.460  11.599
10631W        W79025   0.450  12.782   1.677
10632W        W79026  42.237  36.331  12.767
10633W        W79027  29.048   7.325   3.794
10634W        W79028   5.798  39.232   3.974
10635W        W79029  13.337  19.772  11.470
10636W        W79030  15.075  33.897   0.865
10637W        W79031   1.689  32.970   3.244
10638W        W79032  34.686  19.824  11.152
10639W        W79033  38.288  14.647   0.949
10640W        W79034  42.530   6.857   2.886
10641W        W79035   0.342  43.779   1.820
10642W        W79036  35.154  11.897   2.790
10643W        W79037  15.812  27.902   4.718
10644W        W79038  23.739  27.063  14.801
10645W        W79039  12.387  33.550   1.840
10646W        W79040  23.984  39.973  13.878
10647W        W79041   2.244  31.437   0.934
10648W        W79042  12.728  28.881   3.637
10649W        W79043  23.106  42.598  11.668
10650W        W79044   0.055  24.688  12.843
10651W        W79045  38.348   4.205  11.164
10652W        W79046  13.390  30.116   2.559
10653W        W79047  28.397  29.509  11.609
10654W        W79048  35.935  36.324  10.528
10655W        W79049  23.114   0.149  13.384
10656W        W79050  15.680  32.177  11.149
10657W        W79051   6.177  18.329  13.486
10658W        W79052  24.999  42.107  11.522
10659W        W79053  35.957  21.132   1.930
10660W        W79054   7.349   2.894   1.331
10661W        W79055   1.570  35.338   1.307
10662W        W79056  38.116  42.574  10.649
10663W        W79057   5.922  10.839  12.542
10664W        W79058  33.344  44.064   2.827
10665W        W79059  29.208   5.484   1.882
10666W        W79060   0.364  24.356  11.027
10667W        W79061  23.074  12.300   4.638
10668W        W79062  29.208  39.699   0.506
10669W        W79063  14.180  41.094   0.800
10670W        W79064   3.948   9.849  11.964
10671W        W79065   2.705   5.494  10.763
10672W        W79066   5.543  36.829  14.353
10673W        W79067  16.178  40.066   4.118
10674W        W79068  20.731  29.020  14.339
10675W        W79069  42.824  38.610   0.920
10676W        W79070  29.121   4.982  12.698
10677W        W79071   2.335   1.511   0.295
10678W        W79072  18.044  27.126  13.589
10679W        W79073  42.939  14.059  13.143
10680W        W79074  32.489   5.236  14.058
10681W        W79075   3.820  42.724   4.975
10682W        W79076  12.181  10.239  10.528
10683W        W79077  20.247  37.932   2.833
10684W        W79078  33.445  33.918   0.860
10685W        W79079  32.824  36.224  14.360
10686W        W79080  23.283  33.903  12.034
10687W        W79081  23.508  26.078  14.834
10688W        W79082   5.209  30.393   0.265
10689W        W79083  24.355   4.215   2.736
10690W        W79084  24.327  31.833  11.583
10691W        W79085   3.910  26.265   0.872
10692W        W79086  24.430  10.175   2.397
10693W        W79087  14.308  16.064  10.680
10694W        W79088   9.801  23.202  14.762
10695W        W79089  30.179  38.675  13.546
10696W        W79090  13.722   9.788   0.363
10697W        W79091  35.178  35.022  14.362
10698W        W79092   7.730  38.273   1.943
10699W        W79093  18.523   6.377   0.266
10700W        W79094  16.383   2.362  13.688
10701W        W79095  23.711  41.588   2.382
10702W        W79096  12.175  36.985   2.820
10703W        W79097   6.916  25.744   5.088
10704W        W79098  27.552  32.801   4.266
10705W        W79099  23.447  27.522   3.226
10706W        W79100  33.119  37.955   2.870
10707W        W79101   6.264  38.084   2.569
10708W        W79102  40.350  36.514   4.418
10709W        W79103   6.677  38.134  10.427
10710W        W79104  15.497   6.955  12.121
10711W        W79105  27.391  42.244  10.617
10712W        W79106  21.648   1.342  12.504
10713W        W79107  16.674   9.804   4.933
10714W        W79108  29.992  30.914  11.411
10715W        W79109  44.905  42.032  12.180
10716W        W79110  19.030  40.394   1.744
10717W        W79111   7.553   3.230   3.227
10718W        W79112   5.262   2.306   3.347
10719W        W79113  11.356   8.373   1.875
10720W        W79114  15.278   1.285   3.799
10721W        W79115  38.335  30.643   1.810
10722W        W79116  11.638  39.018  14.081
10723W        W79117  10.857   4.829   0.665
10724W        W79118  27.491  15.279   0.477
10725W        W79119  34.799  42.337   3.783
10726W        W79120  16.754  34.510  12.060
10727W        W79121  34.040  32.102  11.863
10728W        W79122  44.295  26.185  12.308
10729W        W79123  38.868  21.283  10.074
10730W        W79124  32.899  18.006   3.778
10731W        W79125  22.649  31.492   4.870
10732W        W79126  43.311  44.560  11.204
10733W        W79127  22.466  30.993   3.392
10734W        W79128   3.310  11.213  14.382
10735W        W79129  22.122  25.117  14.807
10736W        W79130   7.413  27.217  12.424
10737W        W79131  25.116  38.193  11.917
10738W        W79132  32.946  15.161  10.683
10739W        W79133  26.281  20.813   3.710
10740W        W79134  42.962   8.082   0.980
10741W        W79135  37.787  14.056  12.687
10742W        W79136   6.490   5.153  11.164
10743W        W79137  15.030  33.429   3.624
10744W        W79138  19.135  23.502   2.132
10745W        W79139   6.687  22.873   5.538
10746W        W79140  25.758  16.609   3.162
10747W        W79141  26.120  13.268   2.744
10748W        W79142  19.019  12.862  11.574
10749W        W79143  44.329  15.991  12.395
10750W        W79144  12.845  28.270  12.403
10751W        W79145  38.478   5.623  12.515
10752W        W79146   7.448  23.481   2.957
10753W        W79147  29.487  10.723  12.979
10754W        W79148  35.358   0.341   3.069
10755W        W79149  40.955  42.331  12.454
10756W        W79150  21.698  24.134  12.658
10757W        W79151  35.559  37.886   3.129
10758W        W79152  31.725  13.219  12.427
10759W        W79153  26.116  12.077   2.567
10760W        W79154  40.663  36.526   3.534
10761W        W79155   9.301  36.081   1.728
10762W        W79156  17.949  25.721  10.972
10763W        W79157  23.996  39.224  14.441
10764W        W79158  24.928   3.319  11.624
10765W        W79159  43.352  29.523   3.589
10766W        W79160  35.103  14.788   0.005
10767W        W79161   0.007  25.945  11.164
10768W        W79162  44.512   4.728  14.916
10769W        W79163  28.541  27.076  12.216
10770W        W79164  43.534  33.904   0.753
10771W        W79165  13.193  27.269   4.579
10772W        W79166  30.443   8.883   1.864
10773W        W79167   2.295  10.250  12.053
10774W        W79168  42.134  22.746  13.660
10775W        W79169   3.839  11.514   1.801
10776W        W79170  14.045  36.782  14.289
10777W        W79171  28.014  41.754  14.824
10778W        W79172   2.268  17.684   3.848
10779W        W79173   5.162   4.212   0.375
10780W        W79174  20.019  36.825  11.436
10781W        W79175  18.713  14.161  11.115
10782W        W79176  38.291  32.660  11.629
10783W        W79177  25.019  16.182   4.797
10784W        W79178   4.288   1.359  12.965
10785W        W79179  42.939   0.423  14.727
10786W        W79180   3.840  24.786  10.896
10787W        W79181  16.700  36.805  13.844
10788W        W79182  14.976  36.037  14.108
10789W        W79183  20.632   9.743   3.884
10790W        W79184  41.059   1.149  13.581
10791W        W79185   4.345  23.088   0.953
10792W        W79186  15.068  31.602   0.851
10793W        W79187  27.246   4.791   2.555
10794W        W79188   7.278  25.905  12.865
10795W        W79189   6.783  20.350   0.225
10796W        W79190  41.450  21.294   3.835
10797W        W79191  44.516  39.100  11.499
10798W        W79192  24.033  41.755  11.155
10799W        W79193   2.823  27.005   1.103
10800W        W79194  42.359  13.608  14.932
10801W        W79195  27.035  19.217   3.870
10802W        W79196   9.398  31.489   0.746
10803W        W79197  25.513  31.982  12.081
10804W        W79198   4.512  28.675  10.448
10805W        W79199   7.947   7.258   3.623
10806W        W79200   8.013  14.557   2.694
10807W        W79201   8.372  33.857  11.681
10808W        W79202   1.480  20.167  13.591
10809W        W79203  14.752  44.283  11.886
10810W        W79204  23.984  22.746   2.383
10811W        W79205  13.608  29.405  14.448
10812W        W79206  37.070   6.551  11.470
10813W        W79207  14.168  15.354   4.389
10814W        W79208  31.521  36.393   3.176
10815W        W79209   5.096  25.979   3.265
10816W        W79210  11.795  18.989  12.544
10817W        W79211  37.556  23.584  14.192
10818W        W79212  27.976  24.024   1.744
10819W        W79213  32.979  44.433  11.170
10820W        W79214   6.218  11.358   3.733
10821W        W79215  24.050  20.681  11.125
10822W        W79216   1.250  43.245  14.476
10823W        W79217  28.133   4.010   1.768
10824W        W79218  26.877  24.744  13.700
10825W        W79219  27.521   7.672   3.410
10826W        W79220  39.458  28.396  11.020
10827W        W79221  38.329  14.322  10.993
10828W        W79222  14.253  35.378   4.286
10829W        W79223   1.771  13.809   3.124
10830W        W79224  38.384  42.742  12.415
10831W        W79225  27.452  12.127   3.668
10832W        W79226   4.539  37.433   4.635
10833W        W79227   6.085   4.618   4.150
10834W        W79228   3.423  24.996   0.613
10835W        W79229  42.937   8.231   5.049
10836W        W79230  30.186  31.829   3.693
10837W        W79231  28.991   4.656   1.150
10838W        W79232  37.424   3.706  11.186
10839W        W79233   4.878  27.825   1.303
10840W        W79234  41.891  19.961   2.871
10841W        W79235  40.827  39.202   3.284
10842W        W79236  30.508  20.634  12.912
10843W        W79237  27.440  40.547   0.334
10844W        W79238  36.458  31.169  11.121
10845W        W79239  16.254  28.124   4.038
10846W        W79240  29.566  26.616  14.601
10847W        W79241  24.682  29.978   0.913
10848W        W79242  19.249   5.427  11.944
10849W        W79243  11.766  18.039   1.258
10850W        W79244  36.770  13.038  13.405
10851W        W79245  27.991  39.476   2.418
10852W        W79246  35.592  35.119  13.022
10853W        W79247   6.876  30.196   1.067
10854W        W79248  23.699  26.941   4.798
10855W        W79249  39.898  32.376  12.797
10856W        W79250   7.924  22.724  11.350
10857W        W79251  21.567  22.338   1.256
10858W        W79252  17.821  16.726   3.604
10859W        W79253  33.837  36.471  11.963
10860W        W79254  44.898  42.994   3.264
10861W        W79255  15.421   7.215   5.521
10862W        W79256  39.743   4.810   3.539
10863W        W79257  21.768  17.660  11.567
10864W        W79258  17.039   0.754   2.748
10865W        W79259   2.631   3.445  10.665
10866W        W79260  17.168  27.119  11.462
10867W        W79261   7.348  24.180   3.629
10868W        W79262  33.510  38.376  10.629
10869W        W79263   5.170  10.171   0.020
10870W        W79264  16.357   9.857  11.132
10871W        W79265  35.281   2.817   1.768
10872W        W79266  13.780  35.335   4.085
10873W        W79267  27.692  15.201  12.216
10874W        W79268   3.861  17.805  13.779
10875W        W79269  34.342  13.789   0.288
10876W        W79270  22.744  34.375   1.418
10877W        W79271  19.622  18.294  13.505
10878W        W79272  42.830  24.063   3.276
10879W        W79273   4.248  27.471   2.896
10880W        W79274  11.191  10.875  10.671
10881W        W79275  21.351  15.632  12.019
10882W        W79276  32.542  44.765   4.080
10883W        W79277  36.321  32.351   2.245
10884W        W79278   3.710  24.216   3.143
10885W        W79279  14.947  40.917  14.468
10886W        W79280   0.672  36.972   2.713
10887W        W79281  15.108   0.202   2.824
10888W        W79282   5.077  38.521   1.932
10889W        W79283  25.591   5.123   9.865
10890W        W79284  13.512  37.704   2.269
10891W        W79285  13.276  26.062   2.475
10892W        W79286  39.738  18.278   0.297
10893W        W79287  41.532   2.253  12.974
10894W        W79288   4.306  38.384  13.452
10895W        W79289  32.645  12.102  14.440
10896W        W79290  33.927  23.298  14.040
10897W        W79291  41.963  44.896  13.621
10898W        W79292   5.925   8.192  12.820
10899W        W79293  15.194   7.142   4.131
10900W        W79294  41.289  34.016   0.751
10901W        W79295  37.491  18.438   4.516
10902W        W79296  23.464  33.076  10.735
10903W        W79297  27.614   2.724  13.763
10904W        W79298  43.762  20.667   0.060
10905W        W79299  18.714  20.220  10.615
10906W        W79300  40.783  25.812  12.116
10907W        W79301   6.206  43.337   3.585
10908W        W79302  42.187  40.939   0.009
10909W        W79303  23.695  12.440  12.606
10910W        W79304  33.470  25.748   0.513
10911W        W79305  44.008   4.913  11.363
10912W        W79306  29.655  21.527  11.629
10913W        W79307   7.644  30.059  14.140
10914W        W79308  39.524  44.813   3.983
10915W        W79309  23.042  14.845  10.636
10916W        W79310  37.870  36.183   1.425
10917W        W79311   5.732  12.869  14.367
10918W        W79312  11.181  33.383  12.902
10919W        W79313  43.714   0.349   2.468
10920W        W79314  28.526  40.489   1.527
10921W        W79315  13.002  41.580  13.346
10922W        W79316  33.002  31.054   0.786
10923W        W79317  38.881  24.199  10.703
10924W        W79318  31.552  26.749  13.095
10925W        W79319  22.705  30.964   9.950
10926W        W79320  33.128  26.067   1.912
10927W        W79321  23.086   9.913  14.293
10928W        W79322  35.182  21.257  14.875
10929W        W79323  11.364  38.456   0.272
10930W        W79324   5.255  24.625  12.073
10931W        W79325  41.143  28.778   3.033
10932W        W79326  17.053  21.475  11.130
10933W        W79327  14.480  42.299  11.958
10934W        W79328  44.956  42.637  11.724
10935W        W79329  26.821   9.375   1.671
10936W        W79330  40.896   6.353   4.827
10937W        W79331  28.011  21.115  10.644
10938W        W79332  34.968  40.718   1.028
10939W        W79333   3.265   9.414   0.753
10940W        W79334  44.873  16.360  13.228
10941W        W79335  42.332  20.493  11.556
10942W        W79336  36.590  26.955  10.687
10943W        W79337   1.910  21.372  12.980
10944W        W79338  28.062  27.126  11.408
10945W        W79339  29.998  42.360   4.487
10946W        W79340   3.638  18.797   4.610
10947W        W79341  26.589  12.022   2.762
10948W        W79342   8.268  16.545  14.798
10949W        W79343   8.483   6.319  12.397
10950W        W79344   7.309  33.942  10.780
10951W        W79345  23.427  42.857   1.159
10952W        W79346   2.354  14.812   0.903
10953W        W79347  25.140  33.805  11.598
10954W        W79348  14.327  10.197   2.195
10955W        W79349  15.250   2.914  13.557
10956W        W79350  25.761   0.758  10.843
10957W        W79351  38.973  10.110  13.331
10958W        W79352  40.916  44.058  11.232
10959W        W79353  24.975  26.808  12.522
10960W        W79354  29.661   1.392  13.173
10961W        W79355  41.911  24.219  14.323
10962W        W79356  17.713  41.852   0.193
10963W        W79357  10.159  34.026   1.300
10964W        W79358  24.252   8.898   5.555
10965W        W79359  15.818  34.602   4.722
10966W        W79360  22.429  34.471   0.419
10967W        W79361  31.308  15.283   3.116
10968W        W79362   0.014   6.384   3.618
10969W        W79363   9.134   9.519  11.636
10970W        W79364  29.688  29.950  10.765
10971W        W79365  23.950  11.380  13.066
10972W        W79366  37.987   6.295   1.327
10973W        W79367   8.657  29.538  13.006
10974W        W79368  10.767   1.994  12.963
10975W        W79369  39.285  21.024   1.208
10976W        W79370  18.719  33.801   1.848
10977W        W79371   1.194  21.815  14.326
10978W        W79372  44.706  37.391  12.630
10979W        W79373  38.491  18.164  13.309
10980W        W79374  18.396  15.310  13.414
10981W        W79375  24.828  35.907  11.595
10982W        W79376  44.018  19.067   2.591
10983W        W79377   4.896   2.736  12.955
10984W        W79378   1.273  44.806   2.113
10985W        W79379   4.135  35.814  10.908
10986W        W79380   9.478  28.625   0.470
10987W        W79381   2.029  32.638  13.574
10988W        W79382  11.136  22.602   1.803
10989W        W79383  39.458  14.071  13.099
10990W        W79384  28.668  39.125   2.765
10991W        W79385  27.178  31.283  11.650
10992W        W79386  24.708   1.222   3.163
10993W        W79387   5.827  19.511  12.105
10994W        W79388  34.096  26.574  14.020
10995W        W79389  40.469  29.649   0.409
10996W        W79390  12.475  12.995   3.308
10997W        W79391  11.707  13.620  11.194
10998W        W79392   2.889   9.267   4.416
10999W        W79393  20.123   8.579   2.405
11000W        W79394  18.226  32.353   0.907
11001W        W79395  14.557  36.856  14.319
11002W        W79396  18.317  32.633  12.857
11003W        W79397   3.393  22.165  11.167
11004W        W79398  16.908  27.474  13.006
11005W        W79399  34.619  15.156  14.281
11006W        W79400  25.004  39.419  13.149
11007W        W79401   1.534  23.505  14.788
11008W        W79402  41.208  42.614   3.801
11009W        W79403  37.815  12.115   1.745
11010W        W79404  17.035  23.664  11.529
11011W        W79405   7.418  43.810  14.837
11012W        W79406  32.849   2.848   1.085
11013W        W79407  23.936  31.971  12.520
11014W        W79408  35.006  11.080  11.936
11015W        W79409  23.326  20.292   3.106
11016W        W79410  36.402  11.365   4.532
11017W        W79411  43.323  36.468   0.658
11018W        W79412  38.634  27.268  11.591
11019W        W79413   8.444  39.506   0.031
11020W        W79414  39.291  41.939   3.745
11021W        W79415  44.585  40.763  14.526
11022W        W79416  11.481  15.777  10.330
11023W        W79417  37.550  37.411  12.516
11024W        W79418  38.897  12.606  12.107
11025W        W79419  39.747  37.039   1.919
11026W        W79420  11.467   5.870   3.120
11027W        W79421  27.641  15.643  12.473
11028W        W79422  29.464  12.196   4.791
11029W        W79423   6.529  14.562   4.172
11030W        W79424  10.314  43.620   2.457
11031W        W79425  30.996  21.040   3.181
11032W        W79426  25.747  28.099   4.218
11033W        W79427  25.955  33.472  10.628
11034W        W79428  39.542  40.001  11.526
11035W        W79429  32.920   7.336  11.910
11036W        W79430  20.436   1.978  14.353
11037W        W79431  32.875  30.021  10.681
11038W        W79432  26.668  37.865  13.376
11039W        W79433   6.703  14.806  12.738
11040W        W79434   7.176  21.017   3.770
11041W        W79435  30.008  17.480   4.628
11042W        W79436   8.660  21.718  13.329
11043W        W79437  17.375   8.285  12.093
11044W        W79438  18.994   5.179   4.918
11045W        W79439   2.942  23.662   3.529
11046W        W79440  16.838  26.479  13.935
11047W        W79441  28.248  15.618   0.299
11048W        W79442  29.600  17.922   2.311
11049W        W79443   0.960  37.666   2.258
11050W        W79444  24.530  33.090   2.855
11051W        W79445  25.132  31.184  11.665
11052W        W79446  31.018  31.368   0.896
11053W        W79447   4.276  14.378  12.045
11054W        W79448  27.589  41.428   3.852
11055W        W79449  43.424   6.962  13.954
11056W        W79450  22.807   1.740  10.253
11057W        W79451   5.757  33.680  12.909
11058W        W79452  23.145  31.956   4.252
11059W        W79453  23.151  26.451   3.738
11060W        W79454  36.524  18.624  10.347
11061W        W79455  28.673  32.077  11.992
11062W        W79456  43.372   5.145  10.945
11063W        W79457   8.147  43.321  10.629
11064W        W79458  30.612  30.550  11.974
11065W        W79459  44.247   0.635  10.652
11066W        W79460  33.867  42.426  13.437
11067W        W79461  31.628   5.437   4.145
11068W        W79462  33.448  30.154  12.746
11069W        W79463  42.798  21.724  11.654
11070W        W79464  22.069  39.058  11.973
11071W        W79465  17.526  44.232   2.458
11072W        W79466  24.521   8.713   4.293
11073W        W79467  24.593  10.886  11.003
11074W        W79468   0.899  17.216  13.987
11075W        W79469  33.386  21.260  11.602
11076W        W79470  38.806  15.531   2.523
11077W        W79471  27.182  27.531   1.922
11078W        W79472  23.634  16.487  11.109
11079W        W79473  16.901  24.723   0.251
11080W        W79474  36.566  24.164   4.762
11081W        W79475  30.097  29.105  14.910
11082W        W79476  24.756  20.516  10.662
11083W        W79477  16.795  12.119   0.670
11084W        W79478  15.594  30.736   4.665
11085W        W79479   3.236  22.636  10.900
11086W        W79480  38.186  17.596  13.794
11087W        W79481   9.493  20.052   9.948
11088W        W79482   8.108  12.474   0.996
11089W        W79483  41.929  23.109  14.095
11090W        W79484  13.594  34.954  10.566
11091W        W79485  38.545  21.384  10.653
11092W        W79486  19.266  25.709   2.773
11093W        W79487  23.147  41.854  11.213
11094W        W79488  12.868  17.571  12.059
11095W        W79489  41.552  28.006   1.932
11096W        W79490  26.545   3.349   2.283
11097W        W79491  12.438  42.006  10.725
11098W        W79492  44.975  39.819   3.090
11099W        W79493  10.438   3.687   0.480
11100W        W79494   4.866   2.078  10.671
11101W        W79495   4.308  40.170   4.549
11102W        W79496   4.778  33.887  13.426
11103W        W79497  34.992  28.321   1.808
11104W        W79498  41.702  13.139  11.164
11105W        W79499  33.874   7.892   3.284
11106W        W79500  32.172  26.648   1.446
11107W        W79501   4.458  23.644   3.179
11108W        W79502   9.065  22.143   2.305
11109W        W79503  38.126  36.458   4.452
11110W        W79504   8.583   7.300  13.509
11111W        W79505  21.583  21.599   4.177
11112W        W79506  28.487   9.671   2.750
11113W        W79507  18.568  13.745   4.162
11114W        W79508   4.165  25.449   1.758
11115W        W79509  18.754  20.743   5.011
11116W        W79510  14.054  30.384  12.163
11117W        W79511  29.082  42.824   5.197
11118W        W79512  21.042   7.239  12.378
11119W        W79513  31.024   4.991   4.909
11120W        W79514  27.322  30.503   3.382
11121W        W79515   7.191  27.476  10.198
11122W        W79516  35.697   9.396   4.197
11123W        W79517   3.283  34.418  11.164
11124W        W79518  12.624   3.009   3.311
11125W        W79519   8.649  20.759   0.843
11126W        W79520   9.866  44.441   1.741
11127W        W79521  24.795   6.284  11.366
11128W        W79522  39.239  10.379   2.684
11129W        W79523  42.651  13.480  14.532
11130W        W79524  26.163  23.082   0.215
11131W        W79525   7.631   8.151   3.660
11132W        W79526  44.217  28.157   3.226
11133W        W79527  25.472  30.210   1.408
11134W        W79528  28.507  43.635  12.651
11135W        W79529   0.527  33.613  13.886
11136W        W79530   8.763  23.209  11.640
11137W        W79531   0.794   7.592  12.578
11138W        W79532  34.386  30.412   1.053
11139W        W79533  24.158  26.176  13.895
11140W        W79534  41.389  27.328  14.363
11141W        W79535  19.948  18.634  12.434
11142W        W79536  36.581   4.335   0.026
11143W        W79537  12.274  42.560  12.416
11144W        W79538  32.853  32.181  10.989
11145W        W79539  42.956  25.163  14.867
11146W        W79540  41.795   1.151   3.760
11147W        W79541  31.235  10.072   0.717
11148W        W79542  10.228  13.774   0.767
11149W        W79543  22.089  30.966  10.776
11150W        W79544  10.105  25.066   0.582
11151W        W79545   4.276  38.505  10.716
11152W        W79546  43.962  39.331   1.178
11153W        W79547  40.172  30.363   4.188
11154W        W79548  37.515  41.501  14.993
11155W        W79549  34.670  12.657   2.190
11156W        W79550  12.247   2.367  12.086
11157W        W79551  44.904   3.409   5.018
11158W        W79552  44.578   0.751   1.520
11159W        W79553  28.253   7.692  11.548
11160W        W79554  40.147   8.228  11.637
11161W        W79555  27.993  41.044   4.377
11162W        W79556   1.246  33.939   1.465
11163W        W79557  35.769  43.366   0.808
11164W        W79558  44.238  36.627  14.705
11165W        W79559  20.031  21.133   4.606
11166W        W79560  42.035  34.349  12.125
11167W        W79561  20.102   4.366   4.414
11168W        W79562  24.302   5.799   3.713
11169W        W79563  31.655   9.287  12.009
11170W        W79564  36.077  41.046   4.336
11171W        W79565   3.685  26.489  13.415
11172W        W79566  16.180  28.222   1.119
11173W        W79567  38.582  41.344   1.077
11174W        W79568  43.801  14.013  12.898
11175W        W79569  19.622  12.538   1.257
11176W        W79570  27.523  34.659  11.614
11177W        W79571  11.520   9.922  11.948
11178W        W79572  23.659   7.700   0.803
11179W        W79573   5.663  37.567  13.926
11180W        W79574  26.254   6.986   0.791
11181W        W79575  15.670  32.029  13.829
11182W        W79576  37.039  27.571  14.468
11183W        W79577  11.188  41.320   0.798
11184W        W79578  35.186  27.303  11.900
11185W        W79579   5.771  31.879   0.266
11186W        W79580  39.770  27.882  10.921
11187W        W79581  28.578  38.858   1.366
11188W        W79582  30.528  39.784  10.768
11189W        W79583  11.470  12.322   1.983
11190W        W79584  36.290  38.984   0.364
11191W        W79585  23.001  27.038  11.087
11192W        W79586  25.496  31.574  11.017
11193W        W79587  16.502   7.446   4.558
11194W        W79588  37.107  37.995  10.517
11195W        W79589  35.412  30.169  11.166
11196W        W79590  27.599  15.626   1.713
11197W        W79591  12.093  23.587   3.668
11198W        W79592  16.538   5.725   4.506
11199W        W79593   1.762  40.715  13.051
11200W        W79594  12.529   8.684   3.995
11201W        W79595   1.462  25.134  11.625
11202W        W79596  26.592  31.340   0.910
11203W        W79597  38.085  12.692  12.442
11204W        W79598  38.018   8.160  12.102
11205W        W79599  31.592  18.166   1.456
11206W        W79600  29.455  25.989  11.374
11207W        W79601  25.913  40.517  12.954
11208W        W79602   6.931  17.632  13.437
11209W        W79603  40.764  12.722   2.776
11210W        W79604  40.233  37.460   5.004
11211W        W79605  43.800  15.266  12.433
11212W        W79606   6.720  28.772   4.624
11213W        W79607  10.777  40.772   2.312
11214W        W79608  17.681  17.799   1.992
11215W        W79609  39.169   8.051   0.083
11216W        W79610  16.307  29.565  12.169
11217W        W79611   2.064  27.902  14.847
11218W        W79612  17.813  33.051   0.707
11219W        W79613  13.114  44.005   0.770
11220W        W79614  20.695  30.664   4.107
11221W        W79615  18.507  44.750   0.355
11222W        W79616  12.691  15.398   1.785
11223W        W79617  16.684  21.145   0.080
11224W        W79618   8.390   5.697  14.363
11225W        W79619   0.895  31.436   3.148
11226W        W79620   7.683  27.215  14.597
11227W        W79621  26.522  32.006   1.196
11228W        W79622  19.711  15.782  12.880
11229W        W79623  35.114  36.900  12.945
11230W        W79624  31.616   1.396  10.961
11231W        W79625  23.027  40.802  13.833
11232W        W79626  34.828  39.391   2.769
11233W        W79627   7.617  27.164   3.227
11234W        W79628  12.855  14.733   0.023
11235W        W79629  23.235  44.949  11.207
11236W        W79630   9.100   3.268   1.504
11237W        W79631  39.285  14.700  13.444
11238W        W79632  10.860  37.441  11.029
11239W        W79633  11.147  26.668  11.818
11240W        W79634  42.514  42.498  11.965
11241W        W79635  44.806  24.390   0.820
11242W        W79636  27.934  20.482  12.432
11243W        W79637  19.225  35.378   0.215
11244W        W79638   2.194  28.478  13.674
11245W        W79639   8.905   7.307  12.911
11246W        W79640  26.597   3.956  12.102
11247W        W79641  15.248   8.107  13.869
11248W        W79642  20.180  25.560  14.784
11249W        W79643  22.007  28.503   9.729
11250W        W79644   5.359  20.825   4.598
11251W        W79645  41.373  37.261  12.538
11252W        W79646  44.319  17.092  11.447
11253W        W79647  39.760  20.178   2.607
11254W        W79648   5.657  25.189  14.273
11255W        W79649  20.325   1.051  11.023
11256W        W79650  43.018  39.786   4.200
11257W        W79651  39.479   3.725   0.181
11258W        W79652  24.365  12.391   2.557
11259W        W79653  15.922  42.009   1.740
11260W        W79654  21.382  10.343   4.753
11261W        W79655  18.864   1.458   3.783
11262W        W79656  23.712  22.223   1.356
11263W        W79657   3.416  27.074  10.403
11264W        W79658  31.729  18.315  10.746
11265W        W79659  21.683  13.944   0.232
11266W        W79660  32.055  28.713   2.086
11267W        W79661   4.446   7.668  14.568
11268W        W79662  16.053  26.521  11.057
11269W        W79663  21.165   6.738   1.905
11270W        W79664  32.639  10.307  12.810
11271W        W79665   4.653  28.498  11.663
11272W        W79666  37.006  24.730  11.132
11273W        W79667  10.152  37.012   1.934
11274W        W79668  18.975  22.592  13.849
11275W        W79669  19.367  13.045  13.350
11276W        W79670   7.836  23.662  12.887
11277W        W79671  22.567  16.101  10.890
11278W        W79672  41.032  26.518   3.653
11279W        W79673  12.963  41.332  12.062
11280W        W79674  10.326  25.929   2.786
11281W        W79675  41.498  20.810   3.633
11282W        W79676  30.097  11.566   0.034
11283W        W79677  12.731   3.659  12.106
11284W        W79678  27.076  19.726   2.740
11285W        W79679  19.556   7.509  12.791
11286W        W79680  40.472  42.471  12.575
11287W        W79681   3.849  38.774   2.626
11288W        W79682  29.552  13.645  14.161
11289W        W79683  43.449  25.536  13.821
11290W        W79684  12.379  43.105  10.738
11291W        W79685  41.761  20.263   2.459
11292W        W79686  37.419   2.336   4.564
11293W        W79687  23.322  14.817   3.298
11294W        W79688  21.305   5.178   1.411
11295W        W79689  25.934  21.701   0.016
11296W        W79690   4.478   4.421  11.621
11297W        W79691  28.151  44.496  12.357
11298W        W79692  35.367  22.797   3.110
11299W        W79693  42.322  17.538  13.970
11300W        W79694  16.316  22.543  13.758
11301W        W79695   6.099   9.612  11.062
11302W        W79696  26.258  29.368   4.140
11303W        W79697  31.952  29.594   4.014
11304W        W79698  15.686  32.639   2.408
11305W        W79699  26.676  23.437   3.220
11306W        W79700  40.901  16.202  12.338
11307W        W79701  19.917  38.418   4.534
11308W        W79702   4.467  30.442  13.386
11309W        W79703  28.183  12.696  12.404
11310W        W79704  33.452   6.478  12.144
11311W        W79705  34.685  32.976  11.998
11312W        W79706  21.475   7.204   2.833
11313W        W79707  40.959  35.478  12.077
11314W        W79708  31.837   5.796  11.994
11315W        W79709   7.854  36.195   4.260
11316W        W79710  17.293  16.477  12.440
11317W        W79711  21.633  28.357   0.541
11318W        W79712  36.414  26.196   3.908
11319W        W79713  31.881  10.197   0.023
11320W        W79714  19.521  15.839  14.804
11321W        W79715   3.359  42.566   3.038
11322W        W79716  44.807   9.266   4.880
11323W        W79717   2.398   7.729  12.946
11324W        W79718  27.190  24.760   1.514
11325W        W79719  12.137   1.374  11.019
11326W        W79720   0.522  18.192  12.057
11327W        W79721  15.199  10.404  14.887
11328W        W79722  25.094  12.935   2.337
11329W        W79723  30.983   2.977   1.197
11330W        W79724  15.630  11.910   3.334
11331W        W79725  26.693  22.127  12.582
11332W        W79726  43.296  22.179  11.541
11333W        W79727  26.502  13.722  13.467
11334W        W79728   7.836  35.182  13.450
11335W        W79729  44.366  30.943   1.168
11336W        W79730  34.137  32.957   2.262
11337W        W79731  31.356   3.845  10.600
11338W        W79732   6.746   1.327  14.439
11339W        W79733  15.412   1.677  12.563
11340W        W79734  34.648  17.620   1.372
11341W        W79735  34.628   6.600  12.565
11342W        W79736   4.796  43.120   2.591
11343W        W79737  41.488  22.429  14.418
11344W        W79738   3.758  32.530  14.409
11345W        W79739  44.532  30.528   2.333
11346W        W79740  28.068  23.932   2.244
11347W        W79741   7.865  28.061   1.219
11348W        W79742  25.193   7.151  13.180
11349W        W79743  23.824   4.277   3.570
11350W        W79744   9.186  21.543   2.882
11351W        W79745  35.635  21.610  14.215
11352W        W79746  24.797  22.067   4.385
11353W        W79747  10.547  17.245  12.019
11354W        W79748  25.693   9.460   2.793
11355W        W79749  44.245   3.502  12.498
11356W        W79750  12.693   1.185  12.073
11357W        W79751  34.415  24.641  11.247
11358W        W79752   6.175  31.992  14.290
11359W        W79753  26.170   6.184   1.276
11360W        W79754   1.891  23.020   2.845
11361W        W79755  42.417  40.220   1.885
11362W        W79756  23.442  36.090  11.121
11363W        W79757  35.880  19.250   0.408
11364W        W79758  25.334  19.266   0.528
11365W        W79759  39.093  40.050   1.397
11366W        W79760   8.662  18.154   0.360
11367W        W79761  22.567  11.769  12.982
11368W        W79762  36.328  41.998   1.897
11369W        W79763  16.614  26.333  12.157
11370W        W79764  31.702  11.319   3.877
11371W        W79765  37.145  27.983  11.625
11372W        W79766  33.014  35.605   2.346
11373W        W79767  32.891   5.177  14.473
11374W        W79768   5.420  41.564   1.401
11375W        W79769  41.663  19.198   4.190
11376W        W79770  15.545  23.067   3.192
11377W        W79771   9.084  16.156   0.851
11378W        W79772  41.648  43.846   1.993
11379W        W79773  26.809  32.439  12.457
11380W        W79774  37.129  38.452   2.830
11381W        W79775  39.771  12.783   4.518
11382W        W79776  22.874   9.191   0.264
11383W        W79777  16.191  18.122  11.103
11384W        W79778  43.395  11.550  14.964
11385W        W79779  44.381  44.245   2.726
11386W        W79780  33.958   4.820  14.463
11387W        W79781  14.904  28.139   3.480
11388W        W79782  16.313  18.642   3.603
11389W        W79783  20.608  35.625   0.652
11390W        W79784   5.876  12.806  11.493
11391W        W79785  28.596  44.514   2.417
11392W        W79786  34.257  37.599  12.360
11393W        W79787  14.333  43.372  10.652
11394W        W79788  40.099  19.181  14.911
11395W        W79789  20.684  34.678  14.242
11396W        W79790  24.199  23.070   1.590
11397W        W79791   8.848  18.664  13.821
11398W        W79792  15.668  30.539   4.191
11399W        W79793   9.574  26.347   0.799
11400W        W79794  33.871  44.151  12.687
11401W        W79795  34.840  44.397   3.229
11402W        W79796  40.513   6.268  13.049
11403W        W79797  31.598   8.777   1.344
11404W        W79798  43.069  39.381  10.690
11405W        W79799  24.995  23.418   3.057
11406W        W79800  17.014  13.957   2.802
11407W        W79801  20.723  12.226  11.707
11408W        W79802  10.812  44.496  11.569
11409W        W79803  44.205  33.570  14.306
11410W        W79804  12.311  41.018   1.863
11411W        W79805  30.568  28.893  12.404
11412W        W79806  39.534  15.065   0.812
11413W        W79807  40.949  29.501   0.397
11414W        W79808  33.954  34.355  13.145
11415W        W79809  40.635  18.622  14.391
11416W        W79810   4.682   5.529   4.537
11417W        W79811  31.594  18.813   4.562
11418W        W79812  24.757  40.083   4.653
11419W        W79813  12.636  20.677   0.821
11420W        W79814   4.137  12.635  12.136
11421W        W79815  30.867  36.483  12.528
11422W        W79816  35.281  20.972  11.569
11423W        W79817  18.837  10.228  11.120
11424W        W79818  40.767  22.673  13.868
11425W        W79819  31.349  43.796  11.175
11426W        W79820  17.718   3.539   0.302
11427W        W79821   1.642   8.599  12.120
11428W        W79822  44.003  23.185  13.359
11429W        W79823   8.201  41.742   1.633
11430W        W79824   3.874  29.692  11.637
11431W        W79825  17.320  13.368  13.678
11432W        W79826  23.402  28.924   4.253
11433W        W79827   1.558   8.303  13.753
11434W        W79828   8.919  25.698  12.569
11435W        W79829  33.535  20.015   3.843
11436W        W79830   0.418  39.852   9.987
11437W        W79831  41.054  17.081  14.941
11438W        W79832  32.835  26.166   0.441
11439W        W79833  35.777  23.557  14.334
11440W        W79834  40.042  39.318   2.647
11441W        W79835  24.045  42.422  13.085
11442W        W79836  24.145  43.753   4.059
11443W        W79837  20.056  13.176  14.132
11444W        W79838   4.763   6.168  14.871
11445W        W79839  11.658   8.208  11.170
11446W        W79840   2.789  11.687   1.803
11447W        W79841  11.324  20.178   3.612
11448W        W79842  21.190  41.275  14.363
11449W        W79843  13.084  44.727   3.905
11450W        W79844  19.929  25.242  12.047
11451W        W79845  33.197  12.759  12.034
11452W        W79846   7.774  12.143  12.494
11453W        W79847  26.619   6.310   1.024
11454W        W79848  11.973  29.055   5.067
11455W        W79849  14.081  17.485   0.319
11456W        W79850   5.194  43.829   0.966
11457W        W79851  30.043  14.823   1.664
11458W        W79852   0.309  41.455   4.316
11459W        W79853   3.079   6.905   3.359
11460W        W79854  23.450  11.090  12.953
11461W        W79855  29.045   5.581   0.487
11462W        W79856   0.026  14.203   2.015
11463W        W79857  30.016  37.876  13.860
11464W        W79858  13.450  12.464  12.031
11465W        W79859  17.434  43.177  14.054
11466W        W79860  43.017  23.638   1.166
11467W        W79861   7.344  39.604   2.900
11468W        W79862  31.882  22.108  13.961
11469W        W79863  32.349  43.327   2.216
11470W        W79864  23.630  32.931  13.319
11471W        W79865  33.947  22.424   1.214
11472W        W79866  27.568  35.486  10.660
11473W        W79867   5.224  24.988  11.025
11474W        W79868  31.602  22.184  14.908
11475W        W79869   7.873  26.324  12.254
11476W        W79870  44.517  14.303   1.850
11477W        W79871  14.399  41.956  13.110
11478W        W79872  28.108  26.211   1.293
11479W        W79873  18.117   0.798   0.444
11480W        W79874  42.092  29.472  14.515
11481W        W79875  23.097  38.588   4.634
11482W        W79876  25.414   1.850  13.336
11483W        W79877  40.314   2.702  13.325
11484W        W79878  24.721  29.787   4.800
11485W        W79879  21.526  29.602   1.229
11486W        W79880  13.226  35.279   3.728
11487W        W79881  11.732  14.153   4.107
11488W        W79882  41.456  32.984  10.691
11489W        W79883   8.864  38.620  14.263
11490W        W79884  32.310   9.568  11.838
11491W        W79885   8.164  44.281   1.249
11492W        W79886  21.987  30.523   4.692
11493W        W79887  24.142   1.352  10.617
11494W        W79888  25.231   4.742   4.695
11495W        W79889  22.824  22.206   2.688
11496W        W79890   4.178  38.127  14.321
11497W        W79891   2.855  26.343   2.331
11498W        W79892  43.357  26.741  12.460
11499W        W79893  21.962  10.392  11.525
11500W        W79894  10.740  11.934   1.678
11501W        W79895  41.100  33.129   2.004
11502W        W79896  31.982   6.421   1.886
11503W        W79897  40.357  37.788  11.224
11504W        W79898  34.007  36.071   1.371
11505W        W79899  36.374   9.239  13.117
11506W        W79900   5.509  15.993  13.863
11507W        W79901  20.033  40.935  12.088
11508W        W79902  25.881  23.811  11.130
11509W        W79903  37.450  16.349  14.914
11510W        W79904   9.360  21.931   1.904
11511W        W79905  19.971  27.169  14.463
11512W        W79906  23.709  38.433   3.256
11513W        W79907  34.066  15.826  13.353
11514W        W79908   1.835  32.917   4.318
11515W        W79909  34.843  33.027  14.056
11516W        W79910   3.809  37.489   2.275
11517W        W79911  13.363   1.403  10.713
11518W        W79912  31.174  31.209  11.895
11519W        W79913   8.045  23.549  11.562
11520W        W79914  42.238   4.445  11.984
11521W        W79915   2.436  18.163  11.107
11522W        W79916  43.409   9.810  13.750
11523W        W79917   1.688   5.181   1.455
11524W        W79918  31.974   4.914  11.940
11525W        W79919  15.299  20.716  13.458
11526W        W79920  15.489  38.799  14.832
11527W        W79921  36.572  39.589   1.457
11528W        W79922  41.370  36.725   9.732
11529W        W79923  23.677  15.729  13.898
11530W        W79924  11.190  28.553  11.661
11531W        W79925  15.042  35.013   1.878
11532W        W79926   5.753  38.289   2.710
11533W        W79927  29.470  38.341   1.113
11534W        W79928   2.927  40.639   0.323
11535W        W79929  37.399   2.686  11.158
11536W        W79930   8.646  11.687   2.851
11537W        W79931  16.263  34.644   2.804
11538W        W79932  13.446   8.644  14.852
11539W        W79933  26.153  18.779   0.050
11540W        W79934  43.300  20.307  11.058
11541W        W79935   6.306  17.968  11.682
11542W        W79936  34.631  40.891   3.732
11543W        W79937  27.132  26.119   0.699
11544W        W79938  34.361  40.076   4.129
11545W        W79939   0.499   7.724  11.079
11546W        W79940   1.697   9.849   1.311
11547W        W79941  44.479  16.918   9.803
11548W        W79942  26.100  32.158  12.821
11549W        W79943  14.521  41.582  12.374
11550W        W79944  17.749  36.312   2.707
11551W        W79945  13.398   3.925  12.444
11552W        W79946  44.618  42.039   1.384
11553W        W79947  11.599  43.573  13.804
11554W        W79948  38.037  10.246  13.024
11555W        W79949  34.335   9.625  11.202
11556W        W79950  24.235  31.421   0.495
11557W        W79951  14.992   5.871   3.741
11558W        W79952  42.952   5.927   4.223
11559W        W79953  26.129  12.254   4.536
11560W        W79954  40.876  36.850  10.404
11561W        W79955  20.675  42.366   2.942
11562W        W79956  16.668  19.190  13.827
11563W        W79957   1.427   6.979  14.819
11564W        W79958   6.759  27.460   0.217
11565W        W79959  10.846  11.898   2.689
11566W        W79960  17.081  35.075  10.956
11567W        W79961   6.933  27.277  11.080
11568W        W79962  31.526  26.938   3.840
11569W        W79963   6.138  43.835   3.706
11570W        W79964   5.415   4.445   3.105
11571W        W79965  28.693  43.925   1.825
11572W        W79966  37.005  12.098  12.954
11573W        W79967  23.011  34.960   1.171
11574W        W79968  23.050  18.166   2.618
11575W        W79969  35.373  28.809   2.708
11576W        W79970  18.974  28.644  13.905
11577W        W79971  13.736  11.818  11.192
11578W        W79972  33.107  21.272   3.731
11579W        W79973  27.029   6.134   2.719
11580W        W79974  27.416  35.381  11.857
11581W        W79975  32.271  12.866   1.720
11582W        W79976  15.685   9.650  13.452
11583W        W79977  41.534  34.362  11.825
11584W        W79978  14.375  18.594  13.370
11585W        W79979  44.914  21.089   0.921
11586W        W79980   0.753  27.686   2.353
11587W        W79981  34.939   9.587   3.657
11588W        W79982  25.768  30.654  13.603
11589W        W79983  19.622  15.677   2.321
11590W        W79984   7.551  42.595   2.859
11591W        W79985   1.698  31.939  11.173
11592W        W79986  33.988  13.602  12.928
11593W        W79987  39.516  35.375  11.438
11594W        W79988  23.978  11.624   0.428
11595W        W79989   1.684  40.966  10.816
11596W        W79990   9.039  43.400  10.971
11597W        W79991  27.427  11.160  14.826
11598W        W79992  36.783  41.612   2.518
11599W        W79993  34.833   6.206   4.564
11600W        W79994  23.620  13.431   3.116
11601W        W79995   7.900  31.398   3.825
11602W        W79996  36.292  25.145   1.755
11603W        W79997  41.000  34.929   3.211
11604W        W79998  21.271  23.167  13.114
11605W        W79999  42.948  31.625  12.097
11606W        W80000  30.128   5.712  12.899
11607W        W80001  33.428   5.682   1.735
11608W        W80002   0.364   7.845   3.874
11609W        W80003  19.221  35.847  14.947
11610W        W80004  28.001  17.025  10.392
11611W        W80005  19.084  14.405   2.159
11612W        W80006  21.600  27.504   4.567
11613W        W80007  19.558  42.044  12.229
11614W        W80008  34.085  42.298   3.174
11615W        W80009  44.280  25.657   0.636
11616W        W80010   5.307  34.404   0.642
11617W        W80011   0.544  38.382   3.131
11618W        W80012  35.494   8.920   3.268
11619W        W80013  13.876  41.998   1.320
11620W        W80014  33.885  13.227   3.728
11621W        W80015  16.535   8.320   1.804
11622W        W80016  16.157   8.821  10.666
11623W        W80017  26.443  40.072  10.530
11624W        W80018  34.920  30.434   2.765
11625W        W80019   8.212   5.220  13.449
11626W        W80020   3.960  23.231   0.113
11627W        W80021  26.511  19.701   1.473
11628W        W80022  38.861  34.077   4.559
11629W        W80023  10.556  11.786  12.835
11630W        W80024  39.728  30.439   2.742
11631W        W80025  27.433  26.444  12.943
11632W        W80026  39.462  31.856  14.969
11633W        W80027   1.513  10.386  11.592
11634W        W80028  37.088  25.052  10.735
11635W        W80029  11.600  28.908  13.269
11636W        W80030  12.508  17.643   4.204
11637W        W80031  12.150   7.589  13.446
11638W        W80032   6.207   3.474  14.101
11639W        W80033  31.344  20.401  11.150
11640W        W80034  23.617  38.108  12.064
11641W        W80035  41.858  30.281  10.359
11642W        W80036   5.028   6.364  13.351
11643W        W80037   1.778  43.047   0.367
11644W        W80038  42.958  22.980  12.034
11645W        W80039  41.973  17.277   2.730
11646W        W80040  26.643   4.630  13.910
11647W        W80041  16.520  17.593  14.479
11648W        W80042  27.223  24.519  14.652
11649W        W80043   8.189  29.427   3.613
11650W        W80044  20.552  25.738  13.969
11651W        W80045   2.710   2.298   1.756
11652W        W80046  29.398  20.027  14.326
11653W        W80047  23.599  37.862   2.467
11654W        W80048  33.986  41.788  12.919
11655W        W80049  15.745  14.750   5.110
11656W        W80050   8.662  31.782   4.156
11657W        W80051  24.197   6.321   1.393
11658W        W80052  10.805  43.478   1.833
11659W        W80053  15.821  39.985  12.151
11660W        W80054   7.393  44.952  12.530
11661W        W80055  38.444  29.785   0.312
11662W        W80056  40.532  32.019  10.077
11663W        W80057  44.280  26.595   3.817
11664W        W80058  10.409  24.115   5.079
11665W        W80059  40.165   9.305  10.590
11666W        W80060  41.557  17.739   3.548
11667W        W80061  42.767  33.610   2.846
11668W        W80062  11.164  37.947  11.741
11669W        W80063  43.288   5.716   4.572
11670W        W80064  15.651   5.215  11.191
11671W        W80065  11.644  25.476   1.331
11672W        W80066  19.880  44.246   4.786
11673W        W80067  41.322  33.879  11.928
11674W        W80068   2.710  44.723   3.142
11675W        W80069  12.548  44.260   4.106
11676W        W80070  21.955  32.910   0.891
11677W        W80071  19.080  17.374  13.322
11678W        W80072  11.619  40.446   3.612
11679W        W80073  10.158  16.301   0.820
11680W        W80074  20.149  16.475   4.463
11681W        W80075  31.938  39.465  14.546
11682W        W80076  38.326   9.962   3.133
11683W        W80077  19.382  26.084   2.379
11684W        W80078  35.884  30.849  13.115
11685W        W80079  35.051  27.077  10.642
11686W        W80080   1.426   2.736   1.887
11687W        W80081   4.676  22.656   4.127
11688W        W80082  30.413  18.769   4.100
11689W        W80083  24.979  35.927  14.098
11690W        W80084  34.202  12.690  11.896
11691W        W80085  36.680  28.030   0.327
11692W        W80086  15.394  10.726   1.669
11693W        W80087   3.231   0.705  10.607
11694W        W80088  32.878  36.142   3.252
11695W        W80089  26.628  20.186  13.988
11696W        W80090  36.223  39.552  13.523
11697W        W80091  13.607  23.427   2.762
11698W        W80092   3.266   8.850   2.891
11699W        W80093  31.352  15.743   3.605
11700W        W80094  22.576  13.468   2.848
11701W        W80095   3.245   2.429   0.793
11702W        W80096  14.581  43.281  11.105
11703W        W80097   7.169  34.149  12.073
11704W        W80098  23.270  17.093  13.584
11705W        W80099  41.042  37.503   1.290
11706W        W80100  22.326   7.921  11.435
11707W        W80101  38.350  38.832  12.090
11708W        W80102  44.352   8.943   4.149
11709W        W80103   0.833  41.228   5.209
11710W        W80104  32.023  18.433  13.945
11711W        W80105  26.963  36.444   4.178
11712W        W80106  16.110  36.057   2.457
11713W        W80107  31.435  18.620   1.739
11714W        W80108   8.658  38.914  11.694
11715W        W80109  33.371   9.159  14.408
11716W        W80110  43.104  17.298  12.293
11717W        W80111   0.870  33.268   4.313
11718W        W80112  20.291  30.687   3.753
11719W        W80113  17.363  42.247  11.576
11720W        W80114   2.314  35.853   1.619
11721W        W80115  31.876  12.623  14.324
11722W        W80116  31.126  41.876   4.258
11723W        W80117  10.905  13.668  12.039
11724W        W80118  24.663  28.277   3.345
11725W        W80119   9.845  32.158  13.780
11726W        W80120  43.336  23.222   3.307
11727W        W80121  24.639  24.567   1.493
11728W        W80122  26.651  26.086   1.455
11729W        W80123  35.929   1.584   3.991
11730W        W80124  30.637  17.741  11.721
11731W        W80125  33.415  21.544  12.027
11732W        W80126  26.662  39.386  11.006
11733W        W80127  42.516  11.048   0.058
11734W        W80128  28.980  13.111  12.556
11735W        W80129  14.844  38.998   1.345
11736W        W80130  17.453   6.143  14.320
11737W        W80131   9.019  31.439  11.622
11738W        W80132   3.865  19.874  13.022
11739W        W80133  34.870   9.348  14.462
11740W        W80134  23.218   0.510  12.029
11741W        W80135  21.767  44.695  12.369
11742W        W80136   3.496   0.219  11.372
11743W        W80137   6.723  34.908  14.970
11744W        W80138   2.133   3.165   3.186
11745W        W80139   8.683  12.959  13.517
11746W        W80140  41.008  40.970   2.863
11747W        W80141  37.841   5.302   2.816
11748W        W80142  42.258  37.378  12.117
11749W        W80143  18.731  11.661   1.557
11750W        W80144   7.378  26.198   3.797
11751W        W80145  27.118   1.926   5.171
11752W        W80146   0.322  42.079  12.499
11753W        W80147   5.827  24.079  13.092
11754W        W80148  18.185  34.321  11.588
11755W        W80149  14.336  28.661   4.555
11756W        W80150  12.188   3.815   3.312
11757W        W80151  36.861   6.808  13.824
11758W        W80152   5.396  32.383  10.741
11759W        W80153  22.272   4.133  14.382
11760W        W80154   2.795  10.423  12.390
11761W        W80155  19.719  35.983   0.716
11762W        W80156  33.536  24.648  12.882
11763W        W80157   3.419  37.593   1.930
11764W        W80158  35.187  26.094   3.273
11765W        W80159  11.407  40.341  14.452
11766W        W80160  10.411  41.887  10.538
11767W        W80161  39.349   9.707   0.469
11768W        W80162  25.003  33.691   1.244
11769W        W80163  30.867  21.244   3.731
11770W        W80164   1.466   5.646   1.338
11771W        W80165  22.841  16.029  14.457
11772W        W80166   1.494  38.994  10.598
11773W        W80167   7.567  16.028  11.602
11774W        W80168  32.081  27.798  10.376
11775W        W80169  26.446  43.381  12.143
11776W        W80170  13.998  16.388  13.490
11777W        W80171  31.058  42.448  10.447
11778W        W80172  36.916   1.457  11.021
11779W        W80173  10.800   3.266   3.865
11780W        W80174  35.876   7.189  13.714
11781W        W80175  16.228  24.985  14.961
11782W        W80176  10.279  10.915   0.891
11783W        W80177   9.357  31.432  13.902
11784W        W80178  26.281  21.539  10.583
11785W        W80179  40.067   1.817  14.920
11786W        W80180   6.816  39.992  14.292
11787W        W80181   0.195  36.597  14.289
11788W        W80182  14.066  17.127   2.163
11789W        W80183  26.482  13.757  12.034
11790W        W80184   9.529   5.004  10.250
11791W        W80185  42.012  37.876   1.737
11792W        W80186   8.720  21.237  13.551
11793W        W80187  33.473   9.624  12.514
11794W        W80188   5.747  40.095  10.412
11795W        W80189   7.888  11.366   4.380
11796W        W80190  14.010  18.775   0.302
11797W        W80191  20.065  41.734   4.612
11798W        W80192  16.127  20.607  12.929
11799W        W80193  17.113  11.429  12.682
11800W        W80194  20.613  42.198  14.761
11801W        W80195  36.050   6.113   2.250
11802W        W80196  21.187  27.748  14.858
11803W        W80197  10.256  33.023   1.262
11804W        W80198  16.043  28.481   3.622
11805W        W80199  40.953  35.930   4.729
11806W        W80200  34.410   7.659   0.378
11807W        W80201  29.868  35.132   5.078
11808W        W80202  14.338  31.840  11.111
11809W        W80203  18.602   2.722   0.458
11810W        W80204  14.286  30.345  13.015
11811W        W80205   1.768  11.438  14.835
11812W        W80206   9.875   5.291  13.386
11813W        W80207  28.988  33.402   0.916
11814W        W80208  24.691  31.503  12.532
11815W        W80209  18.433  33.894   4.364
11816W        W80210  18.741  44.895  11.676
11817W        W80211  24.106  18.015   1.915
11818W        W80212   5.932  13.742  11.733
11819W        W80213  18.147  22.634   2.853
11820W        W80214  12.737   6.738  13.863
11821W        W80215  13.236  15.869  11.166
11822W        W80216   2.418  32.927   0.483
11823W        W80217   1.216   4.955  11.668
11824W        W80218  15.953  29.961   3.134
11825W        W80219  39.438  35.580   0.947
11826W        W80220   1.016   5.897   2.753
11827W        W80221  25.567  13.030   9.751
11828W        W80222   3.299  10.374  13.963
11829W        W80223  15.820   9.256  14.876
11830W        W80224   0.480  32.197   4.055
11831W        W80225  22.313  40.033  13.029
11832W        W80226  35.414   4.722  11.838
11833W        W80227  30.397   0.866  14.991
11834W        W80228  24.600  35.949   3.094
11835W        W80229  21.547  35.427   2.824
11836W        W80230  36.436  22.443  14.043
11837W        W80231   1.535  27.974   2.541
11838W        W80232   7.751  26.607  11.197
11839W        W80233   6.830  24.092  12.163
11840W        W80234   9.428  25.566  12.545
11841W        W80235  42.476   9.440  12.973
11842W        W80236  23.235  25.446  10.999
11843W        W80237   5.969  39.422   4.447
11844W        W80238  11.673  16.821   4.944
11845W        W80239  26.701   9.843   1.942
11846W        W80240   6.802  31.674   1.652
11847W        W80241  25.593  39.534  12.031
11848W        W80242   2.690   4.545   2.705
11849W        W80243  43.662  39.614   2.642
11850W        W80244  24.199  24.950  10.491
11851W        W80245  25.443  21.512   4.368
11852W        W80246  43.455  42.039  13.966
11853W        W80247  20.113   2.274  13.254
11854W        W80248  39.910  28.635  13.751
11855W        W80249   3.654   4.303  14.031
11856W        W80250  24.581  25.419   0.271
11857W        W80251   7.596  25.189  14.351
11858W        W80252  26.892   8.158  13.764
11859W        W80253  35.177  24.006   4.911
11860W        W80254  19.125  41.200  13.481
11861W        W80255  27.685   3.350   1.275
11862W        W80256   0.648  10.022   4.014
11863W        W80257  28.460  27.578   3.311
11864W        W80258  39.544  23.022   2.302
11865W        W80259  43.277  38.748  14.423
11866W        W80260  20.874  19.106  10.179
11867W        W80261  30.964  19.322   1.857
11868W        W80262  17.823  42.968  13.313
11869W        W80263  40.741  30.109  11.218
11870W        W80264   6.195  29.541  12.072
11871W        W80265   4.623  40.495   3.110
11872W        W80266  25.067  36.274   2.329
11873W        W80267  37.516  43.646  12.749
11874W        W80268  22.774  40.450   5.223
11875W        W80269  10.664  28.884  14.937
11876W        W80270   8.772   9.359   1.251
11877W        W80271  15.876  17.021   3.189
11878W        W80272  20.245  22.631   1.761
11879W        W80273   0.031   6.848   2.701
11880W        W80274  32.328  26.111   0.369
11881W        W80275  33.329  36.013   4.053
11882W        W80276  32.837   6.627  11.172
11883W        W80277  31.632  41.574  12.489
11884W        W80278  36.525  17.758   0.273
11885W        W80279   1.560  34.534  14.048
11886W        W80280   0.782   8.810  13.968
11887W        W80281  21.183  13.482  10.715
11888W        W80282   5.022  27.999  12.129
11889W        W80283   3.673  16.606   2.444
11890W        W80284  23.978  20.736   3.771
11891W        W80285   4.776  14.277   2.164
11892W        W80286  32.560  26.482  11.358
11893W        W80287   2.154  43.804   0.536
11894W        W80288  14.124  31.025   3.828
11895W        W80289  40.520  18.768   2.142
11896W        W80290   9.814  25.068   1.182
11897W        W80291  37.389  26.576   3.621
11898W        W80292  14.682   6.873   3.540
11899W        W80293  25.074  38.758  11.081
11900W        W80294  16.230  42.141  12.971
11901W        W80295   1.347  19.562   1.780
11902W        W80296  16.103  20.752   0.268
11903W        W80297  41.502  37.762  12.419
11904W        W80298  11.831  12.099   2.892
11905W        W80299  17.052  29.712   0.220
11906W        W80300  21.664   8.907   3.959
11907W        W80301  30.161  41.183  13.278
11908W        W80302  24.746  38.094   4.102
11909W        W80303  33.033   2.762  12.396
11910W        W80304  10.329   8.562   2.368
11911W        W80305   9.122  38.636   1.841
11912W        W80306   7.003  37.549  11.610
11913W        W80307  13.358  31.356  12.472
11914W        W80308  29.064  14.435   2.153
11915W        W80309   9.226  40.000   0.397
11916W        W80310  17.770  40.460   1.055
11917W        W80311  23.277   9.940   3.651
11918W        W80312  22.504  22.551   4.235
11919W        W80313   5.267  34.057  13.500
11920W        W80314  15.074  28.162  12.869
11921W        W80315  31.190  16.514   1.266
11922W        W80316  39.070  39.044   4.173
11923W        W80317  26.983  11.644   1.736
11924W        W80318  40.467   3.788   0.188
11925W        W80319   6.113  39.496   3.593
11926W        W80320  29.500  36.968   3.910
11927W        W80321  21.172  41.815  14.396
11928W        W80322  10.646  26.131  13.787
11929W        W80323  38.363  39.913   1.909
11930W        W80324   3.047  31.168   0.587
11931W        W80325   3.756  33.487  10.819
11932W        W80326  31.037   4.756  11.130
11933W        W80327  27.412  36.024  13.338
11934W        W80328  43.268   9.888   3.187
11935W        W80329  25.575  32.963   1.291
11936W        W80330  30.081  30.861   0.808
11937W        W80331  30.242  42.811   4.516
11938W        W80332  35.334  14.336  13.875
11939W        W80333  16.134  25.148  10.738
11940W        W80334  42.967  10.168  14.533
11941W        W80335  24.229  40.045   4.718
11942W        W80336  36.098  35.295  11.964
11943W        W80337  33.142  15.547  11.278
11944W        W80338   9.678  17.675  13.069
11945W        W80339  17.339  28.956   2.382
11946W        W80340  27.907   7.328  11.614
11947W        W80341  21.929  31.644  11.571
11948W        W80342  26.064   3.483   4.540
11949W        W80343   9.674  18.087   0.654
11950W        W80344   6.248   5.614  13.371
11951W        W80345  18.302  37.353   4.478
11952W        W80346  23.275  43.794  13.839
11953W        W80347  12.106  16.363  13.164
11954W        W80348  20.049  30.748  14.837
11955W        W80349   2.188  28.981  13.646
11956W        W80350  39.904   4.666  10.521
11957W        W80351  25.166  34.997  12.620
11958W        W80352  38.313   7.695  14.293
11959W        W80353   4.625  15.725  10.302
11960W        W80354  33.906  28.881  13.908
11961W        W80355  28.669  10.119   1.861
11962W        W80356  40.095  31.009  11.599
11963W        W80357  31.171  32.849  12.060
11964W        W80358  24.460  33.926   3.511
11965W        W80359  20.201  15.610   2.856
11966W        W80360  42.651   4.225  12.192
11967W        W80361  44.302  44.561   3.161
11968W        W80362  34.063  30.235  11.557
11969W        W80363   6.187  30.328  10.808
11970W        W80364   6.520  32.036   1.375
11971W        W80365  41.426  21.386  10.778
11972W        W80366   2.264  11.281   2.604
11973W        W80367  43.445   3.485   0.894
11974W        W80368  42.258  23.573   3.162
11975W        W80369   5.373  12.185   4.188
11976W        W80370  18.621  29.924   0.167
11977W        W80371  22.247   4.458  13.981
11978W        W80372  31.891   6.701   2.437
11979W        W80373   0.847  41.499   3.557
11980W        W80374  33.709  35.532  11.953
11981W        W80375  41.996  23.070  11.345
11982W        W80376  29.931  36.103  14.304
11983W        W80377   0.172  31.263  13.524
11984W        W80378  14.746   5.764   0.489
11985W        W80379  28.139  37.487   3.594
11986W        W80380   6.685   5.406   0.889
11987W        W80381   1.884  41.880  13.450
11988W        W80382  44.368  30.884   1.784
11989W        W80383  39.850  24.554  10.708
11990W        W80384  21.052  43.422   2.752
11991W        W80385  32.442   5.302  12.668
11992W        W80386  43.781  11.786  12.511
11993W        W80387  23.806   4.654  12.952
11994W        W80388  37.593  37.156   3.088
11995W        W80389  43.390  32.335  14.943
11996W        W80390   0.307   6.013   0.922
11997W        W80391  17.298  40.830  13.807
11998W        W80392  21.472   2.919  11.585
11999W        W80393  32.245  22.626  11.157
12000W        W80394  15.317  17.717   2.289
12001W        W80395   5.120   0.131  12.067
12002W        W80396  16.901  14.069   2.308
12003W        W80397   6.874   7.480   1.893
12004W        W80398  42.367  32.601  12.826
12005W        W80399  37.954   3.474   2.314
12006W        W80400  24.662  41.271   1.964
12007W        W80401  43.272  35.053   5.544
12008W        W80402   3.747  19.765   3.189
12009W        W80403  43.526  20.734  12.601
12010W        W80404  19.037  24.487  14.383
12011W        W80405   8.937  14.143  14.520
12012W        W80406  43.094  42.597  13.065
12013W        W80407  37.845  20.719   3.800
12014W        W80408  13.285  16.048  10.681
12015W        W80409  35.538  33.920  14.552
12016W        W80410  25.900  39.555  12.892
12017W        W80411  16.869   1.723  12.571
12018W        W80412  10.879  33.057  13.985
12019W        W80413  27.288  30.146   0.781
12020W        W80414  28.753  14.864  12.197
12021W        W80415  25.761  23.484   0.973
12022W        W80416  44.721  13.795   2.109
12023W        W80417  36.300   3.332  11.229
12024W        W80418  19.107  14.590  10.665
12025W        W80419   0.380  21.252  11.463
12026W        W80420   3.339  34.330  13.839
12027W        W80421  44.992  34.565  14.502
12028W        W80422  25.140  29.697   0.973
12029W        W80423  30.637  37.911   3.844
12030W        W80424  17.031  11.560  11.868
12031W        W80425  22.952  42.871  12.074
12032W        W80426  40.683  30.916   0.726
12033W        W80427  42.754  29.855   4.868
12034W        W80428  17.627  32.505  13.484
12035W        W80429  38.961   6.363  12.195
12036W        W80430  30.137  32.906  12.122
12037W        W80431  10.621  27.632  12.587
12038W        W80432  28.187  27.155   3.118
12039W        W80433  23.799  41.364  13.908
12040W        W80434  13.182  25.277   1.558
12041W        W80435  40.495  35.974   4.491
12042W        W80436  38.435   4.162   3.780
12043W        W80437  24.147  18.397  11.965
12044W        W80438  16.247  33.025   1.088
12045W        W80439   2.286  38.059   4.550
12046W        W80440  24.241  19.648  14.892
12047W        W80441  33.625   2.505  10.693
12048W        W80442  16.203  43.075  14.791
12049W        W80443  24.648  37.402   0.028
12050W        W80444  34.798  30.693  14.320
12051W        W80445  44.800  41.966  13.554
12052W        W80446  24.188   5.906  11.452
12053W        W80447   4.502  36.364   4.352
12054W        W80448  18.328   4.889   3.666
12055W        W80449  17.239   7.592  13.830
12056W        W80450  32.027  24.520   1.308
12057W        W80451  41.313  37.050  11.174
12058W        W80452  18.249   5.287  12.030
12059W        W80453  10.810  22.096  13.796
12060W        W80454  31.388  29.096  10.708
12061W        W80455  35.552   6.145  13.010
12062W        W80456   6.764  35.879   4.206
12063W        W80457  17.567  30.884   0.007
12064W        W80458  15.220  18.007   0.238
12065W        W80459  41.843   8.650  12.568
12066W        W80460  20.064  11.194   2.842
12067W        W80461  15.759  22.461   0.480
12068W        W80462  14.227  27.761  12.439
12069W        W80463  12.090  39.931  10.805
12070W        W80464   5.597  10.481   3.532
12071W        W80465  10.419  41.344  11.574
12072W        W80466  31.006  36.383  11.643
12073W        W80467   3.275  18.090   4.119
12074W        W80468  31.868  21.317  12.556
12075W        W80469   9.713  32.510   0.876
12076W        W80470  35.631  10.866  12.522
12077W        W80471  44.266  34.862   1.026
12078W        W80472  10.864  37.483   0.037
12079W        W80473  16.411  41.994  12.147
12080W        W80474  14.527  22.959   4.143
12081W        W80475  11.219  27.054  11.109
12082W        W80476  27.726  40.777  11.545
12083W        W80477  11.534  12.174  11.638
12084W        W80478  38.552  27.596   4.792
12085W        W80479  38.590  12.649  10.799
12086W        W80480  36.374  23.769  13.560
12087W        W80481  14.613  41.574  11.517
12088W        W80482  24.856   6.645   4.857
12089W        W80483  27.624  41.022   3.526
12090W        W80484  19.648   0.511   2.252
12091W        W80485  18.715  37.138  14.826
12092W        W80486  37.878   5.480  11.679
12093W        W80487  29.904  26.159   3.036
12094W        W80488  35.328  24.867   3.743
12095W        W80489  22.536   1.697   3.340
12096W        W80490  30.490  11.915   4.557
12097W        W80491   4.177  32.326   2.240
12098W        W80492  43.032  36.517  12.582
12099W        W80493  31.048  12.379   1.268
12100W        W80494  21.232  18.734  11.102
12101W        W80495  35.523  30.987   2.310
12102W        W80496  26.864  36.782  12.060
12103W        W80497  42.883  42.047   4.647
12104W        W80498   1.368  13.560   3.301
12105W        W80499  34.982  42.829  10.145
12106W        W80500   5.924  39.318   2.710
12107W        W80501   9.407  30.964   4.268
12108W        W80502   5.226  23.489  13.383
12109W        W80503   9.160   1.829  14.945
12110W        W80504  14.051   9.726   0.793
12111W        W80505  39.687  11.892  11.660
12112W        W80506  23.998   8.757  11.493
12113W        W80507  36.370  19.434   0.208
12114W        W80508   6.695  18.590   1.588
12115W        W80509  27.459  18.587   1.299
12116W        W80510  29.112  32.012   0.947
12117W        W80511   8.237  24.681  13.063
12118W        W80512  22.181  26.198   5.484
12119W        W80513  31.486  19.459   1.160
12120W        W80514  35.662  37.012   0.017
12121W        W80515  26.732  12.983  12.765
12122W        W80516  26.963  33.837   0.459
12123W        W80517  26.653  40.903  11.048
12124W        W80518  12.478   2.314  11.540
12125W        W80519  15.344  37.980   2.160
12126W        W80520  19.384  31.946   1.609
12127W        W80521  25.173  17.965  12.739
12128W        W80522  34.019  30.649  13.315
12129W        W80523  44.816  16.290  13.804
12130W        W80524  36.538   0.865   0.650
12131W        W80525  18.485  17.146  11.488
12132W        W80526  32.361  40.037  12.338
12133W        W80527  39.397  31.053   3.880
12134W        W80528  22.692  18.541   2.650
12135W        W80529   6.342  21.840  12.364
12136W        W80530  15.570   3.756  14.020
12137W        W80531  36.131   3.282   0.600
12138W        W80532  28.535  42.796  12.915
12139W        W80533  32.059  23.754   0.972
12140W        W80534   2.344   5.318   0.874
12141W        W80535   4.119  30.110   2.342
12142W        W80536  11.882   2.269  14.846
12143W        W80537  25.749  41.145  13.490
12144W        W80538  27.589   7.185  11.236
12145W        W80539   5.687  17.377  12.206
12146W        W80540  24.215   7.133   3.308
12147W        W80541  23.177  10.154   0.899
12148W        W80542  42.738  40.024  11.042
12149W        W80543  24.045   5.730   3.271
12150W        W80544  42.227  34.011  13.188
12151W        W80545  41.636  34.611  10.690
12152W        W80546  17.100  34.722  13.934
12153W        W80547  29.054  15.116   2.537
12154W        W80548  39.287  20.966   2.093
12155W        W80549  21.843   3.293  10.231
12156W        W80550  35.796   5.831  12.408
12157W        W80551  27.864  29.611  11.646
12158W        W80552   5.346  42.459   5.031
12159W        W80553  16.028  42.790  12.464
12160W        W80554  18.770   3.510  12.953
12161W        W80555  34.339  40.380  14.431
12162W        W80556  37.431   7.417   1.961
12163W        W80557  29.872  31.877  11.592
12164W        W80558   8.490   1.934   3.621
12165W        W80559  44.080  14.673  14.491
12166W        W80560  22.165   6.304   3.199
12167W        W80561  25.141  42.465   0.090
12168W        W80562  25.120  11.136  13.867
12169W        W80563   9.808  14.613   1.252
12170W        W80564  12.788  29.057   4.675
12171W        W80565  18.513   2.298   2.889
12172W        W80566  21.725  37.089   0.390
12173W        W80567  36.031  37.911   2.771
12174W        W80568  23.304  21.388  13.927
12175W        W80569  34.942  19.021   2.846
12176W        W80570  26.508  19.250   3.833
12177W        W80571   9.171  28.023  13.897
12178W        W80572  17.315   5.876  13.378
12179W        W80573   9.400   6.698  12.656
12180W        W80574  13.978  14.571  12.795
12181W        W80575  27.092  22.004  11.996
12182W        W80576  17.362  26.322  11.399
12183W        W80577  11.719  37.533  13.907
12184W        W80578  42.363  32.888   3.596
12185W        W80579  21.636  10.356   1.726
12186W        W80580  37.960   8.170   3.123
12187W        W80581  16.299  34.518  14.532
12188W        W80582  12.634  14.511   2.628
12189W        W80583   7.841  33.301   4.870
12190W        W80584  35.145   8.783   0.075
12191W        W80585   5.851  30.141   3.597
12192W        W80586   5.187  41.806   3.596
12193W        W80587   6.300  32.730   2.398
12194W        W80588  14.235   7.907  10.224
12195W        W80589  11.373  14.637   4.181
12196W        W80590  44.270  11.058  12.598
12197W        W80591   2.397  22.994   2.495
12198W        W80592  38.620   5.284   3.808
12199W        W80593   3.712  11.656   3.863
12200W        W80594  10.967  10.620  12.705
12201W        W80595  25.398   8.434   4.620
12202W        W80596  13.028  23.994  13.552
12203W        W80597   6.268  31.695  11.535
12204W        W80598   1.200   0.463  13.469
12205W        W80599  14.252  23.924  13.937
12206W        W80600  20.975  44.866  10.490
12207W        W80601  21.245  13.357  14.927
12208W        W80602  32.524  33.079  10.789
12209W        W80603   3.477  23.698   3.640
12210W        W80604  30.392  14.154   0.230
12211W        W80605   4.978   8.896   4.832
12212W        W80606  40.890  38.713  14.411
12213W        W80607   4.319  39.577  13.710
12214W        W80608  42.795  12.366  11.564
12215W        W80609  22.650  40.668   2.247
12216W        W80610  19.268  30.839   3.784
12217W        W80611  29.377  33.033   3.233
12218W        W80612  20.417  11.809   2.603
12219W        W80613  37.701  13.295  10.728
12220W        W80614  43.984   9.516  12.930
12221W        W80615  23.944   2.351   2.630
12222W        W80616  24.144   9.251  11.512
12223W        W80617   3.942   3.712  14.298
12224W        W80618   3.683   8.762   1.441
12225W        W80619   6.907  32.594  11.643
12226W        W80620   2.544  34.225   3.648
12227W        W80621  26.529   4.215  11.652
12228W        W80622   8.553  40.846   3.114
12229W        W80623   0.804  38.320  10.589
12230W        W80624  23.058   1.966   4.511
12231W        W80625  23.870  37.513   1.641
12232W        W80626  28.151  42.417   3.255
12233W        W80627  25.727   1.853  13.777
12234W        W80628  13.952   9.359  12.421
12235W        W80629  18.743  38.886   1.840
12236W        W80630  34.791  29.271   4.605
12237W        W80631   0.558   9.779   1.048
12238W        W80632  27.921  37.981  10.928
12239W        W80633   0.370  16.637   1.321
12240W        W80634  29.538  43.049  11.279
12241W        W80635   6.445   9.932  14.962
12242W        W80636   3.521   3.690   1.482
12243W        W80637   0.858  22.297  13.753
12244W        W80638  34.159   0.467   3.740
12245W        W80639  38.823  28.118   2.361
12246W        W80640   1.749  13.828  12.440
12247W        W80641  14.217  35.274   2.093
12248W        W80642   9.599   1.842   1.415
12249W        W80643   2.990  23.129  10.742
12250W        W80644  36.854  12.840  12.913
12251W        W80645   7.364  27.217  13.350
12252W        W80646  27.269  29.775  10.902
12253W        W80647  13.305  12.030   4.535
12254W        W80648  35.336  15.348  10.723
12255W        W80649  30.614  10.488   0.569
12256W        W80650  43.330   2.907  12.303
12257W        W80651  10.037  15.070  11.486
12258W        W80652  29.212  27.154   3.165
12259W        W80653  18.362   4.885   9.846
12260W        W80654   3.957   6.915  11.232
12261W        W80655  37.584  42.957   4.108
12262W        W80656  20.303   1.364  13.732
12263W        W80657  36.125  43.016   2.929
12264W        W80658  42.444   3.205   1.472
12265W        W80659  10.651   4.952  12.009
12266W        W80660  32.399  38.832  13.934
12267W        W80661   2.254  26.161   0.874
12268W        W80662  20.625  22.507  13.028
12269W        W80663  41.710  18.520   1.459
12270W        W80664   1.214  33.288  11.584
12271W        W80665  25.668  25.550   3.629
12272W        W80666   5.146  15.249   2.265
12273W        W80667  27.539  42.671  12.478
12274W        W80668  14.406  15.309   3.390
12275W        W80669  11.670  30.384  14.978
12276W        W80670  43.283   5.402   2.185
12277W        W80671   1.857  41.014   4.533
12278W        W80672  17.880   1.350  10.910
12279W        W80673   6.368  17.776  12.980
12280W        W80674   4.236  15.364  12.839
12281W        W80675  14.866  10.669   4.808
12282W        W80676   4.727   9.712   4.162
12283W        W80677  37.438  27.150   1.161
12284W        W80678  35.341  16.845   3.901
12285W        W80679  30.718  26.738  11.736
12286W        W80680   8.760  37.535  10.830
12287W        W80681   8.791  12.149  10.622
12288W        W80682  19.023  26.071  12.501
12289W        W80683  26.002  20.740   3.287
12290W        W80684  16.606  21.251  13.595
12291W        W80685  37.607  13.604  11.190
12292W        W80686  13.692  27.257  14.106
12293W        W80687  34.542  26.713   2.172
12294W        W80688  33.579  35.101  11.666
12295W        W80689  21.089  28.215   0.798
12296W        W80690  22.334  10.285   4.564
12297W        W80691  13.837  11.639   3.706
12298W        W80692  25.317  10.141  14.639
12299W        W80693   3.476  38.966   4.234
12300W        W80694  42.983  38.835  10.704
12301W        W80695  24.963  22.007  12.103
12302W        W80696  12.216  33.892   2.692
12303W        W80697  28.668   0.402  13.032
12304W        W80698  32.908  25.168   1.717
12305W        W80699  44.327   5.445   1.204
12306W        W80700  25.909   3.351  10.581
12307W        W80701  29.447  28.981  10.021
12308W        W80702  23.698   6.166  13.923
12309W        W80703  10.992  35.862   2.552
12310W        W80704  28.636  38.540   3.714
12311W        W80705   7.325   8.933   3.602
12312W        W80706   0.108  42.518   0.691
12313W        W80707  13.645  43.025   2.364
12314W        W80708   1.935   1.901  14.133
12315W        W80709  31.310  34.505   1.204
12316W        W80710   4.254  40.928  14.752
12317W        W80711  29.696  11.208  12.974
12318W        W80712  16.030  43.877  10.800
12319W        W80713  24.223  17.335  13.474
12320W        W80714  32.007  34.835   4.770
12321W        W80715  23.106  18.306   0.686
12322W        W80716  14.264  39.440   4.475
12323W        W80717  32.534  33.681  13.385
12324W        W80718  40.088  13.319   1.776
12325W        W80719  13.273  42.784   2.681
12326W        W80720  39.374  36.005  12.161
12327W        W80721   7.101   8.899   2.794
12328W        W80722  21.581  37.337   3.250
12329W        W80723  35.101  34.122  13.477
12330W        W80724   8.363   8.835  13.137
12331W        W80725  39.068  25.582   0.481
12332W        W80726  36.806  15.108  13.902
12333W        W80727  33.727  31.499   3.660
12334W        W80728  31.944  21.019  11.923
12335W        W80729  10.314  33.453   4.128
12336W        W80730  36.521  39.150  13.444
12337W        W80731  14.146  25.698   3.794
12338W        W80732  10.221  20.729   2.764
12339W        W80733  44.912  14.736   1.249
12340W        W80734   2.151   5.867   1.934
12341W        W80735  11.074  16.789   1.944
12342W        W80736  21.228   7.005  13.426
12343W        W80737  29.150   8.207   4.345
12344W        W80738  13.523  41.416  14.959
12345W        W80739  20.565   7.242  12.834
12346W        W80740  32.387  19.267   2.022
12347W        W80741  15.696   8.100  11.477
12348W        W80742  32.530  25.190   0.460
12349W        W80743  30.279  27.996   4.202
12350W        W80744  38.019  38.104   1.339
12351W        W80745  32.919  11.298   1.012
12352W        W80746  44.953  18.662  13.364
12353W        W80747  14.385   3.429  13.049
12354W        W80748  12.374   2.280  14.540
12355W        W80749   7.167   8.834   4.997
12356W        W80750  27.399  24.527  11.633
12357W        W80751   3.570  14.754   0.442
12358W        W80752  24.988  16.371  12.790
12359W        W80753  16.223  35.917  12.370
12360W        W80754   9.769  16.964   3.136
12361W        W80755  10.812  43.073  14.099
12362W        W80756  14.869  11.220   0.365
12363W        W80757   2.286  28.518  13.172
12364W        W80758  30.191   7.634  14.897
12365W        W80759  22.960  43.323  12.948
12366W        W80760  37.086  19.308   4.198
12367W        W80761  19.991  21.663   0.403
12368W        W80762  18.208   0.594   4.255
12369W        W80763  44.480   7.424  13.599
12370W        W80764  31.656  36.775  12.379
12371W        W80765  24.395  16.732  12.880
12372W        W80766  12.552  32.083  11.223
12373W        W80767  10.182   6.037   4.096
12374W        W80768  38.435  25.000  12.394
12375W        W80769   4.713  21.495   2.333
12376W        W80770   6.894   8.896   4.564
12377W        W80771  38.308  43.465   3.788
12378W        W80772  39.138   5.899  12.062
12379W        W80773  10.706  38.471  12.112
12380W        W80774  20.777  38.025   3.742
12381W        W80775  17.208  18.571  13.383
12382W        W80776  13.257  39.518   3.001
12383W        W80777  41.947  38.436   2.625
12384W        W80778  11.163  37.505  10.605
12385W        W80779  43.310  14.190  14.036
12386W        W80780  28.975  40.477  12.132
12387W        W80781  16.082  13.756   3.903
12388W        W80782  14.737  42.031   2.277
12389W        W80783  43.714  39.608  14.455
12390W        W80784  22.099  24.631   2.211
12391W        W80785  11.498  22.478   1.016
12392W        W80786  13.892   7.753  14.509
12393W        W80787  16.392  26.008  11.690
12394W        W80788   5.670  37.902   1.031
12395W        W80789  12.088   8.866  13.840
12396W        W80790   1.547  39.510  13.403
12397W        W80791  21.003  20.800  10.983
12398W        W80792  28.845  30.492  10.970
12399W        W80793   8.227  44.834  13.076
12400W        W80794  15.318  25.678  14.914
12401W        W80795  15.259  28.940   0.452
12402W        W80796  10.895  35.532  14.613
12403W        W80797  39.300  41.597   4.571
12404W        W80798   1.416  14.106  11.445
12405W        W80799  23.128  32.651   1.942
12406W        W80800   3.373  17.656  13.958
12407W        W80801   2.352  24.439   2.049
12408W        W80802   3.661  35.191  14.899
12409W        W80803   2.622  36.428  11.218
12410W        W80804  10.858   6.935   2.655
12411W        W80805  21.761   0.492   0.668
12412W        W80806  17.274   5.712  14.486
12413W        W80807  18.231   9.703  12.529
12414W        W80808  11.604  29.525   0.493
12415W        W80809  31.470  26.581   3.092
12416W        W80810   8.131  34.666   0.846
12417W        W80811  21.998  17.843   3.887
12418W        W80812  10.899  36.315   1.579
12419W        W80813  42.524  22.180   3.725
12420W        W80814   4.355  32.336  13.830
12421W        W80815  23.181  13.358   0.585
12422W        W80816  42.869   6.317  11.219
12423W        W80817  31.385   0.861   2.795
12424W        W80818   5.894  15.636   4.361
12425W        W80819   3.031  37.268   4.087
12426W        W80820  14.174   7.153   0.884
12427W        W80821  10.394  11.773   3.575
12428W        W80822  17.519  31.707   1.228
12429W        W80823  10.076  21.038   4.598
12430W        W80824   0.479  27.419  11.773
12431W        W80825  28.406  28.499   4.143
12432W        W80826  28.653  18.893  14.384
12433W        W80827  28.531   4.091   3.814
12434W        W80828  42.894  27.742  13.850
12435W        W80829  17.284  32.006  12.611
12436W        W80830  21.616  25.201   0.909
12437W        W80831  13.355  44.499  13.781
12438W        W80832  15.691   4.896  12.490
12439W        W80833  20.768   8.814  12.386
12440W        W80834   2.423  23.931  10.329
12441W        W80835  36.180  42.506   1.795
12442W        W80836  39.794   0.981   0.377
12443W        W80837  23.258  10.849   1.413
12444W        W80838  37.248   4.873   1.793
12445W        W80839  11.864  31.350   1.995
12446W        W80840   8.620  18.521   0.707
12447W        W80841  18.151  22.096  11.434
12448W        W80842  40.375  23.091  14.975
12449W        W80843  15.378  39.572   2.580
12450W        W80844  24.031  33.968  10.708
12451W        W80845  44.826  23.360   1.977
12452W        W80846   8.334  12.908   1.162
12453W        W80847  25.999  29.937   0.330
12454W        W80848  23.923   9.533  11.929
12455W        W80849  14.088   8.331   4.536
12456W        W80850  38.954  40.107   0.786
12457W        W80851  29.143  23.115   4.083
12458W        W80852  21.169  10.528   5.210
12459W        W80853   0.380  11.177   1.242
12460W        W80854  35.351  12.067  11.930
12461W        W80855  32.564  42.469  14.246
12462W        W80856  20.243  35.296   1.452
12463W        W80857  31.748  43.700  12.530
12464W        W80858   7.780  21.608   2.676
12465W        W80859  25.179   9.653  13.824
12466W        W80860   8.478  17.152   2.642
12467W        W80861  44.419   7.108  11.597
12468W        W80862   5.217  36.992   3.222
12469W        W80863   8.997  25.992  14.411
12470W        W80864  11.560  15.236  14.896
12471W        W80865  29.039  37.947   2.244
12472W        W80866   0.754  35.057  11.232
12473W        W80867  32.688  11.266   3.366
12474W        W80868  21.496  26.940   1.659
12475W        W80869   8.363   1.013   3.570
12476W        W80870   6.191  16.547  13.887
12477W        W80871  32.120  16.628   0.716
12478W        W80872   6.998  26.791  11.206
12479W        W80873  35.079   3.796  13.914
12480W        W80874  44.259  34.370  13.078
12481W        W80875  39.062  42.053   1.718
12482W        W80876  32.917  44.683   3.246
12483W        W80877  30.794  28.994  14.651
12484W        W80878  36.154  37.642   0.475
12485W        W80879  36.864   7.362   0.853
12486W        W80880  19.769  14.739  14.815
12487W        W80881  15.996   2.511   1.777
12488W        W80882  23.838  10.541  12.570
12489W        W80883  23.553   0.752  10.976
12490W        W80884   1.894   8.846   2.359
12491W        W80885   8.274  35.496   4.990
12492W        W80886  40.295  16.699   3.907
12493W        W80887   3.310  33.674  10.618
12494W        W80888   2.776  31.600   2.393
12495W        W80889  28.433  26.690   3.261
12496W        W80890   2.823  40.616  13.810
12497W        W80891  18.641  15.549   1.472
12498W        W80892   2.777   7.623   0.892
12499W        W80893  33.313  35.771   0.652
12500W        W80894  24.460   8.422   5.596
12501W        W80895  40.529  15.599   4.606
12502W        W80896  41.497  14.361  10.929
12503W        W80897  20.627  36.596  14.037
12504W        W80898   1.867  43.924  14.487
12505W        W80899  13.488  24.417  12.019
12506W        W80900  40.142  16.086   3.454
12507W        W80901  23.445  18.433  12.496
12508W        W80902  31.916  41.073   0.913
12509W        W80903  44.487  23.135  14.819
12510W        W80904   6.286  39.503   2.145
12511W        W80905   9.366   3.931   1.888
12512W        W80906  21.149   3.393   1.721
12513W        W80907  42.943  27.037   2.327
12514W        W80908  42.156  18.275   4.058
12515W        W80909  22.450  24.425   3.741
12516W        W80910  27.639  26.612  10.666
12517W        W80911  31.576   6.093  12.933
12518W        W80912  15.259  38.938   3.792
12519W        W80913  20.531  34.366   1.932
12520W        W80914   2.244  39.062   1.732
12521W        W80915  18.890   0.350   1.750
12522W        W80916   8.160  34.523  13.362
12523W        W80917   1.354  25.234   2.592
12524W        W80918  13.515  21.108  12.573
12525W        W80919   0.841   6.029   3.202
12526W        W80920  39.946   4.445  13.487
12527W        W80921  19.282  19.316   4.363
12528W        W80922  14.198   7.784  11.607
12529W        W80923  38.332  41.407   3.566
12530W        W80924   0.081  35.830   0.367
12531W        W80925  44.051  14.962   1.267
12532W        W80926  15.464  29.026   4.162
12533W        W80927  33.662  20.189   4.358
12534W        W80928  30.438  35.559   4.444
12535W        W80929  13.607  33.596  13.715
12536W        W80930  34.468  11.136   4.410
12537W        W80931  35.399  26.752  14.323
12538W        W80932   0.441  44.617  10.704
12539W        W80933  27.970  43.435   1.172
12540W        W80934  36.646   9.154  11.262
12541W        W80935  38.412  12.213   1.098
12542W        W80936  41.532  22.462   4.732
12543W        W80937  31.065  26.519  13.885
12544W        W80938  10.827   1.095   1.356
12545W        W80939  34.014  35.779  11.096
12546W        W80940  37.095  12.855  12.468
12547W        W80941  13.591  14.122   1.764
12548W        W80942  32.594  16.720   1.018
12549W        W80943  44.241  21.374   2.544
12550W        W80944  29.109  27.339  14.047
12551W        W80945  20.767  22.933  13.954
12552W        W80946  27.667  41.506  11.955
12553W        W80947  11.847   1.347  14.832
12554W        W80948   7.138  17.151   4.610
12555W        W80949  23.587  12.644  13.073
12556W        W80950  33.858  40.942  11.179
12557W        W80951  29.512   7.803  12.887
12558W        W80952  35.430  24.556  10.263
12559W        W80953  12.572  40.991   4.764
12560W        W80954  36.690  17.763  13.810
12561W        W80955  16.833   1.084  13.515
12562W        W80956  41.208  32.959   3.267
12563W        W80957  24.211   1.867  13.115
12564W        W80958   0.790  35.621   3.729
12565W        W80959  19.316  31.566   1.997
12566W        W80960  12.513  23.999  11.324
12567W        W80961  43.949  13.133  14.384
12568W        W80962  39.657  29.485   3.153
12569W        W80963  12.329  37.355   1.216
12570W        W80964  28.399  28.729   0.301
12571W        W80965  38.468  44.398   4.343
12572W        W80966  42.368  20.308  11.008
12573W        W80967  25.560  43.469   1.923
12574W        W80968  37.751   2.708   1.846
12575W        W80969  20.486  23.141  13.570
12576W        W80970  30.403  20.957  13.782
12577W        W80971  31.873   6.854   5.001
12578W        W80972  23.235  26.678   1.351
12579W        W80973  18.586  42.016   2.198
12580W        W80974  26.021  16.323   2.751
12581W        W80975  10.274  32.880  10.559
12582W        W80976  42.952  22.616   4.996
12583W        W80977   9.870  18.208   4.810
12584W        W80978   4.517   5.926  12.572
12585W        W80979  37.047  36.832   3.221
12586W        W80980  14.258  20.558   3.775
12587W        W80981  27.929  44.916  14.708
12588W        W80982  28.465  28.144  13.166
12589W        W80983  11.485   9.455   4.935
12590W        W80984  19.984  39.026   2.254
12591W        W80985   9.280  23.435  10.721
12592W        W80986  10.154  39.059  14.387
12593W        W80987   1.886  27.766  12.910
12594W        W80988  25.164  20.211   3.550
12595W        W80989   4.671  24.954   3.206
12596W        W80990   5.746  17.583   4.701
12597W        W80991  26.964  43.291  13.027
12598W        W80992  16.742   1.368  12.936
12599W        W80993   1.771  14.845   3.189
12600W        W80994  18.431  32.975  13.974
12601W        W80995   2.384  35.999   0.734
12602W        W80996   3.429   3.430  13.460
12603W        W80997  12.087  15.809   2.876
12604W        W80998   7.240  24.295  12.434
12605W        W80999  39.844  24.244   1.794
12606W        W81000  29.479  22.970   0.035
12607W        W81001  26.963  41.859  13.195
12608W        W81002  23.702  24.641  13.994
12609W        W81003   1.913  17.535  10.664
12610W        W81004  39.104  20.039   1.840
12611W        W81005  40.850   5.251   2.641
12612W        W81006  24.697  14.550  11.961
12613W        W81007   0.932  20.992  14.535
12614W        W81008   6.688   0.238   1.330
12615W        W81009  21.493  31.505  12.460
12616W        W81010   0.473   0.736  13.584
12617W        W81011  33.155  26.566  11.920
12618W        W81012  12.102  22.989   5.016
12619W        W81013   9.403  18.210  14.429
12620W        W81014  43.677  15.081   3.951
12621W        W81015  17.671  38.971  11.519
12622W        W81016  15.151  31.983  13.928
12623W        W81017  12.674  31.674  13.063
12624W        W81018  40.305  28.728  11.228
12625W        W81019   1.084  22.831   3.493
12626W        W81020  37.496  23.196  14.530
12627W        W81021  10.169   4.971  10.599
12628W        W81022   4.237  43.036  13.006
12629W        W81023  12.351  10.702  12.297
12630W        W81024  37.277  29.964  11.498
12631W        W81025   1.201  39.531  14.817
12632W        W81026  27.741  28.011   3.092
12633W        W81027   0.040  20.269  11.176
12634W        W81028   4.466  38.019   0.378
12635W        W81029   4.408  24.183  13.182
12636W        W81030  26.949  40.595  11.329
12637W        W81031  22.731   1.880  13.145
12638W        W81032  42.777   2.925  12.106
12639W        W81033  12.552  14.396  11.903
12640W        W81034  19.239  22.498   2.200
12641W        W81035  21.522   5.678  11.536
12642W        W81036   6.838  33.974  14.519
12643W        W81037  39.965  23.444   3.660
12644W        W81038  32.724   7.098   1.431
12645W        W81039   2.345  13.097   4.179
12646W        W81040   4.008   4.191  12.049
12647W        W81041  37.133  22.723  11.528
12648W        W81042   8.156  10.623   1.330
12649W        W81043   7.819   0.358   0.055
12650W        W81044  21.678  33.913   0.744
12651W        W81045  30.070  19.254   2.664
12652W        W81046  29.020  31.127  13.624
12653W        W81047  26.501  10.881  13.475
12654W        W81048  37.991  16.170   0.951
12655W        W81049  17.718   8.934   4.568
12656W        W81050  31.082  15.136   3.564
12657W        W81051  32.564  37.553  12.420
12658W        W81052  17.933  22.800   0.887
12659W        W81053   3.934  33.464   3.258
12660W        W81054   4.266  42.126   3.723
12661W        W81055  24.661  16.853   0.406
12662W        W81056  20.235  15.288   0.354
12663W        W81057   4.386  12.869   3.286
12664W        W81058  41.954  29.354  14.033
12665W        W81059  12.689  10.159  13.294
12666W        W81060  44.009   5.045   1.969
12667W        W81061  13.940  18.763  14.268
12668W        W81062  38.104  28.175  11.385
12669W        W81063  27.204  37.049  14.285
12670W        W81064  14.311  38.087  10.222
12671W        W81065  14.131  24.264   3.633
12672W        W81066   5.150  42.949   1.231
12673W        W81067  35.141   3.952   1.010
12674W        W81068  42.604  38.798  11.594
12675W        W81069  33.817  40.445  14.458
12676W        W81070  14.347  29.530   0.963
12677W        W81071  40.818   4.728   0.384
12678W        W81072   3.642  21.139  13.470
12679W        W81073  32.700  27.770   2.783
12680W        W81074   6.457   9.845   1.294
12681W        W81075  35.096  44.986   2.770
12682W        W81076  11.630  20.013   4.155
12683W        W81077  36.039  19.222  13.936
12684W        W81078  31.159  39.797  10.771
12685W        W81079  12.059   5.916   4.209
12686W        W81080  22.679  41.799   4.155
12687W        W81081   2.277  34.508   1.662
12688W        W81082  31.357  38.799  11.001
12689W        W81083   6.696  24.580  14.313
12690W        W81084   0.023   8.354  11.770
12691W        W81085  19.738  44.685  14.271
12692W        W81086  26.829  23.502   0.969
12693W        W81087  41.601   2.031  13.717
12694W        W81088   3.777  17.130   1.471
12695W        W81089  24.498  15.111  13.795
12696W        W81090   9.841  41.497  14.764
12697W        W81091  41.029   6.326  13.027
12698W        W81092  32.902   6.327  12.899
12699W        W81093   3.843  12.590   9.903
12700W        W81094  28.076  27.036   0.694
12701W        W81095  18.322  15.248  10.682
12702W        W81096  37.503  24.035  10.666
12703W        W81097  33.550  33.630  11.928
12704W        W81098  27.719  43.705   2.770
12705W        W81099  32.212  31.379  11.546
12706W        W81100  29.405   1.521  13.626
12707W        W81101  25.547  27.392   0.754
12708W        W81102   3.399  34.764  10.752
12709W        W81103   7.223   1.940  14.898
12710W        W81104  17.098  40.588  12.957
12711W        W81105  22.952  25.673  10.174
12712W        W81106   7.036   5.071  11.222
12713W        W81107  10.843  21.371   4.116
12714W        W81108  23.679  44.715  12.135
12715W        W81109  32.105  29.310  13.652
12716W        W81110  28.778  18.205   4.608
12717W        W81111  44.035  32.332   1.747
12718W        W81112  37.394  30.173  10.625
12719W        W81113  37.882  19.318  12.395
12720W        W81114   6.681  16.825   2.784
12721W        W81115  39.912   1.416   3.179
12722W        W81116   8.752  40.904  11.413
12723W        W81117  40.315  14.318   1.302
12724W        W81118  34.053  28.552   3.901
12725W        W81119  16.853  22.661   4.280
12726W        W81120  36.274  23.674  11.963
12727W        W81121  16.492  20.668   0.651
12728W        W81122   4.485  21.706   2.759
12729W        W81123  16.530  26.219   4.186
12730W        W81124  33.697  30.363  14.598
12731W        W81125  30.614  28.111   0.848
12732W        W81126  23.003  30.865  12.016
12733W        W81127  36.481   6.313   3.431
12734W        W81128  37.615  23.615  11.536
12735W        W81129  35.957  15.123   4.685
12736W        W81130   4.180  19.257   1.727
12737W        W81131  28.674   8.630   3.454
12738W        W81132   8.713  32.075  10.483
12739W        W81133  28.255  34.368   4.545
12740W        W81134  32.500  18.117   1.298
12741W        W81135  40.646   3.305   0.185
12742W        W81136  38.749  21.661  13.852
12743W        W81137  41.535  42.098  12.845
12744W        W81138  10.820  37.064  14.252
12745W        W81139  27.101  38.571   0.892
12746W        W81140  43.237   5.754   3.078
12747W        W81141  11.243  21.141  13.838
12748W        W81142  19.181  17.179  14.698
12749W        W81143  30.959  25.139   3.985
12750W        W81144  30.662  28.990   2.106
12751W        W81145   5.756  36.961   4.650
12752W        W81146  40.464  30.660   0.345
12753W        W81147  44.564  14.722  11.910
12754W        W81148  10.873  34.589   4.525
12755W        W81149   2.955   3.916  12.832
12756W        W81150   6.813  24.297   3.038
12757W        W81151  16.610  22.340   4.622
12758W        W81152  22.910  38.302   4.228
12759W        W81153  32.000  41.276   3.237
12760W        W81154  26.003   1.190   0.753
12761W        W81155  34.002  40.060   4.606
12762W        W81156  13.111  33.661  11.644
12763W        W81157  25.601  27.076   0.308
12764W        W81158  20.209  30.846   5.262
12765W        W81159  34.468   0.445   2.248
12766W        W81160   4.127   2.202  14.611
12767W        W81161   8.888   1.417  11.146
12768W        W81162   8.639  41.270  12.338
12769W        W81163   0.640  29.064  12.979
12770W        W81164   6.940  36.965   2.712
12771W        W81165  26.656  41.328   4.850
12772W        W81166  36.856   4.818  14.371
12773W        W81167  21.571  40.586  13.042
12774W        W81168  28.517  36.140   2.217
12775W        W81169   5.967  30.227   2.735
12776W        W81170  34.021   4.395  14.774
12777W        W81171  33.697  10.422   4.496
12778W        W81172   5.238  27.787  11.024
12779W        W81173   2.799  10.364  11.132
12780W        W81174  10.757  15.494   4.230
12781W        W81175   4.966  18.600   3.676
12782W        W81176  15.334  44.714  12.824
12783W        W81177  30.792   0.371   4.535
12784W        W81178  28.631  15.311  14.403
12785W        W81179   8.307  10.868   3.381
12786W        W81180  29.923  32.787   0.362
12787W        W81181  28.512   7.882  11.989
12788W        W81182  20.747   6.627  11.728
12789W        W81183  10.168  33.275   0.361
12790W        W81184  43.390  43.421   1.787
12791W        W81185   1.795   4.218   3.693
12792W        W81186   8.767  44.870  10.980
12793W        W81187  26.364  16.293   3.706
12794W        W81188  31.528  33.693  13.173
12795W        W81189  18.347  21.315   0.877
12796W        W81190   9.414  33.850   0.824
12797W        W81191  14.738   7.370  12.590
12798W        W81192  43.578  43.032   3.633
12799W        W81193  22.555  23.996  10.732
12800W        W81194   4.333  12.911  13.078
12801W        W81195  16.720   7.503  12.092
12802W        W81196   3.593  28.091  14.371
12803W        W81197  37.427   9.287   4.022
12804W        W81198  14.976  30.149  11.177
12805W        W81199  19.278  23.724  13.491
12806W        W81200  10.082  30.479   4.555
12807W        W81201  35.901   1.639   0.732
12808W        W81202  25.332   9.024  14.266
12809W        W81203  29.594   3.273  12.994
12810W        W81204  22.511  35.346  12.911
12811W        W81205   3.723  11.740   3.368
12812W        W81206  13.108  41.992   3.645
12813W        W81207   4.016  10.355   1.345
12814W        W81208  16.035   6.841  11.823
12815W        W81209  10.851   3.486   3.393
12816W        W81210   9.193  25.650  11.703
12817W        W81211  11.791  11.266  12.144
12818W        W81212  13.453   9.767   4.815
12819W        W81213  19.054  18.655  12.896
12820W        W81214   7.586  42.744   4.194
12821W        W81215  27.181   9.260  12.164
12822W        W81216  43.076   5.279   4.774
12823W        W81217   0.947  35.651  14.349
12824W        W81218  26.975  27.691   0.983
12825W        W81219  25.059  29.195  14.955
12826W        W81220  19.286  32.151   0.280
12827W        W81221  44.337   8.670   4.613
12828W        W81222  34.363   2.385  11.552
12829W        W81223  32.951  10.309   0.517
12830W        W81224  37.572  43.677   2.340
12831W        W81225  43.858   9.843  11.946
12832W        W81226  24.163  32.416  12.224
12833W        W81227  25.250  38.527  10.645
12834W        W81228  42.518   2.327   4.680
12835W        W81229  29.662  30.470   0.359
12836W        W81230  12.140   5.088   1.301
12837W        W81231  35.021  29.446  12.920
12838W        W81232   4.634  29.972  11.061
12839W        W81233   1.232  43.595   1.710
12840W        W81234  30.674  43.076  12.840
12841W        W81235   2.980   0.767   1.751
12842W        W81236   4.302  35.266   0.706
12843W        W81237  41.267  40.744  11.762
12844W        W81238   2.479  10.314   0.388
12845W        W81239  20.957  14.928  12.552
12846W        W81240   1.076  39.906  11.685
12847W        W81241  33.583  27.407   2.726
12848W        W81242   5.226  25.741   2.335
12849W        W81243  27.537  20.104  13.752
12850W        W81244  28.497   3.439  12.355
12851W        W81245  14.623  16.120   3.800
12852W        W81246  39.068  44.371  12.264
12853W        W81247  39.542  31.407  11.152
12854W        W81248   1.655  31.627   4.309
12855W        W81249  14.039  17.605   1.925
12856W        W81250  11.704   4.016  11.596
12857W        W81251  10.423  30.868   4.621
12858W        W81252   5.711   3.999  10.956
12859W        W81253  44.935  27.649  13.184
12860W        W81254  14.751  40.451   2.230
12861W        W81255  44.711  29.199  12.966
12862W        W81256  20.640  40.170  10.854
12863W        W81257  14.364  15.776   3.126
12864W        W81258  24.991  29.475  12.105
12865W        W81259  30.810   7.142   1.407
12866W        W81260  40.065  16.111   0.347
12867W        W81261  10.259  32.572   4.674
12868W        W81262  43.463  16.191  10.781
12869W        W81263  14.364  26.135   4.334
12870W        W81264  20.447  35.100   2.965
12871W        W81265  40.277  17.396   3.256
12872W        W81266  29.874   8.344   0.603
12873W        W81267  18.076   4.756  14.812
12874W        W81268  11.506  38.685   4.994
12875W        W81269   7.389  39.895  11.103
12876W        W81270  27.720  15.146   1.869
12877W        W81271   6.419   1.259  14.999
12878W        W81272  25.155  39.811   2.271
12879W        W81273  18.840  34.817   2.247
12880W        W81274  30.425  12.335  11.089
12881W        W81275   7.979  31.707  10.181
12882W        W81276  34.673  34.941  13.030
12883W        W81277  42.193  36.096  11.583
12884W        W81278  30.441  11.611   1.168
12885W        W81279  40.868  36.767   9.891
12886W        W81280   7.898  36.639  11.135
12887W        W81281  31.356  18.697   2.646
12888W        W81282  16.931  30.443  12.087
12889W        W81283   6.171  36.880   1.254
12890W        W81284  21.281   0.007   4.333
12891W        W81285   2.956  21.562  14.746
12892W        W81286  18.650  25.471   5.449
12893W        W81287  35.304  34.002  11.607
12894W        W81288  21.484  23.987   4.198
12895W        W81289  18.729   9.085  14.811
12896W        W81290  17.815  15.116   3.466
12897W        W81291  41.309   4.243  12.392
12898W        W81292  14.082   9.676   1.802
12899W        W81293  31.918  19.982  13.909
12900W        W81294  36.641  16.513   0.641
12901W        W81295  28.649  31.669  14.515
12902W        W81296  27.129  33.011   4.510
12903W        W81297  44.842  33.780  13.430
12904W        W81298   4.178  25.994   4.746
12905W        W81299  43.939   9.949   4.791
12906W        W81300  31.096  13.887   2.382
12907W        W81301   6.855  15.089   0.506
12908W        W81302  39.286  15.626  14.405
12909W        W81303   4.215   2.703  10.159
12910W        W81304  26.595  15.971  14.510
12911W        W81305  18.435  31.951   3.762
12912W        W81306  10.731   3.497   4.745
12913W        W81307  10.056  12.609   0.378
12914W        W81308  12.680  18.902  12.280
12915W        W81309  16.503  26.541   3.676
12916W        W81310  35.067  11.239   2.331
12917W        W81311  40.808  33.154   0.799
12918W        W81312  14.651   0.426   2.764
12919W        W81313  34.099  11.066  10.996
12920W        W81314  27.032  25.775  11.869
12921W        W81315  32.024  31.107  12.068
12922W        W81316  11.427  28.072  12.386
12923W        W81317  15.301  16.901  13.510
12924W        W81318  23.453  36.128   2.349
12925W        W81319  29.071  40.794  13.446
12926W        W81320  19.041   5.132  14.472
12927W        W81321  25.966   6.993  10.725
12928W        W81322  40.205  22.752  10.386
12929W        W81323  24.432  40.561  12.792
12930W        W81324   3.779  31.181  14.365
12931W        W81325  18.407   8.257  11.499
12932W        W81326  30.226  24.035  13.314
12933W        W81327  42.240   9.204  14.182
12934W        W81328  19.116  43.816  12.011
12935W        W81329  31.878   0.522  13.502
12936W        W81330  19.605  14.359   1.743
12937W        W81331  10.208  13.331   1.193
12938W        W81332  32.738  19.117  11.202
12939W        W81333  14.121  35.086   1.377
12940W        W81334   7.399  34.455   1.306
12941W        W81335   0.655   8.796  10.474
12942W        W81336  21.027  11.105  14.371
12943W        W81337  39.533  34.421   4.317
12944W        W81338  28.651   8.130   0.563
12945W        W81339  21.048  20.709  11.466
12946W        W81340  33.885  26.010   3.630
12947W        W81341  25.401  10.236   0.531
12948W        W81342  36.318  21.281   3.281
12949W        W81343  25.506  25.659  14.496
12950W        W81344   7.630  35.490  13.077
12951W        W81345  43.310  10.081   0.855
12952W        W81346   4.660  34.701   3.550
12953W        W81347  31.081  24.568  12.428
12954W        W81348  10.084  43.303   1.205
12955W        W81349  37.226  37.292  14.175
12956W        W81350  33.055  22.911   1.391
12957W        W81351  28.179  15.032  12.175
12958W        W81352  25.682  37.021  14.461
12959W        W81353  30.111  11.885  11.567
12960W        W81354   2.249   8.607   4.354
12961W        W81355  40.041   8.377  10.734
12962W        W81356  10.919  39.640  12.170
12963W        W81357  20.800  27.063  11.666
12964W        W81358  41.905  40.926  13.394
12965W        W81359  25.083   6.278  13.346
12966W        W81360  30.509  39.491   0.768
12967W        W81361  38.936  11.259  14.943
12968W        W81362  10.368  38.330  12.503
12969W        W81363   5.375   4.956   0.038
12970W        W81364  39.633  17.576   2.531
12971W        W81365   8.340   7.898   4.161
12972W        W81366  22.233  24.158  12.500
12973W        W81367  28.821   5.444  12.125
12974W        W81368  12.718   1.987   3.875
12975W        W81369  16.702  31.441   2.319
12976W        W81370  28.344  33.024  11.632
12977W        W81371  25.194  10.231   3.697
12978W        W81372  40.049  12.614  11.584
12979W        W81373  14.530   7.877  12.577
12980W        W81374  36.813   9.983  13.972
12981W        W81375  24.546   3.775  14.534
12982W        W81376  25.642  32.806  14.398
12983W        W81377   9.507   0.301  13.661
12984W        W81378  27.231   7.237  13.546
12985W        W81379  22.941  17.391   0.507
12986W        W81380  41.078   9.810  11.599
12987W        W81381  34.627   1.682   4.099
12988W        W81382  22.521  18.978   4.159
12989W        W81383  39.861  19.465   0.855
12990W        W81384  11.872  21.711  12.818
12991W        W81385  19.527  13.527  14.423
12992W        W81386  26.411  39.440   3.532
12993W        W81387   1.324   3.275  10.542
12994W        W81388  28.717   5.263  14.409
12995W        W81389  41.289  20.682  11.856
12996W        W81390  14.574   9.915   5.175
12997W        W81391   1.398  22.439   3.583
12998W        W81392   0.488  34.367  14.544
12999W        W81393  23.042  13.193   2.789
13000W        W81394  15.506  22.014   0.419
13001W        W81395  26.929  31.269  11.199
13002W        W81396  16.097  33.645   2.738
13003W        W81397  21.332  26.431  14.093
13004W        W81398  34.877  13.643  11.007
13005W        W81399  38.009  37.832   0.520
13006W        W81400  30.125  19.043   3.690
13007W        W81401   7.843  36.432  11.599
13008W        W81402  39.449  42.221  12.448
13009W        W81403   8.007   1.925   3.359
13010W        W81404  39.497  27.169   0.528
13011W        W81405  24.414  35.311   3.597
13012W        W81406  14.840  14.369  11.553
13013W        W81407  11.160  33.316   2.170
13014W        W81408  20.264  13.235   2.861
13015W        W81409  37.385  39.890  11.147
13016W        W81410  37.924  41.187  11.136
13017W        W81411  37.909  10.523   0.710
13018W        W81412  36.891  19.563  13.003
13019W        W81413   3.905   0.772  11.958
13020W        W81414  27.125   1.232  12.915
13021W        W81415  37.969  37.969   3.349
13022W        W81416  42.145  41.704   4.125
13023W        W81417  22.792  31.475  14.426
13024W        W81418  39.503  30.370  13.572
13025W        W81419  32.446  41.519   3.117
13026W        W81420  28.511   8.673  14.340
13027W        W81421   2.692  40.644  10.864
13028W        W81422  33.147   0.732   2.319
13029W        W81423  25.064  25.568   1.359
13030W        W81424   1.861  15.807   0.332
13031W        W81425  35.443  28.093  12.937
13032W        W81426   7.024   0.281   4.213
13033W        W81427   1.321  22.387   4.586
13034W        W81428  34.889  41.445   1.188
13035W        W81429  25.588   9.804  11.603
13036W        W81430  37.912  23.570   3.787
13037W        W81431  45.000  42.916  11.074
13038W        W81432  14.277  23.952   3.244
13039W        W81433  29.055   3.993  12.961
13040W        W81434  22.268  38.736  13.320
13041W        W81435   4.672  16.821  11.245
13042W        W81436  39.957  25.929   0.862
13043W        W81437  36.888   1.799   2.146
13044W        W81438   3.245  44.241   1.304
13045W        W81439  42.772  26.143  11.572
13046W        W81440  41.948   1.596  12.768
13047W        W81441  43.780  22.673  14.569
13048W        W81442  31.722  14.697   4.466
13049W        W81443   1.371  36.478   3.697
13050W        W81444   6.480   1.437  12.022
13051W        W81445  20.634  44.443  12.786
13052W        W81446  19.292  44.908  13.428
13053W        W81447  39.620  30.848  13.763
13054W        W81448  36.890  29.647   3.636
13055W        W81449   1.390  26.240   1.405
13056W        W81450  36.291  13.738   2.381
13057W        W81451   7.166  27.376   1.788
13058W        W81452   1.041   0.214   3.682
13059W        W81453  36.244  15.146  12.325
13060W        W81454  40.618   1.451  11.200
13061W        W81455   7.376  38.758   1.478
13062W        W81456  41.375  24.729  12.481
13063W        W81457  34.716  25.525  14.637
13064W        W81458  28.081  31.073   4.293
13065W        W81459  29.023  42.431  14.101
13066W        W81460  14.106  42.722  14.149
13067W        W81461   2.098  41.247  10.644
13068W        W81462  32.526   5.786   0.773
13069W        W81463  32.592  24.634   0.761
13070W        W81464  28.402   5.882   4.618
13071W        W81465  18.211  26.259   3.817
13072W        W81466  21.014  11.530  14.036
13073W        W81467  12.192  22.145  10.650
13074W        W81468  39.046   1.365  11.157
13075W        W81469  31.137  30.124  13.956
13076W        W81470  39.488  27.659  14.599
13077W        W81471   5.342  23.574   2.647
13078W        W81472   4.003  42.751   0.728
13079W        W81473   9.892  19.266  11.610
13080W        W81474  29.945  42.624  12.572
13081W        W81475   4.384   1.233  11.057
13082W        W81476   4.770  42.315   4.265
13083W        W81477  30.476   1.302   1.888
13084W        W81478  33.927  39.931  12.817
13085W        W81479  29.140  33.442  14.043
13086W        W81480   9.168  35.369  12.080
13087W        W81481  44.103   8.398  12.006
13088W        W81482  29.506  41.391  14.427
13089W        W81483  21.818  12.895  12.059
13090W        W81484   8.325   8.297   4.546
13091W        W81485   7.392  31.668  10.717
13092W        W81486  41.769   6.798   1.221
13093W        W81487  36.308  13.290   4.085
13094W        W81488  22.132  29.687  12.124
13095W        W81489   4.659  42.310  12.680
13096W        W81490  34.527  40.310  11.073
13097W        W81491   3.478   2.875   3.568
13098W        W81492   0.037  25.795  11.645
13099W        W81493  35.874   8.857  12.426
13100W        W81494  28.433  25.405   4.164
13101W        W81495  34.895  25.108  13.930
13102W        W81496  18.771   0.850  14.990
13103W        W81497   6.386  33.841  10.565
13104W        W81498  26.157   4.172   1.270
13105W        W81499   4.690  36.206   0.501
13106W        W81500  10.691  30.104   1.682
13107W        W81501  41.809  34.756  12.956
13108W        W81502   9.543  27.950   3.830
13109W        W81503  34.104   2.242   1.489
13110W        W81504  33.440  29.889   4.213
13111W        W81505  18.187   8.449  11.064
13112W        W81506  26.547  25.545  14.210
13113W        W81507  39.914   3.440  13.541
13114W        W81508  39.876  38.562   2.147
13115W        W81509   8.378  18.745  11.076
13116W        W81510   0.144   9.654  14.041
13117W        W81511  35.958  35.826  11.090
13118W        W81512  17.326  13.774   1.963
13119W        W81513  20.190  25.793  10.702
13120W        W81514  12.935   1.746  13.873
13121W        W81515  41.142  19.215  12.796
13122W        W81516  44.835  15.893  13.425
13123W        W81517   2.242  42.394  13.509
13124W        W81518  12.561  10.609  10.687
13125W        W81519  11.317  11.926  13.934
13126W        W81520   7.650  28.168  13.803
13127W        W81521  19.997  44.440  14.659
13128W        W81522   7.457  18.238  13.274
13129W        W81523  41.503  38.394   2.876
13130W        W81524  26.907  11.696  11.954
13131W        W81525  40.535  38.330   3.304
13132W        W81526   9.158  33.975  12.994
13133W        W81527  28.660   1.712   2.370
13134W        W81528   6.201  12.424  13.295
13135W        W81529   2.428  41.303   1.433
13136W        W81530   7.525   5.770   2.349
13137W        W81531  43.039  25.797  12.460
13138W        W81532  15.534  15.449  13.159
13139W        W81533  28.729  26.707  14.610
13140W        W81534  28.678  35.219  11.832
13141W        W81535   3.639  24.594   4.027
13142W        W81536  36.678   3.740  12.855
13143W        W81537   8.939   1.592  12.909
13144W        W81538  39.900  39.830   1.763
13145W        W81539  41.546  27.033  13.531
13146W        W81540   8.563   7.351  11.512
13147W        W81541  23.741  21.860  10.734
13148W        W81542   6.511  32.016   4.014
13149W        W81543   0.964  17.026  14.486
13150W        W81544  23.506  26.921   0.480
13151W        W81545  18.525  16.606  13.007
13152W        W81546  26.020   7.589  13.602
13153W        W81547  24.958  40.830  11.093
13154W        W81548  13.255  17.683   2.316
13155W        W81549   9.749  14.246  11.433
13156W        W81550  36.499   3.245  12.104
13157W        W81551  35.978  44.250   2.243
13158W        W81552   8.221  27.585   4.552
13159W        W81553   8.846   2.353  10.572
13160W        W81554   2.598  40.637   4.111
13161W        W81555   6.681  41.375   0.853
13162W        W81556  43.197  17.017   4.219
13163W        W81557  33.980  28.359  13.953
13164W        W81558  27.309   1.962   2.761
13165W        W81559  38.039  31.022   0.740
13166W        W81560  26.155  28.643  11.679
13167W        W81561  22.109  33.668  12.437
13168W        W81562  26.169   3.170   2.671
13169W        W81563  24.543  42.079   2.341
13170W        W81564  14.388  30.634  14.969
13171W        W81565  17.076   7.523  12.491
13172W        W81566  13.008  36.601   2.675
13173W        W81567   6.022  20.512   3.206
13174W        W81568  34.405  35.055   2.556
13175W        W81569  15.768  13.164  12.566
13176W        W81570   0.641   2.270   4.181
13177W        W81571  32.631  28.050   4.490
13178W        W81572   6.089   9.340  10.633
13179W        W81573   5.303  12.435   1.420
13180W        W81574   0.328  22.673  12.953
13181W        W81575   5.536  21.728  12.120
13182W        W81576  17.801   0.293   1.778
13183W        W81577  17.803   3.575   1.677
13184W        W81578  14.707  36.573   2.165
13185W        W81579  37.804  36.069  10.675
13186W        W81580  32.148   5.396  12.031
13187W        W81581  31.951  20.223  14.407
13188W        W81582  33.017  18.230   1.427
13189W        W81583  19.190  42.171  13.960
13190W        W81584  29.236  10.699   2.850
13191W        W81585  18.250  24.534  12.488
13192W        W81586  40.473  35.009  14.623
13193W        W81587  20.662   4.803  12.120
13194W        W81588  40.075  27.474   1.362
13195W        W81589  15.808  10.125   5.468
13196W        W81590  36.835  13.047  14.855
13197W        W81591  42.308  29.522   4.108
13198W        W81592  21.497  31.350   0.587
13199W        W81593  19.241  28.715  10.307
13200W        W81594  32.665  23.442  12.335
13201W        W81595   7.573  10.990   0.819
13202W        W81596  39.450   9.646   4.008
13203W        W81597  18.704  25.976  14.933
13204W        W81598  14.561  35.288  14.211
13205W        W81599  13.672   1.002  14.708
13206W        W81600  18.092  36.897   4.575
13207W        W81601  18.687  43.204  14.471
13208W        W81602   3.159  14.360  11.244
13209W        W81603  17.412  44.787  14.395
13210W        W81604   3.742  28.164  10.266
13211W        W81605  13.692  30.187   4.698
13212W        W81606   0.857  22.636   1.907
13213W        W81607  37.799  34.022  11.473
13214W        W81608  13.434   7.925   1.350
13215W        W81609  29.614  43.744   4.675
13216W        W81610  29.444  22.036  13.383
13217W        W81611   3.130  36.404  11.154
13218W        W81612  32.747  17.710   4.171
13219W        W81613  38.301   8.681  11.710
13220W        W81614  35.102  18.613  13.102
13221W        W81615  40.134  26.397   0.738
13222W        W81616  31.054  37.803   4.437
13223W        W81617   4.812  43.012   0.381
13224W        W81618  13.208  37.836   4.079
13225W        W81619  43.825   2.688   0.665
13226W        W81620  36.914  26.505  12.749
13227W        W81621   4.745   2.170   2.289
13228W        W81622   5.861  37.099  13.998
13229W        W81623   0.167  32.686   0.432
13230W        W81624  30.319  30.518   4.475
13231W        W81625  44.981  24.223   3.703
13232W        W81626  18.978   8.515  12.893
13233W        W81627   8.817  30.026   2.385
13234W        W81628  26.244  21.287  14.955
13235W        W81629   7.771  28.553   3.808
13236W        W81630  34.009  28.909   1.534
13237W        W81631  13.050  24.613  11.183
13238W        W81632  30.843   1.700   0.741
13239W        W81633  21.737  29.379  11.963
13240W        W81634  12.272   2.223   3.622
13241W        W81635  27.284  34.581   0.027
13242W        W81636  31.799   2.939  10.390
13243W        W81637   7.725  33.942  13.766
13244W        W81638  27.614  30.853   3.632
13245W        W81639   2.016  35.591   1.264
13246W        W81640  35.382  36.578   0.029
13247W        W81641  17.401   5.657   3.682
13248W        W81642  37.820  42.059   3.683
13249W        W81643  14.822  12.209   0.413
13250W        W81644  30.066  12.207  14.391
13251W        W81645  15.354   1.193  12.938
13252W        W81646  43.492  12.745  12.796
13253W        W81647  11.429  26.116  14.838
13254W        W81648  19.044   7.889   2.295
13255W        W81649  29.999   5.986   3.625
13256W        W81650  40.697  29.092   4.776
13257W        W81651  44.726  37.323   0.877
13258W        W81652  12.108  17.549  10.871
13259W        W81653  30.611  12.674   1.289
13260W        W81654   6.319  43.458   2.672
13261W        W81655  44.819  42.000   2.892
13262W        W81656   4.165  32.828  12.049
13263W        W81657   2.930  41.287   2.322
13264W        W81658  26.552  38.834  14.787
13265W        W81659  43.503  21.962  11.118
13266W        W81660   4.583  12.768   5.548
13267W        W81661  17.290  39.477   9.887
13268W        W81662  37.489  20.731   2.583
13269W        W81663   0.356  32.094  11.431
13270W        W81664  34.182  19.063  12.430
13271W        W81665  43.339  26.292  14.847
13272W        W81666   0.844  10.604   2.805
13273W        W81667   9.464  14.975  11.556
13274W        W81668  30.140  15.562  13.488
13275W        W81669  24.208  29.450   0.550
13276W        W81670   5.160  43.359  12.535
13277W        W81671   7.008  22.791   2.291
13278W        W81672  27.394   4.643  14.841
13279W        W81673  19.723   4.194   1.786
13280W        W81674  11.254  28.849  14.078
13281W        W81675  41.548   6.224  13.907
13282W        W81676   1.045  38.364   5.210
13283W        W81677  39.846  28.480   1.381
13284W        W81678  44.762  28.023   3.336
13285W        W81679   8.377  19.824  13.133
13286W        W81680  34.535  13.129   1.424
13287W        W81681  33.405   7.983   1.326
13288W        W81682  39.957  34.157  13.825
13289W        W81683  26.700  21.568  11.180
13290W        W81684  15.279  24.558   2.228
13291W        W81685  36.804  28.534   1.660
13292W        W81686  39.519  36.958  14.043
13293W        W81687  10.890  19.876  14.521
13294W        W81688  44.381   5.675  11.977
13295W        W81689  31.902  31.581  12.898
13296W        W81690  36.001   3.838  13.490
13297W        W81691  23.466   4.844   3.657
13298W        W81692  20.954  36.039   4.097
13299W        W81693  31.686  24.021  12.869
13300W        W81694  17.643  18.525  13.061
13301W        W81695   6.443  38.626  10.400
13302W        W81696  37.930  13.646  11.930
13303W        W81697  44.445   3.709  10.734
13304W        W81698  33.546  14.061   4.745
13305W        W81699  20.709   3.649  14.061
13306W        W81700   1.181  35.001   2.872
13307W        W81701   5.886  14.807   1.376
13308W        W81702  40.490  25.323   3.614
13309W        W81703  28.512  15.736   2.141
13310W        W81704  39.802  32.104  13.278
13311W        W81705  28.041  42.874   4.502
13312W        W81706  33.400  40.465  11.739
13313W        W81707  16.883  41.778  12.262
13314W        W81708  36.869  16.846   1.302
13315W        W81709  18.608  42.180  10.957
13316W        W81710  35.144  27.913  12.543
13317W        W81711  17.047  31.888  13.052
13318W        W81712  34.185  43.556   4.589
13319W        W81713  20.801  13.896   4.085
13320W        W81714  11.376   7.065   2.226
13321W        W81715  36.520  16.644   3.223
13322W        W81716  16.325  29.189   9.752
13323W        W81717  19.268   8.736  14.064
13324W        W81718   3.441  24.621   1.449
13325W        W81719  39.338  43.750  10.699
13326W        W81720   7.372  16.648  14.338
13327W        W81721  30.249   1.199  11.283
13328W        W81722   5.960  27.872  14.352
13329W        W81723  41.561  12.731   3.319
13330W        W81724  24.044  12.723   4.843
13331W        W81725   5.710   4.354  14.106
13332W        W81726  25.579   1.338  10.702
13333W        W81727  21.535  24.563  12.900
13334W        W81728  19.130  38.898   0.207
13335W        W81729  22.086  18.003   2.672
13336W        W81730  32.234  37.723  10.723
13337W        W81731  18.293  28.893   3.643
13338W        W81732  35.770  27.858   3.554
13339W        W81733  24.556   7.418   0.853
13340W        W81734  30.514  38.370   0.295
13341W        W81735  19.057  20.712   2.276
13342W        W81736   1.544  22.141   1.803
13343W        W81737   1.504  35.648  13.437
13344W        W81738  31.477  14.363   2.254
13345W        W81739   8.412   5.810  12.450
13346W        W81740   6.474  33.036  14.384
13347W        W81741  35.622  22.695   1.316
13348W        W81742  28.183  29.971   1.846
13349W        W81743  25.672  41.517   3.285
13350W        W81744  23.497   2.660   1.720
13351W        W81745   1.540  20.140   4.156
13352W        W81746  33.857  20.791   4.012
13353W        W81747  36.595  37.049   3.085
13354W        W81748  20.964  19.701  14.290
13355W        W81749  36.389  18.312  12.926
13356W        W81750  41.679  40.099   4.781
13357W        W81751  25.407  14.251   3.432
13358W        W81752  37.393   0.451   3.210
13359W        W81753  11.480   2.356  14.073
13360W        W81754  28.564  37.351  13.436
13361W        W81755   0.382  29.877  12.026
13362W        W81756  38.865  10.852  11.962
13363W        W81757   8.703  20.232  13.481
13364W        W81758   9.846  15.914  14.429
13365W        W81759   3.818   7.798   0.752
13366W        W81760  13.808  27.920  13.539
13367W        W81761  11.241  32.441  14.239
13368W        W81762  43.487  24.647   2.899
13369W        W81763  21.707  35.799   1.855
13370W        W81764   3.112  39.296   4.076
13371W        W81765  21.653  31.392   0.111
13372W        W81766  44.429   0.143  13.661
13373W        W81767  44.636  10.644  13.231
13374W        W81768  25.164  23.638  11.917
13375W        W81769  39.441  36.198  12.633
13376W        W81770  33.565   6.194   4.279
13377W        W81771  32.531  14.822   3.699
13378W        W81772  32.577  18.116  10.267
13379W        W81773  41.611  40.313  13.299
13380W        W81774  30.063  32.331   0.552
13381W        W81775  25.922  30.162   3.804
13382W        W81776   9.707  34.109   3.599
13383W        W81777  15.771  28.090  14.045
13384W        W81778  10.958  10.803   3.283
13385W        W81779  34.881  40.636   4.532
13386W        W81780  27.071  12.190  11.864
13387W        W81781  17.765  24.232   3.573
13388W        W81782  14.286   4.156  10.727
13389W        W81783  29.415  28.238   2.327
13390W        W81784  17.534  14.666   0.762
13391W        W81785  44.634  27.452   2.238
13392W        W81786  15.157  22.241  10.642
13393W        W81787   2.269  10.863   3.368
13394W        W81788  34.021  31.847  13.865
13395W        W81789   1.480  13.711  13.611
13396W        W81790  29.582  39.917  14.838
13397W        W81791  42.889  41.202   2.344
13398W        W81792  22.011   6.963  13.200
13399W        W81793   4.191  38.654   3.545
13400W        W81794   9.791  43.293  12.641
13401W        W81795  27.934  41.848   1.139
13402W        W81796  12.721  28.654   4.340
13403W        W81797   8.459   9.679  14.616
13404W        W81798  37.445  42.302   4.752
13405W        W81799  19.297  42.141  10.684
13406W        W81800  34.001   0.157  12.555
13407W        W81801  18.276   3.821   2.793
13408W        W81802  44.988  37.119   5.330
13409W        W81803  34.351   8.692  14.432
13410W        W81804  28.389  34.871   4.731
13411W        W81805  33.534  40.322   3.611
13412W        W81806  38.486   6.193   1.359
13413W        W81807  12.065  11.708   4.228
13414W        W81808  30.160  17.151  14.531
13415W        W81809  39.899  42.881   0.958
13416W        W81810  13.398  15.865  13.127
13417W        W81811  28.223  22.992   3.658
13418W        W81812  37.007  18.895   0.791
13419W        W81813  21.984  43.867  11.976
13420W        W81814  34.782  13.606   2.221
13421W        W81815   2.895   4.711  14.379
13422W        W81816  39.950  27.968   1.419
13423W        W81817  10.044  14.666   3.656
13424W        W81818  32.249   0.311  12.057
13425W        W81819  34.943  18.228  14.052
13426W        W81820  24.549  29.168  12.132
13427W        W81821  17.603  36.401  14.466
13428W        W81822  38.282  18.596   1.124
13429W        W81823  39.371   2.371   1.435
13430W        W81824  11.800  40.402   0.860
13431W        W81825   8.509  32.831  14.569
13432W        W81826  26.210   7.463  11.893
13433W        W81827  43.836  20.982   3.327
13434W        W81828   1.843  38.965   3.752
13435W        W81829  38.526   9.734   2.695
13436W        W81830   5.368  10.346  13.028
13437W        W81831   1.034   5.632   0.493
13438W        W81832   2.863  10.135  14.742
13439W        W81833   8.162  42.528   4.821
13440W        W81834  22.757  23.662   3.213
13441W        W81835   1.952  33.356   4.051
13442W        W81836  38.022   1.867   4.796
13443W        W81837  42.015   4.717  12.426
13444W        W81838  43.286  26.019   2.335
13445W        W81839  14.443  37.936  11.536
13446W        W81840   2.756  35.442   0.839
13447W        W81841  37.031  28.665   4.693
13448W        W81842  28.395   1.506   0.459
13449W        W81843  26.588  16.325   0.405
13450W        W81844  24.742  32.044   0.837
13451W        W81845   4.203  43.964   2.350
13452W        W81846  24.227  19.415   2.701
13453W        W81847   0.340  36.411  10.654
13454W        W81848   1.466  37.354   2.911
13455W        W81849   4.430  36.037  14.619
13456W        W81850  30.629   8.442   1.150
13457W        W81851  32.063  14.579  13.160
13458W        W81852  23.570  25.690  12.073
13459W        W81853  23.455  23.452  11.591
13460W        W81854  22.182  38.088   2.858
13461W        W81855  13.173  26.211  13.882
13462W        W81856  28.513  22.514  10.619
13463W        W81857  25.130  26.109  13.456
13464W        W81858  22.546  10.062  14.058
13465W        W81859  20.089   9.223  14.513
13466W        W81860  19.592  16.782   2.349
13467W        W81861   1.926  23.595  12.593
13468W        W81862   1.290  42.287   2.168
13469W        W81863   7.517  33.544  13.493
13470W        W81864  16.155  21.941   2.465
13471W        W81865   1.140  41.807   1.216
13472W        W81866  26.210  44.229   0.416
13473W        W81867  28.415  17.158   2.295
13474W        W81868   7.753  28.859  13.439
13475W        W81869   7.583  21.335   3.697
13476W        W81870  25.612   9.837   0.252
13477W        W81871  11.148  25.583  12.033
13478W        W81872  28.046  24.210   3.288
13479W        W81873   3.820  11.262  11.162
13480W        W81874   0.759  19.130  13.337
13481W        W81875  18.337  27.972  13.990
13482W        W81876   8.831   7.267  12.078
13483W        W81877  18.308  31.480   1.793
13484W        W81878  26.953  19.674  12.506
13485W        W81879   9.905  24.045  11.856
13486W        W81880   0.284  26.437  13.443
13487W        W81881  12.181  13.067   2.860
13488W        W81882  24.622  20.702   1.450
13489W        W81883  42.729  18.045   3.093
13490W        W81884  35.928   6.330   4.558
13491W        W81885  11.158   3.674   2.302
13492W        W81886  36.241  15.076   2.570
13493W        W81887  32.565  27.154  10.783
13494W        W81888  42.461  13.306  10.745
13495W        W81889  21.024  27.271   2.789
13496W        W81890  37.896  22.995   0.721
13497W        W81891  21.532  38.376   1.781
13498W        W81892   3.373  41.433   1.386
13499W        W81893  11.746   3.988  13.459
13500W        W81894  39.304   6.299   2.549
13501W        W81895   1.881  15.788  12.545
13502W        W81896   8.278  23.179   3.331
13503W        W81897  20.157  36.133   4.023
13504W        W81898  27.607  22.198  13.892
13505W        W81899  20.516  17.209   3.387
13506W        W81900  43.851   3.476   1.202
13507W        W81901   5.144  43.928  12.089
13508W        W81902  27.197  43.734  12.867
13509W        W81903  23.986   4.452   1.480
13510W        W81904  36.428  23.541   3.160
13511W        W81905   9.755  34.693  14.246
13512W        W81906  38.030  12.841   5.092
13513W        W81907  42.973  14.171   2.207
13514W        W81908  43.270  14.583   2.303
13515W        W81909   8.316  42.265  10.739
13516W        W81910   4.237  10.895  10.517
13517W        W81911   0.925  32.179  12.055
13518W        W81912   8.771  10.166   2.611
13519W        W81913  35.927  29.981  14.893
13520W        W81914  44.353  12.363   3.812
13521W        W81915  15.788  19.689  11.506
13522W        W81916  37.049   1.990  11.667
13523W        W81917  11.363  11.390  10.397
13524W        W81918   9.604  31.459  14.445
13525W        W81919  21.626  26.954   3.312
13526W        W81920  28.028  28.188   2.192
13527W        W81921  41.919  39.735   0.246
13528W        W81922  43.402  38.614  13.623
13529W        W81923   2.195  38.520   3.836
13530W        W81924  41.801   0.950   0.745
13531W        W81925   2.191  44.606   4.168
13532W        W81926   5.020  40.161  14.835
13533W        W81927  20.538   2.386  12.395
13534W        W81928  36.957  36.967   1.821
13535W        W81929  41.485  33.876   3.636
13536W        W81930   7.835  44.808  11.424
13537W        W81931  16.542  12.222  12.904
13538W        W81932  22.479   9.419   2.823
13539W        W81933  44.798  31.695  10.456
13540W        W81934  38.969   8.090  11.715
13541W        W81935   5.395   1.542  13.488
13542W        W81936  14.737  36.974  12.286
13543W        W81937  11.691  36.656  12.477
13544W        W81938  15.732  12.328   1.450
13545W        W81939  27.190  29.220   4.851
13546W        W81940   2.113   8.770  12.108
13547W        W81941  43.422  13.549   2.205
13548W        W81942  18.762   4.392  14.820
13549W        W81943  16.532  25.651   3.691
13550W        W81944   3.445  38.436  11.717
13551W        W81945  29.128   0.942   2.750
13552W        W81946  19.802  42.843   3.120
13553W        W81947  43.380  26.849  13.917
13554W        W81948  27.259  13.650  14.891
13555W        W81949  27.644   9.359  11.961
13556W        W81950  16.297  32.001   0.220
13557W        W81951  43.224  12.912  13.243
13558W        W81952   4.901  24.310  13.416
13559W        W81953  22.025  19.340   2.537
13560W        W81954   4.498  11.289   1.325
13561W        W81955  31.985   9.760   4.522
13562W        W81956  19.291  14.347   4.713
13563W        W81957   3.884   9.341   4.606
13564W        W81958  43.294   1.082  13.770
13565W        W81959  18.220  25.989   3.317
13566W        W81960  19.785   9.259   1.900
13567W        W81961   0.563  31.979  13.002
13568W        W81962  40.556   4.018   3.804
13569W        W81963  23.185  15.743  10.777
13570W        W81964   4.226  33.014   3.298
13571W        W81965  40.802  39.722   3.322
13572W        W81966  37.891  35.296  11.128
13573W        W81967  30.656   8.908  13.865
13574W        W81968   0.867   4.393  13.813
13575W        W81969   6.841  22.451  11.916
13576W        W81970  21.154  28.194   3.210
13577W        W81971   4.619   4.439   2.678
13578W        W81972   6.852   1.081  13.565
13579W        W81973  21.190   8.306  10.403
13580W        W81974  44.270  25.596   3.589
13581W        W81975  11.069   8.815   1.928
13582W        W81976  15.774   9.023   3.650
13583W        W81977  44.733  23.689  12.562
13584W        W81978  11.123  18.039   0.207
13585W        W81979  34.536   6.476   3.360
13586W        W81980   6.441   8.353  11.736
13587W        W81981  13.857  26.796  14.996
13588W        W81982  30.091  32.815   3.661
13589W        W81983  37.777  39.215   4.157
13590W        W81984  42.845  20.046   3.102
13591W        W81985  13.964  12.054   0.832
13592W        W81986  19.498   7.836  13.301
13593W        W81987  42.217  37.397   0.318
13594W        W81988  21.513  27.984   2.253
13595W        W81989  10.146  13.111  10.961
13596W        W81990  20.094  18.727   5.085
13597W        W81991  42.980  42.409  12.151
13598W        W81992  30.303  10.380  11.776
13599W        W81993  22.953   9.264   2.682
13600W        W81994   1.011  26.198  14.281
13601W        W81995   4.849   7.789   2.144
13602W        W81996  22.705   8.314  10.316
13603W        W81997   9.278  29.392  13.834
13604W        W81998  30.113  11.856   1.476
13605W        W81999   5.769  43.943   4.255
13606W        W82000  13.325  39.488   1.770
13607W        W82001  14.603  39.836  14.929
13608W        W82002  41.714  16.965   3.281
13609W        W82003  41.372  26.957   2.827
13610W        W82004  36.451  42.964   1.878
13611W        W82005  17.006   2.094   4.110
13612W        W82006  35.126  27.656   1.257
13613W        W82007  13.916  43.972  14.070
13614W        W82008   6.456   5.361   4.123
13615W        W82009  17.458  32.938  12.406
13616W        W82010  23.586  43.942   1.357
13617W        W82011   1.286  41.682  12.401
13618W        W82012  33.821  30.426   4.667
13619W        W82013   2.466  37.780   3.192
13620W        W82014  15.055   6.416   2.423
13621W        W82015   6.404  40.821  12.439
13622W        W82016  23.357   8.291   1.352
13623W        W82017   0.379  43.974   4.108
13624W        W82018  10.493  38.701  11.357
13625W        W82019  44.795  10.037   3.622
13626W        W82020   9.895  41.070   2.321
13627W        W82021  25.472  23.255  10.743
13628W        W82022  12.132   7.903  14.861
13629W        W82023   3.442  27.760   4.984
13630W        W82024  30.139  41.495  12.870
13631W        W82025  25.500  27.997   0.297
13632W        W82026   2.193  21.093   4.435
13633W        W82027   1.014  10.347   4.190
13634W        W82028   3.188  15.336  12.917
13635W        W82029  13.360  14.533  11.562
13636W        W82030  34.463  36.438  11.524
13637W        W82031   3.423   0.473   2.715
13638W        W82032  34.986   1.254   0.486
13639W        W82033   4.841  11.673   1.311
13640W        W82034  14.742  23.410  13.351
13641W        W82035  15.661   0.875  10.538
13642W        W82036  44.695  14.862   3.834
13643W        W82037  43.845  35.870  10.894
13644W        W82038  11.873  18.919   1.383
13645W        W82039  42.914   2.992  12.611
13646W        W82040  19.338  38.556  13.386
13647W        W82041  41.290  11.430   3.171
13648W        W82042  34.459  14.855   2.647
13649W        W82043   1.389  12.022   2.872
13650W        W82044  37.164  26.949   4.611
13651W        W82045  33.507  44.942  11.681
13652W        W82046   4.771  13.621  13.255
13653W        W82047  28.219  37.888   1.764
13654W        W82048  35.926   7.364   4.613
13655W        W82049  42.992   8.089   4.545
13656W        W82050  22.976  32.435  14.540
13657W        W82051   5.422  35.017   0.015
13658W        W82052  23.795   0.988  11.393
13659W        W82053  18.946  19.494   5.232
13660W        W82054  29.010   0.215   0.768
13661W        W82055  32.042  36.897  14.879
13662W        W82056   0.138  15.878  12.446
13663W        W82057  22.749  14.243   1.381
13664W        W82058  37.658   8.413  11.022
13665W        W82059  35.769  39.912   1.123
13666W        W82060  11.811   8.385  12.860
13667W        W82061  36.514  38.834  14.889
13668W        W82062  37.642  41.756   2.830
13669W        W82063  24.525  31.642   2.222
13670W        W82064  19.088  44.979  12.470
13671W        W82065  32.118  17.475   0.457
13672W        W82066  21.258  35.486   1.303
13673W        W82067  35.543  41.428   0.135
13674W        W82068   9.640  44.938  13.338
13675W        W82069  40.078  20.831  12.606
13676W        W82070  32.840  18.776  10.681
13677W        W82071   6.727  25.467  13.302
13678W        W82072  37.868  11.254   2.639
13679W        W82073   5.267  20.499  12.496
13680W        W82074  41.061   7.123   2.620
13681W        W82075   8.396  20.326  13.070
13682W        W82076  22.914  21.634  11.182
13683W        W82077   8.752  28.575   3.734
13684W        W82078  27.422  11.081   5.500
13685W        W82079  16.852   7.966   0.262
13686W        W82080  32.960  17.043   3.516
13687W        W82081  24.867  19.732   0.714
13688W        W82082  14.580  35.517   2.929
13689W        W82083  15.762  35.060  14.420
13690W        W82084  43.067  14.004  13.633
13691W        W82085   9.115  33.952   1.259
13692W        W82086   6.826  30.799   3.342
13693W        W82087  39.566  11.179  13.952
13694W        W82088  35.593  19.674  12.220
13695W        W82089   8.774  21.175  12.594
13696W        W82090  44.067  27.129  13.544
13697W        W82091  44.511  41.114   0.931
13698W        W82092   1.279   1.293   0.771
13699W        W82093  33.101  35.526   4.200
13700W        W82094  19.293  12.146   1.207
13701W        W82095  14.451  31.370   0.035
13702W        W82096   5.671  25.749   0.861
13703W        W82097  10.792   2.123   1.806
13704W        W82098  18.155  42.293  10.662
13705W        W82099  24.163  34.875  11.008
13706W        W82100  26.180   9.827   2.098
13707W        W82101  31.716   4.618   5.313
13708W        W82102   0.960  39.239   0.460
13709W        W82103  28.529   4.971   0.936
13710W        W82104  22.298  14.780   3.649
13711W        W82105  18.843  38.057   1.451
13712W        W82106  17.746   4.856  14.449
13713W        W82107   3.908  24.080   0.287
13714W        W82108  14.200   2.449  11.397
13715W        W82109  32.885  43.347   3.180
13716W        W82110  30.026  21.219  14.468
13717W        W82111   8.782  21.664  13.827
13718W        W82112  20.719  15.373   2.844
13719W        W82113   1.797  39.070   1.429
13720W        W82114   0.724   5.717   0.913
13721W        W82115  10.188   9.239  10.705
13722W        W82116  35.175  34.467  10.766
13723W        W82117  18.645   9.333   3.388
13724W        W82118  19.686   7.316  11.047
13725W        W82119  31.695  24.666  13.821
13726W        W82120  36.221  29.490  11.294
13727W        W82121  34.086  21.816   3.261
13728W        W82122  27.964  15.111   3.205
13729W        W82123  12.222   5.645  14.404
13730W        W82124  39.556  21.980  11.161
13731W        W82125   4.211  12.194  11.195
13732W        W82126  25.191  26.121  14.530
13733W        W82127  33.050  34.688   4.505
13734W        W82128  27.634  11.868  12.362
13735W        W82129   8.742  41.884   1.452
13736W        W82130   7.455  32.186   1.208
13737W        W82131  25.432   8.218  10.647
13738W        W82132   6.587  19.199  12.163
13739W        W82133  36.149  23.226  14.290
13740W        W82134  41.722  35.857  10.735
13741W        W82135  35.856  44.460  12.470
13742W        W82136   7.763  44.859  13.878
13743W        W82137  32.859  36.498   0.665
13744W        W82138  37.835   1.395  11.150
13745W        W82139  31.627  17.395   4.667
13746W        W82140  25.013  17.207   4.701
13747W        W82141  13.545  39.418  12.838
13748W        W82142   1.438  20.234   2.316
13749W        W82143  38.583  33.305   4.612
13750W        W82144  35.827  30.695   3.932
13751W        W82145  15.736  44.880  13.822
13752W        W82146  42.448  43.051   5.042
13753W        W82147  41.478  20.784   3.106
13754W        W82148  28.018  32.384  13.164
13755W        W82149  28.372  44.896   2.898
13756W        W82150  23.986   8.061  11.933
13757W        W82151   2.864  20.376   4.031
13758W        W82152  20.909  38.504   3.997
13759W        W82153  33.286   3.411  11.638
13760W        W82154  24.678  20.697  13.747
13761W        W82155  21.226  26.052  10.406
13762W        W82156  25.107   9.678   4.992
13763W        W82157   1.753  16.887  13.507
13764W        W82158  20.130  19.161  14.078
13765W        W82159   5.735  30.700   3.627
13766W        W82160   4.664  40.592  14.843
13767W        W82161   4.989  23.753  14.885
13768W        W82162   6.195  28.895  10.376
13769W        W82163   0.279  39.248  11.698
13770W        W82164  40.873  10.820   0.397
13771W        W82165   4.738  22.168   0.652
13772W        W82166  44.036  23.046   0.395
13773W        W82167  44.463  29.499   0.914
13774W        W82168  37.536  10.894   2.425
13775W        W82169   6.830  27.052  14.492
13776W        W82170  36.379  29.496  14.435
13777W        W82171   5.963  39.973   3.371
13778W        W82172  31.970  30.677  11.001
13779W        W82173  33.700  21.957  11.893
13780W        W82174  31.116   3.357  11.190
13781W        W82175  20.653  37.990  13.355
13782W        W82176  41.908   6.520   1.773
13783W        W82177  31.128   0.180  14.542
13784W        W82178   4.837   7.780  12.722
13785W        W82179  24.142   9.073   4.305
13786W        W82180  39.483  32.122  14.479
13787W        W82181  11.833   8.347  13.894
13788W        W82182  14.160  25.749  11.130
13789W        W82183  19.999   7.897  13.381
13790W        W82184   2.949  40.104  13.867
13791W        W82185   9.204  37.999   1.444
13792W        W82186   2.038  10.147   3.507
13793W        W82187  29.001  15.544   1.318
13794W        W82188  19.658  22.270  14.798
13795W        W82189   2.873  32.048   0.274
13796W        W82190  17.037  15.608  14.188
13797W        W82191  14.717   3.889  12.388
13798W        W82192  32.331   2.827   2.960
13799W        W82193  37.037   9.813   1.786
13800W        W82194  18.160   7.624  12.063
13801W        W82195  35.974  29.094  14.603
13802W        W82196  31.642  18.718   0.198
13803W        W82197  14.133   5.241   0.483
13804W        W82198  16.258  41.920   1.310
13805W        W82199  36.773  23.485   2.722
13806W        W82200  34.631  21.771   1.309
13807W        W82201  35.652  31.189   0.268
13808W        W82202   6.616  24.057   0.375
13809W        W82203  12.139  22.745  13.943
13810W        W82204  34.575  35.676   0.755
13811W        W82205  21.074   3.950  13.812
13812W        W82206  26.352   4.176   4.117
13813W        W82207  36.804  34.920  11.122
13814W        W82208  21.033  16.988  12.419
13815W        W82209  21.506  36.292  14.784
13816W        W82210  41.542  33.937  14.312
13817W        W82211  36.896   5.999   2.627
13818W        W82212  42.853  32.678  11.930
13819W        W82213  41.538  11.234  13.439
13820W        W82214  13.617  14.079  14.294
13821W        W82215  26.513  39.859   1.752
13822W        W82216   0.822  15.365  10.252
13823W        W82217  25.564  26.168  13.735
13824W        W82218  39.466  36.565   4.624
13825W        W82219  15.276  29.720  10.405
13826W        W82220  16.265  15.584  13.841
13827W        W82221  39.911   7.347   0.940
13828W        W82222  21.148  15.317  11.584
13829W        W82223   0.951  23.213   0.476
13830W        W82224  18.832  30.057   1.149
13831W        W82225  20.560   2.982   2.227
13832W        W82226  24.234  20.737   2.461
13833W        W82227  33.460  34.081   2.756
13834W        W82228  37.136  11.985   0.857
13835W        W82229   3.177  42.994   0.409
13836W        W82230  15.575  31.993   3.757
13837W        W82231  28.386  41.744  11.540
13838W        W82232   3.829  23.114   1.813
13839W        W82233  21.925  35.162  12.135
13840W        W82234   5.796  20.340  13.328
13841W        W82235  11.730  32.414  13.650
13842W        W82236   7.313  14.498  10.971
13843W        W82237  31.386  32.103  12.496
13844W        W82238  19.515  40.843  13.486
13845W        W82239  39.131  43.034  13.861
13846W        W82240  43.415  30.704   1.928
13847W        W82241   5.987  40.571  12.626
13848W        W82242   2.303  32.236   1.312
13849W        W82243  24.441  41.529   0.218
13850W        W82244  28.442  12.528   3.715
13851W        W82245  36.038  42.957   1.552
13852W        W82246  27.002  40.225  10.962
13853W        W82247  34.449  44.399   2.463
13854W        W82248  16.718   6.793   2.459
13855W        W82249  32.486  28.569  13.450
13856W        W82250   8.324  17.704  12.844
13857W        W82251   5.234  23.789   0.348
13858W        W82252  32.963   9.345  11.709
13859W        W82253  37.340  27.947  11.159
13860W        W82254  23.424  14.645   0.964
13861W        W82255  20.736   7.152  14.283
13862W        W82256  36.899   0.745  14.384
13863W        W82257  17.363  35.975   0.526
13864W        W82258  40.104   6.447   2.125
13865W        W82259   2.004  34.991   4.531
13866W        W82260  29.470   5.185  14.932
13867W        W82261  37.987  25.710  11.084
13868W        W82262  33.412  17.379   2.262
13869W        W82263  28.503   0.345  10.334
13870W        W82264  38.980  40.839  13.028
13871W        W82265  42.006   4.739  11.385
13872W        W82266  14.511  12.461  12.856
13873W        W82267   0.343  26.457  11.366
13874W        W82268  33.664  19.248  13.406
13875W        W82269   4.167  25.961   1.827
13876W        W82270  32.069  32.042   1.374
13877W        W82271  32.434  17.134   2.798
13878W        W82272  25.139  35.503  12.417
13879W        W82273  35.947  34.252  13.801
13880W        W82274  12.899  34.348  13.941
13881W        W82275  35.770   3.324  13.878
13882W        W82276  15.097   7.093   1.870
13883W        W82277   1.960   2.752  14.504
13884W        W82278  29.623  29.479   1.139
13885W        W82279  29.129   0.735   9.892
13886W        W82280  10.866   0.806   3.184
13887W        W82281  25.938  18.296   2.790
13888W        W82282   8.265  21.061  13.371
13889W        W82283  11.929  42.036  10.730
13890W        W82284  13.711  17.562   2.774
13891W        W82285  15.655   8.234   3.637
13892W        W82286  14.229  38.555  12.896
13893W        W82287  40.829  20.708  14.435
13894W        W82288  20.532  32.874  11.537
13895W        W82289   8.869  21.282   3.193
13896W        W82290  35.514  44.788  13.227
13897W        W82291  20.774   4.322   3.760
13898W        W82292   9.946  42.701   1.227
13899W        W82293  38.057   6.257  11.578
13900W        W82294  11.643  13.378  12.941
13901W        W82295  22.651  30.662  13.940
13902W        W82296  23.433  15.220   3.650
13903W        W82297  14.556  17.995  14.290
13904W        W82298  15.059  17.606   4.920
13905W        W82299  24.050   1.850  10.415
13906W        W82300  39.282  11.186   1.189
13907W        W82301  38.122  29.490  11.589
13908W        W82302  16.535  35.378   1.500
13909W        W82303   4.996  21.781   4.494
13910W        W82304  39.579  34.334  11.548
13911W        W82305  16.389  16.831   0.435
13912W        W82306  32.102  37.987   2.699
13913W        W82307  38.713  22.222  14.691
13914W        W82308  42.469  26.768   3.743
13915W        W82309  36.560  17.605   2.948
13916W        W82310   8.680  13.046  10.921
13917W        W82311   0.327  10.969  11.112
13918W        W82312  31.824  41.320  13.304
13919W        W82313  32.610  43.252   1.287
13920W        W82314  33.937  29.242  11.449
13921W        W82315  21.328  21.252  14.927
13922W        W82316   3.414  14.288   0.263
13923W        W82317   7.874   5.370  10.358
13924W        W82318   9.889  22.750  11.903
13925W        W82319  20.106  24.166  14.328
13926W        W82320  10.102  18.583   5.147
13927W        W82321  19.003  23.601   3.212
13928W        W82322  11.175  39.783   1.477
13929W        W82323  34.597  10.349   1.815
13930W        W82324  23.279  14.029  12.092
13931W        W82325   8.683   8.813   3.283
13932W        W82326  11.894  34.761  11.173
13933W        W82327  43.165   5.044   2.588
13934W        W82328  16.116   0.163   0.465
13935W        W82329  11.700  32.681  14.996
13936W        W82330  31.031  22.488   2.372
13937W        W82331   5.502   9.296  14.398
13938W        W82332  28.009  41.471   0.396
13939W        W82333  14.789  40.709  12.555
13940W        W82334  30.147  27.906   2.805
13941W        W82335   6.788   9.812  12.907
13942W        W82336  25.364  13.156   1.657
13943W        W82337  30.782   2.569   0.257
13944W        W82338  38.347   7.377   3.803
13945W        W82339  27.058  22.152   1.976
13946W        W82340  40.705   1.099   1.191
13947W        W82341   3.689   5.231  11.616
13948W        W82342  38.253  10.102  14.925
13949W        W82343  30.989  44.027  12.000
13950W        W82344   3.340  33.154   0.705
13951W        W82345  42.456  28.611  11.200
13952W        W82346  26.785  13.391  11.586
13953W        W82347   6.381  18.311   0.840
13954W        W82348  16.506  25.782  11.217
13955W        W82349  34.487  40.669  13.309
13956W        W82350  26.356  12.985  12.419
13957W        W82351  43.341  39.963   4.574
13958W        W82352  32.487  25.677  13.468
13959W        W82353   6.250  12.575  11.154
13960W        W82354  27.955  16.643  12.998
13961W        W82355  42.357   4.727   0.701
13962W        W82356  17.521  19.282  12.514
13963W        W82357  44.943   7.616   3.115
13964W        W82358  18.244   7.669   4.112
13965W        W82359   1.347  10.178   3.824
13966W        W82360  34.900  33.963   3.750
13967W        W82361  11.659  28.970  13.758
13968W        W82362  14.260  12.609   0.425
13969W        W82363  27.473  12.839   1.490
13970W        W82364  44.100  31.901  10.743
13971W        W82365  25.185   1.445   0.013
13972W        W82366  31.434  31.312   3.841
13973W        W82367  41.340  33.918  13.289
13974W        W82368  30.102  39.880  12.453
13975W        W82369  29.466  30.928  11.482
13976W        W82370   2.428  11.374  11.455
13977W        W82371  15.787  17.156  13.601
13978W        W82372   1.407   4.787   3.231
13979W        W82373  14.845  19.202   0.933
13980W        W82374  43.027  38.944   0.545
13981W        W82375  31.520  11.624   2.150
13982W        W82376  33.313  40.932  12.966
13983W        W82377  16.640  20.624   1.177
13984W        W82378  43.920  18.004   1.846
13985W        W82379  10.229  40.470  13.571
13986W        W82380  24.608   4.883   1.935
13987W        W82381  19.666  37.434   0.351
13988W        W82382  29.015  22.593  10.505
13989W        W82383  34.045   1.437  12.820
13990W        W82384  18.801  32.356   3.584
13991W        W82385  23.869   1.039  12.102
13992W        W82386  20.259  39.567  13.755
13993W        W82387  39.292  30.150   2.718
13994W        W82388  20.212   3.328  11.460
13995W        W82389  20.532   2.779   4.113
13996W        W82390  26.540   5.938   3.299
13997W        W82391   7.219  39.757   0.461
13998W        W82392  33.905   4.401  12.329
13999W        W82393  21.878  10.371   9.858
14000W        W82394  15.350  34.436   3.169
14001W        W82395   3.750   6.263  13.072
14002W        W82396   7.680   4.137   0.259
14003W        W82397  21.266  43.801   4.688
14004W        W82398  22.547  38.297  14.074
14005W        W82399   6.260  31.835  13.259
14006W        W82400  42.197  26.530  11.104
14007W        W82401  14.537   6.394  14.122
14008W        W82402  14.249  39.777   0.408
14009W        W82403  23.003  30.113   3.389
14010W        W82404  18.773  30.248  10.410
14011W        W82405  18.622  10.560   4.553
14012W        W82406  36.654  26.571  13.513
14013W        W82407   7.660   5.870  11.072
14014W        W82408  12.665  30.125  11.814
14015W        W82409   8.942  17.287  13.818
14016W        W82410  10.079   9.766   2.207
14017W        W82411   0.883  41.889  14.237
14018W        W82412  19.809  27.004   3.548
14019W        W82413   3.386  13.878  13.011
14020W        W82414  41.600  24.998   0.669
14021W        W82415  25.950  28.008  10.720
14022W        W82416  24.132  19.048   4.508
14023W        W82417  27.942  38.873   1.902
14024W        W82418   6.782  34.851  13.013
14025W        W82419   3.937  37.475   0.816
14026W        W82420  29.489  38.540   3.301
14027W        W82421  33.647   5.618   3.139
14028W        W82422  34.112  44.918  14.520
14029W        W82423  33.950  13.430   4.222
14030W        W82424  40.054  14.186  13.865
14031W        W82425  33.004  25.390   3.890
14032W        W82426  43.935  42.805  14.088
14033W        W82427  31.912  37.587   0.774
14034W        W82428  23.673  43.998  14.100
14035W        W82429  42.352   4.782  13.687
14036W        W82430  39.141  23.883  14.609
14037W        W82431  41.062  26.919   2.428
14038W        W82432   9.245   0.968   0.948
14039W        W82433  20.686  23.644   2.170
14040W        W82434   0.799  26.495  11.606
14041W        W82435  25.343  29.891  12.218
14042W        W82436  24.526  18.629   0.435
14043W        W82437  11.931  11.305  12.984
14044W        W82438  17.325   9.869   2.669
14045W        W82439  16.742  33.696  11.549
14046W        W82440  27.639  36.432   0.833
14047W        W82441  31.387  26.135  14.688
14048W        W82442  36.623   9.120   4.601
14049W        W82443   6.697  32.153   1.890
14050W        W82444  36.866  36.440  12.620
14051W        W82445  38.122  42.054  10.767
14052W        W82446  24.603  16.158  13.018
14053W        W82447  32.585   8.145  10.742
14054W        W82448   9.240  25.214   0.472
14055W        W82449  11.956  24.291  12.497
14056W        W82450  29.191  34.509  13.393
14057W        W82451  20.588  31.011   0.234
14058W        W82452  22.042  34.046   4.600
14059W        W82453  38.889  11.907   4.223
14060W        W82454  36.582  38.358  11.878
14061W        W82455  27.463  33.602   2.941
14062W        W82456   0.473  19.134  12.061
14063W        W82457  29.637  19.208  13.338
14064W        W82458   9.585  26.020   1.202
14065W        W82459  13.054  35.421  14.764
14066W        W82460   4.400   8.472   0.850
14067W        W82461   2.832  22.022  11.945
14068W        W82462  31.148  28.513   2.203
14069W        W82463  23.212   5.321   2.607
14070W        W82464  39.932  43.969  10.723
14071W        W82465  19.364   4.014  11.415
14072W        W82466  42.729  33.063  11.129
14073W        W82467  16.501  26.133  13.488
14074W        W82468   1.357  41.998   3.607
14075W        W82469  22.652  31.925  11.528
14076W        W82470   1.559  41.369   4.285
14077W        W82471  37.919  30.071   3.886
14078W        W82472   6.143  41.374  10.234
14079W        W82473  34.535  18.008  13.204
14080W        W82474  42.526  23.685   3.654
14081W        W82475  12.597   8.203  14.935
14082W        W82476  19.741  12.850  13.050
14083W        W82477  34.410  26.413  14.418
14084W        W82478  40.057  10.579   4.311
14085W        W82479   2.354  33.949  14.531
14086W        W82480  35.488   4.338   1.029
14087W        W82481  24.069  29.370  11.970
14088W        W82482  12.232   6.465   2.080
14089W        W82483  14.946  39.316   2.783
14090W        W82484  37.090  33.171  12.490
14091W        W82485   3.189  31.940   1.359
14092W        W82486  29.566   3.906  13.691
14093W        W82487  42.962   6.256   4.630
14094W        W82488  19.202  13.834   4.599
14095W        W82489   5.697  18.584  13.102
14096W        W82490  39.756  20.496   4.767
14097W        W82491  20.268  11.453   3.663
14098W        W82492  40.859  21.489   3.366
14099W        W82493  15.308  17.629   1.371
14100W        W82494  17.396  14.800  14.209
14101W        W82495  29.044  26.937  11.144
14102W        W82496  13.055  10.655  11.584
14103W        W82497  24.911  11.227  11.276
14104W        W82498   8.930  36.787   4.057
14105W        W82499  24.509  41.996  13.501
14106W        W82500  24.044  29.009   1.960
14107W        W82501  28.222  12.667  11.883
14108W        W82502   4.844   3.362  14.734
14109W        W82503   2.412  17.273   1.364
14110W        W82504  39.117   8.471   3.639
14111W        W82505   3.228  24.083  10.953
14112W        W82506   9.279  39.015  13.415
14113W        W82507  14.004  35.364  13.482
14114W        W82508  42.512  37.322  14.345
14115W        W82509  22.981  12.410  14.316
14116W        W82510  42.882  34.912   2.787
14117W        W82511   5.817  15.775  11.334
14118W        W82512  40.428  43.273  14.216
14119W        W82513  30.120  36.464   2.957
14120W        W82514   9.763  42.005  14.605
14121W        W82515   0.200  20.517  14.850
14122W        W82516  31.474  26.532  13.561
14123W        W82517  34.318  15.695  10.573
14124W        W82518  42.835  26.078   0.365
14125W        W82519  26.828  27.071  12.690
14126W        W82520  26.660  12.555  13.943
14127W        W82521  28.832  30.725  14.933
14128W        W82522   1.976   8.000  12.887
14129W        W82523  28.391  10.194   1.427
14130W        W82524  36.408  44.384  10.612
14131W        W82525   3.397  34.965   0.267
14132W        W82526  22.824  11.741  10.643
14133W        W82527   5.356  27.105  11.175
14134W        W82528  20.952  38.570   5.066
14135W        W82529  35.955  13.111  13.070
14136W        W82530  30.402  42.955  10.080
14137W        W82531  27.522  24.255   2.602
14138W        W82532  15.853  29.670   5.076
14139W        W82533  29.973  36.538  11.642
14140W        W82534  11.196  11.079  12.885
14141W        W82535  25.341  31.042  11.219
14142W        W82536  16.742  35.403   3.732
14143W        W82537  42.271  44.539   0.783
14144W        W82538  20.068  13.556   1.864
14145W        W82539  18.743  25.722   5.012
14146W        W82540  20.255  12.715  10.254
14147W        W82541  30.922  31.338   3.792
14148W        W82542   2.879  44.358   1.655
14149W        W82543  35.237   7.226  14.489
14150W        W82544  36.626  21.367  13.214
14151W        W82545  21.073  19.258  14.970
14152W        W82546  32.406  43.893   4.701
14153W        W82547  30.424  33.614  11.600
14154W        W82548   5.161  37.884  13.502
14155W        W82549   1.570  25.370  12.472
14156W        W82550  39.088  10.380  11.946
14157W        W82551   5.500  37.212  12.363
14158W        W82552  32.814  16.121   2.180
14159W        W82553   6.531  41.025   3.214
14160W        W82554  32.164  10.512   0.809
14161W        W82555  40.411   4.719   0.728
14162W        W82556   9.453  38.572  14.864
14163W        W82557  23.712  43.456  14.012
14164W        W82558   0.211  43.073  11.623
14165W        W82559  27.065  40.956  11.720
14166W        W82560  12.174  38.451  14.898
14167W        W82561  41.992  12.356  13.393
14168W        W82562  36.799  32.051  12.366
14169W        W82563  28.742  39.436  14.347
14170W        W82564  14.584   8.191  13.399
14171W        W82565  15.062   0.383  12.618
14172W        W82566  10.954  40.139  12.343
14173W        W82567   3.488  35.450  11.932
14174W        W82568  36.931   1.100   0.393
14175W        W82569  24.506  37.019   0.610
14176W        W82570  12.906  17.710   3.048
14177W        W82571  35.190  21.017  13.812
14178W        W82572   6.399  35.422   4.260
14179W        W82573   6.882  17.629  12.922
14180W        W82574   1.111  27.683   1.170
14181W        W82575  35.596  42.529   1.819
14182W        W82576  39.418  15.814  12.838
14183W        W82577   7.233  14.604   1.148
14184W        W82578  36.832  32.708  12.456
14185W        W82579  39.959   5.703   2.725
14186W        W82580   9.715  11.449   4.182
14187W        W82581  27.536  15.654   0.850
14188W        W82582  21.636   7.687  14.480
14189W        W82583  17.304  23.598   4.799
14190W        W82584  13.408  18.737   2.288
14191W        W82585  15.176  14.835   0.690
14192W        W82586  42.807  39.501  11.105
14193W        W82587  15.780   9.335  10.110
14194W        W82588  30.691  43.474   2.736
14195W        W82589  13.649   9.769  12.590
14196W        W82590  22.766  37.424   2.526
14197W        W82591  15.789   4.902  10.665
14198W        W82592  12.517  39.737   1.029
14199W        W82593  23.881  19.697  10.352
14200W        W82594  22.243  14.790  11.043
14201W        W82595  18.198  29.166   1.765
14202W        W82596  19.503  43.493   4.889
14203W        W82597  22.022  10.229  14.956
14204W        W82598  41.520  27.542  10.993
14205W        W82599   2.984  32.369   1.605
14206W        W82600  37.846  20.953   0.428
14207W        W82601  28.964  14.625   4.162
14208W        W82602  44.036  16.582   1.725
14209W        W82603   6.919   7.694  11.811
14210W        W82604  40.151  29.081  14.023
14211W        W82605  26.547  13.616  12.835
14212W        W82606  23.152  39.937  10.939
14213W        W82607  14.621  41.382   2.939
14214W        W82608  30.603   1.710   1.236
14215W        W82609   1.855   6.739   2.153
14216W        W82610  31.590  16.139   2.833
14217W        W82611  44.129   5.842  14.356
14218W        W82612  21.663  34.934   0.219
14219W        W82613  33.459  42.397   1.396
14220W        W82614  36.178  44.321  14.019
14221W        W82615  40.950  28.674  14.705
14222W        W82616  37.159  34.609  14.846
14223W        W82617  40.071  40.775  13.500
14224W        W82618  24.442  34.203   0.485
14225W        W82619  18.308  15.656   2.773
14226W        W82620  16.590  23.540   4.067
14227W        W82621   5.260  37.161   5.065
14228W        W82622  23.642   0.402   3.098
14229W        W82623  32.677  15.098   0.269
14230W        W82624  37.894  20.546   3.315
14231W        W82625   4.866  43.702  10.418
14232W        W82626  12.376  13.772   4.605
14233W        W82627  30.020   8.227   4.386
14234W        W82628  12.158  13.766   3.641
14235W        W82629   2.014  36.804  13.458
14236W        W82630  26.994  37.419  14.638
14237W        W82631  31.524  32.060   1.258
14238W        W82632  28.184  41.416   3.371
14239W        W82633  25.401  27.047  13.803
14240W        W82634  29.096   7.003   0.423
14241W        W82635  28.128  20.962  14.814
14242W        W82636  35.893  35.306   3.696
14243W        W82637  40.322   4.571  10.853
14244W        W82638  26.502  28.562   1.304
14245W        W82639  35.327  30.687  11.217
14246W        W82640  10.488  42.721  13.953
14247W        W82641  26.176   8.575   1.281
14248W        W82642  13.823  41.228  14.554
14249W        W82643  31.901  29.662  11.027
14250W        W82644  31.690  40.489  13.468
14251W        W82645  20.538  34.582  10.483
14252W        W82646  30.450  41.607  13.984
14253W        W82647   7.291  44.017  10.625
14254W        W82648  30.059   4.293   2.529
14255W        W82649  24.963  44.478  12.083
14256W        W82650   5.729  38.330  12.369
14257W        W82651   9.246   0.801   0.439
14258W        W82652  35.524  26.145   4.866
14259W        W82653  42.514  28.673  13.868
14260W        W82654  36.059  20.592   1.810
14261W        W82655   6.256  42.412  12.713
14262W        W82656  29.564  22.912   2.275
14263W        W82657   2.872  31.543   2.903
14264W        W82658  17.781  17.763   1.038
14265W        W82659  38.943   9.894  11.940
14266W        W82660  30.775  24.241   0.962
14267W        W82661   4.443  37.351   3.068
14268W        W82662   1.725   8.243   0.387
14269W        W82663  16.217  44.377   4.453
14270W        W82664  16.342  24.074   4.101
14271W        W82665  10.919  26.078  14.764
14272W        W82666  15.707  41.569   0.488
14273W        W82667   0.146  37.888  11.724
14274W        W82668   9.313  40.274  13.932
14275W        W82669  34.589   8.525  10.509
14276W        W82670  37.598  34.447  12.893
14277W        W82671   0.247  19.295  11.622
14278W        W82672  18.553  26.408   3.489
14279W        W82673  37.460   8.726  13.702
14280W        W82674   4.616  26.849  10.744
14281W        W82675  17.350  26.615  12.572
14282W        W82676  26.851  28.061  12.246
14283W        W82677  16.686  27.295   3.253
14284W        W82678  43.547   6.752   2.163
14285W        W82679  39.442  21.772   1.792
14286W        W82680   7.119   6.244   4.086
14287W        W82681  14.122  12.371  14.976
14288W        W82682   4.424  25.032   0.813
14289W        W82683   0.769   1.240  13.391
14290W        W82684  41.442   1.511   4.528
14291W        W82685  14.885   4.160   4.342
14292W        W82686  30.509   6.668   0.141
14293W        W82687  27.216  26.530   1.437
14294W        W82688  11.331   6.229   0.348
14295W        W82689  22.223  22.109   0.502
14296W        W82690  39.331  26.856  11.520
14297W        W82691  24.482   6.838   2.190
14298W        W82692  21.283   0.365   2.810
14299W        W82693  42.595  12.647   2.288
14300W        W82694  23.586   3.235  12.771
14301W        W82695  21.403   6.168  13.929
14302W        W82696  41.807  36.118   2.227
14303W        W82697  28.443  23.537   0.732
14304W        W82698   4.655  10.638   3.153
14305W        W82699   1.973  21.969  11.193
14306W        W82700  21.127  21.548  10.648
14307W        W82701  20.827  28.205   2.823
14308W        W82702   7.662  20.641  14.296
14309W        W82703  42.435  24.735   3.711
14310W        W82704   7.464  22.600   2.462
14311W        W82705  25.044  20.770  12.421
14312W        W82706   5.735   8.468   3.792
14313W        W82707  20.352  16.385  10.546
14314W        W82708  14.241  31.859  14.969
14315W        W82709  25.888  38.647   0.867
14316W        W82710  29.621  12.169   3.752
14317W        W82711  28.029  20.842   1.865
14318W        W82712  34.048  43.201  13.022
14319W        W82713  11.943  22.455   2.097
14320W        W82714  33.862  32.705   1.648
14321W        W82715   3.770   7.789  11.207
14322W        W82716  30.935  29.966   3.864
14323W        W82717  11.161  36.050   4.469
14324W        W82718   2.932  31.512  12.002
14325W        W82719  35.335  25.760  10.705
14326W        W82720  17.471  17.002  11.557
14327W        W82721  17.567  40.074   0.763
14328W        W82722  19.740  43.275   3.383
14329W        W82723  22.546  23.126   2.156
14330W        W82724   3.823  28.464   4.321
14331W        W82725   9.913  24.150   0.895
14332W        W82726  22.980  32.052  11.115
14333W        W82727  40.986  37.827  12.542
14334W        W82728  43.845   4.465  11.585
14335W        W82729  43.365  25.687   2.786
14336W        W82730  30.927  25.662  10.956
14337W        W82731   5.269  29.558  14.936
14338W        W82732  43.189  38.008  11.014
14339W        W82733  39.399  39.637   1.725
14340W        W82734  40.815  22.111  13.361
14341W        W82735  32.302   6.536   5.088
14342W        W82736  43.427  35.153   4.621
14343W        W82737  23.855   2.186   3.115
14344W        W82738  17.572  35.515  10.671
14345W        W82739   0.068  14.137   3.095
14346W        W82740   0.950  28.669  13.545
14347W        W82741  21.414  41.822   4.949
14348W        W82742  14.444  34.096   3.809
14349W        W82743  17.354  39.849   1.809
14350W        W82744  10.959   1.415   2.362
14351W        W82745  42.515  11.688  13.505
14352W        W82746  27.964  34.901  12.437
14353W        W82747  38.839   7.756   4.226
14354W        W82748   1.041  40.927   0.790
14355W        W82749   7.901  36.932   2.687
14356W        W82750  23.183  43.326  14.738
14357W        W82751  37.089  41.536  11.530
14358W        W82752  26.965  44.916   3.249
14359W        W82753  14.379   7.883   0.385
14360W        W82754  25.052  19.769   1.431
14361W        W82755  10.595  23.182  14.707
14362W        W82756  32.226  19.670  13.305
14363W        W82757  30.598  10.318  13.605
14364W        W82758  29.314  44.588  10.575
14365W        W82759  27.903  14.629   3.373
14366W        W82760  40.459  34.170   4.290
14367W        W82761  21.592   3.900  13.290
14368W        W82762  23.976  40.447   4.478
14369W        W82763  36.638  12.747  12.196
14370W        W82764  20.306  35.326   0.946
14371W        W82765  24.393  15.235   1.325
14372W        W82766  33.420   0.424  14.005
14373W        W82767  16.746  38.420   0.891
14374W        W82768  38.793  36.034  13.813
14375W        W82769  16.665  26.017  14.771
14376W        W82770  29.351  34.623   4.151
14377W        W82771  22.934   6.024  12.107
14378W        W82772  11.155   7.000  10.709
14379W        W82773  12.776  36.201  13.455
14380W        W82774   4.438  28.163   3.676
14381W        W82775  17.577   3.232   3.688
14382W        W82776  13.725  44.939   1.930
14383W        W82777   2.430  22.542   1.927
14384W        W82778   5.405  19.200  11.027
14385W        W82779   6.990   8.132   4.056
14386W        W82780  34.141  13.284  10.571
14387W        W82781  31.625  20.082   4.847
14388W        W82782  34.957  11.072   3.711
14389W        W82783  43.037  15.847  12.167
14390W        W82784  34.024  32.292  14.888
14391W        W82785  21.758  14.297   2.827
14392W        W82786  38.203   0.278  12.982
14393W        W82787   6.993  43.883   2.613
14394W        W82788  16.337  13.361  11.626
14395W        W82789  32.665  32.500   2.876
14396W        W82790   9.829   4.721   2.004
14397W        W82791  15.376  27.980   1.680
14398W        W82792   0.032  23.068   0.294
14399W        W82793  30.103  23.688  11.076
14400W        W82794  20.306  31.572   2.183
14401W        W82795  38.474  22.122   4.594
14402W        W82796  16.024  16.110  11.196
14403W        W82797  42.934   4.869  11.005
14404W        W82798  35.536   6.742  11.456
14405W        W82799   0.555   5.428   0.468
14406W        W82800  44.826   8.722  12.076
14407W        W82801  31.165  43.114   3.654
14408W        W82802  18.540  39.614   3.249
14409W        W82803  44.414  35.616  14.380
14410W        W82804  36.598  21.958  13.892
14411W        W82805  44.026  19.641   3.340
14412W        W82806  43.399  33.058  10.570
14413W        W82807   9.105  27.631   3.883
14414W        W82808   0.360  38.988   5.088
14415W        W82809  40.754   1.780   3.426
14416W        W82810  20.241  25.624  12.804
14417W        W82811  31.179  35.394   0.727
14418W        W82812  16.579  11.282  13.016
14419W        W82813  32.518  28.475  14.472
14420W        W82814  16.819  24.603  10.723
14421W        W82815  41.210  37.479   3.078
14422W        W82816  10.233   1.672   3.719
14423W        W82817   0.833  27.137  14.392
14424W        W82818   6.439  35.692  12.027
14425W        W82819   1.143  34.567  14.861
14426W        W82820  39.836   6.864   2.247
14427W        W82821  39.745  29.169  10.657
14428W        W82822   0.553  15.315  12.398
14429W        W82823  40.071   1.821  11.917
14430W        W82824  31.119  21.499   3.355
14431W        W82825  11.903   2.462  14.372
14432W        W82826  38.343  13.155   3.112
14433W        W82827   2.048  18.420  14.074
14434W        W82828  27.548   4.021   3.113
14435W        W82829   6.978   0.975   3.473
14436W        W82830  30.538   3.829  10.754
14437W        W82831  21.710  35.320  14.411
14438W        W82832  43.266  10.103  14.955
14439W        W82833  31.454  40.337  11.546
14440W        W82834  37.548  31.947   4.996
14441W        W82835  38.086  33.643  11.644
14442W        W82836   8.114   2.041   2.833
14443W        W82837  40.457  39.860   0.276
14444W        W82838  32.793  44.023   2.961
14445W        W82839  38.598  12.097  13.963
14446W        W82840  41.819  15.152  11.845
14447W        W82841   7.091  19.240  14.982
14448W        W82842  28.016   9.302   4.384
14449W        W82843  15.330  17.177   1.672
14450W        W82844  27.280  15.251   2.756
14451W        W82845  41.596  34.627  13.422
14452W        W82846  32.521  33.513   1.789
14453W        W82847  24.993  17.539  11.513
14454W        W82848  38.046  29.429  10.805
14455W        W82849  23.264  10.768  11.755
14456W        W82850  29.748  41.576   3.274
14457W        W82851  40.551  31.860  12.019
14458W        W82852   7.389   5.214  10.257
14459W        W82853  17.545  42.863   1.403
14460W        W82854  30.501  31.402   4.588
14461W        W82855   3.458  13.907  13.885
14462W        W82856   6.354  19.220   2.759
14463W        W82857  27.437  42.771  13.812
14464W        W82858  41.026  36.047   3.042
14465W        W82859  21.798  30.932  14.865
14466W        W82860   5.868  18.608   2.670
14467W        W82861   1.864  12.071  11.211
14468W        W82862  15.839  35.863   0.871
14469W        W82863  17.215   1.608   4.133
14470W        W82864  38.327  10.719  10.558
14471W        W82865  36.600  28.151   4.110
14472W        W82866  17.042   0.950   0.965
14473W        W82867  17.494   6.638   1.759
14474W        W82868  42.876   4.374  10.740
14475W        W82869  29.094  44.171   0.862
14476W        W82870   2.978  32.828   1.853
14477W        W82871  34.051  10.199  11.952
14478W        W82872  31.147  37.276   1.720
14479W        W82873  27.375  30.596   4.505
14480W        W82874  40.529  33.405   2.627
14481W        W82875  27.137  23.709   1.432
14482W        W82876  22.404  37.606   0.938
14483W        W82877  37.061  44.339   4.349
14484W        W82878  38.624  10.901  11.521
14485W        W82879  24.847  26.234  11.081
14486W        W82880  33.051  16.639   0.746
14487W        W82881   8.926  18.218  13.515
14488W        W82882  15.266  37.601  12.239
14489W        W82883  14.768   4.720   3.336
14490W        W82884  16.406  34.360  13.641
14491W        W82885  29.701  23.309   0.973
14492W        W82886  40.818  12.364   4.101
14493W        W82887  22.774  34.993  10.235
14494W        W82888  33.368  41.716   3.591
14495W        W82889  27.366  44.285  12.190
14496W        W82890   2.783  41.795  13.593
14497W        W82891  36.621  15.649   3.336
14498W        W82892  21.071  39.903  14.470
14499W        W82893  38.514  14.276  14.873
14500W        W82894  40.328  42.925   3.674
14501W        W82895   5.675  10.783  13.023
14502W        W82896  13.069  37.173  13.804
14503W        W82897  39.868  44.452   4.608
14504W        W82898  25.217  30.969   2.314
14505W        W82899  33.056  27.112  11.012
14506W        W82900  17.616  23.103  14.467
14507W        W82901   2.982  11.294   3.112
14508W        W82902  16.639  34.689   3.161
14509W        W82903  31.556  27.986  13.832
14510W        W82904   8.879   1.978   3.246
14511W        W82905  31.911  17.228   4.268
14512W        W82906  43.775   4.237   1.695
14513W        W82907  17.765  12.103  11.331
14514W        W82908  30.547  25.955  10.611
14515W        W82909  22.475  17.664   3.757
14516W        W82910   3.241   0.249  10.329
14517W        W82911  11.354  32.452  11.997
14518W        W82912   5.957  39.038   0.311
14519W        W82913   8.125   8.370   5.040
14520W        W82914  11.050  36.127  12.599
14521W        W82915   6.458   4.370  12.016
14522W        W82916  18.258   3.377  13.044
14523W        W82917   1.155   2.219   2.714
14524W        W82918   1.326  43.811   2.182
14525W        W82919  37.422  20.281   1.277
14526W        W82920  28.623  17.240   0.475
14527W        W82921  24.175  39.693  14.341
14528W        W82922  30.362  27.510  12.658
14529W        W82923  18.079  35.480  12.484
14530W        W82924  24.702  42.742  13.015
14531W        W82925   5.912  29.688  10.829
14532W        W82926  44.251  16.993  14.220
14533W        W82927   3.620  17.617   1.419
14534W        W82928  42.522  27.694   4.136
14535W        W82929  11.190  15.031   2.094
14536W        W82930  16.993  43.999  12.049
14537W        W82931  16.393  24.688   0.413
14538W        W82932  31.617  34.112   4.130
14539W        W82933   0.745  13.523   0.196
14540W        W82934  30.579  12.107   1.369
14541W        W82935  36.796  14.320   2.500
14542W        W82936  34.430  38.972   3.318
14543W        W82937  35.911  16.227   4.540
14544W        W82938  39.538   3.041  10.719
14545W        W82939  30.874  38.584   2.233
14546W        W82940  13.790   4.758  11.114
14547W        W82941   3.194  11.731   4.619
14548W        W82942  34.527  37.468   0.350
14549W        W82943  43.509  13.380   0.464
14550W        W82944  14.225  31.549  12.593
14551W        W82945   3.321  22.602  10.386
14552W        W82946  24.603   7.195   3.624
14553W        W82947  30.656  18.473  11.149
14554W        W82948  26.457  42.532   2.296
14555W        W82949   4.952   7.152  14.981
14556W        W82950   7.785  26.281  13.569
14557W        W82951  43.663  28.528  12.445
14558W        W82952  20.210  19.709   3.109
14559W        W82953  38.503  29.100   2.664
14560W        W82954  17.582  35.028  10.861
14561W        W82955  42.039  39.777   3.399
14562W        W82956  21.514  10.135  10.776
14563W        W82957  37.386  22.153  12.448
14564W        W82958  29.651  43.579   4.178
14565W        W82959   5.868  39.360   0.824
14566W        W82960  13.453  23.049  10.756
14567W        W82961   2.302   3.968   2.867
14568W        W82962  24.601  19.211  12.924
14569W        W82963  21.426  20.399  11.565
14570W        W82964  20.772  39.806   4.879
14571W        W82965  34.818  14.586   2.350
14572W        W82966   2.631   7.220  11.169
14573W        W82967  32.141  14.745  14.160
14574W        W82968  22.257  15.723   1.312
14575W        W82969  24.089   5.915  14.527
14576W        W82970  20.089  27.013   1.297
14577W        W82971  20.985  18.158  10.473
14578W        W82972  10.840  43.346   4.591
14579W        W82973  27.188  10.250   5.023
14580W        W82974  42.223  27.976   0.855
14581W        W82975  38.489  19.327  11.129
14582W        W82976  40.409  15.583  14.437
14583W        W82977  30.323  38.254  12.574
14584W        W82978   9.346  14.552   1.991
14585W        W82979  16.079  32.602  13.374
14586W        W82980  40.416  39.581  10.550
14587W        W82981  29.966  15.376  12.438
14588W        W82982  13.045  32.823   1.733
14589W        W82983   0.246  30.370   2.805
14590W        W82984  11.891  19.007   4.097
14591W        W82985  19.067  14.873  13.615
14592W        W82986  39.341  44.449  12.692
14593W        W82987   2.692  32.726   3.284
14594W        W82988  38.592  40.864  13.387
14595W        W82989  29.221  14.293   0.845
14596W        W82990  21.008  15.246  14.959
14597W        W82991  11.386  15.071  13.471
14598W        W82992  36.816   0.528  12.410
14599W        W82993   8.745  26.463   0.283
14600W        W82994  36.395  33.351  11.222
14601W        W82995  23.764  33.498  10.715
14602W        W82996  17.262  30.853  12.104
14603W        W82997  42.532   7.236  13.120
14604W        W82998   1.787  30.651   2.842
14605W        W82999  25.417  27.075  10.685
14606W        W83000  23.001   6.920   3.032
14607W        W83001  15.068  13.581  14.953
14608W        W83002  10.415  13.136   2.227
14609W        W83003  17.297  33.681  14.727
14610W        W83004  38.240  40.224  11.099
14611W        W83005  15.482  25.151   4.215
14612W        W83006  29.038  19.765   1.821
14613W        W83007  16.361  37.108   4.294
14614W        W83008  20.157  10.669  14.373
14615W        W83009  38.533  24.473  14.829
14616W        W83010  26.464  18.321  12.951
14617W        W83011  30.953  37.674  13.035
14618W        W83012  43.804   9.865   2.977
14619W        W83013  41.873  29.211   0.254
14620W        W83014  41.359  31.710   4.346
14621W        W83015  31.304  35.553  11.691
14622W        W83016  44.302  28.591   3.910
14623W        W83017  23.164  30.916  12.966
14624W        W83018  24.753  20.227  13.505
14625W        W83019  38.904  26.126   2.019
14626W        W83020  12.681   3.710   1.263
14627W        W83021  42.032  24.770   0.422
14628W        W83022  30.140  12.267   4.707
14629W        W83023  15.952   5.364   0.510
14630W        W83024   7.188   4.722  12.897
14631W        W83025   4.367  19.937  13.175
14632W        W83026  33.788  41.083   3.983
14633W        W83027  14.879  20.037  13.618
14634W        W83028  18.827  43.528   2.353
14635W        W83029  17.349  17.406   1.267
14636W        W83030  37.275   1.795   1.792
14637W        W83031   3.377  23.035  12.861
14638W        W83032  29.649  29.448   2.187
14639W        W83033   4.258   7.254  13.931
14640W        W83034  37.757   8.171   1.744
14641W        W83035  31.500   8.469  14.968
14642W        W83036  34.520  14.667   0.735
14643W        W83037  39.938  25.052  13.239
14644W        W83038  37.471  13.412  11.952
14645W        W83039  33.457  31.139  13.561
14646W        W83040  25.953  27.632   2.279
14647W        W83041  13.555   0.885   0.790
14648W        W83042  39.058  29.629  12.586
14649W        W83043  35.799  23.554  11.844
14650W        W83044  26.664  40.767  13.416
14651W        W83045  22.434  16.113  11.388
14652W        W83046  17.317  13.106   1.397
14653W        W83047  10.176   2.318   3.173
14654W        W83048  19.977  23.953   1.382
14655W        W83049  23.017  14.384   3.178
14656W        W83050  16.035   7.214   2.791
14657W        W83051  31.510  19.979   1.848
14658W        W83052  12.090  39.923   1.935
14659W        W83053   9.149  39.537  13.423
14660W        W83054  18.579  44.191  13.462
14661W        W83055  40.442  43.432   3.483
14662W        W83056   9.187  37.833   0.044
14663W        W83057   8.463  18.086   3.300
14664W        W83058  19.002  15.397   2.236
14665W        W83059  22.102  17.843   1.317
14666W        W83060   6.799  41.833   2.447
14667W        W83061  21.920  41.994  13.933
14668W        W83062  40.381  33.971   0.680
14669W        W83063  29.625  27.083  14.834
14670W        W83064   9.382  39.700   0.809
14671W        W83065  27.573  23.654   0.857
14672W        W83066  28.205  38.863  13.081
14673W        W83067  37.081  18.797  14.560
14674W        W83068  35.429  38.947  10.738
14675W        W83069  22.946  19.205  13.585
14676W        W83070  38.383  41.390   4.134
14677W        W83071  15.283   9.159  11.747
14678W        W83072  38.094  18.609   2.852
14679W        W83073  22.149  11.835   4.009
14680W        W83074  36.370   8.688   0.892
14681W        W83075  42.292  41.804   3.194
14682W        W83076   6.611  25.785   3.749
14683W        W83077  11.364  33.434  11.189
14684W        W83078  35.030  22.577  10.495
14685W        W83079  19.144  32.920  11.729
14686W        W83080  40.478  40.534   4.647
14687W        W83081  31.218   3.777   1.811
14688W        W83082  12.913  35.075  12.802
14689W        W83083  38.019  30.292  11.098
14690W        W83084   7.730  26.540   0.323
14691W        W83085  41.719  18.736   2.846
14692W        W83086   4.071  31.824  10.810
14693W        W83087  37.788   0.121   0.503
14694W        W83088  14.600  38.836  12.661
14695W        W83089  21.736  22.806  11.275
14696W        W83090  23.455   1.841  12.255
14697W        W83091  41.453  17.293   1.433
14698W        W83092  38.447  26.712   1.281
14699W        W83093  44.464   0.884  13.088
14700W        W83094  15.591  28.837  13.021
14701W        W83095  14.598  24.970  14.980
14702W        W83096  14.656  31.185   4.808
14703W        W83097   9.859  42.087   3.156
14704W        W83098  25.198  28.564  10.742
14705W        W83099  19.690   3.260  14.772
14706W        W83100  20.576  40.847  14.973
14707W        W83101  13.768  14.348   0.430
14708W        W83102  16.124   0.245   3.882
14709W        W83103  30.932   9.615   3.169
14710W        W83104  26.472  38.066  12.072
14711W        W83105  37.851  13.155   0.940
14712W        W83106  38.431  36.154   2.825
14713W        W83107   5.117   4.939   2.290
14714W        W83108  10.408  39.586  12.842
14715W        W83109  23.312  40.385  14.309
14716W        W83110  40.553   5.924  14.314
14717W        W83111   0.190  27.935   3.049
14718W        W83112  42.900  42.011  11.180
14719W        W83113  43.396  13.629   0.923
14720W        W83114   3.099  35.918  11.267
14721W        W83115  16.861  36.011   4.641
14722W        W83116  28.835  12.886   4.661
14723W        W83117   7.185  43.667   4.869
14724W        W83118  35.152  30.220  12.010
14725W        W83119   1.620  20.517   1.310
14726W        W83120  36.483  31.442   3.214
14727W        W83121  43.006  41.292  10.696
14728W        W83122  21.531  26.509  11.459
14729W        W83123   5.810   0.345  12.930
14730W        W83124  40.407   7.962   4.213
14731W        W83125   6.426  31.993  11.158
14732W        W83126  39.530   0.511   1.305
14733W        W83127  16.429  40.698   2.415
14734W        W83128  38.408  26.755  14.484
14735W        W83129  39.434   5.745  10.716
14736W        W83130  26.319  32.761   2.968
14737W        W83131  30.536  10.805   3.870
14738W        W83132   6.354   8.130  13.569
14739W        W83133   4.227  30.069   3.321
14740W        W83134  10.717  18.672   2.660
14741W        W83135  22.705  19.528  12.824
14742W        W83136  20.791  28.787   2.101
14743W        W83137  24.892  24.469  13.308
14744W        W83138  32.430  22.704   3.339
14745W        W83139   6.052  15.693   2.759
14746W        W83140  14.990  41.089  13.099
14747W        W83141   2.815  17.642   4.677
14748W        W83142  24.108  11.829  14.019
14749W        W83143  14.591  16.976   3.755
14750W        W83144  14.374  32.843  14.795
14751W        W83145  20.267  18.266   1.851
14752W        W83146  19.004   8.075   0.569
14753W        W83147   0.066  19.078   2.530
14754W        W83148  40.972  19.769   2.869
14755W        W83149  26.093   3.910  11.439
14756W        W83150  15.701  11.649   3.792
14757W        W83151  13.757  37.943   3.861
14758W        W83152  18.537   7.787   3.667
14759W        W83153   7.657  33.884   1.624
14760W        W83154  23.652   6.650  11.203
14761W        W83155  18.506  20.285  11.081
14762W        W83156  17.545  23.291   2.676
14763W        W83157  42.560   9.147   3.150
14764W        W83158   6.826  44.859   2.439
14765W        W83159   2.508  12.185   3.164
14766W        W83160  33.062  26.668  14.780
14767W        W83161  26.923  40.581   0.389
14768W        W83162  36.551  35.476   4.785
14769W        W83163  17.757  37.281   0.368
14770W        W83164  30.383  13.872  14.738
14771W        W83165  36.547  17.990   4.550
14772W        W83166  35.540  13.065  10.787
14773W        W83167  37.377  40.321   2.292
14774W        W83168  41.344  21.912  10.859
14775W        W83169  17.626  18.676   1.655
14776W        W83170   2.679  15.794  13.550
14777W        W83171  38.669  30.503  10.093
14778W        W83172  28.542  39.026  11.580
14779W        W83173   1.867  39.858  13.625
14780W        W83174  23.663  31.119  12.113
14781W        W83175  37.861  24.613   0.790
14782W        W83176  28.868  35.398  11.182
14783W        W83177  35.464  27.894  14.945
14784W        W83178  22.117  41.909  12.875
14785W        W83179   3.334   6.674   2.167
14786W        W83180  14.222   4.466  12.163
14787W        W83181  27.239   0.957  12.473
14788W        W83182  16.171  15.639  10.520
14789W        W83183   1.491  29.245  11.267
14790W        W83184   1.369  30.952  11.920
14791W        W83185  21.332  40.000  12.713
14792W        W83186  41.993  16.855   0.902
14793W        W83187  31.291  29.173  12.866
14794W        W83188  27.025  11.861   1.254
14795W        W83189   1.319  22.799  12.033
14796W        W83190   0.361  13.870   0.338
14797W        W83191  17.901  19.166  10.632
14798W        W83192  34.455  31.041   3.311
14799W        W83193  26.221  13.847   3.567
14800W        W83194  20.216  17.101  11.048
14801W        W83195  21.198  27.341  13.316
14802W        W83196   8.772  37.294   4.111
14803W        W83197  15.816  14.721   4.609
14804W        W83198  32.474  40.880   3.870
14805W        W83199   1.497  42.543   3.622
14806W        W83200  29.746  41.798  10.738
14807W        W83201  27.916  26.489  14.432
14808W        W83202  43.508  36.117  13.889
14809W        W83203  41.720  23.483  13.817
14810W        W83204   1.336  19.614   2.625
14811W        W83205  41.481   8.671  13.973
14812W        W83206  19.706  35.118   4.554
14813W        W83207  36.873  16.362  12.917
14814W        W83208   0.603  43.572   3.568
14815W        W83209  14.041  36.529  13.101
14816W        W83210   3.719  27.938   2.043
14817W        W83211  37.951  16.110  13.791
14818W        W83212  43.381  12.173  12.653
14819W        W83213  22.287   2.176   1.167
14820W        W83214   5.764  23.261   3.759
14821W        W83215   7.864  17.404   5.184
14822W        W83216  35.741  25.312   4.819
14823W        W83217  17.209   5.391  13.367
14824W        W83218  10.299   6.804  12.470
14825W        W83219  26.207  17.763   0.310
14826W        W83220  19.734  19.713   1.526
14827W        W83221  38.746  17.284  11.956
14828W        W83222  18.822  39.336  10.476
14829W        W83223  31.138   5.291  11.028
14830W        W83224  40.296   4.788   0.222
14831W        W83225  11.263  17.665   0.539
14832W        W83226   0.848  34.408  12.391
14833W        W83227  42.767  11.082  11.700
14834W        W83228  18.790  24.791  11.221
14835W        W83229  29.477   2.365  10.660
14836W        W83230  42.124  28.390  14.105
14837W        W83231   7.808  36.348  10.700
14838W        W83232  22.015  29.115   1.424
14839W        W83233  15.307  25.205  12.904
14840W        W83234  18.537  19.738  14.267
14841W        W83235   5.896  17.750  11.888
14842W        W83236  42.847  14.175  11.095
14843W        W83237  37.356  25.512  14.094
14844W        W83238  19.674  43.924   3.039
14845W        W83239  40.258   0.742   2.606
14846W        W83240  20.717  18.709  13.546
14847W        W83241  43.446   4.911   2.130
14848W        W83242  26.273  39.467   4.787
14849W        W83243  34.682   7.833  12.064
14850W        W83244   5.830  26.964   2.757
14851W        W83245   9.640  19.975   1.727
14852W        W83246  42.744   3.128   3.127
14853W        W83247   3.264  21.680   3.825
14854W        W83248  23.192  17.130   4.122
14855W        W83249  28.246  13.993   2.636
14856W        W83250  28.062   0.267   3.158
14857W        W83251  26.492  13.271   2.181
14858W        W83252  22.715  38.841  12.965
14859W        W83253   0.472  14.692  11.884
14860W        W83254   4.918  33.977   4.145
14861W        W83255  15.620  30.532   0.337
14862W        W83256  37.937  36.312  13.806
14863W        W83257  19.711  41.796   4.169
14864W        W83258  42.717   5.649   3.853
14865W        W83259  11.207  34.531   0.910
14866W        W83260  14.217  25.336  14.828
14867W        W83261  29.187  18.788  14.981
14868W        W83262   5.183  34.439  14.241
14869W        W83263  41.286  38.931  13.038
14870W        W83264  15.283  32.410   3.893
14871W        W83265  42.641  27.219   1.456
14872W        W83266  15.816  43.277   1.402
14873W        W83267  40.975  18.488   1.929
14874W        W83268  25.558   9.526   0.698
14875W        W83269  39.795  22.815  11.113
14876W        W83270  34.582  18.078  12.153
14877W        W83271  38.780  32.661   4.197
14878W        W83272  17.327  40.755  11.432
14879W        W83273  12.288  19.051   4.680
14880W        W83274  17.681  39.802   5.357
14881W        W83275   1.305  21.351   4.964
14882W        W83276  20.220  11.853  11.546
14883W        W83277   8.094  29.915   0.337
14884W        W83278   1.657   4.310   2.720
14885W        W83279  16.122  29.505  10.161
14886W        W83280   6.591  41.256   1.819
14887W        W83281  12.921  33.414  12.512
14888W        W83282  22.279  13.598  13.486
14889W        W83283  26.495   3.691  11.668
14890W        W83284  36.797   6.859   0.221
14891W        W83285  32.548  23.261  13.595
14892W        W83286  25.498  27.944  12.181
14893W        W83287  40.305  25.963   4.274
14894W        W83288  11.655  39.945   0.634
14895W        W83289  20.047  15.320   2.440
14896W        W83290  14.560  25.197   2.252
14897W        W83291  26.161  33.708  14.877
14898W        W83292   5.405  42.189  10.367
14899W        W83293  23.828  10.368   3.223
14900W        W83294  24.059   4.771  12.488
14901W        W83295  42.332  35.397  14.777
14902W        W83296  31.539  34.981  14.026
14903W        W83297  36.719  41.452   1.772
14904W        W83298  17.529  36.504   4.554
14905W        W83299   2.494  12.741  12.824
14906W        W83300  38.323  40.093   3.180
14907W        W83301  36.651  37.868   0.288
14908W        W83302   9.496   1.475  14.267
14909W        W83303   4.862  27.679  12.498
14910W        W83304  43.893   0.328   2.954
14911W        W83305  27.927  17.974  13.031
14912W        W83306  18.698  21.068  10.650
14913W        W83307  36.042  35.345  14.564
14914W        W83308  24.223   1.203   4.974
14915W        W83309  32.482  39.849  10.702
14916W        W83310  25.649  10.113  12.001
14917W        W83311  18.006  10.151   3.294
14918W        W83312  40.032  40.040  14.986
14919W        W83313  20.007  42.625  14.314
14920W        W83314  11.193  17.049   4.843
14921W        W83315  22.627  25.455   1.361
14922W        W83316  42.571  17.795   3.516
14923W        W83317  44.874   3.095   9.945
14924W        W83318   5.406  44.314  14.033
14925W        W83319  44.918  35.533  12.936
14926W        W83320  18.163  28.395   3.639
14927W        W83321  41.437  13.650  14.834
14928W        W83322   1.423  44.011  13.328
14929W        W83323  43.975  11.784   2.841
14930W        W83324  18.428  30.293   1.390
14931W        W83325  42.426  36.819  14.574
14932W        W83326  14.010  31.264   3.197
14933W        W83327   6.375  42.992  10.776
14934W        W83328  15.669  27.617   1.917
14935W        W83329  44.188   7.230  11.159
14936W        W83330  13.294   2.821   3.540
14937W        W83331  11.895  12.037  14.272
14938W        W83332  20.514   2.586  13.368
14939W        W83333  40.382  37.746  13.912
14940W        W83334  14.256  18.572   2.838
14941W        W83335  29.641  12.115   2.749
14942W        W83336   0.947  20.538  11.494
14943W        W83337  42.849  20.617  13.242
14944W        W83338  24.567  11.696  11.877
14945W        W83339   1.301  22.488  11.637
14946W        W83340  26.796  34.671   0.257
14947W        W83341  35.890  12.048  12.967
14948W        W83342  17.774  20.171  12.413
14949W        W83343  43.406  27.986   2.160
14950W        W83344  29.115  32.190   1.461
14951W        W83345  27.850  19.945   4.468
14952W        W83346  43.670   1.657   1.383
14953W        W83347   9.182  31.593  13.427
14954W        W83348  39.171   9.705   4.896
14955W        W83349  16.181  10.146  14.959
14956W        W83350  10.535   7.324   2.642
14957W        W83351  21.584  36.058  11.012
14958W        W83352  33.446  37.564  12.294
14959W        W83353  44.031  16.175  10.780
14960W        W83354  32.394  12.663   4.296
14961W        W83355  23.981  37.281   0.624
14962W        W83356   3.920  33.934  14.284
14963W        W83357   9.124  38.501  13.324
14964W        W83358   0.592   3.873   2.227
14965W        W83359  39.090  34.810  10.002
14966W        W83360  32.372  11.274  14.014
14967W        W83361  16.046   3.099  12.566
14968W        W83362  18.649  18.474  11.642
14969W        W83363  24.622  37.480   3.441
14970W        W83364   7.755  33.066   3.568
14971W        W83365  24.995  16.066   1.553
14972W        W83366  37.813  24.920  13.466
14973W        W83367  13.746  35.182  12.517
14974W        W83368  16.907  27.018  13.252
14975W        W83369  41.950  22.751  10.813
14976W        W83370  19.678  27.886   0.960
14977W        W83371  19.363  18.308   4.084
14978W        W83372   0.870  44.415   4.988
14979W        W83373   6.454  25.680  12.432
14980W        W83374  18.674  32.518   1.148
14981W        W83375   1.826  33.853   0.247
14982W        W83376   4.714  34.550  14.987
14983W        W83377  12.565  42.970   3.798
14984W        W83378  17.003  24.916   2.519
14985W        W83379  38.487  25.156  14.469
14986W        W83380   3.973  22.285   0.170
14987W        W83381  15.254  41.874   2.209
14988W        W83382  10.656  12.720  12.829
14989W        W83383  43.111  16.749   3.257
14990W        W83384  18.080  10.614   1.362
14991W        W83385  44.763  36.753  11.221
14992W        W83386  25.571  13.587   0.271
14993W        W83387  12.917  36.547  11.181
14994W        W83388  31.013  27.904  11.661
14995W        W83389  43.260  22.250  13.311
14996W        W83390   5.942  26.944  13.455
14997W        W83391   4.861  26.731  14.521
14998W        W83392  37.176  29.681   5.149
14999W        W83393  31.677   9.833  11.846
15000W        W83394  43.089  26.518   1.016
15001W        W83395  35.279  24.006   3.983
15002W        W83396  33.760   5.200   2.824
15003W        W83397  33.765  21.900  14.375
15004W        W83398   1.293   7.424  13.437
15005W        W83399   2.006  30.107   0.270
15006W        W83400  35.411  41.481  13.138
15007W        W83401  28.471   1.897   0.785
15008W        W83402   0.504  38.832   2.172
15009W        W83403  10.884  29.430   0.793
15010W        W83404  40.444  17.979  11.036
15011W        W83405  44.376  25.402  11.096
15012W        W83406  40.112  42.321  13.549
15013W        W83407   3.178  43.492   4.215
15014W        W83408  28.747   8.252  13.046
15015W        W83409  22.670  24.785  11.138
15016W        W83410  27.973  14.239   1.299
15017W        W83411   6.194  38.625   4.502
15018W        W83412   4.025  24.547  11.868
15019W        W83413   1.378  44.444   4.853
15020W        W83414   6.683  18.723   1.085
15021W        W83415   1.903   5.239   3.871
15022W        W83416  28.729  14.722   0.190
15023W        W83417  29.026  42.553   9.927
15024W        W83418  31.085  16.622   2.231
15025W        W83419  26.452  44.833   1.576
15026W        W83420   3.997   1.329  14.723
15027W        W83421  20.283  15.901  10.675
15028W        W83422  42.815  41.875  12.549
15029W        W83423  26.473  36.853  14.857
15030W        W83424  35.281  11.854   1.258
15031W        W83425  15.471  14.113   0.818
15032W        W83426   6.949  33.074  14.651
15033W        W83427   0.856   9.648  11.429
15034W        W83428   5.145  28.995  12.974
15035W        W83429  14.899  27.371   0.244
15036W        W83430  16.384  36.492   9.929
15037W        W83431  19.649  23.256  14.485
15038W        W83432  18.193  11.227   2.437
15039W        W83433  11.859  32.287   2.713
15040W        W83434   6.705  35.176   1.507
15041W        W83435   6.657   0.742   1.473
15042W        W83436  29.327  25.252   0.833
15043W        W83437  20.639  43.252   3.005
15044W        W83438  32.987  14.617   0.092
15045W        W83439  42.604  33.810  13.949
15046W        W83440  12.345  36.392  14.521
15047W        W83441   9.605  17.348  10.651
15048W        W83442  38.858  35.696  14.612
15049W        W83443   9.033  11.557  10.608
15050W        W83444  40.409   5.426   3.678
15051W        W83445  26.102  17.336   2.868
15052W        W83446  38.456  12.193  14.467
15053W        W83447  34.304  11.860  14.456
15054W        W83448  43.706   9.498   2.186
15055W        W83449  42.655  17.985  11.153
15056W        W83450  37.103  17.012   3.582
15057W        W83451  35.529  16.705  12.563
15058W        W83452  36.813  30.147   2.328
15059W        W83453  28.506   2.740   0.216
15060W        W83454  43.932   7.233  14.398
15061W        W83455   1.175  25.953   1.791
15062W        W83456  12.812  36.105   1.466
15063W        W83457  37.921  42.824  13.845
15064W        W83458  38.455  29.471  11.165
15065W        W83459   8.039   8.071  13.031
15066W        W83460   0.286  43.962   3.602
15067W        W83461  21.713  12.952  10.184
15068W        W83462   7.442  10.758  10.816
15069W        W83463  43.448  11.031   0.908
15070W        W83464  17.487  31.156  12.508
15071W        W83465  36.165  19.411  11.635
15072W        W83466  20.172  43.932   3.687
15073W        W83467  41.815  12.891  12.470
15074W        W83468  44.642   7.372   4.051
15075W        W83469  14.103  20.296   3.343
15076W        W83470   6.481  32.900  13.865
15077W        W83471  32.750  43.693   1.520
15078W        W83472   0.959  42.818   3.689
15079W        W83473  10.356   9.843  10.245
15080W        W83474  44.835   1.389   0.517
15081W        W83475  29.086   0.256   3.235
15082W        W83476   3.368  10.284   3.392
15083W        W83477  21.698  12.345  13.933
15084W        W83478  35.066  14.677  11.095
15085W        W83479  32.839   6.114   4.530
15086W        W83480  10.183  24.890   1.534
15087W        W83481  18.418  12.181   4.968
15088W        W83482  15.608  15.023  10.107
15089W        W83483  11.911  42.058  11.543
15090W        W83484  34.479  23.059   3.745
15091W        W83485  28.626  25.119  13.966
15092W        W83486  41.974  22.264  14.438
15093W        W83487  28.097  25.391   1.921
15094W        W83488  42.076  40.884   4.232
15095W        W83489  44.327   8.666  14.251
15096W        W83490  33.063  17.701  11.389
15097W        W83491   1.852   8.169   3.753
15098W        W83492  22.264  32.995   1.318
15099W        W83493  18.353  34.381   2.763
15100W        W83494  37.501   9.229  12.493
15101W        W83495  19.351   5.242  14.041
15102W        W83496  36.046  38.773  11.044
15103W        W83497   7.485  36.340  11.138
15104W        W83498  20.536  22.393  10.570
15105W        W83499  33.074  42.426   4.517
15106W        W83500  43.861  42.694   0.501
15107W        W83501  27.025  39.757  12.133
15108W        W83502  25.691  14.309  10.365
15109W        W83503  12.383  26.479  12.042
15110W        W83504  33.647  33.058   0.286
15111W        W83505   8.547  38.296  13.968
15112W        W83506  33.868  42.877  10.286
15113W        W83507  21.699  26.971   5.165
15114W        W83508  36.810  44.956   4.893
15115W        W83509  44.826  20.148   3.639
15116W        W83510  25.051   7.130   4.865
15117W        W83511  33.962   9.302   1.348
15118W        W83512  19.902  39.482  13.374
15119W        W83513  40.787   6.857  10.547
15120W        W83514  29.536  35.655  10.755
15121W        W83515  23.191  36.826   1.275
15122W        W83516   2.347  20.613  13.799
15123W        W83517  43.060  13.174  14.557
15124W        W83518  26.783   9.945   0.897
15125W        W83519   7.147  34.340   2.667
15126W        W83520   6.343  13.609   2.795
15127W        W83521  33.390  24.238   1.284
15128W        W83522   9.777   8.915  11.452
15129W        W83523  30.472  24.047  10.966
15130W        W83524  18.856   3.833  11.445
15131W        W83525  22.789   3.833   0.756
15132W        W83526  36.273  39.990   1.252
15133W        W83527  19.195  15.705  13.762
15134W        W83528   7.425  37.868   4.943
15135W        W83529  30.490  24.759   2.484
15136W        W83530   2.553   6.032  14.153
15137W        W83531  19.644  23.139   0.003
15138W        W83532   6.755  36.700  11.581
15139W        W83533  43.421  39.618  10.387
15140W        W83534  15.188   5.987  12.053
15141W        W83535  11.775  17.962   1.769
15142W        W83536  12.847  32.698   2.788
15143W        W83537  11.634  28.537  10.915
15144W        W83538  37.589  38.899  13.889
15145W        W83539  19.021  18.871  13.365
15146W        W83540  24.906  40.916   3.782
15147W        W83541   6.357   0.341   1.714
15148W        W83542  44.255  30.610   2.786
15149W        W83543   7.932  28.180   4.181
15150W        W83544  20.124  43.754  11.638
15151W        W83545  11.517  41.107  12.101
15152W        W83546  36.052  34.680  13.499
15153W        W83547  40.248  41.638  12.526
15154W        W83548  13.280  12.663   0.325
15155W        W83549  34.593  11.797  12.528
15156W        W83550  42.272  42.405  11.496
15157W        W83551  23.713   8.657  11.061
15158W        W83552  36.403  15.423   3.769
15159W        W83553  40.392  17.325   1.845
15160W        W83554   2.839  36.033   1.640
15161W        W83555   3.850  25.088   3.863
15162W        W83556  13.284  12.976   3.724
15163W        W83557  30.469  11.803   0.694
15164W        W83558  38.045  16.695  13.292
15165W        W83559  12.037  15.054   0.816
15166W        W83560  28.964  28.594   4.115
15167W        W83561   9.823  16.622  11.238
15168W        W83562  29.602  21.028  13.343
15169W        W83563   4.592   7.944  11.569
15170W        W83564  13.765  41.439   0.859
15171W        W83565  24.013   7.079  10.842
15172W        W83566   7.257  25.679  13.348
15173W        W83567  41.170   6.360   4.197
15174W        W83568  31.391  16.633   2.682
15175W        W83569  29.193  14.751   1.744
15176W        W83570  43.298   3.251  14.473
15177W        W83571  38.947  43.109  14.362
15178W        W83572  23.325   7.086   0.073
15179W        W83573  12.348  39.511  10.944
15180W        W83574   8.441  37.574   2.668
15181W        W83575  20.834  15.004   1.362
15182W        W83576  28.514  25.866   2.297
15183W        W83577  16.667  35.214   3.242
15184W        W83578  28.098  20.532   2.290
15185W        W83579  35.621   1.639   1.517
15186W        W83580  43.296  25.523   1.063
15187W        W83581  42.593  19.352   2.331
15188W        W83582   5.517   5.361   3.149
15189W        W83583  23.258  29.459  11.656
15190W        W83584  12.270  23.460   0.429
15191W        W83585  36.667  41.060   1.403
15192W        W83586   3.055   7.405   4.059
15193W        W83587   2.191  35.665   2.123
15194W        W83588  32.044  22.612  14.473
15195W        W83589   4.988   9.094  10.177
15196W        W83590  24.281   6.367  14.925
15197W        W83591  40.768   9.351   3.709
15198W        W83592   3.845  31.109  13.417
15199W        W83593  10.820   1.520  13.201
15200W        W83594  36.091  22.031  10.659
15201W        W83595  19.391  16.610   5.416
15202W        W83596  10.827  34.113   4.240
15203W        W83597  40.103  22.476  12.817
15204W        W83598  28.448  19.965   0.934
15205W        W83599   7.750  20.465  11.257
15206W        W83600  12.864  25.208  10.594
15207W        W83601  12.615  39.802   0.022
15208W        W83602  11.853  25.674  13.368
15209W        W83603  41.920  36.052  13.055
15210W        W83604  25.042   9.653   4.487
15211W        W83605  30.995  31.208  10.318
15212W        W83606  34.040  41.538   1.361
15213W        W83607  39.371  27.945   0.013
15214W        W83608  35.079   5.747  13.968
15215W        W83609   3.917   9.246   1.792
15216W        W83610  33.374  18.311  14.535
15217W        W83611  39.976  32.459  10.865
15218W        W83612  31.113  33.221   3.728
15219W        W83613  13.547  24.656  11.125
15220W        W83614   0.902  28.272  12.722
15221W        W83615   1.996   4.512  11.639
15222W        W83616  33.533   0.876   1.137
15223W        W83617  17.773  23.004  10.713
15224W        W83618  11.846  26.484  13.019
15225W        W83619   3.870   1.279   1.771
15226W        W83620  11.697  25.606   3.902
15227W        W83621  40.020  41.934  14.414
15228W        W83622  28.605   3.824   0.893
15229W        W83623  24.508   7.165   0.405
15230W        W83624  17.561   4.050   0.253
15231W        W83625  22.741  35.071   4.082
15232W        W83626  31.609  27.911   3.817
15233W        W83627  19.603  21.251  13.046
15234W        W83628  20.632  17.834   4.423
15235W        W83629  36.484  12.086   1.660
15236W        W83630   9.830  24.237  14.896
15237W        W83631  41.850  15.996   0.277
15238W        W83632  19.191   0.981   2.549
15239W        W83633   9.607  34.113   1.230
15240W        W83634  20.117  26.419  14.946
15241W        W83635  17.594  24.872   4.171
15242W        W83636   2.388  29.200   2.222
15243W        W83637  38.483   0.577   2.631
15244W        W83638  41.491  30.900   1.959
15245W        W83639  11.788   0.806   1.547
15246W        W83640  39.966  14.636   0.147
15247W        W83641  13.368   3.895  10.349
15248W        W83642   2.000   4.854  13.022
15249W        W83643  28.479  27.075  12.725
15250W        W83644  18.673  29.492  13.437
15251W        W83645   4.692  13.688   0.936
15252W        W83646  12.005   5.707  12.942
15253W        W83647  34.696  37.367   4.482
15254W        W83648   4.839  22.261   3.846
15255W        W83649  20.964  12.257   1.911
15256W        W83650  37.393  28.350  14.396
15257W        W83651  16.263  20.568  14.787
15258W        W83652  30.281  32.759  11.518
15259W        W83653  12.404   5.306   2.272
15260W        W83654   6.923  29.063   3.667
15261W        W83655  24.379  39.499  13.794
15262W        W83656  26.728  34.147   3.601
15263W        W83657  32.153  27.235   0.772
15264W        W83658  40.474  32.206  10.638
15265W        W83659  21.548  19.726   2.455
15266W        W83660   2.871   6.858  13.670
15267W        W83661  23.684   6.830   4.072
15268W        W83662  17.664  29.744   1.324
15269W        W83663  33.045  20.831   2.796
15270W        W83664  22.042   2.384  14.742
15271W        W83665  40.231  11.801  14.934
15272W        W83666  39.256  20.699  14.460
15273W        W83667  17.048   1.470  13.812
15274W        W83668  42.329  18.686  11.930
15275W        W83669  43.035   0.270   4.098
15276W        W83670   6.921   4.398  12.196
15277W        W83671  17.254  41.029  10.485
15278W        W83672   8.389  34.867   3.851
15279W        W83673  19.006   1.823   4.157
15280W        W83674   2.197  26.342  11.621
15281W        W83675   2.680  30.581  12.120
15282W        W83676  33.333   7.712   3.905
15283W        W83677  35.788   1.989   2.709
15284W        W83678  38.461  43.455   3.258
15285W        W83679  40.792  20.217   3.601
15286W        W83680  32.844  35.365   3.650
15287W        W83681  26.450  17.934   0.980
15288W        W83682  19.809  23.162   2.327
15289W        W83683  38.834  35.772  10.987
15290W        W83684  44.032  41.939   3.199
15291W        W83685  14.685  20.868  13.049
15292W        W83686  32.411   4.671  11.982
15293W        W83687   7.687  28.214  14.711
15294W        W83688  44.215  15.504  12.620
15295W        W83689  31.852  29.857   4.801
15296W        W83690  11.831  42.590  14.409
15297W        W83691  39.647  11.739  12.485
15298W        W83692  24.217  21.510   0.831
15299W        W83693   4.373   1.081  13.440
15300W        W83694  36.022  37.872  12.463
15301W        W83695  18.629  25.071  12.613
15302W        W83696  25.558   2.581   2.490
15303W        W83697  16.235  30.404  12.505
15304W        W83698  43.659  24.447   3.339
15305W        W83699  26.193  22.615  14.967
15306W        W83700  44.323  34.339   2.276
15307W        W83701   8.927  23.062  13.425
15308W        W83702  21.646  26.705   2.532
15309W        W83703  29.061  18.122  14.333
15310W        W83704   3.331  40.210  12.897
15311W        W83705  43.250  37.867  11.529
15312W        W83706  35.618   6.331  13.498
15313W        W83707  39.873  42.569  12.442
15314W        W83708  32.149   4.521   1.872
15315W        W83709  30.420  44.790  13.556
15316W        W83710  20.854   4.496   0.454
15317W        W83711  36.820  22.756  12.796
15318W        W83712  22.678  34.559   4.312
15319W        W83713  29.808  32.418   2.937
15320W        W83714   5.094  11.737   3.475
15321W        W83715  38.549  15.630   1.392
15322W        W83716  33.067   5.140   4.874
15323W        W83717  18.280  23.439   0.395
15324W        W83718  43.591  36.460  13.455
15325W        W83719  39.100  21.278  10.949
15326W        W83720  37.078  32.728  13.769
15327W        W83721  17.784  38.591   3.863
15328W        W83722  21.043  23.356  14.978
15329W        W83723  37.856  19.315   4.558
15330W        W83724  14.880  19.135  13.074
15331W        W83725  20.537  15.094  10.749
15332W        W83726  12.280   7.145   2.354
15333W        W83727  33.924  37.829   4.820
15334W        W83728  20.223  42.302  13.927
15335W        W83729   4.496  35.169   2.676
15336W        W83730  39.482  13.264   2.605
15337W        W83731   9.592  28.559  12.560
15338W        W83732  13.705   1.331   4.340
15339W        W83733  19.705  40.564  11.917
15340W        W83734  19.968  21.284  11.218
15341W        W83735   9.320   2.043  11.468
15342W        W83736   6.718  16.484   3.999
15343W        W83737   9.609  42.949  12.219
15344W        W83738   6.611  22.628   0.031
15345W        W83739   3.501  16.013   3.580
15346W        W83740  15.959   7.729  14.273
15347W        W83741  12.258   6.920  13.829
15348W        W83742  42.277  35.524   1.258
15349W        W83743  18.200  15.762  11.995
15350W        W83744  31.666   3.431   4.563
15351W        W83745  27.134   5.204   2.846
15352W        W83746  18.746  39.476  14.837
15353W        W83747  15.100  19.130   3.343
15354W        W83748  36.535  17.272  11.379
15355W        W83749   5.093  26.635  11.042
15356W        W83750  39.759  29.332   4.046
15357W        W83751   8.894   8.478  10.887
15358W        W83752  33.814  32.521   0.337
15359W        W83753  34.159  40.050   0.699
15360W        W83754  13.754  25.401  11.143
15361W        W83755   7.688  13.172  10.695
15362W        W83756   2.363  13.683  11.969
15363W        W83757  28.979  24.778   3.185
15364W        W83758   4.695   5.329  13.345
15365W        W83759  32.573  34.580  13.343
15366W        W83760  34.307  30.582   4.639
15367W        W83761   3.728  41.862  11.644
15368W        W83762  20.014  32.039  13.410
15369W        W83763  43.082  37.289   1.315
15370W        W83764  38.907  23.929  13.613
15371W        W83765  29.644  38.503  13.496
15372W        W83766  13.869  18.524   4.652
15373W        W83767  10.320   5.499   2.585
15374W        W83768  39.647   1.284   3.596
15375W        W83769   4.469  15.297   5.436
15376W        W83770  16.551  12.889   4.088
15377W        W83771  29.410  20.788   0.246
15378W        W83772  37.541  29.137  13.577
15379W        W83773  43.671  12.695  13.415
15380W        W83774   0.121  26.210   1.870
15381W        W83775  16.698   2.689   3.646
15382W        W83776  18.513   6.318   2.283
15383W        W83777   1.570  44.840   0.672
15384W        W83778  37.533  22.675   1.828
15385W        W83779  22.955   7.741  13.581
15386W        W83780  19.110  41.795   0.419
15387W        W83781  18.743  25.140  13.106
15388W        W83782  28.126  24.141   0.447
15389W        W83783  20.690  32.963   2.318
15390W        W83784   9.444  37.217   3.624
15391W        W83785  11.233  44.330   4.184
15392W        W83786  37.430   8.197  13.595
15393W        W83787  36.319  25.489  11.811
15394W        W83788  43.065  26.574   4.727
15395W        W83789  40.841  18.473  13.926
15396W        W83790  23.542  38.510  13.796
15397W        W83791  22.314  25.037   1.334
15398W        W83792  15.846   3.152  13.054
15399W        W83793  23.110  41.743  12.862
15400W        W83794  23.690  18.000   4.780
15401W        W83795  14.115   9.759  10.582
15402W        W83796   0.814  39.240  12.979
15403W        W83797  14.655   8.144   1.261
15404W        W83798   3.722   8.338   1.753
15405W        W83799  33.627   7.134   0.357
15406W        W83800   1.392  17.387  12.416
15407W        W83801  38.805  11.326  12.579
15408W        W83802   3.828  22.002   2.921
15409W        W83803  15.549  38.270   0.477
15410W        W83804  28.990   9.292  13.543
15411W        W83805  42.411  35.008   2.566
15412W        W83806  25.168  13.956   1.502
15413W        W83807  25.676  33.428   1.914
15414W        W83808   4.474  33.371  13.845
15415W        W83809  28.001   7.884   2.228
15416W        W83810   8.681  20.100   3.185
15417W        W83811  15.180  35.816   1.435
15418W        W83812  26.583  20.593   0.666
15419W        W83813  35.025  28.002   4.048
15420W        W83814  33.449  30.126   1.615
15421W        W83815  25.812  17.546  10.235
15422W        W83816  29.441   3.233   3.461
15423W        W83817  42.770   6.759  10.920
15424W        W83818  30.622  38.407  12.108
15425W        W83819  22.339  31.680  13.280
15426W        W83820   3.526   8.696  11.615
15427W        W83821  32.959  30.929   3.121
15428W        W83822  13.630  18.596  10.659
15429W        W83823  16.633  39.589   1.720
15430W        W83824  32.423  39.902  12.866
15431W        W83825  28.939  25.598   2.375
15432W        W83826  17.301  25.692  13.426
15433W        W83827  26.924  20.283   3.507
15434W        W83828   9.314  43.279   2.374
15435W        W83829  25.030  28.762   1.341
15436W        W83830  19.092  12.663  12.071
15437W        W83831  28.853  28.196   1.180
15438W        W83832  27.661  10.403   1.005
15439W        W83833  37.790   9.690   1.326
15440W        W83834   5.769   8.844   1.383
15441W        W83835  43.874   4.824  12.865
15442W        W83836  22.091  16.627   0.536
15443W        W83837  40.587  17.663   1.229
15444W        W83838  44.240  41.581  11.078
15445W        W83839  23.554  24.201   3.211
15446W        W83840  20.803  40.359   5.084
15447W        W83841   1.493  33.104   0.409
15448W        W83842  15.863   2.434   0.649
15449W        W83843   9.268  44.002  13.144
15450W        W83844   2.206  24.163  14.907
15451W        W83845  22.785  11.897  13.447
15452W        W83846  23.038  31.186  13.378
15453W        W83847   2.800  18.505   1.779
15454W        W83848  43.613  42.851  12.382
15455W        W83849  40.036  19.624  11.990
15456W        W83850  44.274  15.509  13.522
15457W        W83851   5.964  24.581  14.798
15458W        W83852   5.765  42.414  12.554
15459W        W83853   8.208  21.136   4.988
15460W        W83854  20.623  42.280   3.442
15461W        W83855  26.137  26.639   3.620
15462W        W83856  38.892  22.455   4.438
15463W        W83857  12.189   5.875  11.624
15464W        W83858  31.058  13.017  14.059
15465W        W83859  33.343   3.375   4.858
15466W        W83860  41.273  33.352  11.135
15467W        W83861  44.942   4.881  11.157
15468W        W83862  24.269  21.007  11.981
15469W        W83863  18.560  36.932  11.447
15470W        W83864   4.476  17.869   0.314
15471W        W83865  29.399  27.944   1.885
15472W        W83866  33.233  15.331   3.188
15473W        W83867  29.158  16.747   4.779
15474W        W83868  39.981  16.623   0.997
15475W        W83869   4.882  42.346   2.860
15476W        W83870   6.729  44.296   2.431
15477W        W83871  14.985   6.981  12.033
15478W        W83872  38.801  31.552  12.301
15479W        W83873  40.752  30.386  11.649
15480W        W83874  43.281  27.502   2.330
15481W        W83875  12.807  19.307   3.970
15482W        W83876  29.173  39.220  14.565
15483W        W83877  25.167  40.883  12.801
15484W        W83878  15.825  14.866  13.985
15485W        W83879  31.600   0.794   3.756
15486W        W83880  40.633  26.470   0.702
15487W        W83881  32.483  44.444   3.088
15488W        W83882  33.409  33.428   3.296
15489W        W83883  37.253  27.963   2.286
15490W        W83884  13.835  30.733   2.140
15491W        W83885  19.538  30.931  11.538
15492W        W83886   0.735  30.828   3.663
15493W        W83887  10.840   7.964  13.344
15494W        W83888  44.539  29.192   1.331
15495W        W83889  13.718  13.757  11.736
15496W        W83890  15.922  30.412  11.173
15497W        W83891  37.865  44.087  14.430
15498W        W83892  40.381  17.492  11.907
15499W        W83893   5.349   7.606  13.517
15500W        W83894  40.530  19.070  11.178
15501W        W83895  37.399  14.916   4.181
15502W        W83896  28.740  10.554  10.713
15503W        W83897   7.196  30.512  14.072
15504W        W83898  43.800   4.033   1.193
15505W        W83899  43.889  24.736  11.544
15506W        W83900  18.059  15.488   0.299
15507W        W83901  43.031  10.722   0.868
15508W        W83902   0.017  43.044   3.753
15509W        W83903  16.288   2.311  12.681
15510W        W83904  15.203  29.161  12.949
15511W        W83905  44.442   7.183  14.499
15512W        W83906  44.958   5.907   2.683
15513W        W83907  11.280   6.286  12.638
15514W        W83908  17.104  19.684   3.930
15515W        W83909  33.569  14.951   0.682
15516W        W83910  32.696  28.508   3.089
15517W        W83911  27.892   4.335   3.338
15518W        W83912  43.346   9.653  12.837
15519W        W83913  32.095   0.895  14.408
15520W        W83914  41.350  41.030   3.249
15521W        W83915   1.663  19.795  11.575
15522W        W83916  11.463  23.722   1.301
15523W        W83917  26.711   2.731  11.683
15524W        W83918  25.652  30.648  12.146
15525W        W83919  25.353  33.578   3.868
15526W        W83920  32.900  40.114   4.266
15527W        W83921  11.813  11.303   3.331
15528W        W83922  35.952  32.168  11.685
15529W        W83923  30.026  37.037   4.191
15530W        W83924  31.923  39.450   0.062
15531W        W83925  40.805   5.422  14.308
15532W        W83926   9.034  31.373   3.379
15533W        W83927  43.342   9.191  12.343
15534W        W83928  13.739  16.355   3.349
15535W        W83929  36.845  34.622   0.737
15536W        W83930  14.043  22.418  11.281
15537W        W83931  12.393  22.592   0.542
15538W        W83932  15.490   1.999   4.434
15539W        W83933  40.825  34.029   0.975
15540W        W83934   2.091  25.032  12.950
15541W        W83935  17.730  21.544   0.890
15542W        W83936  20.312  18.192  13.061
15543W        W83937  26.932  32.402  14.289
15544W        W83938  18.618  37.540  13.745
15545W        W83939  15.827  25.669   2.615
15546W        W83940  14.525   7.885  12.014
15547W        W83941  20.127  21.196  12.609
15548W        W83942  39.981  25.403  13.628
15549W        W83943  42.306  31.757   2.810
15550W        W83944  34.089   4.688   0.771
15551W        W83945   4.757  20.699  13.123
15552W        W83946  10.293  31.429   1.038
15553W        W83947   7.145  22.223   0.789
15554W        W83948   8.198   9.845   4.656
15555W        W83949  36.563  23.077   2.993
15556W        W83950  32.427   8.367  11.183
15557W        W83951  33.152  39.001   3.603
15558W        W83952  22.020  17.609   1.770
15559W        W83953  41.737   3.445   4.603
15560W        W83954  20.763  29.043   4.097
15561W        W83955  27.687  43.931  11.953
15562W        W83956  14.616  43.079   2.378
15563W        W83957  20.930  30.640   1.739
15564W        W83958  38.396   1.200   3.118
15565W        W83959   2.528  37.338  14.522
15566W        W83960  24.602  28.760   3.148
15567W        W83961  32.991  39.878  13.558
15568W        W83962  20.201  21.025  12.138
15569W        W83963  34.157   8.419   1.906
15570W        W83964  11.133  32.088   2.347
15571W        W83965  35.856  24.297  12.860
15572W        W83966  30.415  31.835  11.535
15573W        W83967  27.924  38.282   1.358
15574W        W83968  33.711  34.391   3.724
15575W        W83969   7.331  28.194   2.125
15576W        W83970  12.401  19.214  11.520
15577W        W83971  33.983  10.096   5.239
15578W        W83972   9.050  41.503   4.160
15579W        W83973  15.774  29.363   1.407
15580W        W83974  11.408  27.608   2.168
15581W        W83975  19.285   3.933   1.938
15582W        W83976  34.003  42.142   4.122
15583W        W83977  37.263   5.245   3.999
15584W        W83978   0.932  15.008  14.953
15585W        W83979  44.978   6.201  10.807
15586W        W83980  33.496   8.401  11.149
15587W        W83981   7.729  41.010   0.184
15588W        W83982  27.645  37.967   4.750
15589W        W83983  19.824   4.313  10.759
15590W        W83984   6.005  17.836  13.359
15591W        W83985  26.048  10.374  14.952
15592W        W83986  34.409  32.432   0.241
15593W        W83987  29.888  13.065   4.395
15594W        W83988  36.872  44.603   0.402
15595W        W83989  39.505   8.349   4.374
15596W        W83990  40.043  31.530   0.845
15597W        W83991  28.158  33.398  14.933
15598W        W83992   1.421  19.107   0.707
15599W        W83993  29.712  44.395   2.262
15600W        W83994  39.957  43.309   3.765
15601W        W83995  25.928  12.885   3.725
15602W        W83996  43.706   9.342   1.286
15603W        W83997  23.503  33.645  13.974
15604W        W83998  17.642  10.097   1.712
15605W        W83999  12.256  32.814   5.061
15606W        W84000  15.783  42.774  14.787
15607W        W84001  30.865  23.561   0.408
15608W        W84002  16.196  44.286  10.481
15609W        W84003  15.357   5.158  10.774
15610W        W84004  11.538  11.659  14.324
15611W        W84005  23.554  14.268  11.710
15612W        W84006  31.884  35.180   1.740
15613W        W84007   5.039  42.301  14.392
15614W        W84008   6.761  30.926  12.950
15615W        W84009   8.670  23.551   4.090
15616W        W84010  14.486  12.122  11.150
15617W        W84011   6.360   0.974   5.087
15618W        W84012  20.843  13.880   2.844
15619W        W84013  11.654  26.927   2.185
15620W        W84014  37.337  31.339  11.413
15621W        W84015  24.329  17.653  10.822
15622W        W84016   6.277  21.604   0.086
15623W        W84017  28.374   5.703  13.506
15624W        W84018  31.134  34.029   1.714
15625W        W84019  42.055  30.972  12.927
15626W        W84020   6.472  26.114  14.056
15627W        W84021  33.900  19.308   0.397
15628W        W84022  41.220  36.458   3.293
15629W        W84023  20.246  36.549   0.297
15630W        W84024  28.402  22.086  10.898
15631W        W84025  10.349   3.287  11.653
15632W        W84026  11.243  37.766  11.039
15633W        W84027  30.128  29.709   1.684
15634W        W84028  34.199   6.832   1.554
15635W        W84029  41.037   5.570  11.603
15636W        W84030  35.855  10.176   2.811
15637W        W84031  13.235  37.347  13.126
15638W        W84032  43.975   5.966   2.376
15639W        W84033  10.742   0.988  14.969
15640W        W84034  35.320  21.798   0.717
15641W        W84035   8.700  20.171   2.211
15642W        W84036  17.675  12.148  10.809
15643W        W84037   2.963  16.705  11.501
15644W        W84038  41.541   9.678  12.507
15645W        W84039  17.028  37.116  12.625
15646W        W84040  15.479  42.525   3.423
15647W        W84041  10.819   2.198  11.633
15648W        W84042  37.609  15.052  14.408
15649W        W84043  19.194  37.854   1.806
15650W        W84044   7.901  18.078  14.498
15651W        W84045  40.262  41.809   5.031
15652W        W84046   0.450   9.069  10.853
15653W        W84047  20.351  17.254  12.982
15654W        W84048  12.166  30.946   1.812
15655W        W84049  31.081   5.781   0.199
15656W        W84050  11.952   6.167  13.567
15657W        W84051   5.584   8.992   3.683
15658W        W84052   6.217  28.242   0.049
15659W        W84053  42.765   5.976   2.803
15660W        W84054  35.649  34.228   4.156
15661W        W84055  10.090  35.390  12.982
15662W        W84056  31.490  31.377  10.971
15663W        W84057   7.225  27.212  11.541
15664W        W84058   2.005  22.439   5.552
15665W        W84059  44.457  42.654  11.690
15666W        W84060   9.652  25.795  14.874
15667W        W84061  10.234   3.402   1.774
15668W        W84062  29.008  20.607  11.148
15669W        W84063   6.656  13.364  11.807
15670W        W84064  27.332  13.154  13.439
15671W        W84065  30.850  17.568  12.171
15672W        W84066   9.871  32.975   2.298
15673W        W84067  29.184  41.276   3.711
15674W        W84068  38.035  30.302  12.810
15675W        W84069  42.858  25.267  11.564
15676W        W84070  39.950  32.202   3.156
15677W        W84071  34.221  32.328   1.549
15678W        W84072   3.487  23.423  14.892
15679W        W84073  16.313   5.101  13.285
15680W        W84074   0.050  37.429  13.400
15681W        W84075  16.741   7.943  11.197
15682W        W84076  23.569  33.391  11.181
15683W        W84077  42.304  38.337   4.180
15684W        W84078  38.777  32.962   2.697
15685W        W84079  15.358  42.281   2.961
15686W        W84080  41.331  20.838  13.144
15687W        W84081  26.111  35.576   4.746
15688W        W84082  25.571   0.806   4.062
15689W        W84083  34.882   3.167  14.394
15690W        W84084  38.368  23.567  14.911
15691W        W84085   1.284  26.343  12.312
15692W        W84086  37.947  24.016  11.587
15693W        W84087   6.707  33.791  13.518
15694W        W84088   8.697   6.738   2.620
15695W        W84089  15.625  22.490  11.607
15696W        W84090  27.178  42.036   4.561
15697W        W84091  14.705  41.746   4.061
15698W        W84092  34.047   0.747   2.311
15699W        W84093  18.700  28.908   1.421
15700W        W84094  25.697  41.430   0.950
15701W        W84095  22.214   6.869  13.672
15702W        W84096  33.447  11.102  12.450
15703W        W84097   7.221  44.502  12.698
15704W        W84098  21.089  10.288  10.517
15705W        W84099   6.002   2.607   1.766
15706W        W84100  27.651  44.830   0.658
15707W        W84101  26.684  14.786   0.370
15708W        W84102  42.446   7.973  13.830
15709W        W84103   2.877  32.864  11.697
15710W        W84104  32.942   3.238   2.435
15711W        W84105  23.133   8.918  14.544
15712W        W84106  25.096  22.912   3.789
15713W        W84107  21.951  35.128   4.650
15714W        W84108  26.692  22.777   2.733
15715W        W84109  25.156  12.150   0.446
15716W        W84110   6.710   2.133   0.069
15717W        W84111  25.948  24.029   1.699
15718W        W84112  42.512  25.447  10.700
15719W        W84113   1.953  35.867  12.623
15720W        W84114  12.595  36.579   2.354
15721W        W84115  30.438  44.280  12.846
15722W        W84116  24.037  22.949   4.547
15723W        W84117  15.546   5.518   2.217
15724W        W84118  32.897  24.950  10.601
15725W        W84119  44.847  29.613   0.568
15726W        W84120  18.501  39.112   2.257
15727W        W84121  30.251  41.926   4.317
15728W        W84122  24.456   7.865  13.947
15729W        W84123   5.745  16.081  10.926
15730W        W84124   1.017  32.449  11.031
15731W        W84125   6.951  29.598   1.461
15732W        W84126  39.317  32.618  14.385
15733W        W84127  14.144  11.633   1.559
15734W        W84128  32.672  41.010  14.693
15735W        W84129   5.639  32.365  13.542
15736W        W84130  14.386  42.170   1.722
15737W        W84131  14.630   3.543   0.674
15738W        W84132  40.862   9.413  14.520
15739W        W84133  16.696  44.520   4.232
15740W        W84134  21.981  10.293   1.328
15741W        W84135  24.517  19.062   2.385
15742W        W84136  38.546  44.709   2.129
15743W        W84137  40.945  10.963   2.967
15744W        W84138  17.368   1.744  11.547
15745W        W84139  37.884  18.179  13.913
15746W        W84140  20.295  32.071   0.501
15747W        W84141  13.134  41.266  11.589
15748W        W84142  20.577  24.929  13.579
15749W        W84143  34.244  22.277   3.391
15750W        W84144  30.150  44.260   2.565
15751W        W84145  24.480   0.503  11.407
15752W        W84146   5.287  24.117   3.048
15753W        W84147  27.251   9.347   4.848
15754W        W84148  22.464  23.464  11.613
15755W        W84149  12.310   2.817   3.671
15756W        W84150   7.443  23.710   0.334
15757W        W84151  26.189  41.905   0.392
15758W        W84152  11.165  11.689  12.146
15759W        W84153  17.016  41.628   0.745
15760W        W84154  33.392  16.656  13.785
15761W        W84155  24.764  31.657  14.006
15762W        W84156  23.730  43.354   1.914
15763W        W84157  25.505  31.070   4.368
15764W        W84158  35.536  35.155  14.732
15765W        W84159  22.681  34.511   4.827
15766W        W84160  38.061  24.167  13.014
15767W        W84161  14.851  38.126  10.208
15768W        W84162   2.397  11.817  10.657
15769W        W84163  38.302  12.201  10.760
15770W        W84164   4.351  12.735   3.775
15771W        W84165   9.290  21.312  12.502
15772W        W84166  37.976  19.502   3.800
15773W        W84167  15.832  20.733  12.392
15774W        W84168  27.953  22.107  11.194
15775W        W84169   0.761  40.079  12.669
15776W        W84170  27.084  16.062  14.657
15777W        W84171  20.462  42.574  13.531
15778W        W84172  20.715   2.409  11.117
15779W        W84173  39.405  35.559  13.901
15780W        W84174  11.311  30.988   4.357
15781W        W84175   4.621  44.328  12.486
15782W        W84176   5.953  41.057   2.716
15783W        W84177  21.796  36.948   4.091
15784W        W84178  37.023  21.043  14.956
15785W        W84179  42.345  36.014   3.259
15786W        W84180   3.811  22.602  12.264
15787W        W84181  42.417  44.413  11.045
15788W        W84182  30.183   6.418  14.271
15789W        W84183   1.055   5.289   2.245
15790W        W84184  17.244  42.607   0.784
15791W        W84185  26.916  29.588   2.352
15792W        W84186  23.170  21.754   0.381
15793W        W84187   6.308   0.487  13.062
15794W        W84188  26.591  41.064   2.314
15795W        W84189  44.776  42.979  10.594
15796W        W84190   6.762  25.504  14.775
15797W        W84191  14.898  31.533   2.880
15798W        W84192   2.578  30.968   4.036
15799W        W84193  14.261  44.259   4.585
15800W        W84194  26.983  13.663  12.023
15801W        W84195  39.858  24.958  13.849
15802W        W84196  23.383  44.305  12.989
15803W        W84197  27.935  27.142   1.220
15804W        W84198  15.593   0.689  11.008
15805W        W84199   0.803  41.037   3.360
15806W        W84200  27.997  28.379  13.227
15807W        W84201  25.089  34.094   0.922
15808W        W84202  29.420  10.024   4.297
15809W        W84203  20.279  19.191   4.374
15810W        W84204   5.915  40.004  10.916
15811W        W84205  18.573  28.191   3.929
15812W        W84206  36.821   9.723   1.299
15813W        W84207  21.625  34.719  13.237
15814W        W84208  25.782  41.085  10.627
15815W        W84209   3.796   3.208  11.001
15816W        W84210  21.004  42.538  14.721
15817W        W84211  10.053   2.322  13.872
15818W        W84212  30.744  43.936   0.404
15819W        W84213  24.583   2.478   2.389
15820W        W84214  40.278   7.718  12.871
15821W        W84215  32.603  42.282  11.169
15822W        W84216  26.126  16.073   3.192
15823W        W84217  17.352  17.728   0.295
15824W        W84218  20.770   9.336  13.458
15825W        W84219  23.042   1.561  12.404
15826W        W84220  25.867  39.383   1.330
15827W        W84221  39.496  18.699  12.090
15828W        W84222  15.675   0.507   4.043
15829W        W84223  25.183   6.911   3.906
15830W        W84224  23.403   6.677  11.669
15831W        W84225  37.655  41.022   2.837
15832W        W84226  26.873  31.516  14.964
15833W        W84227  42.837  11.742   4.641
15834W        W84228  17.676  38.136   2.304
15835W        W84229  36.608  31.314   3.706
15836W        W84230  35.404  22.207   4.556
15837W        W84231   0.764  29.934   3.712
15838W        W84232  44.332   5.722   0.734
15839W        W84233  27.009   4.743   3.576
15840W        W84234  39.554  38.326  13.950
15841W        W84235   1.557  43.028   4.468
15842W        W84236  14.675  43.556  13.963
15843W        W84237  40.366  32.737  10.668
15844W        W84238  44.545  36.407   5.107
15845W        W84239  15.900   9.769  11.987
15846W        W84240  30.833   8.909  11.614
15847W        W84241  29.078  15.345  11.643
15848W        W84242  29.210   0.390  10.721
15849W        W84243  17.238  33.918  12.449
15850W        W84244  41.476  41.771   1.810
15851W        W84245  36.424   2.787   2.980
15852W        W84246   6.292  21.661  14.564
15853W        W84247  27.253  13.553  12.476
15854W        W84248   4.384  37.767   0.842
15855W        W84249  34.085   9.657   2.327
15856W        W84250  20.934  16.227   1.322
15857W        W84251  15.608  29.360   3.788
15858W        W84252   4.487   6.863   4.729
15859W        W84253  14.595   8.420  10.557
15860W        W84254  36.522   9.942   2.211
15861W        W84255   3.539  17.729  14.439
15862W        W84256  19.730  41.349  10.523
15863W        W84257  26.488  14.686  13.578
15864W        W84258  41.860  29.846   3.126
15865W        W84259  14.720  30.373   2.083
15866W        W84260  25.283  24.210  14.476
15867W        W84261  41.777  29.637  14.939
15868W        W84262  25.550  29.683   0.328
15869W        W84263  35.354  32.063   3.091
15870W        W84264  29.600  33.930  10.890
15871W        W84265  15.853   1.271  14.459
15872W        W84266  27.671  40.074  14.251
15873W        W84267  15.628  28.675   4.549
15874W        W84268  12.049  36.704   3.607
15875W        W84269  17.277  18.957  11.286
15876W        W84270  36.691  11.611   2.761
15877W        W84271  14.351   9.398  14.768
15878W        W84272  10.089   3.592   1.305
15879W        W84273  32.002  10.592  12.428
15880W        W84274   1.902  40.036   3.689
15881W        W84275  13.340  24.016   0.852
15882W        W84276  43.039  26.560  10.700
15883W        W84277  22.533  29.465   0.503
15884W        W84278  37.509  15.231  11.410
15885W        W84279   7.722  11.550  13.038
15886W        W84280  30.401  43.807  13.541
15887W        W84281  43.836   4.953   4.698
15888W        W84282   8.339   4.520  14.754
15889W        W84283  39.660  41.001  10.874
15890W        W84284  23.084  37.191  14.037
15891W        W84285  10.652  42.314  13.067
15892W        W84286   7.749  14.718  13.888
15893W        W84287  32.379  24.564  13.003
15894W        W84288  34.265   8.884  13.523
15895W        W84289  26.998  34.298   2.322
15896W        W84290  36.725  34.189   3.367
15897W        W84291  17.825  25.548  11.440
15898W        W84292  34.433  30.427  13.509
15899W        W84293  28.858  42.196  12.343
15900W        W84294  37.935  25.901   1.135
15901W        W84295  25.928   3.314  14.007
15902W        W84296  30.106  33.587   1.269
15903W        W84297  25.103   5.605  12.303
15904W        W84298   6.987   3.410  13.493
15905W        W84299   4.224   9.869   4.203
15906W        W84300  38.574  44.437  10.361
15907W        W84301  18.785  27.226  11.992
15908W        W84302  26.021   2.720   4.142
15909W        W84303  18.043   0.807   3.014
15910W        W84304   9.625  26.249   3.251
15911W        W84305   3.011  35.064  12.385
15912W        W84306   4.373  33.899  12.872
15913W        W84307  14.305   3.461   3.858
15914W        W84308  11.603  33.843   3.928
15915W        W84309  35.946  44.283   1.736
15916W        W84310  29.203  33.917   0.322
15917W        W84311  42.767  41.991  14.735
15918W        W84312  14.306  33.609  12.087
15919W        W84313  39.568  25.980  10.713
15920W        W84314   8.117   6.710   0.349
15921W        W84315  21.278   9.958  12.627
15922W        W84316  21.659  21.127   4.854
15923W        W84317  18.528  25.574   4.591
15924W        W84318  43.862  10.700   1.231
15925W        W84319  42.016  43.948   2.929
15926W        W84320   7.713   2.477  14.030
15927W        W84321  13.766   0.445  13.518
15928W        W84322  39.058  22.815  10.132
15929W        W84323  17.593  25.152   3.289
15930W        W84324   5.714  32.276   4.347
15931W        W84325  22.967  20.692   0.395
15932W        W84326  42.043   4.200   4.102
15933W        W84327   0.178  34.202  11.254
15934W        W84328  27.338  22.200  10.060
15935W        W84329  29.729   3.154  11.149
15936W        W84330  42.312  33.460   4.472
15937W        W84331  39.910   8.284   4.723
15938W        W84332  19.198  10.148   0.354
15939W        W84333  38.825   5.469  11.721
15940W        W84334  21.542  22.991   3.898
15941W        W84335  17.778  13.238   0.033
15942W        W84336  17.267  15.866  11.879
15943W        W84337  35.519  20.804   0.760
15944W        W84338   9.732   9.954   4.434
15945W        W84339   3.422   0.386  14.007
15946W        W84340  29.200   5.628  13.807
15947W        W84341   7.687  35.345   1.194
15948W        W84342  12.312  29.809   4.589
15949W        W84343  32.646   8.177   0.354
15950W        W84344  41.605   8.206  11.659
15951W        W84345  19.059  30.900   0.789
15952W        W84346  32.944  39.570   0.467
15953W        W84347  16.093  35.242   3.944
15954W        W84348  21.823  20.181   2.313
15955W        W84349  44.804   4.092  10.669
15956W        W84350  16.617  38.295  13.719
15957W        W84351   1.198   2.469   0.737
15958W        W84352  40.760  25.030  11.655
15959W        W84353  31.564  40.019  14.792
15960W        W84354   1.774  44.405  13.376
15961W        W84355  27.192   6.609   1.793
15962W        W84356  12.781  16.416   1.682
15963W        W84357  14.710  36.967   3.092
15964W        W84358  29.511  33.982   2.418
15965W        W84359  23.089  17.980  13.014
15966W        W84360  22.450  16.530  14.849
15967W        W84361   0.344  22.617   1.781
15968W        W84362  44.715  31.539   4.044
15969W        W84363   5.790  18.148   2.930
15970W        W84364  42.420   9.314   0.669
15971W        W84365   4.870  25.054  13.836
15972W        W84366  12.183  24.085   3.785
15973W        W84367  40.593   9.227  10.947
15974W        W84368   7.609   0.474  12.533
15975W        W84369  30.412  41.756  11.649
15976W        W84370  18.629  27.580   3.693
15977W        W84371  27.237   9.934  13.090
15978W        W84372   5.548  22.709   4.468
15979W        W84373   1.157  40.608  11.794
15980W        W84374  34.098  27.900  14.239
15981W        W84375  44.992  31.395  11.476
15982W        W84376  24.565  34.555  13.134
15983W        W84377   2.958  43.028   3.799
15984W        W84378   1.080  17.092   1.743
15985W        W84379  39.112  30.979  14.040
15986W        W84380  28.971  11.738  12.032
15987W        W84381  34.212   6.941   4.124
15988W        W84382  28.683  43.484  11.678
15989W        W84383  17.342  30.896   2.686
15990W        W84384  43.024  21.700  13.505
15991W        W84385   3.317  15.357  10.503
15992W        W84386  15.610  13.653   3.620
15993W        W84387  17.156  20.647  13.026
15994W        W84388  12.234  10.381  13.947
15995W        W84389  22.861  39.613   2.277
15996W        W84390  43.417  35.708   0.271
15997W        W84391   2.768  15.620   4.063
15998W        W84392   1.461  25.147   0.475
15999W        W84393  43.959  40.875   3.715
16000W        W84394  16.766  44.461  11.839
16001W        W84395  31.997  38.562  13.742
16002W        W84396   6.697  17.651  11.690
16003W        W84397  33.528  40.270   4.656
16004W        W84398  24.121  44.259   3.430
16005W        W84399   3.733  18.971  14.132
16006W        W84400  41.366   0.877  11.031
16007W        W84401  17.225   2.172  12.726
16008W        W84402  29.630  18.218   1.861
16009W        W84403   5.415   9.246   1.291
16010W        W84404  33.872  16.280  13.592
16011W        W84405  43.843  24.991  12.090
16012W        W84406  40.730  14.611  13.489
16013W        W84407  38.567  36.607  11.897
16014W        W84408  14.355   9.569   2.738
16015W        W84409  26.159  24.451  13.037
16016W        W84410  30.000  10.178   2.777
16017W        W84411  41.266  41.367  12.451
16018W        W84412   3.964   7.393  11.446
16019W        W84413  35.979   1.070   4.035
16020W        W84414  43.880   8.948  13.079
16021W        W84415  27.403  11.431   1.224
16022W        W84416  17.514  20.544  14.777
16023W        W84417  30.464  44.741   1.748
16024W        W84418   5.815  42.743   5.049
16025W        W84419  12.049  36.713  11.995
16026W        W84420  32.965  27.718  12.460
16027W        W84421  35.520  10.834   4.601
16028W        W84422  22.684  32.148  13.834
16029W        W84423  18.620  37.828   1.851
16030W        W84424  30.598  29.713  10.837
16031W        W84425   3.739  19.749  10.662
16032W        W84426   4.132  19.738   3.800
16033W        W84427  30.893  22.112   1.617
16034W        W84428  16.624   2.112   0.304
16035W        W84429   1.266  31.668  11.622
16036W        W84430   4.906  18.165   1.005
16037W        W84431   1.058  32.826   0.869
16038W        W84432  35.477  14.417   0.583
16039W        W84433  11.734  11.093   2.867
16040W        W84434  15.652  16.395  10.264
16041W        W84435  42.284  17.650  13.056
16042W        W84436   9.314  39.898  11.392
16043W        W84437   0.421   8.952   1.448
16044W        W84438  38.451  14.813  11.105
16045W        W84439   8.331  19.048   3.684
16046W        W84440  12.655   1.849  12.802
16047W        W84441  15.845  18.562   3.397
16048W        W84442   9.742  12.864   4.113
16049W        W84443  24.358  18.162   3.196
16050W        W84444  43.282  24.184   3.537
16051W        W84445   6.383  26.700   0.606
16052W        W84446   6.217  13.391   1.817
16053W        W84447  22.448   8.871   1.959
16054W        W84448  31.005  18.796  13.242
16055W        W84449  16.885  10.118   1.684
16056W        W84450   2.145  25.266   3.047
16057W        W84451  20.431  29.412   2.391
16058W        W84452  41.345  18.664   4.124
16059W        W84453  25.975  33.825  12.554
16060W        W84454   9.685  23.027  11.533
16061W        W84455  38.446   3.435   4.329
16062W        W84456  38.416  41.532   3.068
16063W        W84457  21.025  25.804  14.546
16064W        W84458  42.551  27.686  11.261
16065W        W84459  38.889  26.186   3.731
16066W        W84460  19.902  17.238   4.593
16067W        W84461  28.391  40.193   1.959
16068W        W84462   2.839   9.552   2.839
16069W        W84463  38.848  12.341  11.631
16070W        W84464  29.449  30.895  13.434
16071W        W84465  19.821  30.840   1.861
16072W        W84466   0.423  40.973  14.734
16073W        W84467  38.612   6.384  10.935
16074W        W84468  21.479  23.963   2.137
16075W        W84469  16.122  36.189   4.217
16076W        W84470   9.482  31.827  12.921
16077W        W84471  18.059  15.265  12.081
16078W        W84472  30.652  26.171  11.059
16079W        W84473  16.873  36.912  11.559
16080W        W84474   5.812  35.177  10.769
16081W        W84475   8.329  25.193  13.083
16082W        W84476   8.899  25.502   3.697
16083W        W84477   5.829  32.679   2.697
16084W        W84478  20.020  18.561  14.484
16085W        W84479  39.150  19.477  13.386
16086W        W84480   3.238   1.930   0.451
16087W        W84481  10.821  16.686   0.791
16088W        W84482  27.149  34.079   0.038
16089W        W84483  30.425  24.470   4.184
16090W        W84484  43.187  27.605  11.453
16091W        W84485  10.736  39.552   0.311
16092W        W84486   5.112  37.575   2.536
16093W        W84487  13.621   4.452  11.501
16094W        W84488  33.487  14.861   3.188
16095W        W84489  27.446  11.757   2.278
16096W        W84490   6.725  25.811   4.554
16097W        W84491   5.651  10.902   3.234
16098W        W84492  40.877  42.233  14.981
16099W        W84493  44.381  14.274   4.667
16100W        W84494  30.748  11.617  10.716
16101W        W84495   2.735   2.393  13.491
16102W        W84496  32.038   9.438   3.681
16103W        W84497  36.056  20.309  12.163
16104W        W84498  19.202  26.135   0.793
16105W        W84499  10.226  30.948  12.888
16106W        W84500  18.478  31.696   2.471
16107W        W84501  21.723  36.563   0.209
16108W        W84502  14.713  43.712   0.856
16109W        W84503  19.155  42.663  14.013
16110W        W84504  18.096   3.373   3.689
16111W        W84505  10.415  33.688  14.981
16112W        W84506  19.434  44.413  12.585
16113W        W84507  22.942   1.345   2.545
16114W        W84508  43.849  41.352  13.042
16115W        W84509   2.490  40.980   1.989
16116W        W84510   8.306  29.387   1.388
16117W        W84511  34.361  34.171  10.586
16118W        W84512   2.054  22.761   3.290
16119W        W84513  19.519  21.203   4.621
16120W        W84514  31.636   6.704  12.011
16121W        W84515  39.942  15.592   0.361
16122W        W84516  12.878  38.637  13.127
16123W        W84517   7.964   8.230   4.066
16124W        W84518  43.174  33.879   3.050
16125W        W84519  37.995  10.620  11.029
16126W        W84520  25.687  22.777   2.688
16127W        W84521  26.399  27.890  12.371
16128W        W84522  19.603  33.341  14.523
16129W        W84523  23.481  23.137   1.483
16130W        W84524  27.263  26.712  12.494
16131W        W84525  44.875  25.692  13.767
16132W        W84526  43.430  17.487  14.313
16133W        W84527  39.575  18.984   1.342
16134W        W84528  19.820   0.894  14.982
16135W        W84529  31.714  25.543   3.998
16136W        W84530  29.616  10.126  14.890
16137W        W84531   9.987  38.727   2.576
16138W        W84532  33.524  13.654  12.688
16139W        W84533  15.670  12.449  13.407
16140W        W84534  10.134  27.545  11.274
16141W        W84535  20.159  25.152   4.640
16142W        W84536   0.939  41.821  10.691
16143W        W84537  23.177  17.297  12.192
16144W        W84538  21.603  11.414  10.498
16145W        W84539  11.630  44.042   3.204
16146W        W84540  26.788  42.375   2.716
16147W        W84541  23.732  21.214   5.291
16148W        W84542  14.488  34.451  12.917
16149W        W84543  21.928   9.435   1.281
16150W        W84544   6.610  29.161  14.974
16151W        W84545  25.237  23.770  12.428
16152W        W84546  10.089  15.394   9.924
16153W        W84547  24.038  23.137  10.792
16154W        W84548  22.444   1.837  12.108
16155W        W84549  13.800  14.377   1.305
16156W        W84550  28.759  17.996   3.700
16157W        W84551  31.906  11.489   1.825
16158W        W84552   8.717   4.855   0.461
16159W        W84553  32.747  22.604  11.102
16160W        W84554  33.556  10.095   4.113
16161W        W84555  23.709  25.923  12.928
16162W        W84556  12.532  33.008  14.367
16163W        W84557  14.364  40.612   0.845
16164W        W84558   7.653  40.031  10.656
16165W        W84559  12.869  30.860   0.395
16166W        W84560  27.948  27.577   3.290
16167W        W84561   1.942  32.839  11.852
16168W        W84562  18.579  23.884   1.244
16169W        W84563  20.528  42.019  10.979
16170W        W84564  44.099  15.716  14.013
16171W        W84565  33.597  36.518   0.325
16172W        W84566   7.296  18.658   3.573
16173W        W84567  19.557  14.146  11.489
16174W        W84568   2.826  24.319   2.217
16175W        W84569  28.098  26.891  13.680
16176W        W84570  38.895  10.020   5.189
16177W        W84571  10.954   5.821   0.427
16178W        W84572  13.373  17.059  13.329
16179W        W84573  19.222   5.889   1.251
16180W        W84574   7.794  16.549   2.676
16181W        W84575   2.388  39.875   4.413
16182W        W84576  34.963  39.579   4.722
16183W        W84577  27.432  31.330  11.115
16184W        W84578  28.170  37.756   2.668
16185W        W84579  30.658   6.896   3.125
16186W        W84580  15.652  19.946   3.218
16187W        W84581  14.327  34.805   4.293
16188W        W84582  24.515  19.999  11.685
16189W        W84583  25.517   4.054   1.356
16190W        W84584  15.590  40.348  11.869
16191W        W84585  27.619  16.203   4.187
16192W        W84586  43.738  22.093   0.845
16193W        W84587  41.516   7.882  10.543
16194W        W84588  30.116   6.453  12.258
16195W        W84589  37.223   3.750  12.015
16196W        W84590  19.340  20.539  13.066
16197W        W84591  37.597  35.835  11.516
16198W        W84592  18.075  14.704   2.968
16199W        W84593  30.518   3.157  14.276
16200W        W84594  32.459  23.239   3.365
16201W        W84595   1.326  14.577   3.205
16202W        W84596  44.385  22.531   1.260
16203W        W84597  31.346  15.053  12.612
16204W        W84598  27.755  39.385  12.484
16205W        W84599  30.622  41.821  14.948
16206W        W84600  27.517  42.148  12.540
16207W        W84601  16.099  15.738  12.399
16208W        W84602  21.638  14.158   1.857
16209W        W84603  36.511  20.999   0.284
16210W        W84604  31.569  38.467   4.225
16211W        W84605  32.182  37.796   0.364
16212W        W84606  44.494   0.506   2.890
16213W        W84607  39.606   2.945   2.778
16214W        W84608   2.758  28.927   1.122
16215W        W84609  14.233  16.770   0.751
16216W        W84610  43.549  19.577  14.923
16217W        W84611  12.211  16.718   4.331
16218W        W84612  36.593  27.769   1.245
16219W        W84613  12.799   5.393   0.055
16220W        W84614  38.083  41.797  12.061
16221W        W84615  42.394  23.274   0.870
16222W        W84616  38.865  21.823   2.624
16223W        W84617   6.771  39.256  11.900
16224W        W84618  44.304  19.540  13.884
16225W        W84619   1.973  11.322   1.267
16226W        W84620  40.423  40.366   0.120
16227W        W84621  27.494  24.132  12.000
16228W        W84622  14.676  21.517   3.237
16229W        W84623   7.098  35.451  14.007
16230W        W84624  29.960   9.358   0.423
16231W        W84625  14.139  10.791  11.898
16232W        W84626  16.088  12.631  14.997
16233W        W84627   5.348  32.118  11.514
16234W        W84628  24.347  12.740   1.199
16235W        W84629  20.149  10.000   0.250
16236W        W84630  20.048   0.463   4.650
16237W        W84631  10.442  13.269   1.693
16238W        W84632  13.652  27.959   4.689
16239W        W84633  27.806  13.322  14.398
16240W        W84634  29.602  28.664  11.580
16241W        W84635  39.984   1.055   2.263
16242W        W84636  26.689   8.249   4.405
16243W        W84637   1.266  25.587  11.343
16244W        W84638  12.788  22.592  13.684
16245W        W84639  35.113  42.283   3.378
16246W        W84640  30.640  26.512  13.163
16247W        W84641   6.971  38.035   1.643
16248W        W84642   8.450  39.431  10.696
16249W        W84643  15.078  36.984  14.086
16250W        W84644   9.681  22.709  14.854
16251W        W84645  44.240   2.021  11.732
16252W        W84646  14.692  34.546  11.942
16253W        W84647   8.677  30.569   3.896
16254W        W84648   1.050  18.735  12.593
16255W        W84649  31.009   2.198  14.965
16256W        W84650  19.201  16.373   1.350
16257W        W84651  37.353  35.389   0.913
16258W        W84652   3.953  29.720   2.674
16259W        W84653   4.759  44.512  14.377
16260W        W84654  29.604   4.231  11.601
16261W        W84655  12.790  24.271   1.741
16262W        W84656  42.726  44.066  14.405
16263W        W84657  10.298  22.812  12.660
16264W        W84658  36.010   5.984   4.130
16265W        W84659   6.691   9.726   3.159
16266W        W84660  22.967  31.711   0.462
16267W        W84661  23.025  20.755  14.053
16268W        W84662  36.860  17.100  14.996
16269W        W84663  38.778  25.681  12.451
16270W        W84664   7.198  43.566   3.220
16271W        W84665  18.273  44.419   1.707
16272W        W84666   6.822  23.724  14.005
16273W        W84667  22.796  26.168   4.996
16274W        W84668  44.358  26.614  12.564
16275W        W84669  24.049  38.240   0.977
16276W        W84670  10.644  17.390   1.323
16277W        W84671   7.744  34.464   3.817
16278W        W84672  30.588  30.887   1.355
16279W        W84673  44.359  16.269   1.985
16280W        W84674  15.347  31.380  13.430
16281W        W84675   8.167  14.645  12.903
16282W        W84676   2.973   8.288   4.354
16283W        W84677  39.886   3.737  12.133
16284W        W84678  29.546   4.173  14.653
16285W        W84679  20.226   1.915   2.926
16286W        W84680   2.322   8.878  14.804
16287W        W84681   6.285   2.734   2.607
16288W        W84682  14.857   9.804  10.751
16289W        W84683  25.550  11.853  10.658
16290W        W84684   2.395  33.135   1.507
16291W        W84685  37.407  38.803  11.004
16292W        W84686  31.001   8.865   1.955
16293W        W84687  38.771  18.193  12.190
16294W        W84688  34.506  11.372  14.377
16295W        W84689  43.074  29.166  12.663
16296W        W84690  34.115  39.434  13.487
16297W        W84691  41.036  32.365  11.189
16298W        W84692   9.181  26.713   0.405
16299W        W84693  30.498  40.716  11.654
16300W        W84694  15.712   7.802   4.266
16301W        W84695  35.871  17.251   2.992
16302W        W84696  43.600  15.841  14.898
16303W        W84697  20.698  12.448  14.651
16304W        W84698  22.514  44.704  11.100
16305W        W84699   9.809   7.919   1.216
16306W        W84700  23.984  35.739  12.151
16307W        W84701  42.804   3.595  13.524
16308W        W84702  19.116  19.965   0.821
16309W        W84703   2.864  41.117   0.155
16310W        W84704  34.333  15.349   0.120
16311W        W84705  41.455   9.182   0.731
16312W        W84706  34.014  29.120   5.055
16313W        W84707  41.711   2.283  10.659
16314W        W84708  19.382  27.990   3.706
16315W        W84709   4.724  43.277  11.317
16316W        W84710  14.323  23.713  13.446
16317W        W84711  37.030  42.926  11.520
16318W        W84712   3.967  20.996   1.423
16319W        W84713  39.344   8.313  11.424
16320W        W84714  43.545  28.683   2.236
16321W        W84715  33.140   0.328  11.607
16322W        W84716   8.966   8.817   3.692
16323W        W84717  25.093  11.773   2.846
16324W        W84718  24.081   8.162   5.357
16325W        W84719  42.153  33.222  12.254
16326W        W84720  18.309  21.292  13.096
16327W        W84721  24.095  22.179  14.769
16328W        W84722  44.442  35.927   0.372
16329W        W84723  39.125   3.948   0.472
16330W        W84724  16.711  43.343  12.571
16331W        W84725  32.760  15.171   3.332
16332W        W84726  15.034   6.563   3.256
16333W        W84727  23.065  44.071  13.443
16334W        W84728  38.709   6.718  11.878
16335W        W84729  20.552  24.950  13.026
16336W        W84730  18.195  21.565   2.168
16337W        W84731  26.145  10.607   4.131
16338W        W84732  26.507  20.493  14.376
16339W        W84733  33.871  42.271   0.869
16340W        W84734  13.433  44.414  12.913
16341W        W84735  28.286  37.626  10.743
16342W        W84736  36.506  30.768  14.784
16343W        W84737   0.914   4.110  11.125
16344W        W84738  22.906  10.900  13.126
16345W        W84739   3.871  15.966  10.670
16346W        W84740  26.113  44.918  11.747
16347W        W84741  32.165  14.379   4.868
16348W        W84742  43.871  10.415  13.005
16349W        W84743  44.179  44.841   0.072
16350W        W84744  43.240   6.452   4.216
16351W        W84745  36.009  12.556  13.000
16352W        W84746  25.081  33.070  10.664
16353W        W84747  18.510   9.892  13.769
16354W        W84748  26.950  26.003   3.680
16355W        W84749   0.351  35.166   2.623
16356W        W84750  15.758  16.855  14.928
16357W        W84751  43.783  22.538  12.622
16358W        W84752  23.460  37.539   3.585
16359W        W84753   6.409  35.173  13.177
16360W        W84754  27.735   7.222  13.625
16361W        W84755  24.036  13.249  14.444
16362W        W84756  21.535   6.795   0.248
16363W        W84757  44.330  35.036   4.132
16364W        W84758  41.652   1.318  11.164
16365W        W84759  22.582  24.581   3.251
16366W        W84760  23.234   8.440  11.170
16367W        W84761  35.326  19.914   1.591
16368W        W84762  21.805  20.228   4.249
16369W        W84763   5.386  37.424  13.518
16370W        W84764   6.393  12.208  14.292
16371W        W84765  44.534  34.854   3.691
16372W        W84766  24.084  35.948   0.516
16373W        W84767  19.623  40.479  13.855
16374W        W84768  42.589  19.124   2.820
16375W        W84769  29.160   6.255   2.307
16376W        W84770  39.354  21.118   0.277
16377W        W84771  35.504  10.410   4.325
16378W        W84772   8.217  31.632   1.385
16379W        W84773   9.130  23.694   0.796
16380W        W84774   0.419  37.811   1.265
16381W        W84775   4.049  20.743   0.964
16382W        W84776  21.508   2.500  14.013
16383W        W84777  44.924  35.079  14.386
16384W        W84778   2.160  21.211  11.692
16385W        W84779   7.301  22.508  14.507
16386W        W84780  27.016   2.169   4.704
16387W        W84781  23.188   0.139  11.676
16388W        W84782   9.128   3.382   3.254
16389W        W84783  18.271  25.903   5.131
16390W        W84784   6.339  11.410  10.727
16391W        W84785  31.029  25.825   1.648
16392W        W84786   1.775  40.318   1.950
16393W        W84787  26.852  13.856  12.508
16394W        W84788  14.206  19.300  12.301
16395W        W84789  43.862   9.118   0.839
16396W        W84790  38.865  16.790  12.005
16397W        W84791  30.044  13.332  12.587
16398W        W84792   4.224   7.985  14.920
16399W        W84793  28.555  22.215  13.805
16400W        W84794  25.841  39.885   1.228
16401W        W84795  35.370   9.369   0.258
16402W        W84796   1.709  42.472  14.310
16403W        W84797  27.427  14.777  13.593
16404W        W84798  14.602  15.838   1.814
16405W        W84799  15.153  43.697   2.019
16406W        W84800  29.371  23.161   0.598
16407W        W84801  26.705  27.389  10.925
16408W        W84802  34.473  14.352  10.653
16409W        W84803   8.910   7.722   4.970
16410W        W84804   4.988  18.878   0.355
16411W        W84805  41.411  27.459  13.826
16412W        W84806  37.721   6.829  12.228
16413W        W84807   8.529  35.873  14.164
16414W        W84808  44.405  23.986   1.225
16415W        W84809   4.475  30.787   4.105
16416W        W84810  33.927  29.018   3.713
16417W        W84811  42.844  41.575  13.000
16418W        W84812  26.986  32.215   2.788
16419W        W84813  30.587   6.237  13.534
16420W        W84814   7.466   7.439   2.745
16421W        W84815  36.006  15.114   0.165
16422W        W84816   8.791  24.536   3.598
16423W        W84817  41.265  43.794   3.845
16424W        W84818  13.749   9.326  13.556
16425W        W84819  18.581  37.459   4.058
16426W        W84820   8.723  29.441  14.400
16427W        W84821  20.106   7.485  12.102
16428W        W84822  23.966  13.354  14.971
16429W        W84823  16.513  25.232   0.791
16430W        W84824  27.568   5.786  11.628
16431W        W84825  37.040   2.008   4.624
16432W        W84826  23.526  23.739  13.654
16433W        W84827  43.839  19.614   2.327
16434W        W84828  10.697  35.526   4.014
16435W        W84829  11.115  20.674  13.325
16436W        W84830  38.285  20.569  13.343
16437W        W84831  15.213  27.173  13.861
16438W        W84832  30.971  43.472  14.806
16439W        W84833  29.048  25.609   4.604
16440W        W84834  10.456   5.650  11.477
16441W        W84835  37.433  17.651   2.379
16442W        W84836   5.812  34.531   0.722
16443W        W84837  16.525  18.052  12.458
16444W        W84838  28.530  30.197   4.122
16445W        W84839  18.702  23.116  12.969
16446W        W84840   5.536  39.933   0.565
16447W        W84841  18.581   1.811  13.763
16448W        W84842  17.540  26.763   0.334
16449W        W84843  33.979   6.764   0.522
16450W        W84844  16.368  14.473   0.495
16451W        W84845   3.956  33.978   2.707
16452W        W84846   1.896  29.265   4.200
16453W        W84847   5.123  44.261   3.795
16454W        W84848  15.052  12.652  14.771
16455W        W84849  20.991  12.788   0.648
16456W        W84850  29.364  20.240  10.505
16457W        W84851  37.486  22.685  14.400
16458W        W84852  32.993  29.015   2.451
16459W        W84853  14.564  24.145   0.367
16460W        W84854  16.318  14.435  12.364
16461W        W84855   1.741  14.144  14.262
16462W        W84856   6.268  43.901  10.822
16463W        W84857   4.124   6.980   0.788
16464W        W84858   4.777  32.007  14.952
16465W        W84859  31.017  10.398  10.189
16466W        W84860   2.440  12.087   0.735
16467W        W84861  41.029  31.389   3.207
16468W        W84862   9.977   2.582  14.587
16469W        W84863  12.073  40.813   3.538
16470W        W84864  36.097   2.840   3.735
16471W        W84865  19.534  32.947  11.404
16472W        W84866   4.585  23.529   4.327
16473W        W84867  33.087  11.075  12.040
16474W        W84868  33.556  35.342   0.909
16475W        W84869  29.567  41.506   2.341
16476W        W84870  30.190  11.355   3.473
16477W        W84871   7.312  11.548  13.378
16478W        W84872   1.819  25.255  14.293
16479W        W84873   0.486  14.535  11.395
16480W        W84874  25.737  12.144   1.713
16481W        W84875  24.708  11.202  13.512
16482W        W84876   7.398  11.143  14.512
16483W        W84877   1.438  15.643  11.488
16484W        W84878  39.582  39.160   4.220
16485W        W84879  29.530  26.568   1.876
16486W        W84880  40.338  29.090  12.074
16487W        W84881  21.994  23.961  13.082
16488W        W84882  40.507  24.203   0.670
16489W        W84883  35.385  16.125   0.900
16490W        W84884   3.323  43.741   2.376
16491W        W84885  22.616  36.545  11.651
16492W        W84886  29.193  42.385   2.327
16493W        W84887   6.171  27.022   4.663
16494W        W84888   5.522  29.765  13.529
16495W        W84889  20.206  34.903  14.268
16496W        W84890   5.778  24.633   0.403
16497W        W84891  37.449   2.708  12.044
16498W        W84892  19.827   2.488   1.415
16499W        W84893  26.525  38.564  13.971
16500W        W84894  37.292   1.427   2.173
16501W        W84895  44.270  28.989   0.885
16502W        W84896   6.917   7.171   3.210
16503W        W84897  16.387  10.132   1.172
16504W        W84898  13.499  36.084   0.401
16505W        W84899  34.466  27.044   1.750
16506W        W84900  28.477  35.983   0.853
16507W        W84901  43.221  36.498   3.027
16508W        W84902   8.262   1.481  13.868
16509W        W84903  15.660  33.010   0.465
16510W        W84904   8.142  21.142   1.927
16511W        W84905  41.524  31.111   4.964
16512W        W84906  23.532  26.138   1.774
16513W        W84907  31.547  24.130  12.368
16514W        W84908  19.288  33.512  14.117
16515W        W84909  39.489  20.264  12.806
16516W        W84910  18.851  27.157   1.403
16517W        W84911  23.883  44.991   0.007
16518W        W84912   1.257  39.820  12.987
16519W        W84913  42.000   2.894   2.737
16520W        W84914  28.576  16.367  14.417
16521W        W84915  24.919  13.191   0.788
16522W        W84916  44.634  32.030  12.137
16523W        W84917  15.161  41.374   3.086
16524W        W84918   8.743  29.614  11.982
16525W        W84919  35.339  22.688   4.762
16526W        W84920  39.373   3.783  11.524
16527W        W84921   9.074  18.073   4.251
16528W        W84922  39.656  41.849   0.304
16529W        W84923  16.079  36.214   5.027
16530W        W84924  18.249  20.573   4.240
16531W        W84925  11.110   1.750  14.899
16532W        W84926  15.364   5.121   3.371
16533W        W84927  21.729  36.177  11.954
16534W        W84928  16.012   5.591  11.511
16535W        W84929   5.048   6.800  10.225
16536W        W84930  13.663  38.466   0.960
16537W        W84931   4.204  40.732   2.205
16538W        W84932  24.397  35.984   2.294
16539W        W84933  39.874  39.546   2.212
16540W        W84934  14.176  13.368  13.984
16541W        W84935  39.325  14.585  12.913
16542W        W84936  22.237  15.632  11.160
16543W        W84937   0.352   8.766  11.708
16544W        W84938  28.016  43.525  13.782
16545W        W84939  21.347  26.224  11.940
16546W        W84940  28.541  11.792   2.270
16547W        W84941  29.439  42.517  12.429
16548W        W84942  31.564  29.486  12.521
16549W        W84943  24.765  10.277  11.178
16550W        W84944   9.277  42.016   0.826
16551W        W84945  26.160  41.161   1.113
16552W        W84946  30.956  28.256  10.370
16553W        W84947   2.015   2.103  10.593
16554W        W84948   6.224   6.347  12.924
16555W        W84949  38.956  22.500   1.509
16556W        W84950  40.998  25.993  13.849
16557W        W84951  24.173  19.124  12.655
16558W        W84952   3.297  19.084   2.358
16559W        W84953   9.817  30.064   0.328
16560W        W84954   8.106  44.987   1.875
16561W        W84955  13.603  10.301  12.712
16562W        W84956  19.171  37.722  12.961
16563W        W84957  23.122  40.464   2.417
16564W        W84958  34.103  19.999   2.813
16565W        W84959   8.597  38.837   0.835
16566W        W84960  28.734  11.336  13.853
16567W        W84961  24.542  43.693   1.732
16568W        W84962  25.524   7.561  12.879
16569W        W84963   1.217   4.676   1.870
16570W        W84964  33.703  26.855  10.669
16571W        W84965  37.445  30.669  14.527
16572W        W84966  18.857  19.494   4.610
16573W        W84967   7.738  43.502  11.517
16574W        W84968  15.741  21.759   3.653
16575W        W84969  27.023  20.455  14.287
16576W        W84970   2.643  34.851   2.355
16577W        W84971  27.477  21.596   4.651
16578W        W84972  36.678  39.770   0.711
16579W        W84973  21.913  44.830   3.203
16580W        W84974  44.933  25.494   2.398
16581W        W84975  15.679  18.179   0.348
16582W        W84976  15.137  30.478   4.457
16583W        W84977  39.593  19.422   2.193
16584W        W84978  26.703  18.618   0.056
16585W        W84979  22.004  37.059  12.330
16586W        W84980  34.390  23.236  14.536
16587W        W84981  27.693  14.838   0.295
16588W        W84982   3.842  41.212   1.388
16589W        W84983   9.986  36.161  13.042
16590W        W84984  43.790  13.091  13.038
16591W        W84985  23.175  37.791  14.148
16592W        W84986  23.740  18.082  14.865
16593W        W84987   9.186  37.471   1.500
16594W        W84988  17.778  41.909   1.103
16595W        W84989  12.483  40.460  11.549
16596W        W84990  27.840  39.093  11.129
16597W        W84991  18.901  19.606  12.558
16598W        W84992  43.512  20.742   4.593
16599W        W84993   0.307   2.433  12.330
16600W        W84994  38.548  12.107   0.480
16601W        W84995  25.233  21.077   3.140
16602W        W84996  30.090  19.601   3.042
16603W        W84997   6.107  44.339   0.145
16604W        W84998  40.839  42.996   1.916
16605W        W84999  21.061   2.045   0.472
16606W        W85000  36.762  26.401   2.963
16607W        W85001  38.787  24.900   2.347
16608W        W85002  18.851  19.650  10.002
16609W        W85003  18.519  15.261   2.385
16610W        W85004  44.826  21.342   0.092
16611W        W85005  41.817   5.447  14.456
16612W        W85006   5.394  23.145   4.690
16613W        W85007   2.985  19.663  13.074
16614W        W85008  38.365  43.527  12.022
16615W        W85009  17.564  31.243   0.385
16616W        W85010  11.179  36.582  12.363
16617W        W85011  42.969   2.671   3.100
16618W        W85012   9.406  26.055  11.967
16619W        W85013  34.450  28.998   2.828
16620W        W85014  39.088  10.537   3.148
16621W        W85015  17.206  21.734  11.553
16622W        W85016   9.373  26.150  14.092
16623W        W85017  11.531  21.505  10.950
16624W        W85018  33.514  36.908   3.370
16625W        W85019   8.849   4.906   4.612
16626W        W85020  33.925   6.219  10.474
16627W        W85021  38.763  35.464   2.879
16628W        W85022  27.971   3.538  13.821
16629W        W85023  22.964   1.993  13.620
16630W        W85024  34.881  29.673  14.275
16631W        W85025   4.565  23.773   9.781
16632W        W85026   7.205  32.490   3.412
16633W        W85027  18.553   4.924  11.069
16634W        W85028  43.968  12.277   2.675
16635W        W85029  10.318  30.533  13.955
16636W        W85030  20.279  35.914  14.907
16637W        W85031   5.415  32.936  12.820
16638W        W85032  36.517  21.822  14.858
16639W        W85033  32.188  32.170   4.096
16640W        W85034  23.299  11.176  13.969
16641W        W85035   4.485  33.027  14.246
16642W        W85036   1.411   5.415   0.791
16643W        W85037  31.534  28.701   4.259
16644W        W85038  29.431  20.085  12.516
16645W        W85039  37.554  22.197  14.240
16646W        W85040  15.530   6.317  14.373
16647W        W85041   4.684  19.080   1.838
16648W        W85042  10.779  38.589   4.299
16649W        W85043  44.827  16.742  14.830
16650W        W85044   2.692  36.128   0.285
16651W        W85045  16.802  17.560   3.235
16652W        W85046  34.670  15.021   0.357
16653W        W85047   7.261  18.023   4.804
16654W        W85048  13.285  28.522   0.552
16655W        W85049  17.390   0.292   2.764
16656W        W85050  41.335  26.565  11.014
16657W        W85051  41.313  23.760   3.159
16658W        W85052  29.552  28.037  12.959
16659W        W85053  39.832   9.093  12.476
16660W        W85054  14.277  28.621   1.445
16661W        W85055   1.159   1.560  13.468
16662W        W85056   9.683   8.196  14.769
16663W        W85057  18.672   6.497  12.468
16664W        W85058   7.832  27.161   3.720
16665W        W85059  13.899  18.775   2.071
16666W        W85060   8.733  19.573  11.103
16667W        W85061  14.562  23.857   2.020
16668W        W85062  18.727   3.214   0.244
16669W        W85063  24.571  10.129  10.721
16670W        W85064   0.277  22.626   2.341
16671W        W85065  25.557  30.326  10.332
16672W        W85066  12.811   3.171  11.976
16673W        W85067  21.692   5.699  11.070
16674W        W85068  19.208  44.261  13.036
16675W        W85069  12.176  27.014   2.414
16676W        W85070  24.124  16.752   2.557
16677W        W85071   1.590  18.337   4.685
16678W        W85072   9.345  36.597   1.804
16679W        W85073  18.028   7.358   1.467
16680W        W85074  41.190  16.876   3.159
16681W        W85075  19.736  38.993   2.746
16682W        W85076  44.959  15.042   3.066
16683W        W85077  37.616  40.414   4.652
16684W        W85078  23.562  38.309   2.783
16685W        W85079  29.162  22.266   4.771
16686W        W85080  38.491   5.697   1.392
16687W        W85081  10.798  34.623   4.016
16688W        W85082  37.582  12.345  12.150
16689W        W85083  40.551  23.464  10.868
16690W        W85084   7.868  35.114  11.552
16691W        W85085  22.430   0.114  10.703
16692W        W85086   7.165  32.451   0.868
16693W        W85087  41.451  37.941   3.131
16694W        W85088   3.004  19.186  14.531
16695W        W85089   0.278  28.694   4.185
16696W        W85090  17.053  14.631   1.319
16697W        W85091  10.305  34.579   2.821
16698W        W85092  23.977   1.913  12.163
16699W        W85093  43.681  29.866   3.908
16700W        W85094  16.079   4.476  12.919
16701W        W85095  23.485  13.580  14.372
16702W        W85096  38.051  14.829   2.181
16703W        W85097  25.620   7.891  13.412
16704W        W85098   2.233  16.269   4.763
16705W        W85099  40.390  12.883  13.961
16706W        W85100  41.387  10.152   1.954
16707W        W85101  13.197   3.751   1.283
16708W        W85102  36.529  34.400   1.740
16709W        W85103  22.689   1.796   2.463
16710W        W85104  10.194   5.286   3.237
16711W        W85105   9.784  38.772   1.230
16712W        W85106  15.675   5.731  11.140
16713W        W85107  28.928   0.431   2.776
16714W        W85108  35.990  11.169  14.360
16715W        W85109  29.505  44.966  12.932
16716W        W85110   2.445  13.211   2.154
16717W        W85111  43.825  36.348  11.186
16718W        W85112  14.125   2.937   4.691
16719W        W85113  19.190  24.059   1.837
16720W        W85114  21.752  26.045  11.660
16721W        W85115  31.211  17.360  14.462
16722W        W85116  34.935  34.521   4.881
16723W        W85117  17.122  32.422   1.726
16724W        W85118  31.014  18.307  14.983
16725W        W85119  17.733  39.350  11.098
16726W        W85120  34.584   8.562   1.651
16727W        W85121  16.274   4.332   2.266
16728W        W85122  44.285  26.438  14.169
16729W        W85123  21.324  24.543  12.426
16730W        W85124  32.499  42.244   0.962
16731W        W85125   1.058  41.307   4.318
16732W        W85126  25.063  42.712  10.254
16733W        W85127   3.748  10.381  14.729
16734W        W85128  21.700  18.787   0.946
16735W        W85129  43.053  24.698   2.618
16736W        W85130  35.613  17.807   0.935
16737W        W85131  17.188  17.510  12.439
16738W        W85132   2.715  14.619  11.047
16739W        W85133  24.503  22.175   4.795
16740W        W85134  31.619  23.132   0.260
16741W        W85135  27.709  15.194  10.672
16742W        W85136  35.394  43.715  12.949
16743W        W85137  31.537  44.691  12.479
16744W        W85138  43.981  41.844   0.713
16745W        W85139   5.216  28.021  11.466
16746W        W85140  27.534  27.728   4.552
16747W        W85141   6.207   3.736  13.634
16748W        W85142  10.641   8.367   1.235
16749W        W85143  12.355  34.977  14.592
16750W        W85144   1.056  34.047   0.953
16751W        W85145  36.641  28.059  11.692
16752W        W85146  37.844  35.873   2.633
16753W        W85147  41.590  18.812   4.558
16754W        W85148  24.698  30.549   2.714
16755W        W85149  28.038   7.375   1.456
16756W        W85150  40.134  12.603  13.615
16757W        W85151   0.989   7.283   0.769
16758W        W85152   5.339  23.056   1.757
16759W        W85153  18.277   4.828  12.405
16760W        W85154  34.302  17.641  12.922
16761W        W85155  31.573   6.323  11.430
16762W        W85156   3.897   2.718  10.883
16763W        W85157  24.234  17.656   0.209
16764W        W85158  35.402  17.069   2.865
16765W        W85159   1.394  26.628   2.332
16766W        W85160  22.625  16.985  14.376
16767W        W85161  32.114   5.166   4.463
16768W        W85162  42.323   0.440  10.707
16769W        W85163  19.860  43.461   4.334
16770W        W85164   1.420  33.821  14.665
16771W        W85165   5.250  18.525  13.521
16772W        W85166  19.502   6.213   4.767
16773W        W85167  24.241  35.069   2.460
16774W        W85168   2.396  25.536  14.542
16775W        W85169  33.221   5.277   1.984
16776W        W85170  14.059  20.042   3.836
16777W        W85171  23.010  18.241  13.507
16778W        W85172  17.323  28.937  11.919
16779W        W85173  32.702  22.854  13.294
16780W        W85174   0.642  31.935  13.750
16781W        W85175  26.131  42.276  12.758
16782W        W85176  24.936  32.962   4.926
16783W        W85177   8.816   7.991   3.873
16784W        W85178  14.683  32.927  12.943
16785W        W85179  38.556  23.435  12.598
16786W        W85180   5.963  34.908   2.202
16787W        W85181  34.001  40.854   2.083
16788W        W85182   7.148  39.141   5.096
16789W        W85183  26.621  31.052  10.863
16790W        W85184  34.417   5.059  14.288
16791W        W85185  25.850  13.475   0.933
16792W        W85186  10.748  16.807  12.185
16793W        W85187  35.402  34.584   3.132
16794W        W85188   1.528  39.873   0.064
16795W        W85189  32.537  15.223   4.123
16796W        W85190  29.976  25.138   1.972
16797W        W85191  28.425  21.872   0.207
16798W        W85192  17.234  13.326  10.712
16799W        W85193  43.462  29.396   2.613
16800W        W85194  26.148  22.046  10.587
16801W        W85195  11.310  22.823   1.371
16802W        W85196  29.055  35.645   3.808
16803W        W85197  26.451  19.494   4.274
16804W        W85198  10.629  37.647   1.067
16805W        W85199  12.213  42.491  10.726
16806W        W85200  26.015  31.191   3.721
16807W        W85201   9.708   4.747  10.668
16808W        W85202  38.614   9.205  13.279
16809W        W85203   1.098  16.256  13.171
16810W        W85204  17.530  29.670  11.161
16811W        W85205  19.218   9.599   0.464
16812W        W85206  10.633   0.414   3.436
16813W        W85207   3.467  20.117   1.327
16814W        W85208  17.647  43.918   4.545
16815W        W85209  41.029  29.981   0.618
16816W        W85210  32.958   5.820  12.781
16817W        W85211  13.420   4.810  10.736
16818W        W85212  30.064  34.732   2.000
16819W        W85213  31.038  32.391   4.199
16820W        W85214   6.225  38.824  13.553
16821W        W85215  17.262  37.968   3.407
16822W        W85216  39.230  40.584   2.327
16823W        W85217  10.502  35.569  14.274
16824W        W85218  36.418  28.064  13.920
16825W        W85219  44.766   5.654   4.031
16826W        W85220  24.568   2.330   0.210
16827W        W85221  36.528  35.090  10.712
16828W        W85222   5.201  23.787  10.265
16829W        W85223  24.018  35.444   3.939
16830W        W85224  27.605   9.798  13.944
16831W        W85225   7.943  18.508   2.790
16832W        W85226  38.067  38.388  11.991
16833W        W85227  17.312  42.562   1.756
16834W        W85228  12.889  19.595  13.969
16835W        W85229  37.788  39.046  14.362
16836W        W85230   7.372   2.405   2.302
16837W        W85231  24.453  28.408  11.218
16838W        W85232  43.755  41.012  11.985
16839W        W85233   4.997   9.811  12.003
16840W        W85234  41.721  33.586   1.312
16841W        W85235   6.400   0.365   2.729
16842W        W85236  34.668  27.802  11.059
16843W        W85237  21.241  34.985   3.476
16844W        W85238  17.387  27.933  12.805
16845W        W85239  29.493  35.308   0.325
16846W        W85240  20.435   2.452   1.010
16847W        W85241   6.243  22.087   3.827
16848W        W85242  44.900  16.815   3.204
16849W        W85243  20.753  23.053  13.120
16850W        W85244  25.268   4.974   3.248
16851W        W85245  27.371  27.943   3.632
16852W        W85246   1.304  33.916  13.118
16853W        W85247  26.616  32.147   3.139
16854W        W85248  38.625  33.745   4.929
16855W        W85249  26.402  22.810  10.947
16856W        W85250   7.000  42.465   2.761
16857W        W85251  31.934  21.669  13.656
16858W        W85252  17.543  38.410   3.452
16859W        W85253  29.391  27.085   1.805
16860W        W85254   6.863  25.732  10.322
16861W        W85255  22.739  29.146  11.874
16862W        W85256   7.541  11.716  12.276
16863W        W85257  33.045   2.825   2.105
16864W        W85258  11.072  15.713  12.929
16865W        W85259  32.664  29.030  11.237
16866W        W85260  37.687  11.211  14.016
16867W        W85261  10.410  16.037   5.042
16868W        W85262  34.935  33.990  14.355
16869W        W85263   3.180  43.665   0.085
16870W        W85264  28.468  10.865  13.960
16871W        W85265  10.245  23.203   1.562
16872W        W85266  23.169   1.988   2.181
16873W        W85267  41.508  10.129   2.818
16874W        W85268  41.984   4.656  13.330
16875W        W85269   8.836  38.398   0.697
16876W        W85270  43.601  25.936  14.119
16877W        W85271  11.268  23.720  11.614
16878W        W85272  21.984  32.269  11.034
16879W        W85273   9.872  32.214   4.576
16880W        W85274  23.740  13.059   2.256
16881W        W85275  11.129  34.501   3.634
16882W        W85276  20.289  44.854   4.758
16883W        W85277  29.168  26.575   2.788
16884W        W85278  17.856  17.813  11.285
16885W        W85279  43.335  35.469   2.379
16886W        W85280  13.672  38.073   1.331
16887W        W85281  35.510  44.290   2.458
16888W        W85282  16.367  24.693   3.169
16889W        W85283   5.692  20.478   2.282
16890W        W85284  13.716  19.715   2.445
16891W        W85285  28.630  43.394  13.553
16892W        W85286  19.780   3.293   4.138
16893W        W85287  30.494  21.943  12.602
16894W        W85288  40.770  17.522  14.846
16895W        W85289  18.751  11.839  11.957
16896W        W85290  20.087  31.549   4.526
16897W        W85291  26.532  31.818   4.968
16898W        W85292  25.978  34.560   4.105
16899W        W85293  34.597  39.307   0.717
16900W        W85294  41.382   4.196  11.476
16901W        W85295   8.660  20.067  11.245
16902W        W85296   9.322  20.829  12.929
16903W        W85297   8.045  36.385  14.258
16904W        W85298  18.176  26.721  14.814
16905W        W85299   2.666  42.101   2.766
16906W        W85300  16.319   9.360   3.253
16907W        W85301  23.456   9.452   1.421
16908W        W85302  24.748  13.838   0.290
16909W        W85303   0.366  29.070  14.301
16910W        W85304  12.102   8.891   2.670
16911W        W85305  34.740  32.633  11.601
16912W        W85306  12.078  33.237  14.429
16913W        W85307  23.869  34.126  12.832
16914W        W85308  27.702  20.494  11.202
16915W        W85309  20.106  36.604  14.303
16916W        W85310   3.148   9.832   1.443
16917W        W85311  17.322  36.827  10.683
16918W        W85312  17.708   6.089   5.011
16919W        W85313   9.230  42.197  14.795
16920W        W85314   3.661   5.575  14.994
16921W        W85315  43.950   5.288  12.621
16922W        W85316   9.828  36.473  13.454
16923W        W85317   5.734   2.890  12.495
16924W        W85318  29.950  26.686   3.206
16925W        W85319  39.784  43.558  12.769
16926W        W85320  21.967   5.391   4.576
16927W        W85321  12.591   6.423   0.858
16928W        W85322  21.894  10.913   9.750
16929W        W85323  17.605  39.269   5.390
16930W        W85324  28.132   0.963  11.961
16931W        W85325  19.168  20.843  10.588
16932W        W85326   4.179   5.011  12.457
16933W        W85327  41.313   9.896   4.412
16934W        W85328  31.595   9.783   2.386
16935W        W85329  43.734  17.365  11.068
16936W        W85330  19.789  40.985  13.053
16937W        W85331  15.628  20.744   3.694
16938W        W85332  15.014  44.009  10.695
16939W        W85333  26.015  16.102  11.426
16940W        W85334  18.707   2.264   4.822
16941W        W85335  34.583  13.748   2.683
16942W        W85336  43.145  36.986   1.772
16943W        W85337  14.530   9.217   3.622
16944W        W85338  25.088  37.732  10.991
16945W        W85339  20.953  26.996   1.595
16946W        W85340  22.633  42.452   1.955
16947W        W85341  23.542  42.916   4.092
16948W        W85342  10.991   8.089   3.220
16949W        W85343   6.599   8.767  11.058
16950W        W85344  13.295  38.549   1.922
16951W        W85345  35.503   0.743  14.879
16952W        W85346  38.381  15.770   2.349
16953W        W85347  19.946  39.374   1.837
16954W        W85348  19.509  15.240  12.150
16955W        W85349   3.952  38.367  11.166
16956W        W85350  35.485  12.741   0.750
16957W        W85351  39.258  31.068   1.724
16958W        W85352   2.821  38.852  13.646
16959W        W85353  37.131  29.694  11.940
16960W        W85354  13.823  21.300  10.776
16961W        W85355  35.345  26.364   3.993
16962W        W85356  12.091  31.036   0.974
16963W        W85357   0.498   8.310   4.135
16964W        W85358  28.010  24.676   0.553
16965W        W85359  21.619   5.171   1.908
16966W        W85360  20.196  39.548  10.163
16967W        W85361   3.347   3.010  11.237
16968W        W85362  41.933  11.884   3.403
16969W        W85363   2.365  19.593   3.379
16970W        W85364   8.343  20.131   3.611
16971W        W85365  16.348   5.983   2.154
16972W        W85366  18.286  44.332   3.707
16973W        W85367   6.145  37.253  11.700
16974W        W85368  36.390  41.552  10.534
16975W        W85369  39.080  10.726   1.331
16976W        W85370  32.424  11.061  14.893
16977W        W85371  23.083   1.528   4.754
16978W        W85372  33.734  24.915   5.058
16979W        W85373  25.874  11.096   2.715
16980W        W85374   6.127  29.505   3.649
16981W        W85375  20.527  18.241  14.003
16982W        W85376  17.394  42.972  12.045
16983W        W85377  37.863   7.835   4.047
16984W        W85378  31.747  10.200   0.797
16985W        W85379  40.494  16.072   3.858
16986W        W85380  26.703   6.382   4.137
16987W        W85381   4.477  16.683   0.867
16988W        W85382  30.732   9.417   5.013
16989W        W85383  38.489  15.152   1.139
16990W        W85384  25.849  16.163  12.275
16991W        W85385  43.841  32.388  14.484
16992W        W85386  20.526  37.513  14.031
16993W        W85387  20.018  17.503   1.347
16994W        W85388  25.665   4.784  10.688
16995W        W85389  21.246  21.673  11.471
16996W        W85390   6.656  27.118  10.685
16997W        W85391  13.424  43.271  14.557
16998W        W85392  26.672  14.287   4.155
16999W        W85393  36.436   9.163  11.760
17000W        W85394  20.502  16.265   0.962
17001W        W85395  17.285  41.301   2.150
17002W        W85396  40.537  40.078  13.441
17003W        W85397  20.554  35.124  13.942
17004W        W85398  14.169  34.547  12.017
17005W        W85399  36.694  11.889  11.137
17006W        W85400  37.277  26.795  10.700
17007W        W85401  12.822  36.560  12.530
17008W        W85402   7.935  31.634   1.846
17009W        W85403  43.598   8.167   0.760
17010W        W85404  15.692  29.474  14.985
17011W        W85405  35.409  14.826  12.411
17012W        W85406   3.380   4.242  10.661
17013W        W85407  21.928   3.766   2.539
17014W        W85408  10.907  38.423  14.375
17015W        W85409  10.808  37.536   2.916
17016W        W85410  40.986  14.490   4.636
17017W        W85411  20.337  26.020  10.273
17018W        W85412  43.818  31.600   4.606
17019W        W85413  34.863  15.609   0.230
17020W        W85414  40.343   5.175  13.301
17021W        W85415  12.395  20.684   1.800
17022W        W85416   4.929  33.722   2.779
17023W        W85417   4.005  44.535  13.939
17024W        W85418  13.220  34.178  13.525
17025W        W85419  18.068  29.879  11.660
17026W        W85420  12.392   3.218  13.594
17027W        W85421  33.593  34.780   4.947
17028W        W85422  32.290   8.643  14.444
17029W        W85423  39.339   4.721  14.438
17030W        W85424   1.870   3.027   2.083
17031W        W85425   3.416  42.886  14.966
17032W        W85426  30.359   6.810  12.960
17033W        W85427   2.212  14.665  12.356
17034W        W85428  16.841  36.544   0.896
17035W        W85429  22.154  12.707  10.236
17036W        W85430  27.977  17.291   3.567
17037W        W85431  28.588  18.141  14.987
17038W        W85432  25.093   8.225   0.811
17039W        W85433  32.349   7.658   1.300
17040W        W85434  31.491  13.117  11.494
17041W        W85435   3.002  37.027   2.062
17042W        W85436   4.857  14.079  13.952
17043W        W85437  11.553  15.227   2.395
17044W        W85438  40.803  44.326   3.729
17045W        W85439  32.203  26.798  11.487
17046W        W85440  22.724   0.222  11.217
17047W        W85441  36.556  20.045  12.122
17048W        W85442  21.478  13.487   3.338
17049W        W85443   0.427  43.882  13.436
17050W        W85444  21.711  28.823  12.807
17051W        W85445   7.976  17.045   4.150
17052W        W85446  23.437  24.121   1.309
17053W        W85447  32.518   3.271  13.769
17054W        W85448  23.016  11.169   0.398
17055W        W85449  34.470  36.425  10.618
17056W        W85450  43.559  27.920   2.749
17057W        W85451  20.754  20.786   2.810
17058W        W85452  36.250  41.545  11.796
17059W        W85453  33.486  41.292   4.812
17060W        W85454  12.689   6.729  10.596
17061W        W85455  27.231  12.359  10.213
17062W        W85456  40.236  15.954   4.899
17063W        W85457  28.386  39.810  11.894
17064W        W85458  41.123  20.788   0.840
17065W        W85459  43.543  12.366  12.105
17066W        W85460  13.579  16.207  11.917
17067W        W85461  26.303  37.985   0.348
17068W        W85462   0.318  25.651  12.932
17069W        W85463  30.501  27.957  12.917
17070W        W85464   8.337  15.585  11.853
17071W        W85465   1.638  29.656  12.957
17072W        W85466   0.774  16.623   3.968
17073W        W85467  31.331  16.963   0.342
17074W        W85468  36.774  18.310  12.437
17075W        W85469  30.609  40.991  11.240
17076W        W85470  34.791  31.456   4.860
17077W        W85471  17.119  31.504   3.281
17078W        W85472  20.567  44.498   2.344
17079W        W85473  23.691  36.577  10.553
17080W        W85474  37.957  43.443  12.537
17081W        W85475  39.526  19.723   3.819
17082W        W85476   1.829   6.281   0.609
17083W        W85477  39.029  39.809   4.671
17084W        W85478  38.821  10.687   2.731
17085W        W85479  33.340   5.459   4.187
17086W        W85480  28.173  16.221   3.318
17087W        W85481   6.670  36.039   1.373
17088W        W85482  35.940   1.028  13.961
17089W        W85483  27.497  28.477  14.602
17090W        W85484  27.314  43.635  13.505
17091W        W85485  44.210  32.403   4.096
17092W        W85486  18.425  44.050   3.279
17093W        W85487  24.280  44.795   2.698
17094W        W85488   0.924  36.625   2.349
17095W        W85489  23.641   6.196   0.785
17096W        W85490  35.835  23.118   0.479
17097W        W85491  44.200  14.987  12.172
17098W        W85492   5.505  44.873   3.739
17099W        W85493  40.176   3.510   3.843
17100W        W85494  30.167  39.407  10.750
17101W        W85495  29.413   0.065  11.666
17102W        W85496  24.265  33.900   0.072
17103W        W85497   1.717  15.052   2.714
17104W        W85498  35.013  26.472  14.148
17105W        W85499  23.529  31.047  14.498
17106W        W85500  18.957   8.728  13.393
17107W        W85501  36.228  16.911   3.734
17108W        W85502  33.427   2.159   0.056
17109W        W85503  12.193   5.753  10.133
17110W        W85504  28.087   8.184  12.346
17111W        W85505   0.684   2.823  12.567
17112W        W85506   0.683   9.282  14.257
17113W        W85507  39.027  21.412  12.376
17114W        W85508  10.352  24.930   4.094
17115W        W85509  38.260  26.504  12.227
17116W        W85510  16.434  42.762  11.573
17117W        W85511  35.594  34.874   3.580
17118W        W85512  30.372  15.865   3.601
17119W        W85513  37.000  12.760   3.259
17120W        W85514  26.045   9.103   2.822
17121W        W85515  15.653  18.946  12.049
17122W        W85516  29.674   9.370  11.154
17123W        W85517  18.353   7.882   1.693
17124W        W85518  36.194   6.387  13.304
17125W        W85519   4.979  43.525   5.405
17126W        W85520  31.538  17.767   2.224
17127W        W85521  34.947  17.031   2.096
17128W        W85522  23.642  35.029  13.801
17129W        W85523   6.409  12.675   3.682
17130W        W85524   7.721  31.062   3.363
17131W        W85525  11.910  22.962  13.323
17132W        W85526   3.343  36.420   4.056
17133W        W85527  40.124  22.705  14.149
17134W        W85528  27.521  27.814  14.368
17135W        W85529  28.135  30.866  14.047
17136W        W85530   6.939  42.704  13.425
17137W        W85531  29.174  44.444   2.299
17138W        W85532  18.682  24.207   0.394
17139W        W85533   7.447  12.672  10.675
17140W        W85534  34.801  34.247  12.720
17141W        W85535  13.801  38.902  11.102
17142W        W85536  15.137  22.224   4.402
17143W        W85537  20.253  13.179  12.419
17144W        W85538   8.390  37.236  10.650
17145W        W85539   6.339  10.567  12.009
17146W        W85540  43.419  28.659   0.366
17147W        W85541   7.256  10.677   4.380
17148W        W85542  40.333  27.077   0.418
17149W        W85543  19.599  15.089   4.651
17150W        W85544  30.384  25.731  11.047
17151W        W85545  36.641  33.302   3.693
17152W        W85546  13.904  17.320   3.193
17153W        W85547  15.481   6.403  11.163
17154W        W85548  44.698  18.324  12.449
17155W        W85549   4.501   9.774   0.069
17156W        W85550  12.318  37.297   1.761
17157W        W85551  30.482  43.083   3.197
17158W        W85552  37.147  14.006   2.720
17159W        W85553   5.871  37.959   2.259
17160W        W85554   2.168  43.495   1.803
17161W        W85555   4.344  13.367  13.957
17162W        W85556  19.716  10.155  11.155
17163W        W85557  30.690  29.182   0.130
17164W        W85558   5.409   1.422   1.336
17165W        W85559  40.198  29.905   1.285
17166W        W85560   9.381  23.226  12.391
17167W        W85561  26.679  39.053   2.329
17168W        W85562   4.638  41.899   2.889
17169W        W85563  41.456  14.619   1.809
17170W        W85564  39.366  24.974  13.996
17171W        W85565  39.469  18.548  12.595
17172W        W85566  27.266  20.949  14.267
17173W        W85567  34.191  10.680  12.062
17174W        W85568  20.704  36.448  13.505
17175W        W85569  43.827  43.180   1.966
17176W        W85570  10.396  17.218   3.723
17177W        W85571   3.263  16.633  13.144
17178W        W85572   8.399  26.043   1.684
17179W        W85573   0.810  14.587   1.208
17180W        W85574  15.674  44.968   0.897
17181W        W85575  36.433  22.712  11.120
17182W        W85576  44.711  25.442  10.033
17183W        W85577  11.240   9.190  11.576
17184W        W85578  18.365  21.751  12.114
17185W        W85579  44.468  14.742   1.511
17186W        W85580  13.015  11.592  14.474
17187W        W85581  22.448  26.405   4.648
17188W        W85582  24.504  26.945  14.308
17189W        W85583  29.455  36.927  13.205
17190W        W85584  32.999  14.826   2.908
17191W        W85585   1.134  19.813   2.192
17192W        W85586  37.442  13.631   2.909
17193W        W85587  32.562  25.306   2.160
17194W        W85588  10.322  14.595  13.451
17195W        W85589  35.506  41.113  14.026
17196W        W85590   8.801  19.666   5.051
17197W        W85591   5.338  36.601  10.677
17198W        W85592   5.253  42.994  14.001
17199W        W85593   4.783  25.888   1.100
17200W        W85594  38.787  32.814  11.907
17201W        W85595   6.183  26.606  12.335
17202W        W85596   4.223  15.771  12.092
17203W        W85597  39.076  28.486  11.961
17204W        W85598  17.628  12.165  11.836
17205W        W85599  10.905   3.133   4.360
17206W        W85600  40.352  36.581  12.549
17207W        W85601  29.837  18.699   1.851
17208W        W85602  16.861  38.007  13.339
17209W        W85603   9.187   2.417  14.169
17210W        W85604   9.337   6.803  10.803
17211W        W85605  19.684  10.385  13.564
17212W        W85606   5.785   6.694  10.741
17213W        W85607  12.098  35.565   1.381
17214W        W85608  30.975   4.357   0.469
17215W        W85609  22.391   0.885   4.395
17216W        W85610  41.068   0.966   0.015
17217W        W85611  14.171  43.842   3.650
17218W        W85612  10.724   7.232   4.185
17219W        W85613  19.592  13.508  13.402
17220W        W85614  32.542  37.601  11.123
17221W        W85615  18.746  41.035   0.039
17222W        W85616  40.712  35.533   4.966
17223W        W85617  42.534  11.376   4.431
17224W        W85618  40.313  13.350   2.243
17225W        W85619  29.414  27.621   1.430
17226W        W85620  18.986  18.739   0.425
17227W        W85621  26.909  34.013   3.151
17228W        W85622  42.123  35.409   5.015
17229W        W85623   7.653  23.210  10.191
17230W        W85624  17.763  37.570   0.819
17231W        W85625  21.962  20.378   3.766
17232W        W85626  18.137  17.249   4.548
17233W        W85627  29.806   5.058   3.288
17234W        W85628  13.313   6.127  13.570
17235W        W85629  41.240  39.022   1.188
17236W        W85630   4.302  20.437   2.685
17237W        W85631  26.530  32.983   1.368
17238W        W85632  38.900  12.229  13.461
17239W        W85633  12.852  23.269  11.851
17240W        W85634  15.434  40.382   1.589
17241W        W85635  37.063  32.127  10.457
17242W        W85636   4.107  13.099  10.568
17243W        W85637  39.387  13.198  11.658
17244W        W85638  14.625  21.178   5.319
17245W        W85639   4.093  17.650   2.431
17246W        W85640  13.455  33.450   0.758
17247W        W85641  18.618  10.543  11.509
17248W        W85642  43.824  26.116   0.013
17249W        W85643  13.412  35.979   2.408
17250W        W85644   2.404  41.638   2.784
17251W        W85645   0.949  34.140  10.807
17252W        W85646  21.828  43.449   2.217
17253W        W85647  19.769  27.627  12.499
17254W        W85648  18.654  30.681  13.959
17255W        W85649  17.105  36.151   2.151
17256W        W85650  23.982  19.702  11.774
17257W        W85651  28.669  26.557   2.791
17258W        W85652   6.615  13.912  13.477
17259W        W85653  37.001  17.219  14.066
17260W        W85654  34.254  21.175   0.572
17261W        W85655  33.415  20.520   4.059
17262W        W85656  33.865  44.727   2.331
17263W        W85657   4.886  24.629  11.720
17264W        W85658  15.855  42.397   3.786
17265W        W85659  21.721  27.818   2.713
17266W        W85660  21.687  24.904  12.486
17267W        W85661   8.915   5.910  12.372
17268W        W85662  21.659   4.774   0.687
17269W        W85663  24.919   5.763  11.069
17270W        W85664  24.128  20.743   4.643
17271W        W85665  10.639  17.029   0.443
17272W        W85666  18.953  24.711   2.729
17273W        W85667  32.544   6.474   4.213
17274W        W85668   2.292  26.318   4.526
17275W        W85669   0.244  11.699   2.199
17276W        W85670   2.427  36.839   1.383
17277W        W85671   7.298  15.003   1.659
17278W        W85672  13.815  30.855   0.382
17279W        W85673  14.213  15.282   3.882
17280W        W85674   9.120  38.605   4.464
17281W        W85675  30.296  17.620  12.784
17282W        W85676   5.420  28.148   4.077
17283W        W85677  11.324  24.574   1.755
17284W        W85678  17.198  33.142   3.816
17285W        W85679   0.779  40.995  13.005
17286W        W85680   7.262  28.468   4.850
17287W        W85681   5.928   1.879   1.570
17288W        W85682  43.692  15.727  10.637
17289W        W85683   0.199  36.878  11.941
17290W        W85684  23.459  38.955  10.538
17291W        W85685  37.971  18.243   4.660
17292W        W85686   2.744  43.901  11.217
17293W        W85687  17.726   8.326  14.407
17294W        W85688  44.893  44.969  13.546
17295W        W85689  24.799   0.898  11.175
17296W        W85690  41.868  12.765   1.628
17297W        W85691  17.255  42.518   2.614
17298W        W85692  17.377  41.541  12.713
17299W        W85693  15.684  44.989   4.006
17300W        W85694   6.920  28.740  14.919
17301W        W85695  25.738   9.756   2.360
17302W        W85696  18.620  26.704   1.320
17303W        W85697  32.542   9.793  13.767
17304W        W85698  20.989  14.206  12.614
17305W        W85699  14.242   9.976  14.764
17306W        W85700   5.162   9.507   0.765
17307W        W85701  20.175  19.468  14.489
17308W        W85702  40.446  11.124  13.570
17309W        W85703  11.088  29.457  12.096
17310W        W85704  21.170  36.700   4.701
17311W        W85705  24.506  19.022  10.668
17312W        W85706  32.695  13.769   3.334
17313W        W85707  27.223  32.670  11.099
17314W        W85708  20.270  33.905  13.363
17315W        W85709  12.304  38.833   2.783
17316W        W85710  11.135  33.494  10.710
17317W        W85711  38.554  27.613  13.596
17318W        W85712  38.923   8.764   2.337
17319W        W85713   8.192   4.979  12.085
17320W        W85714  37.737   3.825   1.969
17321W        W85715  27.727  23.577   4.069
17322W        W85716   2.982  39.520   1.684
17323W        W85717   1.890  37.449   4.994
17324W        W85718  18.946  39.514  14.360
17325W        W85719  18.660  10.737  13.405
17326W        W85720   2.080  38.427   0.362
17327W        W85721   2.511   0.333  14.518
17328W        W85722  25.077  37.540  12.420
17329W        W85723   9.265  15.086  10.441
17330W        W85724  35.359   6.702  12.982
17331W        W85725  29.760  23.271  11.630
17332W        W85726  16.723  34.679   1.855
17333W        W85727  35.003  14.236   0.762
17334W        W85728   0.415  14.561   4.419
17335W        W85729  24.611  17.918   3.888
17336W        W85730  33.889  13.217   4.707
17337W        W85731  29.247  21.196   4.643
17338W        W85732  16.796  40.493  13.401
17339W        W85733  36.395  41.957   2.399
17340W        W85734  22.262   1.771   2.781
17341W        W85735  27.188  42.256  14.881
17342W        W85736  41.073  29.310  13.846
17343W        W85737  24.141  14.800   2.731
17344W        W85738  22.002   2.042  13.283
17345W        W85739  21.739   3.108  12.914
17346W        W85740  32.085  26.882   2.711
17347W        W85741   2.810  36.415  13.478
17348W        W85742  32.523  22.757   0.365
17349W        W85743  41.853  15.372   3.642
17350W        W85744   6.828  39.758  13.273
17351W        W85745   6.526   5.681   9.883
17352W        W85746  24.006  40.646  13.436
17353W        W85747  36.597  13.074   3.212
17354W        W85748  25.952  23.176   4.275
17355W        W85749  20.371  44.846   3.959
17356W        W85750  40.317  38.078   4.142
17357W        W85751  10.494  34.610   0.272
17358W        W85752  36.443   9.444  14.984
17359W        W85753   3.561  40.776   2.737
17360W        W85754  12.958   2.896  14.075
17361W        W85755  43.275  41.365   4.201
17362W        W85756   1.408  27.015  12.987
17363W        W85757  22.299  19.604  11.950
17364W        W85758  14.815   7.754  11.114
17365W        W85759  35.812  13.027  14.374
17366W        W85760   0.017   3.447   2.369
17367W        W85761  44.881  40.064  13.102
17368W        W85762  36.477  33.749  10.255
17369W        W85763  44.789  19.725  12.484
17370W        W85764  19.497  42.926   2.666
17371W        W85765  25.948  25.543  14.737
17372W        W85766  27.959   2.458  11.403
17373W        W85767  43.880   7.374  12.043
17374W        W85768   5.710  10.010  12.614
17375W        W85769  24.205  30.558  12.478
17376W        W85770  38.857   1.400   4.605
17377W        W85771  18.755   2.549  12.074
17378W        W85772   4.637  42.482   3.780
17379W        W85773   2.820  44.727  12.852
17380W        W85774  37.180   9.236  11.204
17381W        W85775  24.238   3.659   3.248
17382W        W85776   5.460  34.938   3.066
17383W        W85777  15.838   1.947  12.582
17384W        W85778  23.530  25.669   2.306
17385W        W85779  28.926  41.553  14.524
17386W        W85780   0.722  17.874   3.928
17387W        W85781  26.962  43.142  11.289
17388W        W85782   2.723   7.785   4.782
17389W        W85783  42.931  44.426  14.730
17390W        W85784  43.648  43.859   1.606
17391W        W85785  39.038  12.050   1.744
17392W        W85786  12.382  19.079  14.285
17393W        W85787  21.406  15.361  11.132
17394W        W85788  22.521  37.073  12.413
17395W        W85789  27.468   6.372   2.921
17396W        W85790  19.717  29.109   4.050
17397W        W85791  32.897  12.176   4.959
17398W        W85792   3.273   6.121  11.599
17399W        W85793   7.926   1.223  12.045
17400W        W85794   0.188  33.661   4.779
17401W        W85795  33.595  16.114  10.495
17402W        W85796  15.712  36.515   0.044
17403W        W85797  14.680  13.184  13.016
17404W        W85798   6.116  16.105  12.497
17405W        W85799  35.522   6.840  13.874
17406W        W85800   4.023  22.450   0.675
17407W        W85801  25.870  12.299   4.989
17408W        W85802   5.960  25.232   2.500
17409W        W85803  44.805  25.137  13.599
17410W        W85804   1.702  10.143  14.419
17411W        W85805  30.662  41.768  10.794
17412W        W85806  10.122  43.657  12.914
17413W        W85807  24.174  12.714  11.156
17414W        W85808  21.981  10.716  10.223
17415W        W85809  18.996  23.995  11.021
17416W        W85810  23.048  20.722  13.539
17417W        W85811  29.625  30.949   1.601
17418W        W85812   5.701  32.789  11.985
17419W        W85813  18.277  23.028   2.138
17420W        W85814  14.834  25.239   2.678
17421W        W85815  40.823  25.908  11.171
17422W        W85816   1.837  25.122  14.805
17423W        W85817  26.136  32.104   5.121
17424W        W85818   1.264  22.168  13.414
17425W        W85819   7.167   2.948  13.035
17426W        W85820   7.668  28.988   3.104
17427W        W85821  38.238  24.693   2.940
17428W        W85822  26.110  28.153  11.548
17429W        W85823   2.164  16.389   2.405
17430W        W85824  36.438  27.491  12.569
17431W        W85825   6.863  19.933  13.023
17432W        W85826  35.802  26.099   1.499
17433W        W85827  43.214   0.636   3.365
17434W        W85828   1.344  36.111  11.439
17435W        W85829  10.884  23.249  11.158
17436W        W85830  37.909  24.431   4.583
17437W        W85831  31.087  38.463  14.919
17438W        W85832   9.731  42.814  10.612
17439W        W85833  22.104  23.066  11.530
17440W        W85834  30.476  35.135  10.785
17441W        W85835   7.975  14.366  11.637
17442W        W85836  44.514   7.830   5.003
17443W        W85837   3.352  39.477  10.707
17444W        W85838  42.057  30.813   1.920
17445W        W85839  15.122  19.028   1.355
17446W        W85840  34.006  25.590   4.384
17447W        W85841  40.526   6.358  14.000
17448W        W85842  37.973  14.341   2.549
17449W        W85843  39.449  37.926  14.566
17450W        W85844  36.618   4.293  11.095
17451W        W85845  42.900   2.226  11.949
17452W        W85846   5.637  29.003   3.192
17453W        W85847  22.044  25.241   2.782
17454W        W85848  27.205  27.583   2.783
17455W        W85849  37.213  28.850   2.396
17456W        W85850   6.386  38.759   3.219
17457W        W85851   3.514   6.572   5.120
17458W        W85852  20.089  27.182   0.352
17459W        W85853  19.369   7.377   4.605
17460W        W85854  18.814  39.974   4.657
17461W        W85855  36.401  43.502  11.465
17462W        W85856  44.264  11.317  11.722
17463W        W85857  27.738  42.443   3.831
17464W        W85858  25.704  10.378  12.432
17465W        W85859   5.727  13.644   0.602
17466W        W85860  24.146  18.232  13.902
17467W        W85861  11.815  11.556   3.769
17468W        W85862  28.721   8.677  10.676
17469W        W85863   5.282  13.062  14.846
17470W        W85864  18.832  27.071  11.216
17471W        W85865  39.919  18.413  10.838
17472W        W85866  20.108  22.238  13.952
17473W        W85867  42.136  10.341   9.922
17474W        W85868  30.524  39.437   2.082
17475W        W85869  33.955  41.858  11.103
17476W        W85870  27.011  40.112   3.642
17477W        W85871  22.221   0.830  10.859
17478W        W85872  25.011  26.680   4.748
17479W        W85873  26.997   0.544   0.888
17480W        W85874  40.817  20.602  12.077
17481W        W85875  10.998  34.553  12.039
17482W        W85876  33.487   5.118  13.981
17483W        W85877  25.988   0.391   3.230
17484W        W85878  34.911  26.672   3.711
17485W        W85879  25.286  27.509   0.322
17486W        W85880  36.540  13.088  10.701
17487W        W85881  32.830   4.744   4.651
17488W        W85882  33.791   4.645  11.506
17489W        W85883  15.313   9.843   1.415
17490W        W85884  38.412  17.566   1.303
17491W        W85885  31.059  39.616  12.047
17492W        W85886  24.642   2.402  13.765
17493W        W85887  20.209   0.306  14.725
17494W        W85888  10.279  20.376  12.522
17495W        W85889  24.737  18.616   1.778
17496W        W85890   8.142   0.923   1.873
17497W        W85891   1.814   6.372   4.840
17498W        W85892  11.695  15.523   1.963
17499W        W85893   2.515  17.057   1.845
17500W        W85894  26.053  33.883  11.486
17501W        W85895  19.218  36.444  14.299
17502W        W85896   8.638   7.301  14.842
17503W        W85897  17.839  24.393  14.952
17504W        W85898   7.861  34.061   2.344
17505W        W85899  16.209  13.430  12.517
17506W        W85900   2.306  16.791  14.361
17507W        W85901   9.984  28.177   3.606
17508W        W85902   6.080  20.695   0.949
17509W        W85903   6.734  38.986   2.477
17510W        W85904  24.920   7.497   1.536
17511W        W85905  27.713  32.486   0.014
17512W        W85906   6.956  43.985   1.761
17513W        W85907  27.795  17.518  11.658
17514W        W85908  28.838  14.745  13.864
17515W        W85909  37.597  15.760  13.875
17516W        W85910  22.888  41.233  14.100
17517W        W85911   0.815  14.324   4.699
17518W        W85912  41.581  28.366   0.742
17519W        W85913   6.008  29.208   2.766
17520W        W85914  35.888  42.734   3.837
17521W        W85915  15.325  17.216   0.773
17522W        W85916   0.702  40.881  14.321
17523W        W85917  12.495  11.665  10.777
17524W        W85918  33.089  31.678   4.323
17525W        W85919   6.763  34.736   1.795
17526W        W85920  10.936  30.856   4.754
17527W        W85921  27.986   6.855   2.293
17528W        W85922  24.073  24.002  11.243
17529W        W85923   6.950  19.094  13.626
17530W        W85924  30.059  42.433   3.082
17531W        W85925  20.070  36.425   3.614
17532W        W85926  41.913  44.845   4.146
17533W        W85927   4.538  36.062  11.521
17534W        W85928  15.228  30.686   2.984
17535W        W85929  33.408  11.004   3.245
17536W        W85930  14.254  17.843  12.443
17537W        W85931  27.123   9.568  14.061
17538W        W85932  10.986  28.749   2.498
17539W        W85933  17.731  13.390  10.615
17540W        W85934  17.302   8.066  14.000
17541W        W85935  21.635  20.185   4.768
17542W        W85936  43.353  40.006   2.724
17543W        W85937  23.177   5.639   3.494
17544W        W85938  22.122  30.720   1.443
17545W        W85939  24.633  29.813   3.190
17546W        W85940  43.063  29.549   2.893
17547W        W85941  31.703  34.255   2.432
17548W        W85942  44.328  21.281  12.907
17549W        W85943  40.716  25.916  13.416
17550W        W85944  18.815  20.684  13.932
17551W        W85945  20.509  34.336  11.439
17552W        W85946  41.508  30.684  13.965
17553W        W85947  42.405  39.540  13.903
17554W        W85948  39.785  33.942  11.868
17555W        W85949  29.277  24.788   1.173
17556W        W85950  11.652  21.972  13.603
17557W        W85951   9.206  40.962   1.368
17558W        W85952  14.703  24.588  12.744
17559W        W85953  33.039   8.395   1.794
17560W        W85954  40.686  42.032   0.518
17561W        W85955   3.164  21.542  13.463
17562W        W85956  36.792  38.523  14.041
17563W        W85957   0.917  18.532  11.644
17564W        W85958  27.469  28.520  12.511
17565W        W85959   4.278  36.574   1.373
17566W        W85960  31.027  40.128  12.048
17567W        W85961  41.906  38.543  14.355
17568W        W85962  18.202   8.718  11.534
17569W        W85963  36.879  19.474  10.874
17570W        W85964  37.082  29.694  14.565
17571W        W85965  27.783  41.010   0.272
17572W        W85966  20.107   8.763   3.817
17573W        W85967  42.405   3.885   1.217
17574W        W85968  16.307  31.671  12.968
17575W        W85969   8.956  44.704   4.159
17576W        W85970  18.535   5.148   2.761
17577W        W85971  33.654   3.874   4.601
17578W        W85972  34.883   8.534   2.740
17579W        W85973  22.746   6.007   2.789
17580W        W85974  28.467  23.890  14.675
17581W        W85975  21.417  12.343   5.490
17582W        W85976  34.005  21.691  14.808
17583W        W85977  22.980  15.571   3.727
17584W        W85978   3.124   7.379  11.920
17585W        W85979  11.840   1.762   3.786
17586W        W85980  31.334  10.724  10.664
17587W        W85981   8.332  19.029  14.845
17588W        W85982  35.004  42.832   1.215
17589W        W85983   8.654  20.730  14.305
17590W        W85984  23.238  34.725   0.243
17591W        W85985  10.774  19.350   4.975
17592W        W85986  36.576   5.249   0.449
17593W        W85987  36.304  23.155   3.902
17594W        W85988  10.456  40.346  11.608
17595W        W85989  33.257  29.593   0.731
17596W        W85990  15.353   7.441   0.306
17597W        W85991   1.226  44.152   1.627
17598W        W85992  21.085  37.673  13.386
17599W        W85993   5.775  24.376   2.718
17600W        W85994  12.182  21.573   1.668
17601W        W85995   7.181  12.506  11.078
17602W        W85996  29.495  34.002  14.871
17603W        W85997  10.421   6.193  13.352
17604W        W85998  14.759   5.500  13.738
17605W        W85999  31.311  37.577  10.715
17606W        W86000  43.396  41.341  13.353
17607W        W86001   9.005   3.825   0.421
17608W        W86002  13.752  15.724  11.842
17609W        W86003  37.335  33.743  13.812
17610W        W86004   9.684  15.755  10.727
17611W        W86005  42.110   0.025   0.910
17612W        W86006  41.335  20.374  12.264
17613W        W86007  12.693  41.062   1.344
17614W        W86008  15.741  31.160  12.611
17615W        W86009  14.726  40.868  14.946
17616W        W86010  44.479  42.750  14.884
17617W        W86011  11.887  31.747   2.800
17618W        W86012  26.254   6.096   1.786
17619W        W86013  36.961   4.898   0.385
17620W        W86014  22.017  18.770   3.160
17621W        W86015  41.391  27.478   2.880
17622W        W86016   5.146  13.493   4.304
17623W        W86017   6.746  18.707  12.344
17624W        W86018  38.786  15.686  14.369
17625W        W86019  40.187  24.744   2.349
17626W        W86020  30.670   0.319   1.136
17627W        W86021   8.628  23.084   2.929
17628W        W86022   7.438  15.643  14.065
17629W        W86023  33.647  12.852  13.099
17630W        W86024  43.870   9.009   2.291
17631W        W86025   0.506  34.850  11.627
17632W        W86026  13.170  20.734  12.630
17633W        W86027  27.692  23.529   3.214
17634W        W86028  12.218   2.409   0.571
17635W        W86029   5.431  39.002   0.278
17636W        W86030   8.093  39.722   4.058
17637W        W86031  17.421  36.869   0.403
17638W        W86032  21.647  14.537  14.514
17639W        W86033   2.508  20.163  14.706
17640W        W86034  17.632  35.917  13.862
17641W        W86035  22.139  20.958  12.255
17642W        W86036  14.354  37.682  14.970
17643W        W86037   9.203   7.855   0.272
17644W        W86038  29.654  39.797   1.287
17645W        W86039   5.334  20.301   4.570
17646W        W86040   5.839  21.817  14.380
17647W        W86041   1.247  17.692   0.870
17648W        W86042  18.543  38.965  12.555
17649W        W86043   4.095  13.259   3.129
17650W        W86044  16.711  30.855   4.773
17651W        W86045  29.184  20.330   4.139
17652W        W86046  26.196   1.391   0.323
17653W        W86047  41.975  16.067   1.332
17654W        W86048  32.883  31.516  14.816
17655W        W86049  39.473  34.313  13.959
17656W        W86050  36.525  15.356   0.237
17657W        W86051  22.180  39.299   1.271
17658W        W86052  37.031  43.405  12.139
17659W        W86053   4.045  28.650   4.794
17660W        W86054  22.409  25.124  12.871
17661W        W86055  13.872  23.579  12.472
17662W        W86056  28.415  43.358  14.401
17663W        W86057   5.293  11.629  11.675
17664W        W86058  22.566   2.286   0.438
17665W        W86059   8.466  14.169  14.772
17666W        W86060   3.945  15.788  13.016
17667W        W86061   0.286  21.136   3.420
17668W        W86062   7.951  26.764   4.095
17669W        W86063  36.052  22.369  14.410
17670W        W86064  35.348  29.979  13.343
17671W        W86065  21.182  42.431   0.726
17672W        W86066  27.987  26.049   0.222
17673W        W86067   6.151  29.128  13.173
17674W        W86068  27.742  35.002  11.956
17675W        W86069  14.086  42.064  11.703
17676W        W86070  41.117  29.951   4.908
17677W        W86071  10.739  23.928   1.975
17678W        W86072  41.853   8.356   4.605
17679W        W86073  35.088   2.057  12.223
17680W        W86074  22.563  14.896   0.807
17681W        W86075  14.224  21.284   3.134
17682W        W86076   3.030  28.148  12.169
17683W        W86077  16.651  16.943   9.921
17684W        W86078   3.331  44.834  10.627
17685W        W86079  38.385  24.073  11.342
17686W        W86080  21.035   7.752  12.138
17687W        W86081  18.623  13.495   3.239
17688W        W86082  26.118   3.993  11.924
17689W        W86083  27.967  40.346  10.668
17690W        W86084  20.976  15.735  14.266
17691W        W86085   5.517  32.110   3.884
17692W        W86086   2.892  12.255  14.590
17693W        W86087  32.121  15.611   4.975
17694W        W86088   7.456  43.135  13.748
17695W        W86089  24.187  33.317   0.892
17696W        W86090  24.622  31.743  11.147
17697W        W86091   6.198  20.105  10.655
17698W        W86092   5.393   9.712  12.923
17699W        W86093  14.331  39.269   0.450
17700W        W86094   5.755  30.298  11.556
17701W        W86095   4.244  13.538   1.294
17702W        W86096  38.110  24.087   0.704
17703W        W86097  24.893   4.521   4.223
17704W        W86098   8.332  36.037   4.110
17705W        W86099  15.185  24.689   2.767
17706W        W86100  21.935  37.956   4.264
17707W        W86101   7.621  10.140   1.884
17708W        W86102  33.026  14.312  13.758
17709W        W86103  32.885  16.048  11.173
17710W        W86104   7.143  26.660   3.668
17711W        W86105  15.145  38.629  12.029
17712W        W86106   1.957   0.418   4.055
17713W        W86107   4.873  12.039   3.132
17714W        W86108  23.245  11.462   3.475
17715W        W86109   2.763  39.876  14.709
17716W        W86110   7.269   5.422  12.146
17717W        W86111  15.289   7.296  14.813
17718W        W86112  34.150  33.332   3.827
17719W        W86113  24.954  16.386  12.289
17720W        W86114  41.541  38.433  10.720
17721W        W86115  30.381  42.472   4.105
17722W        W86116  41.572  38.823  11.686
17723W        W86117  23.220  28.592  10.544
17724W        W86118  32.131  38.565  10.530
17725W        W86119  22.604  17.776   3.272
17726W        W86120  40.781  13.836  10.427
17727W        W86121  33.980  33.642   4.230
17728W        W86122  22.683  18.131  11.593
17729W        W86123  39.852  44.455  13.560
17730W        W86124   6.027  11.701   4.053
17731W        W86125  16.757   3.332  11.108
17732W        W86126  37.653  21.972  10.745
17733W        W86127  11.814  39.429   2.038
17734W        W86128  12.845  26.230  10.708
17735W        W86129   6.597  44.799  11.665
17736W        W86130  17.263  20.031   1.078
17737W        W86131  17.566  11.124  11.020
17738W        W86132  25.234  40.112  12.518
17739W        W86133  39.532   8.238   3.877
17740W        W86134  20.103  40.070   4.176
17741W        W86135   3.923   8.303   0.831
17742W        W86136  22.723  41.695   5.002
17743W        W86137  21.088  18.287   2.730
17744W        W86138  21.571   2.161   4.176
17745W        W86139  29.377  18.866   4.104
17746W        W86140  18.774   5.853  11.337
17747W        W86141   2.209  37.052  14.775
17748W        W86142  37.640   3.245  13.532
17749W        W86143  14.705  44.049  12.364
17750W        W86144  26.850   7.927   3.405
17751W        W86145  20.234  20.442  12.848
17752W        W86146  30.012  40.616  14.715
17753W        W86147  23.852  26.102  10.889
17754W        W86148  22.287   0.245  13.684
17755W        W86149  22.283  27.929  12.892
17756W        W86150  43.732  19.593  12.904
17757W        W86151   8.114  40.584   2.981
17758W        W86152  31.128  19.377  11.163
17759W        W86153  19.489  33.288  11.027
17760W        W86154  25.503  31.448  10.519
17761W        W86155  19.287  31.973  10.683
17762W        W86156  25.216  35.317   4.594
17763W        W86157  20.489  17.739  13.278
17764W        W86158   9.220   3.940   4.400
17765W        W86159  29.433  38.445  14.765
17766W        W86160  26.907  33.537  12.569
17767W        W86161   3.986  36.722  12.067
17768W        W86162  42.411  39.549   3.669
17769W        W86163  27.585   2.196  12.158
17770W        W86164   4.340  32.000   0.256
17771W        W86165  17.932  28.792   0.882
17772W        W86166   4.823   9.819  10.597
17773W        W86167   6.102   9.023  12.750
17774W        W86168  17.664  20.161   1.391
17775W        W86169  43.280  39.206   5.109
17776W        W86170  41.374  39.876   0.816
17777W        W86171  15.082   7.311  14.326
17778W        W86172  42.477  31.277   1.242
17779W        W86173  14.260  29.428   3.672
17780W        W86174  20.030   3.384  14.384
17781W        W86175  44.921  28.612   4.560
17782W        W86176   1.440  20.786   4.635
17783W        W86177  32.997  20.839  13.351
17784W        W86178   1.488  44.619   1.641
17785W        W86179  10.687  23.483  12.732
17786W        W86180  17.128  19.713  10.762
17787W        W86181  40.074   7.717  11.874
17788W        W86182  28.502   2.976  14.231
17789W        W86183  13.213   7.359  14.192
17790W        W86184   0.288  43.230  10.782
17791W        W86185  23.987  44.300   0.346
17792W        W86186  26.324  31.365   1.838
17793W        W86187   9.765  43.234  14.065
17794W        W86188  40.312  14.167  14.328
17795W        W86189  13.687  31.447  14.874
17796W        W86190  17.686   6.106  11.436
17797W        W86191   1.997  13.142  12.929
17798W        W86192  10.092   7.293  12.622
17799W        W86193   5.832  42.296  14.544
17800W        W86194  17.751  22.939   1.381
17801W        W86195  13.476  11.516   0.024
17802W        W86196  26.185   2.513  12.473
17803W        W86197  37.188  35.830   1.906
17804W        W86198   1.867  14.563   3.608
17805W        W86199  27.843  26.749  11.138
17806W        W86200  19.798  43.355   1.389
17807W        W86201  22.701  38.034   2.697
17808W        W86202  32.954   8.631  14.904
17809W        W86203  13.886  39.336  11.415
17810W        W86204  14.725  29.556   3.885
17811W        W86205  29.512  40.781  13.753
17812W        W86206  31.167   8.278  12.570
17813W        W86207  27.663  43.859   1.664
17814W        W86208  14.565  38.863  10.744
17815W        W86209  29.988  39.992   0.816
17816W        W86210  31.938   0.597   1.689
17817W        W86211  42.358   5.937   3.611
17818W        W86212  23.051  30.613  11.546
17819W        W86213  16.401   0.657  14.346
17820W        W86214   1.967  33.883   2.858
17821W        W86215  12.654  38.328  10.698
17822W        W86216   5.098  18.797   3.192
17823W        W86217   0.918  10.098   2.739
17824W        W86218  44.070  42.881  12.639
17825W        W86219  25.734  40.306  12.504
17826W        W86220  12.627  31.520  13.573
17827W        W86221  36.016  17.144   0.388
17828W        W86222   1.655  29.905   0.616
17829W        W86223  38.307  12.440  11.652
17830W        W86224  18.733  22.102   1.727
17831W        W86225   4.651  32.055   4.194
17832W        W86226   2.021  18.673   1.263
17833W        W86227   4.004  22.582  13.374
17834W        W86228  33.952  39.967  13.323
17835W        W86229   5.965  35.223   2.597
17836W        W86230  31.622  43.818  14.007
17837W        W86231   7.647  20.155  14.061
17838W        W86232   0.305  12.843  14.917
17839W        W86233   9.242  21.211   1.243
17840W        W86234  24.196  37.131   4.138
17841W        W86235  32.487  25.440  14.447
17842W        W86236  30.029   8.694  13.345
17843W        W86237  20.050  12.350   0.404
17844W        W86238  26.737   1.217  11.993
17845W        W86239  20.328   6.909   2.175
17846W        W86240  43.965  16.508  13.432
17847W        W86241   8.853  10.683  14.027
17848W        W86242  30.794  37.993   4.830
17849W        W86243  41.992   3.409  11.267
17850W        W86244  37.310   5.288   2.734
17851W        W86245  20.194  37.667  11.495
17852W        W86246  18.555  18.807  14.724
17853W        W86247  25.023  43.891   3.296
17854W        W86248  39.867  31.173  13.404
17855W        W86249   5.339  38.936  11.256
17856W        W86250  35.601   2.446   1.910
17857W        W86251  21.118  40.537   3.748
17858W        W86252  44.843  37.948   5.436
17859W        W86253   2.010   9.194   4.536
17860W        W86254   4.962   2.745  11.981
17861W        W86255  11.997  15.192  10.905
17862W        W86256   0.988  26.259   3.349
17863W        W86257  15.135  25.343   3.896
17864W        W86258   3.549  16.303   1.603
17865W        W86259   2.806  12.852   4.222
17866W        W86260  29.434  32.071   2.801
17867W        W86261   1.399  23.100  11.625
17868W        W86262  14.017  41.577  11.969
17869W        W86263  34.658   5.888   1.478
17870W        W86264  42.750  41.721   0.214
17871W        W86265  33.459  41.591  11.666
17872W        W86266   8.897  24.475  13.894
17873W        W86267  29.882  11.234  13.909
17874W        W86268  35.978  43.383   1.273
17875W        W86269  42.940  10.836   4.669
17876W        W86270  26.196  44.974   0.176
17877W        W86271  33.884  26.995  14.268
17878W        W86272  24.218   7.910  12.513
17879W        W86273  19.101  24.767  14.853
17880W        W86274  26.727  11.171   5.436
17881W        W86275  10.841  33.353  11.137
17882W        W86276   7.151  27.919   3.452
17883W        W86277  12.213  37.059  11.593
17884W        W86278   7.721  41.836  12.473
17885W        W86279  26.317  22.314   4.172
17886W        W86280  30.440  17.863   1.741
17887W        W86281   6.788  23.452  12.973
17888W        W86282   6.206  43.269  13.346
17889W        W86283   1.029  39.414  13.409
17890W        W86284  44.405  41.257   1.433
17891W        W86285   0.394  20.717   3.117
17892W        W86286  31.192  14.854  14.320
17893W        W86287  34.474  26.198   2.136
17894W        W86288   6.251  44.468   1.494
17895W        W86289  14.055  38.324   4.197
17896W        W86290  15.846  17.463  12.767
17897W        W86291   8.302   0.453   2.817
17898W        W86292  35.867  37.911  14.826
17899W        W86293  44.901  39.348  14.922
17900W        W86294  18.698  33.992   2.859
17901W        W86295  21.543   0.808   3.741
17902W        W86296  40.018  21.689  12.571
17903W        W86297  37.852   7.442  10.655
17904W        W86298   8.241   2.686  10.653
17905W        W86299   8.254  41.252  10.759
17906W        W86300  25.257  19.494   4.908
17907W        W86301  13.321  10.690   4.634
17908W        W86302  25.337  26.430   0.919
17909W        W86303  23.496   6.108  12.534
17910W        W86304  17.790  15.716   2.707
17911W        W86305  22.588  29.493  12.839
17912W        W86306  24.022  16.716   1.620
17913W        W86307   7.825  40.930  10.958
17914W        W86308   0.329  37.623  14.630
17915W        W86309  26.958  22.472   3.193
17916W        W86310  38.060  12.107   0.730
17917W        W86311  36.411  37.351   4.344
17918W        W86312  35.050  32.994  14.530
17919W        W86313  44.628  16.814  13.887
17920W        W86314  32.683  19.462  13.424
17921W        W86315  18.764   6.966   4.270
17922W        W86316   2.726  44.387  11.028
17923W        W86317   3.967  40.803   4.000
17924W        W86318  12.969   8.044  10.238
17925W        W86319   8.368  28.119   0.774
17926W        W86320  10.336  15.674   2.700
17927W        W86321  24.079  26.910  10.510
17928W        W86322  27.516  44.178   2.825
17929W        W86323  14.143  20.979  14.047
17930W        W86324  19.052  18.814  14.912
17931W        W86325  28.803  39.402  14.856
17932W        W86326  32.663  20.017   4.045
17933W        W86327  15.851  11.440   2.057
17934W        W86328  15.584  13.183  11.655
17935W        W86329  27.452  35.140  14.766
17936W        W86330  26.944  12.911   1.631
17937W        W86331  25.889  31.913  10.950
17938W        W86332  22.953   5.530  12.997
17939W        W86333  22.191   6.319   4.771
17940W        W86334   0.379  29.920   2.004
17941W        W86335  44.522  33.004   0.746
17942W        W86336  29.719  30.344   1.277
17943W        W86337  44.031   5.337  14.444
17944W        W86338  21.511  28.760   2.802
17945W        W86339   7.451  15.459   2.805
17946W        W86340   9.182  39.410  11.191
17947W        W86341  32.454   5.450  14.532
17948W        W86342  34.698   0.862   1.010
17949W        W86343  26.542  12.012  12.543
17950W        W86344  16.044  10.249   5.020
17951W        W86345  25.152  39.232  13.584
17952W        W86346   4.732  34.199   3.691
17953W        W86347   9.403  37.130   1.855
17954W        W86348  11.290  28.533  12.173
17955W        W86349  38.798  43.070  10.378
17956W        W86350  20.122  37.931   4.501
17957W        W86351  14.639  23.895  12.043
17958W        W86352  38.816  18.599  11.840
17959W        W86353   1.187   1.433  11.145
17960W        W86354  11.219   0.219  10.937
17961W        W86355  41.520  31.184  12.889
17962W        W86356   8.147  33.389   3.751
17963W        W86357  31.450  35.875   3.208
17964W        W86358   0.551  39.974  14.865
17965W        W86359  33.806  20.934  11.658
17966W        W86360  20.658   2.337  14.069
17967W        W86361  22.580  22.745  14.892
17968W        W86362  10.148  26.875   4.125
17969W        W86363  35.015   9.615   2.712
17970W        W86364  26.716  18.848   3.604
17971W        W86365  40.428  39.072  10.649
17972W        W86366  28.063  19.519   2.423
17973W        W86367  37.541  38.799  14.886
17974W        W86368  19.039   0.797  10.428
17975W        W86369  18.038  44.066   2.442
17976W        W86370  25.983  14.550   1.701
17977W        W86371   7.659  40.338   0.866
17978W        W86372  18.137  26.946   2.404
17979W        W86373   2.312  12.150   4.974
17980W        W86374  27.779   8.891   3.167
17981W        W86375   3.758  10.854   9.891
17982W        W86376  31.819  34.448   1.202
17983W        W86377   0.419  43.461   2.226
17984W        W86378  41.415   9.501   5.105
17985W        W86379   3.189   4.874   5.229
17986W        W86380   0.935  27.261  12.082
17987W        W86381   8.729  36.586  11.124
17988W        W86382   7.271  35.901  14.913
17989W        W86383  25.067  21.524  12.015
17990W        W86384   6.343  39.063   1.321
17991W        W86385  39.602  36.004  14.450
17992W        W86386  18.003  19.282   4.768
17993W        W86387  34.126  28.968   2.424
17994W        W86388  15.132  32.486   3.173
17995W        W86389  12.799  23.042   3.203
17996W        W86390   0.004  10.821   4.115
17997W        W86391  40.018  37.006  14.524
17998W        W86392  12.731  21.595   4.371
17999W        W86393   4.965  32.963  14.398
18000W        W86394  38.086  39.889  13.371
18001W        W86395   8.348  20.626   4.328
18002W        W86396  32.308   4.837  12.877
18003W        W86397  29.106  20.648   1.303
18004W        W86398  22.903  10.380  12.961
18005W        W86399  27.884  21.165   0.997
18006W        W86400  19.359   9.640  13.093
18007W        W86401  17.241  29.465   2.408
18008W        W86402  22.951  36.288   3.358
18009W        W86403  39.591   1.380  10.421
18010W        W86404  38.319  35.382   1.339
18011W        W86405  19.466  37.844  14.335
18012W        W86406  42.536   2.679  10.765
18013W        W86407  19.016   6.924  11.994
18014W        W86408   5.307   0.010   4.202
18015W        W86409  26.058   5.993  14.918
18016W        W86410  43.356  39.268   3.314
18017W        W86411  21.024  21.949   1.384
18018W        W86412  23.278  44.321  13.983
18019W        W86413   0.710   0.000  11.538
18020W        W86414  39.297  17.317   4.731
18021W        W86415  11.854  14.269  14.814
18022W        W86416   0.757  44.015   3.323
18023W        W86417  31.518  41.026  13.671
18024W        W86418  21.496  19.408  14.740
18025W        W86419  17.579   3.862  11.975
18026W        W86420   9.304   7.769   1.143
18027W        W86421  37.797   9.393   2.976
18028W        W86422  40.392   6.343   5.006
18029W        W86423  37.002  42.038  12.588
18030W        W86424  21.750  26.889  11.151
18031W        W86425  19.635  36.815   4.191
18032W        W86426  23.543  28.780   2.201
18033W        W86427  17.933  28.723   4.431
18034W        W86428   8.856  36.094  11.054
18035W        W86429  29.359   6.392  11.196
18036W        W86430  15.804  17.315   9.928
18037W        W86431  18.210  37.702  13.425
18038W        W86432  34.803  15.065  13.680
18039W        W86433  42.400  15.095   1.010
18040W        W86434  41.985  24.797  10.329
18041W        W86435  25.929  44.572  13.914
18042W        W86436  12.908   2.283  14.491
18043W        W86437  13.912  14.716   4.332
18044W        W86438  44.601  44.228  11.457
18045W        W86439  32.987   9.904   4.304
18046W        W86440  28.672   2.784  10.496
18047W        W86441  25.675   7.789   0.278
18048W        W86442  34.448  35.358  14.452
18049W        W86443   4.454  12.955   2.341
18050W        W86444  12.299   5.946  10.607
18051W        W86445  40.832  31.689  12.433
18052W        W86446  20.253  31.668  13.712
18053W        W86447  37.409  44.468  13.416
18054W        W86448   3.869  21.275   0.445
18055W        W86449  38.329  36.354  14.526
18056W        W86450   1.803  13.138   3.686
18057W        W86451  22.239  10.204   1.772
18058W        W86452   4.708   5.136  10.224
18059W        W86453   4.799  35.183   4.250
18060W        W86454  41.221  36.410   0.311
18061W        W86455  29.873  15.410   0.181
18062W        W86456  20.243   3.177   3.903
18063W        W86457  35.018  44.246   2.279
18064W        W86458  22.277  32.477  10.653
18065W        W86459  33.694  26.146  13.992
18066W        W86460  18.775  30.100   3.203
18067W        W86461  18.150  16.587  14.133
18068W        W86462  37.357   2.997  10.217
18069W        W86463  23.515  12.183   1.183
18070W        W86464  36.439  32.725  11.932
18071W        W86465  44.538   7.220   2.219
18072W        W86466   3.788  38.284   3.665
18073W        W86467  40.548  14.361  13.915
18074W        W86468  18.310  37.964  13.865
18075W        W86469  27.488  20.833   4.130
18076W        W86470  26.864  38.932  11.142
18077W        W86471  28.078  36.919   3.666
18078W        W86472   8.128  27.055  14.315
18079W        W86473  44.367  33.639  13.620
18080W        W86474  43.446   0.253  12.545
18081W        W86475  27.597  38.498  10.810
18082W        W86476  36.017  19.996  14.799
18083W        W86477  18.024  24.434  14.448
18084W        W86478  17.616  23.984   1.297
18085W        W86479  27.219  33.373   1.301
18086W        W86480   3.271  30.713   1.676
18087W        W86481  27.719  13.165  12.926
18088W        W86482  21.680  27.435  13.956
18089W        W86483  19.034   9.947  14.426
18090W        W86484  19.770  13.081   0.388
18091W        W86485  39.557  14.119  14.046
18092W        W86486  18.368   9.277  13.086
18093W        W86487  30.027  24.072  14.188
18094W        W86488  28.907   6.419   2.799
18095W        W86489   8.800  24.736   1.143
18096W        W86490  34.396   5.908   4.730
18097W        W86491  18.437  35.134   2.199
18098W        W86492   6.172   7.467   2.954
18099W        W86493  12.661  43.930  12.965
18100W        W86494  19.952  28.992   2.123
18101W        W86495   1.244  15.305   2.697
18102W        W86496  25.658  18.709  13.927
18103W        W86497  16.685  42.197  13.932
18104W        W86498   2.533  41.164   4.025
18105W        W86499  42.604   2.851   0.288
18106W        W86500  16.775  19.029   1.764
18107W        W86501  24.992  14.809   4.649
18108W        W86502  35.291   4.036  10.748
18109W        W86503  20.936  28.286  10.347
18110W        W86504   9.554  30.536   4.526
18111W        W86505  33.440  29.259  10.226
18112W        W86506  31.653   3.550   4.021
18113W        W86507  29.398  31.042  13.953
18114W        W86508  31.065  18.020  11.484
18115W        W86509  15.651   0.164  10.176
18116W        W86510  40.473  36.913   3.177
18117W        W86511  28.161  11.840  12.443
18118W        W86512  28.654  13.815  14.287
18119W        W86513  20.373   2.007  14.839
18120W        W86514  39.590  40.393  12.051
18121W        W86515  22.609  18.722  14.866
18122W        W86516  13.400  21.237   1.431
18123W        W86517  29.934  44.774  13.346
18124W        W86518  12.171   9.375  13.921
18125W        W86519  44.244   6.589   2.632
18126W        W86520  29.951  35.812  13.008
18127W        W86521  20.536  19.462   2.254
18128W        W86522  17.169  20.325   1.512
18129W        W86523  29.655  25.007   4.984
18130W        W86524  21.818  14.874  14.873
18131W        W86525  42.811  20.292  14.790
18132W        W86526  31.636  40.284  12.025
18133W        W86527   7.684   9.123   2.363
18134W        W86528  25.040  15.825  11.202
18135W        W86529  24.629  32.621   4.159
18136W        W86530  22.079  29.331   3.737
18137W        W86531  22.071  42.798   0.293
18138W        W86532  39.314  26.025   1.136
18139W        W86533  44.128  19.381  10.434
18140W        W86534  30.186  18.573  14.972
18141W        W86535  21.417  42.258  14.560
18142W        W86536  12.210   4.381   0.371
18143W        W86537  33.558  12.291   3.238
18144W        W86538  18.730  15.565  11.297
18145W        W86539  20.331   0.962   4.724
18146W        W86540  24.987  41.271  11.897
18147W        W86541  36.503   2.899  12.942
18148W        W86542  17.801   6.531  10.142
18149W        W86543   5.580  22.381   1.175
18150W        W86544   4.678  10.230  14.891
18151W        W86545  39.751  21.237  12.648
18152W        W86546  39.278   4.484   4.295
18153W        W86547  38.090  32.975   3.907
18154W        W86548   9.703   9.198   4.610
18155W        W86549  35.463   8.170   4.471
18156W        W86550  24.730  33.144   1.855
18157W        W86551  19.522   0.438  10.968
18158W        W86552  40.898  37.839  13.439
18159W        W86553  40.767  22.612   2.329
18160W        W86554  31.497  34.431   1.692
18161W        W86555   5.024  40.053   9.902
18162W        W86556   6.516  42.861   1.866
18163W        W86557   0.551  15.837  10.718
18164W        W86558  40.844  19.636   4.480
18165W        W86559  32.551   8.556  11.639
18166W        W86560  42.334   7.290   0.954
18167W        W86561  34.909  43.292  13.405
18168W        W86562   1.840  10.163   0.930
18169W        W86563  29.078   4.357   1.819
18170W        W86564  16.805  30.067   0.520
18171W        W86565   1.427   9.331   3.764
18172W        W86566   4.018  40.383   1.814
18173W        W86567   6.371  37.844   3.452
18174W        W86568   7.512  31.539   3.474
18175W        W86569   7.768  11.034  12.973
18176W        W86570  17.570  24.587  11.550
18177W        W86571  30.359   7.366  11.186
18178W        W86572   5.219  30.198  10.831
18179W        W86573  16.713  39.379   2.178
18180W        W86574  23.551  37.146   1.476
18181W        W86575  42.386  29.731   3.153
18182W        W86576  14.122  13.346   1.729
18183W        W86577  15.974   6.251  11.148
18184W        W86578   2.992  21.227   4.103
18185W        W86579  17.587  22.521  13.004
18186W        W86580   7.433  27.001   2.746
18187W        W86581  33.995  33.360  10.584
18188W        W86582  15.081  32.211  11.479
18189W        W86583  10.925  29.686  14.425
18190W        W86584   6.258  21.715   2.334
18191W        W86585  15.056  12.950   3.321
18192W        W86586  15.895  11.732  14.614
18193W        W86587  21.838   6.285   4.122
18194W        W86588  18.655  43.094  10.008
18195W        W86589  42.909   8.963  10.689
18196W        W86590  34.830  18.598   1.780
18197W        W86591  10.444  14.050   2.342
18198W        W86592  22.533  20.685   3.256
18199W        W86593  43.702   2.392   1.750
18200W        W86594  16.826  18.238  12.838
18201W        W86595  36.007   0.545  13.812
18202W        W86596  25.994  19.811  13.959
18203W        W86597  29.693  11.679   1.232
18204W        W86598  23.780   3.773   4.479
18205W        W86599  17.773  22.416   1.449
18206W        W86600  37.389  38.589   0.787
18207W        W86601  12.034  34.522   0.191
18208W        W86602   6.209   8.420  10.321
18209W        W86603  17.170  27.054   3.998
18210W        W86604  19.149  22.153   3.777
18211W        W86605  32.534  37.598   4.537
18212W        W86606   6.864  26.280  11.203
18213W        W86607  18.645  34.089  11.630
18214W        W86608   3.696   0.405   4.926
18215W        W86609  37.556  10.906  14.422
18216W        W86610  27.490  22.429  11.107
18217W        W86611   9.819  27.974   2.630
18218W        W86612  23.726  34.518  14.122
18219W        W86613  19.099  40.108   3.246
18220W        W86614  25.516  27.224   4.272
18221W        W86615  18.191  27.011   4.254
18222W        W86616  24.328  30.510  13.368
18223W        W86617  37.068  19.181  12.708
18224W        W86618   0.042  38.505   3.169
18225W        W86619  22.479   4.961  14.773
18226W        W86620   8.708  13.652  12.454
18227W        W86621  34.725  16.301  13.854
18228W        W86622   5.161  25.630   4.088
18229W        W86623  34.496  32.531  10.619
18230W        W86624  21.052  26.170   3.365
18231W        W86625  23.720  18.692  13.481
18232W        W86626  32.053  15.368   4.034
18233W        W86627   4.983  16.690   0.715
18234W        W86628  11.502  35.267   5.007
18235W        W86629  17.458  41.715  13.802
18236W        W86630  40.828   6.324   3.676
18237W        W86631   0.908   7.388  13.060
18238W        W86632   5.829  26.700  10.482
18239W        W86633  40.902  20.219   1.431
18240W        W86634  16.719  26.805   5.023
18241W        W86635  26.330  44.479  14.947
18242W        W86636  32.981   9.303  10.711
18243W        W86637   8.792   5.422  12.323
18244W        W86638  20.998   0.379  11.628
18245W        W86639  39.280  23.631  12.646
18246W        W86640   3.753  39.307  14.306
18247W        W86641  20.741  40.543  11.243
18248W        W86642  15.346  41.861   3.251
18249W        W86643  11.473  15.046   1.254
18250W        W86644  12.804  17.556   2.527
18251W        W86645  40.811  30.671  13.529
18252W        W86646  41.805  18.175   0.504
18253W        W86647  18.154   7.646   0.119
18254W        W86648  42.472  25.639  14.148
18255W        W86649  24.452  44.206   1.696
18256W        W86650  24.075  23.281  14.347
18257W        W86651   0.054  25.430   2.891
18258W        W86652   3.392  40.932   0.378
18259W        W86653   3.558  44.178  13.187
18260W        W86654  40.940  27.359  14.059
18261W        W86655  28.595   0.484   0.967
18262W        W86656   0.942  11.285   3.159
18263W        W86657  38.145   1.967   5.283
18264W        W86658  33.074   2.261  12.919
18265W        W86659  13.116  24.438   2.128
18266W        W86660  25.846   8.898  11.718
18267W        W86661  35.431  27.087  11.495
18268W        W86662  25.401  22.480  13.316
18269W        W86663  27.450   1.258  11.112
18270W        W86664  41.587   2.277   3.150
18271W        W86665  39.884  14.788  12.229
18272W        W86666  25.885   3.398   1.827
18273W        W86667  19.361  41.482   1.724
18274W        W86668  29.479  16.061  13.401
18275W        W86669  19.737  15.331   5.096
18276W        W86670  23.961  36.831   1.446
18277W        W86671  10.130  33.059   4.878
18278W        W86672  13.203  22.946  11.621
18279W        W86673  22.005  28.393  12.711
18280W        W86674  25.190   0.509  13.812
18281W        W86675  19.071   0.386   1.252
18282W        W86676  38.942  32.579  10.545
18283W        W86677   5.817  21.513  14.816
18284W        W86678  41.771  18.060  13.618
18285W        W86679  27.013  27.593  11.591
18286W        W86680  16.994  18.018   0.048
18287W        W86681  40.608  14.234   1.712
18288W        W86682   6.870  20.716  14.849
18289W        W86683  17.560  14.360   3.429
18290W        W86684   6.602  40.289   4.614
18291W        W86685  32.317   9.195   2.334
18292W        W86686  40.520  19.432  12.067
18293W        W86687  25.499  22.019  14.987
18294W        W86688  28.223  41.484   0.883
18295W        W86689  34.486  10.297   3.100
18296W        W86690   3.223  29.150   1.170
18297W        W86691  34.988  30.175  11.497
18298W        W86692  11.780  28.572   3.627
18299W        W86693  34.946  19.238  13.571
18300W        W86694  24.054  36.417   3.722
18301W        W86695  39.219  43.739   0.041
18302W        W86696  35.561   5.406   1.299
18303W        W86697  13.224   0.756  14.920
18304W        W86698  43.275  14.266   1.229
18305W        W86699  16.533  15.959   1.757
18306W        W86700  27.973  31.606   2.298
18307W        W86701  31.523  35.941  14.232
18308W        W86702   0.013   5.676  10.633
18309W        W86703  37.979  26.155  13.911
18310W        W86704  17.173  28.676   0.364
18311W        W86705  43.553  42.836  12.888
18312W        W86706  19.426  18.694  14.525
18313W        W86707  24.084  17.830  14.347
18314W        W86708   7.949  19.165   0.772
18315W        W86709  43.484  32.038   3.698
18316W        W86710   5.237  12.083  13.923
18317W        W86711  33.115   8.873   4.424
18318W        W86712  11.243  10.963   0.724
18319W        W86713   3.461  27.947   0.248
18320W        W86714  25.202  41.389  14.755
18321W        W86715  40.449  28.291   4.640
18322W        W86716   1.460   4.707   1.399
18323W        W86717   3.373  20.261   4.713
18324W        W86718   8.176  21.499   1.234
18325W        W86719  29.085  44.747   1.667
18326W        W86720   9.454  12.781  12.018
18327W        W86721  37.908  18.776   4.541
18328W        W86722  24.536  10.041   0.998
18329W        W86723  21.904   5.768   1.166
18330W        W86724  13.020   2.395   1.412
18331W        W86725  43.446   2.962   0.889
18332W        W86726  28.005  27.663   2.375
18333W        W86727  15.529   5.233   4.499
18334W        W86728  13.902  23.182   4.862
18335W        W86729   5.790   7.056   9.792
18336W        W86730   6.274  27.777   3.961
18337W        W86731   3.576  35.394   1.861
18338W        W86732  14.986  27.905   1.338
18339W        W86733  35.062  12.769   3.009
18340W        W86734  20.851   9.465   1.799
18341W        W86735  26.431  33.334  13.434
18342W        W86736  10.116  21.693  10.606
18343W        W86737  38.876  14.596  11.897
18344W        W86738  15.281  42.087  11.158
18345W        W86739   3.822  20.747  12.897
18346W        W86740  44.036   9.252   0.334
18347W        W86741   7.272  16.982  13.910
18348W        W86742   2.752  41.314   4.741
18349W        W86743  10.229  26.090   2.294
18350W        W86744  28.885   6.354  10.670
18351W        W86745  24.127   2.072   0.874
18352W        W86746  28.947  35.018  12.624
18353W        W86747  31.180  18.939  12.504
18354W        W86748  31.458  35.327  10.729
18355W        W86749  29.687  15.341  11.990
18356W        W86750  31.402  30.404   2.843
18357W        W86751   8.619  34.559  14.847
18358W        W86752   0.691  28.640   1.955
18359W        W86753  12.561  10.587  11.476
18360W        W86754  14.877   7.753   0.228
18361W        W86755  13.423  33.232   1.687
18362W        W86756  33.659  40.875   3.466
18363W        W86757  31.687  18.788  12.485
18364W        W86758  30.387  19.404   3.443
18365W        W86759   6.360  43.830   5.024
18366W        W86760  43.349   8.221  14.321
18367W        W86761  13.227  12.444  13.980
18368W        W86762   3.871  31.681   2.902
18369W        W86763  38.799   2.809   4.607
18370W        W86764  41.182  37.268   0.338
18371W        W86765  14.378  33.993   4.707
18372W        W86766  39.606  23.558   1.377
18373W        W86767  12.194   0.973  10.688
18374W        W86768  13.307  16.051  14.001
18375W        W86769  33.390  38.778   0.947
18376W        W86770   4.688  19.288   4.174
18377W        W86771  11.649  22.697   1.750
18378W        W86772   1.817  20.098   3.672
18379W        W86773  29.444  32.883  14.535
18380W        W86774  24.443  22.749   3.301
18381W        W86775   6.272  39.823  12.564
18382W        W86776  43.970  20.015   1.649
18383W        W86777  32.401  20.161  14.077
18384W        W86778  44.878   1.227  14.418
18385W        W86779  17.607  23.947  13.015
18386W        W86780  33.322  13.051  13.482
18387W        W86781  21.304  19.328  14.084
18388W        W86782   4.240  16.653   3.302
18389W        W86783   6.293   2.597   5.366
18390W        W86784  43.280  11.273   1.363
18391W        W86785  17.713  23.629  13.399
18392W        W86786  18.556   9.812  11.222
18393W        W86787  30.321   3.521   4.217
18394W        W86788  23.049  22.517  14.785
18395W        W86789   9.630   0.407  14.975
18396W        W86790  35.627   0.176  11.149
18397W        W86791  10.115  39.867  13.179
18398W        W86792  22.559  38.876  12.073
18399W        W86793   3.805  22.978  13.654
18400W        W86794  14.112  43.005   1.527
18401W        W86795  24.361  19.002  11.186
18402W        W86796  41.528   9.660   1.773
18403W        W86797  35.913  32.612  10.739
18404W        W86798  40.403  18.168  13.925
18405W        W86799   4.434  34.859   0.321
18406W        W86800  22.047   2.850   2.821
18407W        W86801  10.813  31.578   0.222
18408W        W86802   4.443  41.349   3.358
18409W        W86803   5.720  43.516   2.794
18410W        W86804  22.666  21.386   1.027
18411W        W86805  28.308  36.019  13.460
18412W        W86806  27.098  37.300  10.235
18413W        W86807  10.726  40.063   1.659
18414W        W86808  44.473  14.575  10.905
18415W        W86809   4.742  15.789  13.516
18416W        W86810  38.420  22.693   4.622
18417W        W86811  31.082  15.737   3.162
18418W        W86812  29.539  36.998   4.419
18419W        W86813  44.330  33.880   3.133
18420W        W86814  27.444  17.316   2.390
18421W        W86815  28.964  19.753  13.450
18422W        W86816  17.681  41.221  10.885
18423W        W86817  12.767   4.841  11.205
18424W        W86818  28.428  33.072   2.264
18425W        W86819  41.826   4.269  11.208
18426W        W86820   1.321  33.530  10.741
18427W        W86821  25.471  22.267  12.823
18428W        W86822  12.800  11.398   4.861
18429W        W86823   6.980  31.622   3.609
18430W        W86824  10.086  15.750   4.650
18431W        W86825  23.093  11.705   0.416
18432W        W86826  23.939  42.875  14.691
18433W        W86827  38.901  38.937  11.241
18434W        W86828  23.529  12.580   0.856
18435W        W86829   6.732  18.188  11.463
18436W        W86830  40.870  13.708  10.923
18437W        W86831  26.568  41.515   3.292
18438W        W86832  17.140  25.401   2.422
18439W        W86833  36.123  43.074  13.450
18440W        W86834  33.348  44.823  11.208
18441W        W86835  34.312  37.900  11.949
18442W        W86836  21.222  13.094   2.652
18443W        W86837  32.590   4.892   2.274
18444W        W86838   0.271  17.259  11.646
18445W        W86839  35.310  26.041   1.358
18446W        W86840  32.508  30.565   1.260
18447W        W86841  13.339  28.730  11.518
18448W        W86842   3.477   6.338   4.116
18449W        W86843  25.667  25.640  11.154
18450W        W86844  35.197   8.253   4.930
18451W        W86845  37.671  39.301   0.522
18452W        W86846   1.314  28.896   2.953
18453W        W86847  26.003  18.415   2.258
18454W        W86848  25.433   1.434  13.034
18455W        W86849  14.658  20.224   3.683
18456W        W86850  17.654  35.013  11.740
18457W        W86851  44.265  41.884  13.475
18458W        W86852  14.210  37.837   4.118
18459W        W86853  43.133  14.782  10.707
18460W        W86854  37.453  38.360   2.449
18461W        W86855  17.593  40.653   1.508
18462W        W86856  33.835   6.025  13.149
18463W        W86857  19.672   0.708  12.385
18464W        W86858  40.698  31.429   4.048
18465W        W86859  12.829  20.598  13.034
18466W        W86860  14.320   0.380  10.687
18467W        W86861  34.372   4.733  12.957
18468W        W86862  29.116  25.219   0.021
18469W        W86863  29.850  35.543  14.449
18470W        W86864  19.653  14.110   3.499
18471W        W86865  44.007  35.965   2.751
18472W        W86866  12.307  40.938  13.795
18473W        W86867  33.000   6.491  10.555
18474W        W86868  21.566  43.366   4.027
18475W        W86869  19.265  39.608  10.385
18476W        W86870  33.085  32.589   4.858
18477W        W86871   7.812   3.789   0.976
18478W        W86872  36.278   7.742  11.186
18479W        W86873  10.235  29.178   1.238
18480W        W86874  13.586  18.578  14.593
18481W        W86875  32.795   3.849  10.871
18482W        W86876  18.280  21.249  11.972
18483W        W86877  23.476   1.476   3.770
18484W        W86878  38.640  27.522  14.100
18485W        W86879  16.814   6.147   4.378
18486W        W86880  13.112  13.708   2.045
18487W        W86881  13.900  19.236  14.489
18488W        W86882  15.785  28.565   4.072
18489W        W86883  35.461   9.433   1.229
18490W        W86884   4.418  22.967   1.479
18491W        W86885  36.430  15.443  11.101
18492W        W86886  32.899   9.474   1.332
18493W        W86887  26.187  31.098  14.693
18494W        W86888  15.389  42.254  14.294
18495W        W86889   7.153  36.661  13.097
18496W        W86890   6.802   6.780  13.364
18497W        W86891   8.806  12.152   2.640
18498W        W86892  14.770  35.880  11.663
18499W        W86893  10.698  43.338  12.336
18500W        W86894  38.527  13.782   1.331
18501W        W86895  24.717  30.961   1.580
18502W        W86896  42.534  24.123  12.116
18503W        W86897  13.576  16.691   2.272
18504W        W86898  24.466  40.924  13.555
18505W        W86899  44.972  29.690  12.252
18506W        W86900  15.667  28.975   3.133
18507W        W86901  18.681  35.147   0.398
18508W        W86902   5.675  21.047   1.692
18509W        W86903  10.921  22.483  14.474
18510W        W86904  39.533  28.252  11.532
18511W        W86905  25.061  36.988   1.741
18512W        W86906  34.585  11.142   2.171
18513W        W86907  20.740  44.991   3.190
18514W        W86908   6.140   4.092   4.098
18515W        W86909   8.437  19.121   1.230
18516W        W86910  18.598  30.519   1.865
18517W        W86911  30.048  35.041   2.850
18518W        W86912  10.357  41.959  14.489
18519W        W86913  16.258  14.202  13.209
18520W        W86914   7.831  16.187   4.631
18521W        W86915  44.865   9.826   2.625
18522W        W86916  23.446  20.664   0.201
18523W        W86917  27.232  21.126  10.685
18524W        W86918  28.997  20.710   3.346
18525W        W86919   0.515  22.328   4.796
18526W        W86920  43.381  33.747  11.636
18527W        W86921  28.718   1.197   3.165
18528W        W86922  32.744  31.446  11.630
18529W        W86923  44.545  17.615   0.479
18530W        W86924  23.769  42.869  13.052
18531W        W86925  36.207  28.467   4.216
18532W        W86926  41.945   8.930  12.130
18533W        W86927  20.978  26.690  13.173
18534W        W86928  20.008  37.287   1.854
18535W        W86929  21.065  14.523   1.042
18536W        W86930   6.724   8.011   4.499
18537W        W86931  44.497  17.591  11.458
18538W        W86932  15.058  25.507   2.272
18539W        W86933   3.854  30.453  12.055
18540W        W86934   1.471  35.893   2.666
18541W        W86935   1.571   5.282   3.164
18542W        W86936   2.780  31.688   4.425
18543W        W86937  30.491  13.016  12.769
18544W        W86938   0.614  34.206  13.704
18545W        W86939  18.684  17.989  14.406
18546W        W86940  16.842  40.381   3.080
18547W        W86941  23.518   6.440   3.689
18548W        W86942  30.324  33.101  13.009
18549W        W86943  43.405   2.481  12.036
18550W        W86944   5.132  37.527  12.539
18551W        W86945  19.329  14.174   3.883
18552W        W86946  38.081  32.068   0.831
18553W        W86947  23.559   3.702   1.910
18554W        W86948  31.916  38.719  13.238
18555W        W86949  36.486   5.015  10.589
18556W        W86950  34.446   0.158  12.088
18557W        W86951  43.313   5.167  10.403
18558W        W86952  26.660  30.827   0.811
18559W        W86953  37.315  18.472   3.182
18560W        W86954  42.823   4.844   3.269
18561W        W86955   6.923   8.206   0.307
18562W        W86956  33.678  27.958  10.021
18563W        W86957  43.852  42.546   4.149
18564W        W86958   8.283  41.989  12.573
18565W        W86959  35.162   1.142   0.958
18566W        W86960   6.267   2.035   4.167
18567W        W86961  12.398  19.828  12.492
18568W        W86962   2.968  35.508  11.533
18569W        W86963   3.893  36.262  10.782
18570W        W86964  18.570  16.707   2.325
18571W        W86965   9.310  38.123   4.336
18572W        W86966  36.503   7.265   2.821
18573W        W86967  36.796  19.038  13.141
18574W        W86968  34.048   1.345  10.709
18575W        W86969  20.464  18.261   0.519
18576W        W86970  33.425  22.737   0.417
18577W        W86971  18.166  13.251   3.403
18578W        W86972  33.130  19.434  12.086
18579W        W86973  42.912  25.954   1.896
18580W        W86974  23.267  23.754   3.148
18581W        W86975  13.655  31.133   0.807
18582W        W86976  38.120  32.463   2.217
18583W        W86977   4.495  24.624  14.948
18584W        W86978  32.766  27.312   1.384
18585W        W86979   1.591  39.929  14.047
18586W        W86980  17.713   6.975   4.794
18587W        W86981  21.203   8.843  11.000
18588W        W86982  25.632  35.607  11.096
18589W        W86983   7.314   8.390  14.488
18590W        W86984   5.015  11.614   4.974
18591W        W86985  32.804   3.894  13.374
18592W        W86986  22.391  27.557  13.685
18593W        W86987  44.296  25.264  11.985
18594W        W86988  14.746  12.125  13.796
18595W        W86989  10.671  23.030  12.970
18596W        W86990  18.093  29.933   2.323
18597W        W86991   9.824  31.818  11.192
18598W        W86992  17.047  24.650  14.737
18599W        W86993  20.169  12.260   2.323
18600W        W86994  11.405   8.005  11.989
18601W        W86995  44.990  15.774   3.140
18602W        W86996  23.745  13.406  13.394
18603W        W86997  26.176  16.252   0.704
18604W        W86998   5.387  22.931  12.546
18605W        W86999   2.065  26.949  13.901
18606W        W87000   0.962  21.683   2.297
18607W        W87001  43.417  26.772   0.708
18608W        W87002  43.066  40.377   2.907
18609W        W87003  30.323  18.282   3.032
18610W        W87004   1.861   1.380  13.858
18611W        W87005   9.354  30.078  10.541
18612W        W87006  22.316  25.236  11.029
18613W        W87007  14.302  14.853   0.807
18614W        W87008  13.152  39.862  10.627
18615W        W87009  21.618  15.877  14.878
18616W        W87010  12.825  20.246  10.646
18617W        W87011   9.161  32.369   2.288
18618W        W87012  39.446   7.244   0.440
18619W        W87013   1.360  21.432  13.942
18620W        W87014  26.086  39.345  13.616
18621W        W87015   8.340  30.932  10.749
18622W        W87016  21.802   3.459  14.047
18623W        W87017  39.647  42.986  13.818
18624W        W87018   9.357  31.142   1.717
18625W        W87019  39.563  21.455   1.282
18626W        W87020   3.287  18.319   1.869
18627W        W87021  13.635  32.020  11.564
18628W        W87022  10.034  19.631  14.024
18629W        W87023  17.916  37.289   1.398
18630W        W87024  31.097  23.104   0.303
18631W        W87025  36.466   1.817  14.006
18632W        W87026   8.557  37.592   0.703
18633W        W87027  32.685  19.375   3.703
18634W        W87028   5.200  41.236  14.954
18635W        W87029  19.493  18.759   0.337
18636W        W87030   5.271  28.656   3.284
18637W        W87031   7.678  29.005   4.594
18638W        W87032   5.269  23.260   1.241
18639W        W87033  10.109  38.825  12.576
18640W        W87034  15.975  29.061   4.095
18641W        W87035  14.685  44.528   3.228
18642W        W87036  36.022  32.601  12.871
18643W        W87037  29.036  41.104   1.299
18644W        W87038  39.372   5.245  14.469
18645W        W87039  26.062  16.834   2.825
18646W        W87040  32.302  29.216  14.739
18647W        W87041  37.608   2.350  13.623
18648W        W87042  10.167  29.446   3.523
18649W        W87043  16.178   3.258  13.449
18650W        W87044   9.553  21.221   4.616
18651W        W87045   5.608  19.184  12.441
18652W        W87046  20.034   7.226   0.788
18653W        W87047  38.570  40.535  13.822
18654W        W87048  32.590   3.280   4.298
18655W        W87049  20.947  15.638   4.992
18656W        W87050   6.176  10.068   0.402
18657W        W87051  39.836  13.637   4.574
18658W        W87052  35.687  44.412  13.907
18659W        W87053  34.021  13.810  10.547
18660W        W87054  44.991  30.747   2.437
18661W        W87055  39.489  40.810   0.943
18662W        W87056  23.471  41.282  12.049
18663W        W87057  17.998   3.395   4.585
18664W        W87058  19.548   5.712   3.705
18665W        W87059   2.922  11.453   1.356
18666W        W87060   3.973  41.307  13.408
18667W        W87061  41.967   6.745  11.703
18668W        W87062  37.390  14.221   1.735
18669W        W87063  12.625  41.981   4.698
18670W        W87064   7.341   7.108   2.283
18671W        W87065  38.315  13.436   4.102
18672W        W87066  31.123   3.419  10.139
18673W        W87067  25.130   9.547  11.536
18674W        W87068   9.785   5.313   3.797
18675W        W87069   1.788  18.137  14.452
18676W        W87070  44.502  19.781  12.927
18677W        W87071  13.689  41.033   2.236
18678W        W87072  19.977  13.041   1.944
18679W        W87073   5.280  17.076  12.310
18680W        W87074  10.517   1.434   0.478
18681W        W87075   7.357  14.335   4.863
18682W        W87076  38.345  26.027  13.438
18683W        W87077  30.450  24.539  10.714
18684W        W87078  24.244  39.957  11.878
18685W        W87079   1.477  10.680   3.822
18686W        W87080   4.209   5.288  11.633
18687W        W87081  18.568  31.374  13.533
18688W        W87082  37.368  17.086  10.392
18689W        W87083  37.028  36.931  12.610
18690W        W87084  36.714  10.922   1.975
18691W        W87085  29.843   7.983   3.117
18692W        W87086  12.033  34.103   3.775
18693W        W87087  22.063  32.353   3.811
18694W        W87088   1.736  23.785  11.192
18695W        W87089  40.281  33.073  12.822
18696W        W87090  11.739  44.960   3.670
18697W        W87091   7.868  25.148   2.687
18698W        W87092   5.682  42.423   2.211
18699W        W87093  32.978   2.004  13.920
18700W        W87094  18.687  16.380  13.489
18701W        W87095  29.635  12.181   1.155
18702W        W87096  40.536  44.330  10.433
18703W        W87097   7.122   5.394   0.596
18704W        W87098  27.412  13.760   3.225
18705W        W87099  42.147  28.660  11.603
18706W        W87100  12.848  14.678   0.916
18707W        W87101  36.094  27.478   3.673
18708W        W87102  15.064  12.615  10.636
18709W        W87103  31.421  26.002   0.668
18710W        W87104  22.616  14.065   3.561
18711W        W87105  12.917  25.063  12.982
18712W        W87106  27.993  22.172   3.807
18713W        W87107  12.749  10.908  12.533
18714W        W87108  17.104   6.811   3.156
18715W        W87109  12.613  38.969  11.544
18716W        W87110  18.221  43.759   2.817
18717W        W87111  10.373  38.486  10.425
18718W        W87112   2.835  33.953  10.739
18719W        W87113   6.498  17.257  12.942
18720W        W87114  41.517   7.148   3.392
18721W        W87115   8.052  42.323  11.534
18722W        W87116  13.667  36.388  11.975
18723W        W87117   7.437  35.131   3.278
18724W        W87118  28.576  33.344   1.826
18725W        W87119  26.209  15.155   4.571
18726W        W87120  26.207  35.028   4.302
18727W        W87121  33.447  18.781  11.586
18728W        W87122   7.502  13.712  11.524
18729W        W87123  31.440  21.261  14.797
18730W        W87124  13.878  22.556  14.913
18731W        W87125  42.392  21.082   0.252
18732W        W87126   5.987  44.919  12.140
18733W        W87127  37.010   5.579  11.159
18734W        W87128   3.237  24.522   0.442
18735W        W87129  10.752  26.594   2.482
18736W        W87130  37.181  44.998  13.560
18737W        W87131   6.748  30.698  13.842
18738W        W87132   9.318  19.506  13.522
18739W        W87133   8.858  41.105  12.790
18740W        W87134  13.120   9.130  12.983
18741W        W87135  39.161  37.229  13.362
18742W        W87136  18.426  37.059   0.258
18743W        W87137  44.299  34.988   4.643
18744W        W87138  19.183  44.806  11.963
18745W        W87139   6.931  15.942  11.480
18746W        W87140   5.615   0.650   3.533
18747W        W87141  26.144  19.831   0.837
18748W        W87142   1.278  20.786  11.187
18749W        W87143  31.198   1.334   0.859
18750W        W87144  15.762  11.604  11.573
18751W        W87145   1.452  18.640  14.888
18752W        W87146  36.023  26.228   4.952
18753W        W87147  40.182  42.958  13.816
18754W        W87148   8.902   8.655   4.574
18755W        W87149  35.544  40.067   2.447
18756W        W87150  23.032  20.666  11.516
18757W        W87151  10.205  41.517  12.041
18758W        W87152  36.959  11.322  11.068
18759W        W87153  18.327   7.344  13.355
18760W        W87154  42.406  13.081  14.931
18761W        W87155  39.313  31.969   1.977
18762W        W87156   5.584   7.250  13.158
18763W        W87157   3.015  17.967   3.696
18764W        W87158  10.871  18.820  12.387
18765W        W87159   7.286  35.950   0.517
18766W        W87160  44.434  16.783   3.403
18767W        W87161  11.900  15.987  12.870
18768W        W87162  38.007  23.430  13.414
18769W        W87163  42.730  35.720   4.980
18770W        W87164   2.886   3.758   4.295
18771W        W87165  15.102  40.843   2.329
18772W        W87166  21.252  22.670   9.791
18773W        W87167   6.795  23.259  11.501
18774W        W87168  25.722  12.516  13.906
18775W        W87169   5.568   7.559  12.642
18776W        W87170  26.125  40.370  10.830
18777W        W87171  43.064   0.899   2.483
18778W        W87172  22.217  42.656  14.816
18779W        W87173  29.992  10.436   2.340
18780W        W87174   0.332  24.750   4.149
18781W        W87175   7.109  32.555  12.346
18782W        W87176  31.405  26.581  14.433
18783W        W87177  28.561  11.248   4.586
18784W        W87178  15.365  13.369   3.222
18785W        W87179   1.780   3.504  14.004
18786W        W87180  30.752  29.930  12.394
18787W        W87181  35.079  18.823  11.153
18788W        W87182   1.355  29.927   1.863
18789W        W87183  18.808  39.825  10.611
18790W        W87184  35.907   8.834  10.648
18791W        W87185  28.529  31.913  12.506
18792W        W87186  26.178  29.049  14.012
18793W        W87187  18.233  37.414   1.014
18794W        W87188   7.224  32.965   3.592
18795W        W87189  18.364  39.260  13.405
18796W        W87190   9.598   9.853   0.330
18797W        W87191  22.710   8.445  14.847
18798W        W87192   0.852  28.119  11.612
18799W        W87193  32.472  19.063   4.125
18800W        W87194   3.311  31.778  11.152
18801W        W87195  38.641  37.000  10.731
18802W        W87196  35.649  28.035   4.705
18803W        W87197  33.966  43.349  11.545
18804W        W87198  34.376  33.198  12.828
18805W        W87199  25.956   4.375  10.569
18806W        W87200   5.180  21.137  10.225
18807W        W87201  34.308   9.139   4.311
18808W        W87202   4.928  33.626  10.735
18809W        W87203  27.563  34.174  11.442
18810W        W87204  44.745  25.498  12.896
18811W        W87205  10.312  26.481  13.971
18812W        W87206  43.217  32.435   3.967
18813W        W87207   1.437  18.376   2.895
18814W        W87208  41.132   5.620  12.599
18815W        W87209   8.439   9.692  13.031
18816W        W87210  30.807  13.875   0.028
18817W        W87211   4.379  10.763   4.772
18818W        W87212  22.597   0.449   4.183
18819W        W87213  15.214  15.727  11.071
18820W        W87214  32.643  15.726   0.961
18821W        W87215  29.889   3.961  11.274
18822W        W87216  11.426   4.401  13.424
18823W        W87217   2.223   2.958  12.869
18824W        W87218  35.833   7.725   1.416
18825W        W87219  14.318  20.498  13.138
18826W        W87220  35.035  41.200  12.885
18827W        W87221  10.252   7.364   2.211
18828W        W87222  34.137   5.511   0.503
18829W        W87223   3.107  10.311   1.248
18830W        W87224  15.324  19.605  12.757
18831W        W87225  15.037  15.793  14.478
18832W        W87226  21.257  36.869  12.994
18833W        W87227  19.317  36.786  13.029
18834W        W87228  26.651  31.504  10.624
18835W        W87229  16.548  30.958   2.265
18836W        W87230   0.487  26.754   4.140
18837W        W87231  15.690   4.874   4.869
18838W        W87232  27.391  25.424   0.214
18839W        W87233  36.835   1.712  13.150
18840W        W87234  22.666  37.269  11.038
18841W        W87235  43.359  31.878   4.731
18842W        W87236  35.363   3.349   1.259
18843W        W87237  25.144  35.766   2.317
18844W        W87238  41.987  40.743  11.224
18845W        W87239  23.088   7.258   4.206
18846W        W87240   2.190  44.713  13.975
18847W        W87241  19.233  34.142  13.437
18848W        W87242  30.489   2.157   2.310
18849W        W87243  18.174  25.935  13.568
18850W        W87244  12.557  34.593   0.976
18851W        W87245  24.899  22.832  12.448
18852W        W87246  33.870   6.478   1.746
18853W        W87247  25.507   7.771  14.764
18854W        W87248  37.705  11.348   1.232
18855W        W87249  32.188  35.520   0.779
18856W        W87250  11.748  40.484  10.641
18857W        W87251  31.065  36.780   4.086
18858W        W87252  37.598   4.900   1.406
18859W        W87253   1.232  37.008   0.779
18860W        W87254  22.061  12.480   1.249
18861W        W87255  27.726  33.450   1.416
18862W        W87256  38.568  29.480  12.523
18863W        W87257   4.679  18.657   0.755
18864W        W87258  35.589  25.601  14.741
18865W        W87259  39.202  34.776   5.013
18866W        W87260  43.833  38.573   5.185
18867W        W87261  32.432  44.020   1.727
18868W        W87262  12.195  44.782   3.458
18869W        W87263  19.653  28.865  11.187
18870W        W87264  18.201  39.898  10.989
18871W        W87265  41.974   9.453   5.058
18872W        W87266  42.177  32.006   3.267
18873W        W87267   1.095  19.254   3.907
18874W        W87268  14.174  17.252   3.641
18875W        W87269  25.239  37.467  10.584
18876W        W87270  21.989  44.142   4.155
18877W        W87271  10.674  12.667  13.860
18878W        W87272  11.825  39.155  10.211
18879W        W87273  29.189  27.263   0.925
18880W        W87274  43.343  38.901   5.542
18881W        W87275   0.966  12.898  11.858
18882W        W87276  44.576  30.227   3.226
18883W        W87277  20.008   3.387   0.710
18884W        W87278   5.299  44.958   0.422
18885W        W87279  23.564  30.920   1.468
18886W        W87280  33.423  27.203  14.153
18887W        W87281  39.093  20.608  11.545
18888W        W87282  23.484  15.699   4.050
18889W        W87283  35.015   6.721   1.974
18890W        W87284  11.923  22.024   2.880
18891W        W87285  11.957  19.579   0.399
18892W        W87286  19.276   7.113   2.690
18893W        W87287  37.572  36.324  12.017
18894W        W87288  35.986  19.316  11.156
18895W        W87289  28.390  28.465  11.927
18896W        W87290  17.798  41.801  12.903
18897W        W87291  21.159  31.911   0.813
18898W        W87292  12.175   4.720  14.582
18899W        W87293  29.670  15.655   2.896
18900W        W87294   3.362  38.605   2.774
18901W        W87295  26.060  30.387   1.407
18902W        W87296  29.039   6.913  13.605
18903W        W87297  32.884  26.113  12.583
18904W        W87298   4.844  12.406  14.704
18905W        W87299  32.030   0.762  11.892
18906W        W87300  15.566  12.606  10.767
18907W        W87301  26.600  24.591  14.569
18908W        W87302  42.517  11.367   2.794
18909W        W87303  14.898  26.192  12.034
18910W        W87304  30.105  22.164   3.979
18911W        W87305  44.613  14.137  13.289
18912W        W87306  19.269  38.371   0.304
18913W        W87307  14.364  36.819   4.189
18914W        W87308  26.105   8.272  14.312
18915W        W87309  32.202  12.773   0.796
18916W        W87310  28.126   0.347   2.257
18917W        W87311  11.204  42.568   2.168
18918W        W87312  30.552  34.543   0.678
18919W        W87313   0.528  34.556  13.300
18920W        W87314  31.038  20.426   2.791
18921W        W87315  44.257  43.866   0.377
18922W        W87316  28.959  17.151  11.163
18923W        W87317  10.710   9.595  14.119
18924W        W87318   8.172  21.584   2.202
18925W        W87319  37.356  19.749  12.873
18926W        W87320  21.977   5.203  12.937
18927W        W87321  39.278  27.045  13.351
18928W        W87322  12.303  34.193  14.327
18929W        W87323   5.184   0.916   0.383
18930W        W87324  17.212  34.809   1.841
18931W        W87325  36.039  22.241   1.673
18932W        W87326  19.368  27.803  13.826
18933W        W87327  43.829  29.937   3.231
18934W        W87328  17.635  40.922  12.237
18935W        W87329  39.008  34.001  12.581
18936W        W87330  21.628  29.384  11.094
18937W        W87331  34.900   9.339  13.340
18938W        W87332  18.507  38.348   2.683
18939W        W87333  35.878   6.047   2.766
18940W        W87334  19.497  37.140   0.839
18941W        W87335   0.363  33.478   3.251
18942W        W87336   6.319  40.022  13.559
18943W        W87337  33.565  31.157  12.665
18944W        W87338  18.605   5.436  13.548
18945W        W87339  26.128  36.873   0.688
18946W        W87340   6.672  27.555   5.188
18947W        W87341  21.414  30.970  13.977
18948W        W87342  27.445  30.166   4.755
18949W        W87343   1.287   9.797   4.410
18950W        W87344   0.928   6.762   2.398
18951W        W87345  33.426  37.363  13.735
18952W        W87346  20.860  20.968  10.512
18953W        W87347   7.795  15.097   2.996
18954W        W87348   8.000   1.880   3.890
18955W        W87349   4.141  19.654   2.368
18956W        W87350  31.993  18.379  12.301
18957W        W87351  16.422   7.453   1.882
18958W        W87352  43.011  41.530   4.640
18959W        W87353  18.661  27.687   2.252
18960W        W87354   3.178  41.458   1.880
18961W        W87355   8.733  11.205  13.946
18962W        W87356   8.133  11.662   2.696
18963W        W87357   8.827  42.355  11.197
18964W        W87358  24.963  10.938  11.702
18965W        W87359  30.961  44.352   4.152
18966W        W87360   4.747  10.547  10.598
18967W        W87361  34.221  34.344   3.846
18968W        W87362   0.390   7.751  12.300
18969W        W87363  30.228   6.236  11.438
18970W        W87364   1.259  35.769   2.186
18971W        W87365  15.731   6.329   1.853
18972W        W87366  23.740  37.386  11.627
18973W        W87367  12.167  29.890   3.230
18974W        W87368  19.575   7.277   1.618
18975W        W87369  32.907  10.245   0.016
18976W        W87370  21.435  16.490  10.554
18977W        W87371  32.356  28.230   2.767
18978W        W87372  16.834  12.867  14.835
18979W        W87373   9.233  15.344  11.870
18980W        W87374  10.115  18.605  12.530
18981W        W87375  29.197  34.716  13.899
18982W        W87376  11.713  29.028  10.194
18983W        W87377  31.030  40.848  10.695
18984W        W87378  28.820   2.727  11.863
18985W        W87379  39.178  38.816  11.647
18986W        W87380  10.462  13.487   3.217
18987W        W87381  10.300  26.654  10.749
18988W        W87382   5.516  25.331   2.207
18989W        W87383  33.576   2.207  11.107
18990W        W87384  38.550   5.124  13.461
18991W        W87385  11.326   6.702  13.481
18992W        W87386  42.916  31.848  11.626
18993W        W87387   3.785  18.271  13.125
18994W        W87388  30.671  10.561   4.304
18995W        W87389  20.713  11.274   4.699
18996W        W87390  42.767  16.751   4.147
18997W        W87391  17.654  41.091   1.810
18998W        W87392  34.526  20.204   1.310
18999W        W87393  19.040  24.745  12.951
19000W        W87394  17.697  36.819  13.388
19001W        W87395  37.940  10.681   1.225
19002W        W87396   7.767   6.703  10.485
19003W        W87397  12.763   4.673  14.474
19004W        W87398  14.786  12.928  11.965
19005W        W87399   4.195  16.226  12.910
19006W        W87400   3.927   9.848  13.982
19007W        W87401   8.586  40.530  11.106
19008W        W87402  19.743   6.666  11.533
19009W        W87403  39.129  40.361  12.307
19010W        W87404  33.847  29.574  14.449
19011W        W87405   9.792  41.107  13.336
19012W        W87406  24.555  37.585   0.493
19013W        W87407  38.798  33.517   4.176
19014W        W87408  32.101   5.748   3.281
19015W        W87409  35.477  22.616  12.062
19016W        W87410  20.565   4.764   4.805
19017W        W87411  21.175  16.247  10.976
19018W        W87412  32.546  34.421  10.494
19019W        W87413  35.026  32.134  11.428
19020W        W87414   6.942  25.916  12.024
19021W        W87415  14.347  44.211  13.911
19022W        W87416  39.553  10.546  10.182
19023W        W87417  13.890  12.063  11.880
19024W        W87418  23.618  33.871   2.229
19025W        W87419   6.167  29.140   1.015
19026W        W87420   7.585   8.361  13.098
19027W        W87421  17.362  22.304  12.579
19028W        W87422  31.913  20.466   4.103
19029W        W87423  27.080  10.653   2.696
19030W        W87424  29.109   5.982   0.182
19031W        W87425   4.486  34.569   1.326
19032W        W87426  14.530  35.075   4.678
19033W        W87427   3.530   9.085  14.420
19034W        W87428  10.205   9.429   0.993
19035W        W87429  19.061  33.926  12.006
19036W        W87430  33.856  13.121  13.491
19037W        W87431  28.793  29.736  13.883
19038W        W87432  22.101   8.324  13.975
19039W        W87433  10.884  24.425   1.981
19040W        W87434  26.620  36.016   3.041
19041W        W87435  42.468  32.090  12.981
19042W        W87436  22.139  39.837   3.080
19043W        W87437  13.142  33.671  13.487
19044W        W87438  16.817  21.106   4.101
19045W        W87439   7.912  16.885   0.624
19046W        W87440  38.047  30.542   3.615
19047W        W87441  41.539   4.303   2.324
19048W        W87442  19.233  39.150   0.659
19049W        W87443  38.192  11.141   0.386
19050W        W87444  35.967  19.453  14.869
19051W        W87445  20.207  43.011   1.535
19052W        W87446   3.583   1.317  13.847
19053W        W87447   7.844  33.143  13.586
19054W        W87448  43.721  39.560   2.154
19055W        W87449  29.275   1.449  11.514
19056W        W87450  35.553  22.585  14.269
19057W        W87451   8.228  29.496  11.950
19058W        W87452  13.843   3.010  10.616
19059W        W87453  11.117  17.172  12.101
19060W        W87454  38.123  41.045   1.114
19061W        W87455   4.164  34.641  13.281
19062W        W87456  32.678  10.897   2.947
19063W        W87457  28.999  22.678  11.869
19064W        W87458  31.685  20.818  12.606
19065W        W87459  43.508  22.877   1.290
19066W        W87460  36.363  29.883  11.577
19067W        W87461  11.129  13.727   0.253
19068W        W87462   3.794  27.556   3.159
19069W        W87463   7.461  26.150   4.360
19070W        W87464  43.214  36.482  13.075
19071W        W87465   6.002   9.772   4.113
19072W        W87466  32.314  22.904   1.917
19073W        W87467   6.509   6.551   0.181
19074W        W87468  33.082   5.950   1.406
19075W        W87469  23.521  39.882  12.585
19076W        W87470  11.371  28.545   4.455
19077W        W87471  20.815  33.367   3.111
19078W        W87472  32.567  30.317  12.072
19079W        W87473  30.668   2.889  14.806
19080W        W87474  13.979  12.243  11.066
19081W        W87475  32.027  30.913   3.221
19082W        W87476  13.097   7.422  11.872
19083W        W87477  13.719  21.516   4.546
19084W        W87478   2.987  29.636   0.436
19085W        W87479  20.737  37.645  11.860
19086W        W87480  36.308  32.141  12.528
19087W        W87481  16.855  10.787   0.728
19088W        W87482  15.308  27.066  11.099
19089W        W87483  43.255  39.175  10.216
19090W        W87484   2.329  44.729   1.222
19091W        W87485  21.721  38.057  14.304
19092W        W87486   6.379  17.828   4.812
19093W        W87487   9.244  27.651   1.911
19094W        W87488  16.511  33.970   4.170
19095W        W87489  43.093  18.649   0.066
19096W        W87490  24.075  38.862  11.859
19097W        W87491  24.110   6.363   4.377
19098W        W87492   5.700  13.109  12.948
19099W        W87493  40.358  40.150  14.306
19100W        W87494  20.318  17.739   2.731
19101W        W87495  44.516  13.751  12.018
19102W        W87496   7.358  25.189   2.888
19103W        W87497  26.246  29.627  11.513
19104W        W87498  24.024  15.390  11.906
19105W        W87499  35.035  18.241   2.958
19106W        W87500  11.945  38.449  14.415
19107W        W87501  14.094  12.431  11.569
19108W        W87502  24.169  13.227   0.415
19109W        W87503   3.276  20.252  11.411
19110W        W87504  20.556   7.726   2.280
19111W        W87505  42.869  35.227  10.212
19112W        W87506  39.007  24.114  13.153
19113W        W87507  27.938  41.361  10.735
19114W        W87508  17.792  36.018   2.260
19115W        W87509  41.296  33.213  12.619
19116W        W87510  39.809  24.312  14.619
19117W        W87511  17.294   9.871  13.460
19118W        W87512   0.179  24.629   2.232
19119W        W87513  35.865  41.702   0.903
19120W        W87514  35.420  42.638  12.679
19121W        W87515  21.969  43.692  10.958
19122W        W87516  31.246   8.226   0.378
19123W        W87517  13.012   8.794   2.333
19124W        W87518  39.348  44.750   2.444
19125W        W87519  40.371  41.945  13.846
19126W        W87520   7.218  23.841  12.666
19127W        W87521  11.187  10.324  10.338
19128W        W87522   4.692  26.932   0.941
19129W        W87523  14.695  19.218   4.164
19130W        W87524  37.970   8.299  11.605
19131W        W87525  11.693  17.753   3.868
19132W        W87526  13.397  36.431  11.075
19133W        W87527  14.854  21.520   4.564
19134W        W87528   7.700  11.370   3.878
19135W        W87529  34.957   4.674  11.598
19136W        W87530  27.462  16.049  13.179
19137W        W87531  41.820   5.775   3.226
19138W        W87532  21.150  10.705  10.797
19139W        W87533  23.754  41.347  14.994
19140W        W87534  43.541  40.292  11.047
19141W        W87535  27.644   2.774   3.244
19142W        W87536  40.063  38.029   2.237
19143W        W87537  42.247  13.803  11.651
19144W        W87538  11.511  38.750   3.712
19145W        W87539   7.700  22.302  10.248
19146W        W87540   5.518  19.170  14.332
19147W        W87541  37.060  19.278   0.394
19148W        W87542  13.787  36.842   1.834
19149W        W87543  16.342  22.646   1.417
19150W        W87544  24.088   3.312   5.350
19151W        W87545  13.875  26.785   0.887
19152W        W87546  28.362  33.338  12.353
19153W        W87547  21.235  28.041   5.040
19154W        W87548  29.723  38.977   4.670
19155W        W87549   3.826  42.724  11.255
19156W        W87550  35.623  37.375   2.294
19157W        W87551  42.964  15.122  14.371
19158W        W87552   0.040  37.108   3.550
19159W        W87553  39.273   8.924  10.758
19160W        W87554  12.695  44.546  14.514
19161W        W87555  24.523  15.851  14.873
19162W        W87556  37.292  12.777   0.010
19163W        W87557  34.057  19.312   4.209
19164W        W87558   2.906   6.777  10.520
19165W        W87559  13.553   1.837   0.813
19166W        W87560  25.881  22.159  11.892
19167W        W87561   3.981  12.136   2.109
19168W        W87562  24.711  13.248  10.839
19169W        W87563  10.782  19.585  14.076
19170W        W87564  24.525  32.702   3.286
19171W        W87565  40.902  34.386  11.212
19172W        W87566  36.875  19.180   4.659
19173W        W87567  31.713  37.022   1.957
19174W        W87568   3.329  26.493   0.360
19175W        W87569  26.438  32.390  14.467
19176W        W87570  11.233   3.927  13.337
19177W        W87571   8.402  16.617  11.939
19178W        W87572  38.440  14.657  14.174
19179W        W87573  33.611  41.457   4.320
19180W        W87574  22.663  26.655   5.049
19181W        W87575  39.908   0.889   3.301
19182W        W87576  25.156  29.989  13.391
19183W        W87577  22.257   5.185  14.318
19184W        W87578  29.893  21.145  13.921
19185W        W87579   5.906  27.546  10.549
19186W        W87580  41.817  26.781  12.953
19187W        W87581   0.632  44.283  14.561
19188W        W87582  19.829  23.888  11.400
19189W        W87583  40.858  43.317  13.361
19190W        W87584  36.101  28.940  13.304
19191W        W87585  26.240   5.027   4.557
19192W        W87586   1.710  12.839  13.330
19193W        W87587  32.621   5.911   3.293
19194W        W87588  20.805   6.306  13.052
19195W        W87589  17.147  18.678   1.849
19196W        W87590   8.434  32.425   0.323
19197W        W87591  44.522  20.826  13.102
19198W        W87592  35.834  29.660   3.075
19199W        W87593  28.881   6.137   4.148
19200W        W87594  27.234  20.098  14.617
19201W        W87595  11.754   0.383  11.227
19202W        W87596   1.283  23.713   4.589
19203W        W87597  17.329   6.992   5.472
19204W        W87598  13.658  20.219  13.843
19205W        W87599  11.220  35.852  11.648
19206W        W87600  36.610  20.963  14.005
19207W        W87601  35.450  15.234  13.041
19208W        W87602  21.127  16.419   2.287
19209W        W87603  11.447  32.177   3.797
19210W        W87604  28.181  35.398   3.637
19211W        W87605  32.515   3.906  11.983
19212W        W87606  26.491  16.221   1.328
19213W        W87607  23.775  23.033  12.991
19214W        W87608   8.577  21.044   4.622
19215W        W87609   1.446  44.411  12.957
19216W        W87610  16.133  28.608  14.712
19217W        W87611  29.847   5.378   4.585
19218W        W87612   6.557   5.418   4.606
19219W        W87613   1.041  16.558   1.760
19220W        W87614  23.180  17.743   0.187
19221W        W87615  41.412  11.833   3.500
19222W        W87616  23.974   3.419   2.300
19223W        W87617  15.499  27.412   2.355
19224W        W87618  24.000  22.280  12.476
19225W        W87619  21.561  39.448  13.906
19226W        W87620  43.471  23.249  10.715
19227W        W87621  16.870  39.095   0.053
19228W        W87622  25.456  25.242   4.823
19229W        W87623  34.009  14.843   4.618
19230W        W87624   7.704   0.731  10.250
19231W        W87625  35.595   4.588   4.996
19232W        W87626  38.594  44.517   0.961
19233W        W87627   3.317   0.722   4.156
19234W        W87628  13.381  17.604   4.503
19235W        W87629  25.425  11.381   2.821
19236W        W87630  36.008  13.274  10.760
19237W        W87631  32.382  17.649   2.827
19238W        W87632  14.561  36.597  12.980
19239W        W87633  36.081  20.521   0.719
19240W        W87634  14.723  20.946  10.391
19241W        W87635  15.115  32.803   4.620
19242W        W87636  14.588  19.790  13.957
19243W        W87637  34.346   4.244   0.769
19244W        W87638  29.185  24.468  14.443
19245W        W87639   3.332  38.495   0.889
19246W        W87640  37.892  34.449   3.758
19247W        W87641  38.487   1.897  13.414
19248W        W87642   3.997  35.566  14.941
19249W        W87643   5.649  14.914  14.561
19250W        W87644  21.674  28.121  11.727
19251W        W87645  41.515  36.140   4.159
19252W        W87646  44.890  14.048  11.872
19253W        W87647  21.657   7.199   4.617
19254W        W87648  30.868  10.057   2.272
19255W        W87649   9.205  37.468   3.245
19256W        W87650  13.732  31.693  12.466
19257W        W87651  32.675   0.263   4.155
19258W        W87652  32.807   8.898  13.559
19259W        W87653  22.739   3.707  14.345
19260W        W87654   8.304  44.779  11.633
19261W        W87655  41.073   3.497  14.973
19262W        W87656  33.707  12.148  14.323
19263W        W87657  37.854  13.429  14.313
19264W        W87658  39.966  18.303   3.697
19265W        W87659  21.171   3.316   2.735
19266W        W87660  43.831  43.890  11.418
19267W        W87661  37.968   9.458  13.756
19268W        W87662  16.265  10.819  12.530
19269W        W87663  30.854  35.457  14.379
19270W        W87664  12.246   3.375  14.609
19271W        W87665  18.202  17.156   0.750
19272W        W87666  12.582   1.260   2.891
19273W        W87667  15.659  37.785   4.136
19274W        W87668   0.921  23.327  12.545
19275W        W87669  38.616  39.495   4.585
19276W        W87670   8.646  30.204   1.372
19277W        W87671   1.019  14.162   1.900
19278W        W87672  11.941  20.173   4.563
19279W        W87673  36.413  40.999   2.257
19280W        W87674  19.666  40.952   2.868
19281W        W87675  29.058  31.223  10.714
19282W        W87676  18.248  18.844   4.878
19283W        W87677  10.556  22.451  14.075
19284W        W87678  37.349  26.014   1.230
19285W        W87679  12.370   5.655  12.575
19286W        W87680  10.226  41.805   4.740
19287W        W87681   8.490  41.736  13.494
19288W        W87682  16.619  19.619   4.139
19289W        W87683  17.693  42.797   2.436
19290W        W87684  44.510  23.479   1.300
19291W        W87685  20.710  43.604  11.671
19292W        W87686   5.243  30.345  12.828
19293W        W87687  42.856   3.976   0.011
19294W        W87688  36.878  31.506   2.468
19295W        W87689   2.937  41.733   0.967
19296W        W87690   5.953   7.261   3.409
19297W        W87691  30.386  33.890  13.951
19298W        W87692   1.283  11.692   3.254
19299W        W87693  34.145  32.532  10.992
19300W        W87694  16.585  36.378   4.407
19301W        W87695  17.935  39.941   4.943
19302W        W87696  20.763   0.587  14.270
19303W        W87697  31.743  41.695   1.535
19304W        W87698  42.825  10.856   1.320
19305W        W87699   7.246  10.427   2.108
19306W        W87700  15.526  25.673  12.789
19307W        W87701  20.767  37.206   2.185
19308W        W87702   8.687  25.571  11.611
19309W        W87703  10.749  35.479  13.494
19310W        W87704  35.694   4.278   3.621
19311W        W87705  20.521  21.724   3.780
19312W        W87706  21.655  16.577   2.399
19313W        W87707   9.955  41.558   3.200
19314W        W87708  16.283  43.198  12.819
19315W        W87709   4.802  24.370   9.717
19316W        W87710  41.470  10.543   1.056
19317W        W87711  11.651  13.628   0.263
19318W        W87712  33.336  28.560   1.148
19319W        W87713  42.161  25.529   0.061
19320W        W87714  13.399  24.938  12.085
19321W        W87715  21.942   2.348   1.522
19322W        W87716   1.630  34.172  11.358
19323W        W87717  38.102  14.349   3.049
19324W        W87718   9.660   1.466   1.743
19325W        W87719  44.476  36.445  13.174
19326W        W87720  20.279  11.875   1.252
19327W        W87721  35.123  30.219   4.773
19328W        W87722  17.225   6.316   0.845
19329W        W87723   5.829  20.553   4.663
19330W        W87724  18.513  21.972   2.174
19331W        W87725  36.467  28.534   3.779
19332W        W87726   3.449   2.104   4.623
19333W        W87727  32.032   1.821   4.368
19334W        W87728  44.582  39.375  11.067
19335W        W87729  10.787   3.959  13.929
19336W        W87730  42.050  44.792   2.114
19337W        W87731   3.445  36.770   3.652
19338W        W87732  26.048  34.387  11.533
19339W        W87733  19.176  25.390   4.086
19340W        W87734  25.280  43.258   2.710
19341W        W87735  15.772  20.233  13.578
19342W        W87736  18.393  41.616  10.216
19343W        W87737  18.163  15.261  14.796
19344W        W87738  10.238   2.826  10.204
19345W        W87739  20.138   4.282   1.485
19346W        W87740   5.887  21.281  14.351
19347W        W87741  40.990  20.526  11.089
19348W        W87742   6.331  33.020  12.886
19349W        W87743  27.146  12.089   1.915
19350W        W87744  43.071  24.562  10.781
19351W        W87745  10.120   9.689   4.163
19352W        W87746  26.870  31.499   4.602
19353W        W87747   3.408   3.860  10.322
19354W        W87748  40.902  15.949   3.416
19355W        W87749  13.621  28.144   0.806
19356W        W87750   0.838  39.048   0.918
19357W        W87751  19.971  11.686   0.836
19358W        W87752  24.346   9.043   3.108
19359W        W87753  19.222  36.878  14.886
19360W        W87754  28.487  34.825   0.624
19361W        W87755  18.127   0.314   3.837
19362W        W87756  25.218  39.854  14.246
19363W        W87757  41.530  11.463   1.902
19364W        W87758   5.976  17.115   2.718
19365W        W87759  35.051   3.964   2.737
19366W        W87760  24.453  31.962  12.432
19367W        W87761  40.352  38.515  12.437
19368W        W87762  36.507  28.977   1.660
19369W        W87763  43.196  30.406   5.136
19370W        W87764  32.069  44.208   2.811
19371W        W87765  36.544  24.994  12.147
19372W        W87766   5.255   6.867  14.677
19373W        W87767  10.182  25.535   0.791
19374W        W87768  31.424  29.471   2.381
19375W        W87769  21.388  15.894  13.322
19376W        W87770  42.892  43.517   3.699
19377W        W87771  41.944  41.525  11.653
19378W        W87772  14.322  24.629   4.137
19379W        W87773   4.359  22.990  11.101
19380W        W87774  25.116   2.853   1.260
19381W        W87775  25.494  29.225  11.196
19382W        W87776  31.106  34.827   4.762
19383W        W87777  18.252  35.361  14.445
19384W        W87778  15.148  13.828   3.382
19385W        W87779  37.674  32.246   2.413
19386W        W87780  43.939   8.416   3.057
19387W        W87781  20.225   9.918   4.208
19388W        W87782  14.042  41.317  14.100
19389W        W87783  21.576  39.502  14.462
19390W        W87784   0.763  21.561   2.778
19391W        W87785  16.686   3.700   2.718
19392W        W87786  10.634  26.278   0.515
19393W        W87787  12.933   4.741  12.990
19394W        W87788  42.718  27.442  11.671
19395W        W87789  21.179  37.350   1.202
19396W        W87790   8.387   7.860   2.694
19397W        W87791  37.046  25.526   3.630
19398W        W87792  18.687  22.551   0.428
19399W        W87793   1.460  20.539  11.588
19400W        W87794  14.122  25.166  11.667
19401W        W87795  15.000   8.815  13.050
19402W        W87796  33.885  22.682  14.829
19403W        W87797  44.911  33.788  11.736
19404W        W87798   9.546  41.799   1.941
19405W        W87799   8.915  39.598  11.595
19406W        W87800  22.961  13.698   2.113
19407W        W87801   4.171  26.856  13.994
19408W        W87802  12.672   9.675   4.424
19409W        W87803  12.234   0.766   1.303
19410W        W87804  27.401  38.845   3.354
19411W        W87805   5.974  11.311   3.287
19412W        W87806  29.618  10.378  11.081
19413W        W87807  12.437   2.875  13.964
19414W        W87808  37.434   9.900  14.558
19415W        W87809  30.592  16.622   4.605
19416W        W87810   2.802  18.279   0.815
19417W        W87811  30.637  36.764  11.592
19418W        W87812  22.231   8.589  11.067
19419W        W87813  27.465  19.275  10.955
19420W        W87814   0.860  18.995   2.373
19421W        W87815  40.596   7.758  13.844
19422W        W87816  41.378  40.214  11.629
19423W        W87817  11.078  16.208   3.793
19424W        W87818   1.145  10.352   4.692
19425W        W87819  19.263  10.250  13.851
19426W        W87820   4.526  34.344   3.198
19427W        W87821   3.926   3.018  12.717
19428W        W87822   4.936  25.561  13.736
19429W        W87823  21.029  14.353  11.203
19430W        W87824   5.479  39.113  13.078
19431W        W87825  35.873  11.758  10.610
19432W        W87826   3.953  11.594  12.918
19433W        W87827   7.983  35.035  10.016
19434W        W87828  44.279  12.338  13.154
19435W        W87829  39.363  27.420   1.818
19436W        W87830  34.606  15.222  12.788
19437W        W87831  10.503  41.701   5.207
19438W        W87832   5.424  21.733   4.755
19439W        W87833  33.595   3.671  11.255
19440W        W87834  41.037  34.133  12.440
19441W        W87835   0.617  16.798  13.845
19442W        W87836  29.256  35.020  14.929
19443W        W87837  12.398  33.448  12.468
19444W        W87838  25.850  36.051  11.230
19445W        W87839   1.405  39.972   0.568
19446W        W87840   9.040  38.502  12.530
19447W        W87841   7.904  23.734   2.721
19448W        W87842  36.825  16.326   2.891
19449W        W87843  16.311  40.035   2.810
19450W        W87844  30.530  23.130   2.141
19451W        W87845   3.974  40.488   4.768
19452W        W87846  17.877  14.773  14.045
19453W        W87847   8.194  10.688   2.330
19454W        W87848  33.785   0.991  13.475
19455W        W87849  24.459   4.219   4.180
19456W        W87850  10.916  14.399  10.630
19457W        W87851  19.228  41.443  14.379
19458W        W87852   8.886  40.965  13.413
19459W        W87853   2.790  30.978   1.729
19460W        W87854   6.988  39.534   1.690
19461W        W87855  38.305  39.691  14.045
19462W        W87856  22.417  34.658  14.916
19463W        W87857  17.701  37.263   1.903
19464W        W87858  12.337  30.409   3.310
19465W        W87859  32.392  23.576   2.728
19466W        W87860   3.187   9.971   4.943
19467W        W87861  31.443  44.408  12.007
19468W        W87862   2.593  11.388   4.569
19469W        W87863  18.386  12.826   2.917
19470W        W87864  29.372   4.331   4.147
19471W        W87865  33.834  19.710  10.738
19472W        W87866  35.370  36.443   2.260
19473W        W87867  30.661  12.710  12.021
19474W        W87868   4.984   6.182  10.660
19475W        W87869   7.972   8.183   2.740
19476W        W87870  23.809   9.647  14.756
19477W        W87871  13.283  19.440  10.658
19478W        W87872  14.215   7.800  13.451
19479W        W87873   6.353  22.817   3.103
19480W        W87874  43.693  33.902  13.033
19481W        W87875   2.243  21.084   1.041
19482W        W87876   3.172  18.498   3.215
19483W        W87877  36.479   1.412   2.773
19484W        W87878  43.327  41.791   1.243
19485W        W87879  20.171   9.068   2.223
19486W        W87880  42.900   0.127  13.804
19487W        W87881   2.983   6.879   4.220
19488W        W87882  41.286  38.062  10.990
19489W        W87883  19.604   1.807   4.602
19490W        W87884   6.212  21.581   4.085
19491W        W87885   4.474  19.439  13.157
19492W        W87886  34.874   3.730  10.800
19493W        W87887  27.983  34.927   3.453
19494W        W87888  33.625  41.379  12.106
19495W        W87889  10.410   0.369   4.801
19496W        W87890  40.763  21.174  12.412
19497W        W87891  12.966  12.217   4.897
19498W        W87892   3.457  25.433   3.772
19499W        W87893  10.829  26.663   4.745
19500W        W87894  15.709   4.754   3.106
19501W        W87895  15.135   8.408  12.284
19502W        W87896  37.362  16.007   3.660
19503W        W87897   0.713  20.082   1.386
19504W        W87898  32.699  32.826   1.084
19505W        W87899  22.574   2.280  11.894
19506W        W87900   6.629  24.327   4.449
19507W        W87901   8.450  38.089   0.404
19508W        W87902  20.077   6.207  14.895
19509W        W87903  14.879  16.579  13.532
19510W        W87904  38.868   1.921   2.693
19511W        W87905  35.871  23.436  11.162
19512W        W87906  19.605  13.105   3.150
19513W        W87907  31.118   3.298  11.702
19514W        W87908  17.424  35.797   1.880
19515W        W87909  39.037  23.583   3.201
19516W        W87910  16.741  21.505  11.598
19517W        W87911  15.979  42.708   3.400
19518W        W87912   3.685   9.401   3.337
19519W        W87913  15.528  42.948  13.879
19520W        W87914  34.861  13.487   4.421
19521W        W87915  21.301   0.896  11.463
19522W        W87916  36.055  30.777   0.360
19523W        W87917  22.358  12.259   4.994
19524W        W87918  16.143  12.506  13.598
19525W        W87919  43.933  40.106   4.348
19526W        W87920  28.987   8.053  11.809
19527W        W87921  25.410  37.328  11.067
19528W        W87922  35.098  37.427   3.541
19529W        W87923  20.367   5.392   3.417
19530W        W87924  14.193  23.886   0.024
19531W        W87925   4.747  20.332   2.915
19532W        W87926  35.355  43.016  13.991
19533W        W87927  26.729  34.514   3.206
19534W        W87928  13.392  38.674   0.446
19535W        W87929  30.163   8.892  14.127
19536W        W87930   4.632  29.441  11.053
19537W        W87931  18.762  21.790  14.370
19538W        W87932   0.680  11.594  12.503
19539W        W87933  44.517  36.455   4.239
19540W        W87934  42.911   6.004  12.626
19541W        W87935  34.761  39.389  13.042
19542W        W87936  17.084  28.097   0.772
19543W        W87937  23.115  22.764   0.246
19544W        W87938   7.364  37.425   3.098
19545W        W87939   9.067  25.981   2.596
19546W        W87940  26.762  18.883  11.148
19547W        W87941   4.673  38.777  13.415
19548W        W87942  12.377   0.429  13.423
19549W        W87943  16.713   0.817   3.284
19550W        W87944  10.721  41.556  11.934
19551W        W87945  37.791  24.478   2.835
19552W        W87946   1.152  25.362   1.760
19553W        W87947  44.212  18.865  11.928
19554W        W87948   6.768  20.157  13.485
19555W        W87949  44.310  37.010  14.335
19556W        W87950  11.569   2.177   3.693
19557W        W87951   8.464  13.792   2.364
19558W        W87952  34.421  43.707   0.333
19559W        W87953  18.243  27.225   3.793
19560W        W87954  42.446  34.492   2.506
19561W        W87955   1.378  17.310  11.913
19562W        W87956  32.397  19.809   3.667
19563W        W87957  28.536  41.051   2.617
19564W        W87958  15.128   3.286   4.152
19565W        W87959  12.300  35.466   4.072
19566W        W87960  30.084  15.356  13.016
19567W        W87961  24.752   0.243   1.777
19568W        W87962  26.529   8.525   0.876
19569W        W87963  32.650  14.399   1.632
19570W        W87964  19.113  35.599   3.809
19571W        W87965  25.761  40.819  12.521
19572W        W87966  17.542  18.472   3.665
19573W        W87967  10.688  22.121   0.777
19574W        W87968  35.863  17.583  10.786
19575W        W87969  25.151   4.741  13.788
19576W        W87970  42.337  16.138   0.174
19577W        W87971  10.392  20.118  10.518
19578W        W87972  39.810  32.466   3.569
19579W        W87973  43.146  28.513  12.382
19580W        W87974   6.117  27.846   1.476
19581W        W87975  25.613  33.591  14.850
19582W        W87976  34.333   6.416   4.582
19583W        W87977  18.927  37.024   0.305
19584W        W87978   0.281  34.341   0.839
19585W        W87979   3.817   2.295  11.495
19586W        W87980  40.749  18.654   0.259
19587W        W87981  44.335  18.594   2.399
19588W        W87982  22.210  31.960  10.660
19589W        W87983  32.036  10.834   3.981
19590W        W87984  30.810  17.670   0.576
19591W        W87985  40.845   0.797   1.815
19592W        W87986  13.147  12.700   4.138
19593W        W87987   4.836  11.247  11.192
19594W        W87988   9.429  42.081  13.392
19595W        W87989   3.955   6.442   0.872
19596W        W87990  25.777  10.460   2.927
19597W        W87991  18.679  43.836  13.843
19598W        W87992  32.581  11.639   0.697
19599W        W87993   9.703  26.915   3.806
19600W        W87994  20.317   0.850  14.854
19601W        W87995   9.471   3.185  11.900
19602W        W87996   6.646  35.596  14.355
19603W        W87997   8.705  26.165   3.317
19604W        W87998  25.523  18.633  14.457
19605W        W87999  20.928   0.367   0.887
19606W        W88000   4.447  33.825   4.337
19607W        W88001  32.185  10.576  11.946
19608W        W88002  44.379  32.150  11.620
19609W        W88003  38.973   2.423   1.778
19610W        W88004  13.170  42.623  11.238
19611W        W88005  34.873  14.504   4.211
19612W        W88006  19.968   8.832  13.496
19613W        W88007  10.814  11.298   3.277
19614W        W88008  44.293  18.045  11.589
19615W        W88009  28.996  40.594   1.316
19616W        W88010  20.630  43.180   3.619
19617W        W88011   5.529  11.179  11.777
19618W        W88012  27.558  18.780   2.141
19619W        W88013   0.217   2.798  13.452
19620W        W88014  27.216   2.027   3.572
19621W        W88015   5.521  10.140  14.268
19622W        W88016  36.365  35.526   3.681
19623W        W88017  41.590  21.884  14.442
19624W        W88018   0.519  27.977  14.848
19625W        W88019  35.905  17.109  12.461
19626W        W88020   5.979   5.564   4.056
19627W        W88021  15.821  15.408  14.053
19628W        W88022  37.910  43.437   4.611
19629W        W88023  17.461  38.412  13.820
19630W        W88024  24.217   1.931   2.297
19631W        W88025   5.351  13.263  12.021
19632W        W88026   8.652  41.527   1.843
19633W        W88027  14.316   5.222  12.444
19634W        W88028  22.889  33.346  12.613
19635W        W88029  33.047  12.214   3.954
19636W        W88030  26.250  27.903   4.180
19637W        W88031  26.568   7.402   4.284
19638W        W88032  42.647   1.600   1.492
19639W        W88033  23.780  21.583  14.074
19640W        W88034   2.471  13.328  11.091
19641W        W88035  35.025  38.644   2.356
19642W        W88036  15.551  19.829  11.942
19643W        W88037  24.213  38.289   2.415
19644W        W88038  25.543  39.408   4.175
19645W        W88039  26.389  23.811  13.463
19646W        W88040  34.841  27.539   3.908
19647W        W88041  43.823  17.790  14.552
19648W        W88042  18.761  42.520   4.372
19649W        W88043  37.848   2.834  13.310
19650W        W88044   3.802  12.386  13.332
19651W        W88045  22.309   5.478   1.402
19652W        W88046  25.191  38.791  13.867
19653W        W88047  28.577   5.536   4.273
19654W        W88048  25.381   1.025   1.891
19655W        W88049  28.693  30.993   0.942
19656W        W88050  15.875  35.842  10.944
19657W        W88051   4.630   9.301  11.995
19658W        W88052  28.249  15.072  13.548
19659W        W88053  12.471  37.606   0.306
19660W        W88054  23.374  13.302  11.415
19661W        W88055  15.081  17.563  12.970
19662W        W88056  33.014  24.508   2.349
19663W        W88057  39.755   2.743   0.869
19664W        W88058   6.673   9.867  11.594
19665W        W88059  27.633  31.785   3.251
19666W        W88060  41.793  17.619  14.846
19667W        W88061   6.155  25.102   3.300
19668W        W88062  38.563  44.995  11.176
19669W        W88063   4.763  28.179  12.550
19670W        W88064   7.895   8.708   4.230
19671W        W88065  44.512  30.538  13.957
19672W        W88066   7.293   2.826  12.137
19673W        W88067  36.303  32.513   4.680
19674W        W88068  38.969  26.845   2.655
19675W        W88069  11.920  14.391  10.228
19676W        W88070  38.384  43.019   4.547
19677W        W88071  23.190  25.508   2.706
19678W        W88072  30.591  15.719   4.577
19679W        W88073  31.887  31.526  12.385
19680W        W88074  25.298  13.422   2.357
19681W        W88075  32.906  10.859   1.301
19682W        W88076  14.111  37.864   0.429
19683W        W88077  38.391  39.772  12.098
19684W        W88078  19.218  29.401   0.224
19685W        W88079  22.740   1.857  11.643
19686W        W88080  18.105  38.517   0.877
19687W        W88081  29.529  24.997   4.089
19688W        W88082  17.309  14.195  12.559
19689W        W88083  19.423  19.240  11.251
19690W        W88084  17.157  33.650   4.656
19691W        W88085   4.658  12.709  12.365
19692W        W88086  38.974  37.311   3.677
19693W        W88087  29.696  33.141   0.695
19694W        W88088   0.097  19.022   4.320
19695W        W88089  14.428  13.296  14.906
19696W        W88090  42.456  13.320  11.617
19697W        W88091  25.409  41.259  10.304
19698W        W88092  26.914   4.384  14.934
19699W        W88093  38.069  30.882   3.060
19700W        W88094   8.652  22.050  11.636
19701W        W88095  17.937  14.763  11.309
19702W        W88096  22.929  21.660   2.287
19703W        W88097   4.533  14.193  12.518
19704W        W88098  22.082  26.517  13.009
19705W        W88099   3.982  39.805   4.292
19706W        W88100  36.582  21.093  12.145
19707W        W88101  17.496   5.753   9.706
19708W        W88102  36.894  21.512   0.760
19709W        W88103   8.274  41.751  10.727
19710W        W88104  17.618  20.699  12.841
19711W        W88105  17.698  16.007   9.697
19712W        W88106  15.594  14.145  11.076
19713W        W88107   6.364  28.042  14.061
19714W        W88108  21.133  39.914   2.613
19715W        W88109  29.068  21.985   0.079
19716W        W88110   6.417   5.725   3.328
19717W        W88111  10.237   9.774  14.647
19718W        W88112  32.398  33.398   1.269
19719W        W88113  36.515  11.332   3.181
19720W        W88114  28.724  31.646   4.333
19721W        W88115  14.958  42.108  12.066
19722W        W88116  41.813  16.633   2.847
19723W        W88117  22.022  34.303  14.849
19724W        W88118   2.320   4.892   2.899
19725W        W88119  32.935   4.269   2.278
19726W        W88120  33.081   4.124   0.291
19727W        W88121  15.560   0.547   2.709
19728W        W88122  22.095  27.455   2.612
19729W        W88123  27.334  32.616   2.825
19730W        W88124   7.803  39.938   3.596
19731W        W88125   0.332   6.357  10.446
19732W        W88126   1.328  24.699  11.033
19733W        W88127  43.078  23.952  14.815
19734W        W88128  33.188  26.125   2.935
19735W        W88129   8.721  29.129  11.096
19736W        W88130  21.924  24.065   1.284
19737W        W88131  44.802  10.223   4.907
19738W        W88132  32.064  30.000   1.995
19739W        W88133  11.792   7.165  12.011
19740W        W88134   9.244  36.201  13.488
19741W        W88135  35.493  35.770   0.374
19742W        W88136  15.900   4.204   2.614
19743W        W88137  10.537   6.777  12.984
19744W        W88138  11.173  37.767   2.295
19745W        W88139   1.317   1.761   3.891
19746W        W88140  37.726  19.986   0.014
19747W        W88141  17.885  16.087  11.706
19748W        W88142  41.089  41.532  13.553
19749W        W88143  42.834   8.772   0.681
19750W        W88144  33.199  10.422   1.369
19751W        W88145  43.869   8.578  14.028
19752W        W88146  18.539   4.427  13.461
19753W        W88147   1.213   7.788  13.875
19754W        W88148  44.837  16.765   1.288
19755W        W88149  12.468  11.138   1.322
19756W        W88150  20.708  39.801  12.368
19757W        W88151   3.887  44.047   1.217
19758W        W88152  33.570  34.329  11.492
19759W        W88153   5.329  20.759   1.331
19760W        W88154  24.531   4.349  13.422
19761W        W88155  42.199   1.942   4.902
19762W        W88156   5.587  22.536   2.621
19763W        W88157  20.943  12.034   3.346
19764W        W88158   1.455  36.085  12.625
19765W        W88159  12.885  12.241   4.350
19766W        W88160  43.739  18.779   3.672
19767W        W88161  43.426  15.087   2.364
19768W        W88162  39.797  22.192  12.507
19769W        W88163  40.268  23.779  10.572
19770W        W88164  30.385  28.371  12.637
19771W        W88165  23.161  40.645   4.749
19772W        W88166  42.289  33.408  14.049
19773W        W88167   4.369   1.699  10.229
19774W        W88168  39.373  27.596  12.083
19775W        W88169  15.613  21.999  10.701
19776W        W88170  29.200   3.296  13.363
19777W        W88171  36.956  22.836   1.314
19778W        W88172   8.406  35.079   0.707
19779W        W88173  17.297   5.923  11.692
19780W        W88174  12.328  13.585   2.799
19781W        W88175  35.177   9.128   1.966
19782W        W88176  21.913  14.075   4.139
19783W        W88177  16.173  40.371  14.566
19784W        W88178  39.780  23.793   4.804
19785W        W88179  16.640  17.108  11.211
19786W        W88180  23.147   5.154  14.319
19787W        W88181  33.959  25.158  13.373
19788W        W88182  12.314  44.870   2.941
19789W        W88183  40.443  11.859  12.637
19790W        W88184   3.954  40.493  12.313
19791W        W88185  12.337   5.826   4.696
19792W        W88186  15.331   1.852  14.792
19793W        W88187  35.082  39.949   2.241
19794W        W88188   3.008  22.912   2.400
19795W        W88189   5.202  41.008  13.113
19796W        W88190   7.187   5.392  14.574
19797W        W88191   7.786  29.867   3.151
19798W        W88192  41.926   5.944  14.956
19799W        W88193  31.503  33.636   0.698
19800W        W88194   3.790   7.130  12.694
19801W        W88195  16.108   5.498   2.233
19802W        W88196   6.379  14.800   3.742
19803W        W88197  21.860   4.253   0.469
19804W        W88198  39.955  24.198   4.083
19805W        W88199  12.717  42.159   2.706
19806W        W88200   8.460   9.683   0.953
19807W        W88201  30.966  20.044   3.206
19808W        W88202  40.504  40.684  12.812
19809W        W88203  36.360  30.808  12.035
19810W        W88204  31.919  40.851  14.004
19811W        W88205  27.799  36.781   2.888
19812W        W88206   0.271  34.566  14.952
19813W        W88207   8.576  43.281   2.593
19814W        W88208  29.005   7.155   1.446
19815W        W88209   7.403   7.170   0.019
19816W        W88210  39.539  34.515  13.069
19817W        W88211  39.379  27.100   4.860
19818W        W88212  13.272  34.004   4.181
19819W        W88213   5.766  28.420  10.969
19820W        W88214  41.326  13.608   2.648
19821W        W88215  31.722   1.571   3.313
19822W        W88216  21.614  30.258   2.903
19823W        W88217   3.111  27.748  13.022
19824W        W88218  23.538  25.960  11.650
19825W        W88219  41.854   1.656  14.442
19826W        W88220  36.055   6.147  12.827
19827W        W88221  25.895  37.624   4.742
19828W        W88222  27.602  19.830  14.364
19829W        W88223  25.063  31.208  13.928
19830W        W88224  41.960  19.337  12.443
19831W        W88225  19.498  18.841  12.648
19832W        W88226  26.476   2.381   2.071
19833W        W88227  29.886  30.584  14.907
19834W        W88228  31.470  34.091   0.953
19835W        W88229   4.084   8.471   1.289
19836W        W88230  16.158  36.527   4.637
19837W        W88231  25.103  10.659   0.712
19838W        W88232  20.217  37.886   0.069
19839W        W88233  16.802   6.546   0.100
19840W        W88234  13.069  11.598   4.466
19841W        W88235  27.232   9.970  10.227
19842W        W88236  18.658  23.412  13.457
19843W        W88237  42.595   4.008  10.958
19844W        W88238  29.763  15.869  12.395
19845W        W88239  29.074   3.648   0.769
19846W        W88240   7.282  27.849  13.029
19847W        W88241  28.460  34.829   2.761
19848W        W88242  41.756  39.100  13.038
19849W        W88243  27.471   7.429   1.592
19850W        W88244   9.123  17.516   3.408
19851W        W88245  19.592  17.522   3.635
19852W        W88246  33.654   1.789  11.653
19853W        W88247   7.105   3.507   3.245
19854W        W88248  32.491   3.446   3.755
19855W        W88249  22.782  33.507   0.832
19856W        W88250  37.064  44.338  13.041
19857W        W88251  34.015  30.947  12.869
19858W        W88252  32.485  39.813   0.824
19859W        W88253  25.007  12.274   4.739
19860W        W88254  16.426   8.827   1.264
19861W        W88255  38.885  24.021   4.736
19862W        W88256  11.981  27.433  12.946
19863W        W88257   0.725  31.993  14.249
19864W        W88258  44.371  20.309  14.518
19865W        W88259  32.095   0.105   1.586
19866W        W88260  31.438  40.121   4.681
19867W        W88261  23.986  31.041  14.755
19868W        W88262  43.030  12.083  10.905
19869W        W88263  26.242  26.597  10.794
19870W        W88264  35.814   0.154   2.242
19871W        W88265  40.915  41.618   1.444
19872W        W88266  17.730  27.176   3.630
19873W        W88267  39.379  44.321   3.946
19874W        W88268   2.836  27.289   0.131
19875W        W88269  14.615  34.171  11.049
19876W        W88270  15.799  25.555  11.534
19877W        W88271  43.146  29.709  12.647
19878W        W88272   2.238   6.358   3.045
19879W        W88273  26.194   4.901  11.527
19880W        W88274  14.771  41.088  10.647
19881W        W88275   4.339  31.569   3.633
19882W        W88276   8.727   1.286   3.007
19883W        W88277  20.803   5.078   1.282
19884W        W88278  35.905  26.898  11.588
19885W        W88279  26.002   9.226   3.344
19886W        W88280  42.804  28.681   3.812
19887W        W88281  42.085   3.965  10.870
19888W        W88282   9.291  43.453   1.378
19889W        W88283  41.305  35.978  11.585
19890W        W88284  11.136  19.272  12.043
19891W        W88285  44.077  10.222   1.209
19892W        W88286   9.105   7.990   2.186
19893W        W88287   0.027  28.721  14.518
19894W        W88288  36.375  43.992   1.877
19895W        W88289  39.043  26.101   4.211
19896W        W88290  17.884   8.425   5.045
19897W        W88291  28.962  44.001  10.521
19898W        W88292   2.978  18.794  14.928
19899W        W88293  14.016   3.127   1.908
19900W        W88294  21.628  11.211   0.195
19901W        W88295  14.645  38.582  13.565
19902W        W88296  28.236  28.499  14.084
19903W        W88297   7.571  39.198  10.339
19904W        W88298  35.692   3.815   4.329
19905W        W88299   4.108  24.582   2.853
19906W        W88300  19.659   4.585   4.562
19907W        W88301  12.222  11.297  13.421
19908W        W88302  14.595  40.214  12.429
19909W        W88303   0.129  36.840  13.839
19910W        W88304   8.347  15.539   3.700
19911W        W88305  43.395  31.771   5.256
19912W        W88306  10.298  21.255   4.158
19913W        W88307  17.521  16.588  12.910
19914W        W88308   5.446   8.925   3.149
19915W        W88309  26.995  35.808   1.419
19916W        W88310   9.368  24.013   1.822
19917W        W88311  19.210  33.070   3.065
19918W        W88312  22.236  40.938   1.759
19919W        W88313  39.631  16.966  11.673
19920W        W88314  44.664  19.029   3.905
19921W        W88315  14.125  40.301   1.311
19922W        W88316  16.343  25.704   2.449
19923W        W88317  36.076  16.794  13.297
19924W        W88318  26.410   0.320  11.613
19925W        W88319  24.624  17.864   2.868
19926W        W88320  38.885  44.664   2.670
19927W        W88321  37.197   0.686  12.114
19928W        W88322  30.909   3.855  10.378
19929W        W88323  29.552   6.204   0.392
19930W        W88324  39.930  40.558  13.951
19931W        W88325  38.223   6.678  10.771
19932W        W88326   0.591  43.818   0.857
19933W        W88327  34.382  32.077  10.215
19934W        W88328  37.879  39.801  12.024
19935W        W88329  39.558   9.289   0.748
19936W        W88330  21.558  35.924   3.172
19937W        W88331   9.298   6.662   1.805
19938W        W88332   2.663  10.821  11.393
19939W        W88333  18.044  30.832  10.577
19940W        W88334   2.738   5.885  14.655
19941W        W88335  11.964  16.283   4.051
19942W        W88336   2.336  17.254   0.419
19943W        W88337  21.685  35.030   3.198
19944W        W88338   9.687  20.468  14.701
19945W        W88339  38.774  27.127  12.602
19946W        W88340  17.967   6.468   1.633
19947W        W88341   4.969  43.559  13.169
19948W        W88342   0.980  19.059  14.292
19949W        W88343  10.005  38.440  14.979
19950W        W88344  23.010  23.057  14.821
19951W        W88345  12.362  17.415  12.388
19952W        W88346  35.907  39.827   0.278
19953W        W88347  18.851  27.818  13.097
19954W        W88348   6.300  11.442  13.073
19955W        W88349  21.784  22.457   2.291
19956W        W88350  35.263  33.132  13.131
19957W        W88351  40.527   1.304   3.355
19958W        W88352  32.448   0.593  11.559
19959W        W88353  30.388  42.885  12.423
19960W        W88354  26.219  15.796   0.403
19961W        W88355   4.407  11.336  11.488
19962W        W88356   0.888  13.682   4.057
19963W        W88357  33.430   8.655  12.174
19964W        W88358  35.283  26.527   5.101
19965W        W88359   7.751  30.440  12.314
19966W        W88360   8.401  40.056   0.794
19967W        W88361  18.204   5.886  10.632
19968W        W88362  40.258  24.090  14.766
19969W        W88363  39.467  23.989  12.970
19970W        W88364   8.853  15.776   1.176
19971W        W88365  40.523  20.166   1.777
19972W        W88366  19.988  10.156  14.534
19973W        W88367  21.163  15.242   2.587
19974W        W88368  11.402   3.633   0.145
19975W        W88369  17.835  24.454   2.297
19976W        W88370   6.603  44.886  13.851
19977W        W88371  37.371  38.114   0.980
19978W        W88372  26.579  18.141   0.511
19979W        W88373  20.268   2.292  13.740
19980W        W88374  44.429  39.056   4.135
19981W        W88375  10.773  30.698   3.759
19982W        W88376  16.164  23.646  12.003
19983W        W88377  24.018  25.734   2.397
19984W        W88378  14.560  29.246  13.553
19985W        W88379  37.861  12.998   2.552
19986W        W88380  15.270   2.664  11.835
19987W        W88381  15.128  37.427   2.771
19988W        W88382  29.388  39.405   2.346
19989W        W88383  37.940  38.851   2.811
19990W        W88384  15.844  20.296   1.435
19991W        W88385   3.236   0.746  14.363
19992W        W88386  44.775  35.861   4.534
19993W        W88387  27.729  16.081  11.660
19994W        W88388  13.858  22.288   3.930
19995W        W88389  40.508  14.719   1.909
19996W        W88390  22.269  30.614  14.507
19997W        W88391  40.144  12.122  11.535
19998W        W88392   9.339  10.297  14.528
19999W        W88393   2.782  35.807   3.183
20000W        W88394  43.036  20.648   2.220
20001W        W88395  30.525  14.009   4.514
20002W        W88396  16.163  30.906  12.523
20003W        W88397   7.179  43.050  13.147
20004W        W88398   7.439  11.262  11.629
20005W        W88399  22.073  35.385   2.341
20006W        W88400  44.709  38.343   1.346
20007W        W88401  15.699  33.281  10.252
20008W        W88402  27.954   3.862  14.462
20009W        W88403   2.971   1.311   1.664
20010W        W88404  22.907   4.791   3.647
20011W        W88405  33.172  26.748  10.582
20012W        W88406  24.676  36.623   3.699
20013W        W88407  35.159  35.410   1.656
20014W        W88408  30.022  27.646   2.351
20015W        W88409  41.731  42.742  14.775
20016W        W88410  26.905  43.311   2.715
20017W        W88411   3.957  21.294   4.224
20018W        W88412   6.687  22.262  10.695
20019W        W88413  25.139  40.411   0.015
20020W        W88414  26.244  35.562  14.673
20021W        W88415  22.233   4.364  11.681
20022W        W88416  31.624  19.296   4.747
20023W        W88417   6.466  39.828   3.407
20024W        W88418  29.916  31.450  14.007
20025W        W88419  39.310   2.365  14.697
20026W        W88420  14.846  36.808  11.827
20027W        W88421  12.166   3.359   5.074
20028W        W88422  39.568   4.981  12.094
20029W        W88423  20.718  18.536  13.041
20030W        W88424  38.483   7.465  11.945
20031W        W88425   0.241  17.636  14.859
20032W        W88426  43.732   3.627   0.419
20033W        W88427  17.140  31.443   2.043
20034W        W88428  43.544   0.278  11.491
20035W        W88429  34.584  18.398   3.152
20036W        W88430  19.621  19.275   1.267
20037W        W88431  37.024  38.828  12.494
20038W        W88432  18.872  34.528  14.373
20039W        W88433  23.966  11.129   2.298
20040W        W88434  33.497  14.231  12.745
20041W        W88435  16.157  35.117  13.870
20042W        W88436   7.027   2.205   2.662
20043W        W88437  42.367   7.756  14.894
20044W        W88438  26.116  14.451   4.090
20045W        W88439  19.767  26.642  13.523
20046W        W88440  27.195  37.052  11.545
20047W        W88441   7.857   3.552  13.136
20048W        W88442  17.019  33.845   4.199
20049W        W88443  13.140  18.043  13.510
20050W        W88444   3.254  19.703   4.742
20051W        W88445  30.990  21.092   0.822
20052W        W88446  13.580  20.254   0.730
20053W        W88447  21.727  22.247   0.210
20054W        W88448  35.032  22.219  14.973
20055W        W88449  23.759  27.088  12.410
20056W        W88450   0.942  36.851   3.252
20057W        W88451  34.592   8.087   1.843
20058W        W88452  20.759  33.846   4.108
20059W        W88453  19.283  25.906   4.114
20060W        W88454  31.967  26.298   1.757
20061W        W88455  13.132  23.325   3.512
20062W        W88456  38.321   9.480  12.088
20063W        W88457  13.873  43.414   3.674
20064W        W88458  26.664   8.405   3.382
20065W        W88459   6.631   4.269   4.256
20066W        W88460  41.791  37.408  13.529
20067W        W88461  31.162  40.988  14.090
20068W        W88462  42.880  24.614  14.353
20069W        W88463  14.175  29.379   4.559
20070W        W88464  40.730  35.739   2.653
20071W        W88465  38.786   3.316  11.160
20072W        W88466  20.482  39.712   2.704
20073W        W88467  31.391   7.348   0.940
20074W        W88468  25.616   3.513   4.281
20075W        W88469  35.834  38.882   3.750
20076W        W88470   4.400  25.977  14.598
20077W        W88471  44.319  10.596  12.829
20078W        W88472  35.372  32.154  13.326
20079W        W88473  10.194  30.962  14.256
20080W        W88474  32.510  31.772   4.997
20081W        W88475   5.192  42.947  12.072
20082W        W88476  20.529  40.367   0.607
20083W        W88477  13.344   0.483  10.648
20084W        W88478  21.664   8.672   3.494
20085W        W88479  39.853  34.657  13.872
20086W        W88480  38.737  24.580   2.783
20087W        W88481  15.739  41.395  12.675
20088W        W88482   4.469   5.689  10.498
20089W        W88483  13.382  25.675  11.406
20090W        W88484  37.475  43.982  11.489
20091W        W88485  32.899  20.607   3.259
20092W        W88486  40.796  44.824  14.785
20093W        W88487  30.569  21.559   2.266
20094W        W88488  39.386  11.978   5.052
20095W        W88489   5.717  20.176  11.564
20096W        W88490   1.743  22.535   0.042
20097W        W88491  43.988  40.731  12.372
20098W        W88492   7.151  23.618  11.677
20099W        W88493  22.457  11.747  12.083
20100W        W88494  10.198  17.651  14.718
20101W        W88495  11.315  43.345   3.887
20102W        W88496  16.770  30.925  13.237
20103W        W88497  21.203   2.921  10.825
20104W        W88498   8.420  24.722  13.963
20105W        W88499  40.052  42.723  11.953
20106W        W88500  15.735  24.936   0.116
20107W        W88501   4.311  30.412  11.829
20108W        W88502  26.517   5.157  14.828
20109W        W88503  43.408   5.771  12.653
20110W        W88504  19.268  30.435  11.965
20111W        W88505  20.670  19.577  10.351
20112W        W88506   7.803  37.600   3.311
20113W        W88507  28.021  39.763   2.861
20114W        W88508  21.228  11.258   4.689
20115W        W88509   3.701  29.599  13.004
20116W        W88510   0.305  32.546   2.926
20117W        W88511  25.984  12.977   0.781
20118W        W88512  43.352  41.001  14.850
20119W        W88513  43.949  18.241  10.910
20120W        W88514   0.687   7.554   3.092
20121W        W88515  19.682  34.613   0.309
20122W        W88516   8.390  11.270   1.993
20123W        W88517  11.128  27.583   4.865
20124W        W88518  16.460  20.258  13.848
20125W        W88519  34.355  12.337  14.852
20126W        W88520  19.608   1.946  10.979
20127W        W88521  37.740  17.543   4.081
20128W        W88522   2.446  18.270  12.615
20129W        W88523   6.319  28.730   4.264
20130W        W88524  29.504  33.508  13.158
20131W        W88525   9.806  33.500   4.892
20132W        W88526  36.081  20.222  13.071
20133W        W88527  37.496  14.323  11.895
20134W        W88528   9.355  41.834  13.851
20135W        W88529  42.986  11.277   0.936
20136W        W88530  19.561  11.326  11.999
20137W        W88531   7.282   7.452  13.691
20138W        W88532  44.950  26.289   0.269
20139W        W88533   3.411  25.642  14.790
20140W        W88534  41.327  38.963   3.203
20141W        W88535   1.867  19.798   0.291
20142W        W88536  12.666   4.114   4.578
20143W        W88537  16.061  25.996   4.230
20144W        W88538  21.538  15.775   3.812
20145W        W88539  42.424  28.106   4.455
20146W        W88540  13.312   2.383  14.830
20147W        W88541   7.813  40.909  11.975
20148W        W88542   8.588   9.417   4.175
20149W        W88543   1.179  32.957  12.962
20150W        W88544  11.306  37.186  14.101
20151W        W88545  44.505  18.450  14.568
20152W        W88546  11.822   2.476  12.908
20153W        W88547   0.581  39.289  11.262
20154W        W88548  35.073   7.485   4.217
20155W        W88549  30.293   4.413   4.598
20156W        W88550  38.108  42.479  14.481
20157W        W88551  31.575   0.985   2.310
20158W        W88552   3.882  33.351  12.578
20159W        W88553  23.544  38.865   4.567
20160W        W88554  13.124   8.389   0.477
20161W        W88555  44.716  22.665   0.043
20162W        W88556  21.132   2.492  14.813
20163W        W88557  33.918  21.341   3.250
20164W        W88558   4.395  22.207   4.143
20165W        W88559  22.504   3.436  11.021
20166W        W88560   7.803   3.439   1.916
20167W        W88561  24.692  38.868   1.813
20168W        W88562  35.127  13.877  14.968
20169W        W88563  36.620  14.116  12.918
20170W        W88564  41.414  20.244  13.929
20171W        W88565  42.520  18.131   1.752
20172W        W88566   1.645   5.218  14.429
20173W        W88567  34.532  19.026  13.376
20174W        W88568   7.422  37.559  10.750
20175W        W88569   8.086  11.493  11.076
20176W        W88570  11.820  21.289   0.209
20177W        W88571  40.047  19.711   3.848
20178W        W88572  31.491  22.753  12.889
20179W        W88573  28.040  26.663   2.213
20180W        W88574  35.332  20.567   4.769
20181W        W88575  13.251  35.203   0.587
20182W        W88576  10.053  19.616   1.234
20183W        W88577  31.452  44.988   3.546
20184W        W88578   6.870  13.394   0.833
20185W        W88579  41.579  22.592   2.669
20186W        W88580  27.718  37.015  14.248
20187W        W88581  13.284   1.408  13.086
20188W        W88582  21.605  33.781   1.232
20189W        W88583   2.329   5.279   0.362
20190W        W88584  28.404  10.100   4.107
20191W        W88585  38.084  30.427  13.315
20192W        W88586  25.989  37.325  12.971
20193W        W88587  42.360  13.246  13.412
20194W        W88588   3.774  41.732   1.410
20195W        W88589  21.444   5.296   4.648
20196W        W88590   5.451  11.300  13.441
20197W        W88591   4.525  37.030   0.286
20198W        W88592  20.207  43.397   0.177
20199W        W88593  41.567   6.675   4.346
20200W        W88594  13.771   0.426   2.119
20201W        W88595  10.776   8.650  14.323
20202W        W88596  25.616  16.109   0.534
20203W        W88597  11.321  39.804  11.881
20204W        W88598  41.084  36.058  11.098
20205W        W88599   7.540  13.261   1.355
20206W        W88600  10.616  25.453  12.838
20207W        W88601  44.097  20.695   3.705
20208W        W88602  19.993   1.117  14.521
20209W        W88603  23.277  15.854   2.691
20210W        W88604  43.552  13.145   1.907
20211W        W88605  17.765  16.641   2.677
20212W        W88606  34.902  43.120   3.175
20213W        W88607  31.101  10.611  12.033
20214W        W88608   4.299  35.713  14.242
20215W        W88609  27.564  43.816  13.928
20216W        W88610  32.072   0.953  12.356
20217W        W88611  25.571  32.852   2.765
20218W        W88612  43.435   5.193  13.410
20219W        W88613  41.435  42.957   5.061
20220W        W88614  43.193  34.031  12.942
20221W        W88615  33.972  31.540  13.051
20222W        W88616  22.328  19.498   4.410
20223W        W88617  28.020  15.824   2.975
20224W        W88618  24.288   8.285  14.260
20225W        W88619  39.674  35.027   2.153
20226W        W88620  11.672  29.302   2.821
20227W        W88621   9.830  23.030   1.306
20228W        W88622  22.734  28.433   1.453
20229W        W88623   7.208  37.885   2.905
20230W        W88624  40.283   2.256  13.529
20231W        W88625  30.581  16.751   2.243
20232W        W88626   7.246  13.982  12.458
20233W        W88627   8.184  11.192   2.456
20234W        W88628  41.018   4.003  10.651
20235W        W88629  20.306   4.283  10.574
20236W        W88630  43.760   2.111  13.326
20237W        W88631  40.467  41.152  10.702
20238W        W88632  12.349  32.477   2.819
20239W        W88633  39.935  32.269  11.830
20240W        W88634  27.343   6.602   0.397
20241W        W88635  23.909  14.066   5.018
20242W        W88636   0.830  12.102  12.629
20243W        W88637  14.883  29.402   2.879
20244W        W88638  13.669   2.853  11.108
20245W        W88639  21.824  11.760  11.591
20246W        W88640   8.336  27.955   2.850
20247W        W88641  38.177  44.177   0.887
20248W        W88642   0.727  16.157   4.622
20249W        W88643  29.724  15.056  13.276
20250W        W88644  33.728  32.535  11.312
20251W        W88645   2.813  27.909   1.173
20252W        W88646  39.566  40.266  14.833
20253W        W88647   9.742  39.799   0.303
20254W        W88648  14.714   8.270   2.679
20255W        W88649  18.701  14.915  13.997
20256W        W88650  35.013  36.396   3.594
20257W        W88651  19.634  11.860  11.845
20258W        W88652  29.347   4.783   0.745
20259W        W88653   4.292  15.141  11.421
20260W        W88654  24.267   3.683  13.296
20261W        W88655   4.429  27.304  14.829
20262W        W88656  10.171   4.496   2.840
20263W        W88657  32.598  15.580   0.464
20264W        W88658  41.373  39.457  13.024
20265W        W88659  37.415   8.590  12.707
20266W        W88660  30.416   8.039  13.571
20267W        W88661   3.394  39.403  12.464
20268W        W88662  28.194  38.625  14.380
20269W        W88663  43.997  32.353  13.998
20270W        W88664   9.530  15.320   1.725
20271W        W88665   9.273  38.014  10.723
20272W        W88666   6.280   2.844  11.002
20273W        W88667  23.213  14.035   1.808
20274W        W88668  29.497  21.512   1.277
20275W        W88669  31.383  18.699  10.711
20276W        W88670  39.442  42.799   0.185
20277W        W88671  28.669  33.456  14.957
20278W        W88672  43.039  16.636  13.420
20279W        W88673  42.075  37.858   0.874
20280W        W88674   7.687  20.205  13.546
20281W        W88675   2.798  13.452  13.480
20282W        W88676  36.305  37.318  14.661
20283W        W88677   7.163   6.387   9.745
20284W        W88678  41.452  10.721   3.677
20285W        W88679   5.757  21.535   1.524
20286W        W88680  30.403  19.260   4.268
20287W        W88681  32.421   4.386   2.293
20288W        W88682  38.419   4.867   0.795
20289W        W88683  35.807  41.456  13.484
20290W        W88684   2.718  38.537   3.679
20291W        W88685  17.006   7.815  11.618
20292W        W88686  37.516  42.026   3.235
20293W        W88687  18.045  29.540   4.358
20294W        W88688  36.494   8.467  14.915
20295W        W88689  14.847  29.216   5.039
20296W        W88690  31.876   9.001  14.365
20297W        W88691  22.193  41.442   0.928
20298W        W88692   8.832  26.301  12.536
20299W        W88693  42.378  25.251   3.671
20300W        W88694   5.051   3.518  11.452
20301W        W88695  33.343  23.408   4.888
20302W        W88696   0.383  32.497  14.525
20303W        W88697  18.762  22.467   2.701
20304W        W88698   6.488   4.208  13.570
20305W        W88699  12.340   3.308   0.549
20306W        W88700   6.494  34.748  13.956
20307W        W88701  30.461  19.640   3.909
20308W        W88702  16.817   7.996   5.103
20309W        W88703  20.941  33.327   4.751
20310W        W88704  44.478  22.573   2.851
20311W        W88705  28.000  27.546  11.148
20312W        W88706  11.582  35.053   2.338
20313W        W88707  23.793  33.143  12.878
20314W        W88708  20.587  37.952   1.767
20315W        W88709  14.606   1.869   0.912
20316W        W88710  34.870  12.097  11.267
20317W        W88711  38.985  44.809   3.263
20318W        W88712  11.101   9.951   3.106
20319W        W88713  25.231  19.518   1.013
20320W        W88714  40.363   1.255  11.602
20321W        W88715  35.021   1.680  13.661
20322W        W88716  26.001  30.786   0.052
20323W        W88717   7.326  28.902  14.128
20324W        W88718  36.439  11.774  11.581
20325W        W88719  12.848  28.310   2.814
20326W        W88720  12.301  26.995  14.486
20327W        W88721  31.967  10.120  11.028
20328W        W88722  16.853   8.646   2.617
20329W        W88723   5.715  36.995  11.590
20330W        W88724  14.861  20.675  12.596
20331W        W88725  40.417  10.198  13.087
20332W        W88726  22.479  11.186   0.381
20333W        W88727  23.501  35.814  11.549
20334W        W88728  19.160   6.625  13.316
20335W        W88729   3.664  12.897  12.449
20336W        W88730  43.424  24.474  12.608
20337W        W88731  32.028  41.828   3.208
20338W        W88732  17.473  21.090  14.025
20339W        W88733   0.898  21.402  14.208
20340W        W88734  26.688  43.798   2.777
20341W        W88735  43.835  44.991   4.296
20342W        W88736  33.660  27.947  10.916
20343W        W88737  33.806  24.100   2.644
20344W        W88738  16.802  43.308   4.602
20345W        W88739   5.827  31.922   1.379
20346W        W88740   3.974  11.899   1.490
20347W        W88741  21.723  21.738  13.532
20348W        W88742  18.934  25.033  14.461
20349W        W88743  42.929  10.641  11.926
20350W        W88744  44.793   0.349   2.225
20351W        W88745  30.122  43.952   3.950
20352W        W88746  34.818  30.639  11.266
20353W        W88747  38.111   9.792   0.842
20354W        W88748  20.942   3.384  13.364
20355W        W88749  37.834  29.608   3.637
20356W        W88750  38.523   2.272  13.055
20357W        W88751  19.169  13.305   3.351
20358W        W88752  19.629  34.162  14.878
20359W        W88753  24.963  42.271   4.147
20360W        W88754  13.208   9.755   3.695
20361W        W88755  29.838  17.686  14.296
20362W        W88756   8.863  10.998  11.633
20363W        W88757  15.647  44.392   3.148
20364W        W88758   4.900  40.814   4.430
20365W        W88759  15.324  31.907  12.551
20366W        W88760  43.756  39.486   3.112
20367W        W88761   0.412  30.207   1.159
20368W        W88762   0.378  41.277  12.139
20369W        W88763  29.158  19.492   1.379
20370W        W88764  44.144  23.684  13.848
20371W        W88765  28.921  18.699  13.985
20372W        W88766  16.673  14.003  12.979
20373W        W88767   6.190  36.708  14.010
20374W        W88768  41.563   6.930  11.447
20375W        W88769  39.670  11.492  14.389
20376W        W88770  20.592  22.432  13.851
20377W        W88771   9.951  27.404  12.973
20378W        W88772  19.204  30.261   0.031
20379W        W88773  16.907  38.844  12.957
20380W        W88774  11.150   8.758   0.462
20381W        W88775  42.106  29.170  11.687
20382W        W88776  29.414  30.510  13.872
20383W        W88777   4.446  37.610  11.619
20384W        W88778  29.204  38.956   2.180
20385W        W88779  29.554  44.550  11.045
20386W        W88780   4.561  27.537   1.637
20387W        W88781  26.107   4.592  14.044
20388W        W88782  33.525  40.771   4.798
20389W        W88783  13.290  26.112  14.889
20390W        W88784  33.094   4.360   1.773
20391W        W88785   0.737  18.691  12.094
20392W        W88786  40.997  43.414  14.857
20393W        W88787  38.988  15.926  11.775
20394W        W88788  13.693  19.188   1.848
20395W        W88789  16.934   0.225  11.946
20396W        W88790  35.932  21.848   3.847
20397W        W88791  31.485  10.406   0.404
20398W        W88792  19.723  23.763  14.352
20399W        W88793  30.453   9.203   0.617
20400W        W88794  33.957  28.002  12.028
20401W        W88795  35.685  41.207   4.645
20402W        W88796  42.345  10.368   4.676
20403W        W88797  22.795  39.071  12.496
20404W        W88798  33.938   9.231  14.816
20405W        W88799   3.649   6.389   3.331
20406W        W88800  39.303  33.657  11.984
20407W        W88801  19.216  33.833   1.730
20408W        W88802  19.307   1.459  14.024
20409W        W88803  41.255  29.288   3.204
20410W        W88804  29.620   9.763  13.575
20411W        W88805   9.570  40.440  12.575
20412W        W88806  31.922  35.708  14.442
20413W        W88807  21.684  38.640  11.915
20414W        W88808  20.655   1.815   3.648
20415W        W88809   8.555  23.343  12.103
20416W        W88810  21.417  24.058   1.252
20417W        W88811  39.765  38.360   3.528
20418W        W88812  34.199  34.426  11.021
20419W        W88813   4.885   2.448   0.755
20420W        W88814  30.014  22.916  12.527
20421W        W88815   0.467  27.054  12.147
20422W        W88816  38.369  25.571   2.816
20423W        W88817  26.425  18.630   0.486
20424W        W88818  41.250  29.602  11.026
20425W        W88819  32.064  36.381   3.994
20426W        W88820   4.820  41.406   2.690
20427W        W88821  26.977  19.234   3.359
20428W        W88822  12.185   9.852   2.813
20429W        W88823  32.833  25.024   3.491
20430W        W88824  14.549  14.522   1.878
20431W        W88825   6.868  39.049   1.483
20432W        W88826  15.855  24.678  10.819
20433W        W88827  10.392  43.532  10.877
20434W        W88828  33.136   5.930   4.131
20435W        W88829  13.751   4.031  12.819
20436W        W88830  44.706   4.838   0.393
20437W        W88831  22.170   2.671   0.281
20438W        W88832  13.062   6.671  13.004
20439W        W88833  38.595  33.110   0.427
20440W        W88834  17.177  30.991   1.261
20441W        W88835  18.176  10.151  12.861
20442W        W88836  39.363  14.575  10.964
20443W        W88837  35.977  36.886  11.744
20444W        W88838  27.064  42.165   1.863
20445W        W88839   8.909  26.928   2.717
20446W        W88840   5.183  39.864   3.736
20447W        W88841  34.009  31.177  12.397
20448W        W88842  33.947   8.911   1.822
20449W        W88843  36.272  34.006  12.902
20450W        W88844   5.717   2.126  12.321
20451W        W88845   9.455  31.581   1.948
20452W        W88846  32.699  26.795   1.330
20453W        W88847  12.773  14.097   0.357
20454W        W88848  36.470  34.335  13.904
20455W        W88849  30.427  12.593   1.777
20456W        W88850  28.964  40.837   2.396
20457W        W88851  33.720   3.371   0.158
20458W        W88852  43.371   6.919   1.691
20459W        W88853  42.803  28.893  12.307
20460W        W88854   8.581  23.058   4.237
20461W        W88855   6.884  31.570  10.763
20462W        W88856  23.685  39.311   3.051
20463W        W88857  24.796   9.231   0.670
20464W        W88858  39.453  41.497   2.315
20465W        W88859  25.457   7.599  11.966
20466W        W88860  30.622   6.214  10.655
20467W        W88861  36.099  44.404   2.805
20468W        W88862  17.181  30.933  12.883
20469W        W88863  33.948  13.745   4.869
20470W        W88864  41.464  41.342   3.677
20471W        W88865  23.045   9.305  12.325
20472W        W88866  14.590  26.042   3.837
20473W        W88867  33.109  43.824   3.308
20474W        W88868  38.933  26.614  13.440
20475W        W88869  34.007   2.972  14.903
20476W        W88870  41.494   3.779  13.225
20477W        W88871   6.542  13.666  10.312
20478W        W88872  31.035  15.074  11.433
20479W        W88873  36.796  13.719  12.620
20480W        W88874  35.541  28.228  11.002
20481W        W88875  27.399  22.554  13.567
20482W        W88876  18.931   7.398   4.908
20483W        W88877  31.547  29.207   4.240
20484W        W88878  29.607  37.577  11.074
20485W        W88879  10.417  27.163  11.501
20486W        W88880   4.364  30.950   2.843
20487W        W88881  28.968   7.440   1.866
20488W        W88882  20.357  29.589  10.866
20489W        W88883   1.500  33.614  13.791
20490W        W88884   6.343  43.966  14.773
20491W        W88885  13.697  15.021  14.446
20492W        W88886  12.861  16.168   2.145
20493W        W88887   6.255   1.467   3.301
20494W        W88888  32.043  26.123   3.390
20495W        W88889  35.143  35.263  11.042
20496W        W88890  42.990  12.804   2.650
20497W        W88891   8.710  41.060  11.886
20498W        W88892   8.489  11.726   3.778
20499W        W88893  42.759   5.238  13.018
20500W        W88894  35.164  18.145  10.788
20501W        W88895   7.428   5.820  14.357
20502W        W88896   6.406  14.157   0.691
20503W        W88897  22.062  38.345   4.587
20504W        W88898  29.183   3.255   4.849
20505W        W88899  30.348  30.692  12.636
20506W        W88900  35.832  17.682   2.210
20507W        W88901  14.712  12.281   1.378
20508W        W88902  23.920  30.144  12.389
20509W        W88903  14.029  31.177  13.951
20510W        W88904  20.663  14.528   2.257
20511W        W88905  41.987  37.636  13.090
20512W        W88906  41.594  23.344  11.540
20513W        W88907  40.796   2.222  13.457
20514W        W88908  13.294   8.879  14.401
20515W        W88909  34.874  20.806   4.885
20516W        W88910  17.798  41.993  11.494
20517W        W88911   1.656  40.136   3.236
20518W        W88912  33.261  35.014   2.808
20519W        W88913  30.608  38.326  13.457
20520W        W88914  12.307  35.766   0.183
20521W        W88915  43.892  17.492   1.797
20522W        W88916  15.802   7.719  13.029
20523W        W88917   9.022  33.483  13.024
20524W        W88918  39.919   8.111  13.980
20525W        W88919  44.735  13.607  14.023
20526W        W88920  23.126  27.466  14.752
20527W        W88921   8.892  10.926  14.978
20528W        W88922  35.540  23.484  14.763
20529W        W88923  15.138  14.507  13.343
20530W        W88924  44.130  39.726   2.810
20531W        W88925  12.239  16.307  10.455
20532W        W88926   4.679  44.873  11.052
20533W        W88927  28.846   7.761  12.374
20534W        W88928  28.535  16.170   3.844
20535W        W88929  15.188  40.181   5.026
20536W        W88930   2.487   1.387   2.427
20537W        W88931  33.197   3.705   3.177
20538W        W88932  32.103  16.296   2.890
20539W        W88933  29.091  24.995  14.539
20540W        W88934  37.799  24.392  13.496
20541W        W88935  40.062  22.547   0.479
20542W        W88936  37.033  33.710  12.520
20543W        W88937  26.911  21.115  11.107
20544W        W88938  44.843   2.362  10.637
20545W        W88939  20.632  23.387  10.305
20546W        W88940  17.302  16.632  11.056
20547W        W88941  32.106  34.093   3.225
20548W        W88942  12.802  11.126  13.815
20549W        W88943  27.729  20.804  14.042
20550W        W88944  44.720  35.892  14.930
20551W        W88945  22.934  16.316  12.327
20552W        W88946  20.803   7.013   0.779
20553W        W88947  10.640  37.928   4.610
20554W        W88948  39.845  32.473  14.301
20555W        W88949   0.454  37.115  14.665
20556W        W88950  22.719  15.308   2.797
20557W        W88951  32.675  13.182   1.358
20558W        W88952  14.330  33.923   2.379
20559W        W88953  24.630  32.597  13.799
20560W        W88954  14.688  10.580   4.293
20561W        W88955  30.549   3.257   4.640
20562W        W88956  43.169  10.620  14.357
20563W        W88957   3.924  21.310   5.044
20564W        W88958  15.685  26.198  10.872
20565W        W88959   0.016  27.805  10.976
20566W        W88960  11.829  12.213   2.353
20567W        W88961  41.675   2.474   2.632
20568W        W88962   7.459  25.022  12.023
20569W        W88963   4.896  12.387   5.426
20570W        W88964  26.460  42.386  11.245
20571W        W88965  36.591  39.772  11.046
20572W        W88966  41.311  40.980   1.269
20573W        W88967  30.102  17.355  10.413
20574W        W88968  25.526  30.255   4.656
20575W        W88969  24.997  28.991  11.900
20576W        W88970  39.795  18.273  12.160
20577W        W88971  28.569  41.240  11.463
20578W        W88972  33.666  28.183   0.852
20579W        W88973  16.847  17.591  11.160
20580W        W88974  41.919  10.101  14.034
20581W        W88975  24.322  20.698  14.928
20582W        W88976  42.345  27.634   2.168
20583W        W88977  18.769  43.485  10.348
20584W        W88978   9.376  30.126  11.455
20585W        W88979  12.692  19.678  13.501
20586W        W88980  20.483  16.812   0.874
20587W        W88981  41.007  11.069   3.536
20588W        W88982  14.871  19.001  10.385
20589W        W88983  18.510   1.967   4.093
20590W        W88984  14.113  38.878  11.528
20591W        W88985  42.333  13.781   2.608
20592W        W88986  23.002   8.493  13.888
20593W        W88987  44.237  18.572   3.823
20594W        W88988  12.917  44.222  13.817
20595W        W88989  44.314   0.985   2.739
20596W        W88990  17.799  13.542   2.213
20597W        W88991   7.621   3.621   0.365
20598W        W88992  19.967   1.780  14.565
20599W        W88993  22.113  14.742  14.459
20600W        W88994  10.979  42.209   4.081
20601W        W88995   0.802  25.539   4.472
20602W        W88996  44.304  22.152  11.501
20603W        W88997  33.096   3.126  12.027
20604W        W88998   1.504  21.026  10.736
20605W        W88999   4.454  27.491  14.335
20606W        W89000  23.024  37.062  12.556
20607W        W89001   7.324  21.408  13.260
20608W        W89002   4.789  38.410  10.721
20609W        W89003  28.191  12.207  11.163
20610W        W89004  22.038  11.253  10.279
20611W        W89005  22.516  10.105   4.105
20612W        W89006  29.743  29.133  12.496
20613W        W89007  21.633  19.950  12.343
20614W        W89008  13.208  22.091  12.174
20615W        W89009  21.807   9.395  11.499
20616W        W89010  41.212  38.990  11.314
20617W        W89011  26.877   2.357   0.821
20618W        W89012  29.581   4.328   0.687
20619W        W89013   5.735  21.575  11.186
20620W        W89014  34.813  36.396   1.702
20621W        W89015  34.140  35.991  13.088
20622W        W89016   4.783  20.678  12.604
20623W        W89017  23.582   8.702   2.682
20624W        W89018   1.214   2.866  12.434
20625W        W89019  14.828  36.442  14.537
20626W        W89020  30.110   5.307   1.832
20627W        W89021  25.534  40.072   3.494
20628W        W89022   9.598  38.581   4.635
20629W        W89023   5.138   5.799  14.918
20630W        W89024  18.426   9.507  10.766
20631W        W89025  13.936  14.704  11.392
20632W        W89026  23.058   1.791  14.475
20633W        W89027  27.860  18.275  13.460
20634W        W89028  13.557  37.807   4.861
20635W        W89029  35.250  22.245   3.114
20636W        W89030  26.509  16.094  13.009
20637W        W89031   8.587   7.407  12.514
20638W        W89032  29.643   3.779   4.988
20639W        W89033  32.125  15.236  14.402
20640W        W89034  35.935  24.487  13.387
20641W        W89035  33.352  20.731   1.252
20642W        W89036   3.895   0.391  14.859
20643W        W89037  36.423  21.723   4.066
20644W        W89038  37.324  34.060  11.687
20645W        W89039  30.688  20.598  10.558
20646W        W89040  35.015   7.644   3.714
20647W        W89041  13.627  22.593  14.451
20648W        W89042  22.330   7.220   3.228
20649W        W89043  17.262   8.751  12.315
20650W        W89044  35.327   4.480  11.179
20651W        W89045  21.679  25.957   2.228
20652W        W89046  10.891  39.561   1.854
20653W        W89047   3.657  40.723   1.346
20654W        W89048  18.661   5.615   3.510
20655W        W89049   0.907  14.048  12.603
20656W        W89050  37.481  42.534   3.160
20657W        W89051  17.839  28.582  10.694
20658W        W89052   8.621  38.998   4.130
20659W        W89053  32.605  26.540   3.990
20660W        W89054  19.110  32.359   0.721
20661W        W89055  36.813  28.528  11.606
20662W        W89056  23.911  16.634   3.596
20663W        W89057  44.682  12.855  13.670
20664W        W89058  31.102  21.049  13.424
20665W        W89059  20.532  14.458  13.920
20666W        W89060  12.610  32.095  14.336
20667W        W89061  15.606  17.681  10.769
20668W        W89062   8.940   3.575  11.151
20669W        W89063  16.707  11.136  12.523
20670W        W89064  11.653  33.461  10.736
20671W        W89065  22.077  42.299   0.423
20672W        W89066  41.376  11.770  11.267
20673W        W89067  36.073  35.856  12.822
20674W        W89068  11.784  31.720  13.071
20675W        W89069  10.830   7.268  12.093
20676W        W89070   9.776  12.150  13.849
20677W        W89071  17.779   3.355   1.204
20678W        W89072  37.190  18.277  12.723
20679W        W89073   0.079  36.302  11.092
20680W        W89074  17.947  13.852   2.804
20681W        W89075  37.268   9.316   0.339
20682W        W89076  10.709  20.761   0.512
20683W        W89077  18.071  31.409  10.367
20684W        W89078  20.758  35.396   1.190
20685W        W89079  42.999  17.830   2.680
20686W        W89080  22.494  23.676   2.758
20687W        W89081   7.281  31.438   1.657
20688W        W89082  43.861   1.310  12.278
20689W        W89083  44.705  13.176   3.632
20690W        W89084  37.297  19.323  13.190
20691W        W89085  33.842  14.271   2.922
20692W        W89086  24.523  22.722   1.322
20693W        W89087  33.700  11.492   0.276
20694W        W89088   2.501   8.308  14.003
20695W        W89089  11.093  10.812  14.414
20696W        W89090  30.127  32.846   0.849
20697W        W89091  44.354  33.705  11.430
20698W        W89092   5.451   1.524  14.441
20699W        W89093  43.235  33.077  11.057
20700W        W89094  31.815  30.244   3.773
20701W        W89095  43.545  34.485  10.210
20702W        W89096  38.985   1.223  14.241
20703W        W89097  33.739  36.099  10.792
20704W        W89098  31.279  11.620  10.633
20705W        W89099  44.823  26.392  12.669
20706W        W89100   6.668   3.777   4.107
20707W        W89101  36.516  40.787   2.724
20708W        W89102  39.296  10.910   2.734
20709W        W89103  33.517  16.178   2.931
20710W        W89104  31.203  37.719  12.318
20711W        W89105  39.052  24.490  13.970
20712W        W89106  35.476  24.620  11.506
20713W        W89107  18.567  18.722   2.277
20714W        W89108  20.390  37.910   0.547
20715W        W89109  27.708   6.669  11.067
20716W        W89110  11.326   6.770  12.501
20717W        W89111  33.523  11.770  11.491
20718W        W89112  17.584  14.147   0.835
20719W        W89113  32.399  11.809  13.414
20720W        W89114  29.870  42.810   2.748
20721W        W89115  27.192  17.129  13.871
20722W        W89116   7.644  14.206  14.611
20723W        W89117   7.726  38.830   2.824
20724W        W89118   5.318   5.172   3.601
20725W        W89119  33.113  22.143   0.778
20726W        W89120  29.359  39.526  11.301
20727W        W89121  29.524  20.151   1.802
20728W        W89122   5.204   0.286   3.729
20729W        W89123  30.194  16.209   2.229
20730W        W89124  34.325  19.523  14.294
20731W        W89125   2.909   7.820  10.742
20732W        W89126  42.507  14.939  12.912
20733W        W89127  44.025   5.268   2.827
20734W        W89128   4.753  11.626  12.918
20735W        W89129  27.366   8.346   1.778
20736W        W89130  44.726  18.307   0.910
20737W        W89131  27.352  25.037   4.536
20738W        W89132   5.326  17.047  13.805
20739W        W89133  23.590  15.692   1.772
20740W        W89134   1.526  36.142   3.161
20741W        W89135  26.189   1.811   5.047
20742W        W89136  36.057  32.583   0.701
20743W        W89137  40.603   1.711  12.565
20744W        W89138   5.245   5.200   0.778
20745W        W89139  28.618  43.405  10.224
20746W        W89140  14.749  30.102   0.719
20747W        W89141  22.295  21.857   2.832
20748W        W89142  11.410   4.807  13.878
20749W        W89143   4.479  43.433  13.281
20750W        W89144   0.710  18.291   2.583
20751W        W89145   4.531  10.769   2.670
20752W        W89146  23.819  16.713   4.105
20753W        W89147  20.247  20.797   2.860
20754W        W89148   2.117  15.684  14.904
20755W        W89149  18.654  16.305   1.954
20756W        W89150  44.490   4.922   1.646
20757W        W89151  32.540   9.855   1.266
20758W        W89152  31.819  12.372  12.977
20759W        W89153  42.366  37.799   4.121
20760W        W89154   7.866  31.684  11.766
20761W        W89155  13.696  25.770   0.891
20762W        W89156   5.770  28.892  10.696
20763W        W89157  36.562   2.395   2.194
20764W        W89158   1.227   0.884   4.000
20765W        W89159  21.154  40.288   0.901
20766W        W89160  25.974  21.506  14.534
20767W        W89161  30.119   2.794   0.693
20768W        W89162  33.992  34.422   4.754
20769W        W89163  36.971   6.583  14.292
20770W        W89164  14.339  22.495   3.857
20771W        W89165  37.893   5.318  11.173
20772W        W89166  22.008  26.638   4.532
20773W        W89167   0.242  26.018  14.910
20774W        W89168  31.080  32.218   4.723
20775W        W89169  37.571  38.959  12.474
20776W        W89170  34.108  26.246   1.747
20777W        W89171  36.788  39.403   2.811
20778W        W89172  19.958  25.942   0.113
20779W        W89173  18.586   6.280  11.137
20780W        W89174  33.072  35.025   4.096
20781W        W89175   5.438   6.054   3.663
20782W        W89176  39.072  27.606   3.195
20783W        W89177  11.315  37.395  13.601
20784W        W89178  29.150  43.225  14.558
20785W        W89179  12.649  27.586  11.755
20786W        W89180  15.059   2.621   0.422
20787W        W89181  12.855   3.476  11.337
20788W        W89182   2.822  27.898   3.359
20789W        W89183  41.965  11.418  14.859
20790W        W89184   9.316  23.233  13.875
20791W        W89185   8.374  13.568  11.571
20792W        W89186  10.285   3.580  13.347
20793W        W89187   9.682  16.053   4.735
20794W        W89188  30.180   6.170   4.256
20795W        W89189  44.522  43.301   2.737
20796W        W89190  40.054  10.503   0.506
20797W        W89191  11.792  37.560  11.601
20798W        W89192  15.641   2.712  13.255
20799W        W89193  17.107   4.133   1.932
20800W        W89194   1.762  43.429  10.714
20801W        W89195  27.793  42.351   2.867
20802W        W89196  32.117  44.075  12.673
20803W        W89197  12.591   7.336  13.335
20804W        W89198   5.527  39.624   2.625
20805W        W89199  43.789  21.312  14.205
20806W        W89200   0.445  15.056   3.280
20807W        W89201   4.783  36.388  11.218
20808W        W89202  14.868  27.570  10.628
20809W        W89203  11.800  38.001   1.368
20810W        W89204  19.754  17.547  13.801
20811W        W89205  14.003  12.639  14.478
20812W        W89206  14.948  39.464  10.334
20813W        W89207  34.496   3.242  14.917
20814W        W89208  18.439  25.754  11.165
20815W        W89209  16.575  14.587  11.160
20816W        W89210   8.956  23.984  13.764
20817W        W89211  13.205  39.786   1.247
20818W        W89212  29.047  18.253  13.708
20819W        W89213  34.118  26.106  13.735
20820W        W89214  32.826   7.588   0.008
20821W        W89215  18.985   6.635  11.070
20822W        W89216  39.576  19.988  11.319
20823W        W89217  33.047  12.756   1.310
20824W        W89218  18.563  39.322  14.048
20825W        W89219  29.537  38.556   0.654
20826W        W89220  35.756  36.009   3.122
20827W        W89221  39.943  27.657  14.353
20828W        W89222  12.242  36.842  14.278
20829W        W89223   5.991   5.942   3.663
20830W        W89224  34.116  11.945  10.736
20831W        W89225  27.622  37.273  12.517
20832W        W89226  43.384  31.261   0.993
20833W        W89227   9.591  36.498  14.440
20834W        W89228  11.503  23.932  11.208
20835W        W89229  20.116   5.675  12.418
20836W        W89230  19.986  37.634   4.067
20837W        W89231  20.564  21.288   2.840
20838W        W89232  39.341  39.093  12.022
20839W        W89233   7.370  23.087   3.319
20840W        W89234   0.080  26.126  13.957
20841W        W89235  30.214  36.965   3.690
20842W        W89236  31.030  40.829   3.029
20843W        W89237  12.870  38.272  14.567
20844W        W89238  12.341   1.413  13.429
20845W        W89239  18.104  33.422  13.968
20846W        W89240  10.873   6.669  11.634
20847W        W89241  12.248  18.729  11.681
20848W        W89242  12.603  14.070   4.237
20849W        W89243  33.863   9.382   4.176
20850W        W89244  42.696   7.317  12.629
20851W        W89245   5.430  24.349  14.038
20852W        W89246  21.031   1.846  12.022
20853W        W89247  34.062  15.129   4.120
20854W        W89248  15.187  26.384  14.382
20855W        W89249  10.781   7.825  14.715
20856W        W89250   9.368  14.531   1.496
20857W        W89251  36.584  37.441   0.647
20858W        W89252  14.284   7.773  11.096
20859W        W89253  13.315  11.441  11.981
20860W        W89254  23.249  12.264   3.702
20861W        W89255  40.936  18.050  12.305
20862W        W89256  11.129  15.215   0.238
20863W        W89257  38.676  15.224   3.785
20864W        W89258   1.403  10.973   2.009
20865W        W89259  42.794  41.789  10.726
20866W        W89260  35.553  19.671   4.319
20867W        W89261  30.057  31.125  13.617
20868W        W89262   3.799   3.493  12.503
20869W        W89263  18.762  20.154  10.100
20870W        W89264  23.945  19.194  10.535
20871W        W89265  33.416  36.331  11.128
20872W        W89266   5.664  26.595   4.095
20873W        W89267   0.714  15.025   0.439
20874W        W89268  44.264  40.949  11.990
20875W        W89269  27.270  42.801   0.589
20876W        W89270   4.731  44.450   4.139
20877W        W89271  41.026   2.629   1.264
20878W        W89272  32.779  15.547   4.446
20879W        W89273  15.068   4.525  13.602
20880W        W89274   2.097  28.891   3.904
20881W        W89275  11.361  22.932  11.236
20882W        W89276  26.235  41.108   0.591
20883W        W89277   4.448  20.569  14.472
20884W        W89278  15.664  34.063   4.522
20885W        W89279  35.178  15.113  14.580
20886W        W89280  32.636  44.977   0.489
20887W        W89281  19.624   2.733  12.580
20888W        W89282  32.506  15.801  10.523
20889W        W89283  18.726  43.931  11.675
20890W        W89284  44.199  41.043  11.019
20891W        W89285  34.596  14.594  13.517
20892W        W89286  25.785  44.116   0.143
20893W        W89287  14.782  11.467  12.809
20894W        W89288  28.188  14.233   0.759
20895W        W89289  29.585  31.376  13.578
20896W        W89290  13.256  28.577  14.561
20897W        W89291  22.757  12.739  13.324
20898W        W89292   2.128  11.158   0.790
20899W        W89293   6.749  40.821   0.965
20900W        W89294  19.239   5.127  11.120
20901W        W89295  22.511  10.262  12.174
20902W        W89296  12.189  31.333  13.809
20903W        W89297  15.125  39.950   0.562
20904W        W89298  19.356   2.961   2.854
20905W        W89299   0.937  25.703   3.298
20906W        W89300  14.165   1.366   4.595
20907W        W89301  27.455  14.317   1.390
20908W        W89302  29.922  38.512  14.581
20909W        W89303   0.837  26.006   4.806
20910W        W89304   7.257  32.964   0.066
20911W        W89305  12.478   9.260   2.738
20912W        W89306  28.841  21.185   3.142
20913W        W89307  37.971  40.041  14.267
20914W        W89308  44.782  31.527   2.306
20915W        W89309   8.386   1.784   0.217
20916W        W89310  31.109  37.710   3.946
20917W        W89311  29.307  36.837   3.212
20918W        W89312  44.202  32.162  12.528
20919W        W89313  27.137  20.039   0.531
20920W        W89314  28.025  27.440  14.874
20921W        W89315   2.343  18.056   0.904
20922W        W89316  37.570   7.501   4.301
20923W        W89317  26.465  29.677   0.331
20924W        W89318  14.134  29.013  13.364
20925W        W89319  40.995   9.817   0.792
20926W        W89320  18.873  38.001   0.392
20927W        W89321  18.553  43.579   1.336
20928W        W89322  34.935   0.861  14.004
20929W        W89323  11.102   5.310   4.660
20930W        W89324  11.383   0.826   3.678
20931W        W89325  25.477  24.786   1.754
20932W        W89326  37.956   9.818  12.013
20933W        W89327  30.685  30.356  11.507
20934W        W89328  26.955  26.934   3.659
20935W        W89329  18.206  38.559  12.474
20936W        W89330  28.508   0.888  13.333
20937W        W89331  40.884  13.627  11.936
20938W        W89332   5.423  39.785  14.600
20939W        W89333  42.271   9.333  14.683
20940W        W89334   8.328  14.671  14.681
20941W        W89335  31.159  21.656  14.359
20942W        W89336   7.275   0.478  11.641
20943W        W89337   9.367  18.584   2.586
20944W        W89338   6.515   2.272  13.449
20945W        W89339  35.567  23.610   4.178
20946W        W89340  43.578  11.393   1.776
20947W        W89341  38.074  30.787  11.073
20948W        W89342   6.225  25.280  13.316
20949W        W89343  13.356   0.321   0.223
20950W        W89344  42.897  23.062  13.893
20951W        W89345   5.454  18.312  11.217
20952W        W89346  26.182   1.018   2.254
20953W        W89347  14.352  43.291  12.485
20954W        W89348  24.411  36.357   1.821
20955W        W89349   5.861  28.875  11.201
20956W        W89350  26.634  32.442  12.936
20957W        W89351  29.398  10.600  14.752
20958W        W89352  41.482   5.211   0.272
20959W        W89353  32.079   0.525  14.765
20960W        W89354  24.963   6.777  13.478
20961W        W89355  24.492  34.011   2.770
20962W        W89356  44.549  22.112   0.489
20963W        W89357  40.779  14.686   2.901
20964W        W89358  15.885  31.056   4.271
20965W        W89359  10.711  21.736   3.760
20966W        W89360  41.298   2.875  11.104
20967W        W89361  34.381   9.063   1.566
20968W        W89362  20.710  34.194  14.397
20969W        W89363   3.374  26.255   2.235
20970W        W89364  23.058  17.742  11.058
20971W        W89365  18.231  10.927  14.517
20972W        W89366   8.616  18.348   2.282
20973W        W89367  21.970  38.855  14.878
20974W        W89368  36.488   9.593  13.944
20975W        W89369  30.915  25.564  12.598
20976W        W89370   1.860   5.450   1.012
20977W        W89371   9.561   9.618  13.521
20978W        W89372  36.898   8.218  11.134
20979W        W89373  31.127  14.214   3.210
20980W        W89374  11.583  38.012   0.113
20981W        W89375   6.227   7.905  11.549
20982W        W89376   6.943  12.078   4.199
20983W        W89377   1.536  30.771   2.411
20984W        W89378   7.382  19.382  11.062
20985W        W89379  44.392   1.367   0.181
20986W        W89380  18.911  17.164  13.786
20987W        W89381  16.785  26.484   2.526
20988W        W89382  18.201  41.945  11.162
20989W        W89383   4.378   6.169  10.644
20990W        W89384  32.969  23.007   0.388
20991W        W89385  42.348  15.245  14.056
20992W        W89386  18.755  15.197   4.510
20993W        W89387   2.444  25.222   0.826
20994W        W89388  33.467   5.628  13.917
20995W        W89389  43.149  37.087  14.738
20996W        W89390   6.189   2.004  12.845
20997W        W89391   8.028   7.509   5.118
20998W        W89392  22.716  24.670   0.497
20999W        W89393  12.460  16.252   4.059
21000W        W89394  21.107  23.206   2.141
21001W        W89395  18.408  44.033   4.121
21002W        W89396  13.901  44.486  11.681
21003W        W89397   3.735  15.959   1.921
21004W        W89398  28.014  13.650  12.085
21005W        W89399  23.629  21.733  13.573
21006W        W89400  42.029  17.611  13.499
21007W        W89401  24.954  41.422  13.881
21008W        W89402   6.180  25.581  12.851
21009W        W89403  40.471  35.484   1.040
21010W        W89404   0.630  34.466  11.939
21011W        W89405  25.507   7.873  12.454
21012W        W89406  12.774  38.473   4.614
21013W        W89407  42.503  41.265  10.580
21014W        W89408   9.676   4.975  12.936
21015W        W89409  26.611  24.335   4.524
21016W        W89410  35.605   6.339   3.301
21017W        W89411  36.415   3.639   1.754
21018W        W89412  18.584   6.489   4.093
21019W        W89413  21.635  32.054   9.727
21020W        W89414  33.603  32.127  13.880
21021W        W89415  28.756  37.964  12.974
21022W        W89416  30.576  10.781  11.942
21023W        W89417  17.054  30.499   2.812
21024W        W89418  15.406  29.500  12.264
21025W        W89419  10.234  41.238  13.048
21026W        W89420  27.464  40.006   0.989
21027W        W89421  39.490  10.027   3.659
21028W        W89422  22.161  17.863  13.391
21029W        W89423  31.854  11.279  14.054
21030W        W89424  24.611  12.870  10.250
21031W        W89425  27.407  32.339  13.379
21032W        W89426  21.175  26.057   1.247
21033W        W89427   3.451  16.213  13.367
21034W        W89428  22.084  44.796  11.922
21035W        W89429   8.198  26.667   2.730
21036W        W89430  39.842  35.661   4.870
21037W        W89431  24.114  13.413   3.819
21038W        W89432  44.885  41.698  14.508
21039W        W89433   5.095  42.274   3.783
21040W        W89434  42.782  37.408  12.951
21041W        W89435  12.627  44.255   2.417
21042W        W89436  32.603  28.617   1.763
21043W        W89437  27.758  13.422  11.599
21044W        W89438   2.795   5.433   2.513
21045W        W89439  22.080  12.031   0.240
21046W        W89440  44.253  26.757   3.278
21047W        W89441   2.386  20.802  11.900
21048W        W89442   3.641  43.668  12.993
21049W        W89443   7.358  32.532  10.895
21050W        W89444  24.665  23.761   3.442
21051W        W89445  13.671   3.879   2.182
21052W        W89446  26.146  36.138   0.297
21053W        W89447  11.149   2.197  11.212
21054W        W89448  20.327  27.196   0.875
21055W        W89449  36.618  38.090  14.282
21056W        W89450  13.850  28.072  10.304
21057W        W89451  33.621  20.556   0.337
21058W        W89452   2.424  26.133   3.246
21059W        W89453  14.128  26.492   3.039
21060W        W89454  23.314   5.437  10.837
21061W        W89455   8.338  37.470   1.814
21062W        W89456   2.344  44.839  14.489
21063W        W89457   7.294  22.652   0.434
21064W        W89458  17.037  40.005  13.444
21065W        W89459   2.022  42.316   4.609
21066W        W89460  31.919   7.889   1.436
21067W        W89461  35.403  26.156  11.673
21068W        W89462  27.406   3.987  13.568
21069W        W89463  32.446  18.048  14.199
21070W        W89464  37.201  17.264   2.114
21071W        W89465   0.151  35.886  13.844
21072W        W89466   3.915  21.285   2.354
21073W        W89467  35.552  22.062  12.007
21074W        W89468  18.695  33.911  13.369
21075W        W89469  20.702  19.762   1.882
21076W        W89470  23.788  17.679   0.723
21077W        W89471  33.931  16.778  12.912
21078W        W89472  20.264  17.729  12.815
21079W        W89473   0.747  27.047   0.306
21080W        W89474  41.608   2.865   0.392
21081W        W89475  24.603  21.285   4.158
21082W        W89476  41.685  33.140   1.936
21083W        W89477   6.202  32.471  11.139
21084W        W89478  13.845   1.231   1.975
21085W        W89479  35.868  17.253  14.050
21086W        W89480  35.640   3.376   3.410
21087W        W89481  16.537  16.157  11.154
21088W        W89482  28.222  13.056  10.599
21089W        W89483  11.785  21.451   1.969
21090W        W89484  35.032  35.610  13.365
21091W        W89485  23.052  27.943  14.557
21092W        W89486  26.914  20.042   1.446
21093W        W89487  20.784  21.258  14.512
21094W        W89488   8.706  44.481   2.659
21095W        W89489  22.959  21.531   1.448
21096W        W89490  19.099  44.741   1.267
21097W        W89491  43.980  43.658   1.941
21098W        W89492   1.397   3.199   1.633
21099W        W89493  32.266  14.468   1.299
21100W        W89494  42.971  13.092  12.502
21101W        W89495  26.790  15.823  11.418
21102W        W89496  23.680   8.749  10.208
21103W        W89497  23.770  10.815   1.538
21104W        W89498  32.072  25.318   0.708
21105W        W89499  14.759  19.145   1.821
21106W        W89500  21.557   9.842   0.506
21107W        W89501  19.199  34.948   4.475
21108W        W89502   9.945   8.681  13.467
21109W        W89503   0.031  19.733   4.545
21110W        W89504  31.869  34.012   0.145
21111W        W89505  44.013  31.921   2.283
21112W        W89506  12.900  28.060   2.367
21113W        W89507  41.013   8.203   0.106
21114W        W89508  27.767  34.599   2.215
21115W        W89509  17.595  43.380  13.091
21116W        W89510  37.848   6.279   3.123
21117W        W89511  28.810  14.378   1.705
21118W        W89512  13.786   5.797   3.612
21119W        W89513  39.071  22.637  12.899
21120W        W89514   5.756  14.502   0.937
21121W        W89515  20.838  43.064  10.421
21122W        W89516  19.571  25.777   5.117
21123W        W89517  27.693   4.990   2.722
21124W        W89518  33.646  42.899  13.466
21125W        W89519  23.697  25.252  11.148
21126W        W89520  22.450   8.231   0.293
21127W        W89521   4.993  39.553  13.517
21128W        W89522  30.572  22.532  11.253
21129W        W89523   0.805   4.182   0.156
21130W        W89524  29.164  32.405   0.557
21131W        W89525  11.209  33.417  11.677
21132W        W89526   8.689  41.972  10.435
21133W        W89527  25.144  21.300  12.453
21134W        W89528   0.818  28.406  14.982
21135W        W89529   6.336  15.402  12.939
21136W        W89530  30.489  22.972   4.310
21137W        W89531  32.658   5.411   2.248
21138W        W89532  22.535  30.259  13.604
21139W        W89533   7.689  44.290   2.677
21140W        W89534   5.791  28.492   3.346
21141W        W89535   1.758  25.907  13.160
21142W        W89536   7.612  23.133   0.769
21143W        W89537   4.567  12.613  11.866
21144W        W89538  23.020   8.322  10.727
21145W        W89539  15.087  11.887   1.291
21146W        W89540   3.482  39.657   1.783
21147W        W89541   4.286  29.889   4.218
21148W        W89542  23.764   0.953   5.013
21149W        W89543  27.747  21.646  11.373
21150W        W89544  30.997   1.831   2.541
21151W        W89545  40.726  40.832   3.773
21152W        W89546   6.889  26.854  12.911
21153W        W89547   7.250  38.231  11.177
21154W        W89548  41.967  16.072   4.524
21155W        W89549  37.864  17.215   2.876
21156W        W89550  15.872  12.682   4.606
21157W        W89551   7.273   1.382   3.494
21158W        W89552  13.788  24.702  13.904
21159W        W89553  17.857  29.352  11.474
21160W        W89554   3.275  23.720   4.133
21161W        W89555  24.557  28.130  13.584
21162W        W89556  26.398  22.700   1.895
21163W        W89557  40.459  43.932   3.327
21164W        W89558   7.614  24.399  11.232
21165W        W89559  25.120   4.201  14.086
21166W        W89560  16.382  30.672  12.968
21167W        W89561   8.162  20.195   4.109
21168W        W89562  30.321  16.270  11.155
21169W        W89563  34.876   9.733  13.015
21170W        W89564  24.581  36.534   0.878
21171W        W89565  31.040  33.395   0.874
21172W        W89566   1.519  32.511  11.166
21173W        W89567  11.243  32.130  13.281
21174W        W89568  22.995   9.509  13.436
21175W        W89569  29.681  19.367  14.340
21176W        W89570  25.477  43.112   3.161
21177W        W89571  12.745   7.861   4.322
21178W        W89572   6.949  37.965   4.709
21179W        W89573   6.553  42.408   1.138
21180W        W89574  24.796  13.323   2.461
21181W        W89575  11.686  23.264  10.818
21182W        W89576  27.634  30.086  10.705
21183W        W89577  41.353  32.612   1.323
21184W        W89578  29.583  42.842   1.709
21185W        W89579   8.661  43.271   2.093
21186W        W89580   5.141   3.330  12.551
21187W        W89581  10.920  41.784  11.536
21188W        W89582  18.662  17.366   0.907
21189W        W89583   9.963  38.009   2.812
21190W        W89584   5.428   9.136   4.537
21191W        W89585   6.308  20.758   4.528
21192W        W89586  24.984  22.273   2.379
21193W        W89587   9.183   9.205   0.064
21194W        W89588  18.800  14.646   4.159
21195W        W89589  21.850  21.670   0.894
21196W        W89590  17.794   1.340  11.408
21197W        W89591  38.712  20.825   5.054
21198W        W89592  22.768  13.154  11.450
21199W        W89593   4.615  39.100   0.853
21200W        W89594  18.083  22.280  14.117
21201W        W89595  20.925  13.621  11.550
21202W        W89596   7.315   7.466  10.934
21203W        W89597  16.901  12.401   1.906
21204W        W89598   7.648  15.346  12.392
21205W        W89599  27.280  13.173   3.704
21206W        W89600  10.626  14.601  13.856
21207W        W89601  13.074  15.711   1.952
21208W        W89602   2.719  19.275  14.972
21209W        W89603  44.325  24.999   0.320
21210W        W89604  38.812  33.800  11.737
21211W        W89605  32.652  36.451   0.030
21212W        W89606   9.366   7.171   1.721
21213W        W89607   8.591  13.355   1.129
21214W        W89608   9.033  35.432   4.214
21215W        W89609  28.466  27.059  11.714
21216W        W89610  35.951  27.053   3.414
21217W        W89611  10.146  17.286   3.289
21218W        W89612   0.036  24.725   3.655
21219W        W89613  30.625  21.238  10.737
21220W        W89614  44.370  29.369  13.330
21221W        W89615  27.161   6.928   3.645
21222W        W89616  36.145  28.490  13.996
21223W        W89617  29.430  35.885   9.895
21224W        W89618   2.161  23.422  11.185
21225W        W89619   2.247  15.006  12.838
21226W        W89620  43.334  31.299  11.205
21227W        W89621  30.725  26.546   3.604
21228W        W89622  30.174  44.473  14.739
21229W        W89623  18.246  18.103   5.166
21230W        W89624  33.440   5.729  11.540
21231W        W89625  15.413  32.442   0.955
21232W        W89626  23.243  39.104   2.635
21233W        W89627  23.742  44.306   1.680
21234W        W89628   8.404   7.161   0.340
21235W        W89629  25.093  16.539   0.029
21236W        W89630  38.911  24.888  14.282
21237W        W89631  43.536   1.256  14.507
21238W        W89632  27.802  19.167   1.179
21239W        W89633  33.165  36.010  11.533
21240W        W89634  37.769  27.993   2.424
21241W        W89635  33.849  20.198   1.862
21242W        W89636  11.198   9.223   0.087
21243W        W89637  26.594  44.302   4.421
21244W        W89638  29.636  40.058  10.310
21245W        W89639  30.190  36.427  10.701
21246W        W89640   3.884  25.502   0.024
21247W        W89641  22.655   6.221   3.347
21248W        W89642  41.635   9.574  11.402
21249W        W89643  11.538  37.975  11.401
21250W        W89644  35.855  35.835   2.203
21251W        W89645  13.788  41.180   0.421
21252W        W89646  11.455  30.567  13.369
21253W        W89647  31.148   0.741  12.456
21254W        W89648  10.846  30.443  13.894
21255W        W89649   9.215  22.436  11.250
21256W        W89650  17.628  38.491  11.317
21257W        W89651  40.952  20.095  12.015
21258W        W89652  22.731  13.302   2.381
21259W        W89653  13.198  20.108   3.846
21260W        W89654  18.219  44.851  12.128
21261W        W89655  30.250  40.993  11.994
21262W        W89656  25.665  28.417   0.934
21263W        W89657  18.226   4.890   1.816
21264W        W89658  17.567  15.265   3.887
21265W        W89659  31.961  12.760  12.513
21266W        W89660  35.136  23.075  13.577
21267W        W89661  15.916   0.311   3.049
21268W        W89662   9.930  11.223   4.586
21269W        W89663  16.465   0.785  11.258
21270W        W89664   2.236   0.962   2.233
21271W        W89665  18.970  23.226  12.065
21272W        W89666  22.733  24.209   2.401
21273W        W89667  44.359   6.097  13.676
21274W        W89668  20.104  10.645  11.604
21275W        W89669  31.128  26.577  14.861
21276W        W89670  12.261  24.364   1.778
21277W        W89671  16.054  18.297  11.560
21278W        W89672  37.085  40.768  13.931
21279W        W89673  29.218   4.501   4.601
21280W        W89674  17.547  39.816   3.225
21281W        W89675  36.453  33.243  11.838
21282W        W89676  16.077  17.845  13.739
21283W        W89677  34.954  21.604   3.408
21284W        W89678  22.745  12.105  13.940
21285W        W89679  34.268  33.675  14.905
21286W        W89680  44.331  18.811  13.151
21287W        W89681  29.160  38.282  11.583
21288W        W89682   1.379  35.666   0.946
21289W        W89683  20.238  35.350  11.587
21290W        W89684  17.386  20.722   9.790
21291W        W89685   4.404  17.169  13.337
21292W        W89686  39.328  31.697   2.426
21293W        W89687  36.376  13.352   1.500
21294W        W89688  23.258   9.126   0.873
21295W        W89689  40.307  28.210  12.522
21296W        W89690  20.584  13.584  13.763
21297W        W89691  16.580   5.847   4.003
21298W        W89692  43.517  12.855   0.441
21299W        W89693  43.790  30.143   0.127
21300W        W89694  41.511  31.324   3.372
21301W        W89695  44.146  19.191   2.098
21302W        W89696  17.253  40.358   1.801
21303W        W89697  27.165   5.614   4.005
21304W        W89698  20.040  25.182  12.996
21305W        W89699   6.762  33.163   0.143
21306W        W89700   3.196  42.225  14.247
21307W        W89701  15.556  34.480  10.704
21308W        W89702  33.516   2.016  14.063
21309W        W89703  21.312  41.785  11.609
21310W        W89704   9.286  19.991  13.379
21311W        W89705  16.001  41.713   0.914
21312W        W89706  41.168  35.084   1.812
21313W        W89707  24.039   6.525   0.851
21314W        W89708  12.669  15.367  13.542
21315W        W89709  29.977  11.297   4.338
21316W        W89710  10.142  25.242  13.081
21317W        W89711  30.364  32.363   1.520
21318W        W89712  27.918  10.404  13.536
21319W        W89713  26.595  10.703  12.625
21320W        W89714   1.804  41.048   3.738
21321W        W89715   4.897  34.247   2.831
21322W        W89716  34.082  20.306  12.910
21323W        W89717  29.475  18.022   2.806
21324W        W89718  21.195  43.326  11.141
21325W        W89719   4.430  44.387  13.652
21326W        W89720  37.502   5.910  12.062
21327W        W89721   4.793  16.738  12.166
21328W        W89722  20.540  25.463   2.375
21329W        W89723  40.859  14.334   3.756
21330W        W89724  30.816  13.268  12.165
21331W        W89725  11.816  16.610  10.704
21332W        W89726   4.939  22.708   1.750
21333W        W89727   0.142   7.317   1.297
21334W        W89728  41.555  15.762   4.598
21335W        W89729  43.428   7.343  11.738
21336W        W89730  24.970  35.341  12.946
21337W        W89731  26.468  20.127  14.834
21338W        W89732  12.898   2.654  10.649
21339W        W89733   2.512  13.903  13.579
21340W        W89734   9.499   1.256   0.545
21341W        W89735  39.489  21.729  12.578
21342W        W89736  39.904   8.699   4.402
21343W        W89737   4.264  22.254  14.760
21344W        W89738  43.249   0.050  12.988
21345W        W89739   7.856  18.816  14.773
21346W        W89740  23.635  19.842   4.270
21347W        W89741  18.581  13.082  14.298
21348W        W89742  35.346  17.264   2.367
21349W        W89743  30.111  12.321   2.757
21350W        W89744  33.447  16.359  14.504
21351W        W89745  26.602  34.346  12.520
21352W        W89746  37.808   8.660  14.744
21353W        W89747  21.212   7.897   3.354
21354W        W89748  23.365  44.929  10.695
21355W        W89749   3.688  16.540   0.262
21356W        W89750   4.872  17.768  10.637
21357W        W89751  18.930  42.279   3.218
21358W        W89752  32.589  14.204  12.010
21359W        W89753  40.296  15.341  11.500
21360W        W89754  15.709   9.284  12.066
21361W        W89755   2.849   9.141   3.926
21362W        W89756  17.032   7.213   2.681
21363W        W89757  43.927   1.676   0.836
21364W        W89758  10.439  11.330   4.427
21365W        W89759  28.521  25.744  12.399
21366W        W89760  42.828  43.783  11.708
21367W        W89761  36.621  44.857  11.664
21368W        W89762  22.958  30.466  12.841
21369W        W89763   8.747  43.763   1.817
21370W        W89764  26.728  19.086   0.319
21371W        W89765   7.092  39.739   3.770
21372W        W89766  32.105  34.385   4.537
21373W        W89767  21.162  34.558  12.184
21374W        W89768  16.588   5.340  14.145
21375W        W89769  32.098  43.651  13.973
21376W        W89770  19.683  13.846  11.097
21377W        W89771  35.424  42.350  13.104
21378W        W89772  22.769  42.265  11.943
21379W        W89773   7.876   2.847   4.361
21380W        W89774  41.578  37.508  11.579
21381W        W89775  35.980  38.351  14.599
21382W        W89776  40.464  39.984   1.327
21383W        W89777  32.972  36.460  11.347
21384W        W89778  17.514  34.136   3.146
21385W        W89779  12.908  19.214  13.464
21386W        W89780  13.203  27.457  14.191
21387W        W89781   6.645   0.969   2.470
21388W        W89782  25.469  42.345   2.378
21389W        W89783  17.248  25.512   4.135
21390W        W89784  24.887   7.810   3.066
21391W        W89785   1.509  32.311   2.318
21392W        W89786  36.543  22.113   4.914
21393W        W89787   1.451  37.347   2.344
21394W        W89788  21.487  35.987  10.482
21395W        W89789  37.570  14.435   0.748
21396W        W89790  29.025  13.808  10.903
21397W        W89791  23.262  41.723   1.019
21398W        W89792  42.119  13.687  13.515
21399W        W89793   9.850  37.274  12.010
21400W        W89794  23.982   0.997   4.141
21401W        W89795  10.569  31.839  12.048
21402W        W89796  33.532   5.163  14.871
21403W        W89797   5.069  15.353   3.284
21404W        W89798  32.159  33.392  11.521
21405W        W89799  18.521  26.162   2.279
21406W        W89800  34.768   3.345  13.894
21407W        W89801  13.181  14.844   2.814
21408W        W89802  30.692  41.734   3.513
21409W        W89803  12.732  40.441   2.464
21410W        W89804  43.723   0.429   4.589
21411W        W89805  43.942  41.008   2.790
21412W        W89806  38.439  44.217   1.371
21413W        W89807  23.689  17.078   2.784
21414W        W89808  23.598   4.304  10.941
21415W        W89809  30.050   9.705   2.965
21416W        W89810  13.388  18.108  12.098
21417W        W89811  37.833  39.037   3.658
21418W        W89812  10.822  14.830  14.275
21419W        W89813  19.386  43.293  13.471
21420W        W89814  40.416  33.244  10.740
21421W        W89815  20.762  27.704   2.802
21422W        W89816  18.236  24.767  14.085
21423W        W89817  40.421   9.751  10.672
21424W        W89818   1.567  28.074   3.040
21425W        W89819   9.155  29.619   2.002
21426W        W89820  33.986  37.471  11.944
21427W        W89821  27.016  23.776  11.140
21428W        W89822  18.953  26.413  14.210
21429W        W89823   5.323  42.883   2.305
21430W        W89824  23.122  36.302   0.415
21431W        W89825  26.042   1.694  10.224
21432W        W89826  18.810  22.808   2.153
21433W        W89827  19.212  25.495   1.612
21434W        W89828   0.056  38.567   5.294
21435W        W89829  17.217   5.314   5.117
21436W        W89830  35.566  42.408   2.331
21437W        W89831  23.574  26.726   2.292
21438W        W89832  42.336   3.296  13.453
21439W        W89833  14.416   1.599  11.224
21440W        W89834  39.088  31.072   4.650
21441W        W89835  35.283  11.564  12.078
21442W        W89836  35.741  34.043  12.174
21443W        W89837   9.142  12.300  11.033
21444W        W89838  28.097   8.909   2.267
21445W        W89839  32.621  37.363   3.249
21446W        W89840   2.097  31.065  10.786
21447W        W89841  40.453   8.204   0.007
21448W        W89842   5.839  35.598  12.957
21449W        W89843  18.147  37.587   2.714
21450W        W89844  30.992  17.486  13.439
21451W        W89845  39.486  35.495  10.943
21452W        W89846  30.675  35.426   0.757
21453W        W89847   2.838  24.918   1.299
21454W        W89848  30.057  12.386  11.587
21455W        W89849   4.015  27.768  14.364
21456W        W89850   0.665  21.245  10.481
21457W        W89851  42.372  22.504   0.247
21458W        W89852  38.763  21.865  13.344
21459W        W89853  42.367  36.383   0.880
21460W        W89854  25.141   4.714  12.804
21461W        W89855  20.061  42.709  12.534
21462W        W89856   1.255  11.571   4.196
21463W        W89857  41.969  16.785  14.891
21464W        W89858   8.072  11.725  10.605
21465W        W89859  30.479  13.456   4.586
21466W        W89860  18.030  18.918  11.953
21467W        W89861  25.172  26.190  12.934
21468W        W89862  25.261  15.589  12.513
21469W        W89863  38.238  40.274  12.027
21470W        W89864  34.451  26.453   2.607
21471W        W89865  13.819  10.881   1.788
21472W        W89866  33.347  43.040  12.130
21473W        W89867  11.731   1.265   1.788
21474W        W89868  20.402  18.773   0.386
21475W        W89869  42.093  30.142  11.756
21476W        W89870  13.049  23.398  14.282
21477W        W89871   3.322   8.829   3.397
21478W        W89872  24.734  34.039   2.315
21479W        W89873  15.233  42.929  10.661
21480W        W89874  19.631  12.308   0.762
21481W        W89875  33.158  16.626  13.327
21482W        W89876  30.831  21.137   1.351
21483W        W89877  20.563  36.341   3.748
21484W        W89878  43.053   3.866   1.784
21485W        W89879  15.599   1.004  11.437
21486W        W89880  22.087  15.713  14.715
21487W        W89881  27.129  35.251  14.030
21488W        W89882  23.269   9.934   1.367
21489W        W89883  11.052  37.871   3.679
21490W        W89884  12.777   3.108  13.291
21491W        W89885  22.376   4.719   3.599
21492W        W89886   5.217  20.756   2.208
21493W        W89887  28.979  10.909  14.024
21494W        W89888  44.586  22.717   3.731
21495W        W89889  44.681  13.631  14.798
21496W        W89890  19.384  19.397   4.878
21497W        W89891  16.743   8.887  13.145
21498W        W89892  35.328  41.978   1.722
21499W        W89893  14.023  17.049  11.199
21500W        W89894   0.454  14.979   2.773
21501W        W89895  27.333  35.250  12.812
21502W        W89896  20.370  28.348  13.968
21503W        W89897   1.706  23.226  12.074
21504W        W89898   0.762   9.845  11.907
21505W        W89899  43.373  20.851  10.350
21506W        W89900  20.306  37.871  11.040
21507W        W89901  38.981  35.409   4.371
21508W        W89902  15.146   5.422   0.766
21509W        W89903   9.806  13.261  14.236
21510W        W89904   7.986   7.939   3.324
21511W        W89905  12.159   8.925  13.026
21512W        W89906  17.118  18.582   0.860
21513W        W89907  25.097   5.636   1.928
21514W        W89908  44.793  41.004   2.664
21515W        W89909   4.537  25.591  13.361
21516W        W89910  43.949  29.395  13.616
21517W        W89911  38.583  19.083  13.466
21518W        W89912  13.639  42.807  14.424
21519W        W89913  24.152  17.868  13.511
21520W        W89914  35.872  32.102  13.040
21521W        W89915   3.767  12.347  14.721
21522W        W89916   7.351  17.613   4.494
21523W        W89917  21.736  38.340  14.826
21524W        W89918   1.359  31.726  14.354
21525W        W89919   3.335  42.082  14.742
21526W        W89920  25.455  11.559  11.950
21527W        W89921  14.555  20.050   1.172
21528W        W89922  29.753  37.478   1.352
21529W        W89923  19.908  28.721   0.653
21530W        W89924  12.517  32.905  10.819
21531W        W89925  16.763  19.080  14.523
21532W        W89926   7.326  40.613  13.579
21533W        W89927  35.953   3.104  14.798
21534W        W89928  37.588  26.760  10.037
21535W        W89929  11.358  14.101   2.320
21536W        W89930  27.519  20.960   3.171
21537W        W89931  29.588  22.480  14.562
21538W        W89932  31.346   1.898  12.952
21539W        W89933  37.537  39.954  10.137
21540W        W89934  29.032  19.222   0.951
21541W        W89935   4.236  33.527   0.258
21542W        W89936  42.425   4.370  13.343
21543W        W89937  11.350  32.057   1.851
21544W        W89938  20.636  36.568  12.977
21545W        W89939  11.672  35.351  12.904
21546W        W89940  27.435   0.972   3.660
21547W        W89941  27.530   8.818  12.061
21548W        W89942  22.080  24.397   3.188
21549W        W89943  22.300  40.286   2.216
21550W        W89944  15.283  33.490   4.612
21551W        W89945  18.694  27.206   4.073
21552W        W89946  17.407  28.249   1.328
21553W        W89947   3.731  21.715   4.047
21554W        W89948  25.032   2.917   0.205
21555W        W89949  36.313  32.666  12.434
21556W        W89950  42.844  33.889   0.226
21557W        W89951  23.777  33.307   1.780
21558W        W89952  40.774  40.404   1.338
21559W        W89953  34.968  20.800   0.076
21560W        W89954  33.091   1.704   3.935
21561W        W89955   8.180  22.095   2.173
21562W        W89956  39.002   8.450   0.429
21563W        W89957  41.592  42.862   0.819
21564W        W89958  42.013  31.186  11.594
21565W        W89959  38.518   9.950  11.213
21566W        W89960  14.855  18.646   1.628
21567W        W89961  43.592   2.632  11.570
21568W        W89962   9.214  17.081   4.086
21569W        W89963  36.046  23.806  12.755
21570W        W89964   5.223  20.249   3.081
21571W        W89965  41.405  33.496  10.648
21572W        W89966   1.154  29.774  12.640
21573W        W89967  29.574   9.131   0.686
21574W        W89968  30.073  41.068  11.515
21575W        W89969   5.716  32.164  13.074
21576W        W89970  43.533  21.983   1.326
21577W        W89971   6.218  16.249   1.304
21578W        W89972  35.516  22.648  11.222
21579W        W89973  15.744  12.396   3.295
21580W        W89974  26.197  40.989  12.289
21581W        W89975  13.335   1.906  10.540
21582W        W89976  17.745   5.927  13.113
21583W        W89977  21.970   0.375  10.728
21584W        W89978   0.996  20.149  11.156
21585W        W89979   5.277  22.992  14.732
21586W        W89980  33.616  13.918  10.876
21587W        W89981  15.607   3.874  12.539
21588W        W89982  30.095   3.618  10.582
21589W        W89983   5.453  29.051  11.489
21590W        W89984   7.949  13.755   2.335
21591W        W89985  28.015  11.743  11.025
21592W        W89986  38.009   5.169  12.925
21593W        W89987  41.400   5.660   0.809
21594W        W89988  16.175  30.191  10.546
21595W        W89989   2.349  24.127   2.446
21596W        W89990   6.966   2.610   3.633
21597W        W89991  44.359  37.652   3.262
21598W        W89992   6.030  16.072  11.676
21599W        W89993   3.504   6.352  14.381
21600W        W89994  30.447  42.226  14.111
21601W        W89995  36.889  39.405   0.330
21602W        W89996   2.553  30.121   4.170
21603W        W89997   7.237  26.153  12.388
21604W        W89998   5.831  42.459  13.961
21605W        W89999  26.731  17.165  12.146
21606W        W90000   7.790  16.085   0.884
21607W        W90001  35.197   2.552  12.021
21608W        W90002  16.449  37.691   3.725
21609W        W90003  33.553  10.250   1.687
21610W        W90004  44.953  15.002   2.567
21611W        W90005  23.782  30.161  13.991
21612W        W90006  38.955  28.733  11.062
21613W        W90007  34.400  23.249  10.731
21614W        W90008  38.851  30.222  14.347
21615W        W90009  33.812  10.079   2.425
21616W        W90010  32.159   5.210   3.456
21617W        W90011  43.889  23.717  11.498
21618W        W90012  22.327   0.781   4.905
21619W        W90013   8.004  12.597   2.758
21620W        W90014  11.701  17.728  10.602
21621W        W90015  37.690  41.228   1.470
21622W        W90016  27.474  12.952   2.825
21623W        W90017  12.230   7.856   3.109
21624W        W90018  43.988  13.688   0.274
21625W        W90019  15.665   6.228  12.069
21626W        W90020  29.452  42.005   3.249
21627W        W90021   4.349   9.030  11.472
21628W        W90022  32.836  44.180  14.433
21629W        W90023   8.274  11.662  14.720
21630W        W90024  31.006  37.983  10.530
21631W        W90025  21.543  18.859  14.108
21632W        W90026   5.245  27.099   0.311
21633W        W90027  14.543  34.520  10.662
21634W        W90028  22.065  12.737  14.836
21635W        W90029   9.179  37.061  12.423
21636W        W90030  34.928  16.490  12.969
21637W        W90031  19.111  17.295   3.591
21638W        W90032  14.504   2.848  12.394
21639W        W90033  31.416  27.708   3.364
21640W        W90034  22.986  33.435   1.353
21641W        W90035  25.552  19.438   4.201
21642W        W90036  42.846  44.890   4.828
21643W        W90037  24.942  12.301  11.155
21644W        W90038   2.221  17.381  12.945
21645W        W90039  37.526  40.856  10.695
21646W        W90040  26.863  17.988  12.928
21647W        W90041  31.032   6.279  13.291
21648W        W90042  25.971  37.742  11.539
21649W        W90043  19.235  13.330  14.855
21650W        W90044  33.207  35.364  13.132
21651W        W90045  33.345  17.506  12.205
21652W        W90046  27.459  28.875   3.864
21653W        W90047   5.654   1.241  12.375
21654W        W90048  12.742  18.145   4.097
21655W        W90049  11.819  36.137  10.672
21656W        W90050  23.674  21.710   1.569
21657W        W90051  31.102  40.000   0.047
21658W        W90052   6.907  23.919   1.653
21659W        W90053  24.548   8.368  10.147
21660W        W90054  41.440  25.935   4.868
21661W        W90055  38.087  12.112  13.923
21662W        W90056  22.744  43.302   3.523
21663W        W90057  36.497  32.320   0.908
21664W        W90058  21.849  32.184   4.409
21665W        W90059  23.821  43.514   2.385
21666W        W90060  36.349   2.166  14.953
21667W        W90061  36.515  22.174   3.826
21668W        W90062  40.234  32.428   4.262
21669W        W90063  20.077   3.592  10.982
21670W        W90064  40.647  38.474  12.039
21671W        W90065  31.333  30.390   3.689
21672W        W90066  15.711  35.939   9.834
21673W        W90067  27.993  19.533   4.175
21674W        W90068   7.204  43.049   1.050
21675W        W90069  20.380   8.299   1.151
21676W        W90070   6.624  12.461  11.498
21677W        W90071   2.053  10.346  10.738
21678W        W90072   2.854  29.845   1.764
21679W        W90073   6.192  42.709  11.709
21680W        W90074  31.299  13.408  11.112
21681W        W90075  25.209   4.740   0.934
21682W        W90076   3.998   1.777   1.818
21683W        W90077  23.130  10.203   2.724
21684W        W90078  27.769  14.120  14.311
21685W        W90079  27.708   3.514  12.012
21686W        W90080  26.925  14.749  10.844
21687W        W90081  23.239  25.079  11.385
21688W        W90082  27.141  15.875   3.338
21689W        W90083   5.492  24.563  14.965
21690W        W90084  15.795  24.270  11.200
21691W        W90085   9.379  21.145   2.615
21692W        W90086  12.865  21.386  14.053
21693W        W90087  32.460  15.586  13.971
21694W        W90088  24.919  43.754  14.870
21695W        W90089   4.337  28.192  10.963
21696W        W90090  40.813  24.606   5.052
21697W        W90091  14.378   6.228  14.599
21698W        W90092   6.162   5.497  10.215
21699W        W90093   9.138  40.358   3.805
21700W        W90094   7.430  26.495   3.245
21701W        W90095  19.227  27.729  11.706
21702W        W90096  13.684  30.935   4.146
21703W        W90097   5.141   4.007   3.207
21704W        W90098  27.094  10.855   4.696
21705W        W90099  29.605  11.385  14.389
21706W        W90100  22.909   4.731   1.422
21707W        W90101  24.232   2.309   4.026
21708W        W90102  14.149  19.772  11.095
21709W        W90103  17.143  38.476  11.156
21710W        W90104  36.525  39.560   1.972
21711W        W90105  35.269  14.134  13.386
21712W        W90106  24.193  22.475   3.692
21713W        W90107  38.536  15.200   4.469
21714W        W90108  39.271   1.326   3.272
21715W        W90109  12.661  18.098  13.817
21716W        W90110  25.005  20.657   3.320
21717W        W90111  42.517   4.213  13.873
21718W        W90112  32.874   9.415  13.475
21719W        W90113  19.722  16.277  14.362
21720W        W90114  19.938   9.685  14.336
21721W        W90115   9.288  19.076   3.825
21722W        W90116  17.175   5.504  12.439
21723W        W90117   1.940  32.063   4.633
21724W        W90118   2.387  37.272   5.060
21725W        W90119  16.323  43.245  14.315
21726W        W90120  35.894  33.033  13.143
21727W        W90121  32.284   9.392  12.564
21728W        W90122  31.007  30.870  13.421
21729W        W90123  22.024  18.153  10.580
21730W        W90124   6.470  20.257  13.991
21731W        W90125  23.861  15.668   5.007
21732W        W90126  13.783  20.017  13.389
21733W        W90127   9.467  33.312  12.821
21734W        W90128  15.333   7.946  13.022
21735W        W90129  27.031   5.927  13.856
21736W        W90130  38.575  16.778  13.365
21737W        W90131   0.892  15.250   4.330
21738W        W90132  29.341  34.126  13.903
21739W        W90133  12.406  30.077   2.804
21740W        W90134  31.010  40.995  14.579
21741W        W90135  40.540   9.804  11.696
21742W        W90136  16.166  42.346   0.360
21743W        W90137  12.770  39.526   1.423
21744W        W90138  22.311   6.672   1.405
21745W        W90139  20.685  38.487  13.511
21746W        W90140   2.467  37.563  11.550
21747W        W90141  27.207  35.061  10.715
21748W        W90142  27.630  16.164   3.121
21749W        W90143   8.232  31.078   4.500
21750W        W90144  36.016  40.989   2.822
21751W        W90145   1.726   2.274  11.938
21752W        W90146  30.803  28.938  11.514
21753W        W90147   1.485  28.641   1.223
21754W        W90148  33.196  32.510  11.209
21755W        W90149  24.557  18.403   2.784
21756W        W90150  13.914  27.943  14.216
21757W        W90151   8.808   8.493  12.510
21758W        W90152  43.895  15.337  11.929
21759W        W90153  13.160  11.211  12.451
21760W        W90154  15.552  37.585  10.187
21761W        W90155  14.132  20.173  11.575
21762W        W90156  27.729  39.502   3.222
21763W        W90157   7.300   8.341  12.088
21764W        W90158  20.588  34.231   4.639
21765W        W90159   7.980  33.077   2.270
21766W        W90160  30.611  14.329   0.928
21767W        W90161  43.707  35.544   2.790
21768W        W90162  41.404  26.980  14.761
21769W        W90163   1.090  14.289   2.855
21770W        W90164  40.931   6.232   1.522
21771W        W90165  19.685  13.547  11.530
21772W        W90166  33.589  16.459  11.463
21773W        W90167  34.886  31.438  13.078
21774W        W90168  35.892  31.452  12.181
21775W        W90169  16.106   8.280  12.570
21776W        W90170  14.145  19.836   1.402
21777W        W90171  30.393  15.637   1.071
21778W        W90172   7.769  32.031  10.583
21779W        W90173  19.818   9.888  12.953
21780W        W90174  27.865  32.440  12.400
21781W        W90175   8.237  34.826  11.830
21782W        W90176  20.818  22.454  14.708
21783W        W90177  42.950  41.020  13.285
21784W        W90178  29.605  31.935  12.354
21785W        W90179  41.073   7.785  14.771
21786W        W90180  44.491  37.938   1.680
21787W        W90181  14.167   3.835   0.071
21788W        W90182  30.608   2.034   0.258
21789W        W90183  24.677  24.329   0.281
21790W        W90184  28.097  18.807  14.870
21791W        W90185   7.382  30.166  13.034
21792W        W90186  43.776  34.650   1.125
21793W        W90187  27.469   9.591  13.457
21794W        W90188  32.019  37.084   2.758
21795W        W90189  28.176   8.935   4.686
21796W        W90190  18.968   1.218  13.109
21797W        W90191  26.699  36.619  13.988
21798W        W90192   9.687  27.434  14.755
21799W        W90193  38.690  30.243  12.551
21800W        W90194  35.396   2.400  12.504
21801W        W90195  36.910  42.027  11.732
21802W        W90196  43.262  22.105   2.305
21803W        W90197  30.891  20.219   1.042
21804W        W90198  33.852   7.900  12.014
21805W        W90199  18.407  36.343  13.111
21806W        W90200  44.593   0.686  11.591
21807W        W90201   5.307   1.804  12.422
21808W        W90202  31.770  24.151   1.042
21809W        W90203   0.019   7.458   2.188
21810W        W90204   9.221  32.221  14.309
21811W        W90205  44.398  14.794   0.481
21812W        W90206  27.357   4.086   1.872
21813W        W90207  41.547  39.794  13.462
21814W        W90208  44.977  21.733  14.667
21815W        W90209  40.861   1.282   1.666
21816W        W90210  36.089  32.391   1.424
21817W        W90211  43.814  14.235   3.123
21818W        W90212  10.732   9.389   1.231
21819W        W90213   3.035  44.420   9.926
21820W        W90214  15.044   8.723   5.099
21821W        W90215  27.370   3.564   1.954
21822W        W90216  40.286  42.908  12.371
21823W        W90217  11.701  15.422   0.948
21824W        W90218  18.641  26.441   2.714
21825W        W90219  32.488   6.591  10.785
21826W        W90220   0.663   4.783  11.982
21827W        W90221  23.172  14.557   1.861
21828W        W90222  37.423   3.444   2.402
21829W        W90223  12.266  38.088   3.363
21830W        W90224  15.641  22.190  13.507
21831W        W90225  33.119  37.666   3.317
21832W        W90226   9.982   9.928   0.697
21833W        W90227   7.116   5.784   5.388
21834W        W90228  44.314  37.946   0.146
21835W        W90229  19.683  40.042   1.731
21836W        W90230  24.249  26.729  13.866
21837W        W90231  12.791   6.948   2.233
21838W        W90232   0.015   8.201   4.909
21839W        W90233  32.415  41.767  12.102
21840W        W90234  43.886  38.246  14.625
21841W        W90235   9.305  11.998  10.667
21842W        W90236  42.878  22.473  14.542
21843W        W90237  29.407   5.900  12.304
21844W        W90238  15.619   1.707   1.204
21845W        W90239  26.965  13.173  14.870
21846W        W90240   1.830  27.446  14.686
21847W        W90241  14.139  12.817   3.654
21848W        W90242   7.958   7.043  12.915
21849W        W90243  12.314  30.591   4.130
21850W        W90244  25.231  17.640  12.362
21851W        W90245  19.824  20.765  12.968
21852W        W90246  41.317  17.076   4.108
21853W        W90247  12.567  31.562   4.225
21854W        W90248  29.847  14.521  11.223
21855W        W90249   7.318  41.136  13.480
21856W        W90250  24.289  13.947  13.836
21857W        W90251  33.472  29.942  14.360
21858W        W90252  36.965  23.305   1.099
21859W        W90253  40.472  36.743   0.663
21860W        W90254  31.408  21.645   4.601
21861W        W90255  28.623  26.732  13.356
21862W        W90256  25.106   1.259   4.554
21863W        W90257   5.784   2.049  10.193
21864W        W90258  36.424  11.662  13.460
21865W        W90259  19.784   3.523  13.089
21866W        W90260  17.044  12.916   0.427
21867W        W90261  24.203  27.429   2.762
21868W        W90262   5.628   9.798  11.097
21869W        W90263  39.775  31.935   1.772
21870W        W90264  38.616  32.662   2.156
21871W        W90265   3.245  44.256  12.379
21872W        W90266  27.267  13.549  11.545
21873W        W90267  35.331  30.673   4.463
21874W        W90268   6.900  19.617  14.384
21875W        W90269  11.470  28.209   2.691
21876W        W90270  27.130   1.732  13.058
21877W        W90271  42.251  10.596   4.219
21878W        W90272   8.352  31.152   1.200
21879W        W90273  35.014  40.111  13.916
21880W        W90274   5.685  10.984  14.348
21881W        W90275  32.179  21.645  14.650
21882W        W90276   4.225  31.886   1.541
21883W        W90277  39.490   0.293   4.136
21884W        W90278   5.830  34.730   2.712
21885W        W90279  33.026  28.492  14.340
21886W        W90280   3.845  38.057  10.732
21887W        W90281   3.896  32.650   3.670
21888W        W90282  42.040  38.273   0.346
21889W        W90283  39.433   0.550   2.742
21890W        W90284  33.922  33.204   1.774
21891W        W90285  15.503   0.253   4.565
21892W        W90286  22.477   3.911  11.589
21893W        W90287  16.705  29.911  10.742
21894W        W90288  14.104  16.551  13.008
21895W        W90289  25.846  18.634  12.510
21896W        W90290  36.983  19.233  12.160
21897W        W90291  18.748  43.027  11.525
21898W        W90292   9.745  28.687  14.135
21899W        W90293  32.904  15.503  14.989
21900W        W90294  18.189   7.582  13.814
21901W        W90295  16.709   9.672  14.054
21902W        W90296  28.161  24.709  10.141
21903W        W90297  28.968   7.187  14.548
21904W        W90298  43.802   8.175   2.035
21905W        W90299  36.481  23.066   1.432
21906W        W90300  13.403  15.844   4.125
21907W        W90301  41.339   5.758  13.918
21908W        W90302  37.586  29.208  12.567
21909W        W90303  42.409  31.970   2.327
21910W        W90304   0.977  22.053   4.758
21911W        W90305  21.589  28.522  13.193
21912W        W90306  44.326  24.612   4.255
21913W        W90307  37.473   2.732   3.679
21914W        W90308   0.514   4.348  11.408
21915W        W90309   0.432  11.933   1.165
21916W        W90310  26.010  28.707  12.501
21917W        W90311  29.737  32.947  13.589
21918W        W90312   1.510  30.379   4.546
21919W        W90313  21.482  22.531   3.575
21920W        W90314  11.795  15.635  12.469
21921W        W90315  30.735  16.684   4.121
21922W        W90316  24.387   4.787   1.467
21923W        W90317   5.764   8.761  12.416
21924W        W90318  42.451  16.080  11.136
21925W        W90319  41.083  44.781  12.529
21926W        W90320  10.489  19.551   1.520
21927W        W90321   8.687  37.305   1.449
21928W        W90322  30.976  41.512  13.799
21929W        W90323  13.757  44.088  12.642
21930W        W90324  34.246   2.830   2.888
21931W        W90325  11.701  10.165  10.247
21932W        W90326   4.716   8.410   2.802
21933W        W90327  42.403  19.306  14.671
21934W        W90328  36.432   1.762   2.391
21935W        W90329  43.565  19.213  14.549
21936W        W90330  12.639   5.149   1.456
21937W        W90331  44.814  16.683  12.809
21938W        W90332  27.968  21.474   4.468
21939W        W90333   9.944  16.117  13.666
21940W        W90334   0.875  31.590  14.496
21941W        W90335  11.177  14.108  11.934
21942W        W90336  24.067  43.114  14.214
21943W        W90337  18.356  40.916  11.166
21944W        W90338  38.974  25.612   0.986
21945W        W90339  42.887   5.216   0.490
21946W        W90340  29.200  42.533  14.577
21947W        W90341  25.744  16.807   4.846
21948W        W90342   3.615  32.661   2.872
21949W        W90343  21.331  10.667  14.390
21950W        W90344  33.107  44.224   2.356
21951W        W90345  12.588  41.512  10.754
21952W        W90346  43.971  18.080   4.053
21953W        W90347  11.236  38.394   0.748
21954W        W90348  22.170  26.978  10.877
21955W        W90349  37.809  10.610   1.732
21956W        W90350  25.126  16.709   4.178
21957W        W90351  39.773   2.872   1.817
21958W        W90352  31.527   0.586  11.569
21959W        W90353  26.254  13.484  12.417
21960W        W90354  40.805  23.467   3.160
21961W        W90355  26.560   9.834  11.072
21962W        W90356  29.882  17.496   0.353
21963W        W90357  23.022  22.757  13.242
21964W        W90358  18.213  15.887   4.004
21965W        W90359   4.044  23.994  13.525
21966W        W90360  43.528  19.149   1.252
21967W        W90361   9.854  29.646   0.846
21968W        W90362   6.020  17.366   5.107
21969W        W90363   7.384  29.044  10.728
21970W        W90364  26.069  28.643   0.697
21971W        W90365   2.099  26.215   1.982
21972W        W90366  30.644  17.587  10.842
21973W        W90367  43.660  43.450  11.198
21974W        W90368   5.979  44.192  11.153
21975W        W90369  40.257   8.806   4.781
21976W        W90370  11.272  12.243  10.303
21977W        W90371   2.727   7.845   1.794
21978W        W90372  28.220  35.523   1.752
21979W        W90373  34.871  38.398  12.336
21980W        W90374  36.761  44.562   1.324
21981W        W90375   4.689  22.458  11.330
21982W        W90376  31.404   4.830  14.867
21983W        W90377  32.663   4.643   1.835
21984W        W90378  37.049  44.945  14.875
21985W        W90379  10.170  37.092  13.860
21986W        W90380  37.121  44.995   2.280
21987W        W90381  23.780  29.315   3.383
21988W        W90382   0.479  13.540   3.119
21989W        W90383   9.175   7.832  11.980
21990W        W90384  22.960  37.042  14.862
21991W        W90385  32.159  35.378  14.802
21992W        W90386  28.624  39.841   4.336
21993W        W90387  13.317  26.148   0.981
21994W        W90388  23.122  14.740   4.278
21995W        W90389  15.175  37.148   3.238
21996W        W90390   5.841   3.707   1.782
21997W        W90391  12.580  10.258   1.769
21998W        W90392  16.129  21.452  11.028
21999W        W90393  16.691   3.492  13.442
22000W        W90394  35.991  36.431   2.867
22001W        W90395  36.651  35.982   3.544
22002W        W90396   0.032  44.251   4.431
22003W        W90397  44.343  12.089  13.985
22004W        W90398  21.562  37.932  13.380
22005W        W90399   7.401  24.480  14.861
22006W        W90400  16.591  32.107  11.973
22007W        W90401  40.014   3.008  11.542
22008W        W90402  33.574   2.776  11.518
22009W        W90403   2.440  15.731  13.114
22010W        W90404  37.899  40.478  11.666
22011W        W90405  21.772  41.501   3.267
22012W        W90406  36.587  26.608  11.123
22013W        W90407  40.857   4.728  13.604
22014W        W90408  33.108  29.092   0.989
22015W        W90409  35.306   4.161   1.494
22016W        W90410  24.199   4.326  13.959
22017W        W90411  14.126  26.583   4.226
22018W        W90412   5.948  41.864   3.240
22019W        W90413  42.419  33.137   4.063
22020W        W90414   2.808  12.334   0.992
22021W        W90415  10.027  15.351   3.405
22022W        W90416  44.579  43.467  10.266
22023W        W90417  39.962  20.625   2.325
22024W        W90418  43.898  22.671   1.973
22025W        W90419  32.384  17.147  13.789
22026W        W90420  42.331   6.513   0.331
22027W        W90421   1.832  28.662   2.901
22028W        W90422   7.861   6.001   1.372
22029W        W90423  31.869   6.938  12.894
22030W        W90424  30.885  39.553  14.808
22031W        W90425  31.651  37.841   1.315
22032W        W90426  16.867  24.572   1.360
22033W        W90427  24.640  37.161   3.864
22034W        W90428  37.271  38.467  13.892
22035W        W90429  13.271   7.557  13.725
22036W        W90430  33.932  29.322   0.411
22037W        W90431  20.031  35.637   4.073
22038W        W90432  16.159  17.713   5.349
22039W        W90433   2.453  27.482  11.899
22040W        W90434  40.075   3.218   5.067
22041W        W90435  16.195  23.433   2.881
22042W        W90436  42.691   0.037  11.595
22043W        W90437  33.294   8.658  14.470
22044W        W90438   6.175  34.945  11.938
22045W        W90439  33.997  38.174   3.088
22046W        W90440  38.376  21.515   3.920
22047W        W90441  16.250   0.642   0.245
22048W        W90442   6.157   3.026  11.477
22049W        W90443  16.900  16.740   1.344
22050W        W90444  43.866  19.242  12.060
22051W        W90445  15.015   1.688   1.871
22052W        W90446   9.658   1.430  11.958
22053W        W90447  42.307  10.783   1.295
22054W        W90448  30.459  12.151   4.120
22055W        W90449  40.545  27.830  13.386
22056W        W90450   7.679   0.698  13.730
22057W        W90451  17.834  37.620   3.660
22058W        W90452  12.690  29.493   4.428
22059W        W90453  32.632  31.580   2.821
22060W        W90454  35.880  22.870  14.554
22061W        W90455   9.202  23.215   2.316
22062W        W90456   4.097  12.143   9.839
22063W        W90457   0.929  36.367   9.991
22064W        W90458  27.557  34.861   4.209
22065W        W90459  31.658   6.115  10.577
22066W        W90460  18.168  25.295   1.263
22067W        W90461  29.589  10.627   0.758
22068W        W90462  20.066  16.158  13.993
22069W        W90463  23.558  41.558  11.103
22070W        W90464  37.266  26.038   3.601
22071W        W90465  39.373   6.996   4.494
22072W        W90466  15.933  11.760  14.033
22073W        W90467  14.696   3.021  14.741
22074W        W90468  42.946  16.125   0.374
22075W        W90469  34.048   9.189   2.730
22076W        W90470  12.768  17.221   4.950
22077W        W90471   2.916  36.652   2.801
22078W        W90472  40.879  37.637   2.266
22079W        W90473  38.415   6.784  14.080
22080W        W90474   3.498  44.207   0.859
22081W        W90475  18.148   6.584  11.864
22082W        W90476  16.839  41.864  10.863
22083W        W90477   6.419  16.536  14.362
22084W        W90478  43.553   8.649   2.085
22085W        W90479  44.491   0.897   4.474
22086W        W90480  18.377   5.267   1.430
22087W        W90481  30.419  25.323  14.835
22088W        W90482  40.398   9.685  13.067
22089W        W90483  32.572  37.814   2.124
22090W        W90484  41.416  37.556  11.087
22091W        W90485  13.629   0.860  11.839
22092W        W90486  32.212   4.122   4.334
22093W        W90487  20.411  14.710   0.467
22094W        W90488   2.781   9.156   3.416
22095W        W90489  40.931   9.557  12.898
22096W        W90490  36.351   7.635  12.973
22097W        W90491  34.549  23.771  10.735
22098W        W90492  39.284  30.571   4.730
22099W        W90493  39.640  40.919  11.933
22100W        W90494  17.639  12.108  13.331
22101W        W90495  39.073  18.961  13.319
22102W        W90496  38.830  18.079  11.692
22103W        W90497   8.218   1.997   1.741
22104W        W90498  40.251   0.676  12.859
22105W        W90499  41.224  35.937  10.630
22106W        W90500   9.379  40.447   1.320
22107W        W90501  16.017  17.794   4.505
22108W        W90502  14.956  18.773  11.552
22109W        W90503  10.823  18.653  13.740
22110W        W90504  35.440  17.391   3.282
22111W        W90505  27.931  13.906  10.787
22112W        W90506  20.034  16.619  11.010
22113W        W90507  18.572  22.199  12.873
22114W        W90508  12.094   0.314   2.745
22115W        W90509  23.096  31.220   0.224
22116W        W90510  42.833   1.754  10.881
22117W        W90511   7.843   7.403   4.617
22118W        W90512   9.651  38.985   3.257
22119W        W90513  24.667  43.455  10.740
22120W        W90514  22.550  37.701   3.513
22121W        W90515  41.427   9.382   4.582
22122W        W90516  39.419   5.367   0.953
22123W        W90517  25.143  23.506   2.144
22124W        W90518  44.058  18.679  14.738
22125W        W90519  18.637  24.446  10.223
22126W        W90520   8.298  24.743  12.177
22127W        W90521   1.245  18.958  11.649
22128W        W90522   8.217  37.813   3.074
22129W        W90523  24.221  34.998  13.054
22130W        W90524   9.167  32.845  14.662
22131W        W90525  18.959   6.622   1.923
22132W        W90526  19.269   1.222  10.681
22133W        W90527  38.084  19.822   4.693
22134W        W90528  27.843   6.647   4.667
22135W        W90529  36.313  31.619  12.948
22136W        W90530   0.795  29.151   1.937
22137W        W90531  31.130  27.927   2.942
22138W        W90532   1.852  42.695  13.841
22139W        W90533  29.443   7.626   4.092
22140W        W90534   5.259  28.305  11.044
22141W        W90535  42.466  44.093   0.945
22142W        W90536  14.540  39.950   3.300
22143W        W90537  41.540  23.263   0.443
22144W        W90538  42.997   4.809  11.552
22145W        W90539  19.251  29.030   5.132
22146W        W90540  31.112  21.715   2.888
22147W        W90541   5.343  28.995  13.828
22148W        W90542  20.038  25.992   5.053
22149W        W90543  13.715  39.586  10.446
22150W        W90544  18.925  42.420  13.590
22151W        W90545   3.179  24.716  14.400
22152W        W90546  44.104  32.037  13.031
22153W        W90547   6.210  21.489   0.583
22154W        W90548  22.595  38.697  10.321
22155W        W90549  30.032  39.761  14.529
22156W        W90550   5.669  16.268  11.395
22157W        W90551  16.825  10.834  11.946
22158W        W90552  37.435  27.608   3.736
22159W        W90553   7.470  34.987  12.528
22160W        W90554  23.108  31.597   1.951
22161W        W90555  40.548  25.791   3.839
22162W        W90556  27.659  10.421   3.662
22163W        W90557  31.091  28.919  12.447
22164W        W90558  38.124  27.424   0.379
22165W        W90559  24.068  24.445   3.392
22166W        W90560   0.540  38.466   5.102
22167W        W90561  18.993  17.763   2.293
22168W        W90562  10.394   5.288  13.425
22169W        W90563  38.961  22.001   4.693
22170W        W90564  17.936  25.243   3.663
22171W        W90565  41.027  12.270   2.845
22172W        W90566   9.090  15.392  14.888
22173W        W90567  41.299  37.854  11.956
22174W        W90568  36.897   9.669  14.442
22175W        W90569   3.025  28.814   1.549
22176W        W90570  13.173   6.434   3.646
22177W        W90571  39.863  38.388   2.617
22178W        W90572  16.722  24.289   1.772
22179W        W90573  25.211  30.383   2.623
22180W        W90574  43.974  36.881  13.933
22181W        W90575  31.921  13.823  11.133
22182W        W90576  41.990  35.130   2.278
22183W        W90577  32.065  30.539   4.602
22184W        W90578  16.710   6.831   3.807
22185W        W90579  11.241  25.774   1.463
22186W        W90580  31.820  35.052   4.333
22187W        W90581   1.702  11.234  10.681
22188W        W90582   5.436  15.077   1.280
22189W        W90583   4.286   7.309   3.605
22190W        W90584  28.789  25.298  11.625
22191W        W90585  26.179  39.792  12.217
22192W        W90586   0.291  36.240   1.351
22193W        W90587  39.870  32.309   1.437
22194W        W90588  26.185  30.120  13.385
22195W        W90589   7.363  18.885  13.841
22196W        W90590  39.464  22.713  11.966
22197W        W90591  27.603  29.896  13.422
22198W        W90592   3.461   0.158  14.995
22199W        W90593  32.606  37.830  12.868
22200W        W90594  35.210  10.694   0.718
22201W        W90595  17.533  41.961  10.212
22202W        W90596   8.320  38.468  14.913
22203W        W90597  44.272  29.258   0.435
22204W        W90598   7.720  31.029   1.838
22205W        W90599  19.484  21.654   1.289
22206W        W90600  11.731  14.832  11.967
22207W        W90601  16.392   3.538  13.872
22208W        W90602   9.609  34.670   4.113
22209W        W90603   9.675  37.862   4.635
22210W        W90604  20.055  11.663  13.220
22211W        W90605  21.560  15.718  12.485
22212W        W90606  23.529  44.887   0.375
22213W        W90607  34.644  24.550  14.920
22214W        W90608  43.037   1.142   3.348
22215W        W90609  28.878  23.645  14.880
22216W        W90610  17.504  22.661   1.842
22217W        W90611  43.999  26.962   1.821
22218W        W90612  15.399  18.643  10.094
22219W        W90613  43.503  41.927  11.933
22220W        W90614  23.486  34.904   1.328
22221W        W90615   4.210  39.564  13.175
22222W        W90616   3.748  37.351   1.309
22223W        W90617  31.927   5.919   1.986
22224W        W90618   4.962  10.354   2.843
22225W        W90619  30.366  20.055   1.482
22226W        W90620  20.088   4.647  11.037
22227W        W90621  20.924  34.306  12.840
22228W        W90622  44.078  35.255  14.626
22229W        W90623  16.843  26.990  10.286
22230W        W90624  37.032  22.154  14.142
22231W        W90625  36.029   6.704  13.670
22232W        W90626  25.414  31.085  12.290
22233W        W90627  23.146  32.888  10.372
22234W        W90628  40.981  24.153   3.293
22235W        W90629  37.265   9.211  12.044
22236W        W90630  40.851   2.268   1.935
22237W        W90631  30.038  13.378   3.694
22238W        W90632  38.580  39.961   0.454
22239W        W90633   8.337   3.755   0.839
22240W        W90634  26.509  25.034  11.574
22241W        W90635  38.775  19.661  12.510
22242W        W90636  12.761  31.856  13.922
22243W        W90637  37.858  30.571   0.903
22244W        W90638  35.617   8.909   0.203
22245W        W90639  44.005  15.824   0.978
22246W        W90640  34.498  25.671   3.617
22247W        W90641  20.543  11.898   4.144
22248W        W90642  41.299   2.483   0.301
22249W        W90643  31.640   8.463  10.773
22250W        W90644  18.394   3.740   4.693
22251W        W90645   2.341  19.732   0.553
22252W        W90646  15.328  16.514  14.765
22253W        W90647  29.831  15.062  11.165
22254W        W90648  26.729  15.922   2.222
22255W        W90649  38.411  32.112   3.705
22256W        W90650  22.638  33.829  11.240
22257W        W90651  28.897  27.643  14.484
22258W        W90652  26.601  10.814  11.112
22259W        W90653   2.924  22.751   0.857
22260W        W90654  14.125  40.278  14.509
22261W        W90655  29.454  31.563  14.874
22262W        W90656   9.739   2.362   3.457
22263W        W90657   0.835   6.392  10.612
22264W        W90658  17.132  16.525   0.859
22265W        W90659   6.810  14.786  13.229
22266W        W90660  24.815  36.703  10.730
22267W        W90661  24.170  39.799   0.808
22268W        W90662  36.486   0.790   2.404
22269W        W90663  41.567   0.527  13.880
22270W        W90664  24.233  42.823  12.819
22271W        W90665  16.240  40.802  14.859
22272W        W90666   7.214   0.487  14.424
22273W        W90667  10.737   2.991  13.965
22274W        W90668  31.144  13.175   0.385
22275W        W90669  39.399   3.465   4.276
22276W        W90670  19.382  16.237   4.121
22277W        W90671  24.990  35.986   1.467
22278W        W90672  35.939  21.690  13.100
22279W        W90673  18.761  40.362   0.340
22280W        W90674   2.456  11.256   3.092
22281W        W90675  14.884   0.234  12.066
22282W        W90676  29.763   4.809   4.180
22283W        W90677  13.607  33.851  11.957
22284W        W90678  24.046  21.084   3.394
22285W        W90679  22.591   4.792  11.197
22286W        W90680  36.935  23.942  11.058
22287W        W90681  44.917  33.236   4.910
22288W        W90682   6.265  29.737   2.250
22289W        W90683  11.393  31.679  14.930
22290W        W90684  17.500  40.971   3.209
22291W        W90685  44.187  28.055  14.355
22292W        W90686   3.002  44.957   0.103
22293W        W90687  13.160  30.944  13.650
22294W        W90688  21.613   9.724   2.929
22295W        W90689  23.676  14.968  14.520
22296W        W90690   8.660   5.788  11.189
22297W        W90691  42.365  25.390  12.035
22298W        W90692  13.247   8.339   2.291
22299W        W90693   9.849  27.597   1.272
22300W        W90694  26.657  21.862  10.768
22301W        W90695  44.931   4.795   1.358
22302W        W90696  19.145  42.560   2.809
22303W        W90697   6.422  20.346   1.849
22304W        W90698  23.179   3.968   3.202
22305W        W90699  19.339   4.445  13.032
22306W        W90700  21.690  44.825   4.619
22307W        W90701  41.132  24.659  12.013
22308W        W90702  34.571  20.221  11.769
22309W        W90703  37.410  25.031   0.787
22310W        W90704  37.215  11.249  14.242
22311W        W90705  32.749   2.693   0.560
22312W        W90706  24.969  17.195   4.182
22313W        W90707   2.779  28.044   2.104
22314W        W90708  11.658  16.725  14.787
22315W        W90709  21.887  13.832   0.701
22316W        W90710  34.086  36.039   3.650
22317W        W90711  15.152   7.729  10.698
22318W        W90712   8.650   3.918   2.690
22319W        W90713  31.880   1.338  12.674
22320W        W90714  22.020  41.308   3.694
22321W        W90715   4.821   3.039   3.265
22322W        W90716   0.222  21.013  14.972
22323W        W90717   4.696  32.245   5.274
22324W        W90718   8.442  10.740  14.771
22325W        W90719   0.176  25.622   0.210
22326W        W90720  15.336  26.749  10.695
22327W        W90721  28.836  36.042  11.469
22328W        W90722   5.800  32.782   4.376
22329W        W90723  44.333   5.932   4.085
22330W        W90724  23.923   3.378  13.580
22331W        W90725   4.943  12.784   2.419
22332W        W90726  27.666  16.035   2.615
22333W        W90727  23.658  44.987  14.525
22334W        W90728   5.165   2.914  11.521
22335W        W90729  11.715  14.518  11.537
22336W        W90730  26.173  30.942  11.066
22337W        W90731  29.250  37.690   3.217
22338W        W90732  18.528  31.095   4.127
22339W        W90733  39.154  13.721  13.356
22340W        W90734   8.486  29.655  14.935
22341W        W90735  12.308   2.199   1.019
22342W        W90736  20.032  29.526   2.907
22343W        W90737  26.269  33.786   5.094
22344W        W90738  41.978  15.589  12.133
22345W        W90739   3.438  11.769   0.262
22346W        W90740  30.574   8.387  14.805
22347W        W90741  26.685  19.665  12.057
22348W        W90742  31.349  21.297   3.999
22349W        W90743  43.752  33.160  11.067
22350W        W90744  21.332   5.295   5.170
22351W        W90745   4.474  23.504   3.712
22352W        W90746  29.748   7.810   1.769
22353W        W90747  11.227  24.175   1.405
22354W        W90748  31.861   1.980   0.851
22355W        W90749   6.848  22.641  14.165
22356W        W90750   9.094  20.277  12.556
22357W        W90751  44.424  23.080   2.788
22358W        W90752  44.302  10.031  14.948
22359W        W90753  27.582  19.293  12.964
22360W        W90754  39.782   4.386  14.447
22361W        W90755  23.623  30.101  13.072
22362W        W90756  34.908  35.596   2.097
22363W        W90757  44.495  30.915  10.705
22364W        W90758  31.630  20.311   1.421
22365W        W90759  27.673  33.069   1.778
22366W        W90760  36.083  13.630  14.359
22367W        W90761  34.395  27.713   4.668
22368W        W90762  12.234  14.835  14.465
22369W        W90763   7.189   9.385  14.978
22370W        W90764  44.921   0.193   4.619
22371W        W90765  35.413  23.502   0.237
22372W        W90766   0.466  34.150   1.741
22373W        W90767  25.478  40.175  13.369
22374W        W90768  27.895  43.650  11.180
22375W        W90769  37.487  23.474  12.404
22376W        W90770  24.955  42.053   2.905
22377W        W90771   5.957   1.309   5.472
22378W        W90772   2.486   2.750  11.596
22379W        W90773  26.586   2.642  10.361
22380W        W90774  38.431  14.723  12.160
22381W        W90775  43.377  11.124   2.561
22382W        W90776  26.179   8.223  12.908
22383W        W90777  12.159  18.811  13.864
22384W        W90778  20.902  12.638   2.686
22385W        W90779  10.711  44.957  12.852
22386W        W90780  35.117  44.863   3.275
22387W        W90781   4.669  25.455   1.860
22388W        W90782   5.420  21.820   1.262
22389W        W90783   6.368   5.073  14.939
22390W        W90784  39.741  18.793   0.343
22391W        W90785  25.464  44.077  13.315
22392W        W90786  37.916  23.187   1.205
22393W        W90787   0.444  39.344   0.415
22394W        W90788  34.367   7.564   3.732
22395W        W90789  24.688  38.112  14.492
22396W        W90790  28.652   4.509   4.631
22397W        W90791  43.961   4.797  14.865
22398W        W90792  33.926   3.014  10.774
22399W        W90793  29.998  10.828   4.630
22400W        W90794  23.818  25.736   1.882
22401W        W90795  12.899   8.570  10.284
22402W        W90796  33.373  38.363   3.776
22403W        W90797  21.137   4.997  11.929
22404W        W90798  39.636  39.262  13.025
22405W        W90799  39.390  36.029   1.339
22406W        W90800  14.260  39.447  14.947
22407W        W90801   1.566  30.512   3.710
22408W        W90802   3.874   4.882  12.879
22409W        W90803  36.852  44.126  14.406
22410W        W90804  15.781  36.537  14.501
22411W        W90805  21.449   4.568   2.173
22412W        W90806   7.147  35.949   2.321
22413W        W90807   3.520  34.998   0.757
22414W        W90808  32.020  14.696   5.372
22415W        W90809  15.209  25.039   2.380
22416W        W90810  13.877  24.684   2.793
22417W        W90811  40.442  44.579  11.965
22418W        W90812  10.353  41.816  13.975
22419W        W90813  33.415  43.880   3.780
22420W        W90814  13.802  35.576   4.535
22421W        W90815   4.479   9.820  11.958
22422W        W90816  37.672  26.666  11.013
22423W        W90817  22.967  15.091   2.373
22424W        W90818  15.076  17.631   0.907
22425W        W90819  33.092  29.488   2.645
22426W        W90820  19.811  44.042  11.347
22427W        W90821  33.158   8.740   0.444
22428W        W90822  30.007   3.247   0.442
22429W        W90823  40.735  10.571  12.864
22430W        W90824  41.677   1.900   1.884
22431W        W90825  14.802  16.642   1.489
22432W        W90826  15.083  10.134   0.810
22433W        W90827  15.701  18.833   4.891
22434W        W90828  40.401   8.707   3.179
22435W        W90829  28.029  35.409  13.319
22436W        W90830  30.521   9.312   1.144
22437W        W90831  31.120   2.185  10.650
22438W        W90832  26.932  35.862   2.085
22439W        W90833  30.988  23.986  14.967
22440W        W90834   2.854  22.592   4.627
22441W        W90835   3.134   3.446  12.988
22442W        W90836  23.516   4.883  11.633
22443W        W90837   4.844  24.158   2.755
22444W        W90838  22.036  25.097  11.545
22445W        W90839  33.882  10.807   4.192
22446W        W90840  38.724  18.997  10.798
22447W        W90841  20.003  21.709   3.670
22448W        W90842  21.676  12.409  12.107
22449W        W90843  18.792  29.176   0.993
22450W        W90844   1.942  44.481   0.756
22451W        W90845  43.474  12.983   2.868
22452W        W90846  24.064  36.398   0.786
22453W        W90847  25.529  33.894  13.986
22454W        W90848  20.316   9.456   3.260
22455W        W90849  42.502  33.116  12.618
22456W        W90850  36.624  21.454  13.794
22457W        W90851  25.609  17.816  13.133
22458W        W90852  18.018  43.821  10.614
22459W        W90853  39.654  25.101  10.676
22460W        W90854   2.332  23.280  11.656
22461W        W90855  40.325   6.724   3.274
22462W        W90856   1.259  41.206   1.184
22463W        W90857  13.777  16.809  10.554
22464W        W90858  32.093   5.359  14.885
22465W        W90859   6.477   0.067  12.081
22466W        W90860  20.066  26.041  14.609
22467W        W90861  42.950  20.673  11.090
22468W        W90862   8.708  28.871   4.152
22469W        W90863  28.843  25.494   1.456
22470W        W90864  16.075  32.361   3.248
22471W        W90865  24.422   6.630   2.737
22472W        W90866  37.200   5.744  13.993
22473W        W90867  28.214  12.140   0.493
22474W        W90868   1.263   5.163   1.747
22475W        W90869   0.779  29.210   0.896
22476W        W90870  38.369  25.229   1.383
22477W        W90871   0.534   2.853   2.816
22478W        W90872  21.228   0.461  11.176
22479W        W90873  16.015   3.888   4.852
22480W        W90874  44.839  19.287  11.054
22481W        W90875  27.815  44.337   0.497
22482W        W90876  16.177  27.986   3.543
22483W        W90877  31.750  44.970   0.241
22484W        W90878  37.089   0.332   4.005
22485W        W90879  27.394  17.674  12.561
22486W        W90880  38.834  27.978  10.911
22487W        W90881  34.615  33.563  11.363
22488W        W90882  37.761   4.276   2.270
22489W        W90883  32.428  30.391   0.763
22490W        W90884  12.799  24.204  12.775
22491W        W90885  29.108  19.594   3.090
22492W        W90886   7.682   4.882  14.582
22493W        W90887  18.470   7.196  10.642
22494W        W90888  19.601   2.224  13.411
22495W        W90889  33.677   1.336   2.686
22496W        W90890   1.947   9.231  10.454
22497W        W90891   0.927   7.132  14.788
22498W        W90892  21.367  41.019  14.811
22499W        W90893  34.510  32.068   1.927
22500W        W90894  35.009   7.337  14.958
22501W        W90895   5.645   9.306  13.877
22502W        W90896  20.195  29.133  14.332
22503W        W90897  13.373  16.051   2.246
22504W        W90898  25.558  35.055   0.430
22505W        W90899  29.528  22.135   0.400
22506W        W90900   2.286  41.913  14.244
22507W        W90901  16.683  43.279   1.641
22508W        W90902   9.549   4.383   0.998
22509W        W90903   0.017  15.364   3.455
22510W        W90904  41.201  34.862  14.047
22511W        W90905   7.813  13.801  14.315
22512W        W90906  12.414  42.979   1.126
22513W        W90907  40.906  44.053   2.393
22514W        W90908  20.185  37.453   0.377
22515W        W90909  44.837  25.262   0.369
22516W        W90910   7.842  25.531   1.350
22517W        W90911  34.104  32.385   3.081
22518W        W90912  41.363   2.995  11.844
22519W        W90913   0.740  21.041   4.579
22520W        W90914  29.150  33.215   4.666
22521W        W90915   9.257  19.102   3.312
22522W        W90916   6.714  25.711  14.300
22523W        W90917   3.662   6.502  11.558
22524W        W90918  44.216  15.510   1.389
22525W        W90919  44.994  31.494   0.304
22526W        W90920  24.492  43.103   4.204
22527W        W90921  10.253  25.903   4.105
22528W        W90922  34.850   6.250   2.756
22529W        W90923   3.393  16.266   3.154
22530W        W90924  28.172  36.965   0.416
22531W        W90925  10.337  31.443  12.822
22532W        W90926   3.758  29.380   3.031
22533W        W90927  31.100  39.103  14.967
22534W        W90928  26.369   3.259  10.757
22535W        W90929  20.581  31.537  11.619
22536W        W90930  40.592  11.648   0.968
22537W        W90931  14.689  15.219   2.963
22538W        W90932  14.874  27.072  10.786
22539W        W90933  42.623  16.623   3.281
22540W        W90934  12.635   8.349   2.306
22541W        W90935   9.602   3.574   5.094
22542W        W90936  33.405   2.428   0.483
22543W        W90937  38.009   9.631  14.869
22544W        W90938  30.503  40.797   2.868
22545W        W90939  40.136  17.319   1.324
22546W        W90940  35.133   6.383  11.777
22547W        W90941   7.693  44.444   2.166
22548W        W90942   5.934  29.310   0.512
22549W        W90943  33.393   5.578  12.892
22550W        W90944  34.754   2.830   2.716
22551W        W90945  25.612  31.990   1.696
22552W        W90946  21.793  19.250  13.811
22553W        W90947  31.733  17.577   1.768
22554W        W90948  33.053  21.473  14.556
22555W        W90949   0.740  41.022  11.103
22556W        W90950  19.631  36.592  11.679
22557W        W90951  39.271  17.015  14.358
22558W        W90952  13.353  11.390   1.247
22559W        W90953  24.135   4.217  11.083
22560W        W90954  35.946  11.241   0.443
22561W        W90955  42.838  17.722  12.180
22562W        W90956  11.620   9.316   2.343
22563W        W90957  10.467   4.486  13.087
22564W        W90958  16.535  18.006   2.671
22565W        W90959  24.194   8.348   2.683
22566W        W90960  20.231  30.979  11.148
22567W        W90961  36.826   0.106   0.320
22568W        W90962  27.543  30.721   1.639
22569W        W90963   3.939  39.258   0.223
22570W        W90964  43.466  35.481   3.230
22571W        W90965  41.320  30.935   2.459
22572W        W90966  11.924   7.967   2.684
22573W        W90967  18.551  31.828  11.349
22574W        W90968  11.772  33.616   4.987
22575W        W90969   8.581   7.182   2.840
22576W        W90970   9.006  38.759   2.794
22577W        W90971   9.274  31.099   3.755
22578W        W90972   4.174  30.216  14.909
22579W        W90973   6.685  15.082   9.934
22580W        W90974  19.966  41.447   2.891
22581W        W90975  23.732  12.212   3.857
22582W        W90976  41.003  27.696   0.380
22583W        W90977  12.668  18.101  12.836
22584W        W90978  33.938  18.149   2.824
22585W        W90979  14.716  39.278  11.868
22586W        W90980   6.688  10.618   4.144
22587W        W90981  43.117  25.031   4.348
22588W        W90982   5.487  11.851   3.786
22589W        W90983  25.177  39.053   1.777
22590W        W90984   5.856   4.443  11.724
22591W        W90985  18.267  20.273  11.574
22592W        W90986  35.681  19.598   0.774
22593W        W90987  40.358  16.879  14.283
22594W        W90988  36.084  36.233   4.319
22595W        W90989  25.960  13.555   3.947
22596W        W90990  44.951  42.769   4.571
22597W        W90991   3.116   7.131  11.452
22598W        W90992  29.928  14.820  14.935
22599W        W90993   9.744  39.279   0.287
22600W        W90994  24.764  24.056  14.430
22601W        W90995  25.674   8.703   1.270
22602W        W90996  34.966  32.436  12.971
22603W        W90997   9.715  37.865   4.102
22604W        W90998  41.880  13.851   0.778
22605W        W90999  14.048  44.962  11.571
22606W        W91000  32.502  39.362  10.468
22607W        W91001   4.396  39.467   0.049
22608W        W91002  30.155  35.448   1.126
22609W        W91003  13.599  28.948  14.735
22610W        W91004  40.294  28.777   4.568
22611W        W91005  20.591   2.916  11.058
22612W        W91006  27.474   4.309  10.811
22613W        W91007  41.332  15.003   4.136
22614W        W91008  40.770  30.716  12.060
22615W        W91009  20.110  26.001   1.382
22616W        W91010  17.747   1.082  13.369
22617W        W91011  35.213  32.538   0.714
22618W        W91012  36.955  42.743   1.700
22619W        W91013  25.674   9.164  12.140
22620W        W91014  41.884  10.421   3.032
22621W        W91015  32.929  37.522   1.622
22622W        W91016  12.088   4.366  10.667
22623W        W91017  22.192   7.840   3.584
22624W        W91018  39.896   2.105   3.493
22625W        W91019  38.260   4.939  13.864
22626W        W91020  31.873  24.755  11.541
22627W        W91021   5.208  36.488   3.831
22628W        W91022  10.255  10.177   4.025
22629W        W91023  10.800  32.079   4.970
22630W        W91024  36.495  37.375   0.147
22631W        W91025   2.060  14.540  14.047
22632W        W91026   7.378  21.311   2.409
22633W        W91027  31.593  34.493  13.843
22634W        W91028  28.159  36.844  11.675
22635W        W91029  32.706  44.298   3.959
22636W        W91030  27.118  27.145  11.833
22637W        W91031  32.574   8.021  11.553
22638W        W91032  35.066  24.254   3.189
22639W        W91033  24.199  26.035   3.893
22640W        W91034  42.850  24.744  11.571
22641W        W91035  22.579  25.753   4.104
22642W        W91036  28.030  37.588  12.563
22643W        W91037  43.309   0.058   2.637
22644W        W91038  36.841  37.523  13.904
22645W        W91039  34.312  40.409   1.855
22646W        W91040  23.052  10.770  12.215
22647W        W91041  32.914  26.293  10.587
22648W        W91042   9.397   2.107  12.375
22649W        W91043  32.913  12.796  11.620
22650W        W91044  12.734  27.011  11.112
22651W        W91045  31.918  43.879  13.545
22652W        W91046  37.685  28.891   2.150
22653W        W91047  29.927  38.900  13.947
22654W        W91048  28.054  33.808  13.385
22655W        W91049  42.589  21.547  14.326
22656W        W91050   2.371  41.447  11.528
22657W        W91051  35.988   5.186  10.721
22658W        W91052   8.274  31.951  12.102
22659W        W91053  16.077  24.943   2.823
22660W        W91054  10.212  15.758   3.719
22661W        W91055  37.580  26.639   4.546
22662W        W91056   8.495  10.653   0.913
22663W        W91057  41.516   3.823  14.251
22664W        W91058  19.514   2.513   0.733
22665W        W91059  27.088   2.052  10.049
22666W        W91060  27.258  34.310  11.878
22667W        W91061  35.874   9.820  14.259
22668W        W91062  35.122  22.972  12.162
22669W        W91063  44.340  38.762   3.647
22670W        W91064   2.271  14.916  11.027
22671W        W91065  33.815   0.785  13.950
22672W        W91066  34.455  30.383   4.182
22673W        W91067  38.855  21.078  11.560
22674W        W91068   5.347   5.247   2.672
22675W        W91069  35.605  22.918   2.684
22676W        W91070  19.097   7.258  14.504
22677W        W91071  38.140  36.116  12.487
22678W        W91072  37.058   2.336  10.862
22679W        W91073   0.026  38.076   3.852
22680W        W91074  34.836  38.870   0.390
22681W        W91075  24.957  11.089  14.755
22682W        W91076  30.132   7.751   4.579
22683W        W91077  33.910  12.339  10.964
22684W        W91078  42.092  43.453   0.427
22685W        W91079  20.663  37.258   1.281
22686W        W91080  39.022  31.958  14.224
22687W        W91081  14.552  15.413  10.667
22688W        W91082  34.793  34.331  12.214
22689W        W91083   3.912  32.389  13.508
22690W        W91084  44.944  30.228  13.839
22691W        W91085  14.687  25.603   1.948
22692W        W91086   2.299  28.520   4.201
22693W        W91087  22.696  32.661  13.779
22694W        W91088  22.249   3.487  14.902
22695W        W91089  30.125  29.261   5.029
22696W        W91090   1.226  28.648   3.682
22697W        W91091   6.838  29.618   0.039
22698W        W91092   5.391  22.947  11.634
22699W        W91093  20.305  31.090   0.970
22700W        W91094  42.461  31.906   4.665
22701W        W91095  40.394   2.729   3.047
22702W        W91096  17.732  23.034  13.141
22703W        W91097  18.559  23.260  11.109
22704W        W91098  31.839  39.012  10.581
22705W        W91099  22.708  33.098  11.950
22706W        W91100  31.641   7.623   3.843
22707W        W91101   3.806   4.289  11.535
22708W        W91102  15.328  21.712   4.502
22709W        W91103  29.957   9.193   4.079
22710W        W91104   8.453  40.892   0.752
22711W        W91105  33.499  25.211   1.354
22712W        W91106  28.857  34.359  13.773
22713W        W91107  27.130  36.086   2.907
22714W        W91108   6.385  15.400  12.048
22715W        W91109  41.977  36.672  12.102
22716W        W91110   8.834  31.515   0.377
22717W        W91111  23.179  31.587   5.082
22718W        W91112  18.618   7.309   3.405
22719W        W91113  23.522  35.312  10.623
22720W        W91114  38.261  14.226   1.269
22721W        W91115  44.002  31.638   2.738
22722W        W91116  39.340  39.490   2.221
22723W        W91117  19.669  17.942  11.617
22724W        W91118   2.574  22.634  12.044
22725W        W91119  28.475  40.335  11.966
22726W        W91120  18.953  20.098  14.475
22727W        W91121  16.218  35.632  13.856
22728W        W91122  30.981  39.589  13.277
22729W        W91123  29.012  17.595  14.375
22730W        W91124  16.166  38.862  11.690
22731W        W91125   9.696  44.969  11.827
22732W        W91126  36.665  12.044   0.614
22733W        W91127  29.093  12.591  10.895
22734W        W91128  14.264  27.697   3.050
22735W        W91129  10.116  26.124  13.102
22736W        W91130  22.454  11.409   4.055
22737W        W91131  20.434  34.842  11.526
22738W        W91132  24.181  41.500  14.778
22739W        W91133   2.564  24.681  12.115
22740W        W91134  42.483  44.834  13.882
22741W        W91135  11.734  11.556  10.935
22742W        W91136  43.011  44.931   0.973
22743W        W91137  37.453  19.017  12.400
22744W        W91138  17.916  27.871  10.171
22745W        W91139   4.920  38.060  13.925
22746W        W91140  29.360   9.751  11.852
22747W        W91141  11.130  33.315   4.557
22748W        W91142   8.647   4.735  13.055
22749W        W91143  21.549  44.207   0.286
22750W        W91144  25.809   9.453  13.437
22751W        W91145  12.050   9.134   2.149
22752W        W91146  11.626  14.009  11.707
22753W        W91147   1.983  20.725  12.818
22754W        W91148  20.362  24.257   0.535
22755W        W91149  12.279   3.797  11.115
22756W        W91150   2.378  32.724   3.759
22757W        W91151  32.054   3.274   4.217
22758W        W91152  27.517  23.719   2.755
22759W        W91153   1.077   1.762  11.533
22760W        W91154  33.608  39.299  13.605
22761W        W91155  35.421  44.454   0.458
22762W        W91156  32.748  40.920  13.813
22763W        W91157  41.797  30.142   2.582
22764W        W91158  10.179  44.438  10.335
22765W        W91159  37.516   5.469   3.189
22766W        W91160   1.186   0.831  10.675
22767W        W91161  33.030  26.752  11.442
22768W        W91162   4.741  24.698  14.471
22769W        W91163  24.626   2.900  13.937
22770W        W91164   6.429  42.460   0.631
22771W        W91165  16.888  23.222  13.746
22772W        W91166  17.058   7.467  14.294
22773W        W91167  41.189  43.260  11.537
22774W        W91168  28.201  21.485  14.938
22775W        W91169  23.214  11.729  12.525
22776W        W91170  34.997   3.059   4.958
22777W        W91171   5.322  20.689  14.968
22778W        W91172   1.774  38.903  12.490
22779W        W91173   3.418  37.988   3.891
22780W        W91174  35.012  41.800   0.787
22781W        W91175  26.478  37.839  11.611
22782W        W91176  19.640  12.409   3.762
22783W        W91177   2.338  42.228   1.143
22784W        W91178  41.266  28.038   1.490
22785W        W91179  32.490  27.028   1.754
22786W        W91180   5.400  39.877  13.622
22787W        W91181  27.533  24.505   1.196
22788W        W91182  22.024  17.288  10.556
22789W        W91183  44.780   8.761  13.938
22790W        W91184  36.828  35.553   0.736
22791W        W91185   3.448  17.606  13.447
22792W        W91186  32.342  24.473   1.725
22793W        W91187  39.095  23.040   4.701
22794W        W91188   1.469  44.070  14.869
22795W        W91189  30.478  44.434   4.904
22796W        W91190  38.895  36.395   2.776
22797W        W91191  25.356   6.300   1.431
22798W        W91192   8.403   2.553   0.306
22799W        W91193   1.912  31.840  12.117
22800W        W91194  27.410  12.251  12.914
22801W        W91195  26.900   5.096   1.130
22802W        W91196  37.892  14.051  11.112
22803W        W91197   4.788  37.121  13.877
22804W        W91198  24.240   9.971   1.801
22805W        W91199  42.980   9.778   2.755
22806W        W91200  11.240  22.031   0.971
22807W        W91201  35.385  13.320   2.764
22808W        W91202   8.926   8.501  14.451
22809W        W91203   4.168  19.288   3.470
22810W        W91204  28.166  34.986  11.072
22811W        W91205  40.332  20.086   3.356
22812W        W91206  20.479  13.400   1.149
22813W        W91207  10.227  26.910   1.236
22814W        W91208  44.829   7.846   1.889
22815W        W91209   1.368  19.071   1.693
22816W        W91210  41.287  10.912  13.103
22817W        W91211  27.094  27.139   0.256
22818W        W91212   8.615  35.119   4.237
22819W        W91213  41.201  30.109  14.353
22820W        W91214   6.889   6.771  10.376
22821W        W91215  28.028   8.870  10.675
22822W        W91216  42.969  25.209   1.329
22823W        W91217  23.350  32.886  14.152
22824W        W91218  29.064   3.194   3.846
22825W        W91219  17.203  32.589  12.068
22826W        W91220  30.737  27.413   3.688
22827W        W91221  14.522  19.009   2.283
22828W        W91222  36.022  42.594  11.139
22829W        W91223  23.687   8.549   4.905
22830W        W91224  35.930  19.958   4.069
22831W        W91225   2.658  14.924   3.272
22832W        W91226   8.758  15.534  14.337
22833W        W91227  31.504  44.521   0.292
22834W        W91228  12.887   8.746  11.156
22835W        W91229  26.202  20.065  12.895
22836W        W91230  29.356   9.018  12.365
22837W        W91231  13.215  32.146   4.125
22838W        W91232  25.373   0.629  12.460
22839W        W91233   1.007  22.217   0.295
22840W        W91234  11.419  29.969   0.361
22841W        W91235  14.749  12.415  11.994
22842W        W91236  11.423  13.846   2.757
22843W        W91237  41.973   0.479  14.883
22844W        W91238  25.742   0.921   1.522
22845W        W91239  30.687  44.929  11.559
22846W        W91240   1.439   2.006  13.429
22847W        W91241  14.600   7.865  13.826
22848W        W91242  22.819  25.594   1.818
22849W        W91243  25.913  34.591  11.981
22850W        W91244  43.410  22.285  10.698
22851W        W91245  40.767  24.210   1.933
22852W        W91246  16.562  21.127   2.815
22853W        W91247  44.889  43.252   4.735
22854W        W91248  32.923  30.375  11.552
22855W        W91249  40.397  26.693  12.363
22856W        W91250  15.208   6.250   4.050
22857W        W91251  18.908  28.638  10.721
22858W        W91252  38.550   9.649  14.926
22859W        W91253  27.152  43.794   0.270
22860W        W91254  30.038  19.133   1.688
22861W        W91255  40.664  25.760   3.343
22862W        W91256   0.659  12.275   1.684
22863W        W91257  42.156  19.608   4.211
22864W        W91258  38.358  23.831   1.902
22865W        W91259  40.947   1.730   0.400
22866W        W91260  20.657  30.106   1.564
22867W        W91261   3.220  13.869   0.015
22868W        W91262  24.880   5.458  14.903
22869W        W91263   1.390   1.748   1.014
22870W        W91264  11.070  33.345  12.154
22871W        W91265  35.092  35.075  13.307
22872W        W91266   9.306  30.482   0.929
22873W        W91267  39.517  33.446  12.984
22874W        W91268   9.479  23.316  10.267
22875W        W91269  15.667   7.259  13.398
22876W        W91270  11.159  42.870   0.492
22877W        W91271  35.996  10.309  11.518
22878W        W91272  44.213  42.829   2.851
22879W        W91273  35.641  36.107  14.992
22880W        W91274  19.300  36.456  12.068
22881W        W91275  23.468  36.991  10.823
22882W        W91276   3.900  31.572  14.723
22883W        W91277  24.017  14.594   2.275
22884W        W91278  20.345  41.819   2.785
22885W        W91279  17.961  36.816   0.298
22886W        W91280  38.882  44.212   4.609
22887W        W91281  26.251   7.690  14.042
22888W        W91282   3.401  44.686  14.800
22889W        W91283   4.811  41.363  10.725
22890W        W91284  11.366  40.106   2.604
22891W        W91285  32.890  32.407  14.738
22892W        W91286  16.821  28.429   3.665
22893W        W91287  35.848   5.413   0.066
22894W        W91288  17.423  24.501   4.499
22895W        W91289  24.028  30.695  13.803
22896W        W91290  35.170  19.777   0.773
22897W        W91291   4.363  36.611   0.503
22898W        W91292  41.732  13.827  11.332
22899W        W91293  41.588  38.774  13.442
22900W        W91294  28.804   0.876   1.215
22901W        W91295   2.541  11.847   3.841
22902W        W91296  40.020  42.332   4.873
22903W        W91297   4.768  11.829   2.676
22904W        W91298  36.808   8.622  14.163
22905W        W91299  19.088  14.618   3.720
22906W        W91300   7.398   5.683  10.661
22907W        W91301  11.109   3.748  12.859
22908W        W91302  32.379  36.387   0.467
22909W        W91303  44.559   0.974   3.200
22910W        W91304  17.718  18.975   3.667
22911W        W91305  28.599  20.713   1.390
22912W        W91306  37.760  19.490   2.218
22913W        W91307  29.287  39.920  10.733
22914W        W91308  31.929   6.926   1.925
22915W        W91309  23.106  39.849  11.964
22916W        W91310  37.629  11.458   3.576
22917W        W91311  14.569  26.642   3.375
22918W        W91312  25.691  20.015   2.260
22919W        W91313  29.661  29.460   1.653
22920W        W91314  18.191  21.309  14.991
22921W        W91315   0.142  35.382   5.303
22922W        W91316  15.209   0.972  13.923
22923W        W91317  44.930  30.419   4.560
22924W        W91318  40.352  34.499  14.551
22925W        W91319   2.899   6.371  11.907
22926W        W91320  14.192   2.273   2.807
22927W        W91321  24.061  32.592   3.586
22928W        W91322  18.088  21.245   4.560
22929W        W91323   1.308  36.408  11.003
22930W        W91324  35.377   3.401   4.975
22931W        W91325  37.258   3.935  14.029
22932W        W91326   0.228  25.747   0.694
22933W        W91327  10.214  19.699   0.739
22934W        W91328   7.648  40.636  14.820
22935W        W91329  38.897   2.491  13.869
22936W        W91330  18.032  39.038  12.575
22937W        W91331   5.896  23.379  13.825
22938W        W91332  25.941  36.158  13.342
22939W        W91333   2.762   1.455  12.474
22940W        W91334  21.161  43.109  13.892
22941W        W91335  16.487  26.809   3.247
22942W        W91336   1.887  16.284   3.323
22943W        W91337  36.107   6.008   3.226
22944W        W91338  20.135  40.646  12.500
22945W        W91339  32.539  43.288  10.997
22946W        W91340   6.406  19.754  13.346
22947W        W91341  18.633   5.246   3.883
22948W        W91342  27.183  10.132   1.877
22949W        W91343   7.714  36.158  14.845
22950W        W91344   5.434  30.607   3.220
22951W        W91345   6.406  20.560  11.948
22952W        W91346  18.796  32.540  11.571
22953W        W91347  35.108  12.364  13.237
22954W        W91348  36.575  30.940   1.036
22955W        W91349   3.802  30.027   0.808
22956W        W91350  36.617  29.009   3.582
22957W        W91351  16.721  22.118   0.742
22958W        W91352  40.096  14.753   1.104
22959W        W91353  10.590  42.578  10.402
22960W        W91354   3.714  19.385   2.254
22961W        W91355  28.002  28.676   2.354
22962W        W91356  23.915  27.370  11.951
22963W        W91357  31.520  26.117   3.308
22964W        W91358  38.950   7.224  13.018
22965W        W91359  30.888  15.798  10.813
22966W        W91360  19.602  42.607   4.572
22967W        W91361   9.265  44.841   2.314
22968W        W91362  36.006  33.587  11.989
22969W        W91363  31.471   8.171   1.392
22970W        W91364  16.133  25.148   3.296
22971W        W91365  11.594  22.769  10.789
22972W        W91366  12.282  34.487  14.739
22973W        W91367  39.802   9.595  12.453
22974W        W91368  26.171  25.105  10.603
22975W        W91369   3.999   2.864   1.801
22976W        W91370  33.272  38.937  13.859
22977W        W91371  40.385  39.979   3.083
22978W        W91372  43.284   1.345  13.320
22979W        W91373  33.917  15.239  14.762
22980W        W91374  41.060  38.807  12.567
22981W        W91375  15.669   3.904   4.120
22982W        W91376  15.595  41.073   5.036
22983W        W91377  37.419  30.999   1.484
22984W        W91378   8.083   6.320   5.109
22985W        W91379  31.879  44.534   2.443
22986W        W91380   0.413  39.778   3.637
22987W        W91381  30.074  24.025   0.903
22988W        W91382  24.448  22.545   2.246
22989W        W91383  25.969  40.201  10.362
22990W        W91384  43.499  12.400   3.576
22991W        W91385  28.918   5.878   2.787
22992W        W91386  41.683   5.345  13.002
22993W        W91387  31.958  36.316   4.489
22994W        W91388  37.204  18.005   3.438
22995W        W91389  22.184  31.601  13.766
22996W        W91390  30.621  41.385  13.024
22997W        W91391  43.489   1.552   3.730
22998W        W91392   9.613  11.199   0.417
22999W        W91393   3.914  28.969   2.028
23000W        W91394  35.305  18.813   1.725
23001W        W91395  28.384  20.160   1.456
23002W        W91396   0.762  31.911   3.272
23003W        W91397  17.252  25.181  12.680
23004W        W91398   2.070  37.195  14.292
23005W        W91399  38.209  31.847  13.708
23006W        W91400  18.138  44.092  11.040
23007W        W91401  25.939  14.594  14.485
23008W        W91402  22.210  18.461  10.201
23009W        W91403   4.969   7.836  14.379
23010W        W91404  34.964  31.160  11.963
23011W        W91405  21.633  14.192  13.516
23012W        W91406  34.007  29.898  10.899
23013W        W91407  39.427  21.086  12.207
23014W        W91408   5.946  33.888  14.385
23015W        W91409  15.263  34.081  12.459
23016W        W91410  14.249  28.556  10.530
23017W        W91411  41.373   4.146  14.995
23018W        W91412  34.971  29.455   3.100
23019W        W91413  39.570  21.608  10.763
23020W        W91414  34.249  39.287  12.979
23021W        W91415  14.118   0.310  12.254
23022W        W91416  34.426  20.305  10.833
23023W        W91417   9.830   0.742   3.728
23024W        W91418  25.151   7.826   4.065
23025W        W91419  15.892   5.405  10.777
23026W        W91420  30.760   9.304   1.989
23027W        W91421  28.059  17.057  10.892
23028W        W91422  42.280   1.694   1.899
23029W        W91423  11.092  22.143  10.751
23030W        W91424  40.002  12.484  12.096
23031W        W91425   1.979  16.368  14.270
23032W        W91426  28.723   9.202   2.107
23033W        W91427  16.653   0.721  10.773
23034W        W91428  21.504  30.095  14.584
23035W        W91429  28.072  10.477   2.247
23036W        W91430  12.226  18.319  12.655
23037W        W91431  36.879   3.734  10.627
23038W        W91432   0.780  42.714   4.989
23039W        W91433  27.383  15.089   2.273
23040W        W91434   4.015  16.221  11.939
23041W        W91435  25.480   7.798   1.250
23042W        W91436  16.016  26.695   3.048
23043W        W91437   9.126  11.284  14.576
23044W        W91438  25.698  32.899  12.263
23045W        W91439  26.142  22.135   4.638
23046W        W91440  15.092  35.831   3.734
23047W        W91441  44.807  13.081  11.953
23048W        W91442   9.506  42.986   4.555
23049W        W91443  38.620  34.865  13.615
23050W        W91444   7.800   1.290   1.959
23051W        W91445   8.457  44.052   0.834
23052W        W91446  27.526  32.350   4.548
23053W        W91447   1.236  26.625   3.705
23054W        W91448   7.656   8.088   2.305
23055W        W91449   8.877  16.808   1.264
23056W        W91450  24.464  40.449   1.223
23057W        W91451  25.786  16.190   1.013
23058W        W91452  43.770   3.282   1.681
23059W        W91453  24.230  34.844  14.850
23060W        W91454  23.076   4.120  14.258
23061W        W91455  32.085  44.999   0.663
23062W        W91456  30.738  29.728  14.068
23063W        W91457   4.738  29.418   1.871
23064W        W91458   3.820  32.580  11.160
23065W        W91459  13.905   8.855  11.228
23066W        W91460  37.318   3.466   1.337
23067W        W91461  10.281  10.647   1.374
23068W        W91462  22.724  20.213  11.467
23069W        W91463  40.218  35.338   1.478
23070W        W91464  43.739  42.502   2.250
23071W        W91465   8.236   7.207   0.983
23072W        W91466  17.348  44.879  13.535
23073W        W91467  20.520  32.055   2.357
23074W        W91468  43.152  19.290  11.510
23075W        W91469  23.144  28.123   2.332
23076W        W91470   1.082   4.889  13.461
23077W        W91471  14.107  31.134  12.927
23078W        W91472  18.987  36.058  11.966
23079W        W91473   6.435  27.579  14.313
23080W        W91474  35.784  29.164  11.899
23081W        W91475  22.143   6.416  11.651
23082W        W91476  40.528  26.617   1.720
23083W        W91477   6.449  24.510  11.464
23084W        W91478   7.979  25.055   0.185
23085W        W91479  25.524  23.213   3.668
23086W        W91480  10.586  23.778   4.592
23087W        W91481   2.224  42.915   3.401
23088W        W91482  29.803  13.091  11.089
23089W        W91483   5.998   8.223  14.796
23090W        W91484  32.115  33.520   0.018
23091W        W91485  32.855   7.912  11.132
23092W        W91486  24.832   3.269   1.403
23093W        W91487  20.647  22.786   2.766
23094W        W91488  29.457  37.525   0.435
23095W        W91489  41.057  40.860   2.054
23096W        W91490  15.229  30.470  11.536
23097W        W91491  40.546  13.085  13.053
23098W        W91492   6.151  34.408  12.532
23099W        W91493  18.579  17.252   3.638
23100W        W91494  38.390   1.185   4.448
23101W        W91495  31.659  12.737   4.966
23102W        W91496  34.017   8.900  13.008
23103W        W91497  18.715  41.471   2.205
23104W        W91498  11.754  31.788   5.173
23105W        W91499   7.949  40.928   0.655
23106W        W91500  37.405   4.036   4.098
23107W        W91501  43.846   7.185  14.913
23108W        W91502  25.133   5.475   4.047
23109W        W91503  41.051  17.309   2.819
23110W        W91504  18.351  25.530   3.049
23111W        W91505  14.870  26.980  13.424
23112W        W91506  36.604  20.488  13.804
23113W        W91507  38.480   6.724   2.621
23114W        W91508  16.580  23.620  13.845
23115W        W91509  17.812  42.436   1.803
23116W        W91510   8.312  10.356  13.808
23117W        W91511  11.692   0.880  10.607
23118W        W91512  36.087   2.405   2.798
23119W        W91513  28.380   8.380  13.937
23120W        W91514  20.223   6.087   4.287
23121W        W91515   4.387  17.593  10.723
23122W        W91516  16.805  30.509   2.317
23123W        W91517  20.621  10.383  13.466
23124W        W91518  44.348  35.427   0.215
23125W        W91519   2.729  37.803  14.790
23126W        W91520  29.477   1.501   1.867
23127W        W91521   6.848  41.277  14.942
23128W        W91522  40.375  10.601  12.156
23129W        W91523  15.684  36.067  13.265
23130W        W91524  15.227  43.474  14.709
23131W        W91525  12.736  27.258   2.817
23132W        W91526  12.384  32.541  11.175
23133W        W91527  27.255   1.412   1.057
23134W        W91528  25.960   1.296   1.254
23135W        W91529   3.929  42.006  13.117
23136W        W91530  13.929  20.570   1.795
23137W        W91531  22.377  23.505  10.809
23138W        W91532  33.104  19.639  11.158
23139W        W91533  28.660   3.693  14.060
23140W        W91534  16.602   9.294   2.809
23141W        W91535  15.640  43.830   4.925
23142W        W91536   8.759  43.199  14.010
23143W        W91537  10.070  35.189   0.043
23144W        W91538  28.870  11.279  14.874
23145W        W91539  40.433  15.895   2.634
23146W        W91540   0.289  15.651  13.326
23147W        W91541  40.885   8.687   4.095
23148W        W91542  29.348  12.815   1.665
23149W        W91543  38.629  15.587  13.877
23150W        W91544  24.080  25.151   4.094
23151W        W91545  18.893  18.120   1.862
23152W        W91546  13.988  18.898  12.073
23153W        W91547   9.298   7.766   1.698
23154W        W91548  37.849  37.769   4.239
23155W        W91549  13.096   2.700   2.243
23156W        W91550  32.147  12.280  12.573
23157W        W91551  27.197  26.148   3.257
23158W        W91552  27.191  35.531   0.028
23159W        W91553   5.792   9.015  13.458
23160W        W91554   9.832  19.662   9.898
23161W        W91555  15.132  22.174  13.437
23162W        W91556  30.242   3.362   1.355
23163W        W91557  33.852  42.653   4.945
23164W        W91558  25.126   4.834   1.970
23165W        W91559  16.197  29.420  14.897
23166W        W91560  10.805  12.845  11.878
23167W        W91561   0.783  28.145   1.220
23168W        W91562  19.714  29.726   1.409
23169W        W91563  13.472  42.006  10.702
23170W        W91564  37.686  44.332  10.361
23171W        W91565  16.114   7.288  14.503
23172W        W91566  44.577   2.748   0.495
23173W        W91567  12.849  11.227   4.182
23174W        W91568  21.927  31.235  12.565
23175W        W91569   5.031  22.770   3.764
23176W        W91570  41.787   5.671   0.429
23177W        W91571   0.413   7.287  14.745
23178W        W91572  31.544  41.299   3.613
23179W        W91573   9.721  30.265   3.303
23180W        W91574  25.072  15.654   2.713
23181W        W91575  38.946  31.077   4.139
23182W        W91576  44.702  29.945   4.578
23183W        W91577  26.559  31.927  12.971
23184W        W91578   6.951   5.329  13.757
23185W        W91579  43.969   8.769   3.848
23186W        W91580   5.731  23.876   2.853
23187W        W91581  12.294  13.665  13.897
23188W        W91582  41.305  24.159   1.507
23189W        W91583  31.149  35.669  13.984
23190W        W91584   6.086   8.201   2.256
23191W        W91585  31.012   7.462  12.984
23192W        W91586  17.501  36.800   1.840
23193W        W91587  41.305   9.932  11.156
23194W        W91588   0.997  25.342  11.672
23195W        W91589   6.822  22.068  13.407
23196W        W91590  19.803  14.852   2.673
23197W        W91591   9.571   2.940  13.606
23198W        W91592   3.435   7.926   2.521
23199W        W91593  36.390   7.781   0.275
23200W        W91594  13.989  35.624  11.252
23201W        W91595  20.607  36.871  12.560
23202W        W91596  22.706  24.531  14.258
23203W        W91597  23.764  26.571  14.000
23204W        W91598   0.963  13.852  13.538
23205W        W91599  21.486   3.877  11.563
23206W        W91600  37.937  43.527  13.571
23207W        W91601  31.066   6.160  13.813
23208W        W91602  42.099  39.926   2.134
23209W        W91603   0.801  35.844  14.862
23210W        W91604  22.448  44.714  12.962
23211W        W91605  11.776  39.290   3.696
23212W        W91606   7.388  10.129  14.313
23213W        W91607  36.168  18.662   3.741
23214W        W91608  42.216  20.178  13.622
23215W        W91609   5.121  35.963   1.323
23216W        W91610  33.787  41.544  14.602
23217W        W91611  28.657  41.676  12.363
23218W        W91612   8.416  10.636  13.337
23219W        W91613   3.493  28.038  11.120
23220W        W91614  39.923  10.884  12.844
23221W        W91615  27.422  33.106  13.132
23222W        W91616   3.941  13.824   3.721
23223W        W91617  26.678  28.844  12.551
23224W        W91618  17.115  19.541   4.923
23225W        W91619  11.596  11.734  12.435
23226W        W91620  43.982  39.901  12.635
23227W        W91621  17.936  25.678   0.844
23228W        W91622  20.111  34.370   2.877
23229W        W91623   6.102  39.288  14.296
23230W        W91624   6.800  35.532   4.605
23231W        W91625  30.347  37.594   4.644
23232W        W91626  18.244   9.116  13.924
23233W        W91627  12.588  12.894   1.589
23234W        W91628  14.170  36.402   1.160
23235W        W91629  24.740  19.425   2.817
23236W        W91630  44.003  34.130   4.959
23237W        W91631   4.608  24.606   2.827
23238W        W91632  35.903  36.705   0.380
23239W        W91633   1.449  35.002   0.441
23240W        W91634  21.157  41.947   0.442
23241W        W91635  16.011  28.331   4.460
23242W        W91636  12.069  30.691   3.672
23243W        W91637  42.458  34.337   9.738
23244W        W91638  38.702  13.600   2.877
23245W        W91639  14.755  36.527   0.426
23246W        W91640   5.975   6.135  12.516
23247W        W91641   3.423  39.938  13.970
23248W        W91642  34.996  38.499   0.026
23249W        W91643  24.563  17.639  11.840
23250W        W91644  13.732   3.116  12.445
23251W        W91645  15.764   1.696  14.193
23252W        W91646  17.646  18.551   0.147
23253W        W91647  15.220  44.867   3.741
23254W        W91648  39.423  32.221   3.836
23255W        W91649  13.828   8.393   3.283
23256W        W91650  42.405  39.745   1.643
23257W        W91651  38.895  10.959   4.045
23258W        W91652  19.965  44.289  12.521
23259W        W91653  21.349  39.878  10.465
23260W        W91654  13.171  20.776   1.277
23261W        W91655  36.976   1.348   1.769
23262W        W91656   6.305  15.159   4.991
23263W        W91657  44.368  32.097  10.326
23264W        W91658  36.141  11.385   2.234
23265W        W91659  41.442  15.831  10.342
23266W        W91660  18.627  39.018   0.053
23267W        W91661  21.958  42.426  13.129
23268W        W91662  44.805  15.609   0.513
23269W        W91663  28.175  21.206  10.164
23270W        W91664   6.163  42.086  14.212
23271W        W91665  14.677  16.552  13.061
23272W        W91666  31.814  26.125  13.756
23273W        W91667  44.982  40.067   4.014
23274W        W91668  33.906  23.527  10.612
23275W        W91669   4.293  23.509   4.773
23276W        W91670  18.538  43.886  10.645
23277W        W91671   3.497   1.240   0.971
23278W        W91672  27.128   4.878  10.700
23279W        W91673  34.571  16.995  10.751
23280W        W91674  29.016   2.423  12.819
23281W        W91675  10.441  31.159  10.983
23282W        W91676   9.338  28.685  14.458
23283W        W91677  41.346   7.782   0.201
23284W        W91678   2.850  23.955  10.633
23285W        W91679   0.667  29.112  11.625
23286W        W91680  24.497   8.861  12.651
23287W        W91681   1.968  12.117  10.694
23288W        W91682  39.945  13.688  13.977
23289W        W91683  27.158   1.311   0.535
23290W        W91684  27.689  16.716   4.110
23291W        W91685  26.799  13.929  11.634
23292W        W91686  41.442  27.433  10.496
23293W        W91687  40.316  37.267   0.684
23294W        W91688  29.840   3.743  12.240
23295W        W91689  41.639  13.768  13.395
23296W        W91690  42.505  25.482   1.397
23297W        W91691   0.506  22.308   1.356
23298W        W91692  24.147  39.558   2.866
23299W        W91693  29.668  17.596   1.387
23300W        W91694  24.551   5.871  14.935
23301W        W91695  22.756  37.911   4.529
23302W        W91696  34.833  36.558   3.110
23303W        W91697  32.352  29.083  12.785
23304W        W91698   1.843  25.487  12.884
23305W        W91699  24.680  33.144   4.163
23306W        W91700  40.793  38.039  12.985
23307W        W91701   1.260  13.250  13.445
23308W        W91702  27.411  42.269  13.974
23309W        W91703  23.227   6.342   1.222
23310W        W91704  10.274  42.537   1.736
23311W        W91705  16.226  25.939  13.910
23312W        W91706  43.092  17.176   2.326
23313W        W91707   6.849  35.424  13.496
23314W        W91708  23.018  40.261  12.910
23315W        W91709  32.261   2.159   3.810
23316W        W91710  26.934  11.074  12.485
23317W        W91711  28.683   4.314   2.151
23318W        W91712   3.513   0.283  10.809
23319W        W91713  25.022   4.734  13.299
23320W        W91714  14.329  30.473  11.693
23321W        W91715  29.792  21.083   2.858
23322W        W91716  39.139   7.342   4.202
23323W        W91717  43.618  12.805   1.266
23324W        W91718  35.409   4.203  14.009
23325W        W91719  38.736  14.204  12.465
23326W        W91720  42.422   2.337   4.046
23327W        W91721   5.320   5.838   3.189
23328W        W91722  24.725  17.200  12.111
23329W        W91723  37.865  44.863   1.796
23330W        W91724  11.639  44.925  10.427
23331W        W91725  21.515  16.889  14.919
23332W        W91726   0.418  23.945  12.204
23333W        W91727  31.417  20.105  10.720
23334W        W91728  11.154  23.653  13.466
23335W        W91729  36.573   1.294  11.591
23336W        W91730  40.641  13.729  13.445
23337W        W91731  22.584  32.651   0.777
23338W        W91732  24.370  39.805   9.987
23339W        W91733   6.773  22.119  12.347
23340W        W91734  13.157  17.951   4.792
23341W        W91735  17.161   3.151   4.094
23342W        W91736  15.572  15.816   2.754
23343W        W91737  44.825  16.198   1.722
23344W        W91738  42.421  12.662   3.803
23345W        W91739  38.574  18.631  12.528
23346W        W91740  23.380   8.613   3.195
23347W        W91741  24.588  26.063   4.222
23348W        W91742  12.104  27.231   3.411
23349W        W91743  39.781  30.954   2.648
23350W        W91744  31.140  24.051   1.322
23351W        W91745  21.942  34.629   4.070
23352W        W91746  33.784  12.086  13.525
23353W        W91747  16.070  19.136   2.209
23354W        W91748  32.918  33.855   0.969
23355W        W91749  19.083  12.836  14.980
23356W        W91750   7.496  26.373  12.782
23357W        W91751  31.239  28.965   2.470
23358W        W91752  39.376   9.155  13.830
23359W        W91753  15.447  37.844   5.038
23360W        W91754  11.257   6.680  14.471
23361W        W91755  22.522  13.210   4.119
23362W        W91756   9.246   2.684   3.749
23363W        W91757  32.912  27.518   2.381
23364W        W91758  15.410   4.346  11.611
23365W        W91759  23.114  22.509   4.427
23366W        W91760  35.370  44.352  13.460
23367W        W91761  27.042   4.120   3.191
23368W        W91762  28.524   8.890  11.936
23369W        W91763   4.659  31.536   2.282
23370W        W91764  25.050  16.759  14.551
23371W        W91765  27.697  10.647  14.414
23372W        W91766  15.552  42.253  12.135
23373W        W91767  38.412  36.389  10.462
23374W        W91768  21.952   2.874  14.858
23375W        W91769  36.940  27.521   3.719
23376W        W91770   2.939  26.156   0.392
23377W        W91771  16.813  23.489  12.437
23378W        W91772  22.045   6.018  11.964
23379W        W91773  34.059  24.625   0.939
23380W        W91774  22.654  19.129   4.632
23381W        W91775  26.476  22.748  14.319
23382W        W91776  14.741  18.227   2.421
23383W        W91777  24.999  14.879  11.674
23384W        W91778  28.018  27.865  13.136
23385W        W91779  43.227  24.256  14.429
23386W        W91780  43.965  43.460   1.472
23387W        W91781  23.104  14.351   0.243
23388W        W91782  16.779   2.912  12.061
23389W        W91783  29.704   7.579  13.313
23390W        W91784  26.798  36.050  11.584
23391W        W91785   9.903   8.953   0.376
23392W        W91786   2.206  15.419   4.935
23393W        W91787  34.136  21.189  14.801
23394W        W91788   9.255  32.718   0.185
23395W        W91789  35.947  20.997   4.161
23396W        W91790  12.728   5.961   5.079
23397W        W91791  33.814  27.429  10.636
23398W        W91792   6.236  18.775  13.827
23399W        W91793  30.093  24.099   3.814
23400W        W91794  43.797  18.302  14.486
23401W        W91795  23.131  44.483  11.019
23402W        W91796  44.022   6.780   3.887
23403W        W91797  20.565  28.974  11.984
23404W        W91798  13.068  13.812  11.105
23405W        W91799  39.316   0.249  11.830
23406W        W91800  32.894  38.134   3.308
23407W        W91801  28.118   9.419   4.901
23408W        W91802  28.706  26.605  12.448
23409W        W91803  23.587  30.975  10.783
23410W        W91804   3.806  39.467   3.627
23411W        W91805   3.313  42.320  12.034
23412W        W91806   1.052   5.826  13.858
23413W        W91807   4.787  30.626  11.613
23414W        W91808  37.613   7.147  13.195
23415W        W91809  23.703   5.603  12.541
23416W        W91810  21.272   6.979   0.966
23417W        W91811   4.406  44.215  14.128
23418W        W91812  23.696   0.994   3.695
23419W        W91813  10.243  15.809   0.398
23420W        W91814  22.878  34.415   3.294
23421W        W91815  37.065  14.154   4.909
23422W        W91816  10.322  40.285  14.053
23423W        W91817  32.002  39.539  12.097
23424W        W91818  39.458  43.559   2.324
23425W        W91819  24.652   9.275   1.959
23426W        W91820  10.529  12.939   4.559
23427W        W91821  43.919  39.936  11.095
23428W        W91822   8.641   5.944  13.728
23429W        W91823  34.062  28.562   3.386
23430W        W91824  21.123  24.114  14.514
23431W        W91825   6.544  22.979   1.834
23432W        W91826  20.134  34.414  10.193
23433W        W91827   4.948   1.295  14.488
23434W        W91828  23.931  21.191  11.616
23435W        W91829   8.844   3.804  14.903
23436W        W91830  42.600  44.483   4.105
23437W        W91831  11.726  40.311   2.152
23438W        W91832  16.948  41.348  11.995
23439W        W91833  19.378   9.597  13.607
23440W        W91834  33.329  20.726   0.722
23441W        W91835  17.677  24.568  10.540
23442W        W91836  24.359  13.308  10.445
23443W        W91837  12.769   0.273   0.924
23444W        W91838   8.896   9.643  12.140
23445W        W91839  20.563  21.163   1.267
23446W        W91840   3.732  10.672  13.324
23447W        W91841   4.649  11.575   3.176
23448W        W91842  21.952   7.872  13.550
23449W        W91843  25.055  39.050   4.546
23450W        W91844   8.176  18.659   1.132
23451W        W91845  15.757  35.446  13.956
23452W        W91846  21.048  19.486   4.161
23453W        W91847  11.361   8.135   2.802
23454W        W91848   1.409  13.723   1.435
23455W        W91849  17.469  31.867   3.465
23456W        W91850  39.334  30.538   1.806
23457W        W91851  33.105  18.860   0.238
23458W        W91852  35.329   0.673   1.055
23459W        W91853  30.879  12.102  12.129
23460W        W91854  11.280  24.681   1.239
23461W        W91855   8.229  33.965  13.980
23462W        W91856  15.362  33.003  14.938
23463W        W91857  24.548  39.625  13.284
23464W        W91858  20.051  33.534  12.195
23465W        W91859  11.688   4.378   0.275
23466W        W91860   9.377   9.685  12.957
23467W        W91861  41.175  21.498  14.492
23468W        W91862  19.035   0.952  12.220
23469W        W91863  28.108  37.220   2.747
23470W        W91864  21.364   2.717   2.296
23471W        W91865   5.929  14.324  12.584
23472W        W91866  23.355  31.725  13.408
23473W        W91867   7.236  10.789   2.986
23474W        W91868  27.968   7.876  11.935
23475W        W91869  25.200  31.132   1.361
23476W        W91870  43.244  35.712   3.617
23477W        W91871  43.019  11.783   1.192
23478W        W91872  42.340   0.289   2.472
23479W        W91873  25.947   8.952  12.613
23480W        W91874  40.562  38.515   0.268
23481W        W91875   0.053  31.907   4.112
23482W        W91876  22.502  43.996  12.049
23483W        W91877  32.267  22.042   2.215
23484W        W91878  23.449  21.097  12.862
23485W        W91879  22.922  28.876   1.761
23486W        W91880  10.404  20.285   3.634
23487W        W91881  29.491  34.059  12.413
23488W        W91882   2.219  26.017  12.035
23489W        W91883  14.667  44.856  11.310
23490W        W91884   2.203  16.816  11.935
23491W        W91885  27.700  23.611  13.441
23492W        W91886  43.325  30.988   1.479
23493W        W91887  10.921  17.685  12.857
23494W        W91888  31.269  14.600  11.134
23495W        W91889  19.755  25.547  13.413
23496W        W91890   1.938  10.618  14.471
23497W        W91891   6.895  33.118  10.698
23498W        W91892  19.699  10.878  14.986
23499W        W91893   8.306  12.292   2.414
23500W        W91894  15.633   1.462   0.477
23501W        W91895  14.560  39.406  10.665
23502W        W91896  38.773  30.766  14.378
23503W        W91897   2.551  31.156   1.310
23504W        W91898  15.831  29.467   3.339
23505W        W91899   5.670  13.246   3.722
23506W        W91900  12.232  21.117  14.931
23507W        W91901  25.629  39.385   3.272
23508W        W91902  35.180  28.189   0.304
23509W        W91903  31.927  18.153  12.777
23510W        W91904   6.905  14.502   4.550
23511W        W91905  35.957  33.968   0.171
23512W        W91906  21.633  12.235  11.630
23513W        W91907   3.526   0.886  12.311
23514W        W91908   8.201  31.414  14.338
23515W        W91909  26.084  14.217   0.672
23516W        W91910   0.750  33.540  11.433
23517W        W91911  30.617  37.110   3.380
23518W        W91912  32.598   7.868   2.807
23519W        W91913  17.138  35.162  13.631
23520W        W91914   5.766  39.894   4.544
23521W        W91915  29.060  20.766   3.876
23522W        W91916  19.180   3.512   3.764
23523W        W91917  22.754  14.139   4.831
23524W        W91918   7.343  24.920  11.204
23525W        W91919   4.948  44.513   5.215
23526W        W91920  20.483  38.282   0.917
23527W        W91921  19.774  31.699  11.213
23528W        W91922  40.288  37.514   3.400
23529W        W91923  26.917  38.198  13.043
23530W        W91924  25.420  40.597   1.993
23531W        W91925  26.957  42.834  12.156
23532W        W91926  28.524  24.472   3.317
23533W        W91927  26.720  37.798  12.460
23534W        W91928   9.322  31.986   1.645
23535W        W91929  40.823   6.809   0.232
23536W        W91930  11.650  42.086  14.010
23537W        W91931   1.812  26.000   2.791
23538W        W91932  35.866   2.901   1.863
23539W        W91933  29.629  40.230   5.040
23540W        W91934  17.521  29.658   0.472
23541W        W91935  15.864   1.297   0.963
23542W        W91936   8.217  22.622   0.094
23543W        W91937  10.373  35.729   5.389
23544W        W91938  29.155  21.640   2.896
23545W        W91939  15.047  27.748  14.758
23546W        W91940  17.281   7.902  11.201
23547W        W91941  26.712  11.269   0.247
23548W        W91942   0.943  35.503   0.736
23549W        W91943  30.575   8.921  11.110
23550W        W91944   1.465  35.144   3.277
23551W        W91945  43.858   4.281   3.878
23552W        W91946  19.156   9.258  11.433
23553W        W91947  43.940  14.130   0.557
23554W        W91948  29.715   5.262   2.797
23555W        W91949   0.522  43.907  12.115
23556W        W91950   6.640   0.274  12.712
23557W        W91951   4.699  19.299   0.426
23558W        W91952  30.532  17.799   4.629
23559W        W91953  13.568  22.725   3.232
23560W        W91954   4.583  18.753   3.295
23561W        W91955  22.162   4.801  10.918
23562W        W91956   1.837  17.612  12.112
23563W        W91957  21.018  10.360   9.995
23564W        W91958   4.485  26.467  13.863
23565W        W91959  41.275  41.518  14.582
23566W        W91960  22.164  26.964   2.435
23567W        W91961   3.440  24.924  11.295
23568W        W91962  33.332  16.008  11.443
23569W        W91963   4.084  26.965   1.158
23570W        W91964  22.011  42.789  10.886
23571W        W91965  19.201  13.063   0.961
23572W        W91966  29.518  28.404  14.711
23573W        W91967  35.055   2.647  10.730
23574W        W91968  23.886  38.896   3.241
23575W        W91969  20.580  37.931  10.587
23576W        W91970  20.078  25.705  13.775
23577W        W91971  37.884  29.702   0.854
23578W        W91972  24.968  12.759   3.743
23579W        W91973  19.676  33.565  13.127
23580W        W91974  37.445  26.389  11.993
23581W        W91975  41.308   4.533   1.893
23582W        W91976  13.685  14.188  13.015
23583W        W91977  11.187  43.570  11.581
23584W        W91978  43.139  43.889   1.742
23585W        W91979  18.181  38.757  13.556
23586W        W91980   6.607  25.009  13.537
23587W        W91981   1.693  35.892  13.871
23588W        W91982  25.690  41.454   1.971
23589W        W91983   8.351   3.209  12.409
23590W        W91984  31.479   7.064   3.312
23591W        W91985   4.515  20.369  11.157
23592W        W91986   8.287   0.519   3.463
23593W        W91987   0.750  14.584   0.692
23594W        W91988   1.327   1.781  10.796
23595W        W91989   1.907  18.825   0.393
23596W        W91990  18.707  40.290  13.441
23597W        W91991   8.960  10.164   2.118
23598W        W91992  34.992  10.592  11.734
23599W        W91993  15.921  15.021   3.149
23600W        W91994  34.466  35.547  13.953
23601W        W91995  16.199  27.925   0.692
23602W        W91996  15.134  22.578   1.654
23603W        W91997  26.293  34.645   1.347
23604W        W91998  18.017   6.774  13.128
23605W        W91999  41.044  14.451   3.289
23606W        W92000  12.678  23.617  13.980
23607W        W92001  43.940   0.268  13.854
23608W        W92002  15.864   9.039   4.633
23609W        W92003   1.874  29.551  11.072
23610W        W92004  31.319  34.535  14.682
23611W        W92005  20.049  23.456   0.367
23612W        W92006  42.038  42.575   0.846
23613W        W92007   2.733  43.154   2.594
23614W        W92008   6.201  23.260  14.500
23615W        W92009  43.756  33.474   0.476
23616W        W92010   8.043  29.819  11.625
23617W        W92011  22.774  30.592  10.905
23618W        W92012  24.801   9.308  13.419
23619W        W92013   8.716   2.824   2.139
23620W        W92014   0.301   1.273  14.725
23621W        W92015  42.101  44.867   0.406
23622W        W92016  42.368   3.242   2.813
23623W        W92017   5.523   9.436   3.099
23624W        W92018   9.723  17.000  12.631
23625W        W92019  23.410  35.045   0.840
23626W        W92020  22.049   1.537   2.241
23627W        W92021   0.509   5.887  10.585
23628W        W92022   9.123  17.711   1.941
23629W        W92023  44.916   0.933  11.971
23630W        W92024  28.463  15.804  11.121
23631W        W92025  44.201  32.265   3.215
23632W        W92026  28.636   8.162  10.629
23633W        W92027  29.476  22.474  11.944
23634W        W92028  15.563  40.411  14.229
23635W        W92029  24.282  14.172  10.724
23636W        W92030   9.698  29.720   3.285
23637W        W92031   5.840  32.665  13.920
23638W        W92032  29.217  11.630  12.475
23639W        W92033   7.890  24.088   1.890
23640W        W92034  29.079   4.189   2.916
23641W        W92035   0.208  24.300  11.904
23642W        W92036  42.572  35.525   1.856
23643W        W92037  26.168  31.966  14.887
23644W        W92038  35.807  18.725   0.511
23645W        W92039  37.558   3.439  12.603
23646W        W92040   6.096  21.303   1.977
23647W        W92041  19.823  36.994  13.965
23648W        W92042  14.515  18.175  10.951
23649W        W92043  26.452  36.564  14.434
23650W        W92044  12.175  36.188   3.527
23651W        W92045  40.520  19.679   3.621
23652W        W92046  43.277  14.770   3.705
23653W        W92047   2.578  27.148  10.682
23654W        W92048  38.014  20.564  12.183
23655W        W92049  40.468  27.603  14.345
23656W        W92050  44.909   2.881   1.520
23657W        W92051  30.069  38.292   3.399
23658W        W92052  23.508  27.785  11.849
23659W        W92053  36.641   7.889  12.521
23660W        W92054  16.759  11.631  10.669
23661W        W92055  35.991  40.993  13.770
23662W        W92056  17.239  25.243   2.902
23663W        W92057  22.575  22.863  10.227
23664W        W92058  33.118  40.032   3.812
23665W        W92059  36.609  19.630   4.976
23666W        W92060  11.845  24.057   1.000
23667W        W92061  33.064  24.029  10.779
23668W        W92062  32.085  15.089  11.979
23669W        W92063   4.359  37.555  13.047
23670W        W92064   3.906   1.355  13.423
23671W        W92065  27.023  21.497   2.517
23672W        W92066   2.514  26.721   4.866
23673W        W92067  37.800   8.147   4.439
23674W        W92068  36.982  14.720   1.698
23675W        W92069  11.269  37.853   0.498
23676W        W92070   8.932  25.743   4.190
23677W        W92071  31.431   6.391  10.942
23678W        W92072  41.257  10.719  14.575
23679W        W92073  31.309   9.673   1.340
23680W        W92074   6.742   1.999   2.263
23681W        W92075  40.050  25.009   3.736
23682W        W92076   3.290   4.799   2.830
23683W        W92077  16.017  28.990  10.146
23684W        W92078  32.978  10.201  12.109
23685W        W92079  36.524  42.913  11.594
23686W        W92080  12.390  29.733  11.606
23687W        W92081  30.006  12.796  13.500
23688W        W92082  32.517  20.505  13.306
23689W        W92083  24.232  42.398   3.607
23690W        W92084   7.318  19.502   2.176
23691W        W92085  43.313  32.942  12.001
23692W        W92086  36.685  28.749   5.073
23693W        W92087  14.175  30.639  13.472
23694W        W92088  42.940  32.946   3.267
23695W        W92089  31.103  18.260   2.847
23696W        W92090   6.901  39.362   4.714
23697W        W92091  32.508  40.306  11.945
23698W        W92092  37.924   0.620   0.396
23699W        W92093  44.804  12.112   1.534
23700W        W92094  17.834  14.852  14.540
23701W        W92095   8.862  14.382   1.934
23702W        W92096   9.926  26.271  10.948
23703W        W92097  11.473  42.405   2.903
23704W        W92098  31.858  31.576   1.304
23705W        W92099  19.819   2.311   2.329
23706W        W92100  19.002  20.638   3.719
23707W        W92101  30.231  31.681  14.400
23708W        W92102  44.009   3.429  13.672
23709W        W92103  41.582  38.949  14.340
23710W        W92104  20.947   5.902   2.651
23711W        W92105  28.154  44.264   3.469
23712W        W92106  11.241  25.566   0.974
23713W        W92107  40.902  39.033  13.991
23714W        W92108  10.362  22.273   5.122
23715W        W92109  20.099  35.922  10.630
23716W        W92110   2.913  37.590  14.328
23717W        W92111  17.680  36.176   3.196
23718W        W92112   1.233  15.088   0.381
23719W        W92113  41.113   2.510   0.773
23720W        W92114  13.121   7.192   3.118
23721W        W92115  40.423  22.375  10.678
23722W        W92116   7.251  38.661  11.447
23723W        W92117  18.735  42.599   4.900
23724W        W92118   8.434  40.083  13.785
23725W        W92119   5.213  22.256   2.180
23726W        W92120  41.866  43.444  14.385
23727W        W92121  35.869  27.985   2.368
23728W        W92122  31.832  27.511  11.135
23729W        W92123   7.403  23.634   4.424
23730W        W92124  25.560  28.227   4.697
23731W        W92125  34.397  13.529  13.481
23732W        W92126  20.262  32.499   0.837
23733W        W92127   4.795  15.007  14.282
23734W        W92128   9.579  30.903  14.472
23735W        W92129   4.790  32.361  13.542
23736W        W92130  37.739   1.299  13.517
23737W        W92131  43.269   5.211  12.911
23738W        W92132  30.498  32.087   3.350
23739W        W92133  41.613  19.597  11.185
23740W        W92134  22.065  14.229  14.324
23741W        W92135  31.819  19.651   5.051
23742W        W92136  14.088  17.916  11.094
23743W        W92137   6.790  11.566   0.856
23744W        W92138  31.979  10.752   3.444
23745W        W92139  21.037  29.683   2.777
23746W        W92140  34.784  13.172   3.989
23747W        W92141  13.238  12.904  14.859
23748W        W92142  30.546  25.753   0.184
23749W        W92143  18.097   0.518  10.921
23750W        W92144  18.536  20.539   0.700
23751W        W92145  14.709  22.333  14.456
23752W        W92146  18.056  44.949   3.287
23753W        W92147  42.263  12.237  12.834
23754W        W92148  41.504  21.614  11.258
23755W        W92149  39.295  33.168  12.588
23756W        W92150   8.217  19.540   2.160
23757W        W92151  15.915  31.896  10.807
23758W        W92152   8.609   2.841  14.852
23759W        W92153  28.652  26.451  14.186
23760W        W92154   9.407  15.719   2.832
23761W        W92155  17.116  39.937  11.169
23762W        W92156  22.386  31.110   0.715
23763W        W92157  27.849   1.640  11.111
23764W        W92158  30.703  31.927   0.094
23765W        W92159  16.130   6.884  13.337
23766W        W92160  26.239   3.703  13.855
23767W        W92161  37.292  12.262   5.210
23768W        W92162  22.176  32.668  13.979
23769W        W92163   3.990  44.185   4.815
23770W        W92164  22.680  25.897  11.479
23771W        W92165  43.513  14.388  13.630
23772W        W92166  26.219   0.718   1.827
23773W        W92167  43.106  12.272   1.769
23774W        W92168  13.581  15.556  13.555
23775W        W92169  27.104   8.905  10.632
23776W        W92170  37.817  29.049  14.849
23777W        W92171  16.692  21.662  14.988
23778W        W92172  23.596  18.888  14.156
23779W        W92173  18.337  43.381  14.799
23780W        W92174  32.676  25.107  11.078
23781W        W92175  23.483  28.951   1.709
23782W        W92176  33.505  19.263   2.305
23783W        W92177  11.440   6.181  13.617
23784W        W92178   9.654  20.997   0.875
23785W        W92179  31.934  28.310   3.795
23786W        W92180   3.388  17.583  10.238
23787W        W92181   4.840  26.888   2.685
23788W        W92182  24.635  19.530   3.707
23789W        W92183  24.814  41.310  13.408
23790W        W92184  26.477  28.720   3.213
23791W        W92185  20.701   8.106  11.959
23792W        W92186  29.715  33.773   0.318
23793W        W92187   0.897  27.928   5.015
23794W        W92188   1.507  38.437  12.592
23795W        W92189  42.001  14.414   3.209
23796W        W92190  10.418  18.221   1.964
23797W        W92191  20.321  43.524  13.054
23798W        W92192  44.921  14.245   1.495
23799W        W92193  43.032  35.016   4.219
23800W        W92194  19.803  19.300  11.640
23801W        W92195  18.238  13.665   3.765
23802W        W92196  31.676   0.889  13.152
23803W        W92197  33.579  14.214  12.232
23804W        W92198  25.265  43.245  13.522
23805W        W92199  31.134   6.690  11.214
23806W        W92200   3.882   8.343  13.524
23807W        W92201  40.225  11.823   2.699
23808W        W92202  27.364  30.147  12.567
23809W        W92203  10.127  30.361   3.803
23810W        W92204  40.802  13.165   0.412
23811W        W92205  22.604  23.583   4.197
23812W        W92206  38.421  21.972  12.523
23813W        W92207  31.400  29.504   0.791
23814W        W92208   8.876   7.865   1.401
23815W        W92209  39.083   6.740   0.858
23816W        W92210  26.833  36.621  13.051
23817W        W92211   5.367   2.928  14.496
23818W        W92212   3.457  23.913   0.083
23819W        W92213  36.447  10.339  13.358
23820W        W92214  14.556  25.279  11.945
23821W        W92215  21.026   0.815  11.900
23822W        W92216   8.455  12.661  10.588
23823W        W92217  12.842   2.693   4.312
23824W        W92218  14.274  32.825   3.668
23825W        W92219   8.843  19.300   0.838
23826W        W92220   8.561   4.781   3.041
23827W        W92221   1.528  11.381   1.681
23828W        W92222  22.390  24.408   0.183
23829W        W92223  13.633  18.269  11.636
23830W        W92224  25.579  19.766   1.421
23831W        W92225  19.663  36.377   3.928
23832W        W92226  32.621  35.937   0.616
23833W        W92227  24.021  14.101  11.165
23834W        W92228  11.798  22.361   3.258
23835W        W92229  35.799   2.188  11.177
23836W        W92230  29.125   8.786   3.667
23837W        W92231   6.310  19.779  12.840
23838W        W92232  42.983  12.584   4.561
23839W        W92233  26.121   5.022   3.557
23840W        W92234  38.775  43.689   2.236
23841W        W92235  41.452  36.854   0.249
23842W        W92236   3.476  17.129   2.609
23843W        W92237  18.019   3.329  10.625
23844W        W92238  10.266   3.706  12.850
23845W        W92239  18.480  28.713   0.916
23846W        W92240  12.160  24.116  11.686
23847W        W92241  26.199   2.483  13.381
23848W        W92242  15.689  39.149  12.720
23849W        W92243  40.662   8.173   3.591
23850W        W92244   7.757   4.221   1.264
23851W        W92245  27.142   2.824  13.887
23852W        W92246  30.012  36.764   2.021
23853W        W92247   8.398  18.275   1.804
23854W        W92248   6.437  43.958  14.231
23855W        W92249   7.355   5.012  13.703
23856W        W92250   5.196  13.589  12.403
23857W        W92251   2.088  25.071  13.827
23858W        W92252  27.404   2.678  12.230
23859W        W92253  16.050  29.223  10.609
23860W        W92254  15.181   5.456  11.165
23861W        W92255  41.846   9.131  13.135
23862W        W92256   4.751  43.560  10.905
23863W        W92257   3.042  33.142   4.216
23864W        W92258  32.566  10.090   3.993
23865W        W92259  33.459   3.300  14.151
23866W        W92260  28.914  19.245   3.505
23867W        W92261   7.613  32.835   4.395
23868W        W92262  32.220  24.064  12.909
23869W        W92263  31.880   6.592  10.752
23870W        W92264   7.699  35.611   0.725
23871W        W92265  24.193  37.586  12.414
23872W        W92266  21.758  22.789  10.767
23873W        W92267  33.697  43.482   3.617
23874W        W92268  34.981  40.055   1.741
23875W        W92269  36.921  29.896   1.771
23876W        W92270   9.359  22.038   2.765
23877W        W92271  31.546   9.425   0.010
23878W        W92272  32.367  38.480  11.052
23879W        W92273  17.521  26.800   9.764
23880W        W92274  37.373  19.618  10.751
23881W        W92275  26.617  32.856   4.516
23882W        W92276  11.594   9.154  11.187
23883W        W92277   4.172  33.126   1.125
23884W        W92278  26.986  35.025  14.491
23885W        W92279  31.689   1.413  14.879
23886W        W92280   2.635  40.838  13.379
23887W        W92281  35.955  35.606   1.032
23888W        W92282   6.270  18.283   1.742
23889W        W92283   8.733  17.287  12.454
23890W        W92284  35.514  39.742  12.409
23891W        W92285  36.861   7.324  10.704
23892W        W92286   6.261  16.182  14.716
23893W        W92287   4.446  12.124   1.476
23894W        W92288  18.063  40.838  14.343
23895W        W92289  30.946  26.103   4.783
23896W        W92290  32.655  37.444  14.339
23897W        W92291  16.702  27.440  13.494
23898W        W92292   9.538  43.305   0.409
23899W        W92293   3.122  29.133   4.189
23900W        W92294  17.205  43.105   1.686
23901W        W92295  42.204   8.750   4.469
23902W        W92296   3.549  12.606   5.269
23903W        W92297  37.354  25.656   1.925
23904W        W92298   8.167  31.019  11.744
23905W        W92299  23.674  18.383  14.052
23906W        W92300  14.365   2.493   2.296
23907W        W92301   3.943  43.699   4.596
23908W        W92302   2.525  32.302  14.458
23909W        W92303   0.818  42.293   2.402
23910W        W92304  43.837  44.006   3.822
23911W        W92305  20.860  15.607  11.937
23912W        W92306  25.255  28.588  12.109
23913W        W92307  18.550  40.145   2.374
23914W        W92308  43.857  29.554  10.587
23915W        W92309  38.360  32.894   4.385
23916W        W92310  27.465   2.663   0.230
23917W        W92311  31.652  16.164  14.151
23918W        W92312   4.641  30.441   1.670
23919W        W92313   7.095  23.051   0.684
23920W        W92314  15.080   8.873   0.927
23921W        W92315  23.247   9.107   3.118
23922W        W92316   0.135  24.227  13.061
23923W        W92317   3.953  36.351  11.716
23924W        W92318  37.424  40.431  10.375
23925W        W92319  43.737  19.705  10.387
23926W        W92320  19.298  25.393  14.229
23927W        W92321  14.714  40.345  14.921
23928W        W92322  15.563  17.618   1.840
23929W        W92323  27.200  24.590  12.091
23930W        W92324  28.127  10.096  11.849
23931W        W92325   8.687   4.123   0.742
23932W        W92326  24.494  35.099   1.438
23933W        W92327  20.788  26.927  11.162
23934W        W92328  14.994  16.223  11.069
23935W        W92329  21.759  29.677  10.681
23936W        W92330  39.321  25.551   1.353
23937W        W92331   9.613  24.578  13.523
23938W        W92332  38.381  15.836  13.488
23939W        W92333  42.320  17.678  14.834
23940W        W92334  41.228   0.335   1.807
23941W        W92335  20.525  40.965   1.272
23942W        W92336  38.874  41.313  13.320
23943W        W92337   1.972  40.241   4.583
23944W        W92338  37.331  32.314   1.997
23945W        W92339  43.323  26.534   2.357
23946W        W92340   6.299  21.179   1.047
23947W        W92341  11.992  17.677   4.283
23948W        W92342  42.472   9.218   5.070
23949W        W92343  33.840   2.664  11.967
23950W        W92344  27.020   6.261   0.677
23951W        W92345  21.981  34.691  11.227
23952W        W92346  18.341  39.583   2.767
23953W        W92347  22.138  29.552  13.074
23954W        W92348  17.582  34.898  13.946
23955W        W92349  17.635  36.953   4.336
23956W        W92350  20.841  29.147  13.850
23957W        W92351   2.473  23.986   0.327
23958W        W92352  32.031  17.586  10.579
23959W        W92353   1.773  10.292  12.059
23960W        W92354  22.092  11.500   0.263
23961W        W92355   8.581   0.107   3.620
23962W        W92356   8.357  40.856  13.483
23963W        W92357  31.456  41.818   2.711
23964W        W92358  21.138  10.241  13.407
23965W        W92359   0.518  26.210   2.639
23966W        W92360  39.795  33.301  11.129
23967W        W92361  44.366  22.123  14.502
23968W        W92362   0.765  25.013  12.489
23969W        W92363   8.440  24.332  14.806
23970W        W92364  23.473  36.331   4.663
23971W        W92365  22.541  18.754   3.105
23972W        W92366   9.135  31.980   4.133
23973W        W92367  36.921  24.935   2.171
23974W        W92368  14.631   7.897  10.635
23975W        W92369  13.866   7.345  13.039
23976W        W92370   7.809  33.474  13.969
23977W        W92371  13.405  12.631  14.430
23978W        W92372   3.700   1.207   3.219
23979W        W92373  22.946  33.133   2.803
23980W        W92374  42.056  17.081  14.113
23981W        W92375  26.995  24.029  12.901
23982W        W92376  38.972  32.979   1.798
23983W        W92377  20.667  41.375   1.531
23984W        W92378   4.171  25.845   3.347
23985W        W92379   1.269  29.678   4.190
23986W        W92380  36.762  27.919   2.124
23987W        W92381  32.394   1.910  13.050
23988W        W92382  32.035  19.597  11.122
23989W        W92383   0.787   3.746   2.744
23990W        W92384   6.824   2.752   9.602
23991W        W92385  27.213  36.382  14.881
23992W        W92386  21.711  43.018  14.019
23993W        W92387  17.578  21.670  12.531
23994W        W92388  37.943  20.572   2.782
23995W        W92389  43.768   4.503   2.145
23996W        W92390  31.448   4.453  11.097
23997W        W92391  25.217  10.718   3.296
23998W        W92392  43.393  20.685   1.814
23999W        W92393  24.329  32.664   1.502
24000W        W92394  20.607  10.599  14.720
24001W        W92395  28.171  14.214   3.596
24002W        W92396  36.313  20.790   2.631
24003W        W92397  28.461  30.643   3.189
24004W        W92398  20.422  35.457  11.024
24005W        W92399  39.894  31.011  10.614
24006W        W92400   2.003  42.229  12.990
24007W        W92401  35.867  26.086   3.893
24008W        W92402  35.066   1.488   4.289
24009W        W92403   4.364   1.939  13.983
24010W        W92404  20.946  32.438  12.155
24011W        W92405  43.295  25.034  10.714
24012W        W92406   9.535  27.286  10.175
24013W        W92407   3.247  19.606   2.377
24014W        W92408   5.339  27.523  12.032
24015W        W92409  11.338  40.994  14.852
24016W        W92410  44.779  32.958  11.682
24017W        W92411  15.358   0.849   0.232
24018W        W92412  37.102   5.425  12.687
24019W        W92413  14.714  25.584  10.629
24020W        W92414  16.409  28.543   9.394
24021W        W92415  40.578  23.861  11.206
24022W        W92416  12.740  13.280   4.570
24023W        W92417  41.177  43.993  13.841
24024W        W92418   3.326   3.483   0.013
24025W        W92419  11.475  40.869   0.891
24026W        W92420  27.676   8.640  11.584
24027W        W92421   2.458  10.903   1.902
24028W        W92422  12.069  19.631  11.080
24029W        W92423  43.044  14.210  14.458
24030W        W92424  37.607   1.395   1.097
24031W        W92425  14.874   8.776   2.808
24032W        W92426  20.281  24.024  14.783
24033W        W92427   6.189   8.758   0.336
24034W        W92428  35.596  10.885  14.863
24035W        W92429  37.756  36.675   1.336
24036W        W92430  14.667   9.146  13.471
24037W        W92431   9.891  19.670   0.326
24038W        W92432  29.084  32.068   3.190
24039W        W92433   4.899  30.406  11.165
24040W        W92434  40.489  36.350   4.876
24041W        W92435  40.244  34.863  13.635
24042W        W92436  43.541  34.429   4.955
24043W        W92437  27.414  13.855  10.706
24044W        W92438   4.455  31.244   0.775
24045W        W92439  16.309  19.950  13.467
24046W        W92440  13.243  27.513  11.535
24047W        W92441  33.296  41.324   2.583
24048W        W92442   9.898  27.109   2.882
24049W        W92443  21.741  16.169   4.567
24050W        W92444  31.702  22.217  12.455
24051W        W92445   9.680  28.423   0.029
24052W        W92446  22.740  36.580  14.908
24053W        W92447  23.591  39.875  11.726
24054W        W92448  36.387  42.075  10.631
24055W        W92449  10.260   8.635   1.462
24056W        W92450  33.272  19.716  14.269
24057W        W92451   9.244  25.478  14.932
24058W        W92452  11.857  29.641  12.996
24059W        W92453   9.398  36.199   2.804
24060W        W92454  14.642  18.615  10.706
24061W        W92455  36.433  14.019  14.377
24062W        W92456  38.536   3.850   2.833
24063W        W92457  37.852   0.464   4.649
24064W        W92458  38.629  43.866  11.075
24065W        W92459   8.477   0.404   0.664
24066W        W92460  24.432   5.402  13.402
24067W        W92461   1.695  38.013   0.275
24068W        W92462  18.797  31.179   0.320
24069W        W92463   6.218  25.422   3.826
24070W        W92464   4.079  37.866  11.167
24071W        W92465  22.567  12.875   4.759
24072W        W92466  38.835  26.166   4.684
24073W        W92467  30.799  28.721   4.554
24074W        W92468  44.314  34.536   2.783
24075W        W92469  26.666  25.018  14.889
24076W        W92470   4.472   3.720  12.884
24077W        W92471  38.319  23.302   2.656
24078W        W92472  38.031   8.657   3.270
24079W        W92473  22.343  20.594  12.598
24080W        W92474  17.696  17.509   2.414
24081W        W92475  13.210  40.548   3.357
24082W        W92476  36.562  27.674   4.463
24083W        W92477   1.525   3.922   2.278
24084W        W92478   5.301  32.423  12.876
24085W        W92479  21.542  28.529   3.288
24086W        W92480  32.845  38.397  11.316
24087W        W92481  41.005  40.482   4.636
24088W        W92482  34.798  27.231   0.275
24089W        W92483  42.504  12.114  14.990
24090W        W92484  31.011  36.154  12.903
24091W        W92485  40.609   5.676   4.216
24092W        W92486  39.290  19.306  13.873
24093W        W92487  14.245  19.794   4.708
24094W        W92488   4.739  35.336  12.698
24095W        W92489  27.671  39.902  12.865
24096W        W92490  38.067  30.497   1.366
24097W        W92491  36.035   9.868   2.416
24098W        W92492  33.153   9.262  13.056
24099W        W92493  29.195  29.993   0.276
24100W        W92494  40.250  39.942   2.164
24101W        W92495  41.986  27.699   4.573
24102W        W92496   1.926  11.148  14.429
24103W        W92497   5.034  24.177  11.890
24104W        W92498  40.470  33.741   4.613
24105W        W92499   5.965  20.787  10.747
24106W        W92500   4.900   0.397   4.138
24107W        W92501  43.839  19.185  12.573
24108W        W92502  44.400  27.936  11.732
24109W        W92503  14.727  35.488   4.423
24110W        W92504  33.115  21.369   1.257
24111W        W92505  44.367  41.332   1.940
24112W        W92506   3.586  39.592   2.649
24113W        W92507  21.711  37.092  13.024
24114W        W92508  14.616  44.036   3.814
24115W        W92509  13.655  15.658   4.542
24116W        W92510   0.196   0.988   0.564
24117W        W92511  15.145  20.296  12.112
24118W        W92512   5.793  33.967   2.377
24119W        W92513  42.727  11.853  11.437
24120W        W92514  22.564  26.730  11.079
24121W        W92515  27.528  29.308  12.088
24122W        W92516   8.371  40.880  14.302
24123W        W92517  29.573   8.241   4.079
24124W        W92518  40.315   4.264   0.987
24125W        W92519   1.296  28.147   1.348
24126W        W92520   8.188  36.383  12.798
24127W        W92521   3.293  43.795  14.591
24128W        W92522  39.827  26.182  11.109
24129W        W92523  28.197  36.322   3.649
24130W        W92524  28.087  34.557   5.041
24131W        W92525   7.374   5.353   3.133
24132W        W92526  43.547  43.406   3.275
24133W        W92527  22.127  20.421   4.712
24134W        W92528  10.231  43.041   2.664
24135W        W92529  41.857   4.806  11.925
24136W        W92530  31.181  16.633  13.045
24137W        W92531  19.305   4.350  13.915
24138W        W92532   3.144   3.377  14.318
24139W        W92533  10.488  41.459   1.160
24140W        W92534  41.266  19.776  10.403
24141W        W92535  29.239  18.354   3.123
24142W        W92536  24.137   1.054   0.836
24143W        W92537  44.299   5.203   0.710
24144W        W92538  13.871  41.378   3.680
24145W        W92539  43.226  43.579  10.323
24146W        W92540  38.385   0.951  14.512
24147W        W92541   0.795  21.353  11.728
24148W        W92542  43.491  39.006   3.742
24149W        W92543  42.412  33.695   4.927
24150W        W92544   6.319  21.624  12.898
24151W        W92545   0.927  25.962  11.561
24152W        W92546  21.285  11.088  11.686
24153W        W92547  19.669  26.667  12.068
24154W        W92548  39.283  32.637  10.164
24155W        W92549  43.226  27.126   2.833
24156W        W92550  29.687   3.688   3.431
24157W        W92551  10.692  30.483   2.710
24158W        W92552  29.050  17.078  13.654
24159W        W92553  19.280   6.969   4.209
24160W        W92554  22.671  26.193  11.897
24161W        W92555  21.607  38.003  11.476
24162W        W92556   0.824  14.131   0.405
24163W        W92557  11.684  40.635  11.935
24164W        W92558  37.589  26.303  13.534
24165W        W92559  11.811  21.958  14.560
24166W        W92560  42.039  17.574   1.453
24167W        W92561  12.976  36.624  14.866
24168W        W92562  26.932  14.354   0.223
24169W        W92563  18.882   2.025  11.532
24170W        W92564  24.527  21.607  12.053
24171W        W92565  29.189  11.993   1.946
24172W        W92566  32.981  19.547  13.854
24173W        W92567   4.484  32.850  11.112
24174W        W92568  34.909  29.929  14.775
24175W        W92569  25.743   1.218  11.681
24176W        W92570  25.057   7.281   2.830
24177W        W92571  20.162   6.878   2.652
24178W        W92572  37.264   2.660   1.683
24179W        W92573  15.866   2.499   4.607
24180W        W92574  27.762  12.651  12.144
24181W        W92575  11.759   1.331  14.272
24182W        W92576  32.516  30.744  13.411
24183W        W92577  39.420  29.944  10.957
24184W        W92578   0.600  31.032  13.387
24185W        W92579  26.883  41.536  12.535
24186W        W92580  13.802  18.842   3.315
24187W        W92581  34.826  34.495   3.856
24188W        W92582  40.089  23.630  13.797
24189W        W92583  16.372   6.765   0.300
24190W        W92584  26.361  44.004   2.432
24191W        W92585  15.354  42.952   0.434
24192W        W92586  40.441   2.036   5.236
24193W        W92587  17.042  36.009  13.041
24194W        W92588  26.959  40.475  13.117
24195W        W92589  37.319  17.161   5.058
24196W        W92590   4.833  11.900   1.785
24197W        W92591   7.635  33.412  12.636
24198W        W92592  39.541   3.283   1.592
24199W        W92593  18.336  27.901  13.058
24200W        W92594  36.852   4.412  12.455
24201W        W92595  30.348  36.962   1.658
24202W        W92596  24.738  30.105  10.628
24203W        W92597  23.961   3.981  11.543
24204W        W92598   6.853  36.487  13.475
24205W        W92599  42.125  16.659   3.365
24206W        W92600  13.393  32.076  14.872
24207W        W92601   2.405   1.275   3.716
24208W        W92602   1.781   7.204   3.286
24209W        W92603   5.233  38.602   0.556
24210W        W92604  32.373  21.712  11.960
24211W        W92605  26.219  44.473  13.484
24212W        W92606  14.210  33.048   2.655
24213W        W92607  11.562   2.684   0.443
24214W        W92608  21.700  33.645   4.114
24215W        W92609   9.737  35.632   2.157
24216W        W92610   3.318  44.692   0.884
24217W        W92611  28.004  15.153   1.401
24218W        W92612  32.056  35.836   4.603
24219W        W92613  23.701   3.507  14.763
24220W        W92614  38.960   6.852  12.351
24221W        W92615  38.083   1.322   0.852
24222W        W92616  34.552  12.660  11.503
24223W        W92617  25.186  14.799   4.173
24224W        W92618   6.786  29.267   2.792
24225W        W92619  29.387  25.629   4.140
24226W        W92620  25.374  41.879  14.837
24227W        W92621  20.205  16.070   1.927
24228W        W92622  21.173   5.672   4.348
24229W        W92623  42.501  15.506   4.037
24230W        W92624  30.349  40.512  11.212
24231W        W92625  31.846   1.764  13.037
24232W        W92626   1.769  11.668  12.351
24233W        W92627  30.929   0.087   3.511
24234W        W92628  27.382  44.296   4.043
24235W        W92629   6.779  36.072   4.685
24236W        W92630   2.277   4.411  13.036
24237W        W92631  29.029  13.211   0.001
24238W        W92632  43.813   3.880  13.027
24239W        W92633   9.935  22.226   3.648
24240W        W92634  37.388  30.140   1.770
24241W        W92635  14.205  10.014  11.054
24242W        W92636   1.384   0.299   4.942
24243W        W92637  27.016  24.502   2.907
24244W        W92638  24.226  34.929   3.287
24245W        W92639  18.998   2.543   0.784
24246W        W92640  20.127   4.002   4.789
24247W        W92641  31.027  44.027   1.745
24248W        W92642   3.112   6.702  14.430
24249W        W92643  37.006  36.490  10.528
24250W        W92644  37.542  19.841  12.032
24251W        W92645  36.898  24.973  13.540
24252W        W92646  15.752   7.911   1.393
24253W        W92647  18.560   4.880  11.952
24254W        W92648  14.143  15.917   2.676
24255W        W92649  38.966   6.979  10.254
24256W        W92650  22.974  39.122   2.133
24257W        W92651  37.140  29.146  11.111
24258W        W92652  28.380  34.575  12.503
24259W        W92653   3.980  19.781  11.958
24260W        W92654  22.470   7.700  14.492
24261W        W92655  33.993   6.481   4.189
24262W        W92656  13.806  26.588  12.954
24263W        W92657  35.433  19.006   0.324
24264W        W92658  27.673   9.947   0.736
24265W        W92659  22.767  32.762   2.285
24266W        W92660  24.318  43.519  11.147
24267W        W92661  42.302  41.759  10.554
24268W        W92662  23.049  10.246  14.939
24269W        W92663   9.780   7.111  11.944
24270W        W92664  41.462  15.380  12.964
24271W        W92665  38.819  14.386  13.526
24272W        W92666  21.267  11.675   1.247
24273W        W92667   3.418  22.695  14.426
24274W        W92668  40.416   6.868  13.372
24275W        W92669  19.836  16.533  12.198
24276W        W92670   7.379   5.766   0.333
24277W        W92671  34.145  40.921  13.918
24278W        W92672   2.173   6.046  11.200
24279W        W92673   6.222  10.872  13.002
24280W        W92674  31.815  17.497   0.876
24281W        W92675  20.359  17.225   2.377
24282W        W92676  42.351  22.789   0.698
24283W        W92677   0.082  39.269  13.532
24284W        W92678  26.009  31.529  10.634
24285W        W92679  41.590  23.664   2.723
24286W        W92680  26.262  15.731   2.281
24287W        W92681  12.798  44.205  11.215
24288W        W92682  39.056   4.939  11.953
24289W        W92683  32.032  37.426   1.817
24290W        W92684   4.872  23.655   1.902
24291W        W92685  37.885  18.333  12.005
24292W        W92686   4.734   8.813   3.883
24293W        W92687  36.579   1.012   1.670
24294W        W92688  20.744   3.126  12.929
24295W        W92689  23.883  10.135  14.928
24296W        W92690  42.090  44.866  11.649
24297W        W92691  39.360  30.090  14.417
24298W        W92692   6.362  12.402   1.942
24299W        W92693   4.489  37.038   3.747
24300W        W92694  27.564   7.601  10.784
24301W        W92695  19.314  28.709  11.539
24302W        W92696  20.868  17.638   4.843
24303W        W92697  18.731  23.415   0.732
24304W        W92698  30.713  26.954   2.326
24305W        W92699  28.140   2.899   4.561
24306W        W92700  34.556   6.299   4.125
24307W        W92701  18.620  42.049   1.400
24308W        W92702  39.344   6.990  14.999
24309W        W92703   9.116  12.380  12.093
24310W        W92704  20.103   0.927  12.625
24311W        W92705  41.813   4.349  11.707
24312W        W92706  20.947   2.868  13.380
24313W        W92707  29.723   9.564   4.365
24314W        W92708   6.254  40.545  13.663
24315W        W92709  32.951  28.537  11.995
24316W        W92710  12.742   1.350  14.430
24317W        W92711  40.135  36.302  13.374
24318W        W92712  26.030   0.001   2.292
24319W        W92713  40.078  34.785  10.685
24320W        W92714  12.270  29.939   1.810
24321W        W92715  31.217  44.237  11.583
24322W        W92716  21.451  16.329   1.241
24323W        W92717  26.143  20.318  13.858
24324W        W92718  25.612  22.261   4.654
24325W        W92719  39.091  18.967   4.176
24326W        W92720  11.370  34.793  14.491
24327W        W92721  28.705  32.381   0.322
24328W        W92722   6.180  23.607  11.735
24329W        W92723   9.931  43.226   0.088
24330W        W92724  36.689  16.326   1.111
24331W        W92725  13.658   3.358  10.935
24332W        W92726  28.430  42.292  11.528
24333W        W92727   0.844   5.373   1.493
24334W        W92728  34.611  26.222  12.047
24335W        W92729  17.767  31.397  14.882
24336W        W92730   4.153   9.688   3.308
24337W        W92731  17.800  32.121  11.725
24338W        W92732  32.378  39.372   2.208
24339W        W92733   0.908  40.816  14.803
24340W        W92734  26.179  32.835  14.442
24341W        W92735   4.164  14.824   3.683
24342W        W92736  25.510   5.408  11.969
24343W        W92737  37.357  27.771  12.502
24344W        W92738  29.978   1.417  12.034
24345W        W92739  40.039  37.832  14.310
24346W        W92740  30.668  32.923  10.715
24347W        W92741  27.670  15.733   3.976
24348W        W92742   9.317  21.764   1.277
24349W        W92743  44.827   8.248  14.866
24350W        W92744  31.886  39.348  12.578
24351W        W92745  39.573  22.548  14.725
24352W        W92746  20.598  43.741  14.773
24353W        W92747  31.812   4.501  14.892
24354W        W92748  42.945  43.958  13.961
24355W        W92749  26.513   8.453   2.895
24356W        W92750  15.149  14.446  12.839
24357W        W92751  12.684  17.936   1.701
24358W        W92752  41.915  17.106  13.596
24359W        W92753  34.487   1.985   3.697
24360W        W92754  33.986  39.694   0.340
24361W        W92755  11.339   4.873   0.850
24362W        W92756   6.775  29.680  12.732
24363W        W92757  34.404  27.833   2.846
24364W        W92758   2.313  23.725   1.482
24365W        W92759   9.136   0.516   3.378
24366W        W92760  43.340  17.336   3.855
24367W        W92761  17.348   5.976  10.711
24368W        W92762  11.122   5.787   3.714
24369W        W92763  21.976   0.817   2.634
24370W        W92764  39.789   5.010  11.547
24371W        W92765  13.892  42.718  12.597
24372W        W92766  19.061  33.575  11.078
24373W        W92767  26.568  20.353   2.423
24374W        W92768   5.681  27.227  13.834
24375W        W92769   9.684  23.363   9.798
24376W        W92770  31.598  27.258  11.828
24377W        W92771  16.835  30.237  11.116
24378W        W92772  10.730   6.184  10.734
24379W        W92773  37.005  20.590   2.429
24380W        W92774  34.025  34.748   2.717
24381W        W92775  17.576  10.021   4.877
24382W        W92776  44.499  22.606  11.331
24383W        W92777  34.592  18.500  13.357
24384W        W92778   3.592  44.747   2.204
24385W        W92779   3.006  10.743   0.983
24386W        W92780   8.235   9.786   0.106
24387W        W92781   4.847  36.816  11.479
24388W        W92782  23.502  24.121   0.388
24389W        W92783  12.294  34.363   2.401
24390W        W92784  43.947  43.205   0.501
24391W        W92785  11.761  41.786   1.747
24392W        W92786   2.432  39.310   0.418
24393W        W92787   1.931  40.285  12.809
24394W        W92788  44.590  44.360   4.139
24395W        W92789  32.129  18.646   0.288
24396W        W92790  22.063  36.372   4.376
24397W        W92791   7.276   5.785   4.890
24398W        W92792  25.081  32.844  12.162
24399W        W92793  14.267  18.951  11.008
24400W        W92794   1.509  11.143  11.152
24401W        W92795  25.025  22.473   1.884
24402W        W92796  26.645  37.016   0.530
24403W        W92797  41.382  39.686  11.620
24404W        W92798  30.153  34.064  13.482
24405W        W92799   8.869  35.702   0.355
24406W        W92800  27.780  32.412   4.037
24407W        W92801  23.567   5.386  13.551
24408W        W92802  37.516  40.774  11.206
24409W        W92803   2.425  35.577  13.816
24410W        W92804   2.744  36.034  10.923
24411W        W92805   8.296  11.397  12.887
24412W        W92806  23.219  14.665   3.772
24413W        W92807  12.408  10.850   3.335
24414W        W92808  14.329  23.255   4.566
24415W        W92809  41.797   5.987   0.892
24416W        W92810  37.597  21.176   3.902
24417W        W92811  44.511  39.286   0.372
24418W        W92812  20.222  32.682  12.699
24419W        W92813   4.388  18.624  13.629
24420W        W92814  42.441  35.501  12.861
24421W        W92815  44.274  20.002  11.129
24422W        W92816   1.850   4.604   2.333
24423W        W92817  23.870  17.815   2.333
24424W        W92818  10.940  24.972   1.851
24425W        W92819  44.905   9.307   0.844
24426W        W92820  35.016  27.820  13.057
24427W        W92821  39.488  43.007   3.639
24428W        W92822  43.812  10.240  11.146
24429W        W92823   3.532  35.603   5.095
24430W        W92824   4.719  23.717  14.338
24431W        W92825  19.108  42.224  11.575
24432W        W92826   8.164  20.117   2.182
24433W        W92827  12.792  21.678   0.834
24434W        W92828  36.803   3.732   3.144
24435W        W92829  39.728  22.660  13.743
24436W        W92830  28.728  26.177  12.145
24437W        W92831  38.907  27.194   0.042
24438W        W92832  19.963  32.865   2.912
24439W        W92833   0.312  27.598  12.256
24440W        W92834  19.225  41.402   2.216
24441W        W92835  38.815  17.205   1.454
24442W        W92836  10.883   0.452  14.289
24443W        W92837   8.262  27.486   1.720
24444W        W92838  28.959  40.914  10.473
24445W        W92839   7.872  28.204   2.840
24446W        W92840  25.103  14.475   1.578
24447W        W92841   1.785  34.797   4.120
24448W        W92842  19.339  27.041  11.155
24449W        W92843  25.679  13.258   5.118
24450W        W92844  26.028  24.658  10.810
24451W        W92845  28.589  29.058  13.092
24452W        W92846  24.257  22.281   1.272
24453W        W92847   5.330  34.925   3.958
24454W        W92848  26.289  44.765   1.008
24455W        W92849  16.937  40.067   1.524
24456W        W92850  43.780  29.714   4.807
24457W        W92851   3.191   5.198  14.161
24458W        W92852  29.653  22.938   4.240
24459W        W92853  42.033  27.696   0.457
24460W        W92854  17.885  22.604  14.962
24461W        W92855  22.003  25.520   0.814
24462W        W92856  14.259   4.988   4.504
24463W        W92857  18.587   5.646   4.245
24464W        W92858  20.172  26.240  14.149
24465W        W92859  34.092  38.942  11.166
24466W        W92860  26.211   2.731   1.740
24467W        W92861  26.682  29.553  14.874
24468W        W92862   1.354   7.874  12.027
24469W        W92863   2.278  30.847   2.670
24470W        W92864  22.272  22.981  13.092
24471W        W92865  33.523   5.285   4.628
24472W        W92866  16.117  39.877   1.441
24473W        W92867   7.452  19.576   3.176
24474W        W92868  33.244  19.677   2.519
24475W        W92869  10.371   5.218   1.552
24476W        W92870   3.804   6.846   1.174
24477W        W92871   4.016  32.972  14.463
24478W        W92872  27.799   5.181  12.086
24479W        W92873   9.824  30.088   1.224
24480W        W92874  39.680  18.829   2.850
24481W        W92875   8.383  21.563  14.824
24482W        W92876  20.622   5.091  13.067
24483W        W92877   0.424  44.333   4.758
24484W        W92878  21.647   6.155  11.642
24485W        W92879  39.021  16.356  10.556
24486W        W92880  39.964  27.245  13.991
24487W        W92881  11.137  38.871   3.140
24488W        W92882   2.788  42.566   1.314
24489W        W92883  20.742  13.731  10.648
24490W        W92884  35.053   5.011  12.567
24491W        W92885   3.427  10.323   4.644
24492W        W92886  24.641  13.605   3.263
24493W        W92887  28.664  20.327   3.210
24494W        W92888  23.145  27.680   1.395
24495W        W92889  38.586  44.020  11.966
24496W        W92890   1.085  29.388  10.752
24497W        W92891  32.456  25.852   3.250
24498W        W92892  16.620  42.850   3.744
24499W        W92893  25.712  36.459  10.649
24500W        W92894  10.702  17.746   0.937
24501W        W92895  26.527  17.250  12.606
24502W        W92896  16.236   0.185  10.697
24503W        W92897  40.125  20.686   3.248
24504W        W92898  37.511  14.741  10.640
24505W        W92899  30.894   1.579   1.684
24506W        W92900  17.742  18.735  11.228
24507W        W92901  21.018  30.784   2.216
24508W        W92902  11.663  16.479  12.886
24509W        W92903  30.507  35.947  12.854
24510W        W92904  44.558   7.210  10.400
24511W        W92905  35.809  14.707   2.420
24512W        W92906  41.849   7.469  13.346
24513W        W92907  29.971  37.560  14.262
24514W        W92908  21.555  21.447   3.198
24515W        W92909  16.320  13.302  13.429
24516W        W92910  29.875  25.225  11.994
24517W        W92911  14.630  10.853  13.833
24518W        W92912  30.409  15.347   4.892
24519W        W92913  14.594  23.941   1.145
24520W        W92914  11.356  11.865   2.808
24521W        W92915   6.314   5.402  10.701
24522W        W92916  25.230  11.616   2.357
24523W        W92917  21.672  19.708  11.054
24524W        W92918  40.400   9.651  14.923
24525W        W92919  42.900  15.687   1.149
24526W        W92920  30.884  25.168  13.922
24527W        W92921   8.690  41.283  14.191
24528W        W92922  27.652  28.934  14.804
24529W        W92923  13.684  26.565   1.327
24530W        W92924  26.436  37.975   1.386
24531W        W92925  22.810  40.524  10.391
24532W        W92926  25.727   1.359   3.329
24533W        W92927  39.610  30.902  11.426
24534W        W92928  13.986  12.585   1.393
24535W        W92929   7.886   2.946  12.484
24536W        W92930  35.513  24.824   0.807
24537W        W92931   7.661  15.202   1.995
24538W        W92932  30.281   9.276   3.591
24539W        W92933  32.001  10.492  13.509
24540W        W92934  18.848   3.233   3.250
24541W        W92935  24.883  22.566  13.255
24542W        W92936  32.990  12.260  11.943
24543W        W92937  32.344  23.231   4.392
24544W        W92938  14.042  31.972   3.207
24545W        W92939  14.457  24.569  10.525
24546W        W92940  40.707  30.421   4.153
24547W        W92941  38.373  44.689   0.047
24548W        W92942  25.127  19.187  11.483
24549W        W92943  33.039  22.499  14.000
24550W        W92944  30.409  32.244  12.395
24551W        W92945  23.892  35.886   2.342
24552W        W92946  19.086  35.870  11.484
24553W        W92947   3.873   4.942  10.233
24554W        W92948   7.685  34.786  14.283
24555W        W92949  39.740  34.619   4.740
24556W        W92950   8.575  34.071   2.910
24557W        W92951  39.759  13.352  14.368
24558W        W92952   7.670  44.988   0.386
24559W        W92953  44.325  34.540   4.951
24560W        W92954  44.432  13.379  14.396
24561W        W92955  20.729   5.088  11.633
24562W        W92956  12.411  24.310   0.810
24563W        W92957  20.651  29.708   1.888
24564W        W92958   7.102  25.419  12.925
24565W        W92959   4.713  14.725   0.738
24566W        W92960  33.601   1.493   4.021
24567W        W92961  18.686  19.364  13.019
24568W        W92962  40.525   7.938   2.804
24569W        W92963  24.206  29.933  14.772
24570W        W92964  15.886   8.207  14.876
24571W        W92965  21.483  17.994   3.919
24572W        W92966   2.229  43.017   5.071
24573W        W92967   0.641  15.748   2.757
24574W        W92968  25.325  33.211  12.457
24575W        W92969  40.600  34.547  12.253
24576W        W92970  28.099  38.378   1.849
24577W        W92971  41.330  11.208  14.365
24578W        W92972  39.549   5.301   4.652
24579W        W92973  27.797   3.822   9.992
24580W        W92974  28.218   4.329  14.488
24581W        W92975  37.737  15.740   3.241
24582W        W92976  41.208  35.540  10.987
24583W        W92977  41.774   2.987  14.691
24584W        W92978  38.595  13.731   3.690
24585W        W92979  19.383  12.877   3.631
24586W        W92980  42.948   0.366   1.263
24587W        W92981  40.545  36.614  12.020
24588W        W92982  34.684   1.973   0.415
24589W        W92983  35.854  16.030   3.662
24590W        W92984  12.776  13.090   2.183
24591W        W92985   6.596   7.576   3.277
24592W        W92986  25.580  39.096   2.312
24593W        W92987  30.970  13.139   3.426
24594W        W92988  35.588  37.406  13.401
24595W        W92989  21.711  41.785   1.847
24596W        W92990  25.337  40.561   1.491
24597W        W92991  42.262  33.664   0.956
24598W        W92992  24.944  37.461  11.388
24599W        W92993  21.115  28.081   4.076
24600W        W92994   3.660  12.743   2.149
24601W        W92995  41.769  13.793  11.865
24602W        W92996  24.027  36.559  11.591
24603W        W92997  16.668   0.884   1.791
24604W        W92998  30.615  18.982   0.934
24605W        W92999  42.792  36.314   2.330
24606W        W93000  20.969  14.090   2.375
24607W        W93001   7.698  21.702  13.572
24608W        W93002  44.908  16.830  14.310
24609W        W93003  14.366  42.839   1.085
24610W        W93004   6.901  44.954  12.370
24611W        W93005  16.321   7.898   1.617
24612W        W93006  18.496  38.421   1.743
24613W        W93007  27.128  26.230   0.194
24614W        W93008  29.275  18.078   4.615
24615W        W93009  35.400  27.529  10.591
24616W        W93010  34.503  19.680   1.205
24617W        W93011  12.141  20.595   1.247
24618W        W93012  31.759  33.610  11.214
24619W        W93013  39.357   5.964   1.926
24620W        W93014   6.416  30.529  12.951
24621W        W93015  18.572   7.844   0.376
24622W        W93016  22.695  17.272   1.870
24623W        W93017  25.621  38.037   2.455
24624W        W93018   8.685   1.915  14.755
24625W        W93019  31.858  22.235  13.442
24626W        W93020  31.067  31.722   2.737
24627W        W93021   4.998  36.832   0.402
24628W        W93022  31.243   4.229  10.246
24629W        W93023  27.647   4.509   2.910
24630W        W93024  36.128  34.385   4.165
24631W        W93025  38.891  38.794  12.102
24632W        W93026  25.528  20.527   0.866
24633W        W93027  22.787  24.484  10.744
24634W        W93028  36.893  24.467  13.405
24635W        W93029  38.700  43.924   1.755
24636W        W93030  34.270  21.994  14.313
24637W        W93031  24.033   1.540   4.624
24638W        W93032   7.753  27.919   2.199
24639W        W93033  20.499  19.714   0.361
24640W        W93034  19.280  44.063   3.352
24641W        W93035  10.366  33.981  10.457
24642W        W93036   8.922  20.284  14.279
24643W        W93037  20.788  37.963   2.820
24644W        W93038  16.257   2.508   1.329
24645W        W93039   7.707  34.685   3.329
24646W        W93040  20.686  26.491   1.800
24647W        W93041  10.518   7.043  11.701
24648W        W93042  30.998  42.237  13.419
24649W        W93043  16.374  13.673  11.207
24650W        W93044   0.247  17.783  12.247
24651W        W93045   8.852  43.700   2.342
24652W        W93046  22.664  34.582   2.339
24653W        W93047  15.820  21.140   4.609
24654W        W93048  27.054   9.707  11.177
24655W        W93049   2.650  13.672   2.108
24656W        W93050  41.354  24.586  14.861
24657W        W93051  29.587  28.244  11.238
24658W        W93052  39.955   1.195  14.280
24659W        W93053   2.590  34.940  12.096
24660W        W93054   8.264  26.088  10.834
24661W        W93055  43.250  42.738   1.414
24662W        W93056  16.047  15.171  10.360
24663W        W93057  22.239   6.555  11.175
24664W        W93058  41.055  29.041   0.577
24665W        W93059  17.241  38.347   0.992
24666W        W93060  19.315  19.321  12.510
24667W        W93061  26.926   7.832   4.238
24668W        W93062  41.763  44.577   3.687
24669W        W93063  32.651  26.677  11.808
24670W        W93064   7.465  10.920  14.032
24671W        W93065  36.825   0.779   4.017
24672W        W93066  20.235  23.652   4.559
24673W        W93067  32.660  25.825  10.616
24674W        W93068  24.952   7.035   1.280
24675W        W93069  17.646  24.682   1.851
24676W        W93070  24.944   8.059   1.343
24677W        W93071  21.668   7.174  14.535
24678W        W93072  39.989   2.164  11.209
24679W        W93073  21.238  32.065   2.108
24680W        W93074  40.901  15.838  11.987
24681W        W93075   0.656   5.849   3.900
24682W        W93076   6.269  34.652  12.977
24683W        W93077  13.304  43.717  14.839
24684W        W93078  35.179  14.422   9.660
24685W        W93079  20.774  34.136   0.782
24686W        W93080   8.447   1.891  12.570
24687W        W93081  35.042  28.638  14.267
24688W        W93082  37.093   2.312   0.869
24689W        W93083  38.935  23.165  14.315
24690W        W93084  27.514  15.662  11.453
24691W        W93085  10.310  41.099  11.138
24692W        W93086  21.784  40.346   2.247
24693W        W93087  39.339  34.177  11.981
24694W        W93088  24.704  13.862   5.075
24695W        W93089  18.179  37.914   0.804
24696W        W93090  35.036   1.173  13.539
24697W        W93091   7.855   2.430   2.579
24698W        W93092  38.101  42.169   0.310
24699W        W93093  19.758  26.331   1.561
24700W        W93094  18.268  42.031  13.028
24701W        W93095   1.974   2.319   3.132
24702W        W93096  33.061  11.570  12.056
24703W        W93097  38.315   0.033   0.438
24704W        W93098   2.904  14.293  12.911
24705W        W93099  38.900  30.480   0.970
24706W        W93100  13.264  25.616   4.074
24707W        W93101  28.391  38.335  13.950
24708W        W93102   5.371  35.506   2.335
24709W        W93103   2.157  35.336   1.689
24710W        W93104  18.724  33.492   4.501
24711W        W93105  17.153   7.389  11.128
24712W        W93106  42.381  20.225   2.953
24713W        W93107  23.416  36.936   2.485
24714W        W93108  14.738   5.986   3.307
24715W        W93109  18.494  22.621   0.903
24716W        W93110  21.163  35.604  12.480
24717W        W93111  24.137  42.283   4.116
24718W        W93112  14.735  25.162  13.821
24719W        W93113   5.365  33.537  13.644
24720W        W93114  21.600  16.694   0.424
24721W        W93115  12.234  26.417   4.205
24722W        W93116   0.927  18.415  14.931
24723W        W93117  31.993  29.633  14.707
24724W        W93118  38.553  31.912   4.578
24725W        W93119   4.337  38.760  11.165
24726W        W93120  16.770  42.181   2.554
24727W        W93121   8.907  16.809   0.343
24728W        W93122  25.698  39.777  12.480
24729W        W93123  20.947  37.127   1.699
24730W        W93124  27.880  41.844  12.327
24731W        W93125  30.396   1.086   2.896
24732W        W93126  20.681   0.585   1.288
24733W        W93127  25.103  28.368   3.755
24734W        W93128  26.177   9.238  12.085
24735W        W93129  21.195  25.745   2.650
24736W        W93130   7.919  30.750   3.841
24737W        W93131  34.456  44.021   4.697
24738W        W93132  31.449  11.128  11.677
24739W        W93133  26.783  28.531  12.027
24740W        W93134   7.672  27.424  11.981
24741W        W93135  14.756   2.588  12.998
24742W        W93136  16.783   7.956  12.998
24743W        W93137  29.867  34.985   0.851
24744W        W93138  20.124  25.001  12.513
24745W        W93139  39.342  40.772   1.435
24746W        W93140  29.385  28.445  12.001
24747W        W93141  17.642  17.341  11.188
24748W        W93142  26.352  15.852  11.148
24749W        W93143  22.123  19.910   3.645
24750W        W93144  41.052  28.597  10.635
24751W        W93145  14.093  32.035  12.386
24752W        W93146   6.725   0.052   0.122
24753W        W93147  28.567   2.211  12.593
24754W        W93148   1.273  26.525  11.828
24755W        W93149  19.808   3.869   0.822
24756W        W93150   7.138  14.750  11.833
24757W        W93151  22.445   4.442   1.411
24758W        W93152  19.006  27.330  12.928
24759W        W93153   5.690  41.286   0.789
24760W        W93154  13.815  42.541  13.088
24761W        W93155  16.910  14.848  12.835
24762W        W93156  18.790  38.055   3.121
24763W        W93157  40.587  44.552   2.262
24764W        W93158   2.702  15.852  11.211
24765W        W93159   7.780  30.465  12.825
24766W        W93160   5.898  15.188   2.721
24767W        W93161  16.083  13.632  14.454
24768W        W93162  17.665  36.461   1.270
24769W        W93163  37.094  38.894   1.842
24770W        W93164  35.580  21.701   0.267
24771W        W93165  16.754  36.825   4.142
24772W        W93166  21.127  30.150   4.592
24773W        W93167  10.331  21.210  10.612
24774W        W93168  36.481  41.777   3.748
24775W        W93169  33.572  39.291   3.583
24776W        W93170  40.608  27.998   4.249
24777W        W93171  17.082  34.291   1.746
24778W        W93172   6.934   4.859   2.175
24779W        W93173  23.071  17.184   2.232
24780W        W93174  27.483   6.456   3.832
24781W        W93175  22.665   2.713  13.157
24782W        W93176   4.166  10.927  12.599
24783W        W93177   0.732  26.566   0.038
24784W        W93178  17.356  34.913  11.337
24785W        W93179  24.149  40.634   3.592
24786W        W93180  24.414  44.336  12.854
24787W        W93181  17.538  42.002  13.341
24788W        W93182  11.735  10.387  11.781
24789W        W93183  22.591  41.372  10.749
24790W        W93184   3.832  43.787  11.900
24791W        W93185  36.323  10.140   4.550
24792W        W93186  40.813  33.307   3.243
24793W        W93187  14.634  25.942  14.839
24794W        W93188   2.917  18.783  13.056
24795W        W93189  30.592  33.046   3.621
24796W        W93190  41.529   7.158  13.060
24797W        W93191  21.124  15.324   4.541
24798W        W93192  20.568   4.350   0.052
24799W        W93193  21.150   1.117   3.744
24800W        W93194  17.154  43.565   0.802
24801W        W93195   5.378  32.958   2.771
24802W        W93196  43.657  33.769   4.798
24803W        W93197  36.143  13.209  14.033
24804W        W93198  13.510  36.958   3.805
24805W        W93199  42.793  32.284   1.862
24806W        W93200  39.414   3.672   1.911
24807W        W93201   0.896  13.919  12.099
24808W        W93202  32.635   5.877  13.827
24809W        W93203  14.912  33.654  13.339
24810W        W93204  25.239  32.008   5.112
24811W        W93205  41.366  29.555   1.847
24812W        W93206  39.104   2.749  10.389
24813W        W93207  26.495  21.075  11.514
24814W        W93208  16.150  31.343   3.270
24815W        W93209  34.017  15.192  11.570
24816W        W93210  18.076  33.102  14.365
24817W        W93211   4.843  37.497   4.231
24818W        W93212  39.878  21.649   2.266
24819W        W93213  14.637   2.789   0.202
24820W        W93214  27.725  14.141  12.975
24821W        W93215  18.568  22.751  11.100
24822W        W93216  42.008  29.015  12.479
24823W        W93217  33.518  31.112  11.227
24824W        W93218  15.322  39.292  14.770
24825W        W93219  40.454  25.538  13.831
24826W        W93220  28.495  26.924   2.271
24827W        W93221   0.588   8.805   2.395
24828W        W93222  43.399   2.663   2.834
24829W        W93223   2.492  16.324  14.246
24830W        W93224  40.529  22.921  10.752
24831W        W93225  10.637  20.856   4.125
24832W        W93226   3.085  32.388   3.151
24833W        W93227  43.242   4.417   0.850
24834W        W93228  22.614   4.164   1.834
24835W        W93229  31.918  28.575   0.748
24836W        W93230  37.431  20.242   2.375
24837W        W93231  11.781  30.515  11.920
24838W        W93232  15.681  22.340  14.971
24839W        W93233   3.950  19.292  14.473
24840W        W93234  26.699  10.512   4.862
24841W        W93235   4.439  40.375  12.495
24842W        W93236   7.946  23.763   0.284
24843W        W93237  10.950  35.797   1.564
24844W        W93238  21.287   4.369   3.669
24845W        W93239  30.923  34.636   0.295
24846W        W93240  17.518   9.780  14.867
24847W        W93241  29.687  42.428   1.416
24848W        W93242  36.205  34.828   2.894
24849W        W93243  39.054  25.194   3.645
24850W        W93244  24.481  24.523  12.356
24851W        W93245  43.715  31.182   3.656
24852W        W93246  13.058  31.449   2.308
24853W        W93247   2.789  38.078  14.348
24854W        W93248  24.016  42.189  14.290
24855W        W93249  35.565   8.824   1.764
24856W        W93250  27.484   4.289  11.326
24857W        W93251  27.644   7.084  10.743
24858W        W93252  43.984  30.627   0.210
24859W        W93253   0.314  23.473  14.825
24860W        W93254  37.815  27.510  12.447
24861W        W93255   7.190  37.082   0.828
24862W        W93256  23.519  17.982  12.716
24863W        W93257  23.954  20.110   1.710
24864W        W93258  13.206  29.232   4.241
24865W        W93259  23.583  20.028  14.090
24866W        W93260  20.921  14.816  11.468
24867W        W93261  30.225   6.203  12.711
24868W        W93262  33.469  34.981   4.447
24869W        W93263  38.029  21.491   0.436
24870W        W93264   1.527  40.587   4.515
24871W        W93265   5.280  44.501  14.496
24872W        W93266  21.691  21.930  11.405
24873W        W93267  44.884  27.188  12.968
24874W        W93268  19.148  42.469  14.502
24875W        W93269  18.757   7.102  11.603
24876W        W93270  15.414  23.929   2.257
24877W        W93271   2.753  36.759  13.850
24878W        W93272  34.516  41.514  11.621
24879W        W93273  37.031   6.133   1.216
24880W        W93274  34.481  40.510   3.147
24881W        W93275  30.896  28.057   1.986
24882W        W93276  26.474   3.316   0.737
24883W        W93277  12.738  39.011  12.812
24884W        W93278  17.224  32.977   1.472
24885W        W93279  21.286   3.459  13.782
24886W        W93280  31.284  41.921  12.592
24887W        W93281  10.800  25.164   4.240
24888W        W93282  36.520  10.261  10.647
24889W        W93283  18.276  30.131   4.472
24890W        W93284  38.516  14.708   1.392
24891W        W93285  12.695   5.741  10.267
24892W        W93286  26.057  27.573   0.852
24893W        W93287  31.920   1.362   0.322
24894W        W93288  15.061  21.536   0.140
24895W        W93289   4.870  36.428   2.392
24896W        W93290  35.478  28.677   3.655
24897W        W93291  36.345   8.091  13.942
24898W        W93292  11.866  14.800   2.260
24899W        W93293  12.626  21.883  14.896
24900W        W93294   6.389  27.504  11.649
24901W        W93295  23.143  34.028  10.646
24902W        W93296  17.550  31.558  10.542
24903W        W93297  20.160  38.069   2.330
24904W        W93298  34.143  15.366  12.961
24905W        W93299  42.998  15.238   2.851
24906W        W93300  44.213   0.411  13.069
24907W        W93301  33.074  24.505   0.592
24908W        W93302  30.935  33.871  13.983
24909W        W93303  13.709  36.931   0.516
24910W        W93304   4.955  14.780   2.162
24911W        W93305  26.144  19.066  12.478
24912W        W93306   6.071  11.087   2.016
24913W        W93307  25.020   8.327  12.215
24914W        W93308  27.664  29.322   5.045
24915W        W93309  43.572  21.206  11.625
24916W        W93310  17.539  24.030   2.249
24917W        W93311  30.205  27.066   2.317
24918W        W93312  40.183  41.589  11.579
24919W        W93313   1.428  16.740   4.498
24920W        W93314  34.539  34.740   2.144
24921W        W93315  38.516  22.765  10.904
24922W        W93316  40.878  30.499   0.974
24923W        W93317   2.758  13.547  12.276
24924W        W93318   6.394   0.757  13.535
24925W        W93319  27.468  13.694  14.256
24926W        W93320  39.436   2.161  13.377
24927W        W93321  15.171  39.005   3.126
24928W        W93322  32.956  35.148   0.077
24929W        W93323   7.690  26.550   2.767
24930W        W93324  28.257   9.951  14.847
24931W        W93325  29.432  21.086  11.515
24932W        W93326  27.377  15.378   3.259
24933W        W93327  40.401  28.002   5.087
24934W        W93328  16.292   8.286   2.274
24935W        W93329  14.760  22.027  14.859
24936W        W93330  23.360  39.382  12.602
24937W        W93331  16.497  18.583  11.114
24938W        W93332  13.874   5.015   1.215
24939W        W93333   4.225  24.528  12.384
24940W        W93334  14.552  29.610   4.887
24941W        W93335  17.262  42.808  14.406
24942W        W93336   3.153  14.592   2.741
24943W        W93337   3.018  27.970   0.677
24944W        W93338  21.978  33.515   4.608
24945W        W93339  17.219  30.719  13.380
24946W        W93340   9.214  13.598   1.975
24947W        W93341  26.939   3.374   3.713
24948W        W93342   4.264  10.101  12.394
24949W        W93343   7.180  15.549   3.922
24950W        W93344  25.417  27.105   2.667
24951W        W93345   2.687   9.159   1.936
24952W        W93346  31.412  24.597   4.351
24953W        W93347  44.092  44.366  11.501
24954W        W93348  17.939  34.946   2.202
24955W        W93349  14.084  16.762   3.531
24956W        W93350  38.781   7.856  12.628
24957W        W93351   8.667  39.844  13.371
24958W        W93352   2.499  29.502  12.481
24959W        W93353  21.179  32.474   2.748
24960W        W93354  23.672   0.033  11.485
24961W        W93355   9.367   9.640  11.153
24962W        W93356  19.450  42.717   0.426
24963W        W93357   0.734  13.759   2.105
24964W        W93358  38.375  12.546   0.697
24965W        W93359   9.123   1.506   3.256
24966W        W93360  23.553  36.573   2.138
24967W        W93361  29.981  25.017   0.594
24968W        W93362  29.505   3.100   2.619
24969W        W93363  43.753  12.769  12.331
24970W        W93364  19.193   0.720  14.021
24971W        W93365  28.194  41.558  12.602
24972W        W93366  28.516   8.756  12.912
24973W        W93367   0.143  38.130  10.568
24974W        W93368  28.692  25.653   0.626
24975W        W93369  16.175   1.832   1.807
24976W        W93370  14.738  15.688  12.514
24977W        W93371  10.421   6.742   0.460
24978W        W93372  27.981  33.036   4.074
24979W        W93373   2.789  13.973  11.966
24980W        W93374  28.472  36.478  14.517
24981W        W93375  39.011  18.209   0.766
24982W        W93376  38.581  31.117  14.032
24983W        W93377  23.726  40.268  10.697
24984W        W93378  29.567  40.345  14.027
24985W        W93379  17.330  39.474   4.557
24986W        W93380   5.434  33.922   4.095
24987W        W93381  21.111  41.391   5.017
24988W        W93382  18.407  25.073   4.549
24989W        W93383  34.219   5.162  11.612
24990W        W93384  25.112  13.577   0.024
24991W        W93385  36.030  31.645  11.730
24992W        W93386   3.902  14.350   0.425
24993W        W93387  14.859   1.319  12.022
24994W        W93388   9.165  12.331  12.621
24995W        W93389   8.410  43.997  14.909
24996W        W93390  22.547  29.847  13.265
24997W        W93391  12.678  31.129   3.318
24998W        W93392   6.431  33.369  11.616
24999W        W93393  29.196   9.280   4.839
25000W        W93394  42.767  21.204  12.449
25001W        W93395  19.249   0.349  10.559
25002W        W93396  42.684   6.725   1.195
25003W        W93397  20.308   5.515  10.940
25004W        W93398  31.381  34.129   4.607
25005W        W93399  15.672  30.593   0.904
25006W        W93400  32.881  16.177  13.381
25007W        W93401   2.710  36.858  14.747
25008W        W93402   0.567  36.538   4.159
25009W        W93403  29.964  40.750  14.050
25010W        W93404  22.312  25.652   1.763
25011W        W93405  28.829   6.662  14.449
25012W        W93406   6.197  41.527  14.156
25013W        W93407   8.240  13.174   3.688
25014W        W93408   7.680   5.955   3.057
25015W        W93409  15.083  25.491   0.355
25016W        W93410   6.418  24.150  11.838
25017W        W93411  11.671   2.422  11.254
25018W        W93412   3.915  42.813   4.050
25019W        W93413  23.427   6.764   2.186
25020W        W93414  24.520  42.223  12.136
25021W        W93415  17.303  26.585  14.908
25022W        W93416  26.693  27.326   1.913
25023W        W93417  21.475  12.541   1.216
25024W        W93418  30.237   9.797   0.345
25025W        W93419  23.506   9.073   3.548
25026W        W93420  20.742  44.294   0.946
25027W        W93421  41.347   1.414   1.769
25028W        W93422   8.037  38.384  14.484
25029W        W93423  17.212  40.455   0.744
25030W        W93424   2.991   2.845  14.276
25031W        W93425  29.036  37.434  11.090
25032W        W93426  41.248  25.435   5.006
25033W        W93427  37.458   4.953   3.202
25034W        W93428  28.132  28.459   4.586
25035W        W93429   0.810  39.869   2.719
25036W        W93430  32.068  15.359   2.813
25037W        W93431   6.282   5.384   2.301
25038W        W93432  33.471  29.725  11.148
25039W        W93433  16.682  30.631   3.194
25040W        W93434  29.477   2.865   1.215
25041W        W93435  42.736  27.580  12.489
25042W        W93436  30.545  37.466   0.936
25043W        W93437  14.991  25.614  12.832
25044W        W93438   4.850  32.353   1.944
25045W        W93439   4.875   8.961  11.525
25046W        W93440  34.946  30.186  14.327
25047W        W93441  32.897  41.953   3.712
25048W        W93442  34.284   5.169   1.914
25049W        W93443  16.799  32.900  14.342
25050W        W93444  11.423   5.270  13.589
25051W        W93445   5.481   0.483  14.340
25052W        W93446   4.714  16.447  10.748
25053W        W93447   6.832  15.183  10.419
25054W        W93448  10.439   4.101  13.484
25055W        W93449   7.390  34.899   3.748
25056W        W93450   5.272  12.038  14.981
25057W        W93451  38.327   1.917  12.494
25058W        W93452  38.432   5.224  14.520
25059W        W93453   6.929   8.393   0.842
25060W        W93454  34.740  32.734  13.374
25061W        W93455  33.769  32.452  13.498
25062W        W93456   9.722  10.767  10.781
25063W        W93457  24.524  34.642   4.299
25064W        W93458  30.991   2.601   0.855
25065W        W93459  21.992   2.916   3.791
25066W        W93460  14.325  30.137  14.686
25067W        W93461  27.610  13.795   4.169
25068W        W93462  33.622  42.274  12.934
25069W        W93463   0.193  37.013   2.528
25070W        W93464  23.563  12.231  10.959
25071W        W93465   3.874   2.330   0.605
25072W        W93466  24.035   8.834  12.405
25073W        W93467  34.020  22.802  13.871
25074W        W93468  31.595  34.827  10.587
25075W        W93469  24.216  10.467   1.892
25076W        W93470   5.161  22.159   0.303
25077W        W93471   9.713  35.720  12.933
25078W        W93472  28.341  35.767   4.382
25079W        W93473   0.726   3.668  14.316
25080W        W93474  34.211  12.734   4.631
25081W        W93475   2.470  17.478  10.531
25082W        W93476   6.473   6.256   3.657
25083W        W93477   3.000  14.842  13.003
25084W        W93478  22.422  37.424  14.532
25085W        W93479  34.846  25.533   2.860
25086W        W93480  11.245   1.724  12.934
25087W        W93481  21.780  12.666   0.282
25088W        W93482  27.082  15.041  11.230
25089W        W93483  17.763  30.893  12.158
25090W        W93484   5.053   8.102  11.622
25091W        W93485  28.978  35.917   0.730
25092W        W93486  32.740  16.805   2.475
25093W        W93487   5.984   0.841  11.397
25094W        W93488   2.413  16.458   0.791
25095W        W93489  40.071  20.752   0.806
25096W        W93490  27.913  34.051   4.135
25097W        W93491  18.078  41.181   1.482
25098W        W93492  16.847  29.678  14.411
25099W        W93493  18.184  25.275  11.158
25100W        W93494  12.762  13.580  14.337
25101W        W93495   8.164   3.275   3.218
25102W        W93496  15.752  27.623   2.766
25103W        W93497  36.648  34.687  14.896
25104W        W93498  19.072  28.367   3.923
25105W        W93499  23.980  26.414   4.634
25106W        W93500  24.188   5.005   1.044
25107W        W93501  24.628   1.978   2.669
25108W        W93502   0.101  32.061   1.270
25109W        W93503  24.029  15.826  10.593
25110W        W93504  24.458  27.500  12.991
25111W        W93505   3.187   3.644  13.868
25112W        W93506   2.403  18.166  11.601
25113W        W93507   5.159   8.987   0.929
25114W        W93508  38.302   1.398   2.225
25115W        W93509  31.740  18.538   4.148
25116W        W93510   8.115  27.436   2.236
25117W        W93511   9.956  41.518   4.374
25118W        W93512  12.661  17.269   0.348
25119W        W93513  18.014  18.961   1.901
25120W        W93514  18.789   8.040  12.987
25121W        W93515   0.399  18.518   0.480
25122W        W93516   3.420  35.127  11.126
25123W        W93517  20.161  16.262   3.674
25124W        W93518   1.983  38.941  12.023
25125W        W93519  42.531  20.754  12.433
25126W        W93520  42.502  20.221   0.508
25127W        W93521   7.351  22.457  13.999
25128W        W93522   2.230   7.203  10.561
25129W        W93523  23.104  21.890  12.970
25130W        W93524  38.815   5.775  14.939
25131W        W93525   8.749   1.431   4.962
25132W        W93526  36.844  31.536   1.951
25133W        W93527  26.159  10.142  13.058
25134W        W93528  42.263  14.121   1.339
25135W        W93529   2.675  16.508  12.471
25136W        W93530  14.351  10.205  13.091
25137W        W93531  33.997  16.383  14.409
25138W        W93532  10.086  32.022   2.170
25139W        W93533  18.065   5.029   3.251
25140W        W93534  26.743   6.746  12.807
25141W        W93535  21.237  29.614  12.106
25142W        W93536  28.796  36.799   3.177
25143W        W93537  44.576  21.487  13.338
25144W        W93538  34.029   3.454   4.664
25145W        W93539   1.837  33.837   3.373
25146W        W93540  40.721  14.612   4.173
25147W        W93541   7.541  31.613  12.163
25148W        W93542  10.285  18.664  13.887
25149W        W93543  19.773  24.121   0.652
25150W        W93544  14.768  37.805   0.810
25151W        W93545  36.521  38.485   0.289
25152W        W93546  20.140  44.838  10.753
25153W        W93547   0.743  16.003   2.051
25154W        W93548  16.106  11.725   3.264
25155W        W93549  38.127  23.706  12.449
25156W        W93550  25.033  29.043  11.387
25157W        W93551  26.642  35.550   2.745
25158W        W93552  36.253  19.333   1.136
25159W        W93553  30.570   6.993   4.349
25160W        W93554  37.494  20.112  14.350
25161W        W93555  19.973  24.208  11.035
25162W        W93556  10.623  19.004   3.552
25163W        W93557  35.439  30.713   1.180
25164W        W93558   2.350  17.669   4.944
25165W        W93559  24.826  32.491  12.852
25166W        W93560  21.006  24.676  13.770
25167W        W93561  19.125   3.695   3.272
25168W        W93562   5.746   9.899   3.155
25169W        W93563  23.995  26.233  14.751
25170W        W93564  35.578  34.629  13.936
25171W        W93565  19.018  41.816   1.943
25172W        W93566  21.955   4.975  14.716
25173W        W93567   3.717   9.649   0.592
25174W        W93568  42.633  15.827   0.668
25175W        W93569   4.954   5.779   1.313
25176W        W93570  24.980  11.207   2.589
25177W        W93571  19.774   8.075   4.141
25178W        W93572   7.277  42.335  12.010
25179W        W93573  43.380  38.355  11.336
25180W        W93574  27.059  31.138   0.887
25181W        W93575  15.127  20.646   1.097
25182W        W93576  26.489  40.832   3.840
25183W        W93577   0.872  37.585  14.758
25184W        W93578  14.215   1.427  10.767
25185W        W93579  31.189  44.693  14.363
25186W        W93580  16.547   4.214  10.706
25187W        W93581  12.757  39.072   1.187
25188W        W93582  20.931  29.583   0.906
25189W        W93583  32.346  30.054   1.193
25190W        W93584  27.235  25.141  13.602
25191W        W93585  10.894  11.908  10.193
25192W        W93586   1.250   1.531  12.124
25193W        W93587   7.660  32.495  14.423
25194W        W93588  22.835  44.822   4.747
25195W        W93589  25.334  12.819  12.070
25196W        W93590  14.409  42.024   0.345
25197W        W93591  36.030   3.971   1.518
25198W        W93592  14.933   8.580   1.332
25199W        W93593  29.501  33.470  10.683
25200W        W93594  22.645  30.031  12.775
25201W        W93595  35.453  37.444   4.047
25202W        W93596  27.898  21.493  12.423
25203W        W93597  22.414  35.493   3.753
25204W        W93598  16.697  10.887  14.703
25205W        W93599  25.933  21.366   4.991
25206W        W93600  15.064  37.170   1.826
25207W        W93601  28.996  20.561   0.418
25208W        W93602  43.299   8.727   4.538
25209W        W93603  40.424  10.660  10.790
25210W        W93604  22.906  44.952   3.294
25211W        W93605  29.148  19.812  10.705
25212W        W93606  29.485   7.334   4.553
25213W        W93607  22.994   1.479  14.898
25214W        W93608  12.742  12.816  14.788
25215W        W93609  42.889  38.505   1.844
25216W        W93610   0.077   3.673  13.464
25217W        W93611   9.285  17.847  14.779
25218W        W93612  14.157  36.965  11.057
25219W        W93613  24.556  13.211   2.912
25220W        W93614  33.209  42.932  11.615
25221W        W93615  38.058  36.437  12.925
25222W        W93616  25.430  17.719   3.584
25223W        W93617   9.816  38.913  14.023
25224W        W93618  39.463   8.465  10.922
25225W        W93619  24.805  12.497   2.244
25226W        W93620  19.787  22.994  14.062
25227W        W93621  40.409  28.581  12.887
25228W        W93622   7.224  21.833   2.416
25229W        W93623  21.076  22.492  10.586
25230W        W93624   9.072  22.914   2.701
25231W        W93625  13.379   2.802   1.402
25232W        W93626  19.124  32.070   3.246
25233W        W93627  18.025  44.751   1.010
25234W        W93628  33.474  26.741   5.008
25235W        W93629  15.925  28.996   3.583
25236W        W93630  23.878  41.690  13.485
25237W        W93631  39.403  35.765  11.726
25238W        W93632  16.975  32.605   4.876
25239W        W93633  38.996   3.768  12.356
25240W        W93634   7.100  13.144  14.907
25241W        W93635  11.684  24.964   1.385
25242W        W93636  23.071  36.504   2.926
25243W        W93637   4.669  22.236   0.101
25244W        W93638  21.060  40.966   2.204
25245W        W93639  12.737   0.991  13.429
25246W        W93640   7.703  11.926  13.401
25247W        W93641  44.389  24.130   2.197
25248W        W93642  37.396  27.374   3.273
25249W        W93643   5.161  38.939  11.730
25250W        W93644  40.827  21.129   9.907
25251W        W93645  32.977   0.928  12.341
25252W        W93646  32.885  14.645  12.056
25253W        W93647   1.196  25.473  10.316
25254W        W93648  40.115  31.271   3.266
25255W        W93649  16.275   0.522   3.392
25256W        W93650  11.870  37.600   4.115
25257W        W93651   4.287   4.631   4.514
25258W        W93652   4.147  29.886  11.212
25259W        W93653  11.806  39.486   0.324
25260W        W93654   1.829  42.689   4.169
25261W        W93655  37.147  28.240   0.473
25262W        W93656  23.473  26.813  11.196
25263W        W93657   4.972  40.532   0.719
25264W        W93658  28.986  41.309  12.206
25265W        W93659   7.836  23.999   4.158
25266W        W93660  41.278  29.100  10.699
25267W        W93661  32.633  20.968   0.164
25268W        W93662   4.689  40.917   3.406
25269W        W93663  19.093  14.256  14.729
25270W        W93664  13.031   7.829  12.198
25271W        W93665  12.943  38.876  14.661
25272W        W93666  12.178  35.433  10.699
25273W        W93667  27.126   2.260   3.130
25274W        W93668  19.669  25.940  11.574
25275W        W93669  33.463  36.933   5.117
25276W        W93670  30.559  42.014  11.236
25277W        W93671   8.696  17.685  14.071
25278W        W93672  16.305   2.262   0.886
25279W        W93673  38.313  21.065  11.549
25280W        W93674  32.522  16.308  14.331
25281W        W93675  36.095  36.750   4.344
25282W        W93676  20.201  25.228  11.608
25283W        W93677  32.668  33.552  11.408
25284W        W93678  13.836  32.221   5.147
25285W        W93679  16.502  13.844   4.195
25286W        W93680  30.389  42.844  11.838
25287W        W93681   8.157  37.955  11.567
25288W        W93682  41.202   9.850   0.296
25289W        W93683  19.062  28.980  14.326
25290W        W93684   0.984  36.383   1.884
25291W        W93685  11.021  33.826  11.058
25292W        W93686  34.802  22.600  12.428
25293W        W93687  39.014  29.401  14.681
25294W        W93688  24.715  38.321   3.282
25295W        W93689  41.907  12.758  10.117
25296W        W93690  17.589  30.475   2.804
25297W        W93691  43.049  14.503  13.438
25298W        W93692  38.667   0.481   0.954
25299W        W93693  12.796   8.820   3.575
25300W        W93694  12.908  13.424   3.666
25301W        W93695   7.789  14.952   3.493
25302W        W93696  10.746  36.552   2.008
25303W        W93697   7.329  27.520   0.319
25304W        W93698  40.344  30.757  10.787
25305W        W93699  43.347  44.363  10.726
25306W        W93700  11.600   4.267  10.777
25307W        W93701   3.461  14.918  12.787
25308W        W93702   6.595  40.777   2.352
25309W        W93703  36.356  23.248  11.121
25310W        W93704  16.062  43.769  12.145
25311W        W93705  12.290   6.756  12.556
25312W        W93706  34.787   6.619  11.505
25313W        W93707  31.252   9.341   1.800
25314W        W93708   4.027  15.852   4.976
25315W        W93709  11.841  14.265   2.228
25316W        W93710   5.228  10.832  13.369
25317W        W93711  42.109  41.344   4.524
25318W        W93712  25.890   8.439  13.854
25319W        W93713  36.102  21.359  12.194
25320W        W93714  44.046  24.929  11.078
25321W        W93715  34.877  18.356  11.182
25322W        W93716  18.657   8.371  14.069
25323W        W93717  27.618   8.784  14.441
25324W        W93718  32.066  19.358   2.410
25325W        W93719  33.582   0.019  13.666
25326W        W93720  33.616  33.308   2.499
25327W        W93721  31.216   1.779  10.345
25328W        W93722  23.235   5.274  14.805
25329W        W93723  13.884  23.187   2.357
25330W        W93724  32.863  39.544  12.902
25331W        W93725   9.236  33.971   3.788
25332W        W93726  40.716   5.324   3.260
25333W        W93727   1.157  19.765   4.499
25334W        W93728  39.442   3.216   2.159
25335W        W93729  42.055   9.692   0.854
25336W        W93730  40.025   6.277  12.010
25337W        W93731   0.514  40.278   2.749
25338W        W93732  12.387   4.683  14.114
25339W        W93733  40.491   7.259  13.034
25340W        W93734  29.706  27.558   0.037
25341W        W93735  24.595  43.439   2.184
25342W        W93736  40.612   9.135   2.389
25343W        W93737  33.960  39.822   2.767
25344W        W93738  27.560  41.883   0.748
25345W        W93739  43.847  43.349  12.564
25346W        W93740   1.549  12.911  11.247
25347W        W93741   6.195  22.899  12.532
25348W        W93742   9.008  40.080  11.769
25349W        W93743  14.670  19.552  14.938
25350W        W93744  28.391  27.073  14.783
25351W        W93745  34.273  38.753  12.886
25352W        W93746  43.530   5.131  13.932
25353W        W93747  11.175  34.786   1.401
25354W        W93748  15.528  17.817  13.101
25355W        W93749  39.272   0.624  11.492
25356W        W93750  34.674  23.865   4.867
25357W        W93751  24.131   2.283  11.123
25358W        W93752  27.128  15.528   4.622
25359W        W93753   5.377   6.885  12.855
25360W        W93754  11.857   8.848   1.436
25361W        W93755  15.617  26.491   0.027
25362W        W93756  39.415  40.352   0.674
25363W        W93757   6.941  10.230   4.403
25364W        W93758   6.699  25.129   3.175
25365W        W93759  14.350  18.532   2.288
25366W        W93760  39.491  28.556   1.812
25367W        W93761   4.036  35.307  14.445
25368W        W93762  32.033  13.209  10.277
25369W        W93763   7.592  16.119  13.910
25370W        W93764   3.799  10.390   1.847
25371W        W93765  38.706  12.289   3.021
25372W        W93766  29.715  14.442   0.910
25373W        W93767  31.818  40.202  13.040
25374W        W93768  16.785  19.228  12.996
25375W        W93769   3.711  26.945   4.961
25376W        W93770  39.849  29.786   1.664
25377W        W93771  21.883  26.026   0.727
25378W        W93772  30.032  27.950   3.719
25379W        W93773   0.446  25.207   0.312
25380W        W93774  13.754  17.623   4.869
25381W        W93775  27.551  15.652  11.971
25382W        W93776  30.364  28.077   1.859
25383W        W93777  34.485   3.831   2.734
25384W        W93778  32.612  44.147  12.826
25385W        W93779  28.175  24.670   0.056
25386W        W93780  17.649  22.958   3.244
25387W        W93781  42.419  42.832  10.620
25388W        W93782  35.381  34.073   2.866
25389W        W93783   2.407  35.911   3.690
25390W        W93784  39.915  30.607  12.503
25391W        W93785  22.640  20.067   3.656
25392W        W93786   2.938  19.056  11.264
25393W        W93787   3.411  37.338   0.041
25394W        W93788  22.954  25.046   2.727
25395W        W93789  17.724  36.120   0.867
25396W        W93790   0.496  39.384   1.244
25397W        W93791  39.830  38.810  13.329
25398W        W93792   8.132  14.870   1.768
25399W        W93793   1.727  13.464  10.388
25400W        W93794   1.281  30.689  10.930
25401W        W93795  24.535  26.399   1.293
25402W        W93796  17.062   8.151   3.440
25403W        W93797   7.189   8.442   3.669
25404W        W93798  19.983  19.164   0.925
25405W        W93799  32.412   7.632  14.075
25406W        W93800  39.736  43.496  12.266
25407W        W93801   5.977  38.912  12.969
25408W        W93802   2.684  30.129  10.886
25409W        W93803  30.717  37.458   2.980
25410W        W93804   9.255   7.912   3.094
25411W        W93805   9.306  39.564   0.134
25412W        W93806  16.367  35.618  11.218
25413W        W93807  34.222   9.069  11.198
25414W        W93808  37.811  32.121  11.561
25415W        W93809  42.330   1.341  12.029
25416W        W93810   3.848   1.747  13.989
25417W        W93811  19.825  35.986   2.759
25418W        W93812   2.973   7.400   1.832
25419W        W93813  44.432  19.331   3.520
25420W        W93814  12.420   4.116  13.434
25421W        W93815   9.670  27.076  11.993
25422W        W93816  40.251  24.229   3.642
25423W        W93817  21.498  13.685   4.949
25424W        W93818  17.010  41.921   3.911
25425W        W93819  28.413  32.420  12.263
25426W        W93820   8.016   3.255  13.538
25427W        W93821  21.555  24.548   2.282
25428W        W93822  42.997   8.081  10.749
25429W        W93823  23.256  20.151   3.981
25430W        W93824  23.528  35.884  14.873
25431W        W93825  28.595  11.401  11.072
25432W        W93826  19.020  42.456   1.357
25433W        W93827  10.897  22.502   0.388
25434W        W93828  22.894  23.622   5.002
25435W        W93829   8.142  36.972   0.045
25436W        W93830   1.188  16.029  14.855
25437W        W93831  10.682  33.568  12.904
25438W        W93832  39.786   2.400   4.367
25439W        W93833  36.176  17.525  12.542
25440W        W93834  18.224  22.687   3.876
25441W        W93835   4.334  24.265   2.516
25442W        W93836  10.384  41.559   2.362
25443W        W93837  10.703  24.072  11.434
25444W        W93838  21.317   0.579   0.031
25445W        W93839  31.060  39.067  13.237
25446W        W93840  25.484  24.679   0.800
25447W        W93841  24.574  27.000  11.403
25448W        W93842   3.991  15.708  13.993
25449W        W93843  31.270  44.384  13.317
25450W        W93844  32.253  41.463  11.660
25451W        W93845  43.856  38.810  13.766
25452W        W93846  36.780  20.985   2.754
25453W        W93847  44.388  16.300   3.247
25454W        W93848  44.277  29.497  14.036
25455W        W93849  43.285  22.157   1.764
25456W        W93850   5.931  27.009  14.704
25457W        W93851  10.358  44.465  10.818
25458W        W93852  21.510  29.163   4.593
25459W        W93853  35.818  40.146  13.982
25460W        W93854  16.736  12.714   1.262
25461W        W93855  23.242  14.956  12.388
25462W        W93856  43.999  25.688  13.407
25463W        W93857   4.815  44.864   3.302
25464W        W93858   9.541  25.101  13.358
25465W        W93859   3.699  18.759   1.836
25466W        W93860   9.000  40.625  11.848
25467W        W93861   5.808  13.464   1.091
25468W        W93862   1.892   7.672  11.159
25469W        W93863  26.774  15.479  14.515
25470W        W93864  12.258  18.171   1.956
25471W        W93865  24.135  36.790  12.025
25472W        W93866   3.406  18.500  14.838
25473W        W93867  31.596   5.971   4.159
25474W        W93868  23.278  39.551   1.210
25475W        W93869  35.604  36.848   4.619
25476W        W93870  44.669  32.590   3.265
25477W        W93871  41.253  23.743  14.675
25478W        W93872  39.883  15.012  14.530
25479W        W93873  19.380  35.973  12.322
25480W        W93874   4.597  15.777  14.801
25481W        W93875   6.297  35.121   0.182
25482W        W93876  11.752  31.601  13.961
25483W        W93877   2.945   3.322   4.614
25484W        W93878  24.979  33.869   4.770
25485W        W93879  28.726  10.891  13.500
25486W        W93880   0.300  20.913  10.685
25487W        W93881  13.597  22.282  13.111
25488W        W93882  23.343  32.077   3.298
25489W        W93883  34.083  18.608  12.609
25490W        W93884  24.680  33.978  13.372
25491W        W93885  22.412  42.437  12.874
25492W        W93886  44.299   8.859  13.787
25493W        W93887  26.981  24.082  11.995
25494W        W93888   2.240  39.292   3.877
25495W        W93889  33.817  43.230  10.679
25496W        W93890  11.529  22.652  14.007
25497W        W93891  13.831  11.829  10.702
25498W        W93892  22.959  36.833   3.300
25499W        W93893  21.801  31.309  13.983
25500W        W93894  33.766  40.011   3.260
25501W        W93895  30.851   0.333  12.367
25502W        W93896   2.436  24.851   5.156
25503W        W93897  39.963  15.400   4.872
25504W        W93898   4.172   4.999   0.208
25505W        W93899  31.006  34.364  10.357
25506W        W93900  44.973   0.063  13.030
25507W        W93901   4.827  40.930   0.372
25508W        W93902  32.985  43.406  11.598
25509W        W93903  40.170  27.416   2.284
25510W        W93904   7.303  34.347   0.303
25511W        W93905  37.504  43.216   4.857
25512W        W93906  34.907  18.241   0.436
25513W        W93907  12.781  30.365   4.203
25514W        W93908  37.120  30.939  12.260
25515W        W93909  20.263  41.657   1.372
25516W        W93910  14.395  29.974   1.205
25517W        W93911  16.086  34.156   2.788
25518W        W93912  43.997   0.339  14.360
25519W        W93913   6.496  43.960   2.784
25520W        W93914   6.816  12.327  12.478
25521W        W93915  27.500  16.235   4.698
25522W        W93916   2.733  25.410   0.428
25523W        W93917  30.427  25.947   0.873
25524W        W93918   8.813  42.413  10.690
25525W        W93919  12.714  29.535  10.726
25526W        W93920  12.244  36.421  12.381
25527W        W93921  35.979  36.001  13.312
25528W        W93922  14.625  31.654   1.576
25529W        W93923  41.399  34.205   4.033
25530W        W93924  22.892  32.986  11.476
25531W        W93925  15.113  37.136   4.564
25532W        W93926  41.983  24.887   1.890
25533W        W93927  43.732  31.903   1.853
25534W        W93928  31.643   8.493  12.510
25535W        W93929  29.092  11.201   4.631
25536W        W93930  44.340  40.245   1.296
25537W        W93931  23.859  41.069   3.666
25538W        W93932  37.910  13.866   4.753
25539W        W93933  31.966  15.629  14.818
25540W        W93934  24.805  35.521   0.360
25541W        W93935  43.934  15.110   0.259
25542W        W93936  16.703  14.098  11.210
25543W        W93937  22.507  42.880  10.776
25544W        W93938  37.018  31.413   2.958
25545W        W93939  22.630  24.418  12.066
25546W        W93940  33.084  38.516  10.892
25547W        W93941  41.000  15.429   3.367
25548W        W93942  38.976  44.631  13.003
25549W        W93943  31.909   3.525   0.298
25550W        W93944  38.847   4.941   0.301
25551W        W93945  17.815   9.002  11.698
25552W        W93946   3.207   7.643  14.790
25553W        W93947  15.290  33.916   1.405
25554W        W93948   1.829  23.809   4.577
25555W        W93949  13.328  20.666   4.987
25556W        W93950  14.010   1.743   1.909
25557W        W93951  11.538  42.284   4.160
25558W        W93952  17.996  14.633   3.557
25559W        W93953  33.161   4.269  13.342
25560W        W93954  22.932  20.914   1.792
25561W        W93955   5.719   8.445  14.374
25562W        W93956  14.782  29.552  10.363
25563W        W93957  22.448  42.453   3.473
25564W        W93958  28.499  40.099  12.696
25565W        W93959  19.184  42.795  11.427
25566W        W93960  16.989  25.472   0.829
25567W        W93961  23.183  27.236   4.022
25568W        W93962   3.511  41.592  14.795
25569W        W93963  24.090  30.382  14.507
25570W        W93964  33.202  13.998  11.194
25571W        W93965   6.264  37.028   4.189
25572W        W93966  37.560   3.714  14.381
25573W        W93967  22.161   8.187   3.954
25574W        W93968  34.049  41.186  14.909
25575W        W93969   8.282  22.343  13.789
25576W        W93970   2.932  16.544   1.429
25577W        W93971  16.743  31.465  11.603
25578W        W93972  23.536  24.563   4.518
25579W        W93973  15.395  28.734   0.010
25580W        W93974   0.925   4.737   2.319
25581W        W93975  31.533  16.320   1.678
25582W        W93976  29.895   0.869  14.249
25583W        W93977   5.531  23.177   3.322
25584W        W93978  32.937  11.135  12.552
25585W        W93979  36.176  34.517  12.472
25586W        W93980  23.740  40.571  14.547
25587W        W93981   2.247  30.511  11.564
25588W        W93982   6.257  12.272   2.435
25589W        W93983  27.630  13.594   3.687
25590W        W93984  28.865   6.417   1.876
25591W        W93985   3.204  25.538   0.577
25592W        W93986   1.854  26.362   2.404
25593W        W93987  23.292  28.535   4.613
25594W        W93988  14.541  44.920  13.369
25595W        W93989   2.858  16.271   4.244
25596W        W93990  22.601   6.352  13.416
25597W        W93991  33.430   9.808  11.116
25598W        W93992  42.459  18.059   2.647
25599W        W93993  24.258   3.749   4.111
25600W        W93994  35.623  39.622   0.691
25601W        W93995  40.980  33.645   1.906
25602W        W93996  18.811   3.857   2.831
25603W        W93997   4.497   0.709  11.071
25604W        W93998  12.185  30.030   2.324
25605W        W93999   6.463  22.980   3.576
25606W        W94000  22.273  24.781   4.101
25607W        W94001  29.107  44.352  10.151
25608W        W94002   3.054  14.695   0.417
25609W        W94003   4.661   4.327  11.113
25610W        W94004  27.569   4.694   0.815
25611W        W94005   2.298  25.801  10.723
25612W        W94006  36.649  11.613  10.289
25613W        W94007  34.530  42.960  12.378
25614W        W94008  13.343  27.117  12.367
25615W        W94009  28.428  16.306   4.888
25616W        W94010  44.195   5.951  11.029
25617W        W94011  26.620   5.925   1.381
25618W        W94012   7.493  31.070   3.837
25619W        W94013  15.719  34.296   0.359
25620W        W94014   0.886   8.722   1.420
25621W        W94015  35.260  37.281  13.786
25622W        W94016  35.493  32.453  11.537
25623W        W94017  15.384  40.459   3.108
25624W        W94018  18.174  29.538   2.862
25625W        W94019   7.777  37.262   4.161
25626W        W94020  23.316  40.867   1.106
25627W        W94021  16.058   1.780   0.953
25628W        W94022  14.439  29.674   2.691
25629W        W94023   4.621  28.243  14.782
25630W        W94024  29.634  15.864  10.274
25631W        W94025  44.563   7.945   3.252
25632W        W94026  34.169   3.943   4.520
25633W        W94027  44.189  33.648   0.257
25634W        W94028   6.900  35.606   2.754
25635W        W94029   2.298  27.742  11.474
25636W        W94030  44.749  42.747   4.102
25637W        W94031  33.709  42.018   0.436
25638W        W94032  39.638   4.463  12.127
25639W        W94033  25.681   2.157  11.218
25640W        W94034  22.643  33.322  11.132
25641W        W94035  42.080  24.381   1.741
25642W        W94036   9.164  39.000  12.445
25643W        W94037   1.260  13.664  10.343
25644W        W94038  30.092  10.872  13.605
25645W        W94039  26.055  38.322   2.312
25646W        W94040   8.252   9.811   1.929
25647W        W94041  32.697  31.444   3.773
25648W        W94042   2.810  44.020   3.688
25649W        W94043   5.306   6.788   4.416
25650W        W94044  26.145   3.326  13.536
25651W        W94045  35.030  15.495  12.811
25652W        W94046   7.674  38.776   1.891
25653W        W94047   1.259  18.271  10.505
25654W        W94048   4.949  33.148  13.907
25655W        W94049  33.325   2.337  12.390
25656W        W94050  39.402  21.431   2.360
25657W        W94051  26.592  24.209  13.148
25658W        W94052  31.630  11.234   3.371
25659W        W94053  34.915   9.790  13.890
25660W        W94054  20.787  16.059  11.268
25661W        W94055  13.613  29.665  13.510
25662W        W94056  31.648  36.430  10.920
25663W        W94057   2.892  17.644   3.088
25664W        W94058  32.025   2.988  13.402
25665W        W94059   9.205  44.960  12.548
25666W        W94060   8.277  16.552   2.417
25667W        W94061   4.117   5.835   0.008
25668W        W94062  36.945  43.502  13.411
25669W        W94063  22.908  42.958   1.271
25670W        W94064  29.727  38.135  11.125
25671W        W94065  27.552   9.330   2.724
25672W        W94066   9.198  41.951   4.679
25673W        W94067   2.288  39.376  11.597
25674W        W94068   7.733  31.583  14.204
25675W        W94069  33.324  17.376  13.212
25676W        W94070  35.806   8.336  12.333
25677W        W94071  19.004  28.135  13.585
25678W        W94072   9.681  42.694   1.717
25679W        W94073   4.402   1.269   4.130
25680W        W94074   8.399  16.212  14.411
25681W        W94075   9.124   3.228   2.357
25682W        W94076  38.162  37.946  13.526
25683W        W94077  19.734   5.327   2.234
25684W        W94078  40.073  37.310  10.568
25685W        W94079  34.808  28.472  14.723
25686W        W94080  29.463  39.985   3.464
25687W        W94081  26.928   7.000  11.770
25688W        W94082   5.889  26.074   1.883
25689W        W94083  35.148  43.668  10.754
25690W        W94084  16.023  19.216  13.336
25691W        W94085   0.944  17.212   2.708
25692W        W94086  20.202  18.326   3.674
25693W        W94087  37.493   2.465  10.643
25694W        W94088  19.809  25.106  10.320
25695W        W94089   1.333   0.662  11.530
25696W        W94090  33.173   7.025   4.268
25697W        W94091  41.445  33.350   2.343
25698W        W94092  16.109  15.327   0.756
25699W        W94093  38.417  15.126  12.478
25700W        W94094   4.002  16.220   9.715
25701W        W94095  40.473   9.135  11.924
25702W        W94096   7.625  24.672  14.378
25703W        W94097  30.665   3.601  11.308
25704W        W94098  24.234  14.163  14.343
25705W        W94099  29.906  42.029   1.674
25706W        W94100  40.809  33.384  13.797
25707W        W94101  14.112  24.071   2.138
25708W        W94102  20.727  34.273   3.260
25709W        W94103  15.195  17.587  14.857
25710W        W94104  42.143  39.461  10.660
25711W        W94105  13.435   2.996   1.983
25712W        W94106  12.886  12.400  12.928
25713W        W94107  16.059   9.428   3.709
25714W        W94108  38.072  28.602  12.058
25715W        W94109   7.934   5.967  14.512
25716W        W94110  43.609  23.792   4.583
25717W        W94111  36.927  36.532   0.195
25718W        W94112   8.619  11.875  11.442
25719W        W94113  23.751  30.193   4.734
25720W        W94114   5.223  12.748  13.422
25721W        W94115  29.674  38.354  11.597
25722W        W94116  22.725  41.262   4.185
25723W        W94117  19.752  11.415   0.460
25724W        W94118  14.481   9.667  13.182
25725W        W94119   6.179  36.901   0.733
25726W        W94120  27.508   2.930  14.265
25727W        W94121  40.069  18.753  10.480
25728W        W94122   6.150  20.040   3.387
25729W        W94123  13.626  20.138  11.663
25730W        W94124   8.868  12.983  13.045
25731W        W94125  29.603  11.034  13.470
25732W        W94126  34.339  28.632   1.895
25733W        W94127  41.361  34.301  11.002
25734W        W94128  41.100  19.070  14.669
25735W        W94129   7.416   0.533  10.647
25736W        W94130  35.905   3.458   1.438
25737W        W94131  33.408  15.178  12.465
25738W        W94132  33.633  10.916  12.919
25739W        W94133  21.960  44.949   0.791
25740W        W94134   1.921   0.358   3.522
25741W        W94135  23.295   2.429   1.257
25742W        W94136  42.634  39.705  10.648
25743W        W94137  17.107  28.761   2.871
25744W        W94138  37.603  27.077  11.640
25745W        W94139  42.406  21.875  10.783
25746W        W94140  35.427  12.411   2.772
25747W        W94141   8.263  15.690  14.445
25748W        W94142  19.792  16.081  12.455
25749W        W94143  27.600  17.876  11.188
25750W        W94144  15.703  38.587   3.808
25751W        W94145  24.954  37.257   2.593
25752W        W94146  21.151   4.401  13.492
25753W        W94147   2.496  40.078  12.007
25754W        W94148  37.875  41.744  13.904
25755W        W94149  17.287   3.478  13.556
25756W        W94150  30.009  37.582   0.870
25757W        W94151  35.317  14.601  12.966
25758W        W94152   4.981  22.297   2.642
25759W        W94153   0.306  27.649   2.638
25760W        W94154   8.190  43.039  13.064
25761W        W94155   0.060  28.150   2.596
25762W        W94156  42.755  26.542   2.384
25763W        W94157  31.489   7.662  13.842
25764W        W94158  20.028  39.104  12.402
25765W        W94159  11.880  34.110   1.342
25766W        W94160   9.421  26.971   2.637
25767W        W94161  11.199  17.997   2.687
25768W        W94162  41.248  17.137  14.461
25769W        W94163   9.675  24.500   5.161
25770W        W94164  23.039   7.629   4.839
25771W        W94165  40.746   8.939   1.918
25772W        W94166  30.362   4.780   2.588
25773W        W94167  24.564  37.035  12.146
25774W        W94168   9.357  21.029   3.146
25775W        W94169   9.921  13.591   2.768
25776W        W94170  43.715  34.368  14.999
25777W        W94171  42.557   3.301  13.924
25778W        W94172  33.364  19.292   0.325
25779W        W94173   6.859  26.232   3.701
25780W        W94174  28.679  30.957   3.542
25781W        W94175   1.413   8.359  11.705
25782W        W94176   9.946   3.292  12.920
25783W        W94177   9.073  39.910   4.077
25784W        W94178  32.179  21.587  11.206
25785W        W94179  22.023   6.859   0.427
25786W        W94180   2.730  27.563   2.356
25787W        W94181   5.445  33.616  10.766
25788W        W94182  23.494  20.892  13.772
25789W        W94183  29.967  17.188  11.396
25790W        W94184  44.725   0.014   2.751
25791W        W94185  39.817  26.531   2.210
25792W        W94186  27.435  27.610   3.251
25793W        W94187  32.212   7.365  11.159
25794W        W94188  40.061  12.351   0.479
25795W        W94189  14.517   3.608  11.009
25796W        W94190  39.645  30.920   4.952
25797W        W94191  14.857  42.910  12.847
25798W        W94192  17.114  36.666   3.830
25799W        W94193  38.866  36.442   0.653
25800W        W94194  14.045  13.710   2.348
25801W        W94195   2.233   0.056   1.919
25802W        W94196   5.094  10.352   3.608
25803W        W94197  17.230   6.649   0.426
25804W        W94198  16.575  44.615  13.223
25805W        W94199  39.293  40.283  13.188
25806W        W94200  23.551  44.453  10.677
25807W        W94201   6.894   3.960   0.945
25808W        W94202  25.873  25.161  11.030
25809W        W94203  19.805   7.191  13.734
25810W        W94204   9.385  33.408  11.162
25811W        W94205  29.026  30.986   2.306
25812W        W94206  14.745  35.394  11.472
25813W        W94207  11.604  33.351  12.072
25814W        W94208  37.761   9.535   0.339
25815W        W94209  39.508  14.773   0.350
25816W        W94210   5.255  15.345   5.169
25817W        W94211   8.105  24.672   2.727
25818W        W94212  18.247  16.011   1.809
25819W        W94213  24.800  16.480   1.278
25820W        W94214  43.248  36.937  13.339
25821W        W94215  37.423  25.097  13.814
25822W        W94216   1.822  35.737   1.739
25823W        W94217  25.051  22.759  14.277
25824W        W94218  37.029  30.692   1.298
25825W        W94219   4.561  34.581  11.471
25826W        W94220  14.127   5.449  10.292
25827W        W94221  19.457  20.158  10.716
25828W        W94222   7.270  33.441  11.996
25829W        W94223   7.723  40.433  13.280
25830W        W94224   1.082  18.543   2.268
25831W        W94225  34.541  31.812   2.676
25832W        W94226  12.343  40.581  14.778
25833W        W94227  38.889   4.359   3.962
25834W        W94228  40.061   7.929  14.804
25835W        W94229  32.482  17.477  11.962
25836W        W94230  36.475   2.727   4.948
25837W        W94231   4.877  18.804   1.245
25838W        W94232  43.610  16.708   3.315
25839W        W94233   8.418  15.183  14.544
25840W        W94234  24.243  19.971   4.121
25841W        W94235  20.746  15.758   1.172
25842W        W94236  15.094  42.831   2.318
25843W        W94237  44.428  35.116  14.252
25844W        W94238   7.794  33.601  11.634
25845W        W94239  10.674  29.914   2.423
25846W        W94240  32.562   7.479  11.525
25847W        W94241  10.221  37.047  10.535
25848W        W94242   8.357  33.383   4.698
25849W        W94243  35.992  10.259   0.994
25850W        W94244  31.899   0.005  12.311
25851W        W94245  40.162  36.658   1.895
25852W        W94246  27.589  29.169  11.598
25853W        W94247  16.487  23.011   0.732
25854W        W94248  25.112  17.306  14.664
25855W        W94249   7.181  39.459   4.284
25856W        W94250   6.523   0.443   4.041
25857W        W94251  42.249  26.513  13.356
25858W        W94252  33.058  33.602   0.542
25859W        W94253   4.384  37.876  12.067
25860W        W94254  21.184  33.633   0.831
25861W        W94255  18.780  32.117   0.327
25862W        W94256  14.767  31.456   3.887
25863W        W94257  15.626  10.815  13.764
25864W        W94258  37.036  16.587   3.301
25865W        W94259  21.459  34.908   2.767
25866W        W94260  38.578  16.145  11.538
25867W        W94261  19.460  40.566  13.045
25868W        W94262   9.403  24.095   0.988
25869W        W94263  41.932  14.265  11.175
25870W        W94264  10.339  31.291  13.336
25871W        W94265   5.736  29.476   0.945
25872W        W94266  23.508  27.704   1.018
25873W        W94267  22.765  30.734   0.790
25874W        W94268  27.141  28.480   0.492
25875W        W94269   7.838  38.425  12.164
25876W        W94270  34.020  23.718  14.818
25877W        W94271  41.505  25.398  13.846
25878W        W94272  24.065  32.419   0.679
25879W        W94273  22.756  20.109   0.481
25880W        W94274  28.883  15.797  13.886
25881W        W94275  25.428  31.079   1.839
25882W        W94276  43.314  36.613   3.524
25883W        W94277  43.204  13.114  10.305
25884W        W94278  22.243   7.596  11.031
25885W        W94279  20.955  15.430   2.143
25886W        W94280  37.797  32.745   1.651
25887W        W94281   6.911  31.503   4.630
25888W        W94282  36.353  43.505   0.898
25889W        W94283   3.375  22.119   4.111
25890W        W94284   1.372  32.005  10.339
25891W        W94285  34.922   2.542   4.257
25892W        W94286   5.973  42.016  12.915
25893W        W94287  31.544  19.665  11.273
25894W        W94288   4.741  16.575  11.689
25895W        W94289  43.654   8.481   1.604
25896W        W94290   2.070  16.039  12.951
25897W        W94291  20.307   6.923   1.175
25898W        W94292  36.775   7.311  12.537
25899W        W94293  18.817  29.794  10.677
25900W        W94294   6.789  16.361  12.095
25901W        W94295   8.237   7.572   0.623
25902W        W94296  13.575  22.668   4.160
25903W        W94297  20.477  22.799   4.603
25904W        W94298  15.341   1.346   0.925
25905W        W94299  42.482  35.960  13.037
25906W        W94300  29.195  17.821  10.619
25907W        W94301  39.962  13.599   3.097
25908W        W94302  25.535  28.701   1.342
25909W        W94303   4.672  36.602  13.955
25910W        W94304  28.493   5.787  11.900
25911W        W94305   9.186   5.354   3.104
25912W        W94306  22.118   8.371   2.009
25913W        W94307   3.716  33.247  11.297
25914W        W94308   9.461  18.609   3.941
25915W        W94309  16.642  39.905   4.160
25916W        W94310  40.989   0.869   4.178
25917W        W94311  12.852  35.626   2.688
25918W        W94312   7.211  21.194  10.786
25919W        W94313  13.065  41.352  14.713
25920W        W94314  11.455  41.296   4.127
25921W        W94315  42.940  19.189  12.885
25922W        W94316   2.398  42.544  11.498
25923W        W94317  24.759  25.419   2.764
25924W        W94318   9.330  11.206  11.958
25925W        W94319  32.644  39.790   1.314
25926W        W94320   1.719  27.783  13.415
25927W        W94321  29.479  41.182   2.800
25928W        W94322  14.105  19.633  13.294
25929W        W94323  29.847  39.502  14.990
25930W        W94324  26.011  34.192   1.302
25931W        W94325  11.131  25.554   2.688
25932W        W94326  10.058   8.215  12.114
25933W        W94327  34.801  14.994   4.062
25934W        W94328   2.314  29.605   4.224
25935W        W94329  43.553  13.910  14.372
25936W        W94330   9.286  10.118   3.648
25937W        W94331  26.394  22.101  11.770
25938W        W94332  44.270  44.016   0.914
25939W        W94333  20.379  40.584  10.754
25940W        W94334  12.584  15.345   2.288
25941W        W94335  21.567   0.565  14.403
25942W        W94336  18.343  21.620  13.530
25943W        W94337   5.147  13.283   0.311
25944W        W94338  36.450  41.342  12.838
25945W        W94339  13.273   8.296  14.517
25946W        W94340   6.186  33.557  13.190
25947W        W94341  25.831  40.527   1.693
25948W        W94342  15.814  24.061  13.830
25949W        W94343  29.379  35.973   1.083
25950W        W94344  33.098   2.392  10.692
25951W        W94345  34.571  17.502  10.633
25952W        W94346  27.205   6.827  10.964
25953W        W94347  43.807  13.348   1.518
25954W        W94348   4.827  22.975   1.129
25955W        W94349  10.234  41.428  10.721
25956W        W94350   0.878  19.373   1.989
25957W        W94351  28.618  25.728  11.449
25958W        W94352  37.817  28.219  13.250
25959W        W94353  27.587   1.823   0.960
25960W        W94354  26.701  11.748  14.966
25961W        W94355  28.102  20.124   0.171
25962W        W94356  33.950   3.824   3.604
25963W        W94357  13.335   2.315  11.975
25964W        W94358  27.731  36.549  13.943
25965W        W94359  34.552  27.430  14.313
25966W        W94360  19.686  12.346  12.038
25967W        W94361  25.430   7.370   3.568
25968W        W94362  41.041  20.614   2.876
25969W        W94363  43.562  14.308   1.744
25970W        W94364  17.065  20.456  11.023
25971W        W94365  22.740  16.195   0.747
25972W        W94366   5.879  14.829  12.625
25973W        W94367  43.641  17.274   4.256
25974W        W94368   2.388   2.585   4.231
25975W        W94369   1.991  26.907   0.716
25976W        W94370  12.680  39.927   2.414
25977W        W94371  22.355   7.202  11.952
25978W        W94372  26.518  44.946   4.120
25979W        W94373  17.454  14.149  11.678
25980W        W94374  14.227   4.744   4.062
25981W        W94375  37.530  18.633   0.677
25982W        W94376  21.256  39.094  12.582
25983W        W94377  38.537  17.948   4.845
25984W        W94378   4.936   7.434   2.495
25985W        W94379  22.069   5.450   1.872
25986W        W94380   8.938  44.014  13.565
25987W        W94381  25.661  30.616   1.699
25988W        W94382  31.805   4.782   4.667
25989W        W94383   5.767   0.277   3.913
25990W        W94384  32.359  39.054  13.292
25991W        W94385  36.254  16.416   3.605
25992W        W94386  38.953  26.686   3.896
25993W        W94387  20.758   2.271   0.086
25994W        W94388  13.625  39.054   4.105
25995W        W94389  28.850  40.361   0.179
25996W        W94390  16.806  26.518  14.943
25997W        W94391  39.205  26.277   0.681
25998W        W94392  25.004   8.756  11.913
25999W        W94393   0.870  26.029   0.726
26000W        W94394  37.331   9.829   0.407
26001W        W94395  28.689  12.611  10.581
26002W        W94396  41.458  30.218   4.636
26003W        W94397  41.035   1.085  10.710
26004W        W94398   2.375   1.043   3.223
26005W        W94399  19.996  12.876  14.541
26006W        W94400  38.151  33.262  14.033
26007W        W94401  18.282  23.565   3.835
26008W        W94402  17.235  25.354  11.582
26009W        W94403  27.620  37.470   3.557
26010W        W94404  35.872  39.413   2.691
26011W        W94405  29.121  34.449   0.232
26012W        W94406  28.401   3.231  13.784
26013W        W94407  21.534  13.445   0.369
26014W        W94408   4.986  20.773  14.520
26015W        W94409  13.130   3.983  12.015
26016W        W94410  18.559   3.675   0.433
26017W        W94411  44.359  24.687   0.760
26018W        W94412   8.121   2.415  10.217
26019W        W94413  16.171  40.980   3.135
26020W        W94414  16.267  10.651  14.903
26021W        W94415  39.946  16.250   4.591
26022W        W94416  12.551  17.137   2.311
26023W        W94417  25.103   2.370   2.332
26024W        W94418  17.178  19.157   4.561
26025W        W94419   9.822  26.861  10.114
26026W        W94420  37.292  19.499  14.818
26027W        W94421  15.050   6.137   0.219
26028W        W94422  30.363  19.212   0.568
26029W        W94423  15.556   3.736   3.415
26030W        W94424  28.553  28.535  10.449
26031W        W94425   7.479  35.915  13.355
26032W        W94426  42.582  41.871  14.260
26033W        W94427   1.454  27.508  12.786
26034W        W94428  34.495  29.704   3.780
26035W        W94429  21.171  30.794   3.869
26036W        W94430  21.209  22.107   3.676
26037W        W94431  30.184   3.174  10.289
26038W        W94432  37.928   4.172  11.712
26039W        W94433  44.444  39.802   0.380
26040W        W94434  24.048  15.328   0.441
26041W        W94435  35.598  43.877   3.374
26042W        W94436  20.217  10.128  13.728
26043W        W94437  43.324   9.766   4.461
26044W        W94438  31.697  41.195  12.831
26045W        W94439   8.146  37.657   0.340
26046W        W94440   2.992  23.133  12.532
26047W        W94441   6.155  44.040  12.080
26048W        W94442   0.820   6.300   4.172
26049W        W94443  42.460  30.370   4.720
26050W        W94444   0.734  23.800  12.588
26051W        W94445   2.383  30.737   9.824
26052W        W94446  38.608   3.902   0.383
26053W        W94447  35.617   2.338   1.402
26054W        W94448   4.592  16.146   2.356
26055W        W94449  26.721  33.228   4.155
26056W        W94450  43.956  29.416   0.899
26057W        W94451  11.973   6.078  14.507
26058W        W94452  40.091  37.120   2.799
26059W        W94453  29.185  38.895   0.841
26060W        W94454   5.209  33.364  14.641
26061W        W94455  42.947  11.606  14.307
26062W        W94456  37.542  20.560  11.574
26063W        W94457  20.073  15.798  11.133
26064W        W94458  25.368  32.739  12.638
26065W        W94459  18.031  18.053   2.739
26066W        W94460  16.232   8.016  11.260
26067W        W94461   1.966  23.460   1.846
26068W        W94462  39.421  37.435  13.762
26069W        W94463   3.011  43.360   3.246
26070W        W94464  14.120  30.654   4.206
26071W        W94465  29.066  37.455   3.841
26072W        W94466  33.962  26.569   4.832
26073W        W94467  20.794  16.819  11.646
26074W        W94468   4.900  19.537  14.977
26075W        W94469  41.134  33.293  14.784
26076W        W94470  11.705   1.460  12.877
26077W        W94471  38.020  40.685  11.197
26078W        W94472  11.447  29.059  12.085
26079W        W94473  43.551  36.482  12.613
26080W        W94474   1.403  39.431   2.108
26081W        W94475  14.250   5.236   2.008
26082W        W94476  28.173   7.813   1.725
26083W        W94477  18.297  42.915  14.061
26084W        W94478  37.093  33.032   3.854
26085W        W94479  15.709  33.473   1.766
26086W        W94480   1.837  34.876   2.162
26087W        W94481  43.315  18.582   3.942
26088W        W94482  10.672  10.950  10.982
26089W        W94483  33.856  22.248  12.630
26090W        W94484  44.741   7.149  12.218
26091W        W94485  28.737  13.413  14.593
26092W        W94486  20.790  30.567   3.605
26093W        W94487   0.375  20.762  11.208
26094W        W94488  10.609  11.223  13.459
26095W        W94489  44.656  23.786  13.850
26096W        W94490  31.100  13.771   2.901
26097W        W94491  40.059  15.245   0.915
26098W        W94492   5.677  32.658  14.873
26099W        W94493  41.637  38.324  13.925
26100W        W94494  34.103   1.794   2.291
26101W        W94495  16.792  20.065  11.691
26102W        W94496  34.718  18.199  10.511
26103W        W94497   2.900  29.628  14.060
26104W        W94498  30.025  18.972  11.566
26105W        W94499   6.017  29.520   1.377
26106W        W94500  28.618  38.055   2.694
26107W        W94501  40.052  13.755  14.488
26108W        W94502   7.196   8.869  14.259
26109W        W94503  19.133   5.622  11.012
26110W        W94504  36.449  43.074   4.199
26111W        W94505   0.244  24.128  14.636
26112W        W94506  16.560  14.812  13.805
26113W        W94507   1.524  20.653  12.585
26114W        W94508  29.467  33.031  10.427
26115W        W94509   7.647  21.527   1.280
26116W        W94510  44.250  37.128  12.372
26117W        W94511   7.335  38.819   3.210
26118W        W94512  10.355   8.442   9.971
26119W        W94513  38.925   4.248  11.657
26120W        W94514  30.393  13.756   3.565
26121W        W94515  20.173  31.244   4.921
26122W        W94516  25.247  20.674   3.807
26123W        W94517  31.502   0.242   3.977
26124W        W94518  18.389  28.589  10.688
26125W        W94519  12.269  12.886   0.543
26126W        W94520   2.700   2.793   1.181
26127W        W94521  24.941  18.199  12.335
26128W        W94522  33.034  41.965   3.206
26129W        W94523  38.988  11.897   0.815
26130W        W94524  11.056   6.864  14.915
26131W        W94525  39.590  15.113  13.566
26132W        W94526  11.550  12.060  14.661
26133W        W94527  19.111   3.430   2.815
26134W        W94528   0.423  36.711   1.146
26135W        W94529  35.480  41.985  10.687
26136W        W94530  44.480   6.431  10.706
26137W        W94531  37.421   0.910   0.566
26138W        W94532  18.335  20.230   0.176
26139W        W94533  10.057  12.208   4.522
26140W        W94534  13.571  32.493  14.640
26141W        W94535  18.868  12.796   3.704
26142W        W94536  35.376  37.805  14.723
26143W        W94537  40.041  28.587  13.256
26144W        W94538  19.316  28.279  13.980
26145W        W94539  16.040  12.932  11.630
26146W        W94540  28.343  33.612   3.299
26147W        W94541  31.054  22.995   2.271
26148W        W94542  18.922  30.974   3.234
26149W        W94543  28.643   1.063  10.445
26150W        W94544  11.816  40.842  14.608
26151W        W94545  15.971  27.183   1.881
26152W        W94546   8.058  35.438   0.373
26153W        W94547  24.722  44.726   0.877
26154W        W94548  38.565  27.969  12.613
26155W        W94549  42.274  42.924  12.818
26156W        W94550  12.720  18.795  11.467
26157W        W94551   2.784  26.536   1.362
26158W        W94552  36.995   4.717   3.352
26159W        W94553  31.057  14.172  10.374
26160W        W94554   0.327  22.268  14.525
26161W        W94555  38.936  12.126  14.820
26162W        W94556  40.540  18.265  14.963
26163W        W94557  35.036  32.518   2.091
26164W        W94558   4.638  37.818  14.297
26165W        W94559   6.442  34.241  13.815
26166W        W94560  24.653   8.422   1.058
26167W        W94561  15.760  43.354   0.909
26168W        W94562  11.798  39.863   2.382
26169W        W94563  19.795  22.967  11.388
26170W        W94564   0.338  39.351  13.972
26171W        W94565   0.113  42.929   5.060
26172W        W94566  27.520  26.962   0.912
26173W        W94567   2.271  42.496   2.744
26174W        W94568  18.633   7.141   5.319
26175W        W94569  20.080   3.377  13.499
26176W        W94570  18.881  41.791   0.921
26177W        W94571  22.450   2.018   3.727
26178W        W94572  12.131  12.792  12.578
26179W        W94573   8.289  41.324   0.517
26180W        W94574  34.913  23.696  11.451
26181W        W94575  43.044   2.527  15.000
26182W        W94576  24.588  27.827  14.013
26183W        W94577   4.725  23.146   4.021
26184W        W94578  32.462   5.917  14.336
26185W        W94579  37.746  15.299   4.066
26186W        W94580  36.982  29.209   0.466
26187W        W94581  19.040   0.730  14.533
26188W        W94582  39.970   7.750   4.897
26189W        W94583  20.664   4.833   0.823
26190W        W94584   9.780  33.629   1.159
26191W        W94585  44.885  13.654   0.295
26192W        W94586  30.552  11.460   0.300
26193W        W94587  23.051  23.687  14.156
26194W        W94588  25.896  28.422  13.381
26195W        W94589  16.619  39.589  14.278
26196W        W94590  13.917  27.457  13.320
26197W        W94591  40.694   0.312   1.876
26198W        W94592  37.246  34.885  14.085
26199W        W94593  41.005  31.920  12.903
26200W        W94594   8.760  13.217  11.459
26201W        W94595  40.092  43.491   1.158
26202W        W94596  33.435  37.378  10.358
26203W        W94597  23.943  17.567  14.769
26204W        W94598  43.387  42.515   0.681
26205W        W94599   2.200  44.858   0.459
26206W        W94600  17.263  30.099   4.614
26207W        W94601  35.037  41.461   0.285
26208W        W94602  38.465  27.036  14.052
26209W        W94603   7.938  27.137  10.270
26210W        W94604  35.346   0.954   2.422
26211W        W94605  15.837  19.714  12.429
26212W        W94606   3.543   3.036  11.755
26213W        W94607  32.153  36.366  14.985
26214W        W94608  44.945  11.325   4.245
26215W        W94609  41.529  30.481   2.290
26216W        W94610   2.746   2.748  12.049
26217W        W94611  41.482  26.088   3.362
26218W        W94612  15.075   9.030  13.769
26219W        W94613   8.896   6.098   0.521
26220W        W94614  20.642   4.317  12.394
26221W        W94615  44.273  43.238  10.614
26222W        W94616  24.974  14.878  14.343
26223W        W94617  41.014  36.887   1.963
26224W        W94618  36.339  19.973   0.209
26225W        W94619   2.369  38.577   2.747
26226W        W94620   7.907  43.851   1.827
26227W        W94621  22.956   6.857   2.461
26228W        W94622   2.333  35.323  10.859
26229W        W94623  31.442  30.681   4.655
26230W        W94624  33.771  38.185  14.284
26231W        W94625  22.547   3.924  14.787
26232W        W94626   9.379  14.689   4.498
26233W        W94627   6.990  34.000  12.615
26234W        W94628  35.732  14.651   4.742
26235W        W94629  12.480  12.356   4.654
26236W        W94630   7.626  21.656   0.364
26237W        W94631  20.694  10.743   3.460
26238W        W94632  37.937  29.132   1.373
26239W        W94633  19.873   7.700   1.694
26240W        W94634  12.492  13.030   4.158
26241W        W94635  32.517  11.232   1.380
26242W        W94636  42.530  15.719  13.840
26243W        W94637   6.574  13.089   1.500
26244W        W94638  23.678  23.904  11.546
26245W        W94639   4.890   3.716  11.942
26246W        W94640   7.137   1.470  12.746
26247W        W94641  29.229  20.109   0.235
26248W        W94642  30.969  32.466  11.194
26249W        W94643  26.274  27.185  12.904
26250W        W94644  41.899  28.541  14.552
26251W        W94645   9.905  39.067  14.839
26252W        W94646   1.870  17.327  12.579
26253W        W94647  35.099   1.973  12.711
26254W        W94648  40.226   0.339  11.604
26255W        W94649  38.311  34.401  10.418
26256W        W94650   0.822  43.748  13.060
26257W        W94651  43.802   5.031   3.269
26258W        W94652  13.888  35.349  11.677
26259W        W94653  24.459   1.876   4.241
26260W        W94654  17.938  32.037   3.656
26261W        W94655   7.292  33.107   0.559
26262W        W94656   7.397  36.394  13.480
26263W        W94657   2.415  25.751   4.675
26264W        W94658  37.142  31.886   2.243
26265W        W94659   4.951  16.047   9.854
26266W        W94660  29.479  31.928   5.050
26267W        W94661  21.963  17.608  14.545
26268W        W94662  43.008  26.079   4.924
26269W        W94663  22.909  15.058   3.724
26270W        W94664  17.459  42.747   3.914
26271W        W94665  41.970   9.929   1.695
26272W        W94666   2.666  41.575   3.677
26273W        W94667   7.714  42.609  12.016
26274W        W94668  37.487  30.637   0.059
26275W        W94669  44.461  30.881  13.093
26276W        W94670  26.031  13.075   3.208
26277W        W94671  21.025  22.536  11.933
26278W        W94672  40.078  26.764   2.601
26279W        W94673  44.290   0.882   1.090
26280W        W94674  39.220  15.533   4.934
26281W        W94675  41.074  28.087   3.807
26282W        W94676   1.674  17.826  12.545
26283W        W94677  19.822   9.434   2.424
26284W        W94678   1.337  44.769   3.048
26285W        W94679   9.159  44.720   0.319
26286W        W94680   6.332  19.060   1.285
26287W        W94681  39.398  21.386   4.269
26288W        W94682  24.689   9.148   3.511
26289W        W94683  33.456   8.726   1.794
26290W        W94684  15.307  18.719  12.864
26291W        W94685  37.409   2.516   2.601
26292W        W94686  27.576  42.975  12.887
26293W        W94687  36.909  23.742   0.217
26294W        W94688  13.837   3.079   2.821
26295W        W94689   7.331   4.462  11.926
26296W        W94690  34.527   2.180   4.185
26297W        W94691  31.555  21.228  11.590
26298W        W94692  44.996  32.423  14.902
26299W        W94693   6.996  36.507  11.175
26300W        W94694  10.131   2.706  11.984
26301W        W94695  32.501  21.295  13.928
26302W        W94696   2.874  12.884   1.476
26303W        W94697   9.666   2.470   3.972
26304W        W94698   6.220  31.470  11.982
26305W        W94699   0.044  35.321  13.532
26306W        W94700   9.854  14.692   2.201
26307W        W94701  33.142   7.840   0.906
26308W        W94702  40.968  39.309   9.998
26309W        W94703  10.682  33.177  14.440
26310W        W94704  15.809  18.712   1.870
26311W        W94705  33.917  40.931  12.567
26312W        W94706  26.718  25.318   0.377
26313W        W94707  28.538  38.841  14.004
26314W        W94708  38.433  38.095   2.700
26315W        W94709  25.923  29.035   1.657
26316W        W94710  33.581   5.386  10.365
26317W        W94711  37.973  43.038   5.099
26318W        W94712  39.809  20.984  14.962
26319W        W94713  25.150  15.069  12.527
26320W        W94714   2.919  36.864   4.401
26321W        W94715  27.723  30.736   2.112
26322W        W94716  43.328  18.748   1.936
26323W        W94717  44.407  43.316   1.795
26324W        W94718  40.726  23.558  11.944
26325W        W94719   8.415  18.230   4.819
26326W        W94720   1.345  14.072   3.245
26327W        W94721  39.967   8.237   4.175
26328W        W94722  44.009  28.659   4.609
26329W        W94723  20.293  40.824  11.198
26330W        W94724   2.865  19.570   3.651
26331W        W94725  13.264  27.640  12.473
26332W        W94726  12.083  19.038  14.718
26333W        W94727  12.318  35.698   4.528
26334W        W94728   8.671  32.290   3.244
26335W        W94729   0.845  41.389   9.916
26336W        W94730  43.405  27.588   0.294
26337W        W94731  41.097  42.136   3.622
26338W        W94732  30.375  40.320   3.784
26339W        W94733  39.843   3.446   2.934
26340W        W94734   1.809  14.057  11.124
26341W        W94735  36.062  21.742   0.448
26342W        W94736  43.771  44.348  11.102
26343W        W94737  42.503   2.905  11.642
26344W        W94738  24.159  41.775   2.475
26345W        W94739   4.600  25.575   2.875
26346W        W94740  23.674   2.777   1.210
26347W        W94741  16.571  26.503  11.678
26348W        W94742  24.137  27.825  12.068
26349W        W94743  19.725  12.274   4.817
26350W        W94744  43.263  17.781   2.209
26351W        W94745  36.068  39.353   0.696
26352W        W94746  31.027  27.988   4.709
26353W        W94747  16.794  32.398  14.563
26354W        W94748  37.712  26.498   3.176
26355W        W94749  40.552   9.203  13.014
26356W        W94750  27.961  40.814  13.961
26357W        W94751  38.947  35.815   0.258
26358W        W94752  32.567  14.320  13.456
26359W        W94753  40.952  43.404   3.710
26360W        W94754  20.546  18.232   2.761
26361W        W94755  28.417  37.432   4.390
26362W        W94756   0.910  44.885  12.449
26363W        W94757  26.928   9.875   1.468
26364W        W94758  35.219   2.283   0.429
26365W        W94759  38.788   5.299  12.214
26366W        W94760  37.832  16.324   2.452
26367W        W94761  37.230  24.091   2.243
26368W        W94762  11.397  33.062  12.447
26369W        W94763  41.249  38.094  14.782
26370W        W94764   7.947  16.845  12.658
26371W        W94765  31.007   2.969  14.381
26372W        W94766  33.056  12.286  10.433
26373W        W94767  19.310  29.626  10.582
26374W        W94768  38.935  34.880  11.509
26375W        W94769   1.383   4.093  14.520
26376W        W94770   6.520  23.106  10.094
26377W        W94771  28.717   0.265  14.449
26378W        W94772  37.577  39.907  12.464
26379W        W94773  12.734  19.962   2.243
26380W        W94774  41.829  32.697  11.592
26381W        W94775   8.875  11.046   1.776
26382W        W94776  44.417  43.158  13.400
26383W        W94777   2.427  43.527   4.519
26384W        W94778  16.120  22.314   4.446
26385W        W94779  11.639  37.578   3.216
26386W        W94780  41.582  44.855   0.414
26387W        W94781   0.220  17.763   4.653
26388W        W94782  23.536   4.328   3.130
26389W        W94783   5.433  43.538   4.166
26390W        W94784  13.281  30.530   4.745
26391W        W94785   4.350  31.820  12.955
26392W        W94786  15.763  26.029  13.054
26393W        W94787  18.220   0.985   4.594
26394W        W94788   2.975  13.274   2.289
26395W        W94789  36.113   0.309  11.149
26396W        W94790  18.622  14.830   0.729
26397W        W94791  37.955  14.164  11.634
26398W        W94792   8.318  19.546  13.568
26399W        W94793  32.991  16.074   1.287
26400W        W94794  16.828  30.171  13.807
26401W        W94795  25.982  25.768   3.197
26402W        W94796  31.663   1.145   4.379
26403W        W94797  25.187  23.000   3.273
26404W        W94798  12.701  37.078  14.755
26405W        W94799  15.265  40.655  13.877
26406W        W94800   0.943   2.817  14.146
26407W        W94801  13.344   0.221  13.221
26408W        W94802   4.713   3.371   1.816
26409W        W94803   7.988  25.056   1.146
26410W        W94804  21.746  39.066   1.759
26411W        W94805  25.139  38.847   1.294
26412W        W94806  14.400  14.836  11.507
26413W        W94807  16.506  12.163  13.431
26414W        W94808   2.160  11.353  12.598
26415W        W94809  39.929  44.464   0.773
26416W        W94810  40.373  10.830  14.027
26417W        W94811  28.979  10.252  11.955
26418W        W94812  16.093  42.698  13.539
26419W        W94813  41.359   8.174  13.919
26420W        W94814   7.738  32.610  11.728
26421W        W94815  14.832  37.342  11.957
26422W        W94816  38.971   3.305  12.105
26423W        W94817   0.663  44.889   1.502
26424W        W94818  13.262   4.910   2.911
26425W        W94819  14.823   1.886   1.416
26426W        W94820   6.036  43.268  14.278
26427W        W94821   6.182  36.466  13.129
26428W        W94822  39.476   4.905  13.939
26429W        W94823   8.376  16.573  12.787
26430W        W94824  20.727  35.678  12.800
26431W        W94825  33.006  20.115  10.930
26432W        W94826   6.231  43.973   1.261
26433W        W94827  29.306  32.025  11.568
26434W        W94828   8.570  14.367  12.622
26435W        W94829  24.109  36.037  12.543
26436W        W94830  23.699  17.186   0.932
26437W        W94831  18.293  42.777  10.711
26438W        W94832   8.824   9.298   3.173
26439W        W94833  20.724  38.881  11.256
26440W        W94834  32.047  27.497  14.090
26441W        W94835   9.833  10.778  12.657
26442W        W94836   2.832  24.492  13.067
26443W        W94837  25.701  39.053  12.930
26444W        W94838  32.166  39.911   0.029
26445W        W94839   1.959  21.537   4.293
26446W        W94840  28.914   9.655   4.599
26447W        W94841  24.577  24.805   2.489
26448W        W94842  44.717   5.288   1.978
26449W        W94843  23.016  19.668   0.407
26450W        W94844   9.472   4.382   3.255
26451W        W94845  26.352  43.020   3.304
26452W        W94846  15.353  19.269   0.806
26453W        W94847  11.390  36.429   4.139
26454W        W94848  15.232  41.518   4.523
26455W        W94849  24.843  19.098   0.297
26456W        W94850  11.222   8.660   2.864
26457W        W94851  22.787  27.971  13.041
26458W        W94852   2.012  12.427  13.468
26459W        W94853  33.085   8.142   2.784
26460W        W94854   8.719   0.699   4.243
26461W        W94855  41.750  20.153   4.646
26462W        W94856  18.104  35.550   4.896
26463W        W94857   7.663   0.060  10.637
26464W        W94858  12.238  17.674   0.453
26465W        W94859  22.596  28.730  14.709
26466W        W94860   8.182  20.677   3.850
26467W        W94861  38.476  43.897   3.555
26468W        W94862  43.213  34.526  14.993
26469W        W94863  38.569   5.520   2.103
26470W        W94864  23.005  12.173   1.174
26471W        W94865  24.533  41.816   2.813
26472W        W94866  44.674  44.538  14.496
26473W        W94867  22.464  13.895  14.366
26474W        W94868  19.123  28.369   5.683
26475W        W94869   2.296  30.094  10.577
26476W        W94870  28.395  24.262  11.604
26477W        W94871  42.712  33.959   3.272
26478W        W94872   9.453  26.974   9.760
26479W        W94873  21.948  23.776   1.920
26480W        W94874  29.904  13.126   1.000
26481W        W94875  18.514  36.519   4.654
26482W        W94876  42.072  15.627   4.300
26483W        W94877   7.013  32.089   4.132
26484W        W94878  19.114   1.562   4.678
26485W        W94879  29.667   8.988   2.385
26486W        W94880  30.171  21.479  11.567
26487W        W94881  39.924  44.874  11.275
26488W        W94882  35.773  12.355   0.959
26489W        W94883  26.865  29.851  11.588
26490W        W94884  40.843  36.641   1.105
26491W        W94885   7.064  38.433   4.506
26492W        W94886  13.239  14.642   3.284
26493W        W94887  23.598  13.153  10.963
26494W        W94888   8.361  11.915   3.328
26495W        W94889  34.877  16.374   4.683
26496W        W94890   4.699  36.993   4.281
26497W        W94891  22.440  27.534   3.305
26498W        W94892  30.442  37.502  13.258
26499W        W94893  38.911   3.217   2.368
26500W        W94894  20.748  36.971  13.665
26501W        W94895  13.440  42.239  12.920
26502W        W94896   9.793  21.199   4.179
26503W        W94897  22.167   0.386   0.972
26504W        W94898   8.942  29.693   4.675
26505W        W94899  18.441  19.437  12.443
26506W        W94900   2.472  25.812  12.453
26507W        W94901  18.203  23.653   4.324
26508W        W94902  39.652   3.547  10.824
26509W        W94903  19.019  40.310  13.042
26510W        W94904  16.091  36.038  10.464
26511W        W94905  12.626  35.419   4.852
26512W        W94906  24.737  34.908  12.333
26513W        W94907  12.605   0.035  14.238
26514W        W94908  28.416  14.490  14.043
26515W        W94909  29.866  36.629  14.272
26516W        W94910  18.772  29.667   3.715
26517W        W94911  36.984  37.441   0.960
26518W        W94912  36.531  37.310  11.157
26519W        W94913   3.683  24.542   1.893
26520W        W94914   4.878   7.319  12.469
26521W        W94915  16.260  33.497   1.741
26522W        W94916  32.106   1.945  13.479
26523W        W94917  21.422  10.785   5.559
26524W        W94918  12.341  19.063   1.228
26525W        W94919  28.984  18.651  11.619
26526W        W94920  12.262  41.818  13.386
26527W        W94921  31.533  29.305   0.310
26528W        W94922  21.629  11.404   3.711
26529W        W94923  30.055   5.651   2.201
26530W        W94924  12.335  26.641   1.633
26531W        W94925   0.296  14.351   0.189
26532W        W94926  41.943  14.286   5.122
26533W        W94927  22.968   3.952  11.578
26534W        W94928  12.915  25.237  13.920
26535W        W94929  26.586  23.973  11.616
26536W        W94930  42.340  16.354  14.567
26537W        W94931  16.791  14.647   4.905
26538W        W94932  35.871   8.048  11.318
26539W        W94933  31.385  40.891  13.195
26540W        W94934  17.166   0.713   1.866
26541W        W94935  27.059  13.093   0.735
26542W        W94936  44.973  44.058   2.224
26543W        W94937   1.731  18.654   3.856
26544W        W94938   4.213  19.129   4.478
26545W        W94939  31.205  25.126   1.145
26546W        W94940  28.982   0.057   3.693
26547W        W94941  13.399  36.524   4.131
26548W        W94942  32.416  42.888   4.701
26549W        W94943  26.095  16.998  12.733
26550W        W94944   9.645   4.838  13.505
26551W        W94945   2.287   6.687   1.285
26552W        W94946   5.479  39.363  13.528
26553W        W94947  31.183  24.691  13.993
26554W        W94948  12.133  15.549   4.527
26555W        W94949  13.055  32.700  11.672
26556W        W94950  34.124  42.279  12.002
26557W        W94951  12.720  25.260  12.517
26558W        W94952  41.949  43.578  13.891
26559W        W94953   7.948  31.997  12.949
26560W        W94954  37.027  37.472   0.414
26561W        W94955  13.689  11.204  12.420
26562W        W94956  30.562  28.233   2.832
26563W        W94957  28.030  41.097  13.509
26564W        W94958  11.018  19.812   0.816
26565W        W94959  44.396  42.533  14.365
26566W        W94960  33.014   1.837  14.986
26567W        W94961  16.541   3.229   4.512
26568W        W94962  41.263  25.608  12.107
26569W        W94963   3.924   7.187   3.943
26570W        W94964  43.772  31.743  12.350
26571W        W94965  14.626  35.779   1.749
26572W        W94966  23.150   2.508   0.387
26573W        W94967  33.957  27.139  11.440
26574W        W94968  10.365  16.221   0.106
26575W        W94969  42.901  31.189   4.936
26576W        W94970  13.229  29.527   1.961
26577W        W94971   5.126  12.876   3.256
26578W        W94972  40.575  30.526   5.106
26579W        W94973  35.517   2.902  10.703
26580W        W94974  18.051  29.711  11.169
26581W        W94975  42.749  15.638   2.611
26582W        W94976   2.805  13.500   3.399
26583W        W94977  20.658   6.924   4.395
26584W        W94978   2.816  31.105   2.629
26585W        W94979   0.996  30.414   4.575
26586W        W94980  33.517  33.541   5.015
26587W        W94981  16.294  20.046  14.756
26588W        W94982  23.238   4.325  14.715
26589W        W94983  37.531  37.980   1.465
26590W        W94984   8.917  31.778   4.602
26591W        W94985   1.905  27.517   3.976
26592W        W94986  26.890  15.236  10.329
26593W        W94987  38.852   7.965   0.484
26594W        W94988  31.528   2.530   3.246
26595W        W94989   8.820  26.511   1.372
26596W        W94990  18.891  22.930   0.736
26597W        W94991  12.611   5.490  13.547
26598W        W94992  21.184   3.819   2.655
26599W        W94993   9.867  29.232   3.136
26600W        W94994  44.552   0.183   0.037
26601W        W94995  22.259  29.188  12.097
26602W        W94996  20.417  10.618  13.054
26603W        W94997   6.760   8.095   3.286
26604W        W94998  18.703   8.857   0.288
26605W        W94999  16.610  40.073  11.058
26606W        W95000  29.677  16.241   2.199
26607W        W95001  16.022   5.959  14.857
26608W        W95002  21.041  33.980  13.536
26609W        W95003  16.175  21.232  12.377
26610W        W95004  10.401  13.837   5.167
26611W        W95005   8.864  35.727  12.327
26612W        W95006  36.492  26.004   4.760
26613W        W95007   5.366  13.084   4.089
26614W        W95008  25.788   2.188  12.583
26615W        W95009  34.168   7.828   4.183
26616W        W95010  32.422  26.256  12.003
26617W        W95011   8.284  30.763   0.860
26618W        W95012   3.703  43.878   3.510
26619W        W95013  15.120  33.937   4.367
26620W        W95014  11.758  36.270   2.713
26621W        W95015   4.424  24.618  11.516
26622W        W95016  40.797  19.538  11.641
26623W        W95017  44.365  36.964   1.134
26624W        W95018  17.174  41.414  10.142
26625W        W95019   0.461  22.778  13.454
26626W        W95020   4.290  16.805  14.442
26627W        W95021  13.637   2.328   4.094
26628W        W95022  15.139  22.766  10.679
26629W        W95023   4.780   1.193  12.848
26630W        W95024  36.692  34.618  12.426
26631W        W95025  17.221  37.089  14.936
26632W        W95026  29.151  32.733   4.943
26633W        W95027  20.658   6.832   2.779
26634W        W95028  24.081  34.509   4.072
26635W        W95029  26.256   7.352   0.084
26636W        W95030  24.792  15.871   2.320
26637W        W95031  36.923  43.009   1.244
26638W        W95032  28.931   2.343  10.647
26639W        W95033  25.648  23.696  12.089
26640W        W95034  23.555  24.737  11.115
26641W        W95035  21.723   9.444   4.011
26642W        W95036  11.281  21.636  11.400
26643W        W95037  26.678  44.238  12.976
26644W        W95038  15.022  11.800  13.441
26645W        W95039  35.080   0.863  14.547
26646W        W95040   2.927   5.149   0.811
26647W        W95041  39.382  42.760  12.526
26648W        W95042  29.482  30.700  12.945
26649W        W95043  35.233  37.270   4.499
26650W        W95044  24.983  13.420   1.429
26651W        W95045  40.257  22.649   1.185
26652W        W95046   6.983  44.969   4.754
26653W        W95047  36.156  10.196  12.963
26654W        W95048  25.902  15.626   4.562
26655W        W95049  28.739  43.097   4.943
26656W        W95050  39.582  16.472  11.520
26657W        W95051  12.053  17.082  10.541
26658W        W95052   2.984  12.203   4.539
26659W        W95053  39.789   3.448  14.544
26660W        W95054  37.601   0.862  10.814
26661W        W95055  10.713  40.920  14.118
26662W        W95056  44.373   8.866  11.336
26663W        W95057  26.069  32.400  10.834
26664W        W95058  21.652  37.134   2.077
26665W        W95059  38.791  20.751  13.011
26666W        W95060  22.186   5.872  12.445
26667W        W95061  26.097   2.056   3.704
26668W        W95062  12.785  24.756  14.659
26669W        W95063  17.276  41.502  11.101
26670W        W95064  15.732  39.601  14.891
26671W        W95065   1.459  15.544   5.414
26672W        W95066  18.962  18.235   0.651
26673W        W95067   5.197   5.706   0.825
26674W        W95068  15.669  35.731  10.334
26675W        W95069   2.231  17.669  12.471
26676W        W95070  43.784  42.117  13.529
26677W        W95071  44.222  38.871   2.078
26678W        W95072  19.618   1.036  14.073
26679W        W95073  40.783   2.749   1.702
26680W        W95074   6.684   2.798  12.903
26681W        W95075  15.893  10.902   0.718
26682W        W95076  29.931  43.884   3.478
26683W        W95077  40.746  33.151  13.339
26684W        W95078  11.135   5.690  14.468
26685W        W95079  11.049   2.642  14.376
26686W        W95080  27.497  27.585  13.403
26687W        W95081  14.311  24.995   0.855
26688W        W95082   1.118  44.396  14.671
26689W        W95083  28.066  27.931   1.744
26690W        W95084  26.025   8.384   0.794
26691W        W95085  16.969  21.096   1.877
26692W        W95086  36.460  25.433   3.172
26693W        W95087  10.370  27.393   2.834
26694W        W95088  34.258  30.942   2.840
26695W        W95089  13.225  19.998  14.036
26696W        W95090  35.098  14.436   1.716
26697W        W95091  13.656  36.637   4.633
26698W        W95092   0.917  37.600   4.125
26699W        W95093  36.621  35.068   3.784
26700W        W95094  32.942  27.658   0.432
26701W        W95095  18.763  39.807  11.949
26702W        W95096  16.842  42.290   1.680
26703W        W95097   9.305   5.806  14.296
26704W        W95098   4.472  21.024   0.358
26705W        W95099   9.744   0.064   0.949
26706W        W95100  24.466   8.848   0.793
26707W        W95101  40.055  29.591  13.315
26708W        W95102  35.921  37.891  11.568
26709W        W95103   5.652  27.975  10.739
26710W        W95104  17.000  28.498   4.574
26711W        W95105   5.388   9.888   1.454
26712W        W95106  22.743  35.011   4.599
26713W        W95107  23.336  11.801   3.899
26714W        W95108  43.089  33.385  11.868
26715W        W95109  24.969   9.929   1.267
26716W        W95110  10.307  28.568  13.437
26717W        W95111  21.853   5.252  11.444
26718W        W95112  32.233  29.871   3.165
26719W        W95113  36.536  36.224   0.933
26720W        W95114   0.959  15.253  13.060
26721W        W95115  35.080   9.446   1.580
26722W        W95116  26.444  20.631   1.161
26723W        W95117  34.766  33.340  13.181
26724W        W95118  31.903  24.780   1.793
26725W        W95119  15.190   3.123   0.311
26726W        W95120   3.119   6.701   0.661
26727W        W95121  33.986  26.540   3.313
26728W        W95122  41.403  31.207   4.454
26729W        W95123   1.308  20.648  13.607
26730W        W95124  14.227  37.570  10.233
26731W        W95125   9.942   5.729  11.527
26732W        W95126  20.374  37.188  11.578
26733W        W95127  44.600  27.365   1.265
26734W        W95128  30.134   6.298  13.773
26735W        W95129  17.044  25.517  13.853
26736W        W95130   4.246   2.797   0.206
26737W        W95131   3.984  20.138  13.484
26738W        W95132  17.203  10.846  10.644
26739W        W95133  22.489  26.515  12.497
26740W        W95134   7.708  34.916   2.851
26741W        W95135  18.609  10.893   0.281
26742W        W95136  28.983   9.518  14.031
26743W        W95137  25.757  23.761   2.804
26744W        W95138  40.517  30.882  12.577
26745W        W95139  38.482  35.928   3.278
26746W        W95140   7.755   4.529  11.151
26747W        W95141   7.715   8.260  14.130
26748W        W95142  17.998   1.793   3.325
26749W        W95143  29.405  29.021   1.803
26750W        W95144  31.917  30.174  10.964
26751W        W95145  16.346  10.677  12.033
26752W        W95146  31.511   1.873  10.778
26753W        W95147   9.711   5.311  12.509
26754W        W95148  30.923  13.638   0.477
26755W        W95149  35.903  38.803  10.561
26756W        W95150  27.022  34.142  13.145
26757W        W95151  34.515  19.203   3.652
26758W        W95152  17.109  21.580   3.162
26759W        W95153  35.827  14.845   3.372
26760W        W95154   0.763  10.693   4.587
26761W        W95155  39.448   6.750  12.392
26762W        W95156  30.134  25.151   2.465
26763W        W95157   9.149  40.812   3.547
26764W        W95158  24.682  12.178   4.274
26765W        W95159   6.828  30.345  11.677
26766W        W95160  17.562  19.777   5.050
26767W        W95161  37.997  10.849   2.158
26768W        W95162  41.742  12.116  13.018
26769W        W95163   0.721  15.684   1.652
26770W        W95164   3.781  28.084  12.607
26771W        W95165  10.663  34.449  13.551
26772W        W95166  32.863  39.653  14.966
26773W        W95167  30.633  18.302  13.102
26774W        W95168  12.774  31.878   0.259
26775W        W95169  12.684   9.608   4.962
26776W        W95170  41.314   4.996   1.639
26777W        W95171  10.752  44.842   4.682
26778W        W95172  42.749  19.801   1.227
26779W        W95173  43.423  26.318  12.131
26780W        W95174   9.368  28.268   4.211
26781W        W95175  18.901  11.595   0.768
26782W        W95176  23.275  19.159   1.259
26783W        W95177   3.832  41.943  13.922
26784W        W95178  42.972  36.960   3.150
26785W        W95179  37.340  18.832  11.209
26786W        W95180   4.221  32.088   3.288
26787W        W95181  36.559  36.876   4.547
26788W        W95182  35.475   3.701   0.294
26789W        W95183   8.959  32.451  13.895
26790W        W95184  15.716   3.656  11.599
26791W        W95185  27.688  16.123  12.715
26792W        W95186  38.839  20.256   1.130
26793W        W95187  42.308  29.639  13.814
26794W        W95188  34.095  13.265  14.354
26795W        W95189  39.813  10.179   1.273
26796W        W95190   1.020  44.377  11.667
26797W        W95191  35.892  25.799   4.720
26798W        W95192   1.657  20.385   4.943
26799W        W95193  29.453  17.986  14.024
26800W        W95194  42.774  43.477  13.798
26801W        W95195  41.227  43.770  10.933
26802W        W95196   4.968  34.354  11.238
26803W        W95197  30.820   7.569  11.215
26804W        W95198   3.236   3.117  13.863
26805W        W95199  20.235  41.666  10.665
26806W        W95200   9.362  32.900   2.344
26807W        W95201  17.387   8.738  11.301
26808W        W95202   7.185   1.033  14.365
26809W        W95203  19.252  20.713   1.385
26810W        W95204  42.445  23.084  12.151
26811W        W95205  16.540  37.772  11.171
26812W        W95206   8.518  25.708   4.735
26813W        W95207   3.401   2.567  11.646
26814W        W95208  15.003  37.170  11.503
26815W        W95209  19.122  22.698  11.448
26816W        W95210  33.841  25.624   2.922
26817W        W95211  35.326  13.907  11.693
26818W        W95212  36.962  43.531   1.260
26819W        W95213   4.735  30.977   1.761
26820W        W95214  36.052  31.124   1.920
26821W        W95215   2.198  21.543  14.356
26822W        W95216  37.818  41.893   2.359
26823W        W95217   9.286  10.678  10.512
26824W        W95218  18.783  37.113  13.990
26825W        W95219  44.802   2.435  12.458
26826W        W95220  43.530  15.935   2.286
26827W        W95221  18.199  28.937   2.240
26828W        W95222  19.205  23.952   2.362
26829W        W95223   5.223  40.282   0.312
26830W        W95224  25.717   8.660  14.286
26831W        W95225  42.364  29.148   2.508
26832W        W95226  31.654  26.816  10.472
26833W        W95227  30.720   2.139  13.459
26834W        W95228  20.798  42.725  11.956
26835W        W95229  17.560   2.811   4.022
26836W        W95230  27.984   0.531   5.142
26837W        W95231  23.567  29.984  11.162
26838W        W95232  39.276   5.162  11.527
26839W        W95233  23.097  44.552   0.786
26840W        W95234   2.518  10.439   4.659
26841W        W95235  43.221  33.131   4.490
26842W        W95236   3.835  35.785   2.892
26843W        W95237   1.259   9.806  10.639
26844W        W95238  23.065  11.007   3.244
26845W        W95239  18.755  31.901   1.522
26846W        W95240  16.535   8.911  12.005
26847W        W95241   4.856  39.085  13.844
26848W        W95242  39.119  42.872  10.752
26849W        W95243  25.569  43.758   1.125
26850W        W95244   7.091  21.310  11.276
26851W        W95245  24.070  18.845   2.232
26852W        W95246  20.782   1.279   2.825
26853W        W95247  27.557  43.558   3.697
26854W        W95248  27.384  17.614   4.609
26855W        W95249  35.525  11.623  11.000
26856W        W95250   0.775  40.465   0.995
26857W        W95251  25.848   2.189   2.671
26858W        W95252   1.492   0.454  14.329
26859W        W95253  28.859  21.799  13.568
26860W        W95254  42.861  29.540  11.502
26861W        W95255  30.204   5.146   2.957
26862W        W95256  33.638  30.404   5.142
26863W        W95257  24.754   7.626   2.556
26864W        W95258  31.071   4.440  14.825
26865W        W95259  44.361   9.194   4.593
26866W        W95260  42.582  22.441  13.485
26867W        W95261  41.368   9.209   4.097
26868W        W95262  28.883   4.876  13.158
26869W        W95263   5.697  25.507  13.014
26870W        W95264  35.814  23.209   3.760
26871W        W95265  37.104  15.565  11.463
26872W        W95266  39.345  36.706  12.557
26873W        W95267  34.453  41.378   3.897
26874W        W95268   2.252  31.008  14.320
26875W        W95269  12.754  30.730   4.601
26876W        W95270  10.085   2.012  10.674
26877W        W95271  33.338  36.367  14.493
26878W        W95272  20.847  18.134   3.154
26879W        W95273  11.189  44.203  12.226
26880W        W95274  19.685  43.859   4.044
26881W        W95275   1.431   8.363  12.513
26882W        W95276   9.262  26.158  10.073
26883W        W95277  42.943  27.324   3.246
26884W        W95278  33.238  37.503   1.203
26885W        W95279   7.002   8.903   0.847
26886W        W95280  43.342   1.985  11.943
26887W        W95281  35.010   8.473   1.349
26888W        W95282  33.989  44.254   2.667
26889W        W95283   4.520  43.878  11.247
26890W        W95284   0.880  30.439   1.511
26891W        W95285  35.640  40.931  12.016
26892W        W95286  44.478  15.799   3.189
26893W        W95287  32.185  15.846   1.199
26894W        W95288  40.800   3.322  14.333
26895W        W95289  24.534   7.902  12.994
26896W        W95290   7.822   6.941   3.144
26897W        W95291  15.760   6.403  14.827
26898W        W95292  34.059  23.574  13.047
26899W        W95293  34.417  19.478   0.264
26900W        W95294  10.204  21.192   1.645
26901W        W95295  29.739  37.438  13.790
26902W        W95296  40.471  20.424  11.746
26903W        W95297  28.067  29.557  11.171
26904W        W95298  39.770  42.285  12.005
26905W        W95299  23.240  33.342  14.382
26906W        W95300  14.721  38.713  11.212
26907W        W95301  26.188  37.956  14.392
26908W        W95302  15.647  31.393   3.955
26909W        W95303  11.821  34.979  12.508
26910W        W95304  18.507  25.974  12.545
26911W        W95305   5.242  44.557   3.403
26912W        W95306  23.549  28.523  13.481
26913W        W95307  34.355  36.097   0.994
26914W        W95308  15.551  36.410  11.927
26915W        W95309   2.322  19.545   4.231
26916W        W95310  40.092  11.947  12.004
26917W        W95311  27.639  42.167  13.476
26918W        W95312   6.674  23.776  11.592
26919W        W95313   5.884  10.418   3.098
26920W        W95314  14.552  20.311  13.925
26921W        W95315  20.156  22.054  14.436
26922W        W95316  27.953  12.636   1.654
26923W        W95317  12.188  18.476   3.834
26924W        W95318  43.097  13.741   1.356
26925W        W95319  37.130  22.159  11.532
26926W        W95320  19.703   4.188   1.219
26927W        W95321   4.867  33.857   4.663
26928W        W95322   1.847  37.664  14.295
26929W        W95323   0.970  23.315   1.435
26930W        W95324  14.929   1.466  13.466
26931W        W95325  34.049  17.359   4.388
26932W        W95326  14.586   3.215   4.237
26933W        W95327  34.674   7.199   0.342
26934W        W95328  12.275  38.039   0.512
26935W        W95329   3.973  12.873  14.733
26936W        W95330  22.195  39.401   3.381
26937W        W95331  38.016   8.440   2.648
26938W        W95332   0.442  32.616  12.599
26939W        W95333  10.344  44.332  13.552
26940W        W95334  29.141   1.481  13.190
26941W        W95335  10.894  17.821   1.415
26942W        W95336   0.213  24.295   0.498
26943W        W95337  31.470  39.953   2.692
26944W        W95338  12.079  17.701  14.556
26945W        W95339  34.504  32.958   4.603
26946W        W95340  17.280  12.575  14.731
26947W        W95341   1.852   8.109  13.375
26948W        W95342  25.197  22.715  12.874
26949W        W95343  43.813  28.530   4.116
26950W        W95344  12.437   2.810  11.333
26951W        W95345  18.444  20.734   0.211
26952W        W95346  18.545  20.393   2.722
26953W        W95347   5.101  10.640   4.064
26954W        W95348   8.190  14.371  13.903
26955W        W95349  35.180   3.916   4.471
26956W        W95350   5.243   0.266  11.549
26957W        W95351  18.577  15.442  10.272
26958W        W95352  27.059  39.089   3.703
26959W        W95353  18.678  33.654   1.328
26960W        W95354   6.185  33.523   3.730
26961W        W95355  35.027   8.515  14.048
26962W        W95356  22.990  44.001  11.191
26963W        W95357  40.891  19.834   3.947
26964W        W95358  27.084  16.184  12.858
26965W        W95359  16.093  36.797   1.749
26966W        W95360  41.951  31.852   5.116
26967W        W95361  38.449  35.347  14.283
26968W        W95362  22.421   4.934  13.872
26969W        W95363  11.798  13.836  13.800
26970W        W95364  32.990  22.260  14.846
26971W        W95365  24.395  42.008  10.799
26972W        W95366   7.304  36.027   3.650
26973W        W95367  19.283   3.370  12.962
26974W        W95368  42.101  38.907  11.607
26975W        W95369   8.193   7.803  11.694
26976W        W95370  39.149   0.963   3.656
26977W        W95371   7.461   8.823  13.280
26978W        W95372  41.399  35.498  11.807
26979W        W95373   1.307  20.191  12.476
26980W        W95374  25.947  32.324   2.013
26981W        W95375  22.814  27.386  12.314
26982W        W95376  28.380  10.336  11.466
26983W        W95377   3.390  14.323   3.136
26984W        W95378  41.374   0.811   1.664
26985W        W95379  30.305  29.666   4.376
26986W        W95380   3.391  12.753   3.202
26987W        W95381   3.404  22.181  10.669
26988W        W95382  22.131  36.268  11.608
26989W        W95383   5.033  29.601   4.885
26990W        W95384  30.025  40.990   4.000
26991W        W95385  37.382  29.699  12.738
26992W        W95386  22.750  14.584   3.548
26993W        W95387  37.102   4.772   4.200
26994W        W95388  22.242  19.990  14.853
26995W        W95389  39.001  30.045  11.764
26996W        W95390   0.169  24.031  13.979
26997W        W95391   6.940   9.678   2.442
26998W        W95392  12.813  33.857  10.715
26999W        W95393  43.461  27.026   2.406
27000W        W95394  39.119  41.087   2.310
27001W        W95395  17.480  12.175   1.441
27002W        W95396  23.256  27.467   1.853
27003W        W95397  29.660  16.950  11.031
27004W        W95398   7.987  23.227   1.551
27005W        W95399  36.143  14.326  12.523
27006W        W95400   0.662  25.247  12.034
27007W        W95401  26.002  12.073  13.309
27008W        W95402   8.677  24.315   1.450
27009W        W95403  40.481  24.717   3.629
27010W        W95404  19.735  20.940   2.837
27011W        W95405  21.286  24.967  14.206
27012W        W95406  23.622  25.027  12.500
27013W        W95407  43.174   8.697   5.053
27014W        W95408  24.469  32.930   3.741
27015W        W95409  38.776  31.316   1.402
27016W        W95410  37.123  25.592   1.461
27017W        W95411  18.309   3.850   3.695
27018W        W95412   5.291  32.274   0.632
27019W        W95413  22.932  22.025  11.709
27020W        W95414  25.335  14.202  10.727
27021W        W95415  13.698  13.804  11.179
27022W        W95416  29.606  37.888  12.493
27023W        W95417  10.354  19.050  10.729
27024W        W95418  31.494  42.685  11.608
27025W        W95419   0.527  14.952   4.078
27026W        W95420  21.782  25.769   9.938
27027W        W95421   1.698  37.600  11.085
27028W        W95422   8.922  24.913   0.205
27029W        W95423  28.145  16.102  14.357
27030W        W95424  36.394  22.726  10.252
27031W        W95425  23.545  27.509   0.051
27032W        W95426   9.468  43.783   2.299
27033W        W95427  18.756   7.758   1.392
27034W        W95428  18.461  12.323  13.479
27035W        W95429  11.185  34.496   2.753
27036W        W95430  43.828  41.825  11.390
27037W        W95431  35.441  39.840  13.807
27038W        W95432  12.860  37.527   9.914
27039W        W95433   7.791   8.888   3.241
27040W        W95434  14.553   9.445  10.500
27041W        W95435  35.982  15.308   1.200
27042W        W95436   5.897  21.556   4.908
27043W        W95437  26.917  26.623   3.209
27044W        W95438  15.972  12.652  14.130
27045W        W95439   2.761  39.947   4.769
27046W        W95440  22.877  38.937   3.052
27047W        W95441  35.700  16.058  11.572
27048W        W95442  43.246  24.782   4.812
27049W        W95443  21.050  36.537  14.822
27050W        W95444  30.837  38.922   3.364
27051W        W95445  24.726  32.340   1.469
27052W        W95446  11.210   2.807   1.166
27053W        W95447  13.364  13.068  11.504
27054W        W95448  36.375  41.334  13.975
27055W        W95449   0.953   9.097   1.802
27056W        W95450  31.120  39.343   3.365
27057W        W95451  26.512  15.677   1.810
27058W        W95452  18.704  41.392   3.827
27059W        W95453  44.965   1.898  13.136
27060W        W95454  38.609  44.414  13.811
27061W        W95455  27.004   6.072  14.360
27062W        W95456   3.286  42.428   1.119
27063W        W95457   4.972  26.767  13.542
27064W        W95458  40.646  44.075  13.814
27065W        W95459  38.845  26.637   0.886
27066W        W95460  16.545  39.071  14.313
27067W        W95461  20.086  30.882   1.403
27068W        W95462  12.610  44.992  14.785
27069W        W95463   5.234   4.841  12.564
27070W        W95464  43.232  22.206   0.740
27071W        W95465  29.204  19.019  11.336
27072W        W95466  33.982  11.663  11.752
27073W        W95467   6.887  33.102  11.585
27074W        W95468  16.152   1.174   2.367
27075W        W95469  26.226  36.401   2.827
27076W        W95470  20.265   8.861   5.325
27077W        W95471  15.176  39.424   0.628
27078W        W95472  28.979   5.157   1.304
27079W        W95473  14.623   1.189   0.332
27080W        W95474  39.499  14.483   3.225
27081W        W95475  40.474  37.171  14.714
27082W        W95476  29.617  18.008   4.226
27083W        W95477  12.812  35.582  12.633
27084W        W95478  40.941  18.549  10.581
27085W        W95479   6.614   1.422   5.061
27086W        W95480  19.252  39.077  10.582
27087W        W95481  40.261  43.153   4.401
27088W        W95482  17.742  29.001  13.798
27089W        W95483   7.657  11.144   2.425
27090W        W95484  33.189  24.516  10.616
27091W        W95485  43.425   8.610  13.262
27092W        W95486  37.582  21.865   4.133
27093W        W95487  23.130   6.140   3.170
27094W        W95488   3.937   6.874   0.221
27095W        W95489  13.461  43.026   0.888
27096W        W95490  44.882  41.991   1.843
27097W        W95491  12.056  29.973  12.537
27098W        W95492   1.755  27.127   4.842
27099W        W95493  22.797  43.777   0.977
27100W        W95494  24.095  22.188  12.977
27101W        W95495  26.015   5.125  12.681
27102W        W95496  41.898   5.701   3.742
27103W        W95497  13.579  20.082   2.105
27104W        W95498  36.041  17.602   0.146
27105W        W95499  32.104  22.978   1.421
27106W        W95500   2.568   0.218  12.273
27107W        W95501   4.178  28.392   1.311
27108W        W95502  28.611  30.351  14.535
27109W        W95503   5.049  25.920  12.471
27110W        W95504  44.050  26.092   4.189
27111W        W95505  26.983  39.562  14.711
27112W        W95506  18.237  23.229   4.614
27113W        W95507   6.629  16.646  11.676
27114W        W95508   5.876  25.638  12.391
27115W        W95509  34.974  10.579   2.776
27116W        W95510   6.439  20.581  10.636
27117W        W95511   3.163  42.745   2.401
27118W        W95512   7.742  22.192  13.371
27119W        W95513  17.052  19.113   2.187
27120W        W95514  12.220  43.362   3.870
27121W        W95515  10.298   9.275   5.127
27122W        W95516   6.890  26.560   4.113
27123W        W95517  26.580  30.071  12.742
27124W        W95518   2.233   9.836  10.704
27125W        W95519  31.484   3.573  12.701
27126W        W95520  21.289  23.001   3.437
27127W        W95521  12.800  38.542   2.765
27128W        W95522  43.872   4.416   2.635
27129W        W95523  19.323  33.266  12.387
27130W        W95524  14.289  44.846  12.922
27131W        W95525  16.584  44.392  14.252
27132W        W95526   7.101  32.701   4.400
27133W        W95527   6.312  37.115  13.721
27134W        W95528  17.506  44.271   4.197
27135W        W95529  44.744  18.563   3.673
27136W        W95530  10.700  12.206   3.254
27137W        W95531   3.756  11.785   4.727
27138W        W95532  17.545  40.025  13.370
27139W        W95533   7.169  10.564  11.203
27140W        W95534  41.901   3.814  13.555
27141W        W95535  39.551   7.730  13.932
27142W        W95536  36.886  36.452   1.251
27143W        W95537  19.375   0.563   1.799
27144W        W95538  23.420  14.312   4.063
27145W        W95539  24.058  43.805  14.392
27146W        W95540   9.248  10.259  13.991
27147W        W95541  31.876  13.540   1.187
27148W        W95542  28.902  24.227  12.884
27149W        W95543  40.986  17.583  12.515
27150W        W95544  15.139  18.032   2.690
27151W        W95545  39.811  26.741   4.217
27152W        W95546  29.308   7.552  12.494
27153W        W95547  16.016   9.806   3.347
27154W        W95548  18.801  21.408  12.099
27155W        W95549  44.319  16.023   4.734
27156W        W95550  22.327   7.607   1.503
27157W        W95551   5.774  23.192  14.862
27158W        W95552  25.992  36.478   1.420
27159W        W95553  11.847  19.259   4.556
27160W        W95554  10.379  35.958   3.230
27161W        W95555  21.033  25.547   1.317
27162W        W95556  32.965  36.744  12.518
27163W        W95557  19.291  19.944  12.599
27164W        W95558  30.588   4.814   3.087
27165W        W95559   2.275   9.092  12.530
27166W        W95560   8.456  39.384  11.736
27167W        W95561  44.033   2.831   1.738
27168W        W95562  27.118  18.770  13.508
27169W        W95563  16.170  20.940  11.089
27170W        W95564  32.087   0.918  12.855
27171W        W95565   7.646  24.668   0.276
27172W        W95566  25.678  21.904   0.855
27173W        W95567  21.815  18.239   4.232
27174W        W95568   7.973  42.514  10.431
27175W        W95569   7.094  13.413   0.381
27176W        W95570   5.158  44.756   1.999
27177W        W95571   1.274  12.613   4.171
27178W        W95572  17.563  15.597  11.529
27179W        W95573  39.573  12.120   3.784
27180W        W95574  13.061   0.004  11.876
27181W        W95575  34.589  21.614  14.482
27182W        W95576  32.071  11.061  12.098
27183W        W95577  23.808  43.390  11.151
27184W        W95578   5.914   0.447   0.056
27185W        W95579  36.373  16.304   1.886
27186W        W95580  17.151  42.034  13.018
27187W        W95581  17.896  32.320  13.082
27188W        W95582  23.850  15.745   4.495
27189W        W95583   4.299  17.592  13.918
27190W        W95584  42.505  39.445   5.418
27191W        W95585  17.479  21.219   4.529
27192W        W95586  17.602  14.576  12.316
27193W        W95587  26.022   6.483  10.665
27194W        W95588  17.119  25.257  12.126
27195W        W95589  30.113  20.271   4.271
27196W        W95590  41.614  37.957   2.607
27197W        W95591  17.693  36.052  11.367
27198W        W95592  34.311  34.728   1.274
27199W        W95593  37.000  28.980   1.468
27200W        W95594  19.081  34.866  11.595
27201W        W95595   6.217  26.276  14.833
27202W        W95596   9.209  21.333   0.742
27203W        W95597  44.256  37.476   0.399
27204W        W95598   2.244  37.514   4.612
27205W        W95599  25.536  13.908  12.019
27206W        W95600  27.695  12.447   1.190
27207W        W95601  44.717  14.028  10.910
27208W        W95602  28.627   8.666   2.961
27209W        W95603   5.340   8.129   0.986
27210W        W95604  32.227  24.717   0.390
27211W        W95605  27.446  41.417  10.527
27212W        W95606  25.173  15.705  13.419
27213W        W95607  33.579   4.324   0.228
27214W        W95608  31.018  35.062  10.767
27215W        W95609   0.599  13.551  11.668
27216W        W95610   4.865   5.334   2.546
27217W        W95611   5.119  11.963   4.574
27218W        W95612  33.678  18.683  10.997
27219W        W95613  34.864  37.932   3.868
27220W        W95614  33.079   6.126   3.404
27221W        W95615   5.247  19.039  13.415
27222W        W95616  15.700  19.379   4.979
27223W        W95617  26.334  19.472  11.699
27224W        W95618   9.173  25.995  14.943
27225W        W95619  34.662  22.296   1.356
27226W        W95620  14.306   5.916   0.937
27227W        W95621  30.319  44.445  10.720
27228W        W95622  27.515  35.163   0.303
27229W        W95623  44.100  39.471  10.969
27230W        W95624  32.744   2.586  14.407
27231W        W95625  36.860   0.968  14.860
27232W        W95626  21.301  11.638  13.425
27233W        W95627  21.402   2.106   0.875
27234W        W95628  14.398   6.998   0.397
27235W        W95629  33.784   4.880   1.164
27236W        W95630  32.039  17.222  14.477
27237W        W95631  27.495  14.706  11.041
27238W        W95632  30.474   9.878   3.761
27239W        W95633  13.002  17.361  10.334
27240W        W95634  22.598  24.862   4.511
27241W        W95635   2.904  25.707  14.628
27242W        W95636  23.744  31.539   5.122
27243W        W95637  16.057  17.371  11.542
27244W        W95638  37.156  37.976   0.157
27245W        W95639  23.386   6.701  14.750
27246W        W95640  27.637  17.812  14.358
27247W        W95641  22.299  29.278   1.030
27248W        W95642  13.072  33.519  10.361
27249W        W95643   9.999   7.420   3.682
27250W        W95644  40.931  25.494  12.511
27251W        W95645  39.928  27.251   2.811
27252W        W95646  12.678  35.963   3.574
27253W        W95647  24.369  43.885   5.252
27254W        W95648   5.929  26.293   4.981
27255W        W95649   9.702  25.306   2.620
27256W        W95650  30.527  30.128   0.464
27257W        W95651  28.585  12.875   3.205
27258W        W95652  43.870   1.169   0.805
27259W        W95653   8.700  23.839   0.011
27260W        W95654  29.494  35.942   0.573
27261W        W95655  30.420  14.033  12.528
27262W        W95656  36.823  19.682  12.500
27263W        W95657  32.063  24.819   0.878
27264W        W95658  23.264  27.679  11.361
27265W        W95659  32.961  35.759   1.467
27266W        W95660  25.779  38.843   0.372
27267W        W95661   3.048  26.290  13.072
27268W        W95662  20.010  37.089  14.459
27269W        W95663  31.833   2.781  11.971
27270W        W95664  35.005  31.581   1.935
27271W        W95665  17.955  35.075  14.825
27272W        W95666  38.508   4.379   1.571
27273W        W95667   1.222  16.021   2.208
27274W        W95668  18.095  22.315   4.504
27275W        W95669  42.416  33.228  14.514
27276W        W95670  25.462  37.474   3.173
27277W        W95671  13.173  37.123   0.503
27278W        W95672  30.354   9.392  11.581
27279W        W95673  30.636  18.645   1.329
27280W        W95674   1.832  43.382  12.595
27281W        W95675  21.745  29.227   0.940
27282W        W95676  10.560  35.048  11.346
27283W        W95677  26.179  42.058   3.678
27284W        W95678  15.275  16.332   1.679
27285W        W95679  25.424  11.661   0.486
27286W        W95680   6.355  27.733   1.029
27287W        W95681   5.694  12.039  10.654
27288W        W95682  26.994  12.826   3.041
27289W        W95683  28.106  16.090  13.474
27290W        W95684  35.191  35.430  12.901
27291W        W95685   1.436   2.922   0.769
27292W        W95686  16.816  15.039  11.100
27293W        W95687   9.715  23.177   0.797
27294W        W95688  18.641  33.505   0.806
27295W        W95689  16.545  18.651   5.075
27296W        W95690  16.148   7.810   4.545
27297W        W95691  38.570  28.534   3.867
27298W        W95692  32.398  25.553   2.830
27299W        W95693  18.924  21.853  12.601
27300W        W95694  41.066  30.006  12.576
27301W        W95695  32.327  15.920   2.199
27302W        W95696   7.421  43.797   3.767
27303W        W95697  21.499   2.573  12.768
27304W        W95698  38.943  18.197   2.225
27305W        W95699  33.107  14.796  11.639
27306W        W95700  17.307  10.160  12.006
27307W        W95701  37.571   7.251  11.944
27308W        W95702  35.848   8.651  13.779
27309W        W95703  30.937   7.358  14.443
27310W        W95704  31.550  35.108  13.537
27311W        W95705  38.946  38.228  13.484
27312W        W95706  44.125  27.224   0.408
27313W        W95707  19.225  38.766   1.892
27314W        W95708  20.590  22.173  12.281
27315W        W95709  13.633  27.501   4.447
27316W        W95710  31.985  37.513  12.031
27317W        W95711  18.146  10.904  13.585
27318W        W95712  15.667  39.522   4.072
27319W        W95713  29.420  37.065   1.425
27320W        W95714  34.950  22.196   0.901
27321W        W95715  38.475   7.928  13.052
27322W        W95716  36.346  38.864   3.618
27323W        W95717   1.005  25.745  14.521
27324W        W95718   1.815  24.584  12.883
27325W        W95719  34.271  40.243   2.743
27326W        W95720   3.338  18.499  12.977
27327W        W95721  16.922  42.906  11.556
27328W        W95722  31.407  16.426  11.547
27329W        W95723   9.191  44.937  13.064
27330W        W95724  23.979  37.934  14.833
27331W        W95725  13.795  33.183   2.353
27332W        W95726  18.276  13.871   4.591
27333W        W95727  29.252  23.391  10.434
27334W        W95728  31.395  43.255   0.012
27335W        W95729  12.966  37.802   2.296
27336W        W95730   5.195  38.973  12.645
27337W        W95731   0.993   8.367   4.776
27338W        W95732  39.363  42.545  13.834
27339W        W95733  17.110  12.345   1.084
27340W        W95734  21.286  29.421  14.017
27341W        W95735  13.037  12.276   3.226
27342W        W95736  20.732  16.740  13.909
27343W        W95737   7.691  30.490  13.318
27344W        W95738   1.318  28.220   2.155
27345W        W95739   0.839   3.902   1.329
27346W        W95740  14.395  33.389   4.503
27347W        W95741  12.319  39.438   1.808
27348W        W95742   9.890  24.035   5.080
27349W        W95743  25.646  17.522   1.173
27350W        W95744  23.918  10.422  13.915
27351W        W95745  13.292   7.630   2.733
27352W        W95746  24.797  36.843   2.849
27353W        W95747   6.926  32.113  12.550
27354W        W95748  24.653  13.340   5.110
27355W        W95749  14.152  36.315   3.220
27356W        W95750  13.881  37.288  13.528
27357W        W95751  28.499  26.663   0.067
27358W        W95752  33.408  35.881   1.177
27359W        W95753  15.847  26.000  11.787
27360W        W95754  32.503  27.869  12.233
27361W        W95755   7.308  29.304  14.456
27362W        W95756  15.581  27.034  12.973
27363W        W95757   1.441  37.854   2.186
27364W        W95758  34.763  43.748  14.374
27365W        W95759  24.376   6.313  10.543
27366W        W95760   9.734  32.020   1.270
27367W        W95761  41.451  29.507   0.354
27368W        W95762  33.454   0.534  10.635
27369W        W95763  10.410  18.501   4.221
27370W        W95764  17.759  21.270  12.047
27371W        W95765  25.687  38.501   4.174
27372W        W95766  24.204  22.780  14.382
27373W        W95767  32.943  31.979   3.714
27374W        W95768  17.012  30.524   0.531
27375W        W95769  40.575  15.268  12.509
27376W        W95770   4.706   5.285   2.053
27377W        W95771   7.403  34.336  11.657
27378W        W95772  25.423   7.372   0.420
27379W        W95773   4.392  22.470   3.707
27380W        W95774  27.009  17.702   2.157
27381W        W95775  21.681  30.709   3.809
27382W        W95776  27.638  22.398   4.098
27383W        W95777   3.338   7.451   2.683
27384W        W95778  23.765   7.778   4.104
27385W        W95779   3.563   8.109  12.500
27386W        W95780  33.543  42.312   4.691
27387W        W95781  20.396  11.704   4.617
27388W        W95782   3.024  27.855   1.666
27389W        W95783  33.878  30.962   2.026
27390W        W95784   0.454   9.502  11.140
27391W        W95785  26.095  26.239  14.429
27392W        W95786  29.341  35.924   2.619
27393W        W95787  34.423  44.437  10.778
27394W        W95788  27.620  15.334   4.825
27395W        W95789  30.450  29.671  12.730
27396W        W95790  18.631  14.710   2.244
27397W        W95791  33.127  32.794  12.459
27398W        W95792   6.133  29.000   1.514
27399W        W95793  28.014  25.180  12.775
27400W        W95794  41.051  27.156  13.568
27401W        W95795  37.016  22.722   1.836
27402W        W95796  36.340   8.302  11.746
27403W        W95797  15.788  19.998  14.436
27404W        W95798  11.738  36.392   2.151
27405W        W95799  16.650  10.104  10.345
27406W        W95800  12.664  21.661   3.773
27407W        W95801   5.740  21.817  10.724
27408W        W95802  22.869  43.469   1.383
27409W        W95803  14.759  24.699   2.245
27410W        W95804  41.275  17.836   3.089
27411W        W95805  43.600  17.280  11.938
27412W        W95806   4.033  33.961   1.788
27413W        W95807  35.517  39.288  14.824
27414W        W95808  23.483   8.740   3.980
27415W        W95809   5.893  29.378   2.283
27416W        W95810  21.397  36.959  11.678
27417W        W95811  26.094  32.485   0.597
27418W        W95812  14.807  34.324  11.502
27419W        W95813  41.931  27.580  10.661
27420W        W95814   4.291  33.351  11.979
27421W        W95815  24.891   1.725   4.519
27422W        W95816  29.922  34.370   0.933
27423W        W95817   5.948  15.175   4.581
27424W        W95818  29.411  15.203   2.879
27425W        W95819  30.484  15.599  14.528
27426W        W95820   3.153  37.734  12.424
27427W        W95821   0.180  28.555   1.843
27428W        W95822  28.120  23.473  11.814
27429W        W95823  17.827   2.437   4.317
27430W        W95824  38.839  22.093   3.454
27431W        W95825   7.433  34.122  12.889
27432W        W95826   4.712  32.207  11.700
27433W        W95827  29.402  21.092   4.155
27434W        W95828   2.260  33.213   3.674
27435W        W95829  33.026   9.779   0.510
27436W        W95830  36.764  14.848  14.365
27437W        W95831  17.037  44.517  14.852
27438W        W95832   9.880  35.999   3.362
27439W        W95833  42.327  26.874  13.008
27440W        W95834  13.557  30.089  11.519
27441W        W95835  32.629  26.922  14.513
27442W        W95836  36.503   9.095   3.640
27443W        W95837   9.937  42.388   2.685
27444W        W95838  34.596  17.352   1.871
27445W        W95839  24.280  21.795  14.030
27446W        W95840   5.169  23.231  14.263
27447W        W95841  10.764  22.386  11.445
27448W        W95842  39.341  20.497   2.756
27449W        W95843  23.187  32.117   0.750
27450W        W95844  34.339  33.026   0.863
27451W        W95845  31.539   7.104   0.248
27452W        W95846   3.005  18.328   1.319
27453W        W95847   1.272  16.446  11.771
27454W        W95848   9.365   8.808  11.724
27455W        W95849   3.496   6.059   3.686
27456W        W95850  41.985  21.474   2.702
27457W        W95851  15.070  19.773  13.186
27458W        W95852  38.885  10.167  11.497
27459W        W95853  40.980  31.630   2.268
27460W        W95854  12.406  27.164  11.457
27461W        W95855  25.423  42.471   4.264
27462W        W95856  28.624  33.319   3.646
27463W        W95857  18.073  28.128   4.136
27464W        W95858  18.977  19.426  10.590
27465W        W95859  30.133  19.552   2.187
27466W        W95860  12.635  39.983   3.721
27467W        W95861  35.797   6.308  10.774
27468W        W95862  21.507  30.367   0.609
27469W        W95863  21.543  20.561   2.107
27470W        W95864  40.292   4.391  14.333
27471W        W95865   1.275  27.758   4.656
27472W        W95866   3.258  11.962  14.825
27473W        W95867  32.248  18.149   3.404
27474W        W95868   7.697   7.645  10.459
27475W        W95869  16.668  38.633  11.585
27476W        W95870  41.972   7.082   3.169
27477W        W95871  43.896   8.892   2.814
27478W        W95872  29.023  28.261   0.699
27479W        W95873  24.958  18.205  11.114
27480W        W95874  12.407  34.818   3.266
27481W        W95875  23.379   8.309  10.172
27482W        W95876   4.233  32.584   4.561
27483W        W95877  17.837  14.029   1.290
27484W        W95878  13.657  16.649   3.780
27485W        W95879  38.751  30.992   1.820
27486W        W95880  12.242  44.998   4.860
27487W        W95881  35.770  34.826   0.041
27488W        W95882   1.792  34.800   0.807
27489W        W95883  21.943  26.661  10.148
27490W        W95884  33.300  17.255   3.205
27491W        W95885  29.013  15.488   3.598
27492W        W95886   6.904   5.771   1.497
27493W        W95887  11.861  35.823  12.828
27494W        W95888  35.816  27.361   1.727
27495W        W95889  22.523   3.719   0.299
27496W        W95890  20.940  14.209   3.652
27497W        W95891  43.803   9.602  11.458
27498W        W95892  27.495  23.089  11.772
27499W        W95893  37.960   2.843   3.886
27500W        W95894  25.529   6.293  12.567
27501W        W95895  10.724  30.983  13.032
27502W        W95896  35.912  31.153   0.708
27503W        W95897  16.751  32.803  10.933
27504W        W95898  42.541  33.920   3.769
27505W        W95899  19.692   3.453  11.272
27506W        W95900  20.269   6.681  10.793
27507W        W95901   5.645  15.805  12.562
27508W        W95902  16.176   1.781  10.555
27509W        W95903  22.393  26.466  14.823
27510W        W95904  27.523  18.849   0.834
27511W        W95905  10.140  11.844   0.854
27512W        W95906   6.047  36.329  14.335
27513W        W95907  33.025  17.579   3.528
27514W        W95908  26.457  11.478  11.649
27515W        W95909  16.748   1.701   4.407
27516W        W95910  44.026  40.894  11.473
27517W        W95911  35.628  24.019  12.049
27518W        W95912  35.970   0.933  14.985
27519W        W95913   5.702  41.578   1.896
27520W        W95914  15.291  43.401   4.710
27521W        W95915  32.462  27.641   1.643
27522W        W95916  32.508   9.791  12.780
27523W        W95917  44.895  21.025   4.831
27524W        W95918  22.826  40.108   0.374
27525W        W95919  39.736  27.240  14.789
27526W        W95920  11.102   9.797   4.223
27527W        W95921  11.057  22.804  12.691
27528W        W95922  32.449  14.761   5.088
27529W        W95923  21.603  41.125  13.069
27530W        W95924  11.965  36.937   4.075
27531W        W95925  26.710  38.878   4.653
27532W        W95926  26.475  31.532   2.309
27533W        W95927   3.302  39.924   0.344
27534W        W95928  23.356  18.785   1.894
27535W        W95929  21.760  15.584   1.244
27536W        W95930  41.830  18.555   3.315
27537W        W95931  17.186  30.120   3.099
27538W        W95932  13.401   3.348   2.779
27539W        W95933   7.684  43.047   2.616
27540W        W95934  25.821  38.136   0.860
27541W        W95935  30.613  36.078   0.484
27542W        W95936   8.163  38.793  12.457
27543W        W95937  20.561  24.086   3.674
27544W        W95938  26.980  30.404  12.288
27545W        W95939   3.004  13.289  13.917
27546W        W95940  11.243  41.599   2.289
27547W        W95941  42.510  23.156   2.882
27548W        W95942  38.511   2.517   3.190
27549W        W95943  21.946  21.761  14.487
27550W        W95944  43.801  17.138   3.075
27551W        W95945  27.574  30.334  13.923
27552W        W95946   5.612  35.090   3.545
27553W        W95947  12.130  42.526  11.529
27554W        W95948  25.403  38.849   3.301
27555W        W95949   4.283  24.979  14.478
27556W        W95950  42.270  38.929  11.124
27557W        W95951  28.953   7.796   4.071
27558W        W95952  12.808  42.359   4.367
27559W        W95953   9.391  44.464   1.922
27560W        W95954   4.475  26.042  13.101
27561W        W95955  27.721   3.435  14.263
27562W        W95956  34.507  15.300  11.312
27563W        W95957  44.823   8.923   2.640
27564W        W95958  19.387   3.946  10.600
27565W        W95959   8.695  43.453   0.332
27566W        W95960  28.046  28.662  14.942
27567W        W95961  16.336   8.475  14.944
27568W        W95962  44.102  43.909   2.379
27569W        W95963  35.445  14.270  10.823
27570W        W95964   4.035   4.088   2.124
27571W        W95965  35.893  23.551  12.338
27572W        W95966   7.997   4.737   4.395
27573W        W95967  39.308  38.950  13.320
27574W        W95968   5.378  31.300   4.292
27575W        W95969   1.178  20.989  11.706
27576W        W95970  27.591  38.820  13.584
27577W        W95971  44.870  39.580  14.010
27578W        W95972  44.799  24.929   0.767
27579W        W95973  32.754  39.643  13.955
27580W        W95974  18.031  44.294  12.769
27581W        W95975  36.114   1.405  12.494
27582W        W95976  33.645   8.116  13.558
27583W        W95977  28.240   7.013  13.910
27584W        W95978   7.180   9.896  11.609
27585W        W95979   7.967  33.548  14.957
27586W        W95980   4.927  28.484  10.693
27587W        W95981  28.077  31.673   3.618
27588W        W95982  16.273  35.032  14.367
27589W        W95983  12.219   0.525   4.646
27590W        W95984  27.083  38.977   0.481
27591W        W95985  25.524   5.445   1.202
27592W        W95986  13.670  12.909   1.162
27593W        W95987  23.762  44.874   3.092
27594W        W95988   6.274  24.155   3.282
27595W        W95989  13.674  24.479   1.256
27596W        W95990  19.617  39.509  11.166
27597W        W95991   2.802  13.807   1.580
27598W        W95992   6.774  35.836   0.462
27599W        W95993   3.392   6.926   0.257
27600W        W95994   3.707  15.434   4.942
27601W        W95995   0.139  37.668   9.601
27602W        W95996   5.517   3.287   2.651
27603W        W95997   0.801  10.695  14.277
27604W        W95998   1.790  12.557  10.523
27605W        W95999   0.198   0.659  10.692
27606W        W96000  11.058  11.873   4.120
27607W        W96001  23.071  29.569  12.610
27608W        W96002  31.140  19.665  14.507
27609W        W96003  30.171  43.888  13.044
27610W        W96004  16.231  27.696   1.165
27611W        W96005   8.747  13.875   1.908
27612W        W96006  38.852  36.028  13.308
27613W        W96007  18.427  39.841  14.984
27614W        W96008  22.057  44.439  13.204
27615W        W96009  43.423  13.793   3.523
27616W        W96010   3.990  38.962   4.355
27617W        W96011  10.025  24.711   3.341
27618W        W96012  31.457   0.404  13.020
27619W        W96013   0.458  31.637   1.297
27620W        W96014  22.581   1.047  12.224
27621W        W96015   0.406  11.673  12.071
27622W        W96016   4.532  21.955  14.436
27623W        W96017  12.251   0.778   0.241
27624W        W96018  41.563  33.638  11.542
27625W        W96019   1.743  21.703  12.606
27626W        W96020   9.062  39.013   5.079
27627W        W96021  27.424  31.666   0.552
27628W        W96022  21.113  37.890   2.405
27629W        W96023  34.963   9.101   0.475
27630W        W96024   0.455  27.694   4.098
27631W        W96025  15.606  36.174  10.582
27632W        W96026  22.053  29.376  10.252
27633W        W96027  33.277  21.614  13.351
27634W        W96028  14.250   2.933   3.778
27635W        W96029  30.713  23.390   3.058
27636W        W96030  11.452  33.816   1.414
27637W        W96031  29.732   0.417   4.528
27638W        W96032  39.465  16.554  14.245
27639W        W96033  43.028  31.036   4.450
27640W        W96034  20.010  38.393   2.724
27641W        W96035  22.282   8.497  14.449
27642W        W96036   7.864  38.370   3.848
27643W        W96037  12.171  23.075   4.368
27644W        W96038  24.633  18.271   4.264
27645W        W96039  23.496   9.590  12.392
27646W        W96040   1.280  16.119   1.158
27647W        W96041  20.766  42.448  11.247
27648W        W96042  12.896  12.796   1.158
27649W        W96043   6.357  26.973   2.766
27650W        W96044   0.392  43.273   1.715
27651W        W96045   9.473  38.138  13.463
27652W        W96046  44.837  36.338  12.534
27653W        W96047  14.576  40.362  11.953
27654W        W96048  29.449  13.796  13.663
27655W        W96049  22.789  18.432   3.449
27656W        W96050  32.409  31.884   0.847
27657W        W96051  10.134  42.330  10.496
27658W        W96052   4.922  26.116   4.079
27659W        W96053  33.027   8.743  13.100
27660W        W96054   7.691  12.791   0.945
27661W        W96055   2.410  31.955   0.844
27662W        W96056  32.605  34.070  14.444
27663W        W96057  37.436   3.992  11.605
27664W        W96058  17.715  34.858   1.740
27665W        W96059  11.235  43.507   2.165
27666W        W96060  41.088  36.479  11.970
27667W        W96061  18.223  14.615   1.916
27668W        W96062  36.090   3.859   4.770
27669W        W96063  41.568  41.852   3.572
27670W        W96064  23.956  38.926  10.658
27671W        W96065  40.837  34.982  12.379
27672W        W96066  25.687  14.154  14.386
27673W        W96067   8.474  22.421  12.773
27674W        W96068  44.960  32.530  12.786
27675W        W96069   6.509  43.716   1.676
27676W        W96070  31.320  22.673  11.893
27677W        W96071  23.183  13.517  12.036
27678W        W96072  24.596  44.468  11.519
27679W        W96073  24.067   1.849   3.878
27680W        W96074  22.228   3.860  11.132
27681W        W96075  35.833  43.562   4.179
27682W        W96076  23.467  26.524   4.593
27683W        W96077   6.406  10.863   4.505
27684W        W96078  38.767  12.601  14.807
27685W        W96079   1.828  39.654   2.278
27686W        W96080  39.283   5.772  13.777
27687W        W96081   2.269  26.528   3.640
27688W        W96082  15.709  22.800  12.599
27689W        W96083  14.531  40.896   4.296
27690W        W96084  20.170  36.976  13.542
27691W        W96085   3.192  35.965   0.312
27692W        W96086  14.564   4.820  14.973
27693W        W96087  33.603   8.163   3.661
27694W        W96088  17.489  30.938  10.581
27695W        W96089  34.309  21.569  13.484
27696W        W96090  31.689  28.204   4.250
27697W        W96091   2.786  29.509  13.301
27698W        W96092  27.051  39.284  14.276
27699W        W96093   2.412  40.546  14.089
27700W        W96094  31.156  15.232   0.426
27701W        W96095  41.018   7.267  12.048
27702W        W96096  27.073  28.892  13.880
27703W        W96097  27.495   2.260   2.358
27704W        W96098  14.587  27.648   1.158
27705W        W96099  10.643  21.574   2.392
27706W        W96100   9.017  20.616  10.596
27707W        W96101   5.306  44.741  13.268
27708W        W96102  19.745  25.024  13.398
27709W        W96103  14.051  18.773  14.769
27710W        W96104   5.331  16.769  10.525
27711W        W96105  16.266  22.449  10.265
27712W        W96106  15.595  26.910   3.248
27713W        W96107  20.918  16.820   2.697
27714W        W96108   4.381  40.883  12.535
27715W        W96109  38.867  43.478  12.140
27716W        W96110  32.749  34.830   2.832
27717W        W96111  40.915   6.286  12.148
27718W        W96112  32.495  10.304  13.336
27719W        W96113  34.003   4.750   3.082
27720W        W96114  43.391   1.950   1.775
27721W        W96115  27.782  18.860  11.075
27722W        W96116   0.722  34.298  15.000
27723W        W96117  27.422  24.758   2.749
27724W        W96118  41.043  41.232   2.413
27725W        W96119  28.663   2.513   2.696
27726W        W96120  16.825  14.201   0.434
27727W        W96121  28.356  21.367   3.279
27728W        W96122  41.966   5.218   3.921
27729W        W96123  40.584  27.367   1.252
27730W        W96124  32.872  15.178  12.479
27731W        W96125  28.714  20.307   2.388
27732W        W96126  23.150  23.267   0.502
27733W        W96127  37.474  11.899   0.420
27734W        W96128  11.735  17.758   4.735
27735W        W96129  25.924  37.847  13.915
27736W        W96130  42.440   0.090   2.926
27737W        W96131  16.786   8.156  10.746
27738W        W96132  19.265   5.606  14.455
27739W        W96133  42.613   0.372  11.994
27740W        W96134  20.696  36.490   1.002
27741W        W96135   7.292  41.403   3.623
27742W        W96136  22.785   6.034  13.034
27743W        W96137  40.083   2.960   2.235
27744W        W96138  14.261   6.908   3.209
27745W        W96139   5.861  29.819  11.334
27746W        W96140   5.219  26.996  13.941
27747W        W96141  12.355   4.757  13.059
27748W        W96142  30.013   5.186  14.766
27749W        W96143  29.386  15.014   0.083
27750W        W96144  18.163  36.389   1.452
27751W        W96145  13.586  35.076   1.502
27752W        W96146  11.662   5.697  14.318
27753W        W96147  16.210   8.118   3.781
27754W        W96148  34.367  21.333  13.930
27755W        W96149  30.356   1.974  12.853
27756W        W96150  15.151  21.003   2.392
27757W        W96151  18.579  22.341  14.232
27758W        W96152  13.823  15.859   4.998
27759W        W96153  28.230  41.276  14.965
27760W        W96154  37.234   7.666  10.689
27761W        W96155  42.530  17.352  14.446
27762W        W96156  15.111  10.971   2.691
27763W        W96157  41.934  41.760  13.018
27764W        W96158  17.238  28.034  11.495
27765W        W96159  12.260  38.403   4.541
27766W        W96160  25.601   9.254  13.865
27767W        W96161  29.599  10.408   3.988
27768W        W96162  42.724  37.106  13.348
27769W        W96163  23.496  33.171  13.748
27770W        W96164  20.460  38.848  12.495
27771W        W96165   8.900  31.042  13.150
27772W        W96166   2.823  11.778   0.961
27773W        W96167  17.711  25.447   0.025
27774W        W96168  32.986  32.623  12.927
27775W        W96169   2.428   2.075   4.183
27776W        W96170  42.767  25.074   3.965
27777W        W96171   3.153  19.784  12.505
27778W        W96172  22.266  38.363   1.336
27779W        W96173  29.629  11.697  11.624
27780W        W96174  13.375   8.173  10.653
27781W        W96175  27.577  26.198   0.481
27782W        W96176   4.686  27.141  11.690
27783W        W96177   9.383  12.498  10.558
27784W        W96178  18.582  12.387  12.610
27785W        W96179   3.695  17.967   0.616
27786W        W96180   7.342  37.709  12.533
27787W        W96181  16.969  13.238   3.247
27788W        W96182   5.357  36.639   0.073
27789W        W96183  42.801  39.221   4.903
27790W        W96184  13.532  43.034   3.792
27791W        W96185  23.637   8.147  11.044
27792W        W96186  22.288   1.387   0.549
27793W        W96187   4.334  32.596   1.167
27794W        W96188  32.372  14.305   3.479
27795W        W96189  17.646  38.024  12.081
27796W        W96190   1.372  39.876   2.459
27797W        W96191  37.435  10.254   3.112
27798W        W96192  28.510  16.416  13.592
27799W        W96193  13.868  42.392   4.877
27800W        W96194  43.599  30.543   1.459
27801W        W96195  27.142  23.421  13.553
27802W        W96196  38.059   5.209  14.878
27803W        W96197   3.042  38.277  11.057
27804W        W96198  12.268  18.212   0.954
27805W        W96199   8.679   4.917  10.633
27806W        W96200  34.943  15.126  13.195
27807W        W96201  28.353   5.407   0.751
27808W        W96202   3.754   8.225   0.360
27809W        W96203  29.175  32.551   3.958
27810W        W96204  12.473  22.265  11.069
27811W        W96205  16.087  16.541  10.485
27812W        W96206  34.797  18.570   4.820
27813W        W96207  20.501  34.798   0.274
27814W        W96208  20.510  11.215   3.266
27815W        W96209   2.320  32.437  13.130
27816W        W96210  20.159  14.518   4.298
27817W        W96211  44.381  18.618   4.715
27818W        W96212  11.744  26.969   3.189
27819W        W96213  22.532  27.492  13.008
27820W        W96214  10.211  21.023   3.241
27821W        W96215  38.467  24.152  13.330
27822W        W96216  25.099   0.435  11.195
27823W        W96217   2.763   9.370  12.287
27824W        W96218   9.703   2.797   4.586
27825W        W96219  44.901  23.998   0.001
27826W        W96220  16.357  37.119  10.662
27827W        W96221   9.152  13.218  11.129
27828W        W96222  12.816  20.128  13.716
27829W        W96223  13.197  26.853  11.952
27830W        W96224  31.561  31.877   3.933
27831W        W96225  12.483   6.415   5.415
27832W        W96226   2.416  42.988  14.943
27833W        W96227   2.391  30.589   0.888
27834W        W96228   3.950  27.891   2.813
27835W        W96229  15.136  41.588  13.777
27836W        W96230  31.447  38.553   2.868
27837W        W96231  29.602  34.282   0.319
27838W        W96232  35.092  24.680   2.881
27839W        W96233  33.025  34.827   3.631
27840W        W96234  43.280  36.881   1.037
27841W        W96235   9.426  26.748   2.168
27842W        W96236   8.383  17.600  11.974
27843W        W96237  35.522  24.999   2.815
27844W        W96238  22.964  18.616   4.349
27845W        W96239   1.965  16.007  10.711
27846W        W96240  18.699   7.209  10.067
27847W        W96241  24.796   6.673  11.050
27848W        W96242  33.434  18.371   0.116
27849W        W96243  38.967  17.036   2.904
27850W        W96244  39.401  33.255   3.699
27851W        W96245  13.117  38.891   4.287
27852W        W96246  28.070  33.630  11.109
27853W        W96247  34.587   5.272   0.264
27854W        W96248  44.184  34.008   1.279
27855W        W96249   4.814  38.871   1.664
27856W        W96250   0.890  16.089   4.127
27857W        W96251  30.494  38.633   2.636
27858W        W96252  29.361  38.549  11.190
27859W        W96253  42.367  35.929   1.586
27860W        W96254  11.353  23.487   0.853
27861W        W96255  23.826  23.296   3.663
27862W        W96256  15.703  38.772  14.065
27863W        W96257  21.989  41.387  12.000
27864W        W96258  30.574  43.764  12.144
27865W        W96259  11.565  28.025   3.613
27866W        W96260  12.168  19.777   0.867
27867W        W96261   6.171   4.130   2.733
27868W        W96262   2.837  29.924   0.845
27869W        W96263  33.304   2.642  11.930
27870W        W96264  44.437  37.603  12.259
27871W        W96265  23.248  11.226  12.038
27872W        W96266  29.442   5.399   1.404
27873W        W96267  25.974  12.640  12.478
27874W        W96268  33.180  30.550   1.696
27875W        W96269  18.409  24.291  13.293
27876W        W96270  11.750  13.243   2.229
27877W        W96271  30.002  26.934  13.432
27878W        W96272   1.688   9.319   2.421
27879W        W96273  14.285  23.268  12.556
27880W        W96274   2.856  16.026  12.461
27881W        W96275   8.960  22.581  12.868
27882W        W96276   2.435  18.146   1.925
27883W        W96277  32.159  18.196   1.693
27884W        W96278  19.754  32.513  11.263
27885W        W96279  31.834  15.136  11.530
27886W        W96280  24.076  32.960  13.634
27887W        W96281   6.725  29.905   3.347
27888W        W96282  23.619  18.214   0.799
27889W        W96283  12.886  15.576   4.918
27890W        W96284  42.085  35.009   4.239
27891W        W96285  42.985  24.765  12.510
27892W        W96286   1.841  13.657   5.420
27893W        W96287   0.842  17.084   5.080
27894W        W96288  38.036   4.769   2.980
27895W        W96289   3.163  30.593  13.079
27896W        W96290  19.023  30.877   4.242
27897W        W96291  24.173  26.060   1.113
27898W        W96292  15.845  32.846  14.436
27899W        W96293   1.937   5.955  10.744
27900W        W96294  28.972  30.617  13.499
27901W        W96295  41.295  10.212  14.750
27902W        W96296  13.129  12.795   1.888
27903W        W96297  12.677  24.587   0.445
27904W        W96298  36.321  42.597  13.557
27905W        W96299  44.707  44.763  11.563
27906W        W96300   3.910  40.900  11.510
27907W        W96301   7.738   1.776  11.198
27908W        W96302  17.064  44.778  13.106
27909W        W96303  38.480  17.703  11.753
27910W        W96304   4.305  34.031  11.437
27911W        W96305   5.697   9.798   1.857
27912W        W96306   6.263  11.387   2.413
27913W        W96307  34.005   9.352   4.687
27914W        W96308  32.550  25.165  13.459
27915W        W96309  40.397  24.142  13.854
27916W        W96310  34.920  13.927   1.794
27917W        W96311   2.830  15.233   3.680
27918W        W96312  18.174   6.959   5.077
27919W        W96313   7.467   6.881  12.917
27920W        W96314  13.330  35.802  14.990
27921W        W96315  16.550  12.780  12.193
27922W        W96316  16.836   7.299   0.902
27923W        W96317   4.411  39.405  12.137
27924W        W96318  26.973  25.040   5.120
27925W        W96319   0.813  30.373  14.503
27926W        W96320   1.747   4.007   4.484
27927W        W96321   7.558  15.688   0.187
27928W        W96322  17.737  26.595  10.181
27929W        W96323  33.155   3.265  12.549
27930W        W96324   0.491   8.794  13.534
27931W        W96325  42.945  20.306   2.670
27932W        W96326  13.356  27.024  11.486
27933W        W96327   6.389  15.290   2.837
27934W        W96328  25.535  36.768   1.847
27935W        W96329  28.859  29.621   4.712
27936W        W96330   1.761  22.434   4.329
27937W        W96331  41.523   4.739  11.528
27938W        W96332  27.208  24.659  11.166
27939W        W96333   3.543  43.897   4.909
27940W        W96334   5.873  10.641   2.323
27941W        W96335  16.341  35.468   4.990
27942W        W96336  33.790  21.561  13.399
27943W        W96337  39.306   7.385   1.798
27944W        W96338   5.954  16.348  13.397
27945W        W96339  21.000   4.531   4.598
27946W        W96340  15.705  24.501  11.728
27947W        W96341  20.929  31.787  12.484
27948W        W96342  15.570  33.964   1.913
27949W        W96343  17.671  44.751   4.140
27950W        W96344   0.729  28.867   0.318
27951W        W96345  14.103  15.579  10.477
27952W        W96346   0.486  31.723   0.437
27953W        W96347   2.860  41.221  11.465
27954W        W96348  10.194  34.670  11.310
27955W        W96349  17.536  43.324  12.588
27956W        W96350   5.147  27.738  12.962
27957W        W96351  15.932   6.020   3.465
27958W        W96352  34.058  25.525   3.372
27959W        W96353  44.822   2.499  14.805
27960W        W96354  37.065  21.247  13.508
27961W        W96355  27.221  17.278  12.024
27962W        W96356  27.364   8.641   2.939
27963W        W96357  43.904   3.906   2.619
27964W        W96358  15.810  21.114  12.035
27965W        W96359  12.792  23.096  13.899
27966W        W96360  19.302  36.502  12.575
27967W        W96361  22.942   3.276   2.348
27968W        W96362   3.305  28.850  11.652
27969W        W96363  28.695  22.117   0.890
27970W        W96364  43.223  14.620  14.786
27971W        W96365  20.331   1.835  11.475
27972W        W96366   7.290  40.309   0.052
27973W        W96367  27.355  39.456   2.758
27974W        W96368  37.924  28.395  13.733
27975W        W96369  24.184  40.756  10.816
27976W        W96370  14.830  10.191  12.819
27977W        W96371   3.086  28.097  14.284
27978W        W96372   8.457  12.194  13.365
27979W        W96373  37.670   7.885  10.869
27980W        W96374  43.369  36.616  14.561
27981W        W96375   3.469  31.596   1.591
27982W        W96376  19.426  12.564  11.640
27983W        W96377  37.552  35.369  14.568
27984W        W96378  19.364  35.421   1.205
27985W        W96379  17.587  33.878  12.855
27986W        W96380  34.035   1.469  14.967
27987W        W96381   1.580  32.055   5.023
27988W        W96382  29.210  21.088  12.995
27989W        W96383  29.885  28.529  12.075
27990W        W96384  31.043  25.185  10.598
27991W        W96385  21.846  42.766   1.753
27992W        W96386  38.116  10.380  12.050
27993W        W96387  25.137  33.363  11.975
27994W        W96388   2.383  16.145   3.386
27995W        W96389  34.884  26.192  11.597
27996W        W96390  13.340  35.042  11.013
27997W        W96391  27.439   7.135  11.745
27998W        W96392  36.587  23.953  13.117
27999W        W96393  33.425  36.494  13.130
28000W        W96394  30.461  34.649   4.634
28001W        W96395  29.017  21.401  11.402
28002W        W96396  44.544  20.791  14.409
28003W        W96397   5.810  19.273   3.793
28004W        W96398  18.560   9.209  12.577
28005W        W96399  21.177   9.997   3.078
28006W        W96400  29.890   3.303   3.723
28007W        W96401  34.430  29.177   3.751
28008W        W96402  12.277  27.613   0.002
28009W        W96403  29.610  34.376  10.072
28010W        W96404  22.943  10.347  11.893
28011W        W96405  32.374  10.097  11.846
28012W        W96406   6.315  35.520  12.766
28013W        W96407  22.270  22.534   2.150
28014W        W96408  20.676  11.684   3.095
28015W        W96409  26.494   5.903  14.359
28016W        W96410   5.900  19.938   2.321
28017W        W96411  32.568  40.063   1.745
28018W        W96412  42.301  42.526  11.003
28019W        W96413   7.094  43.193   4.657
28020W        W96414  44.817  21.078  10.626
28021W        W96415  17.529  37.578   2.335
28022W        W96416  19.247  36.268   4.935
28023W        W96417  42.100  34.499  13.317
28024W        W96418   5.817  44.570   0.749
28025W        W96419  17.098  23.727   3.377
28026W        W96420  13.265  13.719  14.444
28027W        W96421  15.610  17.650  11.750
28028W        W96422  44.426  23.007   4.109
28029W        W96423  17.520   4.821  12.924
28030W        W96424  43.579  25.587   4.116
28031W        W96425  16.338  43.051  10.736
28032W        W96426  31.637   2.154  13.356
28033W        W96427  27.091  25.933  14.738
28034W        W96428   2.737   4.499   3.670
28035W        W96429  16.760  43.999  14.534
28036W        W96430  28.995  23.049  10.755
28037W        W96431  40.969  27.669  13.622
28038W        W96432  18.915  26.587  13.687
28039W        W96433  33.608  20.109  11.958
28040W        W96434  18.054  39.149   0.311
28041W        W96435  39.866  36.424  12.450
28042W        W96436   2.140  22.962   2.029
28043W        W96437  26.039  25.456  12.823
28044W        W96438   2.396   3.307   1.434
28045W        W96439  30.226   4.446  12.449
28046W        W96440  26.946  19.764  13.735
28047W        W96441  20.933  20.209   1.871
28048W        W96442  25.165  25.704   3.684
28049W        W96443  31.849  19.987   3.240
28050W        W96444   0.166  32.661   3.422
28051W        W96445  33.854  21.023  11.043
28052W        W96446   8.439  18.988   0.740
28053W        W96447  13.809  35.986  14.914
28054W        W96448  37.414   0.055  14.008
28055W        W96449  35.184  31.497   3.699
28056W        W96450  11.620  10.884  11.563
28057W        W96451  28.495  17.139  10.605
28058W        W96452  30.732  23.021  11.201
28059W        W96453  30.529  44.333  13.776
28060W        W96454  16.181  11.583   0.032
28061W        W96455  39.337  28.473   4.245
28062W        W96456  16.581  16.589  14.503
28063W        W96457   6.453  34.695   2.251
28064W        W96458  14.020  23.223  14.799
28065W        W96459  41.361  30.350   0.797
28066W        W96460  10.458   1.334  14.116
28067W        W96461  13.648   7.698  14.054
28068W        W96462  32.421  36.030  11.013
28069W        W96463  32.374  20.648   3.276
28070W        W96464  44.299  26.340  14.872
28071W        W96465  26.571  30.102   2.328
28072W        W96466   6.385  43.458   2.120
28073W        W96467  18.232  17.697  13.910
28074W        W96468  34.493  17.099   4.425
28075W        W96469  39.927  39.887   5.121
28076W        W96470  33.772  33.999  12.817
28077W        W96471  31.281  11.142   4.662
28078W        W96472  41.293  40.973   4.755
28079W        W96473  28.548  42.842   3.225
28080W        W96474   0.288  23.123   2.138
28081W        W96475  25.892  43.980   2.217
28082W        W96476  33.598  23.021   0.922
28083W        W96477   7.881  10.682  10.514
28084W        W96478  26.502  31.407  12.949
28085W        W96479  43.768  16.865   4.551
28086W        W96480  10.949  28.012  13.624
28087W        W96481  20.629  27.970  12.055
28088W        W96482  30.410  38.559  13.018
28089W        W96483   6.097  42.036   3.899
28090W        W96484   4.015  43.843  11.402
28091W        W96485   2.869  29.456  14.954
28092W        W96486  30.392  25.178   0.874
28093W        W96487  21.538   0.637   2.386
28094W        W96488   5.677  14.231  14.502
28095W        W96489  42.578  35.985  10.246
28096W        W96490  18.150   1.105   4.061
28097W        W96491  15.565  33.133   3.190
28098W        W96492  26.307  26.138   3.449
28099W        W96493  10.306   4.203   1.346
28100W        W96494  37.406  15.747  12.037
28101W        W96495   3.255  10.811   3.398
28102W        W96496   0.439  24.504   0.084
28103W        W96497  21.051  31.019  13.076
28104W        W96498  18.284  24.167  14.803
28105W        W96499  44.418  44.395   1.702
28106W        W96500  35.826   0.750   3.664
28107W        W96501  22.790   9.080  13.692
28108W        W96502  40.429  11.329   4.371
28109W        W96503  22.441  19.452   2.207
28110W        W96504  13.680  15.652   2.755
28111W        W96505  10.736  36.471  11.597
28112W        W96506  21.673  37.793  10.982
28113W        W96507  18.512  11.441  14.034
28114W        W96508  23.334  24.454   2.819
28115W        W96509  26.862  25.178   4.649
28116W        W96510  23.025  31.005   3.301
28117W        W96511   8.848   2.504  12.935
28118W        W96512  31.198   9.121   1.307
28119W        W96513  24.472   2.771  13.446
28120W        W96514  27.978  27.639  12.149
28121W        W96515   6.862   4.657   3.987
28122W        W96516  21.601   6.116   1.441
28123W        W96517  29.450  41.043   3.318
28124W        W96518  21.071   3.883   3.677
28125W        W96519  35.335  23.108   1.382
28126W        W96520  22.272  40.060   0.401
28127W        W96521  24.942  34.177   1.421
28128W        W96522  38.153   4.459   1.961
28129W        W96523   2.353  20.252   0.465
28130W        W96524   8.936  23.597   5.021
28131W        W96525  31.091  43.792  12.478
28132W        W96526  24.060  20.174  11.118
28133W        W96527   1.447  43.330   3.162
28134W        W96528  43.411  11.795  10.668
28135W        W96529  19.628   2.422  14.355
28136W        W96530  42.107   1.403  10.927
28137W        W96531  17.813  34.942   0.321
28138W        W96532  43.343  15.428   1.392
28139W        W96533  34.099  30.645  10.556
28140W        W96534  10.145  25.575  14.839
28141W        W96535   4.360  26.175   5.199
28142W        W96536   6.977  34.013   0.511
28143W        W96537  25.722  41.008   0.664
28144W        W96538  42.515   6.190  10.651
28145W        W96539  23.635   4.636   1.839
28146W        W96540   4.811  40.315   4.565
28147W        W96541  26.579  40.376   2.718
28148W        W96542  24.996  18.572   0.287
28149W        W96543  10.660  42.716   0.535
28150W        W96544  44.831  22.485   1.040
28151W        W96545   2.693  17.658  12.225
28152W        W96546   9.246  29.743   2.507
28153W        W96547  15.207  16.538  13.045
28154W        W96548  37.374  36.414  12.505
28155W        W96549  24.959  24.750  12.475
28156W        W96550  24.925  11.033   2.113
28157W        W96551  40.306  35.425  14.374
28158W        W96552  43.108  28.962  10.226
28159W        W96553  40.344  23.448   1.852
28160W        W96554  27.431  16.575  12.993
28161W        W96555   8.833   6.937  11.668
28162W        W96556  22.973   0.923  14.042
28163W        W96557  31.409   7.577   3.342
28164W        W96558  40.243  38.366   3.710
28165W        W96559   2.329  22.678   3.749
28166W        W96560  24.990  38.300  13.840
28167W        W96561  31.034  10.470   0.964
28168W        W96562   8.843   4.302   3.925
28169W        W96563   8.823   5.482   1.329
28170W        W96564  20.080  37.458  14.827
28171W        W96565  43.351  30.994   0.278
28172W        W96566  20.710  10.761  12.404
28173W        W96567   6.281  34.301  11.461
28174W        W96568  28.699  21.427   1.481
28175W        W96569  15.867  36.809  11.456
28176W        W96570  24.572  28.124   4.730
28177W        W96571   4.817  17.464   0.467
28178W        W96572  27.651  17.540  13.029
28179W        W96573   8.200   9.173  10.643
28180W        W96574  26.995  10.262   0.261
28181W        W96575  12.144   9.907  11.027
28182W        W96576  13.671  22.192   0.905
28183W        W96577   0.471  44.136  11.657
28184W        W96578  31.136  15.652   1.802
28185W        W96579  11.419  39.392   1.223
28186W        W96580   6.249   8.357   2.736
28187W        W96581   3.350   2.265   4.148
28188W        W96582   0.776  13.234   2.257
28189W        W96583  16.595  39.957   0.320
28190W        W96584   1.270   2.379   3.689
28191W        W96585   6.051  32.155  11.535
28192W        W96586   4.512   0.866   3.342
28193W        W96587   0.848   7.513  14.450
28194W        W96588  34.895  44.925  14.917
28195W        W96589   2.836  33.847   0.839
28196W        W96590   1.936  24.024   0.322
28197W        W96591   9.385  15.597  14.423
28198W        W96592  37.855   7.657   3.112
28199W        W96593  38.252  28.361   4.273
28200W        W96594  34.690  13.596  14.939
28201W        W96595   1.793  41.705   0.021
28202W        W96596  20.239  40.375  12.989
28203W        W96597  14.920   4.489   2.653
28204W        W96598   9.665  44.371   0.306
28205W        W96599  22.991  24.006  11.011
28206W        W96600  12.049  12.365  14.788
28207W        W96601  40.636   6.941   2.909
28208W        W96602  11.633   5.706   3.573
28209W        W96603  16.861  33.569   0.645
28210W        W96604  39.972  20.544  11.680
28211W        W96605   4.780  23.513  10.199
28212W        W96606  21.194  26.903   0.322
28213W        W96607  42.835  31.113  14.749
28214W        W96608  12.125  12.264  13.837
28215W        W96609  25.531  26.881   0.790
28216W        W96610  37.023  25.456   2.282
28217W        W96611  25.244  42.616   3.782
28218W        W96612  32.796  39.812  12.467
28219W        W96613   7.142  35.628  13.104
28220W        W96614   3.266   4.284  11.711
28221W        W96615   2.383  23.415   2.174
28222W        W96616   9.393  39.100  14.925
28223W        W96617  19.371  32.466  11.645
28224W        W96618   2.970  27.542  11.917
28225W        W96619  28.196  28.899   3.284
28226W        W96620   8.689  29.384   1.811
28227W        W96621   1.021  19.192  12.077
28228W        W96622  23.709  40.871  11.707
28229W        W96623  10.810  28.284   4.063
28230W        W96624  24.691  29.437   0.821
28231W        W96625  44.661  32.059   3.227
28232W        W96626  14.215  44.739   0.720
28233W        W96627  36.883  23.948  14.268
28234W        W96628  36.640  18.553  14.445
28235W        W96629  29.055  28.591   1.442
28236W        W96630   4.329  28.342  13.893
28237W        W96631  31.374  31.594   1.465
28238W        W96632   1.313  18.912  13.869
28239W        W96633  29.726   7.847  11.334
28240W        W96634  22.737  32.713  10.618
28241W        W96635  40.782   3.035  13.898
28242W        W96636   4.174  24.584   0.924
28243W        W96637  14.689  29.020  10.537
28244W        W96638  20.703  13.167  11.576
28245W        W96639  37.507  26.443  14.015
28246W        W96640   1.011  20.111   3.271
28247W        W96641   9.330   7.186   4.459
28248W        W96642  22.800  37.957  13.785
28249W        W96643  22.965  19.768  11.547
28250W        W96644  34.920  14.220  14.230
28251W        W96645  44.267  31.738   3.185
28252W        W96646   0.449  34.051   4.575
28253W        W96647   9.676  10.267  14.951
28254W        W96648   4.279  34.394   2.730
28255W        W96649  39.970  36.985  10.973
28256W        W96650  42.708  25.095  14.338
28257W        W96651   6.854  33.638  10.705
28258W        W96652   0.006   7.293   0.077
28259W        W96653  40.129  36.538  14.328
28260W        W96654  22.713  21.239  14.781
28261W        W96655  34.322  24.200   2.551
28262W        W96656  17.729  35.422  14.513
28263W        W96657  35.937   6.096  14.281
28264W        W96658  40.624  10.561   2.271
28265W        W96659  24.598  25.656  13.444
28266W        W96660  14.697  29.805   2.275
28267W        W96661   1.847  34.085  13.469
28268W        W96662  37.544  18.551  11.659
28269W        W96663  16.810  36.099   0.651
28270W        W96664   7.639  21.663   3.252
28271W        W96665  44.921  18.675   0.627
28272W        W96666  30.286   2.804  13.984
28273W        W96667  42.929  34.400   2.670
28274W        W96668  11.801  39.450  12.307
28275W        W96669  21.081  43.262   3.288
28276W        W96670  44.458  15.433  12.086
28277W        W96671  26.017  30.052  13.891
28278W        W96672   2.341   5.245  11.961
28279W        W96673  15.201  30.891  13.405
28280W        W96674  22.925  16.934   3.701
28281W        W96675  19.368   5.680   0.336
28282W        W96676   3.402  24.128   1.682
28283W        W96677  44.248  21.212  14.405
28284W        W96678  14.062  32.348  14.855
28285W        W96679  10.763  23.933  14.305
28286W        W96680   5.953  11.750   1.204
28287W        W96681  32.394  17.308  11.487
28288W        W96682   0.994  36.167  14.483
28289W        W96683  24.488  15.160   3.758
28290W        W96684  33.092  29.981  12.453
28291W        W96685  39.890  26.750  13.776
28292W        W96686  18.254  33.394  10.641
28293W        W96687  12.908  26.480  14.781
28294W        W96688  29.386  25.123   1.990
28295W        W96689  32.005  28.973  12.037
28296W        W96690  12.887  26.427  11.985
28297W        W96691  32.095  21.659  14.139
28298W        W96692  43.730   9.788   0.315
28299W        W96693   6.819  30.663   2.846
28300W        W96694   9.347  35.538   1.852
28301W        W96695  27.947  17.232   2.560
28302W        W96696  37.655   3.514   3.255
28303W        W96697   0.516  25.967  11.258
28304W        W96698  38.135  36.853   0.997
28305W        W96699   8.901  13.661  11.974
28306W        W96700   6.652  22.195   1.862
28307W        W96701  19.200  16.401   4.582
28308W        W96702  36.011  24.602  11.570
28309W        W96703  19.566  14.750  10.913
28310W        W96704  22.281  10.805  11.590
28311W        W96705  26.684   3.715  14.090
28312W        W96706  21.101  29.559  13.002
28313W        W96707  39.512   6.841  11.137
28314W        W96708  32.447  23.559  12.787
28315W        W96709  36.040  27.976   4.010
28316W        W96710  36.417  31.918  11.548
28317W        W96711  26.728  12.786  12.052
28318W        W96712  41.820  38.345   0.803
28319W        W96713  16.766  40.814  14.865
28320W        W96714  31.845  25.294   1.655
28321W        W96715  43.715  15.207  13.392
28322W        W96716   5.176  28.197   1.103
28323W        W96717  13.795  42.251  13.561
28324W        W96718  10.187  44.347   2.612
28325W        W96719  10.048  14.268   0.953
28326W        W96720  14.231   1.782   2.705
28327W        W96721  33.090  37.032   0.532
28328W        W96722  11.596   6.668  12.939
28329W        W96723   7.288  28.022   4.568
28330W        W96724   0.436  10.671   1.993
28331W        W96725  21.001  10.341   0.876
28332W        W96726   7.837  19.772  13.237
28333W        W96727  25.587  31.960   2.225
28334W        W96728  15.008  35.323  13.057
28335W        W96729  41.378   3.647   3.260
28336W        W96730  36.848  41.981   4.739
28337W        W96731  36.931  14.167   3.542
28338W        W96732  28.481  33.916   1.216
28339W        W96733  21.493  12.741   2.161
28340W        W96734  13.185  32.037   4.610
28341W        W96735  41.928  31.692  11.635
28342W        W96736   3.965  24.674  13.973
28343W        W96737  30.587  12.110   2.796
28344W        W96738  34.229  11.187  13.438
28345W        W96739  40.526  21.004  10.331
28346W        W96740   0.997  37.128   2.184
28347W        W96741   6.186  15.228  14.293
28348W        W96742  14.293  41.859   5.149
28349W        W96743  39.350  25.971   3.519
28350W        W96744  19.126  43.845   4.744
28351W        W96745  43.154   4.246  12.058
28352W        W96746   1.357  21.749   3.137
28353W        W96747  20.468  24.243   4.164
28354W        W96748   1.378   2.968   3.734
28355W        W96749  41.021  31.567  11.113
28356W        W96750   4.543   0.523  10.454
28357W        W96751   9.131  34.371  12.671
28358W        W96752  32.437  40.239   1.199
28359W        W96753  39.000  39.298   1.861
28360W        W96754  28.900  28.661   0.391
28361W        W96755  20.500  32.496   1.797
28362W        W96756  33.081  17.309  14.460
28363W        W96757  10.546  18.217  13.867
28364W        W96758   5.053  13.794  11.886
28365W        W96759  11.560  40.037   4.605
28366W        W96760  18.646   7.041   1.926
28367W        W96761  31.948   7.730   4.286
28368W        W96762  12.351   5.453  10.541
28369W        W96763  14.709  44.683  12.201
28370W        W96764  15.643  35.270  10.082
28371W        W96765   0.299  15.821   0.485
28372W        W96766  39.758  30.041  13.917
28373W        W96767   9.492  27.471   2.740
28374W        W96768  10.912  31.506   3.155
28375W        W96769  43.712   8.033   3.342
28376W        W96770  31.364  16.179   3.322
28377W        W96771  27.506   9.397  14.873
28378W        W96772  10.441  27.011  13.958
28379W        W96773  19.745  20.791  14.206
28380W        W96774  37.999  17.029   0.916
28381W        W96775  25.663  12.719  14.969
28382W        W96776  34.195  23.183  11.664
28383W        W96777   3.190  24.607   3.680
28384W        W96778   5.655  22.093  13.950
28385W        W96779  25.508  29.634  12.614
28386W        W96780  33.391   5.896   0.397
28387W        W96781  27.699  14.114   3.774
28388W        W96782   1.813   9.645   1.774
28389W        W96783   9.202  30.474  12.683
28390W        W96784  28.964  39.402   0.846
28391W        W96785   1.387   6.532   3.561
28392W        W96786  37.522   9.643  10.634
28393W        W96787  23.796   3.668  13.008
28394W        W96788  40.036  43.912  12.497
28395W        W96789  33.010  34.173  12.149
28396W        W96790   8.737  10.996  14.434
28397W        W96791  30.135  36.462  14.722
28398W        W96792  12.192  12.703  13.587
28399W        W96793  26.137  19.489  14.351
28400W        W96794  23.134  38.239  11.978
28401W        W96795   9.886   8.868  14.820
28402W        W96796  37.877  35.356   2.640
28403W        W96797  25.430  11.215   1.445
28404W        W96798  32.345  27.573   3.072
28405W        W96799  30.159   9.447  12.047
28406W        W96800   0.382  10.647   0.439
28407W        W96801  23.071  32.596   1.022
28408W        W96802  41.614  27.266   1.217
28409W        W96803  19.535  23.456  11.470
28410W        W96804  26.589  26.890   0.991
28411W        W96805  32.455   5.992   0.294
28412W        W96806  43.376   8.347   1.188
28413W        W96807  16.378  15.145   1.613
28414W        W96808  40.412  11.476   3.875
28415W        W96809  17.123   2.873  10.717
28416W        W96810  36.902  21.734  13.415
28417W        W96811  34.702  34.386  10.918
28418W        W96812   9.134   1.092   4.223
28419W        W96813   1.954   7.010  14.068
28420W        W96814  37.400   0.255   4.766
28421W        W96815  43.056   7.407   2.665
28422W        W96816  43.916  10.363   1.688
28423W        W96817  17.615   2.452   0.458
28424W        W96818   7.101  44.513  10.865
28425W        W96819  21.488   8.812   4.414
28426W        W96820  38.827  30.008  10.284
28427W        W96821  33.378  10.308   3.651
28428W        W96822  38.403  33.984   0.497
28429W        W96823  33.879   1.791   3.000
28430W        W96824  31.907  19.494   4.139
28431W        W96825  12.893  13.788  13.053
28432W        W96826   0.924  16.731  13.004
28433W        W96827  36.826  19.730   2.273
28434W        W96828  38.383  18.428   1.594
28435W        W96829  36.556  15.572  13.295
28436W        W96830  12.140  44.941   0.995
28437W        W96831  11.785  22.722  12.231
28438W        W96832  29.945  24.674   4.663
28439W        W96833  36.233  17.359   4.961
28440W        W96834  15.101  27.972  13.388
28441W        W96835   0.107  17.678   3.236
28442W        W96836  16.531  40.031   3.284
28443W        W96837   3.367  13.447   2.666
28444W        W96838  19.275  38.268   3.253
28445W        W96839  34.100  27.264   4.484
28446W        W96840  27.036  33.511   1.798
28447W        W96841  24.646  13.714   2.749
28448W        W96842  19.573  23.483  13.935
28449W        W96843  28.978  31.929   0.395
28450W        W96844  27.548  13.452   2.821
28451W        W96845   3.491   5.773  12.921
28452W        W96846   3.180  40.559   1.505
28453W        W96847  32.940   6.156  11.456
28454W        W96848  21.284  41.337   4.192
28455W        W96849   4.750   8.895   0.043
28456W        W96850  42.783   4.303  11.702
28457W        W96851  13.189  32.556   1.300
28458W        W96852  10.573  34.009  13.818
28459W        W96853  24.631  43.934   1.291
28460W        W96854  24.622  11.934   1.794
28461W        W96855  16.622  38.763  13.902
28462W        W96856  38.139  41.466  11.522
28463W        W96857   7.736  43.979   4.142
28464W        W96858  27.629  42.834   2.808
28465W        W96859  44.508  28.635  11.152
28466W        W96860  20.190  23.089   0.035
28467W        W96861  21.229  19.725   1.806
28468W        W96862  17.416  37.821  11.629
28469W        W96863  40.814   7.758   0.258
28470W        W96864  13.130  43.477   2.503
28471W        W96865  37.386  17.991  13.103
28472W        W96866  33.310  22.114   0.280
28473W        W96867  11.253   5.771  11.355
28474W        W96868  17.277  35.805  11.592
28475W        W96869   6.139  22.356  12.451
28476W        W96870  25.920  20.525   1.240
28477W        W96871  39.936  39.339  10.589
28478W        W96872  36.513  41.521   3.269
28479W        W96873  20.883  38.879  10.756
28480W        W96874  26.771  15.154   3.722
28481W        W96875  32.438  33.485   2.339
28482W        W96876   1.892   8.679   3.962
28483W        W96877  43.250  13.295  12.899
28484W        W96878   6.288   1.809   4.646
28485W        W96879   3.391   1.353  13.106
28486W        W96880  34.317  14.869  13.007
28487W        W96881  27.671  35.425   0.887
28488W        W96882  10.800   3.105   0.411
28489W        W96883   5.642   2.160   5.054
28490W        W96884   1.943  32.543  14.910
28491W        W96885  28.768  31.659  10.700
28492W        W96886  28.705  19.652  13.909
28493W        W96887   3.693  24.738   3.105
28494W        W96888  41.609  33.013  13.020
28495W        W96889  23.241  40.021   4.210
28496W        W96890   6.193  12.616  14.621
28497W        W96891  21.797  41.508  11.472
28498W        W96892  37.078  17.623  11.483
28499W        W96893  42.811  15.659  14.355
28500W        W96894   5.869  27.981  13.172
28501W        W96895   7.187  23.370  13.965
28502W        W96896  38.712  23.597  14.475
28503W        W96897  39.812  23.734   0.353
28504W        W96898  20.675  29.759   3.790
28505W        W96899  23.495  29.934   3.246
28506W        W96900  30.193  31.038  14.899
28507W        W96901   6.683  28.677   0.751
28508W        W96902   6.944  43.868  13.316
28509W        W96903   2.184   9.933  11.628
28510W        W96904  15.809   4.260  14.739
28511W        W96905  42.535  44.805   3.351
28512W        W96906  27.750   4.891  13.297
28513W        W96907  33.466  40.510  12.741
28514W        W96908  33.780  20.483   0.951
28515W        W96909  19.498  38.334   1.837
28516W        W96910  36.412  36.510  14.904
28517W        W96911   4.211   8.381   2.673
28518W        W96912   0.958  14.750  14.477
28519W        W96913  33.153  31.532  10.802
28520W        W96914   8.772  17.809  12.572
28521W        W96915  16.369   8.213   0.820
28522W        W96916  38.289  35.657   2.823
28523W        W96917  16.103  41.001  11.007
28524W        W96918  30.628  27.189  14.262
28525W        W96919   6.333  39.017   2.797
28526W        W96920  41.805  34.503   3.619
28527W        W96921  38.203  32.082  12.378
28528W        W96922  42.985  34.661  11.508
28529W        W96923   2.951  14.667  14.404
28530W        W96924  20.071   2.167  12.223
28531W        W96925  44.035  30.297  12.432
28532W        W96926  18.261  17.225   3.199
28533W        W96927  29.205   3.816  11.661
28534W        W96928  12.928   3.765  12.561
28535W        W96929  28.044  21.011   2.461
28536W        W96930  37.028  23.278   3.152
28537W        W96931  43.995  33.162   4.509
28538W        W96932   6.184  34.366  14.291
28539W        W96933  13.650   0.938   0.252
28540W        W96934  10.015  43.869   4.043
28541W        W96935  10.298  16.562   1.324
28542W        W96936  27.745  44.602  13.709
28543W        W96937  20.036  38.569  11.225
28544W        W96938  36.057  40.180   4.061
28545W        W96939  41.194  31.522   4.809
28546W        W96940  35.002   8.800   0.926
28547W        W96941   2.946  30.205   0.375
28548W        W96942  25.328   7.698  10.704
28549W        W96943  27.875  17.420   1.636
28550W        W96944  30.147   8.812   3.785
28551W        W96945  24.215  30.215  10.588
28552W        W96946  43.936  38.740  14.816
28553W        W96947  10.777  42.350   2.365
28554W        W96948   6.148  13.683  13.359
28555W        W96949  20.628  23.953  12.988
28556W        W96950  11.830  44.203   0.897
28557W        W96951  37.987  22.069   0.463
28558W        W96952  12.419  23.172  12.070
28559W        W96953   9.840  10.354   1.426
28560W        W96954  25.766  10.656  12.873
28561W        W96955   3.126   5.737  10.922
28562W        W96956  10.166  28.588   4.350
28563W        W96957  28.035  36.287   4.223
28564W        W96958  41.405  37.648   4.048
28565W        W96959  13.063  11.593   1.845
28566W        W96960  14.500  12.205   2.786
28567W        W96961  26.872  14.904  12.674
28568W        W96962  44.270  39.729   1.293
28569W        W96963  10.635  10.359  13.568
28570W        W96964  26.405  41.232  14.234
28571W        W96965   2.803  37.107  12.929
28572W        W96966  11.634  10.091   1.908
28573W        W96967  38.960  35.911   3.062
28574W        W96968  21.179  16.854  11.340
28575W        W96969  27.100   2.522  10.280
28576W        W96970   3.354  39.403   4.535
28577W        W96971   6.361  30.330  14.422
28578W        W96972  34.984   8.794   3.182
28579W        W96973  43.227  19.787   3.324
28580W        W96974  11.600  44.913  12.804
28581W        W96975  29.999  44.359   0.259
28582W        W96976   8.913   6.310  11.098
28583W        W96977  32.374  32.483   1.414
28584W        W96978  11.330   7.977   4.059
28585W        W96979  15.101  24.203   2.592
28586W        W96980  17.626  14.568   0.030
28587W        W96981  44.669  36.427  14.932
28588W        W96982  41.371   6.251   2.743
28589W        W96983  33.882  13.225   2.708
28590W        W96984  42.541  27.869   1.745
28591W        W96985   9.844   4.189   1.922
28592W        W96986  43.746  15.799   2.780
28593W        W96987  22.418   6.861  11.576
28594W        W96988  37.262   8.358  11.922
28595W        W96989  19.078  18.630  11.870
28596W        W96990   4.591  14.269   4.205
28597W        W96991  40.610  18.685  13.468
28598W        W96992   1.663  23.580   0.335
28599W        W96993  31.186  38.597  14.072
28600W        W96994  15.781  17.413   5.534
28601W        W96995  25.169  23.492   1.617
28602W        W96996  20.512  15.565  11.001
28603W        W96997  24.723  18.872  11.508
28604W        W96998  35.572  38.814  13.956
28605W        W96999  33.058  13.766  12.923
28606W        W97000  37.991  15.269   3.589
28607W        W97001  20.114  39.443  12.027
28608W        W97002  38.022  33.610   3.323
28609W        W97003  43.887  34.017  11.146
28610W        W97004  17.752  39.140  14.801
28611W        W97005   4.198   4.024  13.318
28612W        W97006  42.119  41.051  11.659
28613W        W97007  36.700  22.111  13.162
28614W        W97008  28.119   8.195  14.901
28615W        W97009  39.772   5.993  12.525
28616W        W97010  19.132   5.252   3.084
28617W        W97011  30.411   4.128   5.025
28618W        W97012  24.500  17.361   4.115
28619W        W97013   7.744  14.361  11.180
28620W        W97014   6.162  10.439   3.569
28621W        W97015  39.534  11.165  12.979
28622W        W97016  30.631  31.121   4.167
28623W        W97017   0.243  44.219   2.864
28624W        W97018  11.166  18.757   1.832
28625W        W97019  17.801  40.832  11.205
28626W        W97020  36.603  43.319  12.457
28627W        W97021  13.569  36.821  12.263
28628W        W97022  12.396  23.270   3.929
28629W        W97023  30.201  35.910  13.865
28630W        W97024  40.056   9.331   0.948
28631W        W97025   2.157   5.248  14.373
28632W        W97026  26.458  30.756   5.099
28633W        W97027  13.466  36.013  14.473
28634W        W97028  22.143  32.259   5.168
28635W        W97029  10.898  34.077  11.859
28636W        W97030  31.507  30.659   2.386
28637W        W97031   3.032  27.537  14.335
28638W        W97032  32.627  24.783   1.360
28639W        W97033  34.439  19.370   1.643
28640W        W97034  19.985  35.395  12.651
28641W        W97035  43.036  23.197   2.803
28642W        W97036  42.817  30.750  12.459
28643W        W97037  16.631  17.676  14.983
28644W        W97038  41.815  25.870   2.280
28645W        W97039  14.306  17.209   1.698
28646W        W97040  17.646  30.685  12.608
28647W        W97041  38.479  44.952  14.345
28648W        W97042  25.805  11.829  10.200
28649W        W97043  15.843   7.478   1.001
28650W        W97044  26.671  12.439   3.291
28651W        W97045  23.620  34.482   4.741
28652W        W97046  40.075  32.074   4.603
28653W        W97047  37.838   2.351  11.885
28654W        W97048  12.542  14.773   0.470
28655W        W97049  42.452   0.601   2.877
28656W        W97050  20.036  28.707  12.072
28657W        W97051  34.104   5.894   3.223
28658W        W97052   8.264   4.798   0.210
28659W        W97053   4.938  29.477  14.179
28660W        W97054  24.864   1.811  11.063
28661W        W97055  40.797  28.662   4.418
28662W        W97056  11.035  22.558  13.944
28663W        W97057  23.770  29.352   4.190
28664W        W97058  12.426  17.125   0.783
28665W        W97059  30.892   8.196  13.423
28666W        W97060  20.702  37.431   4.495
28667W        W97061   6.465  35.029   3.272
28668W        W97062  22.367  29.471   2.182
28669W        W97063  36.160  37.876  14.368
28670W        W97064  20.599  40.941  10.439
28671W        W97065  36.389  36.700  12.580
28672W        W97066  34.752   8.132  11.634
28673W        W97067  24.000   8.112  13.830
28674W        W97068  28.157  34.963   3.925
28675W        W97069  11.990  33.013   2.288
28676W        W97070  43.844  27.697  14.211
28677W        W97071  19.123  32.651   4.393
28678W        W97072  42.830  39.883   3.733
28679W        W97073  38.380   7.188  14.386
28680W        W97074  13.816   3.153  14.700
28681W        W97075  10.149  31.788  11.582
28682W        W97076  38.160  42.953   3.722
28683W        W97077  10.107   3.060  13.357
28684W        W97078  31.520   5.384   2.715
28685W        W97079   7.585  27.702  14.861
28686W        W97080  35.760  42.820   4.735
28687W        W97081  39.931  20.057  13.015
28688W        W97082  15.020  36.322  11.893
28689W        W97083  26.317  17.390  11.946
28690W        W97084  39.394  23.770  13.504
28691W        W97085  43.979  40.563   0.298
28692W        W97086  40.218  18.603   0.272
28693W        W97087  42.017  19.127   0.374
28694W        W97088  22.498  15.336   3.241
28695W        W97089  27.708  44.341  11.221
28696W        W97090  43.036   7.398   1.751
28697W        W97091  26.560  40.860  11.557
28698W        W97092  42.490  42.852  11.602
28699W        W97093  10.115  39.084  10.748
28700W        W97094  10.391  11.365  10.759
28701W        W97095   1.974  35.576  12.076
28702W        W97096   8.692  40.050   0.354
28703W        W97097  23.208  26.021  14.414
28704W        W97098  22.460   3.772   2.825
28705W        W97099  40.911  40.962  12.556
28706W        W97100  32.086  41.329  12.495
28707W        W97101  41.909   7.910   2.838
28708W        W97102  43.985  12.759  11.243
28709W        W97103   5.845   0.249   1.468
28710W        W97104  35.067  22.218  13.256
28711W        W97105   9.355   8.236  11.017
28712W        W97106  12.305  16.686  10.824
28713W        W97107  28.966  42.760  12.345
28714W        W97108  41.441  26.439   1.046
28715W        W97109  18.230  41.783  12.571
28716W        W97110  39.713  34.068  14.410
28717W        W97111  14.807   6.848   2.522
28718W        W97112  16.904  16.459   4.591
28719W        W97113  31.746  37.252  13.557
28720W        W97114  37.502  27.442  12.043
28721W        W97115   6.309   1.312  14.020
28722W        W97116   9.698  14.168  11.924
28723W        W97117  26.654  26.484   3.629
28724W        W97118   6.621   3.193  11.648
28725W        W97119  39.331  14.198  13.581
28726W        W97120  11.518   8.743  11.478
28727W        W97121  32.893  28.569   2.211
28728W        W97122  41.945  20.858   3.936
28729W        W97123  11.553  15.178   3.223
28730W        W97124   4.701  27.384   2.603
28731W        W97125  20.727  23.935   1.733
28732W        W97126  27.640  21.900   4.268
28733W        W97127   8.377  16.135   2.732
28734W        W97128  19.813  12.058   1.184
28735W        W97129  20.304   1.830  10.060
28736W        W97130  15.584   6.508   1.363
28737W        W97131  35.353  14.761  11.544
28738W        W97132  17.884  23.991   4.060
28739W        W97133  36.298   3.903  14.343
28740W        W97134   7.436   5.351   4.173
28741W        W97135   6.009  18.767   3.555
28742W        W97136  22.615   4.642  12.225
28743W        W97137  36.439  12.228  12.900
28744W        W97138  38.333   5.420  11.975
28745W        W97139   6.245  41.685   1.617
28746W        W97140  37.890  10.144   1.554
28747W        W97141  38.438  21.285  11.982
28748W        W97142   8.861  26.607   0.819
28749W        W97143  40.665  32.942  11.077
28750W        W97144  42.796   7.309   4.564
28751W        W97145  41.818  44.370   3.195
28752W        W97146  24.530  42.962   2.607
28753W        W97147  36.308  20.593  13.395
28754W        W97148  26.240  36.440  10.533
28755W        W97149  34.841   5.393   0.753
28756W        W97150  34.914   3.845  12.151
28757W        W97151  42.936  27.703   1.466
28758W        W97152   9.722  36.871   3.363
28759W        W97153  31.521   9.297  10.972
28760W        W97154   4.225  43.564   2.015
28761W        W97155  40.471  42.598  11.616
28762W        W97156  31.967  18.731  10.607
28763W        W97157  39.111  11.798  12.453
28764W        W97158  29.048  12.129  11.088
28765W        W97159  17.503  22.019   3.051
28766W        W97160   9.322  30.587  11.654
28767W        W97161  34.964   8.869   4.672
28768W        W97162  17.634   7.925   4.513
28769W        W97163  14.600  42.905   3.724
28770W        W97164  38.148  44.766  12.003
28771W        W97165   6.168  27.697   3.456
28772W        W97166   2.740  12.545   0.476
28773W        W97167  21.741  16.764  13.996
28774W        W97168  42.710  37.121  11.199
28775W        W97169  26.439  30.183  11.375
28776W        W97170  38.090  21.270   4.604
28777W        W97171  34.138  42.792  12.051
28778W        W97172  15.470  15.144   3.376
28779W        W97173  16.541  19.110   4.360
28780W        W97174   3.521   3.840   0.952
28781W        W97175   9.185  11.202   4.036
28782W        W97176  43.977  12.854   2.063
28783W        W97177  18.657  34.395  11.185
28784W        W97178  43.534  42.430  12.095
28785W        W97179  19.509  30.933  12.889
28786W        W97180  21.707  21.173  12.056
28787W        W97181   1.349  20.688  12.090
28788W        W97182   7.458  22.132  11.155
28789W        W97183  32.295  21.699   4.704
28790W        W97184  18.795  34.627   3.446
28791W        W97185  12.033  43.284  11.094
28792W        W97186   9.126  39.495  12.596
28793W        W97187  17.869   6.122  11.913
28794W        W97188  21.547  44.228  13.318
28795W        W97189   4.860  42.340  12.141
28796W        W97190  11.920  28.188   1.733
28797W        W97191  22.624  32.866   4.435
28798W        W97192  41.072  34.149  14.520
28799W        W97193  25.498  22.777   0.435
28800W        W97194  43.491   4.169   2.919
28801W        W97195  42.420  18.506  12.401
28802W        W97196  26.410  32.953  14.911
28803W        W97197  11.926   0.565  14.373
28804W        W97198  32.654   6.116  10.598
28805W        W97199  17.633  21.153  12.552
28806W        W97200  31.522   6.448  14.528
28807W        W97201  37.444  13.073  14.405
28808W        W97202  11.821  41.843   2.262
28809W        W97203  25.622   7.771   3.818
28810W        W97204  34.261  17.801  11.111
28811W        W97205  22.603  22.223  14.914
28812W        W97206  15.649  12.685   0.491
28813W        W97207  28.502  18.357  11.230
28814W        W97208  43.388  13.001   3.378
28815W        W97209  44.149  29.554  14.953
28816W        W97210  15.098  29.386   0.277
28817W        W97211   6.329  23.117  11.634
28818W        W97212  13.604  41.752   2.727
28819W        W97213  34.101   7.193  12.928
28820W        W97214  40.682  10.221   3.575
28821W        W97215  36.522   7.905  13.436
28822W        W97216  17.673  12.166   4.101
28823W        W97217  42.925  11.064  14.235
28824W        W97218  15.150  26.911  14.328
28825W        W97219  16.708  29.593   2.368
28826W        W97220  41.513  28.239   2.378
28827W        W97221  44.965   0.946  13.974
28828W        W97222  42.069   5.589   1.651
28829W        W97223   8.447  27.835   1.335
28830W        W97224  36.929   5.748   4.478
28831W        W97225  42.553   6.132  12.979
28832W        W97226  30.588  21.112   4.479
28833W        W97227  41.108  37.877   2.716
28834W        W97228  27.477  15.188   1.382
28835W        W97229  13.909  36.825   0.976
28836W        W97230   7.909  15.196  11.950
28837W        W97231  13.282  20.013  11.006
28838W        W97232  12.766  19.609  14.480
28839W        W97233  20.308   0.479   4.195
28840W        W97234  26.960  41.333  13.367
28841W        W97235  20.276  35.631  13.076
28842W        W97236  10.736  34.328   1.113
28843W        W97237   8.840  42.789   0.920
28844W        W97238   8.915  11.228   2.748
28845W        W97239  40.532  41.378  14.931
28846W        W97240  32.144  14.836   4.132
28847W        W97241   5.188  27.129   1.730
28848W        W97242   3.233  13.205   4.130
28849W        W97243  18.571   4.429  12.544
28850W        W97244   3.460  41.822   0.754
28851W        W97245  28.445   1.772  14.867
28852W        W97246   0.709  26.941  12.629
28853W        W97247  34.786  25.954  12.488
28854W        W97248  44.011  33.908   3.911
28855W        W97249  27.153  10.563   3.598
28856W        W97250  28.007  15.198   0.487
28857W        W97251  13.688  20.143  12.151
28858W        W97252  12.743  22.750  12.270
28859W        W97253  29.885  29.413   0.698
28860W        W97254  16.136  31.433   0.590
28861W        W97255  34.902  30.964  12.905
28862W        W97256  15.311  37.328  13.769
28863W        W97257   0.998  23.149  13.468
28864W        W97258  17.984  34.911   3.283
28865W        W97259  43.794  38.103   3.498
28866W        W97260  24.653  35.560  13.499
28867W        W97261  17.861  44.841  13.488
28868W        W97262  18.257  24.061   3.685
28869W        W97263  26.287  32.876   4.100
28870W        W97264  15.798   9.522   2.160
28871W        W97265  21.149  18.784  12.922
28872W        W97266  12.617   8.360  14.406
28873W        W97267   4.334  38.327   2.704
28874W        W97268   4.241  29.677   1.707
28875W        W97269  39.314  27.726   3.639
28876W        W97270  29.495  43.262  10.448
28877W        W97271   6.157  24.600  11.902
28878W        W97272   2.395  16.192  13.354
28879W        W97273  33.483  19.300  11.680
28880W        W97274  21.931  10.418  10.642
28881W        W97275  39.303  31.509  12.119
28882W        W97276  22.313  43.919   0.855
28883W        W97277  19.981   2.034   4.873
28884W        W97278  25.450  42.315  11.625
28885W        W97279  38.428  31.681   0.931
28886W        W97280   3.225  31.745   4.121
28887W        W97281  34.457  39.472   1.209
28888W        W97282  11.356  13.752   4.164
28889W        W97283  42.145  20.650   0.323
28890W        W97284  36.437  27.155   4.286
28891W        W97285  39.858  39.313   3.133
28892W        W97286   5.379  23.492  14.684
28893W        W97287  41.434  10.824   2.180
28894W        W97288  44.033  13.118  10.738
28895W        W97289  21.585  42.491  11.586
28896W        W97290   4.917  29.929   2.755
28897W        W97291  18.689  44.333  10.883
28898W        W97292  40.370  20.337   0.764
28899W        W97293  33.690  41.423  11.221
28900W        W97294   5.070   4.718   3.577
28901W        W97295  22.516   3.860   3.366
28902W        W97296   0.788   3.308   2.465
28903W        W97297  29.477  27.670   3.215
28904W        W97298  14.467  12.358   0.874
28905W        W97299  30.157  24.575  14.351
28906W        W97300  15.714   3.851   1.723
28907W        W97301  25.145  27.734  11.412
28908W        W97302  33.625  36.985  12.874
28909W        W97303  39.407   3.973  12.082
28910W        W97304   1.394  19.892   4.955
28911W        W97305  23.822  36.137  10.788
28912W        W97306  43.660  29.956   0.635
28913W        W97307  37.600  24.691   3.628
28914W        W97308  27.960   2.520   0.015
28915W        W97309  24.554  35.546  14.024
28916W        W97310  39.827  31.442  14.333
28917W        W97311  28.786  14.820  12.890
28918W        W97312  18.257  16.148   4.972
28919W        W97313  26.062  13.769  12.887
28920W        W97314  31.780  40.997   2.759
28921W        W97315   5.767  33.741   2.830
28922W        W97316   6.212   3.835   3.185
28923W        W97317   6.403  40.598  14.718
28924W        W97318  41.266  31.520  14.575
28925W        W97319  25.887   9.569  10.820
28926W        W97320  14.727  14.131  12.908
28927W        W97321  37.367  35.980   4.705
28928W        W97322   1.934  33.959   0.753
28929W        W97323  16.322  14.794   2.397
28930W        W97324  13.605  27.591   1.247
28931W        W97325   2.513  12.137  13.777
28932W        W97326  42.630  38.072   4.510
28933W        W97327  25.177   5.936  10.596
28934W        W97328  14.625  41.869   0.836
28935W        W97329  39.927  17.350  10.700
28936W        W97330  44.122   6.549  13.815
28937W        W97331  40.436  43.951  10.780
28938W        W97332  37.419  40.571   0.748
28939W        W97333  43.837  41.075  14.585
28940W        W97334  38.371  38.341   2.236
28941W        W97335  25.493  18.957   3.289
28942W        W97336  15.069  13.244   1.766
28943W        W97337   3.961  24.575   1.426
28944W        W97338  35.210   1.274   3.277
28945W        W97339   5.284  33.476   3.617
28946W        W97340  29.500   4.399  13.858
28947W        W97341  36.669  10.828   2.466
28948W        W97342  35.188  12.373  10.971
28949W        W97343   0.772  12.789  14.406
28950W        W97344  21.050  21.159   4.568
28951W        W97345  36.139  39.860   0.751
28952W        W97346   6.099  17.599  13.813
28953W        W97347  28.433  39.551   0.181
28954W        W97348  34.066  27.411  13.467
28955W        W97349   8.813  22.113  12.533
28956W        W97350   7.973  43.926  13.403
28957W        W97351  41.418  32.325   2.204
28958W        W97352  17.220   1.489   2.339
28959W        W97353   6.462  36.955  14.764
28960W        W97354  13.617   3.829   4.585
28961W        W97355  38.966   8.078   5.008
28962W        W97356   5.793   8.087  10.426
28963W        W97357   8.556  23.600  10.280
28964W        W97358  40.423  41.938   0.022
28965W        W97359   2.705  25.454  12.862
28966W        W97360  37.811  11.921   3.381
28967W        W97361  26.003  18.821   4.643
28968W        W97362   3.186  27.521   0.455
28969W        W97363  17.241  36.421  10.967
28970W        W97364  27.575  44.385   1.963
28971W        W97365   5.329  23.298   0.186
28972W        W97366  40.271  35.935   2.811
28973W        W97367  10.218  33.507   1.445
28974W        W97368  36.980  23.683  12.427
28975W        W97369   7.806   8.678   1.208
28976W        W97370  21.438  16.818   9.917
28977W        W97371   9.302  30.208   0.352
28978W        W97372  14.139  40.289   3.253
28979W        W97373  38.088  37.929   2.354
28980W        W97374  18.046   9.176   0.284
28981W        W97375   3.216  25.899   2.790
28982W        W97376  21.982  12.309  13.468
28983W        W97377  42.691  19.538   4.144
28984W        W97378  17.440  31.747   0.497
28985W        W97379  10.684   8.200   4.242
28986W        W97380  25.420  40.451   4.267
28987W        W97381  41.491  24.916   2.076
28988W        W97382  36.920  18.613   1.803
28989W        W97383  18.136   2.425   0.454
28990W        W97384  14.078  37.010   4.633
28991W        W97385  11.228  19.006   1.282
28992W        W97386  32.941  39.050   0.970
28993W        W97387   1.773  20.724   2.189
28994W        W97388  10.447  27.387  13.093
28995W        W97389  41.303  11.681  13.457
28996W        W97390  38.977  14.461   4.145
28997W        W97391  18.322   5.891   0.322
28998W        W97392  31.960  17.751   3.104
28999W        W97393  22.216  34.343   2.185
29000W        W97394  43.804  30.779   2.617
29001W        W97395  19.148  27.543  13.427
29002W        W97396  19.335  33.560   3.312
29003W        W97397  19.006  27.060   0.687
29004W        W97398  43.249  36.028  13.456
29005W        W97399  12.661   5.741   2.365
29006W        W97400  21.495  31.255  13.509
29007W        W97401   7.884  10.189  10.280
29008W        W97402  29.488   5.901   3.717
29009W        W97403  29.101   8.321  10.824
29010W        W97404  43.039  17.664  12.693
29011W        W97405  40.479   8.619  14.722
29012W        W97406  30.496   6.908   2.203
29013W        W97407  36.476  15.954   3.749
29014W        W97408  44.329  25.177  12.882
29015W        W97409  31.125   1.750   1.247
29016W        W97410  21.263  12.827  12.080
29017W        W97411   5.915  16.163   4.217
29018W        W97412  15.160  28.297   2.029
29019W        W97413  30.775   4.822  10.665
29020W        W97414  31.151   6.736   3.034
29021W        W97415  40.314  14.777  12.523
29022W        W97416  18.884  10.272   3.578
29023W        W97417  42.530  19.002  12.599
29024W        W97418  34.808  23.507  10.380
29025W        W97419  16.711  27.892  13.253
29026W        W97420  10.734  14.629   1.705
29027W        W97421  37.423  25.875  12.157
29028W        W97422   4.118   6.767  14.224
29029W        W97423  32.716  32.233   4.120
29030W        W97424   5.711  26.058   4.556
29031W        W97425  25.445  28.712  11.184
29032W        W97426  32.473   7.932  12.435
29033W        W97427   0.288   3.886   1.314
29034W        W97428  19.141  18.667   0.928
29035W        W97429  17.466  34.183  14.713
29036W        W97430  30.177   4.867  13.823
29037W        W97431  31.932  20.988   4.133
29038W        W97432  37.806  39.113  12.924
29039W        W97433  27.272   3.309  12.963
29040W        W97434  20.206  31.007  13.490
29041W        W97435  19.623  30.011   1.841
29042W        W97436   2.369  44.086  13.159
29043W        W97437  38.383   0.307   3.439
29044W        W97438   5.445  35.695  13.272
29045W        W97439  40.909  26.393  11.264
29046W        W97440  18.518   8.287  12.587
29047W        W97441  36.615  29.859  11.073
29048W        W97442  16.311   4.761  14.455
29049W        W97443  19.290  24.665  12.498
29050W        W97444  22.232  21.030   1.106
29051W        W97445  20.617   1.074   1.416
29052W        W97446  19.236  39.309  12.889
29053W        W97447  15.483  22.534   2.482
29054W        W97448   3.247  23.690   1.937
29055W        W97449  33.024  29.186  10.529
29056W        W97450  41.314  44.849   1.340
29057W        W97451  10.565  16.936  14.515
29058W        W97452  36.760   7.735  11.011
29059W        W97453  39.668   5.519  11.634
29060W        W97454  34.634   2.643   3.212
29061W        W97455   7.290  35.459   4.405
29062W        W97456  22.094  34.102  12.047
29063W        W97457  30.752  27.033  10.527
29064W        W97458  36.342  20.686  12.517
29065W        W97459  29.050  12.189   0.041
29066W        W97460  27.560  16.016   2.097
29067W        W97461  10.272  36.528  11.847
29068W        W97462  40.479   3.956   1.824
29069W        W97463   0.400  23.538   1.805
29070W        W97464   7.623  34.624  10.718
29071W        W97465   4.774  18.896  13.913
29072W        W97466  12.706  20.144   0.688
29073W        W97467   3.252  35.583   3.206
29074W        W97468   8.276  27.117  13.313
29075W        W97469  44.248  35.523   2.798
29076W        W97470  32.344   6.747  12.920
29077W        W97471  25.319  38.427  14.246
29078W        W97472  16.350  35.090   0.270
29079W        W97473  18.225   6.250  10.244
29080W        W97474  27.456  31.937  12.108
29081W        W97475  31.081   2.712  10.529
29082W        W97476  13.961  27.123   4.295
29083W        W97477   1.404   9.647   2.088
29084W        W97478  38.478   8.341  11.357
29085W        W97479  15.353   8.865   1.463
29086W        W97480   1.033  22.193   1.696
29087W        W97481  18.728  26.457  12.662
29088W        W97482  32.220  34.443   2.224
29089W        W97483  13.319  26.451  10.707
29090W        W97484  31.183  44.300  12.422
29091W        W97485  36.688  26.914  11.940
29092W        W97486  34.824  21.695   0.817
29093W        W97487  27.706  43.051   2.099
29094W        W97488   1.169  40.452  12.335
29095W        W97489   1.480   4.222  12.472
29096W        W97490   7.290  42.499  14.591
29097W        W97491  28.374   5.754   2.176
29098W        W97492  21.012  15.743   2.563
29099W        W97493   1.753  28.430  12.440
29100W        W97494  33.651  27.634   1.396
29101W        W97495   2.827  36.830   1.016
29102W        W97496  18.464   3.833  13.965
29103W        W97497  40.636  19.810  14.813
29104W        W97498  17.141   9.411   0.476
29105W        W97499  37.339  19.700   3.056
29106W        W97500   6.054   2.468  12.549
29107W        W97501   9.210  30.134   4.524
29108W        W97502  39.342  34.894   4.526
29109W        W97503   6.469  20.286  13.062
29110W        W97504  28.103   8.783  13.419
29111W        W97505   8.596   6.842   4.694
29112W        W97506  36.580   5.331   3.380
29113W        W97507   9.862  24.578  11.825
29114W        W97508  31.322  35.474   3.976
29115W        W97509   8.849  11.718   0.334
29116W        W97510  37.515  42.268  12.496
29117W        W97511  31.895  18.821  11.529
29118W        W97512  27.913  11.719   0.519
29119W        W97513  44.838  15.112   0.215
29120W        W97514  32.197  10.266   1.339
29121W        W97515  21.325  24.906   0.222
29122W        W97516  22.573  33.983   0.191
29123W        W97517  40.079  23.714  11.057
29124W        W97518  35.073  35.485  11.487
29125W        W97519  17.547   2.648  12.615
29126W        W97520  37.063   0.990  12.509
29127W        W97521  27.494  29.901   2.392
29128W        W97522  13.333  43.564  10.871
29129W        W97523  35.472  31.216  12.017
29130W        W97524  36.561   3.407  10.271
29131W        W97525  41.425  11.006  10.641
29132W        W97526  12.011  42.749   0.216
29133W        W97527   7.699  44.070  12.104
29134W        W97528   1.460  10.616  13.366
29135W        W97529  37.423  41.986  13.889
29136W        W97530   3.016  28.494   1.969
29137W        W97531  10.809   4.040   1.658
29138W        W97532  37.967  18.088   1.842
29139W        W97533  32.200  43.563  12.766
29140W        W97534  43.277  13.608  14.951
29141W        W97535   5.062  16.291  12.069
29142W        W97536  13.791   2.204  10.677
29143W        W97537   2.160  27.327  12.799
29144W        W97538   3.933  10.124  10.611
29145W        W97539  13.353   4.037   5.009
29146W        W97540   6.316  35.460   1.003
29147W        W97541  20.683   6.216  14.434
29148W        W97542  19.590   8.839   4.512
29149W        W97543  25.005   9.408   4.054
29150W        W97544  40.813   5.507  10.656
29151W        W97545  36.470  25.295  13.462
29152W        W97546  12.945  28.134  10.615
29153W        W97547  41.924   7.700   2.358
29154W        W97548   4.360  39.986   1.872
29155W        W97549   2.286  18.554   3.263
29156W        W97550  32.886  39.407   2.264
29157W        W97551  32.692  15.756   2.529
29158W        W97552   9.050   6.981   2.963
29159W        W97553   1.517  18.786   1.291
29160W        W97554  35.196  40.354  14.732
29161W        W97555  26.339  41.990  10.527
29162W        W97556  15.840  33.098   1.405
29163W        W97557  42.364   1.922  14.878
29164W        W97558  28.140  15.643   1.369
29165W        W97559  42.720  29.110   0.522
29166W        W97560  30.410   9.740  14.860
29167W        W97561  41.786  28.699  12.937
29168W        W97562  30.066  18.080   2.202
29169W        W97563   5.334  33.873   3.107
29170W        W97564  31.866  31.767   2.261
29171W        W97565  23.732   5.101  12.701
29172W        W97566  37.434  18.310   0.269
29173W        W97567  31.373   9.268  10.483
29174W        W97568  25.678  12.788   4.377
29175W        W97569   1.252  34.648   4.131
29176W        W97570  40.465   6.380  10.555
29177W        W97571  18.814  44.885  13.563
29178W        W97572  42.951  29.147   3.590
29179W        W97573  41.305   7.455   1.211
29180W        W97574  22.678  16.735  12.546
29181W        W97575  26.468  26.137   2.945
29182W        W97576  27.063  34.074   0.922
29183W        W97577  36.466   5.254  11.054
29184W        W97578   0.232  19.608  11.184
29185W        W97579  17.193   3.546   3.781
29186W        W97580  11.243  24.991   3.999
29187W        W97581  12.114  38.066   2.420
29188W        W97582   8.221   6.663  12.688
29189W        W97583   3.323  43.355  10.962
29190W        W97584  42.330  14.711  12.485
29191W        W97585  24.488  39.741  11.396
29192W        W97586   1.271   6.803  11.978
29193W        W97587  38.845  29.821   2.593
29194W        W97588  43.057  13.401   3.474
29195W        W97589  32.678  39.268   5.072
29196W        W97590  24.207  12.348   4.061
29197W        W97591  17.490  40.401  11.092
29198W        W97592  12.767  20.689   3.073
29199W        W97593  42.809  22.638  10.803
29200W        W97594  14.328  13.816  12.425
29201W        W97595  19.209  31.832   0.724
29202W        W97596  43.674  26.764  12.046
29203W        W97597  23.884  15.490  12.388
29204W        W97598   1.485  11.133  13.474
29205W        W97599  18.034   9.667  13.007
29206W        W97600  16.055  42.401  12.094
29207W        W97601  12.680  30.001   3.248
29208W        W97602  11.602  34.241   2.964
29209W        W97603  12.040   9.160   3.553
29210W        W97604  23.117  18.544  12.105
29211W        W97605   6.413  40.304  12.673
29212W        W97606  14.619  28.568  10.962
29213W        W97607  11.918   0.075  14.242
29214W        W97608   6.697  38.937   3.868
29215W        W97609  28.273  36.821  10.757
29216W        W97610  24.387  11.091  13.037
29217W        W97611  26.539  39.529   2.140
29218W        W97612   6.039  31.526   1.925
29219W        W97613  44.499   7.221  13.110
29220W        W97614  40.772  23.948  13.570
29221W        W97615  21.346  12.742  13.847
29222W        W97616  26.535  30.170  10.875
29223W        W97617  15.799  25.079  12.986
29224W        W97618   1.429  32.138   1.840
29225W        W97619   9.867  24.500  13.081
29226W        W97620  30.613  24.003  12.008
29227W        W97621   3.245  25.706  10.662
29228W        W97622   0.100  31.451   4.437
29229W        W97623  19.239  21.018  11.355
29230W        W97624  16.638   7.207  14.478
29231W        W97625  34.691  44.674   2.821
29232W        W97626  25.560  17.348  13.298
29233W        W97627  35.534  18.125   2.759
29234W        W97628  44.019  23.308   4.077
29235W        W97629   0.973  12.291  14.344
29236W        W97630   5.356  14.127  13.841
29237W        W97631  29.543  29.206   2.801
29238W        W97632  39.613  10.796   1.426
29239W        W97633   7.495   3.819  12.783
29240W        W97634  37.910  37.067   1.809
29241W        W97635   4.861  23.732  10.679
29242W        W97636  29.515  24.920   3.250
29243W        W97637  10.630  35.849  12.489
29244W        W97638  36.444   1.296   0.340
29245W        W97639   0.788   2.663  11.524
29246W        W97640  36.976  36.939  10.807
29247W        W97641   6.707  27.662  10.197
29248W        W97642  24.265  29.607  11.542
29249W        W97643   3.027  35.934  13.461
29250W        W97644  21.963  39.588   4.988
29251W        W97645  36.867  43.043  14.330
29252W        W97646   2.536  20.745  14.338
29253W        W97647   1.882  33.039   2.342
29254W        W97648  10.926   3.221   1.313
29255W        W97649  16.438   6.453  11.768
29256W        W97650  26.726  31.460  13.421
29257W        W97651  27.095  29.704   3.927
29258W        W97652  43.094  13.392   1.795
29259W        W97653  19.082  42.236   2.261
29260W        W97654   9.788   3.233  14.051
29261W        W97655   3.207  38.006  11.543
29262W        W97656  11.063  20.181   1.867
29263W        W97657  34.678  43.576   4.843
29264W        W97658   2.680  31.883  14.797
29265W        W97659   1.763  19.883  12.377
29266W        W97660  40.510  38.908  11.165
29267W        W97661  20.065  29.249   0.085
29268W        W97662   1.680   2.756   0.353
29269W        W97663  35.509  39.560  12.951
29270W        W97664  27.176  20.604  10.623
29271W        W97665   5.184  43.381  13.636
29272W        W97666  36.484  37.377  13.583
29273W        W97667  13.239  12.196  12.546
29274W        W97668  26.628  17.825  12.071
29275W        W97669  18.355  18.286  14.763
29276W        W97670   5.477  38.005  11.120
29277W        W97671  16.967   9.345  13.383
29278W        W97672  22.408  43.440   3.152
29279W        W97673  15.156   0.909  11.176
29280W        W97674  19.772  19.130   4.203
29281W        W97675  34.797  15.218  14.893
29282W        W97676  41.106   7.950   0.634
29283W        W97677  20.735  36.461   2.818
29284W        W97678  10.955  40.535   0.290
29285W        W97679  31.857   7.098   0.844
29286W        W97680   5.689  19.196  14.844
29287W        W97681  15.146  43.931   4.652
29288W        W97682   7.939  26.944   2.320
29289W        W97683   7.022   4.363  13.547
29290W        W97684  31.020  30.833   5.000
29291W        W97685  10.446  24.632   3.680
29292W        W97686  22.181  31.242   1.716
29293W        W97687  25.152  33.257   1.482
29294W        W97688  13.628   3.840  10.803
29295W        W97689   4.180  31.269  13.903
29296W        W97690  39.067  34.996  12.389
29297W        W97691   2.547   7.913  11.649
29298W        W97692  32.857   6.180  14.552
29299W        W97693  17.750  18.402  11.617
29300W        W97694   4.843   0.303  13.940
29301W        W97695  16.204  10.231   2.622
29302W        W97696  26.537  37.144  11.100
29303W        W97697  26.555  31.866   2.718
29304W        W97698   2.311   7.524  11.399
29305W        W97699  21.113  43.563  12.033
29306W        W97700   3.332  41.301  12.779
29307W        W97701  40.835  29.429   1.883
29308W        W97702  23.617  31.566   2.136
29309W        W97703  32.110   9.285  10.546
29310W        W97704  39.869  22.004   4.497
29311W        W97705  22.974   2.795  12.486
29312W        W97706   4.938   1.828   5.058
29313W        W97707  21.739  35.949  13.674
29314W        W97708  21.775  30.551   1.002
29315W        W97709   4.845  15.650   5.408
29316W        W97710   6.363  20.789  11.098
29317W        W97711  42.763  15.730   3.664
29318W        W97712  10.637   2.060   0.751
29319W        W97713  26.843  14.110  11.127
29320W        W97714  27.006   9.814   4.820
29321W        W97715  43.689   4.746   1.690
29322W        W97716  18.767  33.432  14.859
29323W        W97717  42.834  29.584   3.891
29324W        W97718  10.793   9.902   1.359
29325W        W97719  43.869  37.835  13.556
29326W        W97720  14.744  18.714   2.646
29327W        W97721   0.279   2.441  13.870
29328W        W97722  23.478  30.079  13.564
29329W        W97723  40.376  39.865  12.042
29330W        W97724  22.999  16.270  14.021
29331W        W97725  11.333  15.839   4.114
29332W        W97726  24.281  35.513   0.347
29333W        W97727  16.901  34.498  13.537
29334W        W97728  17.193  18.261   0.449
29335W        W97729  27.752  30.917   0.949
29336W        W97730   7.430  10.327   0.216
29337W        W97731  27.927  32.896   0.358
29338W        W97732  23.092  44.358   4.106
29339W        W97733  28.046   1.421  11.702
29340W        W97734  25.097  16.243  13.308
29341W        W97735   0.974  42.342  14.825
29342W        W97736  37.279  25.178   1.796
29343W        W97737  34.890  20.903  10.319
29344W        W97738   3.156  25.815   1.003
29345W        W97739  35.197  17.935  11.239
29346W        W97740  22.086  39.820   2.213
29347W        W97741  18.021  41.448  10.572
29348W        W97742  25.031  17.844  11.944
29349W        W97743  21.159  27.206   0.733
29350W        W97744  35.054   7.894  13.540
29351W        W97745  40.381  10.846  12.611
29352W        W97746  44.451  14.769   0.996
29353W        W97747  12.087   1.098  13.760
29354W        W97748  23.903   1.286  12.555
29355W        W97749  25.733   6.514  11.190
29356W        W97750  36.397  28.962   4.083
29357W        W97751  43.842  17.759   1.003
29358W        W97752   7.301   7.092   4.673
29359W        W97753   0.931   0.815   2.902
29360W        W97754  23.435  32.165   1.228
29361W        W97755  43.805  15.358  14.320
29362W        W97756   5.842  43.242   0.735
29363W        W97757  33.671  33.621   2.893
29364W        W97758  14.415  44.492   3.674
29365W        W97759   5.399  12.094  11.098
29366W        W97760  31.123  19.646   2.254
29367W        W97761   0.835   8.638   4.386
29368W        W97762   6.827   5.336   2.324
29369W        W97763  34.451  38.343   1.241
29370W        W97764  19.804  28.525   1.915
29371W        W97765  28.893  38.768   0.428
29372W        W97766  41.879  18.129   2.355
29373W        W97767  29.671  24.715   1.917
29374W        W97768  39.938  44.585   0.270
29375W        W97769  43.236  37.126   3.569
29376W        W97770  29.672  32.343  11.410
29377W        W97771  32.500  26.175   0.864
29378W        W97772  10.173  43.906   3.410
29379W        W97773  40.338  34.863  13.142
29380W        W97774   8.263  14.837  14.185
29381W        W97775  20.337  15.921  11.549
29382W        W97776  11.841  29.848  10.816
29383W        W97777  20.269  10.879  12.635
29384W        W97778  17.185  24.027  11.064
29385W        W97779  39.576  41.340   0.920
29386W        W97780  23.200   5.778  11.655
29387W        W97781  13.991  22.508   2.983
29388W        W97782  27.853   1.005  14.000
29389W        W97783  16.880  13.627  11.142
29390W        W97784  27.035  29.926   4.508
29391W        W97785  21.039   7.314  14.865
29392W        W97786  20.165  16.123   2.854
29393W        W97787   2.791   4.376  13.706
29394W        W97788  30.893  29.613  14.912
29395W        W97789   3.184  42.565  14.639
29396W        W97790   8.496  18.580   3.493
29397W        W97791  39.947  38.070   1.291
29398W        W97792  37.393  34.155  13.495
29399W        W97793  26.183   3.325   3.203
29400W        W97794  35.506  31.903  12.399
29401W        W97795  36.309  12.071   0.202
29402W        W97796  11.647  44.443  11.145
29403W        W97797  40.053  38.968  14.680
29404W        W97798  21.444   4.286   1.399
29405W        W97799  37.291   4.440   2.079
29406W        W97800  31.943   3.770   4.874
29407W        W97801  33.416   6.752   1.768
29408W        W97802  17.162   2.994  11.206
29409W        W97803  32.531  12.716   1.202
29410W        W97804  16.730   1.821   2.919
29411W        W97805   8.189  14.423  13.385
29412W        W97806  15.252   8.424   2.678
29413W        W97807  13.814  19.807  12.906
29414W        W97808  35.864  18.807  11.086
29415W        W97809   6.344  15.046   3.279
29416W        W97810   2.247  20.512   1.914
29417W        W97811  37.925  34.716  10.215
29418W        W97812  12.353  27.037   1.289
29419W        W97813  32.858   7.672  13.226
29420W        W97814   3.479  17.788  12.441
29421W        W97815  26.721  13.219   0.321
29422W        W97816  11.777  13.078  14.386
29423W        W97817  37.150  40.576   0.302
29424W        W97818  20.180  33.891   4.167
29425W        W97819  44.322  29.123   3.038
29426W        W97820  10.264   0.300   2.696
29427W        W97821  26.508  16.003   0.012
29428W        W97822  14.752  17.986   4.752
29429W        W97823  36.453  24.223  14.476
29430W        W97824  34.738   9.165  11.200
29431W        W97825  40.012  14.186   1.732
29432W        W97826  39.316   1.968   1.765
29433W        W97827  16.216  41.398   3.449
29434W        W97828   0.730  38.045  12.534
29435W        W97829  15.178  17.401  13.459
29436W        W97830   5.273  36.770   4.698
29437W        W97831  31.004  20.065  11.905
29438W        W97832  19.128  37.533  13.521
29439W        W97833  29.537  28.916  13.325
29440W        W97834  13.120  30.922   3.120
29441W        W97835  34.142   7.925   0.794
29442W        W97836  16.805  14.779   0.407
29443W        W97837  23.296  26.557  14.825
29444W        W97838  39.266  26.222  14.330
29445W        W97839  18.448  19.322  11.305
29446W        W97840  21.964  25.207   4.155
29447W        W97841  31.809  28.170   5.090
29448W        W97842   9.341  25.321   3.321
29449W        W97843  33.572  30.143  11.418
29450W        W97844  28.556  12.873  12.691
29451W        W97845  13.892  25.949   1.887
29452W        W97846   4.813  19.606   0.914
29453W        W97847   0.181  43.682  13.937
29454W        W97848  29.699  21.297  12.912
29455W        W97849  39.364  32.793  10.752
29456W        W97850  10.086  31.649   4.285
29457W        W97851   1.004  13.763  14.233
29458W        W97852  33.356  41.956   0.023
29459W        W97853  27.246  39.449  12.493
29460W        W97854  22.599  42.025   1.636
29461W        W97855  31.710  25.177   4.571
29462W        W97856  31.641   8.143   3.755
29463W        W97857  26.234  35.514  13.691
29464W        W97858   6.681  41.333   2.345
29465W        W97859  28.232  11.721  10.558
29466W        W97860  19.578   5.781   0.872
29467W        W97861   4.929  28.878   4.259
29468W        W97862  27.971  10.795   0.869
29469W        W97863  31.431   6.624  12.917
29470W        W97864  11.179  44.139  13.766
29471W        W97865  13.389  32.266  11.187
29472W        W97866  25.695  25.652   4.518
29473W        W97867  37.348  21.629   3.737
29474W        W97868  38.062   9.983  12.487
29475W        W97869   2.153  11.665   1.869
29476W        W97870   8.714  10.749   2.810
29477W        W97871   9.906  16.763  13.042
29478W        W97872  26.120  33.077  13.764
29479W        W97873  22.237  12.228   0.693
29480W        W97874   0.041  30.892  11.575
29481W        W97875  24.273  35.968   0.991
29482W        W97876   8.149  25.204   3.642
29483W        W97877   2.780  21.555   3.746
29484W        W97878  20.914   5.542   1.473
29485W        W97879  24.760  19.693  13.398
29486W        W97880  37.896  25.190  11.069
29487W        W97881   2.694  37.209   0.656
29488W        W97882  30.940  36.451   2.228
29489W        W97883  36.912  30.931  13.745
29490W        W97884   8.323  26.418   1.298
29491W        W97885  38.964  15.315  14.678
29492W        W97886  31.987  11.351   2.608
29493W        W97887  14.203  13.036  10.467
29494W        W97888  14.255   6.738  14.425
29495W        W97889  21.177  44.739   0.466
29496W        W97890  15.363  15.545   5.064
29497W        W97891  11.597  14.892   4.578
29498W        W97892  40.054  37.748   0.725
29499W        W97893  18.743  41.275  13.118
29500W        W97894  11.535  24.432  11.166
29501W        W97895   2.625  39.395   4.245
29502W        W97896   9.244  12.582  14.991
29503W        W97897  16.853  36.088  10.921
29504W        W97898  32.354  29.064   4.652
29505W        W97899  27.566  24.604   4.272
29506W        W97900  12.271  26.223   3.411
29507W        W97901  15.093  26.805  12.980
29508W        W97902  25.078  40.854   4.333
29509W        W97903  38.045  10.160  11.200
29510W        W97904  26.980  38.410   2.258
29511W        W97905  16.158  37.036   0.686
29512W        W97906  25.898   4.866  11.924
29513W        W97907  41.238  27.582   3.796
29514W        W97908   3.513  31.525  11.558
29515W        W97909   5.369  24.442  13.035
29516W        W97910   5.618   2.557  13.521
29517W        W97911   5.405   5.163  11.963
29518W        W97912  29.622  14.205  13.298
29519W        W97913   1.744  23.228  12.921
29520W        W97914  29.131  13.791  14.508
29521W        W97915  14.361  16.263   0.756
29522W        W97916   8.492   6.368   3.619
29523W        W97917  17.669  43.705  13.991
29524W        W97918  25.886  26.512  13.510
29525W        W97919   0.698  11.857   1.986
29526W        W97920  39.023  17.543   3.746
29527W        W97921   9.145   2.801  11.989
29528W        W97922  25.013  26.606  12.057
29529W        W97923  31.139   0.638  11.134
29530W        W97924  36.023  12.859   4.112
29531W        W97925   7.337  15.518  13.126
29532W        W97926  18.334  26.181  14.030
29533W        W97927  40.315  37.666  14.714
29534W        W97928   4.851  25.147   3.657
29535W        W97929  34.912  26.141   3.764
29536W        W97930  21.968   1.199   1.383
29537W        W97931  35.338  21.944   2.555
29538W        W97932   6.268   1.991  13.808
29539W        W97933  19.265  27.673  12.598
29540W        W97934  25.712  11.126  12.055
29541W        W97935  22.495  12.661   0.816
29542W        W97936  33.073  29.651  10.290
29543W        W97937  37.049  31.771  13.142
29544W        W97938  37.059   1.409  10.525
29545W        W97939   4.825   7.410  11.956
29546W        W97940  38.340   2.626   4.770
29547W        W97941  23.751  16.719   1.181
29548W        W97942   8.568  11.801  13.041
29549W        W97943  20.591  26.523  12.338
29550W        W97944  33.340   2.192  11.556
29551W        W97945  35.113   4.415   4.313
29552W        W97946   7.787   6.865   4.584
29553W        W97947  37.568   1.953  11.622
29554W        W97948  16.034  41.982  11.277
29555W        W97949   0.684   8.304  10.641
29556W        W97950  19.380  28.908   2.796
29557W        W97951  38.932   9.030   4.779
29558W        W97952  32.095  42.389   1.284
29559W        W97953  39.036   9.780   3.719
29560W        W97954  34.322  23.529   0.856
29561W        W97955  16.250  33.879   3.197
29562W        W97956  23.445   3.925   3.659
29563W        W97957  17.583  32.922  11.911
29564W        W97958  34.027  44.876   1.851
29565W        W97959  39.836  28.110   3.113
29566W        W97960   0.873  22.299   4.315
29567W        W97961  41.282  26.649  11.518
29568W        W97962  14.767  10.306  11.444
29569W        W97963  41.964  25.588  13.392
29570W        W97964   5.443  26.150   0.510
29571W        W97965   1.067   3.716   2.276
29572W        W97966  44.744   6.915   1.315
29573W        W97967  43.422  16.305   0.199
29574W        W97968   3.733   5.497  12.519
29575W        W97969   0.451  13.315  12.121
29576W        W97970  33.548   4.443  11.941
29577W        W97971  30.366  13.052  12.278
29578W        W97972   6.968   1.330  10.186
29579W        W97973   6.220  24.607   4.169
29580W        W97974  29.526   7.430   9.735
29581W        W97975  29.878  40.775  12.383
29582W        W97976   9.372  10.800  13.864
29583W        W97977   5.735  43.034   0.279
29584W        W97978  36.756   3.093   5.211
29585W        W97979   2.545  41.510  10.626
29586W        W97980   0.273  32.182  14.065
29587W        W97981  23.623  39.282  13.451
29588W        W97982  44.779  20.697  13.954
29589W        W97983  26.116  32.195   3.464
29590W        W97984  36.869  32.488   4.571
29591W        W97985  26.794  43.572  13.485
29592W        W97986  42.236  30.802   1.224
29593W        W97987   4.661   3.278  10.995
29594W        W97988  15.618  14.309   4.379
29595W        W97989   0.195  44.768   2.867
29596W        W97990  26.561  23.262   0.579
29597W        W97991  20.534  33.454   1.824
29598W        W97992   9.586  20.608  10.529
29599W        W97993  39.936   5.610   1.336
29600W        W97994  10.308  19.982   3.158
29601W        W97995  25.896  29.033  14.487
29602W        W97996  36.820  43.797   0.842
29603W        W97997   0.744  26.411  12.584
29604W        W97998  12.583  42.091  13.016
29605W        W97999  10.934  28.905   4.522
29606W        W98000  20.970   8.376   0.923
29607W        W98001  10.630   4.828  13.430
29608W        W98002   6.165  40.249   2.663
29609W        W98003  33.411  32.633   1.334
29610W        W98004   8.034  23.873  13.806
29611W        W98005  43.026  16.240  10.432
29612W        W98006  21.280  16.138  14.509
29613W        W98007   3.937  40.321   4.219
29614W        W98008  44.977  26.510   1.399
29615W        W98009  14.056  42.599  11.118
29616W        W98010  10.360  20.661   1.787
29617W        W98011  10.868   9.528   0.354
29618W        W98012   0.756  37.306   1.761
29619W        W98013  40.479  31.913   4.286
29620W        W98014  11.381   7.146  12.989
29621W        W98015  23.650   7.240  12.180
29622W        W98016  13.573  34.949  14.159
29623W        W98017  30.238   9.661   4.422
29624W        W98018  15.166   8.105  11.563
29625W        W98019  19.123   9.639   1.336
29626W        W98020   9.306   0.634  14.010
29627W        W98021  37.352  10.405  12.494
29628W        W98022  36.959  40.115   0.434
29629W        W98023   5.808  44.039   4.873
29630W        W98024  29.101  12.392  12.017
29631W        W98025  10.095   2.924   2.673
29632W        W98026  40.459  13.852  13.917
29633W        W98027  43.352  28.965  12.238
29634W        W98028  22.411  19.565   3.881
29635W        W98029  16.755   5.005  14.535
29636W        W98030  10.921  15.740   0.853
29637W        W98031  42.138  31.167   2.723
29638W        W98032  22.077  25.618  14.913
29639W        W98033  13.480   7.830   5.036
29640W        W98034  18.764  37.805   3.691
29641W        W98035  24.053   6.747  10.446
29642W        W98036  10.121   4.496  13.554
29643W        W98037   1.118  31.232  10.382
29644W        W98038   9.912  27.766   4.177
29645W        W98039  20.038  18.144  12.600
29646W        W98040  11.867  35.495   4.355
29647W        W98041  25.748  39.847   3.061
29648W        W98042  11.635  22.489  11.223
29649W        W98043  39.348  38.868  12.821
29650W        W98044   7.336  38.617  10.869
29651W        W98045  11.372   2.484  10.831
29652W        W98046   3.527  32.883   0.278
29653W        W98047  32.531  19.751   5.234
29654W        W98048  22.994  16.893  13.192
29655W        W98049  40.465  10.388   4.564
29656W        W98050  18.550  11.455   0.343
29657W        W98051  20.591  23.447  12.846
29658W        W98052  29.719  36.625  10.778
29659W        W98053  26.214  42.740  10.164
29660W        W98054  28.951  25.065   0.502
29661W        W98055  41.300  14.578  12.451
29662W        W98056   8.377   7.410   3.873
29663W        W98057  39.408   3.855   0.950
29664W        W98058  27.823   0.468   0.286
29665W        W98059   9.123  36.120  12.521
29666W        W98060  21.234  32.806  11.916
29667W        W98061   5.642  16.854  14.898
29668W        W98062  44.902   2.605  11.100
29669W        W98063  28.960   3.701   1.285
29670W        W98064  12.815  29.002   2.413
29671W        W98065   8.374  31.251  14.800
29672W        W98066  32.891  30.190   1.394
29673W        W98067  14.746  10.635   3.780
29674W        W98068  24.612  18.146  11.946
29675W        W98069  36.511  35.795  11.192
29676W        W98070  29.128   0.113  13.430
29677W        W98071  16.973  39.037   3.269
29678W        W98072  19.555  30.412  11.517
29679W        W98073  40.775  43.868  14.746
29680W        W98074  27.750  17.620   4.236
29681W        W98075  26.340   1.448   4.244
29682W        W98076   4.030   3.783  11.700
29683W        W98077  15.062  25.148  12.004
29684W        W98078  19.719  15.281   4.202
29685W        W98079  18.720  31.542   3.967
29686W        W98080  34.758   9.872  11.045
29687W        W98081  31.558  32.767   0.386
29688W        W98082  26.204   0.857   3.199
29689W        W98083   7.642  18.642  11.486
29690W        W98084  11.472  38.249   2.797
29691W        W98085   0.535  42.637  14.764
29692W        W98086   0.113  11.260   2.569
29693W        W98087  26.639   8.714   4.596
29694W        W98088  27.510  33.215   0.382
29695W        W98089  28.539  20.805   2.372
29696W        W98090  15.733  37.042   0.330
29697W        W98091   8.613  34.388   9.957
29698W        W98092  27.391  44.015   2.335
29699W        W98093   8.818  25.426   0.225
29700W        W98094   2.965  31.489   1.506
29701W        W98095  18.405  13.349  12.051
29702W        W98096  27.124  41.623   3.691
29703W        W98097  28.130   4.230   9.967
29704W        W98098  44.701   2.164  11.508
29705W        W98099  15.265  43.291   3.846
29706W        W98100  16.076  10.648  13.538
29707W        W98101  21.071   2.106   3.961
29708W        W98102  22.708   1.418  14.049
29709W        W98103  22.994   7.749  14.528
29710W        W98104  32.404  43.400  11.474
29711W        W98105  24.732  24.752  13.875
29712W        W98106   3.321  33.428   1.205
29713W        W98107  23.641   1.729   2.953
29714W        W98108  20.274   9.354   4.182
29715W        W98109  30.469   4.200   1.730
29716W        W98110   6.599  14.255   3.714
29717W        W98111  23.662   9.157  12.192
29718W        W98112  18.983   7.768  11.996
29719W        W98113   1.352  42.711  12.146
29720W        W98114   3.939  13.395  14.908
29721W        W98115  29.661  20.605   2.701
29722W        W98116  30.474  44.979  10.732
29723W        W98117  30.863   6.084  14.763
29724W        W98118  27.879  11.417  14.785
29725W        W98119  34.899  17.322  13.881
29726W        W98120  39.021  14.520   1.704
29727W        W98121  40.509  18.291   1.879
29728W        W98122   9.331  17.977   3.305
29729W        W98123  16.800  32.860   1.782
29730W        W98124  29.212  35.130   3.846
29731W        W98125  11.078  27.206  13.371
29732W        W98126  13.768   9.289   3.201
29733W        W98127  12.190  30.944  12.859
29734W        W98128  42.291  37.405   1.735
29735W        W98129  25.684  15.187   2.893
29736W        W98130  22.733   5.920   0.761
29737W        W98131  43.085  39.552   2.961
29738W        W98132  36.466   4.737   0.331
29739W        W98133  41.340  11.010   1.268
29740W        W98134  42.776  29.489  12.949
29741W        W98135  43.886  19.720  11.884
29742W        W98136  38.082   8.133  11.108
29743W        W98137  13.588  41.474  10.646
29744W        W98138  11.032  29.888   3.777
29745W        W98139  35.421   2.004  13.467
29746W        W98140  23.733   6.319   2.137
29747W        W98141  40.962  33.135  11.502
29748W        W98142  11.784   3.880   0.402
29749W        W98143  34.626  19.680   0.697
29750W        W98144  22.600  35.600   0.828
29751W        W98145   6.984  28.557   1.160
29752W        W98146  42.913  26.635  11.528
29753W        W98147  43.328  42.923   3.202
29754W        W98148  11.546  35.142   4.152
29755W        W98149  24.545  31.641  12.033
29756W        W98150  36.917  25.140   1.320
29757W        W98151  12.562  11.620   1.742
29758W        W98152  35.515  10.209   3.355
29759W        W98153   1.228  42.939  13.039
29760W        W98154  40.338   8.813  13.310
29761W        W98155  38.427  24.473  10.551
29762W        W98156   9.892   7.372   0.306
29763W        W98157   6.289  19.789  13.862
29764W        W98158  34.347   4.394  10.959
29765W        W98159  12.618   8.682  12.921
29766W        W98160  17.862  40.105   4.124
29767W        W98161  36.865   0.267  11.453
29768W        W98162  22.318  42.355  11.028
29769W        W98163   9.257  16.697   1.633
29770W        W98164   3.978   8.822   2.476
29771W        W98165  14.200  29.479   2.271
29772W        W98166   6.389  10.570   0.328
29773W        W98167  10.565  16.165   3.787
29774W        W98168  10.594  14.647   1.199
29775W        W98169   7.941  33.111  10.909
29776W        W98170  29.011  25.185  12.061
29777W        W98171  29.551  39.026  14.863
29778W        W98172  33.503  38.802   1.830
29779W        W98173  15.223  25.446   1.762
29780W        W98174   8.526  34.593  10.999
29781W        W98175  28.189  38.618   4.413
29782W        W98176  26.588  20.501   4.347
29783W        W98177  41.933  19.240  13.394
29784W        W98178  26.137  41.747  12.759
29785W        W98179  42.378  29.591   2.246
29786W        W98180  28.448   1.663   3.169
29787W        W98181   9.326  23.135   1.423
29788W        W98182  22.765  41.279  11.638
29789W        W98183  28.039  30.360  14.157
29790W        W98184   3.544  32.614  12.549
29791W        W98185  24.742  21.080  13.157
29792W        W98186  20.825  31.998   4.781
29793W        W98187  20.167   1.211   0.252
29794W        W98188  25.946  27.155   3.813
29795W        W98189  15.647   2.328  12.052
29796W        W98190   2.226  18.159   1.445
29797W        W98191  14.039   0.902  12.953
29798W        W98192  17.547  23.157   4.991
29799W        W98193  30.203  15.632   2.839
29800W        W98194   0.172  23.121  11.984
29801W        W98195  41.582  41.403   4.607
29802W        W98196  20.645  20.592  14.748
29803W        W98197  37.572   0.995   2.030
29804W        W98198   4.908   2.102  11.605
29805W        W98199  38.363  39.486  13.566
29806W        W98200  22.625  36.545   2.679
29807W        W98201  34.526  41.977  11.866
29808W        W98202  16.055  18.493   5.022
29809W        W98203  29.713  43.077  12.528
29810W        W98204  36.325  37.024   3.962
29811W        W98205  44.278  35.818   2.334
29812W        W98206  32.956  12.217   2.455
29813W        W98207  10.340  16.668   4.867
29814W        W98208  43.828  35.481  11.227
29815W        W98209  43.246  34.319  12.478
29816W        W98210  44.815   5.588  14.912
29817W        W98211  35.323   0.960   3.673
29818W        W98212  31.006   5.332  14.317
29819W        W98213  33.489  41.905   0.939
29820W        W98214  18.128   6.750   0.800
29821W        W98215   9.405  14.524  13.520
29822W        W98216  43.911  32.412   1.253
29823W        W98217  27.480  13.095  14.070
29824W        W98218   9.279   2.879   9.702
29825W        W98219  29.637  23.918   0.047
29826W        W98220   7.194   7.101  13.296
29827W        W98221  43.778   6.368   2.684
29828W        W98222  32.667  24.488  12.551
29829W        W98223   9.542  15.554   4.825
29830W        W98224   4.186   5.473  14.538
29831W        W98225  18.473  16.040   5.455
29832W        W98226  33.361  12.631   1.714
29833W        W98227  41.167   9.265   1.897
29834W        W98228  41.379  16.775  10.728
29835W        W98229  25.585  21.548  12.502
29836W        W98230   2.891  21.034  12.088
29837W        W98231  34.400   4.681  13.880
29838W        W98232  31.398  36.969  11.980
29839W        W98233   4.876  12.324  11.140
29840W        W98234  22.928  34.150   2.429
29841W        W98235   0.697  39.542   4.288
29842W        W98236  15.655  44.788  14.993
29843W        W98237   5.718  31.017  12.095
29844W        W98238  15.420  20.947  10.237
29845W        W98239  24.994   7.849  11.072
29846W        W98240  33.685  11.840  11.009
29847W        W98241  33.139  29.941   3.361
29848W        W98242  41.974  17.296  11.499
29849W        W98243  42.535  40.284   2.856
29850W        W98244  14.675   4.799  13.434
29851W        W98245   5.755  41.102   0.278
29852W        W98246  22.232  20.054  13.809
29853W        W98247  13.842   8.818  12.518
29854W        W98248  38.495   3.986  11.644
29855W        W98249  43.382  21.741  10.674
29856W        W98250  40.813  35.683   3.836
29857W        W98251   7.342  36.548  11.611
29858W        W98252  18.021   8.744   1.956
29859W        W98253  35.312   8.337  12.510
29860W        W98254  12.191  30.371  12.219
29861W        W98255  12.611   5.455   5.039
29862W        W98256   7.807   9.115  12.623
29863W        W98257  22.183  26.393  12.103
29864W        W98258  20.915  13.565   0.908
29865W        W98259  43.909   1.951  14.883
29866W        W98260  27.915  23.293   0.936
29867W        W98261   9.552  22.778  11.087
29868W        W98262  12.119  16.755  14.550
29869W        W98263  31.512   7.938   0.047
29870W        W98264  15.983   8.791   4.052
29871W        W98265  29.552  22.024   4.328
29872W        W98266  23.576  44.122  14.597
29873W        W98267  37.946  20.150  13.484
29874W        W98268  37.546  31.453  13.773
29875W        W98269  21.896  35.678  12.067
29876W        W98270  28.414  33.535  11.485
29877W        W98271  40.570  19.283   2.289
29878W        W98272  15.538  23.794   3.827
29879W        W98273  12.626  30.270  12.816
29880W        W98274  23.203  30.327  14.833
29881W        W98275  24.962  24.385   3.351
29882W        W98276  11.899   6.746   2.380
29883W        W98277  15.097   7.805   2.082
29884W        W98278  21.554  15.333  13.923
29885W        W98279  44.351  29.050  14.964
29886W        W98280   8.018  13.545  14.805
29887W        W98281  13.613  26.563   4.357
29888W        W98282   5.821  41.540  12.326
29889W        W98283   1.593  42.594  11.679
29890W        W98284  12.545  27.288   4.311
29891W        W98285  22.455  39.821   2.586
29892W        W98286   4.939  17.638   0.936
29893W        W98287  20.177  23.017   3.660
29894W        W98288  21.189  15.705  13.783
29895W        W98289   5.847  36.478   1.320
29896W        W98290   9.859  22.601   4.019
29897W        W98291   0.982  39.645  11.234
29898W        W98292   3.364   6.986  13.444
29899W        W98293   2.746  41.883  14.531
29900W        W98294  16.801   4.332  12.829
29901W        W98295  10.204   4.298   0.001
29902W        W98296  16.593   9.426   3.698
29903W        W98297  13.825  42.125   4.013
29904W        W98298  18.304  28.601   4.098
29905W        W98299  39.574  29.467   4.531
29906W        W98300  17.502  20.227  11.127
29907W        W98301  15.197   4.713   5.065
29908W        W98302  17.419  32.136   0.868
29909W        W98303  29.903  43.490  12.147
29910W        W98304  28.976  28.670  12.447
29911W        W98305   9.138  28.472  12.351
29912W        W98306   6.371  11.777  13.485
29913W        W98307   3.909   5.179  14.168
29914W        W98308  39.332   8.736  13.541
29915W        W98309   0.765  25.247  10.498
29916W        W98310  38.769   6.868   2.214
29917W        W98311  18.528  19.170   0.953
29918W        W98312  16.653  27.054   1.180
29919W        W98313  25.112   5.510  11.647
29920W        W98314  27.450  35.632   4.679
29921W        W98315  22.032  27.683  13.341
29922W        W98316   1.440  23.055  12.521
29923W        W98317  37.004  18.181  13.731
29924W        W98318  23.909  10.569   0.229
29925W        W98319   4.774  16.259  14.803
29926W        W98320  40.955  36.352  14.799
29927W        W98321  10.865  38.931   0.980
29928W        W98322  37.464  29.347   0.290
29929W        W98323  24.497  40.347  12.072
29930W        W98324  11.868   7.624   3.443
29931W        W98325  42.318  30.482  11.115
29932W        W98326   8.032  36.792   3.680
29933W        W98327  26.265   4.484  11.999
29934W        W98328  27.763  29.457  13.927
29935W        W98329  19.897  16.218   4.101
29936W        W98330  15.673  14.365  13.979
29937W        W98331  18.314  15.125  11.228
29938W        W98332  37.888  33.608   0.000
29939W        W98333  19.492  40.052   2.382
29940W        W98334  26.589  25.972  14.534
29941W        W98335   2.311  33.899   0.037
29942W        W98336  33.059  32.288   3.282
29943W        W98337   0.246   2.697   1.187
29944W        W98338  27.153   8.047  12.894
29945W        W98339  28.209  36.341   2.618
29946W        W98340  24.172   6.304   2.420
29947W        W98341   1.763  29.760   4.350
29948W        W98342  37.838  23.526   2.760
29949W        W98343  20.708   1.363   0.458
29950W        W98344  18.354  17.092  14.354
29951W        W98345  34.732  12.588  11.039
29952W        W98346  35.180  13.198   3.232
29953W        W98347  44.603   8.216  12.102
29954W        W98348  15.695  16.691  13.253
29955W        W98349  10.288  36.531   1.739
29956W        W98350  23.166  32.394  10.569
29957W        W98351  12.592  39.004  13.336
29958W        W98352   0.681  42.093   4.104
29959W        W98353   0.191  25.208   2.007
29960W        W98354  22.126   0.438   4.539
29961W        W98355   8.240  16.060  13.055
29962W        W98356  24.770  27.937   4.293
29963W        W98357  41.391   6.258   4.661
29964W        W98358  27.017   6.256  10.213
29965W        W98359  40.067  28.953   0.448
29966W        W98360  13.854  44.888  12.061
29967W        W98361   2.501   8.410  12.060
29968W        W98362  29.128  35.630  11.576
29969W        W98363  35.116  15.024   3.215
29970W        W98364  10.555  21.438  11.024
29971W        W98365   6.407   8.222   0.971
29972W        W98366  32.694  14.225  11.148
29973W        W98367   0.371  17.232   0.535
29974W        W98368  37.812   2.179   2.667
29975W        W98369  18.195  29.808   1.386
29976W        W98370   6.902  10.283  13.810
29977W        W98371   0.659  24.498   4.920
29978W        W98372  19.482  22.771   1.809
29979W        W98373  34.983  43.271  14.317
29980W        W98374   9.742  43.068   2.081
29981W        W98375   3.823  18.584   2.871
29982W        W98376  26.208   6.448  14.723
29983W        W98377  32.092  19.769  10.168
29984W        W98378  31.661  41.103   4.085
29985W        W98379   5.261   8.691  13.255
29986W        W98380   6.124  16.374  10.211
29987W        W98381  34.396  41.964  11.363
29988W        W98382   8.202   7.501  13.814
29989W        W98383  30.414  28.785  10.435
29990W        W98384  36.546  31.799   0.814
29991W        W98385  25.020  32.463  11.377
29992W        W98386  11.975  22.226  12.784
29993W        W98387  19.510  21.481   0.372
29994W        W98388  41.011  10.561  13.749
29995W        W98389  13.280  25.184  11.264
29996W        W98390  12.063  35.033   0.003
29997W        W98391  29.144  14.874   4.632
29998W        W98392  28.058  12.513  13.810
29999W        W98393  36.135  13.043   3.636
30000W        W98394   6.812  40.521  12.394
30001W        W98395   3.855  35.016   3.073
30002W        W98396  28.663  44.265   3.276
30003W        W98397  15.644  12.857  13.761
30004W        W98398  21.670  21.757   0.005
30005W        W98399  11.686  37.422  10.493
30006W        W98400  26.269  24.099   3.180
30007W        W98401  21.612  39.440   4.657
30008W        W98402  11.614   2.794  11.643
30009W        W98403   9.385  32.902  11.124
30010W        W98404  39.310  28.791  12.315
30011W        W98405   6.574  15.744   2.673
30012W        W98406  20.656  42.730   1.773
30013W        W98407  11.606  36.084   0.838
30014W        W98408  35.085  11.857  14.878
30015W        W98409  17.469  15.838   5.094
30016W        W98410  33.085  13.768  14.849
30017W        W98411   4.492   1.579   1.865
30018W        W98412   1.346  35.167  13.512
30019W        W98413  18.806  36.302   0.852
30020W        W98414  10.885   1.127  13.902
30021W        W98415  36.444  24.514   4.408
30022W        W98416  24.747   3.422  10.962
30023W        W98417  29.577  28.937  12.031
30024W        W98418   9.184  31.704  14.310
30025W        W98419  21.068  21.649  14.279
30026W        W98420  19.732  14.598   4.574
30027W        W98421   5.731  29.864  14.677
30028W        W98422   0.509   0.694   2.605
30029W        W98423  41.720   8.593   1.964
30030W        W98424  33.967   5.750  12.275
30031W        W98425  42.776  32.299  12.617
30032W        W98426  15.595  10.579   3.781
30033W        W98427  19.178  27.935  14.386
30034W        W98428  40.626  41.954  12.351
30035W        W98429   3.487  21.536  14.727
30036W        W98430  18.607  30.562   3.372
30037W        W98431  27.148  39.794   1.443
30038W        W98432  24.711   1.772   0.859
30039W        W98433  21.682  17.066  14.421
30040W        W98434  20.745  39.024  11.752
30041W        W98435   6.935  27.075  12.444
30042W        W98436  26.025  21.786  12.555
30043W        W98437  17.102  27.117  10.712
30044W        W98438  20.694  40.263   4.588
30045W        W98439   3.810  22.753   0.314
30046W        W98440  40.899  28.022   4.694
30047W        W98441   2.542   7.131   4.124
30048W        W98442  10.865  21.653   0.078
30049W        W98443  35.117  33.107   1.364
30050W        W98444  35.663  13.797   3.827
30051W        W98445   6.794  42.274  14.565
30052W        W98446   5.922  12.434  12.022
30053W        W98447  18.267  19.164  13.234
30054W        W98448  18.341  26.535  12.348
30055W        W98449  36.474  29.880   4.209
30056W        W98450  21.758   1.646   4.123
30057W        W98451  17.714  19.613  10.171
30058W        W98452  19.289  12.616  13.973
30059W        W98453  44.552  30.535  12.000
30060W        W98454  14.604  34.063   2.892
30061W        W98455  41.917   6.209   3.641
30062W        W98456   8.636  10.797  12.041
30063W        W98457  33.662  43.301  14.757
30064W        W98458  37.074  37.662   2.388
30065W        W98459  37.502  13.319  14.856
30066W        W98460  32.923  11.202  11.145
30067W        W98461  37.416  38.621   4.907
30068W        W98462  41.033  21.584  12.621
30069W        W98463  15.955  27.655  13.857
30070W        W98464  18.635  36.834   2.769
30071W        W98465   8.688  39.403   0.875
30072W        W98466   1.821  28.216   1.336
30073W        W98467  30.438   2.253  11.765
30074W        W98468  20.207  28.361   3.862
30075W        W98469  44.529   4.893   3.246
30076W        W98470  40.443  10.254   2.642
30077W        W98471  42.763   1.575   4.232
30078W        W98472  39.833   7.894  13.538
30079W        W98473  37.006  13.096   0.733
30080W        W98474  27.449   7.888  12.014
30081W        W98475   0.616  19.876   9.888
30082W        W98476  43.729  23.602   3.315
30083W        W98477  19.271  10.572  14.885
30084W        W98478  21.550  28.281  11.128
30085W        W98479  31.900  30.407  11.445
30086W        W98480   1.423  44.320   1.143
30087W        W98481  44.141  32.774  11.102
30088W        W98482   9.475  12.107  14.910
30089W        W98483   3.284  31.111  12.505
30090W        W98484  26.264  29.596  13.957
30091W        W98485  40.948  39.838   4.697
30092W        W98486  39.962  39.005   9.631
30093W        W98487   8.934  28.760  12.000
30094W        W98488  11.742  22.271   1.426
30095W        W98489  44.472  29.023   2.184
30096W        W98490  22.990  29.703   3.715
30097W        W98491  17.144  29.668   1.248
30098W        W98492   7.715  12.903  11.960
30099W        W98493  41.781  41.664  13.858
30100W        W98494   5.580  11.658   0.174
30101W        W98495  35.606  37.036   2.756
30102W        W98496  10.444  34.984   3.239
30103W        W98497  27.251   4.329  12.161
30104W        W98498  30.663  36.720   3.756
30105W        W98499  14.840  38.283  11.561
30106W        W98500  37.437  21.531  10.594
30107W        W98501   1.134  11.915   2.391
30108W        W98502  32.827   6.235   3.840
30109W        W98503   1.183  22.396   1.220
30110W        W98504   1.213  29.378   3.114
30111W        W98505  23.011  13.690  10.564
30112W        W98506  35.470   1.383   0.560
30113W        W98507  28.584  21.750  14.014
30114W        W98508  13.035  29.622   3.203
30115W        W98509  18.386   1.266   0.880
30116W        W98510   5.848  12.658   1.456
30117W        W98511  24.012  16.826  11.179
30118W        W98512   4.336  12.607   4.607
30119W        W98513  30.185  42.018   1.242
30120W        W98514   3.347  25.261   0.145
30121W        W98515  28.442  33.111   3.135
30122W        W98516  17.140  16.628  14.955
30123W        W98517  27.578  27.148  12.673
30124W        W98518  25.609  43.520   2.420
30125W        W98519   6.069   2.657   0.395
30126W        W98520  11.265  25.640   4.718
30127W        W98521  28.531  37.465  14.390
30128W        W98522  30.425  35.834  11.885
30129W        W98523  27.671  29.817  12.093
30130W        W98524  19.032  18.223  12.620
30131W        W98525  22.543   8.723  13.315
30132W        W98526  29.660  28.176   9.876
30133W        W98527   7.849   3.282   0.909
30134W        W98528  26.736  15.802   0.428
30135W        W98529   4.127  24.187  14.054
30136W        W98530  25.215   0.461  12.938
30137W        W98531   2.459  13.542   9.930
30138W        W98532  26.449  41.370  11.095
30139W        W98533   2.018  44.246  13.829
30140W        W98534  28.923   5.849   4.593
30141W        W98535  15.119  25.952  12.464
30142W        W98536   0.893  20.597   4.789
30143W        W98537  36.373   0.440   3.189
30144W        W98538   5.280  34.188   1.107
30145W        W98539  14.669  38.848   4.655
30146W        W98540  24.019  42.323   0.701
30147W        W98541  22.866  23.111   3.755
30148W        W98542  41.798  29.532   4.214
30149W        W98543  41.743  19.071   0.873
30150W        W98544  22.034  30.090   3.181
30151W        W98545  19.656  44.877  11.758
30152W        W98546  36.621  11.745   2.001
30153W        W98547   7.304  17.672   2.923
30154W        W98548   9.880  34.359   2.596
30155W        W98549  19.797   2.426  13.856
30156W        W98550   6.085  20.679  13.056
30157W        W98551  37.150  22.473  14.887
30158W        W98552  44.937  26.321  11.650
30159W        W98553  23.987   4.866   3.697
30160W        W98554  30.344  24.489  12.179
30161W        W98555  40.804  31.771   2.730
30162W        W98556  42.833  23.484   2.389
30163W        W98557  21.431   0.397   1.050
30164W        W98558   6.949  32.990  14.135
30165W        W98559  34.604  14.828  11.888
30166W        W98560  39.293   1.849  11.180
30167W        W98561  22.615  22.597   0.410
30168W        W98562  41.410  38.872   2.690
30169W        W98563  24.199   9.711   5.074
30170W        W98564   7.559  12.169   4.915
30171W        W98565  18.121  10.136   4.525
30172W        W98566  38.329   4.860   0.269
30173W        W98567  21.658   7.350  13.352
30174W        W98568  43.030  41.185  11.537
30175W        W98569  33.241  22.627  13.528
30176W        W98570  18.998   3.214   1.651
30177W        W98571  37.720  22.658   4.959
30178W        W98572  14.648  26.968   0.500
30179W        W98573  37.856   4.903   3.882
30180W        W98574  39.503   9.219   0.247
30181W        W98575   1.367  14.331  10.970
30182W        W98576  32.576   8.766  12.137
30183W        W98577  43.437  32.679  11.570
30184W        W98578  24.474   9.281  12.977
30185W        W98579   9.414  31.139  13.283
30186W        W98580  14.688  40.459   3.212
30187W        W98581  17.405  30.032   2.617
30188W        W98582  35.408  35.114   0.916
30189W        W98583   3.703  34.015  10.764
30190W        W98584  31.387  39.480  12.547
30191W        W98585  32.538  29.530  12.608
30192W        W98586   8.818  40.377  14.106
30193W        W98587  41.063  22.136  14.388
30194W        W98588   6.486  39.364   3.154
30195W        W98589  43.115   5.849  14.435
30196W        W98590  20.189   4.194   2.863
30197W        W98591  20.080  42.965  14.868
30198W        W98592  20.753  23.001   3.452
30199W        W98593   3.052  25.048   3.215
30200W        W98594  19.197  36.497  13.468
30201W        W98595   1.359  34.147   1.938
30202W        W98596   5.778  34.199   4.381
30203W        W98597  38.348  13.193  12.354
30204W        W98598   7.322  42.292   4.250
30205W        W98599   9.157  27.764  12.822
30206W        W98600  35.107  40.663  14.034
30207W        W98601   0.395  15.140   0.034
30208W        W98602  19.203   7.140  12.708
30209W        W98603  38.078  22.394  13.003
30210W        W98604   3.729  17.564  12.838
30211W        W98605  13.083  41.346  13.802
30212W        W98606  32.146  31.901  13.530
30213W        W98607  16.587  31.827  13.363
30214W        W98608  13.520   1.612   1.813
30215W        W98609   1.509  19.941  14.071
30216W        W98610  10.321  31.807   0.452
30217W        W98611  26.078  17.974  13.011
30218W        W98612  25.038  44.719  13.443
30219W        W98613  30.619  20.750   1.925
30220W        W98614  11.067  21.043   3.700
30221W        W98615  21.563  24.907   4.641
30222W        W98616   0.195   5.480  11.980
30223W        W98617  31.013  18.134   3.756
30224W        W98618  33.447   6.708  11.654
30225W        W98619  28.961   7.422  13.740
30226W        W98620   4.113  20.790   4.239
30227W        W98621  24.421  29.722  10.500
30228W        W98622  43.289   6.871   3.418
30229W        W98623  28.692  36.963   0.265
30230W        W98624   4.700   4.764  14.483
30231W        W98625  24.652  15.796  10.777
30232W        W98626  32.249   1.708   1.780
30233W        W98627   1.784  32.667  14.058
30234W        W98628   6.966  34.028  13.125
30235W        W98629  14.581  39.089   4.214
30236W        W98630  38.497  30.892   1.381
30237W        W98631  14.286  18.834   4.762
30238W        W98632  31.906  24.323   2.708
30239W        W98633  39.635  29.113  11.631
30240W        W98634  43.146   2.201   2.896
30241W        W98635  42.063   3.278   4.250
30242W        W98636  20.186   5.921   2.207
30243W        W98637   9.953  15.792  11.210
30244W        W98638  13.595  12.709  13.067
30245W        W98639   7.392  41.433   4.565
30246W        W98640   7.928  26.440   2.310
30247W        W98641  38.881  27.039  11.207
30248W        W98642   1.393   0.466   1.257
30249W        W98643  22.384  10.842   0.795
30250W        W98644   8.911  20.040   2.711
30251W        W98645  44.363  11.883  13.497
30252W        W98646  39.330  19.120  14.378
30253W        W98647  17.692  25.497   1.350
30254W        W98648  28.324  43.431   5.072
30255W        W98649  13.259  11.125  14.738
30256W        W98650  30.455  34.002  13.047
30257W        W98651   1.763  16.292  12.511
30258W        W98652  35.887  16.019  12.850
30259W        W98653  43.826  39.523  11.426
30260W        W98654  12.464  32.425   3.301
30261W        W98655   8.694   4.236  12.982
30262W        W98656   5.342  38.934   1.687
30263W        W98657  24.895  28.125  10.976
30264W        W98658  38.831  27.143  13.668
30265W        W98659  31.784   3.158  12.741
30266W        W98660  14.784   3.859   1.669
30267W        W98661  43.935   7.880   2.891
30268W        W98662   0.761  42.573  13.587
30269W        W98663  36.662  18.254   0.272
30270W        W98664  11.606  19.454  14.046
30271W        W98665  33.533  22.187  13.997
30272W        W98666  26.646  11.775   0.892
30273W        W98667  39.292  10.681  10.650
30274W        W98668  41.344   0.566   4.519
30275W        W98669  12.948   3.568   2.775
30276W        W98670  40.617  21.372   4.332
30277W        W98671  29.579  22.685  11.075
30278W        W98672  20.227  26.783   2.757
30279W        W98673   2.739  12.595  10.922
30280W        W98674  32.036  22.412   4.563
30281W        W98675   4.639  39.262   1.371
30282W        W98676  39.313  22.010   3.206
30283W        W98677  34.930  11.378   3.288
30284W        W98678  40.800   4.317  14.446
30285W        W98679  41.910  15.563   1.417
30286W        W98680  35.844  19.122  14.469
30287W        W98681  22.651  22.973  14.417
30288W        W98682  25.113   2.428   0.361
30289W        W98683  11.044  10.651  12.206
30290W        W98684  30.211  26.072   2.186
30291W        W98685  40.404  14.205  13.440
30292W        W98686   3.238  29.359  11.560
30293W        W98687  25.428  11.112  12.906
30294W        W98688  44.918   7.828   3.613
30295W        W98689  12.474  42.226   0.693
30296W        W98690   7.637  30.975   2.838
30297W        W98691   8.642  23.747   0.968
30298W        W98692  19.147  18.145  11.686
30299W        W98693  30.824  31.069  12.896
30300W        W98694  11.492  25.767   2.356
30301W        W98695   7.956  39.371   4.707
30302W        W98696  40.862   1.428   0.802
30303W        W98697  42.967  29.117   0.972
30304W        W98698   6.420  38.995  12.163
30305W        W98699  19.209  42.991   1.832
30306W        W98700  44.990   7.187  10.838
30307W        W98701  22.476  19.313  12.354
30308W        W98702   4.187  43.356  14.284
30309W        W98703   3.167  41.299  13.973
30310W        W98704  37.158   5.772  11.712
30311W        W98705   8.880  42.813   1.912
30312W        W98706  30.864  37.114   0.674
30313W        W98707  20.075  35.872  11.614
30314W        W98708  35.235  26.406  14.675
30315W        W98709  40.819  15.208   2.909
30316W        W98710  44.494  44.710  10.687
30317W        W98711   2.378  37.533   2.753
30318W        W98712  41.893  41.563   1.614
30319W        W98713   9.777  22.775   4.540
30320W        W98714  12.746  16.113  10.623
30321W        W98715  10.076  34.397  14.507
30322W        W98716  32.952  33.954   2.780
30323W        W98717  28.649  36.983  12.491
30324W        W98718  39.789  28.288  10.604
30325W        W98719   9.732  38.003   3.260
30326W        W98720  27.969  42.900  12.063
30327W        W98721  34.365  32.049   0.582
30328W        W98722  15.737   7.635   2.824
30329W        W98723  14.555   9.108   2.581
30330W        W98724  44.307  37.475   1.883
30331W        W98725  21.507  29.369   5.060
30332W        W98726  32.873  29.319   0.180
30333W        W98727   6.034  23.167   3.304
30334W        W98728  29.156  15.070   3.847
30335W        W98729   5.457   9.967   3.582
30336W        W98730  22.550  37.928  14.781
30337W        W98731  36.976  13.211   1.695
30338W        W98732  15.515   5.919   3.752
30339W        W98733  22.480  14.570  12.873
30340W        W98734  13.238   6.656   1.694
30341W        W98735  39.410  29.732   4.126
30342W        W98736  29.062  40.309   1.747
30343W        W98737  44.386  13.936  12.496
30344W        W98738   8.841  33.019  13.255
30345W        W98739  20.976  12.252  12.399
30346W        W98740  17.078   2.621   4.082
30347W        W98741   3.695  15.354  12.908
30348W        W98742  15.392  40.463   2.579
30349W        W98743   0.429  18.780  11.647
30350W        W98744  25.051  37.358   1.354
30351W        W98745  30.922  38.075   0.856
30352W        W98746  18.288  19.752  10.030
30353W        W98747  22.234  11.702   4.904
30354W        W98748  22.225   0.980  14.695
30355W        W98749  23.553  37.021   0.464
30356W        W98750  34.057  14.242   0.288
30357W        W98751   4.387  18.629   4.633
30358W        W98752  31.035  14.907   0.821
30359W        W98753  44.833  15.746   1.411
30360W        W98754  35.105   4.900   4.153
30361W        W98755  43.170  18.325  13.865
30362W        W98756   6.879  11.723  13.647
30363W        W98757  33.893  36.490  14.708
30364W        W98758  19.569  15.299  13.577
30365W        W98759  26.558  38.517  11.186
30366W        W98760  32.993  21.128   3.254
30367W        W98761  37.324  15.734   0.700
30368W        W98762  41.316   8.886   0.308
30369W        W98763  25.200   7.254  14.781
30370W        W98764   3.444  25.359   1.001
30371W        W98765   4.464  33.911  14.326
30372W        W98766  41.404  29.554   2.365
30373W        W98767  29.110  34.992   1.837
30374W        W98768  19.989  41.070  13.549
30375W        W98769  39.478  34.533   1.216
30376W        W98770  30.115  16.682   2.442
30377W        W98771  30.937   9.391  13.346
30378W        W98772   7.430   8.641   0.812
30379W        W98773  28.097  40.569  13.535
30380W        W98774  35.819   1.130   4.894
30381W        W98775   3.981  11.129   0.430
30382W        W98776  17.582  43.562  12.141
30383W        W98777   4.996  33.434   3.210
30384W        W98778   6.478  20.864   1.929
30385W        W98779  43.356   4.613  10.844
30386W        W98780  24.575  18.145   1.741
30387W        W98781  16.225  23.935  13.073
30388W        W98782   2.848  12.999   3.336
30389W        W98783  31.305  41.122  11.958
30390W        W98784  15.686  43.253   4.124
30391W        W98785   4.849  17.235  13.601
30392W        W98786  44.199  17.074   1.683
30393W        W98787  17.238   6.233   4.688
30394W        W98788   5.257  24.427  11.417
30395W        W98789  38.788  29.874   1.742
30396W        W98790  12.650  32.380  10.772
30397W        W98791   0.845  18.708  13.931
30398W        W98792  33.825  44.952  11.256
30399W        W98793  36.979   4.826   0.903
30400W        W98794  22.032  16.056  13.361
30401W        W98795  22.242   7.069  11.126
30402W        W98796  22.554  30.581  11.380
30403W        W98797  42.384   1.262   3.877
30404W        W98798   4.064  22.275   3.303
30405W        W98799   6.382  23.363  12.634
30406W        W98800  43.084  39.970  10.559
30407W        W98801   8.400   3.065   0.307
30408W        W98802  40.949  24.033   4.206
30409W        W98803  24.744   2.378   3.335
30410W        W98804  15.528  12.444   2.839
30411W        W98805  20.241  22.305  12.634
30412W        W98806  38.028  44.429   4.641
30413W        W98807  38.575  34.427  12.845
30414W        W98808   2.380  32.640  11.628
30415W        W98809   2.790  26.612  14.499
30416W        W98810   3.445  28.777   1.853
30417W        W98811  15.262   8.414  12.778
30418W        W98812   9.353  43.904   2.780
30419W        W98813   7.150  26.944   0.914
30420W        W98814  18.088  40.556  14.788
30421W        W98815   9.790  35.517   3.104
30422W        W98816  34.952  38.445   3.772
30423W        W98817  23.759  42.869   0.178
30424W        W98818   7.699  32.447   2.877
30425W        W98819  28.210   2.378   1.345
30426W        W98820  35.387   7.888   2.351
30427W        W98821  16.205  29.904  12.579
30428W        W98822  11.761  31.401  13.471
30429W        W98823  11.705  41.290  12.613
30430W        W98824   5.006  44.825  11.443
30431W        W98825  36.508  44.982  11.177
30432W        W98826  40.315  18.459  12.149
30433W        W98827  39.716  43.823   3.831
30434W        W98828   2.465   9.826  13.006
30435W        W98829  13.368  21.297   3.232
30436W        W98830   1.896  42.305  10.866
30437W        W98831  42.518  28.005  12.066
30438W        W98832  40.051  32.464  12.272
30439W        W98833  15.818  34.941   1.671
30440W        W98834  22.786  27.511  11.466
30441W        W98835  33.423  39.956  13.003
30442W        W98836  29.939  17.376  10.906
30443W        W98837   0.692   6.237   0.027
30444W        W98838  26.172  44.246   1.835
30445W        W98839   4.709  28.648   2.380
30446W        W98840  41.055  21.185   1.186
30447W        W98841  38.816  28.110   3.202
30448W        W98842  21.791   3.911  14.298
30449W        W98843  35.842  20.799   0.327
30450W        W98844   2.724  41.538  13.121
30451W        W98845  25.529  37.449  12.114
30452W        W98846   3.942   8.785  14.401
30453W        W98847   0.176  32.439   2.446
30454W        W98848  36.087  23.756  11.486
30455W        W98849  34.314  20.058  13.386
30456W        W98850  39.368  36.017  13.108
30457W        W98851  19.653  11.327  13.158
30458W        W98852  21.054  23.727   1.399
30459W        W98853  38.524  14.308   1.699
30460W        W98854  26.621  43.066  13.456
30461W        W98855  20.550  41.933   4.573
30462W        W98856  25.499   0.377  14.253
30463W        W98857  37.625  12.396   0.233
30464W        W98858  15.772  39.290   2.811
30465W        W98859   2.771  43.740   2.357
30466W        W98860  17.790   0.886  12.765
30467W        W98861  14.882  25.363   4.372
30468W        W98862   2.064  44.265  11.618
30469W        W98863  17.202  12.358   3.917
30470W        W98864  22.677   4.365   3.239
30471W        W98865  37.774  34.895  13.854
30472W        W98866  43.985  40.026   0.294
30473W        W98867   2.500  35.780  14.291
30474W        W98868  13.889  33.095  12.465
30475W        W98869   8.184  17.106  10.572
30476W        W98870   9.651  33.140   0.321
30477W        W98871  23.995   8.279   0.359
30478W        W98872  35.358  10.358   3.827
30479W        W98873  26.227  44.003   1.341
30480W        W98874  38.273   3.415   2.728
30481W        W98875   9.890  25.442   2.147
30482W        W98876  21.450  28.145   0.069
30483W        W98877   0.522  38.546   2.629
30484W        W98878  19.027  42.100   4.163
30485W        W98879  19.216  29.408  12.294
30486W        W98880  36.280  39.379   3.682
30487W        W98881  17.710  17.609   3.439
30488W        W98882  38.990  13.083  11.990
30489W        W98883  24.040  35.330  14.915
30490W        W98884  38.647  26.236   2.470
30491W        W98885   9.288  16.647  14.543
30492W        W98886   1.277  42.532   1.711
30493W        W98887  39.725  27.024  12.930
30494W        W98888  24.044   1.368   3.694
30495W        W98889  19.627   5.199   0.358
30496W        W98890  11.198   4.166   3.061
30497W        W98891  30.018  23.643  12.995
30498W        W98892  15.089  27.159   0.729
30499W        W98893  25.921  12.504   2.309
30500W        W98894  18.540  34.154   1.498
30501W        W98895  11.837  14.273  10.740
30502W        W98896  15.597  28.388   2.355
30503W        W98897  28.463  18.706  11.609
30504W        W98898  31.432   3.005  10.806
30505W        W98899  39.947  20.350  12.569
30506W        W98900   6.470  22.198   2.490
30507W        W98901   7.629   6.785   0.731
30508W        W98902   7.222  24.248  13.501
30509W        W98903  34.580  25.198  12.022
30510W        W98904  32.026  23.920   4.528
30511W        W98905  37.894  41.249   4.104
30512W        W98906  25.655   3.453  14.592
30513W        W98907  26.030  39.791   3.500
30514W        W98908  38.620  21.399   2.758
30515W        W98909  28.228  12.975   9.808
30516W        W98910  40.467   2.734  14.768
30517W        W98911  12.316  35.426  11.558
30518W        W98912  16.737  43.791   2.912
30519W        W98913  29.087  31.198   3.301
30520W        W98914  32.070   0.313  14.289
30521W        W98915  20.813  30.512  11.901
30522W        W98916  37.874  13.483   4.372
30523W        W98917  20.332  38.357  12.019
30524W        W98918  34.569   3.707  11.547
30525W        W98919  39.132  28.608   0.555
30526W        W98920  15.188   0.969   2.425
30527W        W98921  20.509   7.308   1.465
30528W        W98922  37.595  23.973  13.814
30529W        W98923  21.704  34.882  14.700
30530W        W98924  15.768  26.147   3.644
30531W        W98925  30.431  20.027  10.717
30532W        W98926  40.270  22.299  13.295
30533W        W98927  28.946   7.252  11.278
30534W        W98928  12.673   2.954   2.112
30535W        W98929  35.822   0.972  12.500
30536W        W98930  25.681  32.176   0.653
30537W        W98931  43.114  29.517   1.262
30538W        W98932  23.200  23.480  11.144
30539W        W98933   2.155   3.927  11.937
30540W        W98934  31.571  42.317   3.620
30541W        W98935  24.451  20.076  10.744
30542W        W98936   1.119  23.803   1.393
30543W        W98937  39.386   1.054  12.459
30544W        W98938  25.256  19.050  13.792
30545W        W98939  14.572  38.514  10.378
30546W        W98940  43.222   1.875   2.251
30547W        W98941  17.843  13.611  12.477
30548W        W98942   7.712  26.926   9.847
30549W        W98943  39.275  43.324  13.427
30550W        W98944  35.565  36.655  12.952
30551W        W98945  12.688  28.776  12.423
30552W        W98946   2.341  23.895   1.979
30553W        W98947   9.431  31.125  11.536
30554W        W98948  27.148  36.090  10.725
30555W        W98949  24.543   6.266   3.785
30556W        W98950  24.790  13.751   1.788
30557W        W98951  30.101  21.819  13.464
30558W        W98952  11.802  25.175   3.162
30559W        W98953  13.739   8.773   4.512
30560W        W98954  18.129  22.789   4.874
30561W        W98955   8.453  14.873  13.247
30562W        W98956  13.600   5.876   9.831
30563W        W98957  16.412  35.492   1.996
30564W        W98958  19.423  31.478  12.481
30565W        W98959  26.860  11.962   3.226
30566W        W98960  33.955   3.229   2.663
30567W        W98961  31.676   0.617   4.254
30568W        W98962   7.864  36.974  13.305
30569W        W98963  32.469  40.341  11.066
30570W        W98964  23.113  28.980   0.909
30571W        W98965  10.323  17.600  10.696
30572W        W98966  24.450   3.920  11.486
30573W        W98967  28.963  18.054   2.781
30574W        W98968  36.893  36.443  14.701
30575W        W98969  30.853  42.976   2.825
30576W        W98970  42.541  28.529   0.053
30577W        W98971  18.495  15.843   3.281
30578W        W98972   0.427  12.143  12.332
30579W        W98973  28.437  17.512   0.865
30580W        W98974  11.857  40.973  14.109
30581W        W98975  35.974  41.226   3.813
30582W        W98976  33.347   9.832  11.959
30583W        W98977  20.630  30.561   3.111
30584W        W98978   0.974  41.215  11.540
30585W        W98979  36.427  19.778  10.796
30586W        W98980  35.370  37.803  13.836
30587W        W98981  21.826  33.063   2.791
30588W        W98982  43.343  19.052  11.920
30589W        W98983  41.218  30.465   4.225
30590W        W98984  31.390  28.732  12.034
30591W        W98985  16.817   9.424   4.562
30592W        W98986  32.673   4.219  14.933
30593W        W98987  19.431   0.782   3.594
30594W        W98988  34.503  40.109  14.000
30595W        W98989   3.713  15.714   0.905
30596W        W98990  13.608   7.400   2.353
30597W        W98991  21.003  41.428   0.356
30598W        W98992   5.040  15.511   0.447
30599W        W98993   5.390  14.359  12.972
30600W        W98994  13.649  36.845  11.278
30601W        W98995  32.903  42.543   0.127
30602W        W98996  11.760   4.807   2.426
30603W        W98997  32.523  13.731   0.826
30604W        W98998  44.290  12.337  11.489
30605W        W98999  17.724   6.876   2.196
30606W        W99000  39.546  20.523  11.304
30607W        W99001  24.688  40.087   2.448
30608W        W99002   3.176  38.418  14.403
30609W        W99003   6.425  29.654   2.731
30610W        W99004  44.147  33.321   3.794
30611W        W99005  42.298  11.549   3.223
30612W        W99006  27.421  38.558  14.014
30613W        W99007   2.205  40.029   2.802
30614W        W99008  12.355  17.282  14.449
30615W        W99009   3.554  41.754   2.737
30616W        W99010  19.314  29.932  12.136
30617W        W99011  31.540  44.745   4.113
30618W        W99012  41.975  11.809   1.371
30619W        W99013  16.916  22.591  14.595
30620W        W99014  44.905  42.498  10.773
30621W        W99015  15.569   3.764   5.246
30622W        W99016   6.874  39.089   3.408
30623W        W99017  13.571  42.020  14.368
30624W        W99018   0.447  17.463   5.021
30625W        W99019   0.991  23.299   3.345
30626W        W99020   0.371   8.256  14.830
30627W        W99021   7.968  23.269   0.419
30628W        W99022  13.354  22.630  14.893
30629W        W99023  30.126  26.019   4.522
30630W        W99024  34.681   1.242   1.658
30631W        W99025  19.724  27.924  11.547
30632W        W99026  26.971  33.548   2.739
30633W        W99027  35.708  34.638  11.196
30634W        W99028  12.769  15.607   0.229
30635W        W99029  17.229  14.112  11.184
30636W        W99030   5.251   7.788  14.817
30637W        W99031   6.195  39.335  13.787
30638W        W99032  29.500  18.656  11.612
30639W        W99033  10.958  24.789   3.588
30640W        W99034  38.090  33.477   4.671
30641W        W99035  15.265  26.061   2.937
30642W        W99036  40.022   4.481  12.573
30643W        W99037   1.494  11.230   4.597
30644W        W99038  25.773  26.565   0.439
30645W        W99039  15.597  10.357   3.317
30646W        W99040  11.708  21.536   2.941
30647W        W99041  14.206  34.502  11.061
30648W        W99042   7.883  11.401  14.533
30649W        W99043  20.831  26.260   0.882
30650W        W99044   7.379  31.292   4.837
30651W        W99045  14.315   4.975  13.111
30652W        W99046  20.168  36.392   4.815
30653W        W99047   0.640  19.658   1.656
30654W        W99048  24.205  38.254   3.277
30655W        W99049  43.597  13.840  11.960
30656W        W99050   1.349  30.204  11.108
30657W        W99051   2.484   1.816  12.256
30658W        W99052  40.310  11.735  10.319
30659W        W99053   7.748  27.260   0.127
30660W        W99054  34.459  35.036   1.746
30661W        W99055  37.064  28.248  12.051
30662W        W99056  24.467   0.047   5.103
30663W        W99057   3.271  20.643   1.296
30664W        W99058  28.145  25.041  13.680
30665W        W99059  12.230  40.922   4.029
30666W        W99060  15.712  36.049  14.664
30667W        W99061  35.708   5.155  12.852
30668W        W99062   0.011  27.233  11.661
30669W        W99063  38.405   3.425   0.208
30670W        W99064  22.677  22.228   3.275
30671W        W99065  17.141  29.954  10.447
30672W        W99066  42.068   2.336   4.416
30673W        W99067  32.920  21.598  12.914
30674W        W99068  14.263  15.586   0.012
30675W        W99069  15.359  22.618  13.261
30676W        W99070  36.543  20.404  12.973
30677W        W99071  29.786  13.500   2.218
30678W        W99072   7.280  29.087   1.741
30679W        W99073   8.226  15.114   2.699
30680W        W99074   8.714  31.602   2.738
30681W        W99075  22.749   0.546  14.373
30682W        W99076   2.940  26.397   3.204
30683W        W99077  40.827   5.263  11.105
30684W        W99078  37.498  11.318   0.735
30685W        W99079  39.396  21.160  10.537
30686W        W99080   2.380  41.956   1.936
30687W        W99081  38.510  37.376   2.246
30688W        W99082   2.793  34.605  14.915
30689W        W99083  44.224  13.307   1.189
30690W        W99084  21.956   1.929  10.673
30691W        W99085   8.860  17.832   3.104
30692W        W99086  32.217  39.944   4.850
30693W        W99087  31.739  39.825  13.888
30694W        W99088   6.829  18.065   4.543
30695W        W99089   1.049  24.408  11.547
30696W        W99090  26.567   9.968  11.574
30697W        W99091  43.621  38.507  14.127
30698W        W99092   0.405  41.913   1.784
30699W        W99093  11.650  28.676   0.474
30700W        W99094   6.504  23.911   3.689
30701W        W99095  11.751  34.395   0.926
30702W        W99096   6.353  19.996   0.486
30703W        W99097  21.427  12.795  10.625
30704W        W99098  26.064  16.022   1.912
30705W        W99099  21.396   9.126   3.570
30706W        W99100  43.094  23.807   4.594
30707W        W99101  17.545  35.522   4.207
30708W        W99102   6.898  15.868   3.574
30709W        W99103  24.060  11.529  12.544
30710W        W99104  22.523   8.213  10.839
30711W        W99105  25.117  20.283  14.982
30712W        W99106  17.837  14.332   0.432
30713W        W99107  36.982  23.214  13.871
30714W        W99108  29.748   7.906   0.862
30715W        W99109   4.375   3.306   3.231
30716W        W99110  28.268   8.694  11.530
30717W        W99111  20.477   8.277   2.696
30718W        W99112  38.443  26.917   4.205
30719W        W99113  12.307  14.565  13.490
30720W        W99114  34.283   0.268   3.229
30721W        W99115  25.950  28.944   4.167
30722W        W99116   6.717   1.386   3.710
30723W        W99117  29.051  10.910   1.461
30724W        W99118  35.689  13.545  14.017
30725W        W99119  23.199  39.508  14.815
30726W        W99120  18.553  10.936  11.876
30727W        W99121   7.723  20.845  12.529
30728W        W99122  12.589  27.086   3.310
30729W        W99123  12.348  39.381  14.547
30730W        W99124  13.178  29.475  10.463
30731W        W99125  16.856  43.222  10.790
30732W        W99126  10.668  17.162   4.945
30733W        W99127  10.249  33.514   4.638
30734W        W99128  19.571  39.374   2.168
30735W        W99129   6.251   1.051   1.302
30736W        W99130  31.066  27.445   0.277
30737W        W99131  19.582  36.463   2.050
30738W        W99132   6.517  38.522  14.386
30739W        W99133  42.035  12.698  13.869
30740W        W99134  23.410  17.109   1.372
30741W        W99135  38.539  19.020  11.565
30742W        W99136  38.783  25.947   2.887
30743W        W99137  19.664  18.326   9.490
30744W        W99138   4.097  33.571  11.507
30745W        W99139  30.507  30.109   4.128
30746W        W99140  18.655   8.706   3.300
30747W        W99141  21.320   5.541  14.841
30748W        W99142  14.345  22.824  14.807
30749W        W99143  15.504  21.797   1.448
30750W        W99144  20.582  28.959   3.272
30751W        W99145   9.186   3.202  12.329
30752W        W99146  27.546  19.314  14.317
30753W        W99147  11.234  26.145  11.639
30754W        W99148  14.648  27.670   3.411
30755W        W99149  21.197  10.394   3.462
30756W        W99150  41.610  32.644   3.131
30757W        W99151  29.179  27.478   0.000
30758W        W99152  21.127  40.331  11.520
30759W        W99153  41.291  44.788  11.231
30760W        W99154  31.103  36.664   5.004
30761W        W99155  11.352  16.579   2.761
30762W        W99156  41.101   9.328   3.284
30763W        W99157  15.810   4.512  13.795
30764W        W99158   8.148  28.020  13.826
30765W        W99159  31.292   2.703   4.122
30766W        W99160   0.523   1.846  13.974
30767W        W99161  24.172  32.568  10.828
30768W        W99162  11.661   0.379  10.723
30769W        W99163  40.173   6.820  13.817
30770W        W99164  11.659   6.194  14.914
30771W        W99165  14.214  30.166   0.192
30772W        W99166   4.718  11.626   4.545
30773W        W99167   7.710  36.986   4.598
30774W        W99168  19.478  16.038   0.748
30775W        W99169  38.018   3.289  10.660
30776W        W99170  20.619  23.289  14.297
30777W        W99171  31.582  14.350  12.007
30778W        W99172   1.655  24.501   0.373
30779W        W99173  22.293  32.982  10.496
30780W        W99174   9.010  24.642  11.648
30781W        W99175  11.811  20.246   3.709
30782W        W99176  31.414   3.016   3.092
30783W        W99177  11.531  18.953   5.134
30784W        W99178  11.362  23.977  12.869
30785W        W99179  28.975  19.869   4.061
30786W        W99180   1.127  24.933  14.122
30787W        W99181  31.516   9.689   3.704
30788W        W99182  14.325   1.361   2.141
30789W        W99183  26.102  34.304  12.387
30790W        W99184  44.253  28.801  10.703
30791W        W99185   4.267  22.573   2.780
30792W        W99186  29.666  20.234   4.007
30793W        W99187  18.356  24.963   3.656
30794W        W99188  10.645   9.451   3.729
30795W        W99189  36.049  17.322  11.191
30796W        W99190   1.535   3.238   4.499
30797W        W99191  23.045  24.478   0.096
30798W        W99192  25.343  12.480   5.110
30799W        W99193   2.815   5.275   4.408
30800W        W99194   7.798  34.972  11.068
30801W        W99195  11.943   3.400  12.913
30802W        W99196  21.576   9.599   2.360
30803W        W99197  36.992  27.796   4.140
30804W        W99198  12.686  18.423   3.665
30805W        W99199   6.859  43.962   3.133
30806W        W99200  32.113  22.795   2.715
30807W        W99201   4.868   5.784   2.274
30808W        W99202  28.583   2.398   3.218
30809W        W99203  21.543  44.542   5.042
30810W        W99204   7.198   3.942   0.234
30811W        W99205  44.359  27.895   2.331
30812W        W99206  20.202  37.354   4.452
30813W        W99207   9.136  13.042   0.266
30814W        W99208  35.383  43.358   4.118
30815W        W99209   6.638  34.364  11.083
30816W        W99210  35.799  15.296   4.233
30817W        W99211  32.680  18.511   3.274
30818W        W99212  18.057   7.966   3.689
30819W        W99213  12.152  17.152   0.326
30820W        W99214   5.875   4.232  12.697
30821W        W99215  39.086  18.828  12.804
30822W        W99216  30.215  19.079  12.668
30823W        W99217  31.861  12.681  13.388
30824W        W99218   4.184   1.896   3.327
30825W        W99219   6.170  21.228   3.605
30826W        W99220  44.233  20.448   1.441
30827W        W99221   0.790   6.215  13.138
30828W        W99222  39.683  10.093   0.324
30829W        W99223  31.662  19.182   3.786
30830W        W99224   7.848  13.560  10.993
30831W        W99225  16.699  19.512  14.259
30832W        W99226  17.250  11.882  11.549
30833W        W99227  38.359  18.095  10.474
30834W        W99228  40.756  18.147  13.523
30835W        W99229  34.420  36.605  13.928
30836W        W99230  17.664  20.826  11.829
30837W        W99231   1.526  22.728   3.146
30838W        W99232  42.112  42.415   1.366
30839W        W99233  29.135  11.932  11.574
30840W        W99234   8.167  34.553  10.609
30841W        W99235  31.559   5.246  10.659
30842W        W99236  32.746  18.496  13.283
30843W        W99237  22.311  12.099   2.733
30844W        W99238   5.816  33.233   2.734
30845W        W99239  30.390   9.431  13.324
30846W        W99240  34.947   9.096   2.779
30847W        W99241  21.908   6.165  11.200
30848W        W99242  35.943  38.800  14.330
30849W        W99243  11.888  35.520  14.954
30850W        W99244   0.411   3.039   0.768
30851W        W99245  22.594  11.305  11.819
30852W        W99246  31.025  10.651  11.094
30853W        W99247   7.780  12.121   0.148
30854W        W99248  40.423  27.068  11.035
30855W        W99249   2.269  28.563   2.633
30856W        W99250  12.647   1.413  11.146
30857W        W99251  42.812  24.944   2.020
30858W        W99252   1.457  24.833   0.039
30859W        W99253  10.272  22.259   1.459
30860W        W99254  24.231  34.643   1.261
30861W        W99255  30.623   3.794  12.548
30862W        W99256  34.111   9.876  12.572
30863W        W99257  32.762  19.285   1.685
30864W        W99258  16.084  19.777   4.943
30865W        W99259  35.832  29.523   1.707
30866W        W99260  29.928  12.447   2.269
30867W        W99261  10.385  24.332   1.802
30868W        W99262  30.144  38.687   3.754
30869W        W99263  27.981   1.648   3.382
30870W        W99264  36.600   7.266  11.130
30871W        W99265   4.361  10.406  11.398
30872W        W99266   9.419  22.808  12.090
30873W        W99267  40.642  40.055   1.832
30874W        W99268   3.736   5.762   1.863
30875W        W99269  25.812  10.429   3.773
30876W        W99270  16.667  31.356   4.818
30877W        W99271  34.335  37.311   1.995
30878W        W99272  27.443   1.428  12.533
30879W        W99273  30.467  18.093  14.219
30880W        W99274  41.737  15.690   2.851
30881W        W99275  41.400  18.808   1.876
30882W        W99276  10.188  43.999  10.688
30883W        W99277  12.039  42.408   4.167
30884W        W99278  37.859  16.904  10.263
30885W        W99279  21.184  10.378   2.108
30886W        W99280  34.248   9.807  10.709
30887W        W99281  40.444  26.685   5.280
30888W        W99282   8.625  29.977  14.543
30889W        W99283  12.675   4.633   1.293
30890W        W99284  21.944  12.662  11.607
30891W        W99285  13.607   5.326   3.718
30892W        W99286  42.530   9.350   2.662
30893W        W99287  42.290  40.521  10.841
30894W        W99288  16.709  35.343   1.031
30895W        W99289  26.733  43.845   3.697
30896W        W99290   6.162   2.406  10.179
30897W        W99291  10.950  24.308  11.043
30898W        W99292  28.635  33.794  12.196
30899W        W99293   5.221  21.168  14.752
30900W        W99294   0.827  39.628   0.169
30901W        W99295  33.691  34.383  11.007
30902W        W99296  24.147  10.760   1.195
30903W        W99297  14.234  25.169   0.344
30904W        W99298  36.104   3.526   4.369
30905W        W99299  13.237  22.140  14.029
30906W        W99300  28.725  39.381  13.340
30907W        W99301  36.789   3.356  14.833
30908W        W99302  41.766  19.343   1.739
30909W        W99303  13.724  25.232   0.908
30910W        W99304  20.696  32.055  12.865
30911W        W99305  36.974   3.448  11.040
30912W        W99306   4.838  37.039   4.777
30913W        W99307   3.941  39.389  11.397
30914W        W99308  41.031  26.678  10.584
30915W        W99309  27.314  40.526   1.697
30916W        W99310  26.626   6.859   4.365
30917W        W99311  33.673  16.631   2.704
30918W        W99312  28.578  32.620  14.338
30919W        W99313  41.808  24.009   3.859
30920W        W99314  39.617  39.106  12.453
30921W        W99315  40.241  44.861   0.634
30922W        W99316  30.510  10.686   4.786
30923W        W99317  16.400   4.310   1.333
30924W        W99318  20.200  12.364  12.648
30925W        W99319  38.418  12.487   4.852
30926W        W99320   4.355  21.070   3.541
30927W        W99321  33.552  18.200   1.828
30928W        W99322   4.239  20.119   0.622
30929W        W99323  41.835  31.147  12.484
30930W        W99324  32.202  30.770  12.991
30931W        W99325   3.938  31.789  12.662
30932W        W99326  31.223  28.944   1.914
30933W        W99327   1.268   0.305   2.190
30934W        W99328   2.886  14.855   1.813
30935W        W99329  18.014  13.587   0.463
30936W        W99330  33.973  18.301   4.294
30937W        W99331   3.789  27.582   2.421
30938W        W99332   5.279  15.681   3.665
30939W        W99333  20.196   3.507   4.898
30940W        W99334  22.709   0.584  12.079
30941W        W99335  13.683  21.581   1.737
30942W        W99336  39.299  38.458  14.366
30943W        W99337   4.049  29.527   4.510
30944W        W99338   3.712  42.454  14.831
30945W        W99339  35.485  36.552   2.751
30946W        W99340  17.662   6.382  13.922
30947W        W99341  42.824  22.974  12.957
30948W        W99342  24.518  14.110   3.322
30949W        W99343  10.940  25.738   2.253
30950W        W99344  32.056  40.877   1.422
30951W        W99345   6.220   3.106   3.466
30952W        W99346  22.120  24.500   0.636
30953W        W99347  19.573  14.339   0.872
30954W        W99348   7.941  11.248  11.542
30955W        W99349   4.313  42.915   4.914
30956W        W99350  41.643  34.198  14.754
30957W        W99351  29.328  13.032  10.910
30958W        W99352  20.602  28.909  13.291
30959W        W99353  14.569  25.158  14.299
30960W        W99354  30.472  13.855  13.861
30961W        W99355   6.786  29.689  13.745
30962W        W99356  37.038  26.039   4.949
30963W        W99357  17.648  23.665   1.706
30964W        W99358  20.662  30.114   3.400
30965W        W99359  31.509  18.125  13.090
30966W        W99360  14.599  34.920   2.139
30967W        W99361   4.323  20.918  12.938
30968W        W99362  18.121  30.840  12.844
30969W        W99363  19.484   0.738   1.291
30970W        W99364  26.091   1.957  11.622
30971W        W99365  13.916  13.692  13.051
30972W        W99366  39.815   2.528  11.537
30973W        W99367   1.864   8.898   1.477
30974W        W99368  28.286  19.065   1.001
30975W        W99369  36.283  36.095  10.824
30976W        W99370   7.254   9.250   4.405
30977W        W99371  14.732  26.653  14.525
30978W        W99372  38.905  44.008  11.497
30979W        W99373  25.566   4.718  13.406
30980W        W99374  26.262  10.359   4.558
30981W        W99375  20.518  23.358   4.906
30982W        W99376  32.585  38.588   1.917
30983W        W99377   6.315  39.574   4.072
30984W        W99378  28.098  30.943  13.539
30985W        W99379  10.740   8.017  11.554
30986W        W99380   3.870  29.235   2.503
30987W        W99381  38.300   7.651  13.456
30988W        W99382  32.356  18.293  13.006
30989W        W99383   4.313  21.073  11.923
30990W        W99384  20.036  30.927  12.950
30991W        W99385  16.193  19.966   1.235
30992W        W99386   4.343  28.505  12.453
30993W        W99387  31.928  25.553   2.092
30994W        W99388  44.872  36.928   1.222
30995W        W99389  32.469   3.775   0.039
30996W        W99390  11.172  22.132   2.304
30997W        W99391  22.445  20.561   3.753
30998W        W99392  22.373  38.975   3.150
30999W        W99393  28.040  42.015  11.294
31000W        W99394  42.988   2.578  13.569
31001W        W99395  40.715   0.839   2.880
31002W        W99396  15.536  29.632   0.458
31003W        W99397  20.637   9.953   1.765
31004W        W99398  10.860  13.869  12.885
31005W        W99399  24.106  41.511   4.608
31006W        W99400  11.042   7.709   2.735
31007W        W99401  20.126  28.733   0.184
31008W        W99402  12.756   7.314   0.925
31009W        W99403   6.851  34.472   0.780
31010W        W99404  19.505  35.945   1.230
31011W        W99405  13.422  44.373  11.497
31012W        W99406  38.866  44.915   1.722
31013W        W99407   6.275  14.056   1.214
31014W        W99408  22.904   5.447   1.661
31015W        W99409  42.934  41.542   0.980
31016W        W99410  27.628  21.450   1.332
31017W        W99411  20.980   7.108  10.881
31018W        W99412   5.298  42.292  11.366
31019W        W99413  34.872  16.677   3.807
31020W        W99414  27.697  29.138   0.281
31021W        W99415  13.835  13.202   2.134
31022W        W99416  40.491  17.066   4.269
31023W        W99417  26.108  16.059  14.335
31024W        W99418  26.903   4.179  14.039
31025W        W99419  21.575   6.615  13.359
31026W        W99420  20.234  43.101   3.264
31027W        W99421  36.980  10.276  13.460
31028W        W99422  43.736   1.224  12.797
31029W        W99423  19.924  31.627  12.386
31030W        W99424  41.018  26.154   1.803
31031W        W99425  17.428  29.110   3.846
31032W        W99426  13.278   1.727  14.807
31033W        W99427  44.837   1.179   4.181
31034W        W99428  24.694   3.839   1.989
31035W        W99429  15.579  30.200   4.597
31036W        W99430  27.597  22.995   3.262
31037W        W99431  41.900   0.902   1.874
31038W        W99432  34.415  31.720  14.519
31039W        W99433  13.007  37.477  14.491
31040W        W99434   1.971   9.399   1.325
31041W        W99435  35.108  24.697   1.858
31042W        W99436  44.660  16.703  11.472
31043W        W99437   2.893  34.737   3.246
31044W        W99438  23.142  35.185  13.923
31045W        W99439  23.092  25.289   3.177
31046W        W99440  13.386   0.394  11.694
31047W        W99441   4.773   5.442   0.690
31048W        W99442  34.766  37.555  12.444
31049W        W99443  32.400  23.750  12.001
31050W        W99444  42.403   7.934  11.345
31051W        W99445  21.499   3.515   2.382
31052W        W99446  41.653  13.097   2.727
31053W        W99447  15.355  33.463   0.743
31054W        W99448  39.455  40.122   4.551
31055W        W99449  22.437   7.230   0.233
31056W        W99450  29.417   2.351  11.525
31057W        W99451  44.845  29.193  14.258
31058W        W99452  38.915  30.693  12.470
31059W        W99453  26.692  40.047   2.207
31060W        W99454  32.453  20.460   4.152
31061W        W99455  28.551  38.780  12.712
31062W        W99456  28.932  12.587  12.477
31063W        W99457  21.739   7.876   3.334
31064W        W99458  38.452  13.842   1.872
31065W        W99459  35.540   6.263  11.225
31066W        W99460  27.892  32.124  10.636
31067W        W99461  31.892  37.627  12.558
31068W        W99462  32.136  32.067  13.006
31069W        W99463  31.379  33.035   2.546
31070W        W99464  19.175  35.360  14.185
31071W        W99465  20.204  40.135  12.532
31072W        W99466  31.873  22.256  11.127
31073W        W99467  11.518  38.783   2.806
31074W        W99468  34.166  24.644   1.435
31075W        W99469  43.343  10.287   4.225
31076W        W99470   9.560  31.317  14.938
31077W        W99471  12.848  42.640  14.840
31078W        W99472  11.249  16.841  12.885
31079W        W99473   1.285  26.600   0.010
31080W        W99474  37.125  26.113  13.774
31081W        W99475  25.046  23.847  10.588
31082W        W99476  12.708  15.898   4.517
31083W        W99477  11.378  23.436  11.182
31084W        W99478  36.357  44.924   2.784
31085W        W99479  27.836  36.250  13.511
31086W        W99480  14.397  27.146   1.866
31087W        W99481  28.084  21.053  13.739
31088W        W99482   8.123   6.130   3.257
31089W        W99483  11.680  19.289   2.714
31090W        W99484  22.918   4.208   1.408
31091W        W99485   6.600  44.459   2.924
31092W        W99486   3.194  38.079   4.889
31093W        W99487   2.527  27.957   1.657
31094W        W99488  37.558   9.824   1.792
31095W        W99489   4.566  35.486   2.016
31096W        W99490  11.404   2.013  12.109
31097W        W99491  10.892  36.367   4.175
31098W        W99492   7.449  19.549   4.469
31099W        W99493  33.533   1.653   0.011
31100W        W99494  28.735  12.601   2.757
31101W        W99495  33.324  35.068  10.837
31102W        W99496  25.608   7.357  14.468
31103W        W99497  12.753  19.054   4.414
31104W        W99498   9.747  26.467  14.225
31105W        W99499  25.289  14.774   3.193
31106W        W99500   6.037  36.840  14.485
31107W        W99501  10.303  16.130  14.594
31108W        W99502  26.526  17.689  14.676
31109W        W99503   7.639  23.582   1.744
31110W        W99504  27.547   6.336   0.832
31111W        W99505  43.922  18.614   3.190
31112W        W99506  25.573  38.616  11.076
31113W        W99507  41.364   6.312   3.725
31114W        W99508   0.410  13.797   4.753
31115W        W99509  29.683  15.764   5.275
31116W        W99510   2.825  32.017  12.009
31117W        W99511  37.094  16.742   4.043
31118W        W99512  28.773  16.892  12.401
31119W        W99513   9.017   8.304   1.182
31120W        W99514   4.628  20.240  12.822
31121W        W99515  35.079  38.760   4.151
31122W        W99516  30.392  28.198  13.356
31123W        W99517   9.045  27.413   9.692
31124W        W99518   5.389  30.538  10.481
31125W        W99519  38.340  38.860   0.467
31126W        W99520   0.658  21.110   2.532
31127W        W99521  24.994  34.452  14.944
31128W        W99522  29.481  37.895  11.490
31129W        W99523  34.017  16.056  10.814
31130W        W99524  21.993  38.088   1.776
31131W        W99525   4.872  17.735   3.256
31132W        W99526  33.140  10.050   3.278
31133W        W99527  37.574  29.956  11.061
31134W        W99528  14.791  19.773  11.574
31135W        W99529  39.472  32.044   2.814
31136W        W99530  21.190  29.648  11.212
31137W        W99531  17.035   4.984   4.134
31138W        W99532   8.355  38.928  10.806
31139W        W99533   8.417  24.089   1.867
31140W        W99534  44.418  13.623   3.329
31141W        W99535  16.700  19.872   0.025
31142W        W99536  38.026  39.506   3.803
31143W        W99537  16.539  26.595  14.521
31144W        W99538  24.999  34.193  14.497
31145W        W99539   3.551  33.844  13.879
31146W        W99540   5.905  38.706   1.218
31147W        W99541  38.518  32.308  10.705
31148W        W99542  22.032   8.061  11.997
31149W        W99543  28.099  13.125  12.119
31150W        W99544   5.868   7.143  11.719
31151W        W99545  39.542  26.592  14.111
31152W        W99546   6.163  19.274  14.016
31153W        W99547  19.518  33.126  12.877
31154W        W99548  16.250  43.953   2.734
31155W        W99549  41.456   8.224  14.775
31156W        W99550  19.120  19.104  12.082
31157W        W99551  29.233  31.669   2.530
31158W        W99552  13.272  35.116   1.938
31159W        W99553  24.125  44.199   1.285
31160W        W99554   4.171  36.149   0.436
31161W        W99555   4.848  18.798  10.590
31162W        W99556  31.583  12.060  10.683
31163W        W99557  27.008  22.175   0.315
31164W        W99558  23.378  29.422   4.531
31165W        W99559  24.925  31.389   2.455
31166W        W99560  41.175  18.603   1.460
31167W        W99561  38.833  12.793  12.994
31168W        W99562  15.189  40.646   4.606
31169W        W99563  25.475   2.816  11.880
31170W        W99564  26.117   8.717  10.511
31171W        W99565   1.675  30.626  13.075
31172W        W99566  38.489  25.541  11.750
31173W        W99567  41.730   7.216  12.564
31174W        W99568  18.231  29.088  14.059
31175W        W99569  13.836  40.858  11.140
31176W        W99570   0.100  10.713  11.642
31177W        W99571   1.433  41.540  11.584
31178W        W99572  40.815  44.748   1.257
31179W        W99573  21.963  26.975   0.351
31180W        W99574  37.109  29.454   1.293
31181W        W99575  17.235  41.724   5.302
31182W        W99576   1.921  25.299   2.182
31183W        W99577   4.544  39.319   2.821
31184W        W99578  36.024  12.351   1.785
31185W        W99579  17.957   4.533   3.218
31186W        W99580  38.329  33.911   2.492
31187W        W99581  18.773  10.205  14.062
31188W        W99582  25.746  20.606   0.340
31189W        W99583  35.217   5.939   3.434
31190W        W99584  34.357  31.901   0.019
31191W        W99585  40.488  16.350  14.268
31192W        W99586  26.006  27.850   1.298
31193W        W99587  44.588  21.156  11.337
31194W        W99588  36.063  28.368  10.990
31195W        W99589  27.862  32.017  11.486
31196W        W99590  12.857   2.176  13.577
31197W        W99591  10.814   8.925   4.135
31198W        W99592  25.002  14.868  13.004
31199W        W99593  25.985  24.254  12.598
31200W        W99594  10.204  12.621   4.856
31201W        W99595  10.338  43.410   3.348
31202W        W99596   6.703   4.736  14.400
31203W        W99597  44.946  20.148  10.672
31204W        W99598  29.953  26.102   3.537
31205W        W99599  11.887   1.464   0.755
31206W        W99600  13.776  28.800   1.402
31207W        W99601  43.487  11.297  13.047
31208W        W99602  33.515  30.909   0.930
31209W        W99603   7.956  18.957  11.237
31210W        W99604  44.839  16.261   4.166
31211W        W99605  16.257  43.054   1.469
31212W        W99606  38.362  29.001  12.210
31213W        W99607  39.442  28.122  12.090
31214W        W99608  27.123  18.097  13.835
31215W        W99609   8.107   5.558  14.799
31216W        W99610  29.109  36.878   4.678
31217W        W99611  23.626  31.033  13.942
31218W        W99612  32.499  39.494   4.570
31219W        W99613  20.746  26.315   9.767
31220W        W99614  40.845  20.522  12.942
31221W        W99615  17.839   5.981  10.052
31222W        W99616  41.849  37.001   3.683
31223W        W99617   3.740   1.819  11.268
31224W        W99618  19.633   8.143   1.590
31225W        W99619  43.097   0.825   1.424
31226W        W99620  12.566  30.629  14.482
31227W        W99621   5.794  44.834   2.828
31228W        W99622   1.787  14.339   3.135
31229W        W99623  22.845   0.483   2.720
31230W        W99624  23.693  15.972  11.196
31231W        W99625  30.726  29.370  13.677
31232W        W99626  41.654  34.685  12.195
31233W        W99627   4.785  30.077  12.976
31234W        W99628   1.693   1.375   1.894
31235W        W99629  28.980  39.571  10.960
31236W        W99630  23.055  24.954   1.880
31237W        W99631   0.288  28.368  12.160
31238W        W99632  12.318  23.572  11.551
31239W        W99633  20.583  16.761   0.363
31240W        W99634   1.128  41.965  12.788
31241W        W99635  41.374   5.945  12.262
31242W        W99636  42.447  24.746   1.692
31243W        W99637  39.801  35.606   2.797
31244W        W99638  11.281   7.775  13.551
31245W        W99639  19.008  26.173   3.622
31246W        W99640   7.807   7.702   1.949
31247W        W99641  42.983  20.786  14.638
31248W        W99642  10.393  14.047  11.202
31249W        W99643  39.909  18.528  12.900
31250W        W99644  14.665   0.541   2.196
31251W        W99645  24.567  24.228  11.932
31252W        W99646  16.303  13.344   0.681
31253W        W99647  10.421  18.685  12.109
31254W        W99648  15.777  30.151   1.214
31255W        W99649  22.653  43.414  14.987
31256W        W99650  21.791  25.873   4.240
31257W        W99651   0.322  10.675  10.695
31258W        W99652  12.678  13.598   2.354
31259W        W99653  36.593   1.268   3.242
31260W        W99654   5.961  32.180  14.881
31261W        W99655   1.939  39.189  13.333
31262W        W99656  34.483  36.111  14.826
31263W        W99657  36.815  13.245   4.117
31264W        W99658  42.914  16.191  12.664
31265W        W99659  24.249  31.923   0.755
31266W        W99660  13.675  43.689  10.492
31267W        W99661   4.202   5.025   1.264
31268W        W99662  43.527  10.327  10.729
31269W        W99663  40.218  22.601   1.725
31270W        W99664  25.950   5.676   1.930
31271W        W99665  10.511   5.241  14.851
31272W        W99666  38.780  36.354   3.299
31273W        W99667  15.793  18.519   1.369
31274W        W99668   5.684  10.162   1.134
31275W        W99669   1.238   6.986   3.360
31276W        W99670  34.081   8.822   4.756
31277W        W99671  40.903  40.355  11.669
31278W        W99672  13.775   4.255  12.317
31279W        W99673  31.218  26.013   2.219
31280W        W99674  15.268  38.577   4.639
31281W        W99675  27.222   0.851   5.421
31282W        W99676   1.186   7.826   0.827
31283W        W99677  20.681  33.791  11.596
31284W        W99678  19.166   3.726  11.027
31285W        W99679  42.428  35.111   0.917
31286W        W99680  33.994  13.189  11.983
31287W        W99681  31.167  33.079   1.284
31288W        W99682  30.552  16.951   1.770
31289W        W99683  20.607  25.515  11.466
31290W        W99684  41.320  42.281   2.682
31291W        W99685  25.723  23.166  14.015
31292W        W99686  23.993  14.788   4.463
31293W        W99687  17.317  15.320  10.737
31294W        W99688  19.607  43.059   0.069
31295W        W99689   7.795  12.657  12.432
31296W        W99690  28.758   7.614  11.587
31297W        W99691  24.605  12.668   4.077
31298W        W99692  14.951  23.531   3.009
31299W        W99693  41.830  14.592  12.539
31300W        W99694  34.132  43.043   4.726
31301W        W99695  41.972  10.816  11.329
31302W        W99696   7.831  39.946  13.095
31303W        W99697   9.594  31.479   4.580
31304W        W99698  18.855  21.625  13.469
31305W        W99699  37.046  38.948  14.964
31306W        W99700  22.972  21.008   4.916
31307W        W99701   6.663  24.593  11.913
31308W        W99702  42.038  41.456  13.446
31309W        W99703   5.316   2.864   4.563
31310W        W99704   3.834  34.971   1.826
31311W        W99705   3.926  27.563  10.995
31312W        W99706   0.705  14.058  13.936
31313W        W99707  37.052  37.853   1.264
31314W        W99708  44.408  42.824  13.805
31315W        W99709  16.547  25.710   0.995
31316W        W99710  21.282  42.396  11.175
31317W        W99711  30.869  12.059  14.013
31318W        W99712   4.089  29.122  14.502
31319W        W99713  43.836  42.923  11.923
31320W        W99714  10.968  41.291   3.218
31321W        W99715  34.744   7.126  11.528
31322W        W99716  24.051  24.585  14.407
31323W        W99717  15.631   2.904   2.888
31324W        W99718  44.604  13.847   1.575
31325W        W99719  35.538  23.147   4.626
31326W        W99720  13.324  26.719  13.819
31327W        W99721  34.026  15.363   4.563
31328W        W99722  41.783  42.014   2.603
31329W        W99723  20.329  37.023  14.043
31330W        W99724  10.992   5.274   0.888
31331W        W99725  23.064  26.496   0.358
31332W        W99726   9.344   0.809   4.606
31333W        W99727  22.762  14.770  11.081
31334W        W99728  22.185   2.189  13.761
31335W        W99729  26.115  41.094  11.400
31336W        W99730  29.595  36.410   3.313
31337W        W99731  19.092   7.810   1.005
31338W        W99732  28.383  42.064  12.545
31339W        W99733   2.440  43.088  13.411
31340W        W99734   6.724  37.564   4.929
31341W        W99735  42.703  23.880  13.824
31342W        W99736  14.100  30.510  11.196
31343W        W99737   3.834  44.380  14.957
31344W        W99738  44.443  12.445   2.878
31345W        W99739  27.925  10.972  12.390
31346W        W99740  20.586  25.485  14.403
31347W        W99741  37.558  26.781  13.372
31348W        W99742  11.140  16.286   0.835
31349W        W99743  15.542  21.491   0.335
31350W        W99744  30.479  11.630  14.697
31351W        W99745  17.699  41.922  14.684
31352W        W99746  26.658  38.343  10.715
31353W        W99747   2.682  18.067  13.302
31354W        W99748  41.463  31.380   2.223
31355W        W99749   3.514  43.908   4.400
31356W        W99750  38.445  13.142  12.856
31357W        W99751   2.328  21.607  10.416
31358W        W99752   9.788  18.615  12.926
31359W        W99753  32.071   8.152  10.766
31360W        W99754   4.169   6.304  12.536
31361W        W99755  23.012  15.536  11.673
31362W        W99756   5.883  10.707   0.313
31363W        W99757  38.863   3.251  14.969
31364W        W99758  37.844  16.078   1.841
31365W        W99759   1.703  19.369  12.459
31366W        W99760  16.859  15.586   4.271
31367W        W99761  30.720  44.775   3.979
31368W        W99762  13.277  34.677  10.251
31369W        W99763   8.611  35.984  10.611
31370W        W99764  16.704  31.178   4.332
31371W        W99765  20.534  21.684   1.302
31372W        W99766  41.347   7.008   1.451
31373W        W99767  31.426  19.510   1.677
31374W        W99768  30.465   3.412   2.757
31375W        W99769  23.522  15.823  12.299
31376W        W99770  23.910   6.154  11.113
31377W        W99771  43.421  23.447  12.582
31378W        W99772  42.261  27.221   0.434
31379W        W99773  21.063  18.112  12.497
31380W        W99774   1.745   0.941   1.324
31381W        W99775  10.109  40.387   5.104
31382W        W99776   1.938  42.743  14.930
31383W        W99777  32.235  24.162   4.922
31384W        W99778  43.996  44.167   1.922
31385W        W99779  14.272  42.449   3.632
31386W        W99780  24.729  30.420  11.348
31387W        W99781   3.908  14.305   3.027
31388W        W99782  44.410  28.724   0.381
31389W        W99783   5.737   1.078   1.114
31390W        W99784  41.271  10.920   4.120
31391W        W99785   6.194   8.128   3.866
31392W        W99786  24.695   9.730   1.662
31393W        W99787  10.165  11.633  12.496
31394W        W99788  31.232   4.083   3.951
31395W        W99789  39.866   0.980  12.672
31396W        W99790  14.041   9.416   3.648
31397W        W99791   6.207   5.261   1.113
31398W        W99792   6.388  44.427  13.966
31399W        W99793  22.761  39.479  10.569
31400W        W99794  27.083  30.401   1.278
31401W        W99795  22.722  23.086   0.258
31402W        W99796  34.420  23.710   0.244
31403W        W99797  24.408  26.527   3.308
31404W        W99798  20.948  22.606  11.424
31405W        W99799  40.707  36.543   0.221
31406W        W99800   1.510   4.113   1.444
31407W        W99801  30.191  21.500  13.007
31408W        W99802  13.281  18.009   3.283
31409W        W99803  18.074  23.764  11.966
31410W        W99804   3.098  16.685   3.316
31411W        W99805   4.329  10.275  12.903
31412W        W99806  11.594  28.026  11.037
31413W        W99807  11.834  34.433  13.832
31414W        W99808  43.369  34.630   2.849
31415W        W99809  40.331  23.711   0.531
31416W        W99810  12.743  33.917   1.750
31417W        W99811  11.722  12.358  10.575
31418W        W99812   5.274  12.061   2.796
31419W        W99813  10.344  41.298  13.931
31420W        W99814  33.929   9.984  11.081
31421W        W99815   1.462  40.884   4.086
31422W        W99816  20.176   3.801  13.932
31423W        W99817  11.737  29.251  11.522
31424W        W99818  13.568  26.007   4.766
31425W        W99819  20.225  36.541  12.355
31426W        W99820  11.468  40.549   0.464
31427W        W99821   3.283  24.249  14.200
31428W        W99822  39.827  17.116  13.094
31429W        W99823  33.614  25.531  12.191
31430W        W99824  11.737   8.481   2.794
31431W        W99825   9.810   3.698   1.752
31432W        W99826  39.519  34.054   3.968
31433W        W99827   0.942  32.648   4.804
31434W        W99828   2.674  39.658  13.944
31435W        W99829  38.542   6.394   2.170
31436W        W99830  36.398  28.881  11.937
31437W        W99831  31.378  11.671  13.167
31438W        W99832  43.222  30.610  14.508
31439W        W99833  12.148  15.327  10.374
31440W        W99834  43.520   9.645  14.821
31441W        W99835  38.571  40.467   0.722
31442W        W99836  20.565  20.773   2.285
31443W        W99837  15.503  40.811  13.438
31444W        W99838  23.410  17.498  13.858
31445W        W99839  41.816  27.271  13.151
31446W        W99840  23.003   8.939   3.722
31447W        W99841  42.098  29.989  12.571
31448W        W99842   3.413   1.826  12.083
31449W        W99843  31.705   3.849   1.963
31450W        W99844  21.795  33.912  12.829
31451W        W99845  14.935   5.219  13.325
31452W        W99846   9.732  16.866   1.422
31453W        W99847   0.350  29.420   1.824
31454W        W99848  32.800  12.848   1.750
31455W        W99849  40.520  32.390  12.086
31456W        W99850  33.488  38.030  12.523
31457W        W99851  33.506  43.583  10.931
31458W        W99852  43.253  29.114   2.192
31459W        W99853  18.712   3.554  12.231
31460W        W99854  19.858  18.639  10.808
31461W        W99855   4.739  34.127  11.657
31462W        W99856  11.813  43.010  10.711
31463W        W99857  23.710  25.561  12.545
31464W        W99858  16.177  22.246  12.348
31465W        W99859  26.109  19.777   3.658
31466W        W99860  12.342  39.413  13.549
31467W        W99861  13.801  10.331   1.313
31468W        W99862   6.910  19.175   0.926
31469W        W99863  10.930  16.002  12.525
31470W        W99864   5.132   9.342  13.851
31471W        W99865  30.557  31.112   5.096
31472W        W99866  42.770  40.047  12.056
31473W        W99867  20.192  10.359   2.383
31474W        W99868  33.611   0.381  11.398
31475W        W99869  28.411  39.646   1.604
31476W        W99870  18.272  42.788  11.526
31477W        W99871   3.022  39.382  11.366
31478W        W99872  20.763   2.063   2.297
31479W        W99873  38.982  28.140   3.707
31480W        W99874  39.893  33.549  14.486
31481W        W99875  34.376  20.589  12.586
31482W        W99876   4.110  17.103   4.102
31483W        W99877  27.149  17.520  11.008
31484W        W99878  20.385  33.636  10.264
31485W        W99879  35.043  43.895  11.219
31486W        W99880   8.920   9.396  11.186
31487W        W99881  19.579  12.598   0.317
31488W        W99882  19.591  26.675  12.572
31489W        W99883   9.734  22.426  12.283
31490W        W99884   6.791  37.991  11.418
31491W        W99885  11.367  36.830   0.397
31492W        W99886   5.229  42.445   1.949
31493W        W99887   2.320  40.982  13.769
31494W        W99888  17.517  39.854   0.231
31495W        W99889  42.393  36.814  13.048
31496W        W99890  41.038  16.641  11.128
31497W        W99891  23.753  12.743   1.337
31498W        W99892  33.273   4.905   1.196
31499W        W99893   4.612  13.133   0.359
31500W        W99894  32.206  41.904   1.425
31501W        W99895  37.559  35.105   4.102
31502W        W99896  33.374  19.071  12.990
31503W        W99897  33.007  13.243  11.926
31504W        W99898   6.267  23.269  12.135
31505W        W99899  26.971  38.471   4.461
31506W        W99900  25.234   0.922   1.402
31507W        W99901  26.993  18.177   1.866
31508W        W99902   1.456  21.797   2.235
31509W        W99903  33.259  20.804   3.613
31510W        W99904  30.456  16.980  13.524
31511W        W99905   9.914  31.526  13.119
31512W        W99906  18.852  19.086  12.610
31513W        W99907  32.942  17.589   2.185
31514W        W99908  16.133  31.858   3.247
31515W        W99909  34.017  25.713  14.067
31516W        W99910  12.926  22.871   4.711
31517W        W99911  12.071  44.985  11.936
31518W        W99912  44.901  34.930  14.889
31519W        W99913  12.580  21.842   2.631
31520W        W99914  27.219  44.789   4.105
31521W        W99915   5.205  17.105  14.747
31522W        W99916  15.079  27.217  14.770
31523W        W99917  22.004  30.716   4.214
31524W        W99918  29.127  13.395  10.615
31525W        W99919  41.137  44.901   2.663
31526W        W99920  11.668   9.676  11.084
31527W        W99921  24.724  23.642  14.119
31528W        W99922  19.203  24.117  10.570
31529W        W99923  24.118  11.923   5.102
31530W        W99924  42.190   0.720  12.690
31531W        W99925   4.868  25.205  13.354
31532W        W99926  18.080  35.570  11.967
31533W        W99927  25.458  18.281  12.387
31534W        W99928  31.982  17.680   0.004
31535W        W99929  12.517  33.340   1.310
31536W        W99930  37.066   9.662   3.803
31537W        W99931  32.126  10.638  14.840
31538W        W99932  11.786  38.457  10.762
31539W        W99933  35.127  33.024   0.475
31540W        W99934   7.232   2.186  13.958
31541W        W99935  29.508  31.128  11.991
31542W        W99936   7.253  21.620  12.812
31543W        W99937  23.486  26.590  10.285
31544W        W99938  26.469  25.269   4.983
31545W        W99939  27.000  39.833   2.875
31546W        W99940  27.073  31.019  14.055
31547W        W99941  32.584   3.623   1.951
31548W        W99942  31.097   0.496   4.957
31549W        W99943  41.422  39.747   2.847
31550W        W99944  19.625  29.010  14.323
31551W        W99945  41.046  39.962  13.500
31552W        W99946   8.860   5.396  14.513
31553W        W99947   4.298  28.431   4.116
31554W        W99948   5.964  24.845   2.872
31555W        W99949  17.787   3.291   2.382
31556W        W99950  40.287  44.811  12.870
31557W        W99951  44.141   2.287   4.016
31558W        W99952  34.586  23.429  11.171
31559W        W99953   4.426  38.724   4.510
31560W        W99954  42.574  21.579   1.237
31561W        W99955  13.880   7.459  10.196
31562W        W99956  20.275  37.140   2.279
31563W        W99957  43.751  26.824  14.340
31564W        W99958  19.761  22.483   4.208
31565W        W99959  40.349   2.759  10.727
31566W        W99960  20.351  32.893   4.194
31567W        W99961  19.678  14.830  11.857
31568W        W99962  21.705  26.775   4.111
31569W        W99963  18.161  11.054  12.354
31570W        W99964  34.001  40.410  12.032
31571W        W99965  37.249  25.603   2.781
31572W        W99966  10.740  14.792   2.211
31573W        W99967  20.361  18.972  14.487
31574W        W99968   3.669  15.171   2.627
31575W        W99969  38.410   4.327   0.044
31576W        W99970   4.253  13.868  12.094
31577W        W99971  28.922  37.123  12.083
31578W        W99972   3.142   0.996   1.284
31579W        W99973  23.742  26.627   0.082
31580W        W99974  39.525  31.749   4.009
31581W        W99975  20.561  26.206  13.811
31582W        W99976  39.389  32.616   0.834
31583W        W99977  11.802   2.452   2.173
31584W        W99978   8.196  44.797  13.582
31585W        W99979  19.490  22.139  13.841
31586W        W99980  36.416  40.344  10.734
31587W        W99981  41.238   0.412  10.760
31588W        W99982  38.062  22.232  11.277
31589W        W99983   2.678  28.587   2.338
31590W        W99984  42.501  30.942   1.664
31591W        W99985  16.717  33.210  11.253
31592W        W99986  14.423  29.440  13.088
31593W        W99987  19.616  23.203   0.517
31594W        W99988   0.403   6.089   2.392
31595W        W99989   8.828  21.685  12.824
31596W        W99990  21.779   5.361   0.007
31597W        W99991  27.175   7.180   2.548
31598W        W99992  20.515  20.243   1.524
31599W        W99993  15.785  27.454  10.716
31600W        W99994   8.934  24.180  14.698
31601W        W99995   9.432  26.457   0.039
31602W        W99996  34.116  23.044   0.906
31603W        W99997  14.106  12.673  13.091
31604W        W99998   7.803  11.560   1.408
31605W        W99999   4.224  37.049  11.646
31606W        W    0  12.355  39.084  11.955
31607W        W    1   1.322  19.693   4.031
31608W        W    2   9.077   1.432   0.767
31609W        W    3  42.393  30.123  12.973
31610W        W    4  31.647  40.454   2.688
31611W        W    5  16.565  29.410  14.074
31612W        W    6  14.699  30.760  13.466
31613W        W    7  17.535  14.769  13.661
31614W        W    8  41.380   4.533   4.553
31615W        W    9  10.926  29.225   4.098
31616W        W   10  18.351  44.786  14.489
31617W        W   11  26.651  43.483   0.849
31618W        W   12  42.916  41.309   1.470
31619W        W   13  35.225  35.925   9.816
31620W        W   14  13.099  17.068  13.768
31621W        W   15  27.417  36.329  12.535
31622W        W   16  17.733  25.362   4.115
31623W        W   17  39.748  39.364  14.508
31624W        W   18  13.748   7.141   1.927
31625W        W   19  19.269  43.314   1.415
31626W        W   20  41.914  27.527   3.801
31627W        W   21  30.015  11.015   0.975
31628W        W   22   6.157  32.945  10.531
31629W        W   23   0.784   4.996   1.902
31630W        W   24  22.082  33.182  12.194
31631W        W   25  31.348   0.174  11.048
31632W        W   26  18.183   2.892   0.707
31633W        W   27  40.794  38.365  13.402
31634W        W   28  29.459  26.463   0.971
31635W        W   29  30.617  23.526  11.124
31636W        W   30  29.089   3.359   2.858
31637W        W   31  15.015   7.873  13.469
31638W        W   32   1.333   5.362  13.902
31639W        W   33  22.490  41.592   3.683
31640W        W   34  12.006  17.602   3.329
31641W        W   35  30.812  20.340  10.983
31642W        W   36  23.740   5.360  11.553
31643W        W   37  17.555  41.052  13.367
31644W        W   38  30.062  28.087  11.307
31645W        W   39  44.716  42.422   0.273
31646W        W   40  14.793  15.421   4.177
31647W        W   41   9.213  12.386   3.333
31648W        W   42  43.873  14.224   4.710
31649W        W   43  24.681  17.587  13.412
31650W        W   44  27.526   6.132  14.716
31651W        W   45   8.650  14.599  12.001
31652W        W   46  41.686  16.339   1.870
31653W        W   47   9.046  13.778  13.267
31654W        W   48   6.656  33.419   1.251
31655W        W   49   7.663  17.919  14.056
31656W        W   50  19.723  24.073  10.613
31657W        W   51  31.125  13.564   1.889
31658W        W   52  13.203  29.557   4.643
31659W        W   53  17.734   2.220  10.899
31660W        W   54   7.193  15.883  14.869
31661W        W   55  26.664  10.322  10.968
31662W        W   56  16.357  13.613  14.929
31663W        W   57  37.583   1.408  11.608
31664W        W   58  25.546  26.709  10.331
31665W        W   59  14.431  30.568  10.769
31666W        W   60  28.964  39.916   0.930
31667W        W   61  43.314  41.186  11.111
31668W        W   62  23.068  40.097   2.840
31669W        W   63   9.873   7.669  13.458
31670W        W   64  17.566  36.792   2.667
31671W        W   65   0.769  32.662   1.724
31672W        W   66  15.118   5.182   2.090
31673W        W   67  34.827   7.157   2.721
31674W        W   68  33.475  37.341  11.824
31675W        W   69  30.176  29.289   3.587
31676W        W   70   3.776  26.747  14.311
31677W        W   71  31.522   2.499   2.244
31678W        W   72  11.107  13.202  12.104
31679W        W   73  31.733  29.074   2.680
31680W        W   74  11.676  32.243   4.588
31681W        W   75  29.167  35.986   4.756
31682W        W   76  28.935  24.752  12.897
31683W        W   77  33.197  26.072  14.040
31684W        W   78  39.826   7.203  14.060
31685W        W   79  14.661  27.166   3.858
31686W        W   80  39.970  21.732   1.743
31687W        W   81   7.863   0.909   3.281
31688W        W   82   2.736   5.804   4.296
31689W        W   83  24.264  22.707  12.995
31690W        W   84   2.205   7.847   1.738
31691W        W   85  42.902   8.243  14.040
31692W        W   86   9.872  32.574   3.325
31693W        W   87  19.780  11.498  10.686
31694W        W   88   7.214  10.958  12.500
31695W        W   89  22.727   2.728   3.298
31696W        W   90  15.520  37.584   2.477
31697W        W   91   4.258  28.851  13.048
31698W        W   92  39.305  39.348   1.274
31699W        W   93  21.652  11.322   1.691
31700W        W   94  13.586  20.142   3.159
31701W        W   95  18.379  43.876  12.071
31702W        W   96  23.076  14.434  12.964
31703W        W   97  20.571  19.119   2.631
31704W        W   98  44.871  15.569   1.886
31705W        W   99   6.705   1.792   4.066
31706W        W  100  14.234   2.793   2.704
31707W        W  101  37.910  26.027   4.225
31708W        W  102  17.993  23.099  14.851
31709W        W  103  42.056   8.116  12.868
31710W        W  104  34.168  42.002  12.477
31711W        W  105   7.247   1.011  11.518
31712W        W  106  11.057  14.880  10.492
31713W        W  107  21.421  38.988  10.737
31714W        W  108  10.692  38.943   4.654
31715W        W  109  15.638  44.003   4.432
31716W        W  110  37.281  15.224   2.729
31717W        W  111  18.531  35.339  12.176
31718W        W  112  38.654  16.371   5.025
31719W        W  113  24.613  14.647   3.767
31720W        W  114  33.564   6.252  13.521
31721W        W  115  25.184  42.850  11.186
31722W        W  116  36.827  14.119   0.313
31723W        W  117  34.445  20.739   1.415
31724W        W  118  41.592  44.677   2.344
31725W        W  119  43.176  44.318  14.297
31726W        W  120  44.806  10.216   0.854
31727W        W  121  19.620  12.819   0.801
31728W        W  122  23.621   6.719  12.189
31729W        W  123  12.074  10.609  14.383
31730W        W  124  38.689  38.457   0.517
31731W        W  125   3.419   1.412   0.468
31732W        W  126  12.086  23.006  10.627
31733W        W  127  17.746  27.980   0.498
31734W        W  128   5.329  24.079   2.551
31735W        W  129  18.178  13.167   3.925
31736W        W  130  31.829  18.741  14.304
31737W        W  131  12.164   4.853   0.620
31738W        W  132  17.246  15.745   0.595
31739W        W  133  10.725  20.296   3.230
31740W        W  134  36.561  41.401   0.425
31741W        W  135  21.695   2.997  10.658
31742W        W  136  11.125  21.286  12.511
31743W        W  137   4.387  37.155  12.587
31744W        W  138  38.588  29.459   2.294
31745W        W  139  25.282  39.517  11.388
31746W        W  140  42.378  30.394  13.418
31747W        W  141  26.809  33.670  12.086
31748W        W  142  38.775  22.512  14.045
31749W        W  143  41.191   1.520  13.954
31750W        W  144  34.473  40.374   0.977
31751W        W  145   0.287  29.008   4.620
31752W        W  146  31.959  13.487  12.024
31753W        W  147  14.653  26.584   2.387
31754W        W  148  15.086  32.006  13.015
31755W        W  149  37.797  10.144   1.052
31756W        W  150  11.776  32.155  11.514
31757W        W  151  23.171   7.680   0.054
31758W        W  152  43.711  36.879   1.849
31759W        W  153  29.455  41.808   1.789
31760W        W  154  38.339  43.875  14.575
31761W        W  155   7.682   3.254   4.592
31762W        W  156   1.022  34.898   4.873
31763W        W  157  21.236  43.032   5.169
31764W        W  158  41.905  39.087   2.523
31765W        W  159  30.302  34.564  11.665
31766W        W  160  34.877   7.269   4.653
31767W        W  161  19.136  25.636   5.383
31768W        W  162  10.494  23.612   1.315
31769W        W  163  44.269  41.710  12.682
31770W        W  164   3.388  35.387   3.681
31771W        W  165  21.466   3.569   9.940
31772W        W  166   2.441  14.661  14.541
31773W        W  167  44.204  35.744  14.830
31774W        W  168   3.780   1.282   4.675
31775W        W  169  18.109  19.091   1.222
31776W        W  170  30.962   0.945  13.387
31777W        W  171  30.650  20.117  14.998
31778W        W  172  33.082  23.528   3.967
31779W        W  173  38.425  10.453  11.372
31780W        W  174  14.025  29.696  14.498
31781W        W  175   7.417  33.833  12.414
31782W        W  176   3.180  37.069   3.104
31783W        W  177  22.287  17.718  12.911
31784W        W  178  12.662  41.635  14.889
31785W        W  179  39.039  13.226  12.495
31786W        W  180  34.587  19.783   2.837
31787W        W  181   8.665  41.177   4.367
31788W        W  182  27.541   7.343  12.643
31789W        W  183  14.118  19.803  11.968
31790W        W  184  36.573  11.731  14.851
31791W        W  185  44.992  40.792   2.242
31792W        W  186  26.110   1.014  13.781
31793W        W  187  19.050  39.608   3.423
31794W        W  188  13.377  33.837   3.185
31795W        W  189  36.044  44.983   0.584
31796W        W  190  38.484  19.520   3.797
31797W        W  191   3.964  41.883   0.970
31798W        W  192  24.427  10.204  11.569
31799W        W  193   4.200  22.524  11.196
31800W        W  194  25.679  21.127   4.104
31801W        W  195  15.034  29.457  10.820
31802W        W  196  19.058   8.778   4.514
31803W        W  197  27.932   5.943   1.873
31804W        W  198  23.081  31.061   1.748
31805W        W  199  30.428  27.119  11.496
31806W        W  200  23.975   1.860  13.590
31807W        W  201  39.535   9.679   4.513
31808W        W  202   0.824  30.692  14.109
31809W        W  203   8.845  14.542  14.847
31810W        W  204   2.666  35.444  14.917
31811W        W  205  11.573  42.892   3.781
31812W        W  206  14.069   8.219  11.294
31813W        W  207   4.169  33.070   2.365
31814W        W  208   9.801   1.008   0.867
31815W        W  209  11.790  21.005   4.182
31816W        W  210  17.522  28.086   3.284
31817W        W  211  17.124  39.527   3.341
31818W        W  212  24.594  35.065   2.849
31819W        W  213  34.936  24.067   2.262
31820W        W  214   2.412  23.181   4.054
31821W        W  215  41.274  44.354  10.979
31822W        W  216  24.585  39.465  14.711
31823W        W  217  39.068  10.945  12.822
31824W        W  218  30.737   3.397   2.323
31825W        W  219  42.812  35.776   2.393
31826W        W  220  27.245   9.264   9.695
31827W        W  221   9.777  20.551   0.656
31828W        W  222  44.608  38.954   1.727
31829W        W  223  25.080  43.753   4.152
31830W        W  224  10.894   8.471  12.066
31831W        W  225   3.227  20.569  14.905
31832W        W  226   2.606  38.277   3.141
31833W        W  227  30.522   2.352  14.817
31834W        W  228  28.204   1.215   3.216
31835W        W  229  20.993  31.463   2.682
31836W        W  230  25.749  15.981   3.971
31837W        W  231  25.049  44.334  14.466
31838W        W  232  43.292   6.477  12.007
31839W        W  233   8.944  23.459   1.257
31840W        W  234  10.884  13.620   2.954
31841W        W  235   6.696  14.493  11.954
31842W        W  236  28.005  23.006  11.641
31843W        W  237  31.656  14.959   4.016
31844W        W  238   4.740  39.415  10.734
31845W        W  239   8.912   2.408   4.656
31846W        W  240   4.736   1.645   2.316
31847W        W  241  16.080  12.627  12.061
31848W        W  242  13.927  30.178   3.847
31849W        W  243  38.277  11.781  12.025
31850W        W  244  29.019  39.101   4.257
31851W        W  245  41.887  19.085   3.209
31852W        W  246  16.544  34.525   2.381
31853W        W  247  37.158  25.517  13.612
31854W        W  248  39.005  37.974   1.306
31855W        W  249  19.185  20.402  10.325
31856W        W  250  44.315  32.689  11.624
31857W        W  251  25.640  21.757   2.898
31858W        W  252  35.920  42.229   0.880
31859W        W  253  20.974   2.729  12.573
31860W        W  254  31.153  44.525  13.832
31861W        W  255   2.440  22.019   2.299
31862W        W  256  42.355  13.352   4.482
31863W        W  257  10.700  12.730  10.863
31864W        W  258  32.869  28.743   1.307
31865W        W  259  19.597  42.903  14.113
31866W        W  260  30.917  33.103  14.586
31867W        W  261  12.428  27.116  13.995
31868W        W  262   6.121  13.221   4.568
31869W        W  263  44.743  12.522  14.225
31870W        W  264  11.302  18.533  11.686
31871W        W  265  34.464   1.859   0.864
31872W        W  266  33.397  37.656  11.370
31873W        W  267  11.832  33.327   2.660
31874W        W  268   2.425  34.971  14.957
31875W        W  269  17.486  21.337  13.551
31876W        W  270   7.760  19.946  11.186
31877W        W  271  16.552  36.519   0.431
31878W        W  272   6.334   7.579   4.099
31879W        W  273  40.473  26.001   0.792
31880W        W  274   1.980  12.777  11.550
31881W        W  275  12.852  25.732   2.363
31882W        W  276   9.859  30.540  10.652
31883W        W  277   9.098   4.637  11.409
31884W        W  278   9.325  27.108  12.554
31885W        W  279   0.254  38.066  13.294
31886W        W  280  24.382  41.375  13.846
31887W        W  281  29.398  32.845   0.377
31888W        W  282   1.961  32.055   2.608
31889W        W  283  33.987  25.083   1.197
31890W        W  284  22.002  31.021  14.363
31891W        W  285  35.338   2.657  11.147
31892W        W  286  38.897  31.437  14.322
31893W        W  287  33.451  41.800  12.978
31894W        W  288  19.308  21.503  12.475
31895W        W  289   2.929   3.295  13.455
31896W        W  290   3.775  38.571  10.742
31897W        W  291  23.985   6.713  13.474
31898W        W  292  22.315  15.330  12.147
31899W        W  293   8.380  40.280  10.589
31900W        W  294  35.344  10.130   2.882
31901W        W  295   9.380  31.560  12.468
31902W        W  296   6.692   5.211   0.339
31903W        W  297  24.523   0.726   3.227
31904W        W  298  35.484  34.120   0.533
31905W        W  299  31.704  13.155   4.164
31906W        W  300  40.261  38.095   2.758
31907W        W  301  24.565  17.177  13.095
31908W        W  302  12.143   4.274  13.886
31909W        W  303  24.936  33.455   5.112
31910W        W  304  34.874  20.071  10.722
31911W        W  305  20.565   2.887  11.578
31912W        W  306  42.854  13.304  14.087
31913W        W  307  27.055  10.607   1.733
31914W        W  308  17.652  13.890  10.785
31915W        W  309  27.910  17.603  12.577
31916W        W  310   6.055  30.563  11.238
31917W        W  311  33.022  25.199   4.388
31918W        W  312  28.023  43.920  14.758
31919W        W  313  33.112  38.860  14.382
31920W        W  314  38.089   5.866  11.962
31921W        W  315  35.446  10.423  14.719
31922W        W  316  11.782  22.038   0.934
31923W        W  317   1.782  27.970   4.695
31924W        W  318  13.818  29.679   3.773
31925W        W  319  39.052  27.632  13.821
31926W        W  320  19.377  11.762   4.994
31927W        W  321  15.895  22.501   3.289
31928W        W  322  20.227   0.483  12.882
31929W        W  323  19.251  30.582  11.057
31930W        W  324  27.521  34.195  14.688
31931W        W  325  14.340  25.265  11.225
31932W        W  326  41.398  44.303   1.933
31933W        W  327   4.129  27.115  12.376
31934W        W  328   5.046  35.605  13.565
31935W        W  329  19.385  38.804   1.403
31936W        W  330  12.121   0.267  12.539
31937W        W  331  24.016  27.609   0.905
31938W        W  332  33.560  31.396  12.172
31939W        W  333  10.288  11.961  14.330
31940W        W  334  44.006  39.171   4.417
31941W        W  335  17.339   0.035  12.715
31942W        W  336  40.698  13.986   0.792
31943W        W  337  31.886  34.961   0.914
31944W        W  338  17.644  15.511   9.879
31945W        W  339  22.092  32.186  12.554
31946W        W  340  27.029   5.985  11.537
31947W        W  341  28.482   2.287  14.053
31948W        W  342  25.719   0.638   1.933
31949W        W  343  38.317   4.266   4.681
31950W        W  344   5.733   1.308  13.812
31951W        W  345  26.799  41.452   2.827
31952W        W  346  43.916  43.018   3.255
31953W        W  347  12.133  35.909  12.407
31954W        W  348   9.591   0.875  14.394
31955W        W  349  31.409  34.066  14.911
31956W        W  350  19.253  19.854   4.687
31957W        W  351  15.558  35.563  13.492
31958W        W  352   1.788   3.815   2.753
31959W        W  353  20.270   6.953  14.418
31960W        W  354  27.201  11.587  10.603
31961W        W  355  41.027  26.771   1.785
31962W        W  356  34.807  24.042   0.034
31963W        W  357  34.391  40.877   0.165
31964W        W  358  20.325  20.929  12.996
31965W        W  359  44.814   7.363   2.657
31966W        W  360  28.489  24.982   3.264
31967W        W  361  15.710  33.591  12.056
31968W        W  362  19.246   6.139  13.112
31969W        W  363  30.155  12.617   4.282
31970W        W  364  23.528  25.262  13.492
31971W        W  365  21.442  24.093  14.076
31972W        W  366  33.485   9.600   0.328
31973W        W  367   4.786  32.643  13.989
31974W        W  368  33.105  38.892  11.240
31975W        W  369  30.098  33.196  11.684
31976W        W  370  31.107   1.520   2.151
31977W        W  371   0.289  33.352   0.748
31978W        W  372  15.684  34.997   3.035
31979W        W  373  27.991   4.273  11.165
31980W        W  374  22.256  41.023   2.705
31981W        W  375  17.212  17.559   2.707
31982W        W  376  20.654   1.515   2.321
31983W        W  377   0.975  33.402  14.832
31984W        W  378  44.866  35.137  12.034
31985W        W  379  44.566  26.099  13.907
31986W        W  380  14.086   5.703  14.555
31987W        W  381  37.466   7.755   2.773
31988W        W  382  37.847  16.536  11.117
31989W        W  383   3.172  41.422  12.292
31990W        W  384  19.451  18.951  11.703
31991W        W  385  39.386  11.902  11.253
31992W        W  386  18.279  26.102  11.539
31993W        W  387  37.361   9.406  14.367
31994W        W  388  17.766  17.129   1.426
31995W        W  389   0.868  20.750  13.346
31996W        W  390  11.804  16.085  10.616
31997W        W  391  44.101  14.003  13.402
31998W        W  392  38.258  33.127   0.826
31999W        W  393  15.272  14.144   2.536
32000W        W  394  30.757  39.901   4.273
32001W        W  395  33.654   2.647   0.881
32002W        W  396  11.428  14.101   0.047
32003W        W  397   0.452  24.677   1.305
32004W        W  398  37.132  32.583  10.663
32005W        W  399  29.982  10.283  10.319
32006W        W  400  42.952  31.920  14.466
32007W        W  401  44.251  13.388   3.776
32008W        W  402   9.088  41.630  11.069
32009W        W  403  29.882  17.644  12.310
32010W        W  404  16.578  25.307  12.052
32011W        W  405  28.194  20.535   4.316
32012W        W  406  38.789  10.459  10.545
32013W        W  407   0.295  21.078  12.578
32014W        W  408  30.485  17.773   2.257
32015W        W  409  19.943  22.667   4.653
32016W        W  410  22.298  32.923   2.141
32017W        W  411  31.274  32.442   3.273
32018W        W  412  14.107  17.982  11.619
32019W        W  413  24.599  28.407  14.790
32020W        W  414  33.725  44.467  11.158
32021W        W  415  19.693  30.809   4.977
32022W        W  416  19.152  41.781   3.590
32023W        W  417  37.465  28.985   1.197
32024W        W  418  43.347  40.057   3.697
32025W        W  419   6.642   7.830   3.742
32026W        W  420  10.836  31.654   2.219
32027W        W  421  13.730  39.962  14.083
32028W        W  422  14.546  41.410  14.973
32029W        W  423  29.600  13.221   3.450
32030W        W  424  24.728  35.484   2.218
32031W        W  425   5.708  27.093  11.587
32032W        W  426  33.431  23.740   1.427
32033W        W  427  12.627  30.045   1.334
32034W        W  428  34.160  36.847  11.672
32035W        W  429  42.876  43.501   1.451
32036W        W  430  22.666  37.060   0.316
32037W        W  431  19.756  16.168  10.996
32038W        W  432  12.703  41.105  14.994
32039W        W  433  44.987  19.356   0.438
32040W        W  434  41.979  28.282   3.756
32041W        W  435  35.698  15.232  12.570
32042W        W  436  30.877  37.930   3.100
32043W        W  437  37.066  32.877   0.334
32044W        W  438  39.883   5.242   0.247
32045W        W  439   4.467  42.786  12.613
32046W        W  440  25.389  19.573  11.285
32047W        W  441  20.139   3.934   3.312
32048W        W  442  19.025  35.183   2.594
32049W        W  443  30.144  15.087  12.031
32050W        W  444   6.167  16.993   1.199
32051W        W  445   8.898  28.036   2.038
32052W        W  446  12.654   9.936   0.779
32053W        W  447  28.589  17.888  14.436
32054W        W  448  12.539   3.392   1.637
32055W        W  449  41.121  14.947   3.237
32056W        W  450  16.601  31.649   3.224
32057W        W  451  31.900   8.275   4.199
32058W        W  452  25.562  12.972   2.091
32059W        W  453  15.360  21.759  11.989
32060W        W  454   5.025  24.071  12.442
32061W        W  455  40.985  43.897   3.413
32062W        W  456  28.022  34.931   1.501
32063W        W  457  33.008  14.041   4.644
32064W        W  458   9.147   4.650   0.256
32065W        W  459  21.727  16.222   4.045
32066W        W  460  12.108  30.341  10.972
32067W        W  461  24.263  28.662   3.762
32068W        W  462  21.309   7.713   1.262
32069W        W  463  22.614   8.929   1.460
32070W        W  464  13.302  37.483  10.223
32071W        W  465  30.705   6.984  11.067
32072W        W  466  41.348  39.667  12.560
32073W        W  467  13.022  27.657  12.955
32074W        W  468  37.586  25.081   0.300
32075W        W  469  24.255  22.261  14.287
32076W        W  470  33.350  35.360   1.422
32077W        W  471  34.481  24.640  11.742
32078W        W  472  20.525  13.280   3.347
32079W        W  473  38.305   1.253  13.620
32080W        W  474  43.844   0.748  12.956
32081W        W  475  39.992  21.769   0.145
32082W        W  476  23.508  35.356  14.883
32083W        W  477  11.660   4.255  12.982
32084W        W  478  26.862  44.768   4.473
32085W        W  479  33.684  42.418   2.853
32086W        W  480  44.703  15.456   2.848
32087W        W  481   7.380   3.019   2.776
32088W        W  482  29.241  37.926  11.035
32089W        W  483  31.870  29.545   2.126
32090W        W  484  32.123  16.036   4.583
32091W        W  485  13.253  23.666  12.777
32092W        W  486  38.070  28.581  14.760
32093W        W  487  24.512  12.669   2.996
32094W        W  488   8.438  10.242   2.207
32095W        W  489  41.002  14.766   2.053
32096W        W  490  13.261  31.678   3.774
32097W        W  491  24.617   0.027  10.118
32098W        W  492  28.769  19.400  14.386
32099W        W  493  29.457  35.896  14.527
32100W        W  494  12.109  21.055   1.505
32101W        W  495  35.373  13.149  11.257
32102W        W  496  19.720  19.288  13.819
32103W        W  497  12.726  28.165   4.508
32104W        W  498  22.586   7.730  10.600
32105W        W  499   1.764   0.578  11.783
32106W        W  500   9.771  22.553  10.581
32107W        W  501  40.564  16.602  12.271
32108W        W  502  33.631  40.660   1.364
32109W        W  503  26.793  17.390   5.270
32110W        W  504  11.573  30.424  14.463
32111W        W  505   5.531   5.831  11.624
32112W        W  506  21.240  32.129   5.090
32113W        W  507  34.160   0.715  11.171
32114W        W  508  36.352  43.582   4.140
32115W        W  509  28.421  29.598   0.234
32116W        W  510  39.063  27.539   4.891
32117W        W  511  39.602  12.400  11.716
32118W        W  512  21.798   5.344   1.454
32119W        W  513  26.016  19.795  14.765
32120W        W  514  24.645   8.406   0.025
32121W        W  515   7.767  33.373  14.477
32122W        W  516   3.006  14.262   1.203
32123W        W  517  24.639  12.246   3.763
32124W        W  518  19.203   9.075   0.453
32125W        W  519  36.129   4.254  10.854
32126W        W  520  42.172  15.824  10.800
32127W        W  521  35.083  33.528  11.131
32128W        W  522   0.228  27.495  13.984
32129W        W  523   5.749  13.528  12.628
32130W        W  524   0.171  39.480  14.456
32131W        W  525   1.014  37.835  12.956
32132W        W  526  26.730  44.308  13.541
32133W        W  527  29.813   0.349  10.051
32134W        W  528  16.046  36.434  11.742
32135W        W  529   5.773  33.624  13.974
32136W        W  530   1.310  16.263  12.253
32137W        W  531  15.356  27.775  10.580
32138W        W  532  21.164  16.715   1.411
32139W        W  533  23.522   0.434  10.563
32140W        W  534  37.322  12.232  14.843
32141W        W  535  34.539  26.779  12.184
32142W        W  536  17.628  18.790  12.587
32143W        W  537   2.865  12.104   3.532
32144W        W  538  25.981  18.501  12.981
32145W        W  539  14.195  14.108  12.891
32146W        W  540  44.870  31.826   3.633
32147W        W  541   1.767   5.721  14.358
32148W        W  542  23.696  17.687   0.209
32149W        W  543  44.473  39.159  12.955
32150W        W  544   0.848   3.779   1.815
32151W        W  545  40.966  16.440  10.655
32152W        W  546  33.614   5.463   2.409
32153W        W  547   7.403  10.740  14.936
32154W        W  548   2.517   6.789   2.783
32155W        W  549   9.773  36.871   3.889
32156W        W  550  19.152  15.942  12.831
32157W        W  551  34.568   0.729  12.054
32158W        W  552  16.542  25.543  12.967
32159W        W  553   6.615  16.255   2.260
32160W        W  554  21.734   8.802  10.988
32161W        W  555  32.503  28.897   4.175
32162W        W  556  34.095  33.321   2.742
32163W        W  557  39.942  27.206   1.821
32164W        W  558  13.921  24.818  13.030
32165W        W  559  36.510  16.601   4.151
32166W        W  560  31.168  38.991   2.428
32167W        W  561  20.646  24.952  11.565
32168W        W  562   0.743  13.311  14.337
32169W        W  563  24.405  18.108  11.107
32170W        W  564  19.897  33.012  14.795
32171W        W  565  44.290  14.534  12.512
32172W        W  566   9.796  39.730   1.209
32173W        W  567  20.107  16.179  14.997
32174W        W  568  19.606  29.104  13.468
32175W        W  569  37.573  43.952   0.306
32176W        W  570  22.082  17.049  13.695
32177W        W  571  16.173   7.406  12.793
32178W        W  572  20.500  27.261   2.739
32179W        W  573  29.791   0.205   1.358
32180W        W  574  42.838   6.367  12.256
32181W        W  575  22.444  25.554   4.927
32182W        W  576  34.009  29.980  14.721
32183W        W  577  14.668   8.189  10.103
32184W        W  578  24.152  30.527   4.785
32185W        W  579   9.697  12.542   1.370
32186W        W  580  31.697  26.556  14.021
32187W        W  581   2.417  43.133  10.853
32188W        W  582  41.024  11.852   3.156
32189W        W  583  20.761  36.209  11.966
32190W        W  584   7.218   8.272  12.582
32191W        W  585  32.029   0.805   1.213
32192W        W  586   3.524  35.457  14.477
32193W        W  587  32.851  34.331   1.213
32194W        W  588   1.840  20.226  14.375
32195W        W  589   9.807  42.901  14.446
32196W        W  590  32.387  20.906   4.948
32197W        W  591   3.384   3.289  10.684
32198W        W  592   5.922  37.404   4.866
32199W        W  593  14.293   2.211  14.801
32200W        W  594  10.852  21.171   2.134
32201W        W  595  31.835  26.535  11.241
32202W        W  596  39.542  42.461   3.643
32203W        W  597  34.499  20.059   0.312
32204W        W  598   3.916  22.151  10.929
32205W        W  599  20.222  11.374   1.183
32206W        W  600  25.262  16.130   2.615
32207W        W  601  25.707  42.418   0.910
32208W        W  602  11.965  37.698  12.112
32209W        W  603   0.765   7.060   3.183
32210W        W  604  39.294   2.276  10.647
32211W        W  605   6.055  40.989  13.975
32212W        W  606  12.869  29.837  12.695
32213W        W  607  21.494  35.069   1.516
32214W        W  608   3.814  14.989   2.126
32215W        W  609  19.679  39.646  12.943
32216W        W  610   9.743   9.420  10.499
32217W        W  611  15.868  16.702   0.418
32218W        W  612  39.875   0.732   1.876
32219W        W  613  38.400  43.797  10.615
32220W        W  614  41.569   9.267  10.973
32221W        W  615  43.457  11.348   3.574
32222W        W  616  34.262  21.292   2.796
32223W        W  617  31.885  24.258   1.861
32224W        W  618  28.509  25.154  12.023
32225W        W  619  26.963  42.518  10.667
32226W        W  620  33.052  36.333   4.349
32227W        W  621   4.393  13.117  14.882
32228W        W  622  33.021  33.327   1.826
32229W        W  623  37.216  22.919  13.535
32230W        W  624  31.352  15.101   4.413
32231W        W  625  37.058  35.592  10.677
32232W        W  626  34.058  14.181  10.912
32233W        W  627   5.749  37.491   0.735
32234W        W  628  44.584  14.072   4.228
32235W        W  629  18.576  19.873   5.484
32236W        W  630  35.827   1.239  12.018
32237W        W  631  28.216  43.740   2.628
32238W        W  632   3.437  40.468  12.425
32239W        W  633  40.580  43.769  13.366
32240W        W  634  38.480  28.978  13.189
32241W        W  635  32.535  27.667  10.655
32242W        W  636  42.552   0.805  12.294
32243W        W  637  11.412   8.533  11.955
32244W        W  638  29.156  44.336  14.928
32245W        W  639  19.047   7.891  11.124
32246W        W  640  42.885  25.277   0.374
32247W        W  641   8.072  36.291   3.269
32248W        W  642  31.613  34.120  13.456
32249W        W  643  41.473  42.818  11.423
32250W        W  644  24.212   9.347  14.823
32251W        W  645  36.392  18.625  10.847
32252W        W  646  11.377  31.086   2.180
32253W        W  647  13.160  33.169   0.384
32254W        W  648  20.587  28.400  11.120
32255W        W  649  32.381   3.876   3.455
32256W        W  650   7.481   0.236  12.956
32257W        W  651   5.850  34.324  13.398
32258W        W  652  27.545  32.899  12.596
32259W        W  653  32.659  41.802   0.542
32260W        W  654  12.133  19.381  12.484
32261W        W  655  14.603  11.831   2.320
32262W        W  656  28.689  16.099   3.331
32263W        W  657  38.278   0.655  14.957
32264W        W  658  21.317  34.324  14.068
32265W        W  659  35.445  27.137   1.433
32266W        W  660  38.398  36.040   4.586
32267W        W  661  39.589   7.309   2.238
32268W        W  662   2.440  32.349  11.179
32269W        W  663   7.458  17.249  13.026
32270W        W  664  23.263  36.969  14.464
32271W        W  665  18.894  14.421  13.382
32272W        W  666   1.016  33.271  11.090
32273W        W  667  33.955   2.025   0.960
32274W        W  668  11.732  13.421   4.137
32275W        W  669  36.946  24.222  12.445
32276W        W  670  42.448  33.478  14.971
32277W        W  671   1.003  30.400   2.386
32278W        W  672  37.983   0.235   0.053
32279W        W  673  22.213  44.608   4.119
32280W        W  674  37.925  17.773  11.876
32281W        W  675   7.374  17.597  12.647
32282W        W  676  39.061  18.689  14.433
32283W        W  677   7.411  32.599   0.429
32284W        W  678  36.372   9.448   1.196
32285W        W  679  39.740  25.591   4.097
32286W        W  680  28.759   2.402  14.490
32287W        W  681   6.396  33.392  13.989
32288W        W  682   9.114  24.728  11.115
32289W        W  683  10.413  26.970   3.661
32290W        W  684   0.725  29.913   2.383
32291W        W  685   2.383  29.762  10.177
32292W        W  686  22.021  17.853  11.157
32293W        W  687  41.535  20.698  12.700
32294W        W  688   6.326   7.385   2.397
32295W        W  689  30.076   9.553   1.279
32296W        W  690   7.930  35.609   2.531
32297W        W  691   2.342  30.955   0.326
32298W        W  692   3.900   8.390   3.336
32299W        W  693   8.910  14.140  11.119
32300W        W  694  15.197  22.828  12.012
32301W        W  695   4.307  34.141  13.374
32302W        W  696  17.727  43.880   1.877
32303W        W  697   8.198  33.420  11.912
32304W        W  698  26.022  33.724   3.193
32305W        W  699  30.965   8.147   1.380
32306W        W  700   0.063  17.820   1.320
32307W        W  701   8.522   6.305   0.820
32308W        W  702  19.617  22.139   2.163
32309W        W  703  26.044   0.030   3.903
32310W        W  704   3.901  18.800  11.992
32311W        W  705   9.240   2.370   0.180
32312W        W  706  26.874  22.548   1.735
32313W        W  707  24.060   3.114  12.613
32314W        W  708   3.030  32.660   4.492
32315W        W  709  44.921  27.048   0.979
32316W        W  710  27.878  10.168   1.413
32317W        W  711  33.205   6.485  14.854
32318W        W  712  21.021   8.867  13.410
32319W        W  713  40.748  24.451  11.721
32320W        W  714   2.362  12.672   5.049
32321W        W  715   0.053   6.187  14.022
32322W        W  716  37.808  16.047   4.453
32323W        W  717  43.327  11.544  12.608
32324W        W  718  16.742  26.982  13.754
32325W        W  719  38.447  26.950  14.970
32326W        W  720   6.162  27.457   4.351
32327W        W  721  11.264  14.273  11.447
32328W        W  722  18.995  22.439   0.889
32329W        W  723  24.008  15.852   2.156
32330W        W  724   9.703  30.603  12.962
32331W        W  725   9.340   7.350  12.075
32332W        W  726  24.630  44.763  13.852
32333W        W  727  34.003   5.684   2.738
32334W        W  728  32.895  40.982   0.202
32335W        W  729  41.968  39.035   1.805
32336W        W  730  28.492  22.197   4.010
32337W        W  731  11.010  16.503   1.355
32338W        W  732  20.116  38.171  11.517
32339W        W  733   3.154  37.989  13.402
32340W        W  734  25.961  38.005  12.029
32341W        W  735  19.134  14.115   1.746
32342W        W  736  33.399   3.069   1.755
32343W        W  737  43.853  34.543  11.205
32344W        W  738  10.871  31.062   2.344
32345W        W  739   7.926  29.684  12.349
32346W        W  740  34.823   1.385  11.146
32347W        W  741   5.096   3.532   1.514
32348W        W  742  21.090   6.312   2.364
32349W        W  743   7.749  31.173  12.004
32350W        W  744  21.300  37.893   1.057
32351W        W  745   5.301  40.491   3.754
32352W        W  746  32.596  22.736   3.838
32353W        W  747  22.010  35.653   4.594
32354W        W  748  38.237   5.462   2.518
32355W        W  749  22.995  39.045  14.994
32356W        W  750   1.752  43.803  13.960
32357W        W  751   5.397   7.007  10.570
32358W        W  752   5.369   5.297  10.706
32359W        W  753   0.634  26.060   1.633
32360W        W  754  21.755   7.069   1.088
32361W        W  755   5.798  44.856   4.291
32362W        W  756  23.634  27.944   1.458
32363W        W  757   0.996   7.248  12.091
32364W        W  758  22.970  40.848   3.873
32365W        W  759  42.800  11.036   0.508
32366W        W  760  41.332  28.617   2.079
32367W        W  761  37.023  22.288   4.675
32368W        W  762   0.849   1.744  12.525
32369W        W  763  36.318   3.138   1.594
32370W        W  764  42.365  32.620   0.907
32371W        W  765  30.684   0.482  11.393
32372W        W  766  26.995  14.178  10.247
32373W        W  767   1.311  19.288   2.230
32374W        W  768   0.572   3.878   0.900
32375W        W  769  30.505  30.569   0.792
32376W        W  770  23.429  16.827   3.757
32377W        W  771  30.590  15.875   3.150
32378W        W  772  11.815  15.288  13.277
32379W        W  773  13.344  21.959   1.684
32380W        W  774  36.267   8.248   4.746
32381W        W  775  16.336  44.017  13.754
32382W        W  776  40.317  35.876   4.976
32383W        W  777   5.758  17.279   1.405
32384W        W  778  40.072   1.339  10.606
32385W        W  779  11.164  11.953   0.762
32386W        W  780  21.282   4.207   4.903
32387W        W  781  38.885   3.176  14.459
32388W        W  782   6.363  26.473   1.095
32389W        W  783  19.849  16.737   4.105
32390W        W  784  24.233   2.253  12.479
32391W        W  785  28.935  29.490  11.226
32392W        W  786  17.382  33.338  11.621
32393W        W  787  10.126  38.044   4.447
32394W        W  788  42.801   8.868   2.720
32395W        W  789   8.176  21.890  11.634
32396W        W  790   5.883  44.867  12.635
32397W        W  791  27.902  27.848  13.655
32398W        W  792  30.249  34.738   2.467
32399W        W  793  22.260  27.931  14.859
32400W        W  794   0.503  30.040  11.557
32401W        W  795  22.028  19.895   4.599
32402W        W  796  34.003  40.084   3.740
32403W        W  797  32.056  25.240  11.578
32404W        W  798  24.547  40.823   4.161
32405W        W  799  36.823  34.152  13.498
32406W        W  800  22.994  33.178  13.885
32407W        W  801  20.422  24.206   1.442
32408W        W  802  26.629  43.169  14.358
32409W        W  803   6.595  31.581  13.636
32410W        W  804  27.024   9.228  14.836
32411W        W  805  15.048  13.999  14.564
32412W        W  806   4.220  37.641  14.047
32413W        W  807  17.307  41.742  14.335
32414W        W  808  10.673  44.799   2.126
32415W        W  809   9.510  39.217   1.023
32416W        W  810  14.037   5.757   4.061
32417W        W  811   4.888  39.171  11.176
32418W        W  812  36.916  17.803  13.346
32419W        W  813  28.067  21.254   1.543
32420W        W  814  32.484  42.838   2.170
32421W        W  815   1.720  39.397   4.050
32422W        W  816  27.133  27.460   3.648
32423W        W  817  28.972  26.655  12.010
32424W        W  818  14.137   1.922  10.923
32425W        W  819  34.647  42.968  11.874
32426W        W  820  38.839  23.956  14.129
32427W        W  821  17.060  25.580  12.975
32428W        W  822  12.610   3.715  14.387
32429W        W  823  18.496  23.422   1.491
32430W        W  824  16.407  27.031  13.346
32431W        W  825  40.785  38.406  14.822
32432W        W  826  14.879  43.386  12.530
32433W        W  827  39.386  28.921  14.794
32434W        W  828   7.359  32.683  14.005
32435W        W  829  11.626   6.946   2.897
32436W        W  830  39.570  37.820  14.086
32437W        W  831  41.062  15.555   1.591
32438W        W  832   3.317   6.249  13.894
32439W        W  833  34.949  15.791   5.115
32440W        W  834  26.706  17.350   3.911
32441W        W  835  20.478  41.047  12.435
32442W        W  836   4.228  31.060   1.881
32443W        W  837   2.972   6.065   0.488
32444W        W  838  32.470   3.202   2.236
32445W        W  839   0.004  42.168  11.555
32446W        W  840  35.933   9.262  14.963
32447W        W  841   0.287   5.549   4.190
32448W        W  842  17.656  17.630   3.947
32449W        W  843   0.303  40.373  12.143
32450W        W  844  17.701  29.449  13.311
32451W        W  845  41.075  33.114   0.319
32452W        W  846  43.795  27.290  14.532
32453W        W  847  17.526  39.281   3.125
32454W        W  848  10.685  22.529  12.445
32455W        W  849  32.641  36.052  11.486
32456W        W  850   9.653  20.191  11.104
32457W        W  851  21.484  43.971   3.408
32458W        W  852  34.212  34.114  13.598
32459W        W  853  19.471  24.554  10.684
32460W        W  854  15.156  44.382  11.537
32461W        W  855   1.061  43.379  14.951
32462W        W  856  16.697  38.922  12.471
32463W        W  857  35.813   7.095   2.413
32464W        W  858  23.029  44.434  10.524
32465W        W  859  32.066  31.438   0.807
32466W        W  860  30.530  30.399   2.811
32467W        W  861  19.975  10.893  13.911
32468W        W  862  44.465  28.592   3.088
32469W        W  863  15.158  38.311  14.231
32470W        W  864  34.674  43.883  11.595
32471W        W  865  40.406   8.685   2.217
32472W        W  866  13.745  23.662  14.796
32473W        W  867   7.366   3.715  13.947
32474W        W  868  26.076   8.692   0.388
32475W        W  869   4.174  27.311  13.804
32476W        W  870  29.120  35.434   0.648
32477W        W  871  23.480  26.283  11.194
32478W        W  872   7.659  20.878   5.032
32479W        W  873  17.738  13.436  14.553
32480W        W  874   5.180  36.574  14.066
32481W        W  875  24.213  24.714  13.917
32482W        W  876  40.415   3.413   2.655
32483W        W  877  33.928   5.200   3.303
32484W        W  878   6.682  19.512  14.831
32485W        W  879  16.651  28.455   2.773
32486W        W  880  42.602  23.606  10.848
32487W        W  881   2.963  17.752  13.642
32488W        W  882  14.364  44.709  13.796
32489W        W  883  20.158  30.271   4.732
32490W        W  884  34.730  33.411  13.734
32491W        W  885  31.653  33.200  14.499
32492W        W  886  13.279   8.175   0.918
32493W        W  887  22.296  20.136   4.085
32494W        W  888  26.976  25.509  10.678
32495W        W  889  29.698   5.566  14.589
32496W        W  890  14.151  29.077  12.840
32497W        W  891  42.562  23.285   4.479
32498W        W  892   9.642  13.282   2.018
32499W        W  893  25.071  37.336  12.901
32500W        W  894   8.023   9.941  11.993
32501W        W  895  14.296  38.209   3.140
32502W        W  896  31.654   1.306   2.869
32503W        W  897   4.383  39.277  11.128
32504W        W  898   1.363   2.764  10.685
32505W        W  899  39.306  23.771   0.537
32506W        W  900  26.975  31.623  12.973
32507W        W  901  25.046  32.107  13.826
32508W        W  902  39.242  44.315   2.724
32509W        W  903  14.765  41.414  10.230
32510W        W  904  40.528  22.929   1.990
32511W        W  905  12.306  34.175  12.036
32512W        W  906  19.476  44.014  10.585
32513W        W  907  34.930  18.075  14.554
32514W        W  908   0.233  38.967  12.449
32515W        W  909  23.641  41.102   0.453
32516W        W  910  36.118  30.132  13.383
32517W        W  911  44.631  39.190  13.790
32518W        W  912  38.640  36.098  14.863
32519W        W  913  33.191  10.319   4.549
32520W        W  914  18.292  40.071   2.867
32521W        W  915  30.478   5.309  13.598
32522W        W  916  14.273  38.476   4.652
32523W        W  917  12.654   6.257   2.325
32524W        W  918  19.626  37.443  12.893
32525W        W  919  16.379  24.453   1.429
32526W        W  920  15.692  24.918   2.220
32527W        W  921  14.323  22.666  13.366
32528W        W  922  40.383  10.080  12.123
32529W        W  923  26.253  13.378  11.579
32530W        W  924  36.295  25.486   4.785
32531W        W  925  29.615  39.321  13.926
32532W        W  926  15.962  15.272  10.863
32533W        W  927  17.960  21.580  12.869
32534W        W  928  26.497  10.746  12.119
32535W        W  929   1.826   8.580   2.830
32536W        W  930  13.277  34.921   1.023
32537W        W  931   1.471   9.237  13.623
32538W        W  932   4.197   5.407  13.402
32539W        W  933  10.548   8.787   1.892
32540W        W  934  17.829  35.141  11.276
32541W        W  935  21.642   1.186   2.418
32542W        W  936  19.799  24.411   4.724
32543W        W  937  41.977  24.273   0.339
32544W        W  938  19.331  40.674  10.315
32545W        W  939  18.154  17.571   4.095
32546W        W  940   5.663  16.858  12.570
32547W        W  941  19.939  43.654  14.229
32548W        W  942   4.424  17.805   2.042
32549W        W  943  27.460  18.389   2.502
32550W        W  944   6.138  39.962   1.980
32551W        W  945   3.256  24.315   5.140
32552W        W  946  37.768   6.365   2.619
32553W        W  947  37.548  22.375  12.905
32554W        W  948   7.139  43.506  10.634
32555W        W  949   5.777  34.340   1.781
32556W        W  950  20.375  16.756  11.367
32557W        W  951   2.494   6.286   2.624
32558W        W  952  39.636   7.321  13.582
32559W        W  953  19.309   1.645   0.345
32560W        W  954   6.374   3.374  12.119
32561W        W  955  29.624  21.166   0.941
32562W        W  956  30.910  26.711  14.347
32563W        W  957   2.272  10.584   4.216
32564W        W  958  28.957  42.261  14.965
32565W        W  959  21.777  27.118   1.253
32566W        W  960  29.683  16.579   4.283
32567W        W  961  36.118   9.246  12.162
32568W        W  962  28.018   5.304   1.175
32569W        W  963   3.553   5.379  14.500
32570W        W  964  41.596  24.562   1.676
32571W        W  965  44.072  36.368  10.221
32572W        W  966  32.698   7.142  11.171
32573W        W  967  11.374  11.816   5.176
32574W        W  968   2.878  41.052   1.637
32575W        W  969   3.468  10.825   4.745
32576W        W  970  25.929  37.933   1.412
32577W        W  971  11.295  20.619  14.844
32578W        W  972   9.705  26.113   0.300
32579W        W  973  38.564   8.208   2.228
32580W        W  974  20.588  28.944   0.245
32581W        W  975  13.034  31.899  11.222
32582W        W  976   0.348  27.735   1.692
32583W        W  977  10.248  32.971  11.882
32584W        W  978   6.533  26.723  13.728
32585W        W  979  20.703   4.000   2.622
32586W        W  980  22.540  32.429  14.254
32587W        W  981  39.462  15.846   0.396
32588W        W  982  20.131  10.644  13.482
32589W        W  983  32.915   9.836  12.462
32590W        W  984   1.004   7.226  11.137
32591W        W  985  27.114  25.165   1.164
32592W        W  986  25.413   8.287  14.040
32593W        W  987  36.971  35.523   1.235
32594W        W  988  27.090   7.155   1.797
32595W        W  989  19.987  41.215   4.533
32596W        W  990  13.385  10.650  14.974
32597W        W  991  22.532   7.284   1.866
32598W        W  992  30.737  31.757  14.607
32599W        W  993  14.410  11.570   4.127
32600W        W  994  40.871  42.526   2.722
32601W        W  995  19.594  30.781   1.193
32602W        W  996  42.981  18.509   3.195
32603W        W  997  40.354  38.901  12.016
32604W        W  998  40.851  29.009   3.404
32605W        W  999  39.510  12.705  10.937
32606W        W 1000   8.742  32.156   0.933
32607W        W 1001  29.039  34.639  11.395
32608W        W 1002  13.398   8.158   1.814
32609W        W 1003   8.604  33.786  13.091
32610W        W 1004  15.536  17.116   0.326
32611W        W 1005  36.345   8.904  13.523
32612W        W 1006  18.015  42.304   0.360
32613W        W 1007  33.087  42.851   0.910
32614W        W 1008  40.648   0.736  10.092
32615W        W 1009   3.250   5.764   2.378
32616W        W 1010  35.907  39.145   4.234
32617W        W 1011  38.015  34.500  11.551
32618W        W 1012  35.928  21.752  12.567
32619W        W 1013  37.988   4.131  14.829
32620W        W 1014  20.081  31.073  12.091
32621W        W 1015  28.753   9.844  12.884
32622W        W 1016  31.140  41.962  10.615
32623W        W 1017   7.405  13.489  12.413
32624W        W 1018  28.542  44.827  10.239
32625W        W 1019   5.628  22.312  11.512
32626W        W 1020   4.814   2.796  11.085
32627W        W 1021  10.140  16.764  14.280
32628W        W 1022   5.239  11.379   0.471
32629W        W 1023  14.783   9.278  11.913
32630W        W 1024   6.181  28.045  10.689
32631W        W 1025  18.991  21.783   1.407
32632W        W 1026   1.053   6.228   4.633
32633W        W 1027  12.655  15.242  11.679
32634W        W 1028   9.313  21.039  10.643
32635W        W 1029  34.329  17.433   3.210
32636W        W 1030   0.352  22.415  13.819
32637W        W 1031   7.681  24.582  12.652
32638W        W 1032  40.194  23.420  11.969
32639W        W 1033  31.087  21.317  12.995
32640W        W 1034  22.782  38.454   2.340
32641W        W 1035  43.343  33.378  14.913
32642W        W 1036  39.983   4.702   1.679
32643W        W 1037  28.711  26.526   0.500
32644W        W 1038  12.252   5.227   1.789
32645W        W 1039  18.673  32.903  13.494
32646W        W 1040  12.172  17.138   1.243
32647W        W 1041  18.157  32.679  13.354
32648W        W 1042  19.366   2.375  10.802
32649W        W 1043  17.157  24.221   1.126
32650W        W 1044  26.504  26.962   4.347
32651W        W 1045   2.046  32.669   1.465
32652W        W 1046   3.817   5.332   4.009
32653W        W 1047  37.400  32.217   3.434
32654W        W 1048  17.310  38.857   0.949
32655W        W 1049  11.344   7.423   1.785
32656W        W 1050  39.669  38.849  11.444
32657W        W 1051  43.999  12.222   4.355
32658W        W 1052  16.999   7.933  14.488
32659W        W 1053  20.450  11.955  11.060
32660W        W 1054  26.768  25.557   1.241
32661W        W 1055  28.427  10.456  13.599
32662W        W 1056  15.272  34.883   4.397
32663W        W 1057  16.205  12.885  12.546
32664W        W 1058  35.117   3.373  12.035
32665W        W 1059  41.832  32.127  14.786
32666W        W 1060  37.553  21.138  13.368
32667W        W 1061  18.624   1.737   0.844
32668W        W 1062  26.355   7.957  10.760
32669W        W 1063  11.832  16.729   1.241
32670W        W 1064   0.034  22.776  10.390
32671W        W 1065  36.475  12.642   2.879
32672W        W 1066  42.885  38.552  12.973
32673W        W 1067   7.440   2.447  13.569
32674W        W 1068  41.110   9.070   2.373
32675W        W 1069  28.831  19.553   2.664
32676W        W 1070  41.594  22.205  11.228
32677W        W 1071  38.699  37.402   0.075
32678W        W 1072  28.689   3.282   1.451
32679W        W 1073  43.023  37.640  12.150
32680W        W 1074   9.079   8.925   2.226
32681W        W 1075  40.846  39.990  14.382
32682W        W 1076  17.050  21.338  13.823
32683W        W 1077   8.311  31.331  10.428
32684W        W 1078  35.029  31.653   2.812
32685W        W 1079   7.658  42.474   0.015
32686W        W 1080  38.277   3.967   0.784
32687W        W 1081  34.445  19.077   2.654
32688W        W 1082   6.034  38.221   4.181
32689W        W 1083  20.742  21.731   0.383
32690W        W 1084  18.223  25.792   1.262
32691W        W 1085   4.488  42.991   3.747
32692W        W 1086  42.603  14.816  13.439
32693W        W 1087  23.879   1.764   0.461
32694W        W 1088  26.587  22.055  14.001
32695W        W 1089  37.582  44.063  13.091
32696W        W 1090  10.863  41.977  14.323
32697W        W 1091  26.266  26.668  13.834
32698W        W 1092  38.130  11.310  11.796
32699W        W 1093  16.096  41.990   4.143
32700W        W 1094  17.082  25.200  13.463
32701W        W 1095   3.450  32.751   4.191
32702W        W 1096   6.467  17.642   2.348
32703W        W 1097  30.075  28.749  12.502
32704W        W 1098  30.480  12.842   2.236
32705W        W 1099   9.715   8.360  10.627
32706W        W 1100   9.241  34.891  12.834
32707W        W 1101  16.357  22.768   4.427
32708W        W 1102  30.809   5.983   2.778
32709W        W 1103  21.749  21.929  12.361
32710W        W 1104  23.383  10.272  11.613
32711W        W 1105   6.786   2.981  13.746
32712W        W 1106  33.254  20.770  11.615
32713W        W 1107  35.801  41.479  12.012
32714W        W 1108  25.497   8.937   1.885
32715W        W 1109  12.845  30.682   2.746
32716W        W 1110  10.249  10.674  12.088
32717W        W 1111  43.131   5.345  11.600
32718W        W 1112   2.760   7.741  12.080
32719W        W 1113  22.961   8.525  13.081
32720W        W 1114  31.975  17.609  11.916
32721W        W 1115  25.423  34.525   3.373
32722W        W 1116  44.461  13.911  14.368
32723W        W 1117   8.531  43.024   4.275
32724W        W 1118   0.748  18.215  13.384
32725W        W 1119  39.546  28.056   4.477
32726W        W 1120   6.690  29.082   4.150
32727W        W 1121  39.222  32.369   0.380
32728W        W 1122  39.141  15.522  11.471
32729W        W 1123  28.104   1.678  14.437
32730W        W 1124  21.495   7.689   3.745
32731W        W 1125  32.520  40.894  13.358
32732W        W 1126   6.897   1.840  12.471
32733W        W 1127  23.961  12.408  10.006
32734W        W 1128  15.114  15.270  14.322
32735W        W 1129  30.380  14.321  11.205
32736W        W 1130  21.158   5.814   3.113
32737W        W 1131   8.456  31.942  13.015
32738W        W 1132  26.382  34.134   3.183
32739W        W 1133  36.817  40.532  12.349
32740W        W 1134  42.961   0.796  13.210
32741W        W 1135  35.943  44.297   0.739
32742W        W 1136  41.793  43.952  14.500
32743W        W 1137   1.833  41.179  12.849
32744W        W 1138   3.947  22.974   2.791
32745W        W 1139  11.324  19.167  12.499
32746W        W 1140  26.422  21.499   1.735
32747W        W 1141  24.018  12.306   4.550
32748W        W 1142  32.428  38.126   1.756
32749W        W 1143  22.605  25.117   3.242
32750W        W 1144  19.256  22.984  12.937
32751W        W 1145   1.887  19.360   3.319
32752W        W 1146  41.763   8.850   2.864
32753W        W 1147   2.924  23.547  14.005
32754W        W 1148  27.226  23.667  12.186
32755W        W 1149  29.372  28.981   2.355
32756W        W 1150  23.655  24.623   0.357
32757W        W 1151   0.739  24.157   1.264
32758W        W 1152  28.511   4.356  11.417
32759W        W 1153  19.731  35.983   1.871
32760W        W 1154  11.688   1.257   1.236
32761W        W 1155   2.916  12.167  10.692
32762W        W 1156  44.562   6.718  14.682
32763W        W 1157  19.755   3.701   1.969
32764W        W 1158  19.301  28.446   2.092
32765W        W 1159  33.644  24.106  12.900
32766W        W 1160  17.751  30.747  11.001
32767W        W 1161  34.452  25.715   2.333
32768W        W 1162  35.513  17.503  13.358
32769W        W 1163   2.473  32.568  14.892
32770W        W 1164   0.495  29.402  13.860
32771W        W 1165  37.575  40.806  14.145
32772W        W 1166   7.828   9.422   3.264
32773W        W 1167  41.837  34.122  13.548
32774W        W 1168  37.349  26.252  12.506
32775W        W 1169  40.427  26.256  11.637
32776W        W 1170  14.735  18.929  13.521
32777W        W 1171  35.601  44.944  11.635
32778W        W 1172  30.554  15.676   0.039
32779W        W 1173  39.870   3.522   3.437
32780W        W 1174  30.660  17.783  13.131
32781W        W 1175  36.753  19.159  14.314
32782W        W 1176  42.099  27.981  14.464
32783W        W 1177  20.616  29.045   4.590
32784W        W 1178  14.302  39.879   4.187
32785W        W 1179  21.433  10.648   9.835
32786W        W 1180   4.759  20.084   0.682
32787W        W 1181  31.311  41.140  10.347
32788W        W 1182  22.819  13.852   2.581
32789W        W 1183   2.966   0.479   3.817
32790W        W 1184  41.565   4.430  13.537
32791W        W 1185  14.819  43.568   1.345
32792W        W 1186  15.335  23.445   0.511
32793W        W 1187   6.493   6.273   2.103
32794W        W 1188  35.542  38.538   4.034
32795W        W 1189  39.434  34.692  12.597
32796W        W 1190  44.383  10.785   1.274
32797W        W 1191   4.800  30.850   3.181
32798W        W 1192   2.387   1.478  12.936
32799W        W 1193   0.466  40.475  14.567
32800W        W 1194  27.790   4.750   3.616
32801W        W 1195  15.358  10.277   2.215
32802W        W 1196  42.779  35.428  11.703
32803W        W 1197  25.283   9.694  12.922
32804W        W 1198   8.896   3.734   1.744
32805W        W 1199  11.064  40.525   2.742
32806W        W 1200  20.242  12.200   4.695
32807W        W 1201  36.429   7.864   1.651
32808W        W 1202  18.123  18.297   0.227
32809W        W 1203  25.152  12.749   0.658
32810W        W 1204  40.068  33.510   1.812
32811W        W 1205  38.169  42.716   4.186
32812W        W 1206   8.355   8.211  11.438
32813W        W 1207  40.596  25.981  10.696
32814W        W 1208   7.922  44.320   4.488
32815W        W 1209  44.763  33.030  12.597
32816W        W 1210   3.253  40.537   1.997
32817W        W 1211  38.587  31.823  10.515
32818W        W 1212  12.337  20.491   0.327
32819W        W 1213  26.948   4.730   4.130
32820W        W 1214  10.384  25.675  13.256
32821W        W 1215  26.473  35.108   1.548
32822W        W 1216   7.650   6.709  13.834
32823W        W 1217  16.300  23.366   3.663
32824W        W 1218  40.967  15.846   3.925
32825W        W 1219   2.401  33.974   4.642
32826W        W 1220  40.254  27.605  12.445
32827W        W 1221  19.829  44.438  10.605
32828W        W 1222  21.359  20.455  12.396
32829W        W 1223  37.616  39.425   3.401
32830W        W 1224   4.181   9.022  10.982
32831W        W 1225   6.179  13.536   4.135
32832W        W 1226  11.600  33.024   1.957
32833W        W 1227  28.921  26.086   2.688
32834W        W 1228  18.800  24.232   2.558
32835W        W 1229   0.159   9.278   2.181
32836W        W 1230  29.262   7.742   0.879
32837W        W 1231  33.274  44.458  14.373
32838W        W 1232  24.224  29.061  11.578
32839W        W 1233  29.664  19.734  10.769
32840W        W 1234  32.496   9.279  10.879
32841W        W 1235  14.235  21.712  12.511
32842W        W 1236  34.931  12.733  14.487
32843W        W 1237  43.820  27.699   2.349
32844W        W 1238   1.858  36.331  13.612
32845W        W 1239   8.454  28.863  11.455
32846W        W 1240  10.230  31.698  10.923
32847W        W 1241  30.019  34.330  13.033
32848W        W 1242  16.536  35.665   0.629
32849W        W 1243  13.232   5.831  12.380
32850W        W 1244  15.105  10.750   0.319
32851W        W 1245  15.583  11.304  12.864
32852W        W 1246  19.758  34.004  13.396
32853W        W 1247   7.044   5.961  12.884
32854W        W 1248   4.283   3.292  12.471
32855W        W 1249  10.817   6.876  12.559
32856W        W 1250  43.875  23.669  12.466
32857W        W 1251  39.002  22.106  13.808
32858W        W 1252   5.560  34.567   2.293
32859W        W 1253  22.196  20.722   1.512
32860W        W 1254  37.616  29.402   2.135
32861W        W 1255  12.226   6.418  12.179
32862W        W 1256  15.963  11.695  11.077
32863W        W 1257  30.627  24.727  13.967
32864W        W 1258  42.874  18.650  14.117
32865W        W 1259  36.304  14.736   4.744
32866W        W 1260  24.594  39.905  14.995
32867W        W 1261   1.887  29.205   1.322
32868W        W 1262  22.063  27.847   2.189
32869W        W 1263  44.029   9.154  11.603
32870W        W 1264  41.486  15.731  10.851
32871W        W 1265  22.088  10.060  11.966
32872W        W 1266  30.844  25.516  11.865
32873W        W 1267   8.089  18.234  14.028
32874W        W 1268  16.857   1.861  11.482
32875W        W 1269  26.545   6.838  13.283
32876W        W 1270  28.541  16.383   2.929
32877W        W 1271  32.660  13.724  12.589
32878W        W 1272  23.173   8.168  14.824
32879W        W 1273  25.986  12.607  10.652
32880W        W 1274  44.601  12.175   3.324
32881W        W 1275   8.796  16.226  10.550
32882W        W 1276  20.938   1.717   1.946
32883W        W 1277  33.047  40.856  14.289
32884W        W 1278   3.137  29.347  13.689
32885W        W 1279  40.835  21.697   1.969
32886W        W 1280  15.577   8.159  12.436
32887W        W 1281  42.914  29.230  11.909
32888W        W 1282  21.631   2.874   0.282
32889W        W 1283  23.264   9.055  10.171
32890W        W 1284  14.873  11.290  13.511
32891W        W 1285   6.816  35.548   2.235
32892W        W 1286  39.815   2.966   0.404
32893W        W 1287  17.378  27.831   2.865
32894W        W 1288  34.097   8.612   1.433
32895W        W 1289  20.586  28.922  11.176
32896W        W 1290  38.709   8.951  10.061
32897W        W 1291  35.798  19.693  14.433
32898W        W 1292  20.632  32.010  12.070
32899W        W 1293  27.596  26.060   1.978
32900W        W 1294   0.811  34.917   1.940
32901W        W 1295   0.437   1.161   2.365
32902W        W 1296  38.880   9.672  10.984
32903W        W 1297  13.790  42.822  10.745
32904W        W 1298  39.532  41.354   4.974
32905W        W 1299  30.979  25.565   2.135
32906W        W 1300   7.167  42.947   2.747
32907W        W 1301  17.393   2.911   0.496
32908W        W 1302  17.472   6.804  13.086
32909W        W 1303  44.690  44.377   0.923
32910W        W 1304  41.591   3.414   1.189
32911W        W 1305  34.031  22.032  13.445
32912W        W 1306  14.193  19.478  13.784
32913W        W 1307  24.123  13.193   1.928
32914W        W 1308  17.634  43.879  13.483
32915W        W 1309   9.976   0.333   0.404
32916W        W 1310  37.627  24.827   1.906
32917W        W 1311  24.258  12.487  10.416
32918W        W 1312  43.319  27.582   1.797
32919W        W 1313   6.936  16.529   3.119
32920W        W 1314  39.154   1.768   2.274
32921W        W 1315   2.781  34.469  12.500
32922W        W 1316  27.986  44.021   3.054
32923W        W 1317   5.345  10.324  13.553
32924W        W 1318  42.627  13.720  13.384
32925W        W 1319  41.765  11.659   4.306
32926W        W 1320  22.143   9.587   3.714
32927W        W 1321  21.928  40.901  10.391
32928W        W 1322  24.917   0.513   1.322
32929W        W 1323  15.031  35.109   4.794
32930W        W 1324  35.060  42.726  13.067
32931W        W 1325   1.831  25.477   2.680
32932W        W 1326   8.853  34.083   0.819
32933W        W 1327  36.305  31.115  13.031
32934W        W 1328  31.105  23.242   0.849
32935W        W 1329  35.696   8.158   2.877
32936W        W 1330  34.395  27.558   0.324
32937W        W 1331  23.048  15.292   1.374
32938W        W 1332  24.664   8.766   5.268
32939W        W 1333  33.908  17.568   2.238
32940W        W 1334  21.990  33.945  14.455
32941W        W 1335  28.921  34.956  13.506
32942W        W 1336  20.730  34.467   2.383
32943W        W 1337  21.120  38.163  13.530
32944W        W 1338   1.756  22.715  12.257
32945W        W 1339  39.568  28.405  13.369
32946W        W 1340   9.002  38.812   0.414
32947W        W 1341  29.987  18.754   2.841
32948W        W 1342  25.698  33.674  12.996
32949W        W 1343   9.618  26.511  13.363
32950W        W 1344  25.629  20.166  13.814
32951W        W 1345  25.737  28.950   2.810
32952W        W 1346   2.951  29.005   0.203
32953W        W 1347  27.010  21.205   3.844
32954W        W 1348   0.812   8.141  11.137
32955W        W 1349  19.652  21.271   1.730
32956W        W 1350  17.955  15.967   5.359
32957W        W 1351  32.034  23.937  14.474
32958W        W 1352   3.025  31.094  12.954
32959W        W 1353   2.466  38.575   4.840
32960W        W 1354  22.493  19.137   0.875
32961W        W 1355  11.229   9.787   3.725
32962W        W 1356   2.541   3.781   0.801
32963W        W 1357  39.440   8.176   2.890
32964W        W 1358  13.204  34.943   2.966
32965W        W 1359  42.849  17.119  13.443
32966W        W 1360   7.794  19.023   2.836
32967W        W 1361  29.607  19.783   3.076
32968W        W 1362  28.503  13.988  14.831
32969W        W 1363   8.848  25.200  14.759
32970W        W 1364  40.920  24.561   0.276
32971W        W 1365   4.439   2.761  11.951
32972W        W 1366  39.430  44.384  11.923
32973W        W 1367  39.798   0.474   0.328
32974W        W 1368  36.959  14.205  10.652
32975W        W 1369  12.805  20.864  12.061
32976W        W 1370   4.279  41.269   0.171
32977W        W 1371  22.100  44.253   0.410
32978W        W 1372   4.832  20.233   3.917
32979W        W 1373  13.846  36.852   4.188
32980W        W 1374  12.195  34.995   2.805
32981W        W 1375  21.889  20.539  11.505
32982W        W 1376  26.030  10.104   4.098
32983W        W 1377  37.680  20.320  12.538
32984W        W 1378  14.343  34.972  10.844
32985W        W 1379  17.085   5.795   3.146
32986W        W 1380  36.537  43.252  11.958
32987W        W 1381   8.342   5.753   1.303
32988W        W 1382  29.166  12.925  12.992
32989W        W 1383  15.889  29.164   2.698
32990W        W 1384  14.356  32.099  10.674
32991W        W 1385  41.987  38.504  10.964
32992W        W 1386  15.727  44.415  13.597
32993W        W 1387  38.575  11.597   3.951
32994W        W 1388  16.275  17.704   0.443
32995W        W 1389   6.246  18.536   1.287
32996W        W 1390  21.290  37.690   2.845
32997W        W 1391  34.421  23.228   1.359
32998W        W 1392   1.905  15.247  13.516
32999W        W 1393  14.035  18.216   1.263
33000W        W 1394  15.588  39.988   2.268
33001W        W 1395  35.885  13.329   1.274
33002W        W 1396  14.997  31.229  11.601
33003W        W 1397  33.712  25.490   0.930
33004W        W 1398  14.610  37.011   0.368
33005W        W 1399  11.173   2.134  12.602
33006W        W 1400  13.354  40.104  11.033
33007W        W 1401  20.694   2.020   3.178
33008W        W 1402  35.374  34.166  14.088
33009W        W 1403  15.309  16.497  11.512
33010W        W 1404   5.176   4.685  13.633
33011W        W 1405  22.279  24.113   2.177
33012W        W 1406  37.554  32.985  10.741
33013W        W 1407   8.787  11.690   0.861
33014W        W 1408   3.795   6.979  13.867
33015W        W 1409   2.166  44.017   1.866
33016W        W 1410  24.109  43.052   2.957
33017W        W 1411  28.888  42.296   0.890
33018W        W 1412  17.314  34.225  11.160
33019W        W 1413  26.231  27.884   0.418
33020W        W 1414  15.897  18.687  14.731
33021W        W 1415   3.706  44.217  14.454
33022W        W 1416  15.492  18.426  14.916
33023W        W 1417  21.540  37.289  14.880
33024W        W 1418   7.068  24.761   3.098
33025W        W 1419   4.064  15.069  14.697
33026W        W 1420  16.842  25.281   3.877
33027W        W 1421   8.891  22.678   4.049
33028W        W 1422   6.963  30.940  13.436
33029W        W 1423  39.488   8.755   4.044
33030W        W 1424  43.358   4.558   2.496
33031W        W 1425   7.310  42.263   3.177
33032W        W 1426  36.875  41.824  10.714
33033W        W 1427  33.418  40.269  14.144
33034W        W 1428  32.906   9.235  11.219
33035W        W 1429   0.081   4.194  13.377
33036W        W 1430  33.855   9.621  13.196
33037W        W 1431   6.872  15.252  10.938
33038W        W 1432   7.631  22.186   3.289
33039W        W 1433  10.707  20.561  11.622
33040W        W 1434  11.197   6.441   4.515
33041W        W 1435  44.497  38.167  13.764
33042W        W 1436  20.926  30.964   3.342
33043W        W 1437  44.251  15.297   0.906
33044W        W 1438  23.555  42.270  10.349
33045W        W 1439  39.795  19.299   3.665
33046W        W 1440  21.117  28.858   4.495
33047W        W 1441  12.195  27.637   4.143
33048W        W 1442   1.595  37.047   3.893
33049W        W 1443  30.546  35.871  11.399
33050W        W 1444   3.005  15.877   3.672
33051W        W 1445  14.569   0.482   1.195
33052W        W 1446  38.942   1.431   0.064
33053W        W 1447  13.552  44.695   4.096
33054W        W 1448  39.244  37.184   1.825
33055W        W 1449   8.062  27.243   0.731
33056W        W 1450  21.583   1.704   3.263
33057W        W 1451  28.667  12.166  13.031
33058W        W 1452   5.097  30.343  11.924
33059W        W 1453  15.264  31.589   3.670
33060W        W 1454  33.841  26.088   0.447
33061W        W 1455  12.220   2.719  14.754
33062W        W 1456  19.198  15.900   4.515
33063W        W 1457   7.455  36.446   4.486
33064W        W 1458  17.526   3.951  11.097
33065W        W 1459   0.871  16.478  12.427
33066W        W 1460  42.495  41.497  13.842
33067W        W 1461  35.382  33.491  12.451
33068W        W 1462  20.184  38.383  14.948
33069W        W 1463   6.903   1.330   2.720
33070W        W 1464  26.924  33.565   0.909
33071W        W 1465  44.997   3.818  14.836
33072W        W 1466  20.939  12.705  11.665
33073W        W 1467  44.431  29.888  13.007
33074W        W 1468   8.356  29.536  14.053
33075W        W 1469   0.468   7.297   4.191
33076W        W 1470  16.306  12.839   4.967
33077W        W 1471  40.769  20.084  11.012
33078W        W 1472  33.575  10.105  10.728
33079W        W 1473   5.146  19.509   2.306
33080W        W 1474   0.436  34.857  14.380
33081W        W 1475   4.260  41.954   1.389
33082W        W 1476  35.632   1.481  10.743
33083W        W 1477  22.503  36.514  13.427
33084W        W 1478  38.484  37.990   0.416
33085W        W 1479   9.426  31.793   3.291
33086W        W 1480  29.051  21.190   2.130
33087W        W 1481  18.247  14.538   4.033
33088W        W 1482  19.841  41.326   0.654
33089W        W 1483  39.933  37.512  13.872
33090W        W 1484  12.301  33.792   1.362
33091W        W 1485   6.304  40.638   5.004
33092W        W 1486   5.265  31.423   0.233
33093W        W 1487   4.261  20.193   4.018
33094W        W 1488  12.234   6.744  14.364
33095W        W 1489  15.209  12.652  12.044
33096W        W 1490  25.012  25.687  13.747
33097W        W 1491  18.185  27.410   3.323
33098W        W 1492  44.228   7.757  13.317
33099W        W 1493   0.736   4.263  11.951
33100W        W 1494  28.769   1.543  11.534
33101W        W 1495  37.347  38.171  12.950
33102W        W 1496  40.043  25.386  12.286
33103W        W 1497  31.580  33.996   1.434
33104W        W 1498  12.746  41.267   0.859
33105W        W 1499  11.732  42.750  13.430
33106W        W 1500   9.733   5.478  11.118
33107W        W 1501  30.341  31.913   4.460
33108W        W 1502  26.336  11.773  10.208
33109W        W 1503   5.229  32.129  13.321
33110W        W 1504  11.131   0.934   2.768
33111W        W 1505  20.405  18.922  13.185
33112W        W 1506  20.078  11.884  12.763
33113W        W 1507  13.308  30.635  14.083
33114W        W 1508  17.567  44.403  13.489
33115W        W 1509   3.132  29.664   1.353
33116W        W 1510  17.805  23.208  12.565
33117W        W 1511  27.441  25.040   4.025
33118W        W 1512  10.847   0.780   4.721
33119W        W 1513  18.767  21.661   4.577
33120W        W 1514  44.161  39.535   4.065
33121W        W 1515   1.783  33.396   4.525
33122W        W 1516   1.867   2.379   4.919
33123W        W 1517  34.007  25.555   3.872
33124W        W 1518  26.662  13.831   4.392
33125W        W 1519  38.026  32.441  12.906
33126W        W 1520   6.529   7.748  14.381
33127W        W 1521   8.071  44.449   4.012
33128W        W 1522  26.150   7.189  13.285
33129W        W 1523  30.136  36.940  10.708
33130W        W 1524   9.533  21.179   3.723
33131W        W 1525  31.408  13.888  11.263
33132W        W 1526  31.044   7.235   4.150
33133W        W 1527  22.312  20.186   3.260
33134W        W 1528  29.691  17.582  13.807
33135W        W 1529   5.107   8.785   4.330
33136W        W 1530  29.827  27.799  12.564
33137W        W 1531  31.952  27.897   2.899
33138W        W 1532  28.634  14.239   4.913
33139W        W 1533  40.090   7.620  13.876
33140W        W 1534   4.671  11.013  14.615
33141W        W 1535  26.272  25.153  13.452
33142W        W 1536  41.122  18.745  14.266
33143W        W 1537  23.215  38.104   4.802
33144W        W 1538   6.835   0.542  14.978
33145W        W 1539  26.140   0.493  13.819
33146W        W 1540  12.800  29.982   4.558
33147W        W 1541  19.020  26.009  10.687
33148W        W 1542  20.172  29.981   4.103
33149W        W 1543  36.533  35.758  12.385
33150W        W 1544   9.094  38.255   2.910
33151W        W 1545  11.290  43.202  13.987
33152W        W 1546  33.942  37.849   1.674
33153W        W 1547  18.027   4.835  11.961
33154W        W 1548  16.095  10.285   2.112
33155W        W 1549  38.875  40.540   1.464
33156W        W 1550  29.623  38.027   3.283
33157W        W 1551   3.509  12.252   2.290
33158W        W 1552  29.557   1.332  14.920
33159W        W 1553   6.969  44.641  11.347
33160W        W 1554   6.684  13.821   1.017
33161W        W 1555  27.408  33.187  11.637
33162W        W 1556  14.580  14.140  11.137
33163W        W 1557  31.186  34.087  14.412
33164W        W 1558  32.530   8.616  13.026
33165W        W 1559   6.535  33.286  13.481
33166W        W 1560  18.812  37.691  11.554
33167W        W 1561  43.363  34.902   5.065
33168W        W 1562  31.936  34.972  11.366
33169W        W 1563  34.523   9.129   4.786
33170W        W 1564  14.718  14.159   4.636
33171W        W 1565  15.987  40.512  11.156
33172W        W 1566  26.065  40.189   3.809
33173W        W 1567  27.303  41.939   2.255
33174W        W 1568  39.312   5.290  10.488
33175W        W 1569  29.825  29.679   4.155
33176W        W 1570  28.881  10.313   4.194
33177W        W 1571  27.955  13.710  14.080
33178W        W 1572  15.335  25.229  11.558
33179W        W 1573  41.891  22.274   0.397
33180W        W 1574  11.717  14.247   5.045
33181W        W 1575   1.390  33.078  10.488
33182W        W 1576  25.057  15.268   4.927
33183W        W 1577  15.238  39.071  10.197
33184W        W 1578  19.084  24.025   4.478
33185W        W 1579  24.115  39.480  14.882
33186W        W 1580  35.885  19.037   1.393
33187W        W 1581   7.186  37.315  10.357
33188W        W 1582   0.471  36.489  13.332
33189W        W 1583  32.812  14.303  12.463
33190W        W 1584  27.239   8.953  10.119
33191W        W 1585   3.516   9.729   2.394
33192W        W 1586  37.105   5.224   3.484
33193W        W 1587  25.505  45.000  13.367
33194W        W 1588  33.396  25.879  13.601
33195W        W 1589  30.040  11.327   1.402
33196W        W 1590  17.196   6.013  12.465
33197W        W 1591  14.554  29.695  14.453
33198W        W 1592  40.036  37.005  13.993
33199W        W 1593  13.325  12.659   1.423
33200W        W 1594  20.921  17.072   1.054
33201W        W 1595  11.670  31.618   1.224
33202W        W 1596   1.168   9.284   3.315
33203W        W 1597   3.541   1.827   2.659
33204W        W 1598  44.544  21.885  11.137
33205W        W 1599  21.950  11.758  13.838
33206W        W 1600  10.279   5.797   3.215
33207W        W 1601  22.590  33.788  12.582
33208W        W 1602  36.139   8.261   0.258
33209W        W 1603  44.344   3.346   0.968
33210W        W 1604  33.561  42.039   3.215
33211W        W 1605  11.674  41.585   0.367
33212W        W 1606   9.263  28.181   2.391
33213W        W 1607  28.878  18.563   0.321
33214W        W 1608  39.796  10.345   2.066
33215W        W 1609   2.873  18.250   2.227
33216W        W 1610  30.079  21.816  14.757
33217W        W 1611  15.404  20.558  11.523
33218W        W 1612   2.328  32.175  11.849
33219W        W 1613   0.802  44.827   2.810
33220W        W 1614  36.785  31.115  11.907
33221W        W 1615   8.670  37.546   3.201
33222W        W 1616  44.901  18.652   4.714
33223W        W 1617  17.965  11.802  14.824
33224W        W 1618  12.163   7.225   3.748
33225W        W 1619   0.735  30.872   4.526
33226W        W 1620  24.923  42.769  13.484
33227W        W 1621  41.982  10.616   0.886
33228W        W 1622  41.352  16.026   4.188
33229W        W 1623  12.377  15.925  14.999
33230W        W 1624  43.093  34.340  13.361
33231W        W 1625   1.403  35.536   0.444
33232W        W 1626  35.863   3.339   4.799
33233W        W 1627  40.477  38.019  12.604
33234W        W 1628  42.444   4.884  11.179
33235W        W 1629  24.407  31.357   1.431
33236W        W 1630  14.059  24.311   0.301
33237W        W 1631   0.671  38.321  12.955
33238W        W 1632  34.112  11.585  11.130
33239W        W 1633  36.492  23.324   0.901
33240W        W 1634  39.504   3.323   1.052
33241W        W 1635  26.208  30.036   1.780
33242W        W 1636   4.098  23.684   4.336
33243W        W 1637  28.531  13.301  12.380
33244W        W 1638  40.297  19.582  11.545
33245W        W 1639  16.553  33.634  12.065
33246W        W 1640  11.697  44.468   3.954
33247W        W 1641  21.713  28.238  13.673
33248W        W 1642   4.766  19.593   4.592
33249W        W 1643  39.491   3.760  13.447
33250W        W 1644  36.486  21.644  11.485
33251W        W 1645   1.997   4.385  14.355
33252W        W 1646  21.625  25.422   3.806
33253W        W 1647   1.134  43.235   4.185
33254W        W 1648  43.793   8.833  10.663
33255W        W 1649  14.801  39.766   0.920
33256W        W 1650   2.964  16.116  10.636
33257W        W 1651  24.504   0.740   1.033
33258W        W 1652  35.903  13.050   0.272
33259W        W 1653  37.340  20.266   0.281
33260W        W 1654  33.090  41.345   1.447
33261W        W 1655  44.664  23.263  11.979
33262W        W 1656  24.240  31.566   4.464
33263W        W 1657  16.286   2.795   4.393
33264W        W 1658   4.366   0.267  11.386
33265W        W 1659   6.484   1.015   3.358
33266W        W 1660  20.977  33.110  13.538
33267W        W 1661  18.760   1.020  11.383
33268W        W 1662  21.518  16.763  12.425
33269W        W 1663  28.384   8.281   2.715
33270W        W 1664  28.541   5.942  13.961
33271W        W 1665  12.231  31.461  12.935
33272W        W 1666  15.154  41.105  11.958
33273W        W 1667  22.679  24.745   2.335
33274W        W 1668   7.325  35.640   3.273
33275W        W 1669   4.844  34.021   1.391
33276W        W 1670   8.415   2.788   3.266
33277W        W 1671   5.392   1.218   4.781
33278W        W 1672  16.873   7.297  11.646
33279W        W 1673  10.303  35.477   4.409
33280W        W 1674  33.349  24.086  11.205
33281W        W 1675   7.051  31.392  14.878
33282W        W 1676  40.339  24.748  11.590
33283W        W 1677  38.956   1.894  10.759
33284W        W 1678  40.646  35.132   1.847
33285W        W 1679  29.995  22.809  14.720
33286W        W 1680  21.018  41.924  12.503
33287W        W 1681  32.388  18.747   1.936
33288W        W 1682  18.593   9.715  14.258
33289W        W 1683  29.923  16.260   2.674
33290W        W 1684  30.909  26.682   0.967
33291W        W 1685  17.874  25.114   4.549
33292W        W 1686   9.023  20.022  13.844
33293W        W 1687   0.322  40.389  11.639
33294W        W 1688  28.884  19.883  14.351
33295W        W 1689   8.108  37.295  13.920
33296W        W 1690  42.150  37.649   2.176
33297W        W 1691  24.326  34.104  11.129
33298W        W 1692  11.050  10.143  13.304
33299W        W 1693  10.720   1.337   1.815
33300W        W 1694  32.482   4.833   0.929
33301W        W 1695   9.432   7.890  10.609
33302W        W 1696  30.607   2.948  10.543
33303W        W 1697  29.949  16.117  13.619
33304W        W 1698  43.792  43.916   1.129
33305W        W 1699  21.133  36.138  14.402
33306W        W 1700  42.337  20.941  13.855
33307W        W 1701  12.138   8.684  10.626
33308W        W 1702  26.900  28.518   3.032
33309W        W 1703   2.376   3.865   4.552
33310W        W 1704  12.724  14.379   3.835
33311W        W 1705   3.224   3.875   1.876
33312W        W 1706  41.964  28.502  11.056
33313W        W 1707  37.936  11.432  12.256
33314W        W 1708  18.301  38.704   0.401
33315W        W 1709  12.332  17.493  14.977
33316W        W 1710  33.213  28.044  14.581
33317W        W 1711  44.999  39.649  11.996
33318W        W 1712   5.495   2.673   5.035
33319W        W 1713   7.345   4.416   2.780
33320W        W 1714   3.419  31.133   4.979
33321W        W 1715  22.308  33.947  13.014
33322W        W 1716  16.144   0.738  10.691
33323W        W 1717  39.144  41.780   2.646
33324W        W 1718  20.527  29.989  12.590
33325W        W 1719   9.397   5.655   3.620
33326W        W 1720  42.975  30.471  12.918
33327W        W 1721  44.473  20.766   1.803
33328W        W 1722  37.577  11.113   4.418
33329W        W 1723   7.792   2.374   4.549
33330W        W 1724  28.644  21.118   3.682
33331W        W 1725  29.110   3.433  14.755
33332W        W 1726  37.373   7.188  10.698
33333W        W 1727  38.565  11.811   1.430
33334W        W 1728  16.814  36.394   1.763
33335W        W 1729   2.797   4.463  11.921
33336W        W 1730  13.761  38.436  11.331
33337W        W 1731   9.191  27.165  13.478
33338W        W 1732  13.074  37.468  11.103
33339W        W 1733  25.145  21.710   2.687
33340W        W 1734  30.918   4.263   2.386
33341W        W 1735  29.219   8.482   1.414
33342W        W 1736   5.689  25.585   1.757
33343W        W 1737  31.981  12.933   4.560
33344W        W 1738  34.592  16.109  10.716
33345W        W 1739   9.675  42.452  14.905
33346W        W 1740   3.498  32.364  14.816
33347W        W 1741  30.994  20.812  12.937
33348W        W 1742   9.462  13.354   3.246
33349W        W 1743  34.101   1.252  13.830
33350W        W 1744  43.372   3.289  10.879
33351W        W 1745  39.989  11.123  14.242
33352W        W 1746  34.409  36.554  12.018
33353W        W 1747  10.293  30.827  10.631
33354W        W 1748   2.498  12.441  14.303
33355W        W 1749  16.412   5.887  14.408
33356W        W 1750   7.406  19.050   0.347
33357W        W 1751  26.200  39.359   0.452
33358W        W 1752  43.305  27.757   3.719
33359W        W 1753   4.202  34.125  10.648
33360W        W 1754  20.502  23.724   4.111
33361W        W 1755  18.959   6.747   3.331
33362W        W 1756   3.349  27.289   4.008
33363W        W 1757  24.309  26.166   2.484
33364W        W 1758   7.015  30.250  11.143
33365W        W 1759  16.998   2.862   2.297
33366W        W 1760   8.595  10.681  12.532
33367W        W 1761   9.518  38.546   2.189
33368W        W 1762  15.121  30.011  13.048
33369W        W 1763  11.107  27.049   0.797
33370W        W 1764  31.790  44.056   2.272
33371W        W 1765  20.536  23.875   4.986
33372W        W 1766  38.848  31.962  11.510
33373W        W 1767  26.162  16.536   1.918
33374W        W 1768  20.582  33.066  14.198
33375W        W 1769  11.561  26.858   4.248
33376W        W 1770  42.465   4.679   4.117
33377W        W 1771  17.286  40.145   5.336
33378W        W 1772   8.256  15.043   4.530
33379W        W 1773  15.548  25.515  11.973
33380W        W 1774  32.412  36.537  14.544
33381W        W 1775  23.741  38.462   2.329
33382W        W 1776  25.056  24.871   3.266
33383W        W 1777   6.887  26.577  10.276
33384W        W 1778  34.918  30.548   1.188
33385W        W 1779  13.696  28.340  14.469
33386W        W 1780  42.309  44.885  11.197
33387W        W 1781  16.063   5.949  13.131
33388W        W 1782  33.665  23.397  12.316
33389W        W 1783   1.914   9.509  11.783
33390W        W 1784  29.615  14.054  12.825
33391W        W 1785  43.364  39.534  11.680
33392W        W 1786  41.854  28.126  13.296
33393W        W 1787  26.618   4.739   1.857
33394W        W 1788  16.171  22.872   3.687
33395W        W 1789   3.337  32.390  11.203
33396W        W 1790  21.105  36.375  13.048
33397W        W 1791  12.847   3.969   0.838
33398W        W 1792  42.942  13.886   0.852
33399W        W 1793  17.912  28.573  11.587
33400W        W 1794   6.174  13.381  10.557
33401W        W 1795  33.630  24.576   3.824
33402W        W 1796  15.780  12.786  11.191
33403W        W 1797  26.700  42.827   9.990
33404W        W 1798   6.230   6.190  11.894
33405W        W 1799   2.296   7.447   9.940
33406W        W 1800  29.458   4.043  12.069
33407W        W 1801  19.555   8.808  12.086
33408W        W 1802   9.760  26.542  10.547
33409W        W 1803  23.305  32.496  14.963
33410W        W 1804  17.707  38.120  14.993
33411W        W 1805  26.221  10.555  10.849
33412W        W 1806   1.728  13.345   5.004
33413W        W 1807  34.152  23.683  11.030
33414W        W 1808  39.390  38.696   4.355
33415W        W 1809   2.303  18.083   4.188
33416W        W 1810  30.056  17.251  13.093
33417W        W 1811  38.084  29.333  12.550
33418W        W 1812  39.416  10.158   3.145
33419W        W 1813  39.781  15.577  14.551
33420W        W 1814  37.329   2.002   2.763
33421W        W 1815  12.442  34.692  11.934
33422W        W 1816  21.418  30.564   1.968
33423W        W 1817  20.700  40.871   0.478
33424W        W 1818  21.330  42.602   1.750
33425W        W 1819  28.887  29.050  13.498
33426W        W 1820  27.663  27.531   3.723
33427W        W 1821  41.244  10.450  12.879
33428W        W 1822   6.823   3.228   0.838
33429W        W 1823  19.230  13.086  12.326
33430W        W 1824  43.500  18.202  13.480
33431W        W 1825  27.489  34.900   2.883
33432W        W 1826  14.220   3.948  13.069
33433W        W 1827  20.583   9.102  13.894
33434W        W 1828   2.325  41.456  13.949
33435W        W 1829  44.225  13.070  12.074
33436W        W 1830   1.266  17.050   2.216
33437W        W 1831  24.020   7.449  11.204
33438W        W 1832  20.204   5.175  12.283
33439W        W 1833  32.909  10.745   4.680
33440W        W 1834  18.668  25.067   4.083
33441W        W 1835  11.275  12.695  12.006
33442W        W 1836  44.467   0.649  12.092
33443W        W 1837  32.185  21.970   1.323
33444W        W 1838  15.762  29.361  12.961
33445W        W 1839  18.081   9.646  13.987
33446W        W 1840  14.784  15.962   2.286
33447W        W 1841  20.073  32.397   2.716
33448W        W 1842   8.958  36.094   3.252
33449W        W 1843  17.893  36.322  12.531
33450W        W 1844  28.930  26.745  12.905
33451W        W 1845   4.625  32.582   4.893
33452W        W 1846  11.844   1.247  13.312
33453W        W 1847  35.956  14.600   0.427
33454W        W 1848  39.475  12.614  10.442
33455W        W 1849   5.859  21.259   9.928
33456W        W 1850  13.229   9.294   1.179
33457W        W 1851  12.683   0.272   4.478
33458W        W 1852  18.538  31.395   1.307
33459W        W 1853  30.273  20.440   5.104
33460W        W 1854  34.874  44.851   0.855
33461W        W 1855  16.779  12.142  11.537
33462W        W 1856  31.412   8.195   2.245
33463W        W 1857   4.940  37.845   0.310
33464W        W 1858  34.482   5.729  10.650
33465W        W 1859   8.733  28.701   4.670
33466W        W 1860   0.736  23.149   4.443
33467W        W 1861  29.172  42.548   1.491
33468W        W 1862  41.984  41.274  11.209
33469W        W 1863  16.654  32.749   0.412
33470W        W 1864  22.466  33.577  13.874
33471W        W 1865  17.625   9.478   0.296
33472W        W 1866  15.270  42.335   4.965
33473W        W 1867  43.988  30.625  13.050
33474W        W 1868  44.405  30.946   4.077
33475W        W 1869  43.277  38.640   1.349
33476W        W 1870   4.692  35.101   1.646
33477W        W 1871   8.641  27.185  14.249
33478W        W 1872  19.397  13.423  11.127
33479W        W 1873   1.010  16.846  14.971
33480W        W 1874  24.855  13.462  12.547
33481W        W 1875  42.879   4.832   4.997
33482W        W 1876  13.757  39.563  14.982
33483W        W 1877  37.932  43.836  14.897
33484W        W 1878  31.549  43.798   0.740
33485W        W 1879  41.898  18.703  11.159
33486W        W 1880  43.163   5.538  14.021
33487W        W 1881   8.354  21.745   3.700
33488W        W 1882  18.628  28.681   2.328
33489W        W 1883  40.049   3.915   3.134
33490W        W 1884  28.982  10.779   0.024
33491W        W 1885  36.381  44.237   1.428
33492W        W 1886   9.184  41.353  14.019
33493W        W 1887  18.997  32.203  14.398
33494W        W 1888  25.062  37.694  11.907
33495W        W 1889  41.063  25.681   4.583
33496W        W 1890  36.421   2.889   2.021
33497W        W 1891   1.373  35.357  12.921
33498W        W 1892  17.818   5.180  13.999
33499W        W 1893   3.351  43.528  13.791
33500W        W 1894   8.474  33.640  14.811
33501W        W 1895   2.866  25.873   3.176
33502W        W 1896  36.419  21.635  10.987
33503W        W 1897  33.458  24.181   2.246
33504W        W 1898  44.697  34.655  11.920
33505W        W 1899  26.254  28.495  10.746
33506W        W 1900  36.188  22.581  11.543
33507W        W 1901  27.144  17.438   4.173
33508W        W 1902  24.078  31.468   3.154
33509W        W 1903   4.702  28.520  11.144
33510W        W 1904  26.475  26.387   1.060
33511W        W 1905  13.632  30.953  10.516
33512W        W 1906  24.720   5.299  11.350
33513W        W 1907  44.553  26.473   4.651
33514W        W 1908   6.687  16.985   3.898
33515W        W 1909   5.687  26.904   3.246
33516W        W 1910   7.163  37.339   0.349
33517W        W 1911  18.843   5.309  13.108
33518W        W 1912  37.727  42.597  13.101
33519W        W 1913  30.072  10.628  11.178
33520W        W 1914  28.921  34.334   4.153
33521W        W 1915  11.310   6.261  13.139
33522W        W 1916  21.367   9.462   1.758
33523W        W 1917  24.152  21.259  14.310
33524W        W 1918   8.155  21.664   0.332
33525W        W 1919   1.778  30.616   4.163
33526W        W 1920  35.617  29.260   0.376
33527W        W 1921  10.787  35.378   2.703
33528W        W 1922  41.131   2.801   2.760
33529W        W 1923  44.768  39.340   0.811
33530W        W 1924  15.979  36.958  14.283
33531W        W 1925   4.111  44.464  12.498
33532W        W 1926   7.495  12.629  11.460
33533W        W 1927  22.751   1.978  14.086
33534W        W 1928  32.707  27.971  14.787
33535W        W 1929  20.098  22.508   1.271
33536W        W 1930  36.126  29.326   0.475
33537W        W 1931   1.464  21.767  13.039
33538W        W 1932  39.936  41.416   3.907
33539W        W 1933  25.137  31.925  14.796
33540W        W 1934  29.668  13.087   3.930
33541W        W 1935  27.111  24.047  14.315
33542W        W 1936  35.602  30.080   0.793
33543W        W 1937  40.113  36.654   9.770
33544W        W 1938  33.001  37.260  12.476
33545W        W 1939  35.293   3.004   0.810
33546W        W 1940  31.840  41.015  11.169
33547W        W 1941   4.443  33.051   0.344
33548W        W 1942  19.854  12.152  13.615
33549W        W 1943  39.406  44.579  11.048
33550W        W 1944  32.718   1.996   3.663
33551W        W 1945  28.666  27.151  10.720
33552W        W 1946  43.886  12.689  11.827
33553W        W 1947  18.623  33.018   3.806
33554W        W 1948  25.441   4.409   3.132
33555W        W 1949  37.077  30.552  12.644
33556W        W 1950  19.211  15.619  11.994
33557W        W 1951  41.394   7.131  14.004
33558W        W 1952  22.717  19.716  14.940
33559W        W 1953   9.100  36.897  14.805
33560W        W 1954  42.015  31.883   3.752
33561W        W 1955  17.069  22.279   1.090
33562W        W 1956  12.946   5.911  11.261
33563W        W 1957  10.444  32.711   1.632
33564W        W 1958  26.413  44.776   3.624
33565W        W 1959  28.551  20.660  13.046
33566W        W 1960   6.016  32.150   5.004
33567W        W 1961  43.212  38.824   3.063
33568W        W 1962  22.499   9.438  13.430
33569W        W 1963  44.797  12.762  10.678
33570W        W 1964  28.175  39.822  13.002
33571W        W 1965  16.785  28.676  11.983
33572W        W 1966  15.842  23.706   1.593
33573W        W 1967  16.896   5.784   3.613
33574W        W 1968  15.332  41.393  14.542
33575W        W 1969  17.508  41.916   3.812
33576W        W 1970  19.362   5.359  14.919
33577W        W 1971  25.650  27.575   3.641
33578W        W 1972   2.414  10.281   2.771
33579W        W 1973   6.819  26.506   0.836
33580W        W 1974   8.934  32.318   4.629
33581W        W 1975  29.509  25.972   0.271
33582W        W 1976  32.985  21.093   0.512
33583W        W 1977   0.910  19.868   2.807
33584W        W 1978   1.960  34.563  13.603
33585W        W 1979  16.061  44.687  10.779
33586W        W 1980  41.959  33.909   2.853
33587W        W 1981  36.998  33.457  12.041
33588W        W 1982  26.280  33.542   4.054
33589W        W 1983  17.287  12.752   3.565
33590W        W 1984  33.319   5.073  12.927
33591W        W 1985  32.480  28.553   4.563
33592W        W 1986  23.255   8.656  13.473
33593W        W 1987  37.467  37.451   0.740
33594W        W 1988  21.007  39.343  13.143
33595W        W 1989  22.912  27.537  10.969
33596W        W 1990  18.806  20.224   4.090
33597W        W 1991  13.079  43.228  14.069
33598W        W 1992   3.554  20.717   0.843
33599W        W 1993  12.578  39.827  14.466
33600W        W 1994  32.301  20.358  11.604
33601W        W 1995  14.040  42.041   2.676
33602W        W 1996  37.630  37.144  13.897
33603W        W 1997  14.285   8.840   4.596
33604W        W 1998  14.224  40.341   2.344
33605W        W 1999   2.695  24.837  14.591
33606W        W 2000  31.086  23.293   3.698
33607W        W 2001  11.297  30.352  12.925
33608W        W 2002  35.902  26.628   3.137
33609W        W 2003  31.114  42.515  11.950
33610W        W 2004  43.066  30.275   2.642
33611W        W 2005   9.116  31.268   4.698
33612W        W 2006  17.810  39.292   4.429
33613W        W 2007  25.960   9.591   4.122
33614W        W 2008  28.049  22.626  11.970
33615W        W 2009  15.768  34.642   3.403
33616W        W 2010  18.870   4.284   3.393
33617W        W 2011  28.125   4.698   2.686
33618W        W 2012  32.200  26.177  14.099
33619W        W 2013  35.447  19.679  14.044
33620W        W 2014   9.008  37.852  11.136
33621W        W 2015  20.800  12.048  10.652
33622W        W 2016  13.784  21.464  11.271
33623W        W 2017  24.841  18.308   3.245
33624W        W 2018  15.091  29.162  11.498
33625W        W 2019   0.890   0.380  10.831
33626W        W 2020   7.333  12.108  14.797
33627W        W 2021  39.190  12.255   3.225
33628W        W 2022  27.923  26.721   3.276
33629W        W 2023   6.193  39.862  10.432
33630W        W 2024  23.558  43.908   2.893
33631W        W 2025  39.905  31.840   1.245
33632W        W 2026  23.986  17.137   3.369
33633W        W 2027  17.580  12.383  12.816
33634W        W 2028  17.829  20.270   4.139
33635W        W 2029  32.935  32.938   2.712
33636W        W 2030  31.141  33.154  10.756
33637W        W 2031  37.082  42.569  12.553
33638W        W 2032  27.969  27.978   4.481
33639W        W 2033  29.546  14.225   0.443
33640W        W 2034  38.076  20.131   4.245
33641W        W 2035  25.994   7.785  12.598
33642W        W 2036   7.932  20.530  13.867
33643W        W 2037  19.725   7.599  11.492
33644W        W 2038   1.192  11.371  10.805
33645W        W 2039   9.927  27.616   2.986
33646W        W 2040  24.221   9.938   4.559
33647W        W 2041  16.934  43.161  13.840
33648W        W 2042  19.906  15.770  14.300
33649W        W 2043   7.850  42.043  10.611
33650W        W 2044  43.546  22.017  11.951
33651W        W 2045  12.507  15.120   0.001
33652W        W 2046   5.910  29.714   2.779
33653W        W 2047  44.021  27.963   1.942
33654W        W 2048  16.124  41.522  11.043
33655W        W 2049   7.725  18.257   2.358
33656W        W 2050   3.257  18.226  14.424
33657W        W 2051  21.666  28.911   0.450
33658W        W 2052  28.428  10.860   2.177
33659W        W 2053  43.685  19.971   3.111
33660W        W 2054  11.813  15.414   1.470
33661W        W 2055  24.792   0.822   4.608
33662W        W 2056  28.147   8.402   2.256
33663W        W 2057  39.855  40.411   3.747
33664W        W 2058  18.030  15.426  11.586
33665W        W 2059  24.309   3.140   0.675
33666W        W 2060  43.317  38.987   4.656
33667W        W 2061  41.974  42.035  12.565
33668W        W 2062  41.380  10.148   0.681
33669W        W 2063  19.148  30.228   1.887
33670W        W 2064   5.788  15.937  12.100
33671W        W 2065  24.477  11.942  14.851
33672W        W 2066  33.026  20.697   5.032
33673W        W 2067   0.235  21.673   2.727
33674W        W 2068  25.188  17.555   0.204
33675W        W 2069   3.393  17.790   1.861
33676W        W 2070  35.235  35.783   3.151
33677W        W 2071   2.884  23.966  11.674
33678W        W 2072  11.433  15.855  10.912
33679W        W 2073  34.572  18.991   0.206
33680W        W 2074  17.719   2.402  14.474
33681W        W 2075  35.356  16.088  13.367
33682W        W 2076  37.569   2.237   1.648
33683W        W 2077  31.274  33.396  14.833
33684W        W 2078  35.394  35.494  14.383
33685W        W 2079  26.451  25.189   1.935
33686W        W 2080   6.893  27.944   4.246
33687W        W 2081  39.507  20.592   3.248
33688W        W 2082   8.596   2.339   5.064
33689W        W 2083  19.765   6.138  13.117
33690W        W 2084   7.935  28.674   4.286
33691W        W 2085  38.432  44.606  12.960
33692W        W 2086  16.267  44.480   1.421
33693W        W 2087   9.095  13.272  13.443
33694W        W 2088  35.105  18.557   1.313
33695W        W 2089  13.123  24.513  13.378
33696W        W 2090  26.954  23.978   4.337
33697W        W 2091   8.373  28.079  10.893
33698W        W 2092  19.643   9.173  11.182
33699W        W 2093  23.076  23.260  12.335
33700W        W 2094  44.084   5.365  11.593
33701W        W 2095  24.559  36.393  11.069
33702W        W 2096  30.270  38.796   2.168
33703W        W 2097   5.088  34.869  11.224
33704W        W 2098  17.649  25.315  13.348
33705W        W 2099  15.960  13.551   1.547
33706W        W 2100  14.306  29.077  14.894
33707W        W 2101   7.729  18.600  10.400
33708W        W 2102  14.384  36.293   4.159
33709W        W 2103  33.390  12.429   0.042
33710W        W 2104   6.188  43.278  11.642
33711W        W 2105  43.611   9.660  13.286
33712W        W 2106  12.798  37.096   1.180
33713W        W 2107  29.573  29.733   2.731
33714W        W 2108  35.609  20.138  13.876
33715W        W 2109  11.596   9.204   1.060
33716W        W 2110  12.513   8.239   3.751
33717W        W 2111   7.385  33.395   1.775
33718W        W 2112  42.131  14.124   0.431
33719W        W 2113  19.104  32.844  10.822
33720W        W 2114  23.526   0.480  13.340
33721W        W 2115  11.291  38.803  12.310
33722W        W 2116  25.240  42.462   1.491
33723W        W 2117   0.498   0.247   2.935
33724W        W 2118  24.499  31.869   1.325
33725W        W 2119  38.379  29.392   4.279
33726W        W 2120  34.867  39.545  10.815
33727W        W 2121  12.192   6.840   3.404
33728W        W 2122  12.323   4.992  12.118
33729W        W 2123  27.713  41.256  13.901
33730W        W 2124  40.045   3.521  11.692
33731W        W 2125   2.538  31.420   0.082
33732W        W 2126  40.896  37.300  13.432
33733W        W 2127  15.633   9.833  13.937
33734W        W 2128   9.774  29.125   0.147
33735W        W 2129   8.872   8.648   2.839
33736W        W 2130   0.449  27.968  13.495
33737W        W 2131  15.678   0.054  12.339
33738W        W 2132  15.986  30.541  12.073
33739W        W 2133  37.519  30.047   3.088
33740W        W 2134   1.758  21.082   3.626
33741W        W 2135  32.421  36.245  11.904
33742W        W 2136   4.276   5.288   0.619
33743W        W 2137  31.428  13.194   3.722
33744W        W 2138  37.953  26.135  10.730
33745W        W 2139  12.430  22.726   4.656
33746W        W 2140  10.664  33.629   4.947
33747W        W 2141  44.644  21.039  13.578
33748W        W 2142   7.237  16.204   3.352
33749W        W 2143   8.023   3.303   4.139
33750W        W 2144  22.699  37.324  10.516
33751W        W 2145  16.676  34.379  14.097
33752W        W 2146  21.190   8.577   2.780
33753W        W 2147  36.926  27.752   0.785
33754W        W 2148  39.936   5.219   1.701
33755W        W 2149  32.260  34.748   9.962
33756W        W 2150  13.476  32.633  14.147
33757W        W 2151  24.562  33.932  11.569
33758W        W 2152   3.005  32.345  13.515
33759W        W 2153   2.599  16.163  12.882
33760W        W 2154  24.968   2.491  14.836
33761W        W 2155  26.103  31.956   4.527
33762W        W 2156  23.627  33.022  14.603
33763W        W 2157  36.651  21.705   2.590
33764W        W 2158  44.734  14.594   2.801
33765W        W 2159   3.900   6.215   4.924
33766W        W 2160   8.723  11.422   1.347
33767W        W 2161  31.628  12.503   0.260
33768W        W 2162  39.111  13.092   1.686
33769W        W 2163  43.423   7.226  14.496
33770W        W 2164  32.695  13.824  14.441
33771W        W 2165  20.641  16.796   3.113
33772W        W 2166  44.237  20.737  14.824
33773W        W 2167  39.393  42.832  13.363
33774W        W 2168   6.754  18.949   4.659
33775W        W 2169  14.307  33.409   3.067
33776W        W 2170  28.726   3.483  11.052
33777W        W 2171  25.771  43.920   0.658
33778W        W 2172  38.800  43.574  14.131
33779W        W 2173  24.593   3.287   1.891
33780W        W 2174   4.620   5.263  14.329
33781W        W 2175  24.060   1.442  11.300
33782W        W 2176   0.776  35.564   2.180
33783W        W 2177  27.916   4.935   4.587
33784W        W 2178  20.113  39.339  12.890
33785W        W 2179  20.874  41.871   4.969
33786W        W 2180  15.847  17.761  11.277
33787W        W 2181  23.844   2.836  11.922
33788W        W 2182  22.013  37.617  14.277
33789W        W 2183  17.204  36.115  14.072
33790W        W 2184  22.555  26.186  13.327
33791W        W 2185   7.834  15.424   3.714
33792W        W 2186  15.001  12.330   1.865
33793W        W 2187   1.937   9.294   0.444
33794W        W 2188  34.475  32.040   3.117
33795W        W 2189  21.645  29.685   3.760
33796W        W 2190  17.234  25.102  14.999
33797W        W 2191   9.975  39.462  11.516
33798W        W 2192  12.731  27.589   3.318
33799W        W 2193  22.638  23.985  13.460
33800W        W 2194  23.451   2.665  12.647
33801W        W 2195   0.451  31.245   0.220
33802W        W 2196  41.233  14.699  13.370
33803W        W 2197   7.806  35.988  12.960
33804W        W 2198  17.295  10.173  13.014
33805W        W 2199  25.577  43.426  14.499
33806W        W 2200   9.203  15.565  10.760
33807W        W 2201  15.063  40.314  10.725
33808W        W 2202   2.366   6.660   2.277
33809W        W 2203   8.290  30.197   1.752
33810W        W 2204  20.801  43.853   0.650
33811W        W 2205  22.715   7.802  11.104
33812W        W 2206   4.094   8.836  10.518
33813W        W 2207   5.303  18.203   3.633
33814W        W 2208   8.488  27.016   4.249
33815W        W 2209  41.371  43.893  12.675
33816W        W 2210  34.857  19.232  14.445
33817W        W 2211  43.834  24.649   2.151
33818W        W 2212  41.449  30.725   4.624
33819W        W 2213  43.885  44.743  12.870
33820W        W 2214  28.612  28.699   1.954
33821W        W 2215  34.304  39.554  11.536
33822W        W 2216  39.468  42.000   3.252
33823W        W 2217   4.727  10.375  12.512
33824W        W 2218  40.774   6.691  11.872
33825W        W 2219  19.627  14.800  12.864
33826W        W 2220   6.845  42.810   2.334
33827W        W 2221  17.815   7.196   3.982
33828W        W 2222  24.755  19.560   4.750
33829W        W 2223  40.844   4.728   1.695
33830W        W 2224  23.017  34.117  13.488
33831W        W 2225  33.558   2.295   2.705
33832W        W 2226  19.009  35.443  14.682
33833W        W 2227   7.865  26.255   4.006
33834W        W 2228   9.166   2.509   4.223
33835W        W 2229  10.615  10.843  12.408
33836W        W 2230  28.526  16.676   4.028
33837W        W 2231  37.349  26.467   4.981
33838W        W 2232  10.352  11.626  11.204
33839W        W 2233  20.057  11.337  12.823
33840W        W 2234  26.428  11.951   4.872
33841W        W 2235   5.533  24.285  11.824
33842W        W 2236  27.876  19.483   3.309
33843W        W 2237  32.395  10.361  13.873
33844W        W 2238   1.179  27.196   3.560
33845W        W 2239  25.023   9.898  14.267
33846W        W 2240   1.435  30.215   3.276
33847W        W 2241  16.631  26.078   2.217
33848W        W 2242  14.811  42.483  13.495
33849W        W 2243  26.770   4.443  12.072
33850W        W 2244  21.091   1.405  11.137
33851W        W 2245  17.716  18.449   4.570
33852W        W 2246   5.787  22.856   2.986
33853W        W 2247   7.599   5.423   4.672
33854W        W 2248  15.805  12.770  10.344
33855W        W 2249  20.566  17.623   3.685
33856W        W 2250   8.297  26.223   3.687
33857W        W 2251  32.143  11.127   2.149
33858W        W 2252  39.743  31.494   2.652
33859W        W 2253  33.066  17.379   4.850
33860W        W 2254  16.112   9.851   4.258
33861W        W 2255  42.252  28.859  14.287
33862W        W 2256  37.984  19.098   3.148
33863W        W 2257  44.737  36.147  10.659
33864W        W 2258  29.705   7.739  14.768
33865W        W 2259   0.874  11.469   2.295
33866W        W 2260  27.047  21.123   5.247
33867W        W 2261  21.569  20.813  14.737
33868W        W 2262  13.315  22.781  11.153
33869W        W 2263  40.435  40.399  13.861
33870W        W 2264  11.220   8.967   4.918
33871W        W 2265  26.372  23.723   3.549
33872W        W 2266  35.344  16.125   2.802
33873W        W 2267  10.240  16.678   0.346
33874W        W 2268  33.057  28.942   1.917
33875W        W 2269   3.191   2.437   3.624
33876W        W 2270  40.774  32.624  14.021
33877W        W 2271  27.159  17.823  11.981
33878W        W 2272  19.312   1.237   1.310
33879W        W 2273  39.643  27.493  11.231
33880W        W 2274  24.164  23.604  10.939
33881W        W 2275   0.033  12.288  10.676
33882W        W 2276  11.873  35.062   1.877
33883W        W 2277  38.062  42.007  14.328
33884W        W 2278   1.762  42.828   1.730
33885W        W 2279  23.226  33.528  10.743
33886W        W 2280  42.086  44.126  10.774
33887W        W 2281   8.966  11.500  11.590
33888W        W 2282   5.459  13.597  11.173
33889W        W 2283  11.397  34.270  13.539
33890W        W 2284   7.895  41.512   4.568
33891W        W 2285  41.795  33.466   4.325
33892W        W 2286  41.579  31.574   0.453
33893W        W 2287  40.049  10.070   4.351
33894W        W 2288   4.318   2.359   3.084
33895W        W 2289  15.104  37.521  14.249
33896W        W 2290  26.592  18.450   0.949
33897W        W 2291  23.610  16.307   3.303
33898W        W 2292  36.565  29.853   4.702
33899W        W 2293  13.624  34.384  10.548
33900W        W 2294   3.637  18.231  13.608
33901W        W 2295   5.907  19.638   1.880
33902W        W 2296   3.743  36.400   4.892
33903W        W 2297   6.447  18.536  11.066
33904W        W 2298  12.661  41.929  12.005
33905W        W 2299  41.036  33.562  12.968
33906W        W 2300  10.253  38.569   4.267
33907W        W 2301  20.539  27.439   0.246
33908W        W 2302   0.984  15.727  12.108
33909W        W 2303  20.346  27.112  11.401
33910W        W 2304  13.772  26.199  10.664
33911W        W 2305  38.810   5.182  11.281
33912W        W 2306  44.514  17.420  10.035
33913W        W 2307  31.068  24.955  13.043
33914W        W 2308  24.181  25.248  14.971
33915W        W 2309  36.398  32.414  11.505
33916W        W 2310  12.669   6.702   9.595
33917W        W 2311  22.319  16.802  10.510
33918W        W 2312  29.414   9.737   4.739
33919W        W 2313   7.462  21.265  13.734
33920W        W 2314  34.505  38.249   3.562
33921W        W 2315  23.222  44.304   1.767
33922W        W 2316  31.892  15.556  11.819
33923W        W 2317  43.030  21.626  12.558
33924W        W 2318  20.947  28.225   5.447
33925W        W 2319  33.206  15.083   0.213
33926W        W 2320  38.983  40.794  10.784
33927W        W 2321  29.226   9.920  14.407
33928W        W 2322   9.375  21.409  14.340
33929W        W 2323  22.103  27.110  13.820
33930W        W 2324   6.581  12.306  10.804
33931W        W 2325   2.929  13.283   9.769
33932W        W 2326  34.588   7.284   4.190
33933W        W 2327  29.201  20.461   2.923
33934W        W 2328   5.148  43.883   2.320
33935W        W 2329  30.524  16.986   2.716
33936W        W 2330  37.558  21.709   0.503
33937W        W 2331  35.493  40.044   1.931
33938W        W 2332  15.834  42.160  11.705
33939W        W 2333   8.687  29.618   3.686
33940W        W 2334  30.771  17.439   4.325
33941W        W 2335  31.274  44.556   5.062
33942W        W 2336   0.970  42.184  13.229
33943W        W 2337  32.062  30.322   2.410
33944W        W 2338  24.677   5.791  11.519
33945W        W 2339   4.026  32.143  11.680
33946W        W 2340  34.037   8.876   0.434
33947W        W 2341  18.472  17.838   1.802
33948W        W 2342  25.743  26.611  13.991
33949W        W 2343  35.523  36.042   2.674
33950W        W 2344  23.749   9.570   9.869
33951W        W 2345  40.909  26.200   2.653
33952W        W 2346  41.048  36.163  14.275
33953W        W 2347   8.623   9.792   0.482
33954W        W 2348   9.749  42.380   0.851
33955W        W 2349  33.992  15.170  10.613
33956W        W 2350   9.258   7.856   3.647
33957W        W 2351  41.982  38.471  12.466
33958W        W 2352  26.832   9.463   1.157
33959W        W 2353  42.231  41.889   1.319
33960W        W 2354   9.360  24.783   3.254
33961W        W 2355  32.016  37.656  14.352
33962W        W 2356   6.106  12.667   0.956
33963W        W 2357  44.202  29.565   4.066
33964W        W 2358  24.281  17.595   2.597
33965W        W 2359   2.899  36.607   3.809
33966W        W 2360  17.309  31.934  11.612
33967W        W 2361  42.538   7.798   4.521
33968W        W 2362  36.670  16.982   0.836
33969W        W 2363  13.344  24.428   2.618
33970W        W 2364  43.657   2.523  13.031
33971W        W 2365  38.589  31.585   1.792
33972W        W 2366  19.371   0.910  11.082
33973W        W 2367   5.507   3.292  11.629
33974W        W 2368  18.113  25.540  12.136
33975W        W 2369  33.558  39.789   0.023
33976W        W 2370  17.799  39.465  11.587
33977W        W 2371   5.674  33.341  11.138
33978W        W 2372  43.993  40.416  10.809
33979W        W 2373  30.126   9.220   3.111
33980W        W 2374   4.294   9.541  12.330
33981W        W 2375  36.982  19.546   2.721
33982W        W 2376   2.032  36.819   4.463
33983W        W 2377  35.624  24.353  14.675
33984W        W 2378   9.404  10.397  11.554
33985W        W 2379  13.894  20.740  14.472
33986W        W 2380  34.969  31.045  10.983
33987W        W 2381  35.162  44.201   4.140
33988W        W 2382  37.966  16.438   0.194
33989W        W 2383  33.491  10.460   3.118
33990W        W 2384   6.262  29.603   0.820
33991W        W 2385  36.056   2.296   4.555
33992W        W 2386   7.979  24.644   1.825
33993W        W 2387  22.113  22.980  14.903
33994W        W 2388   8.824  33.120  14.920
33995W        W 2389  35.126   6.789  13.503
33996W        W 2390  29.236  44.917  11.206
33997W        W 2391  14.173  42.302  12.774
33998W        W 2392  14.157  34.886   2.441
33999W        W 2393  21.168  33.152  12.266
34000W        W 2394  23.389  19.292  11.993
34001W        W 2395  30.574  26.314  14.480
34002W        W 2396  28.884  28.420  11.983
34003W        W 2397  13.228  24.926  10.824
34004W        W 2398  28.033  11.277  10.759
34005W        W 2399  26.951  35.910  14.768
34006W        W 2400  26.077  15.335  14.038
34007W        W 2401   2.703  32.033   3.221
34008W        W 2402  14.675  21.627   0.823
34009W        W 2403  23.521  28.004   2.824
34010W        W 2404  26.457  23.221   2.796
34011W        W 2405   2.965  24.758   5.243
34012W        W 2406  22.166  27.890  10.719
34013W        W 2407  30.030  34.541  11.230
34014W        W 2408  44.446  23.022  13.887
34015W        W 2409  24.734  10.183   2.824
34016W        W 2410  17.156  33.308   3.034
34017W        W 2411  14.257  11.132   1.669
34018W        W 2412  12.344  24.120  10.840
34019W        W 2413   3.350  36.577   4.557
34020W        W 2414   1.269  38.374   3.813
34021W        W 2415  12.420   6.059   3.283
34022W        W 2416  18.284  14.200   3.644
34023W        W 2417  20.720  15.574   3.309
34024W        W 2418  24.593  32.713  11.095
34025W        W 2419  16.675  21.797  13.124
34026W        W 2420  38.511  19.580   2.880
34027W        W 2421  19.214  41.544  13.034
34028W        W 2422   9.960  22.712   0.866
34029W        W 2423   4.944  19.741   4.074
34030W        W 2424   4.817  29.794  12.446
34031W        W 2425  23.756  12.895  13.502
34032W        W 2426   1.458  41.728  11.111
34033W        W 2427  42.478  23.015  11.558
34034W        W 2428  40.919  44.504  12.129
34035W        W 2429  30.102  20.193  12.093
34036W        W 2430  30.844   8.947  14.905
34037W        W 2431  30.879  34.945   0.741
34038W        W 2432  37.442  42.964  14.037
34039W        W 2433  38.442  17.402   0.336
34040W        W 2434   9.765  42.544   3.423
34041W        W 2435  21.497   6.901  12.006
34042W        W 2436  39.378   7.826   4.189
34043W        W 2437  12.329  21.600  12.097
34044W        W 2438   4.403  30.913  11.821
34045W        W 2439   9.720   8.254   3.777
34046W        W 2440   0.899   3.791   3.556
34047W        W 2441  10.366  41.870   3.250
34048W        W 2442   6.334   8.802  11.491
34049W        W 2443  21.021   2.215   2.766
34050W        W 2444  23.101   3.969   1.858
34051W        W 2445   6.898  37.504   1.709
34052W        W 2446   6.817  16.243  13.004
34053W        W 2447   1.345  30.686  14.354
34054W        W 2448  14.687  15.613   3.695
34055W        W 2449   2.804  32.387   3.648
34056W        W 2450  34.974  35.514  10.628
34057W        W 2451   4.541  19.416   5.111
34058W        W 2452  31.078   6.584  14.811
34059W        W 2453  16.096  17.292   3.590
34060W        W 2454  31.698  31.141  12.683
34061W        W 2455   3.928   9.319  12.608
34062W        W 2456   8.602  42.981  12.131
34063W        W 2457  21.254  33.596   3.318
34064W        W 2458  43.358  21.638   1.681
34065W        W 2459  42.524  25.553   2.272
34066W        W 2460  44.352  20.268   4.555
34067W        W 2461  14.679  37.516  14.584
34068W        W 2462   6.409  11.287  11.586
34069W        W 2463  29.587  32.766   1.957
34070W        W 2464   1.807   0.129   0.275
34071W        W 2465  33.271   0.952  10.103
34072W        W 2466  43.059  42.054  12.979
34073W        W 2467  29.670  19.814   0.286
34074W        W 2468  44.469  13.743   4.627
34075W        W 2469  24.786  23.626   1.255
34076W        W 2470  33.755  41.191  13.738
34077W        W 2471  42.821  43.910   4.365
34078W        W 2472  13.718  11.795   1.323
34079W        W 2473   6.174  37.547  13.956
34080W        W 2474  33.431  44.935   3.188
34081W        W 2475   4.147  11.668  11.183
34082W        W 2476  31.777  32.420   3.101
34083W        W 2477   8.515   8.198   1.272
34084W        W 2478   5.641  35.092   1.326
34085W        W 2479   3.392  33.128  13.432
34086W        W 2480  21.633  10.294  12.000
34087W        W 2481   6.774  19.114  12.640
34088W        W 2482  14.661   2.267   0.227
34089W        W 2483   3.297  44.944  12.813
34090W        W 2484  17.543  18.243  11.167
34091W        W 2485  13.833  24.205  11.165
34092W        W 2486  10.373  18.250   4.693
34093W        W 2487   9.971  14.336  10.996
34094W        W 2488   4.499  12.488   5.076
34095W        W 2489  37.479  21.892   3.242
34096W        W 2490  43.958  31.908   4.105
34097W        W 2491  44.782  43.440  10.806
34098W        W 2492  41.531  41.924  11.002
34099W        W 2493  32.991  36.337  12.847
34100W        W 2494   0.744   7.215  10.668
34101W        W 2495  35.343   7.879   3.220
34102W        W 2496  28.191  23.068   0.581
34103W        W 2497  30.351   8.787   3.306
34104W        W 2498  37.765  21.247  12.397
34105W        W 2499   8.701  17.122  10.670
34106W        W 2500   3.028  40.051   1.709
34107W        W 2501  32.072  11.719  13.819
34108W        W 2502  30.131   6.142   2.157
34109W        W 2503   4.330  37.345  13.538
34110W        W 2504   4.838  11.316   2.626
34111W        W 2505  24.980   6.476   4.067
34112W        W 2506  28.442   3.499   1.839
34113W        W 2507  28.652  10.401  14.898
34114W        W 2508  44.563  33.923   0.802
34115W        W 2509  40.954  12.848   2.312
34116W        W 2510  23.063  20.793  13.016
34117W        W 2511   1.803  30.067   3.610
34118W        W 2512  24.141  16.721   3.115
34119W        W 2513  12.559  19.668  12.998
34120W        W 2514   4.951  21.691  14.316
34121W        W 2515  22.541  40.574   3.635
34122W        W 2516  44.475  14.598   4.235
34123W        W 2517   8.132  29.155   2.639
34124W        W 2518  30.430  25.683   3.378
34125W        W 2519  33.805  44.373  14.306
34126W        W 2520  13.598  13.496  12.676
34127W        W 2521   8.549   4.699   5.213
34128W        W 2522  20.198  23.329  13.977
34129W        W 2523  15.473  43.202  11.888
34130W        W 2524  19.499  27.415  13.006
34131W        W 2525   0.875   1.888  10.502
34132W        W 2526  11.677  19.733   4.640
34133W        W 2527  26.698  14.732   1.226
34134W        W 2528  41.287  21.270  12.332
34135W        W 2529   5.341  30.848  12.852
34136W        W 2530  12.389  17.959   3.801
34137W        W 2531   0.365  35.170   1.731
34138W        W 2532  29.503   3.177  14.959
34139W        W 2533  10.290   1.970   4.128
34140W        W 2534  35.096  19.755  12.227
34141W        W 2535  11.340  41.054   1.842
34142W        W 2536  37.058  41.263   4.333
34143W        W 2537  32.671  37.797  10.394
34144W        W 2538  42.816  10.248   0.856
34145W        W 2539  30.471  10.273   5.109
34146W        W 2540  29.340  28.111   1.247
34147W        W 2541  43.700  21.457  11.177
34148W        W 2542  23.118  33.171   1.949
34149W        W 2543  12.374  30.998   2.448
34150W        W 2544  25.696  23.049  11.582
34151W        W 2545   9.109   5.143   5.039
34152W        W 2546  35.824  20.213   2.858
34153W        W 2547  23.580   2.046  10.614
34154W        W 2548   2.502  44.482   4.570
34155W        W 2549   9.720  23.470  14.326
34156W        W 2550  21.740  24.743   4.180
34157W        W 2551  22.114  27.397  12.040
34158W        W 2552  26.154   3.892  13.365
34159W        W 2553   3.715   2.596  10.285
34160W        W 2554  25.271  33.652   0.273
34161W        W 2555  35.442  18.208  13.823
34162W        W 2556   2.364  13.169   3.275
34163W        W 2557  14.334  41.736   2.106
34164W        W 2558   1.501  14.086  12.879
34165W        W 2559  38.505  16.285   0.874
34166W        W 2560   9.495   4.880   4.093
34167W        W 2561   6.945  38.505   1.318
34168W        W 2562  32.757  36.365  13.860
34169W        W 2563  26.949  38.099   3.604
34170W        W 2564  38.249  28.054  13.013
34171W        W 2565  17.216   5.300  11.037
34172W        W 2566  19.292  28.682  13.507
34173W        W 2567  12.233  39.614   2.310
34174W        W 2568  32.452  38.579  13.437
34175W        W 2569  14.318  13.391  11.348
34176W        W 2570  41.808  44.998  14.094
34177W        W 2571   9.565  38.513  13.807
34178W        W 2572  35.433  12.235   0.575
34179W        W 2573  33.223  13.124  10.554
34180W        W 2574  44.561  44.102   4.589
34181W        W 2575   7.419  36.967  12.014
34182W        W 2576  21.523  43.717  13.304
34183W        W 2577   2.688  43.263   4.162
34184W        W 2578   3.198   3.353   1.773
34185W        W 2579  33.506   8.608   4.226
34186W        W 2580  15.912  19.778  14.967
34187W        W 2581  36.394  38.107  11.451
34188W        W 2582  29.557  12.250  11.559
34189W        W 2583  42.528  44.433  12.914
34190W        W 2584  24.019  10.907   4.494
34191W        W 2585  11.313  38.462  11.477
34192W        W 2586   9.403  21.559   4.250
34193W        W 2587   9.362  24.571   3.733
34194W        W 2588  29.726  30.481   4.617
34195W        W 2589  33.645  23.496   2.292
34196W        W 2590  31.258  23.945  13.942
34197W        W 2591   1.542   9.357  11.453
34198W        W 2592  22.708  38.836  11.225
34199W        W 2593  28.224  23.388   2.299
34200W        W 2594  40.419  23.240  12.768
34201W        W 2595   6.288  19.418  11.347
34202W        W 2596  14.851   8.400   0.817
34203W        W 2597  24.648  19.396  11.460
34204W        W 2598   4.280  39.001   1.691
34205W        W 2599  23.920  30.391  11.930
34206W        W 2600  21.333   1.947  14.484
34207W        W 2601  32.540   2.232  13.503
34208W        W 2602  36.390  13.040   0.512
34209W        W 2603  11.895  37.997  13.541
34210W        W 2604  12.617  31.390  14.088
34211W        W 2605  19.265   4.285   2.451
34212W        W 2606   6.686   0.778   1.988
34213W        W 2607  30.531  42.255  13.208
34214W        W 2608  25.117  18.711   1.411
34215W        W 2609  16.709  36.533  13.366
34216W        W 2610   7.165  22.192   1.694
34217W        W 2611  16.558  25.242  13.416
34218W        W 2612  25.500  43.293   0.903
34219W        W 2613   5.348  42.257  10.871
34220W        W 2614   7.107   7.047   2.746
34221W        W 2615  12.413  43.303  13.419
34222W        W 2616  30.614  28.478   2.068
34223W        W 2617  39.481  16.798   2.954
34224W        W 2618  17.244  12.458   4.874
34225W        W 2619  29.263   8.662  11.552
34226W        W 2620   0.270   9.389   1.228
34227W        W 2621  29.279  43.954   4.108
34228W        W 2622   6.661  14.148   0.213
34229W        W 2623  39.580  36.180  14.922
34230W        W 2624   4.822  25.976   2.614
34231W        W 2625  11.842  26.568  14.783
34232W        W 2626  18.637  25.692  12.046
34233W        W 2627  25.259  26.583  11.587
34234W        W 2628  12.780  14.672  10.992
34235W        W 2629   8.924  26.763   4.183
34236W        W 2630   2.391   9.422  11.568
34237W        W 2631   8.187  35.034   1.201
34238W        W 2632  33.713  39.091   2.229
34239W        W 2633  30.899  35.858   1.784
34240W        W 2634  10.149   3.531  10.748
34241W        W 2635   1.916  30.033  11.955
34242W        W 2636   0.361  24.713  12.352
34243W        W 2637  27.248   9.727   0.999
34244W        W 2638  44.458  44.016  12.888
34245W        W 2639  19.100  22.528  14.486
34246W        W 2640  30.508  32.131  14.330
34247W        W 2641   7.742   5.928  14.987
34248W        W 2642  26.428  19.534   0.497
34249W        W 2643  30.970  20.559  11.998
34250W        W 2644  36.136  16.537  11.524
34251W        W 2645   4.204  41.342  11.407
34252W        W 2646   1.772  17.770   1.699
34253W        W 2647  22.975  20.168   1.845
34254W        W 2648   2.186  27.003  11.017
34255W        W 2649   9.173  23.713   4.139
34256W        W 2650  31.626  34.253  12.407
34257W        W 2651  40.560  39.279   2.803
34258W        W 2652  11.542  22.038  12.589
34259W        W 2653  27.273  22.815   0.517
34260W        W 2654  26.990  23.215  11.724
34261W        W 2655  31.662   2.728  14.974
34262W        W 2656  33.923  16.092   4.163
34263W        W 2657  13.422  15.089  14.007
34264W        W 2658   8.275  17.765   1.913
34265W        W 2659  21.765  27.133  14.886
34266W        W 2660   1.692  44.822  11.059
34267W        W 2661  12.303   9.939   4.061
34268W        W 2662  25.659  43.845  14.147
34269W        W 2663  12.383  26.509   0.678
34270W        W 2664  42.889  16.710  14.718
34271W        W 2665   1.921  21.042  11.027
34272W        W 2666  38.095  16.569   0.667
34273W        W 2667   8.228  31.275  13.413
34274W        W 2668  38.903  32.900  10.955
34275W        W 2669  14.032   2.696  12.609
34276W        W 2670  22.609  38.716   4.115
34277W        W 2671  13.822  44.020  11.485
34278W        W 2672  12.225  21.177   1.999
34279W        W 2673  18.692  27.433   1.798
34280W        W 2674  24.975  38.083  14.929
34281W        W 2675  29.348  25.733  10.419
34282W        W 2676  10.892  12.800  14.312
34283W        W 2677  22.891  18.190   2.098
34284W        W 2678   1.120  24.617   4.681
34285W        W 2679  25.603  22.272  10.552
34286W        W 2680  16.691   7.152  12.552
34287W        W 2681   6.657  26.065  11.618
34288W        W 2682   3.592  37.244   2.791
34289W        W 2683  22.415  39.356   4.733
34290W        W 2684  35.118   3.443  13.509
34291W        W 2685  21.265  23.362   2.827
34292W        W 2686   8.564  30.691   4.391
34293W        W 2687  34.873  12.908   1.783
34294W        W 2688  38.986  14.623   3.208
34295W        W 2689  30.719   8.910   1.409
34296W        W 2690  20.524   9.897  11.668
34297W        W 2691  26.667   9.342  10.956
34298W        W 2692  17.223  30.660   4.896
34299W        W 2693  34.284  39.548  12.555
34300W        W 2694  44.260  44.951   1.026
34301W        W 2695  39.044  26.231  11.592
34302W        W 2696   5.834  42.571  12.076
34303W        W 2697  23.977   0.406   4.902
34304W        W 2698   2.313   5.424   3.593
34305W        W 2699  41.656  19.730   4.250
34306W        W 2700  37.104  25.946  14.678
34307W        W 2701  31.137  28.949   0.420
34308W        W 2702  29.154  44.501   4.527
34309W        W 2703  17.473  17.347  14.431
34310W        W 2704  11.736  24.655  13.472
34311W        W 2705   9.782   0.127  14.112
34312W        W 2706  23.136  28.686   0.466
34313W        W 2707   4.258  16.011   2.763
34314W        W 2708  40.285   4.214   2.392
34315W        W 2709  21.393  32.543   2.242
34316W        W 2710  21.717  40.281  10.865
34317W        W 2711  32.508  44.778  11.178
34318W        W 2712   8.943   4.241   1.775
34319W        W 2713  26.072   8.359   2.202
34320W        W 2714  18.661  14.600  11.428
34321W        W 2715  32.593  16.262  12.944
34322W        W 2716  32.335   6.148   3.673
34323W        W 2717  35.265  28.530  11.457
34324W        W 2718   5.905  15.580  13.936
34325W        W 2719  34.984  30.215   4.265
34326W        W 2720  43.401  18.730   4.452
34327W        W 2721  14.357  20.365   0.224
34328W        W 2722  27.683  14.298   4.323
34329W        W 2723   7.652  43.421   2.989
34330W        W 2724  16.722  31.516   3.928
34331W        W 2725  17.011   4.805  12.025
34332W        W 2726  18.288  40.602   0.272
34333W        W 2727  25.165   9.711  14.847
34334W        W 2728  22.641  35.503  11.496
34335W        W 2729  33.251  17.683   4.024
34336W        W 2730  13.927  34.506   1.581
34337W        W 2731  28.465  26.144   1.861
34338W        W 2732  28.478  13.142   0.806
34339W        W 2733  39.780  21.613  11.709
34340W        W 2734  36.803   7.944   1.277
34341W        W 2735  13.007   3.272   4.077
34342W        W 2736  37.820  21.799   0.051
34343W        W 2737  44.849  13.168  11.391
34344W        W 2738  36.616  42.928   5.048
34345W        W 2739   6.623  42.050  11.672
34346W        W 2740  30.905  39.028   1.938
34347W        W 2741  18.161  36.500  14.473
34348W        W 2742  27.685  18.969   1.666
34349W        W 2743   0.264  40.926  11.356
34350W        W 2744  27.438  10.212   2.364
34351W        W 2745   2.499  36.613   1.952
34352W        W 2746  40.999  10.813   0.919
34353W        W 2747   4.357  42.341   2.746
34354W        W 2748   8.100  41.079  13.027
34355W        W 2749  15.999   7.699  11.619
34356W        W 2750  19.238  23.982   3.968
34357W        W 2751  37.008  43.902  14.883
34358W        W 2752  20.715  30.920  14.223
34359W        W 2753  20.717   5.783   2.144
34360W        W 2754   3.803  21.982  14.758
34361W        W 2755  16.450  17.049   2.645
34362W        W 2756  36.540  44.985   0.742
34363W        W 2757  19.659  13.662   4.448
34364W        W 2758  28.119  14.277   3.070
34365W        W 2759   7.650  40.844  12.921
34366W        W 2760   9.344   6.312  14.376
34367W        W 2761  26.443  33.700   0.394
34368W        W 2762  14.908  16.041  11.981
34369W        W 2763   9.653  15.049   3.612
34370W        W 2764  12.875  16.324  14.045
34371W        W 2765  40.324  13.775   1.740
34372W        W 2766   0.680   6.876  11.945
34373W        W 2767  17.208   0.255  14.479
34374W        W 2768  29.087  10.153   4.678
34375W        W 2769   1.424  13.347  14.869
34376W        W 2770  25.441  34.358  11.997
34377W        W 2771   9.027  25.257  13.338
34378W        W 2772  20.237  21.235   3.627
34379W        W 2773  35.359  14.651   4.366
34380W        W 2774  35.586  31.380  13.438
34381W        W 2775  16.749  40.980  11.194
34382W        W 2776  23.031  39.247  12.959
34383W        W 2777  21.448  27.688   3.871
34384W        W 2778   9.819  23.521   3.192
34385W        W 2779   0.824   3.758   0.465
34386W        W 2780  15.930  21.806  13.281
34387W        W 2781  25.844  39.803  13.394
34388W        W 2782  37.059  21.246  14.023
34389W        W 2783  23.721  35.470  13.528
34390W        W 2784   5.511  35.582  13.784
34391W        W 2785  24.548  40.362  14.721
34392W        W 2786   9.501  26.470  11.173
34393W        W 2787   4.389   9.994  13.773
34394W        W 2788  25.276  43.829  11.075
34395W        W 2789   8.157  40.038   0.285
34396W        W 2790  16.259  30.532   2.326
34397W        W 2791   1.912   2.547  11.514
34398W        W 2792  15.564  38.256  12.978
34399W        W 2793  25.401   4.854  11.115
34400W        W 2794  22.501  15.478  14.978
34401W        W 2795  38.418   3.216   2.181
34402W        W 2796   1.823  38.365  14.894
34403W        W 2797  21.461  25.710  11.928
34404W        W 2798  28.871  28.189  12.503
34405W        W 2799  21.221  38.925  14.394
34406W        W 2800  42.114  36.839  12.604
34407W        W 2801  32.658  43.332  14.564
34408W        W 2802   8.963  21.556  11.835
34409W        W 2803  24.169  27.886  13.321
34410W        W 2804  37.023  18.523  10.583
34411W        W 2805  19.087  44.024   0.736
34412W        W 2806  21.506  30.925   4.250
34413W        W 2807  12.837  28.559  11.962
34414W        W 2808  23.282   0.530   0.462
34415W        W 2809  41.817   5.235   1.367
34416W        W 2810  34.884  30.140   0.244
34417W        W 2811  25.744  28.540   1.780
34418W        W 2812   4.250  22.162  11.573
34419W        W 2813  38.491  21.813  12.013
34420W        W 2814  30.169  23.736   4.647
34421W        W 2815  12.778  28.539   2.159
34422W        W 2816  12.241  21.726   0.824
34423W        W 2817  43.280   7.636  10.840
34424W        W 2818  31.397  29.877   3.652
34425W        W 2819  40.945  16.884  12.997
34426W        W 2820   1.740  38.426   3.559
34427W        W 2821  16.212   6.226   1.720
34428W        W 2822  39.907  10.914   0.120
34429W        W 2823   3.817  27.164   2.799
34430W        W 2824  40.112  19.356   3.242
34431W        W 2825  18.264  30.425   4.035
34432W        W 2826  36.569  17.153  11.870
34433W        W 2827  24.728   5.878  12.619
34434W        W 2828   0.035  37.429   1.293
34435W        W 2829  19.330  20.238   3.351
34436W        W 2830  30.963  35.395   1.547
34437W        W 2831  19.769  40.108  14.536
34438W        W 2832  27.581  19.802   2.401
34439W        W 2833   2.785  27.108  11.143
34440W        W 2834   7.943   5.251   4.298
34441W        W 2835  10.902  33.023   2.480
34442W        W 2836  10.200  36.809   3.614
34443W        W 2837  29.594   2.719  14.717
34444W        W 2838  43.841  31.933  11.194
34445W        W 2839  35.391  34.333   2.145
34446W        W 2840  10.244  35.402   0.848
34447W        W 2841  14.246  23.404   4.089
34448W        W 2842  27.228  17.997  10.861
34449W        W 2843  42.787  29.685   1.936
34450W        W 2844  41.362  22.653   3.168
34451W        W 2845  27.921  43.354   4.631
34452W        W 2846  33.418  39.468   1.335
34453W        W 2847  37.687  18.336  12.882
34454W        W 2848  18.195   2.743  11.869
34455W        W 2849   1.369  39.106   1.699
34456W        W 2850   8.120  10.305   1.796
34457W        W 2851  22.569  19.836  14.105
34458W        W 2852  17.851  22.236  12.369
34459W        W 2853  18.408  43.027   3.146
34460W        W 2854  17.718  35.385   3.740
34461W        W 2855   2.409  12.801  11.258
34462W        W 2856   4.828  40.912   4.981
34463W        W 2857  38.926  17.341   0.980
34464W        W 2858  38.347  10.778   2.881
34465W        W 2859   1.790  21.987   4.066
34466W        W 2860   9.898  10.397  12.328
34467W        W 2861  16.805   2.284  13.957
34468W        W 2862  16.153  34.331  11.600
34469W        W 2863  21.024  10.072  11.531
34470W        W 2864   3.205  18.926  10.820
34471W        W 2865   1.174  16.558  14.560
34472W        W 2866  12.496  17.238  10.271
34473W        W 2867  24.710   7.825   4.331
34474W        W 2868  35.786  15.274   1.692
34475W        W 2869   1.858  19.531  11.995
34476W        W 2870  16.062  31.143   3.736
34477W        W 2871  10.769  31.637  12.574
34478W        W 2872  30.631  18.593  13.521
34479W        W 2873  32.100  25.799  11.702
34480W        W 2874  28.795  37.377   4.793
34481W        W 2875  44.311  15.335  11.196
34482W        W 2876  28.503  37.799   2.248
34483W        W 2877  29.926  29.888   2.339
34484W        W 2878  21.194   2.422  13.398
34485W        W 2879  13.895  36.056  12.925
34486W        W 2880  37.434  16.704  14.516
34487W        W 2881  19.554  31.580   4.461
34488W        W 2882  32.572  26.088   1.719
34489W        W 2883  12.321  10.532   4.655
34490W        W 2884  39.219  43.893   3.707
34491W        W 2885  19.201  35.831  12.806
34492W        W 2886   9.127   9.630  14.802
34493W        W 2887  25.057  32.152   3.630
34494W        W 2888   1.646  40.941   1.440
34495W        W 2889  38.654  31.125  14.752
34496W        W 2890  12.412   1.937  12.353
34497W        W 2891   6.913  43.857  11.637
34498W        W 2892   3.441  13.946   3.644
34499W        W 2893   1.042  28.546  14.493
34500W        W 2894  23.690  25.197  14.797
34501W        W 2895  28.358  12.930   2.671
34502W        W 2896  18.093  16.775  10.306
34503W        W 2897   2.304   1.905  14.504
34504W        W 2898  42.464  13.573  13.867
34505W        W 2899   8.069  21.259   3.846
34506W        W 2900  44.520  33.291  13.981
34507W        W 2901   7.429   4.597  13.344
34508W        W 2902  26.860  21.020   0.751
34509W        W 2903  17.167  23.757  10.631
34510W        W 2904  42.742  16.233   1.953
34511W        W 2905  16.340   0.493   0.939
34512W        W 2906  34.050  42.914  12.565
34513W        W 2907   5.699  20.841  11.590
34514W        W 2908  37.501  36.060   0.737
34515W        W 2909   3.189   7.141   1.421
34516W        W 2910   1.312  43.025  10.774
34517W        W 2911   5.972  44.705  11.128
34518W        W 2912  35.337  22.288   0.557
34519W        W 2913  25.402  21.008   4.523
34520W        W 2914  27.674   5.998   3.937
34521W        W 2915  19.580  17.232  13.339
34522W        W 2916  27.936  34.097   0.927
34523W        W 2917   4.941  40.280   4.063
34524W        W 2918  13.746   7.981  13.286
34525W        W 2919  24.409  17.679   1.583
34526W        W 2920  44.353   1.854  12.932
34527W        W 2921  11.863  44.948   2.130
34528W        W 2922  42.597  34.366  13.243
34529W        W 2923   0.314   4.364   0.883
34530W        W 2924   2.423  14.115  13.115
34531W        W 2925  40.360  11.819  10.811
34532W        W 2926  16.551  23.029   3.983
34533W        W 2927  30.622   7.136  14.087
34534W        W 2928  32.939  29.506  11.846
34535W        W 2929  38.852  39.240  10.645
34536W        W 2930  37.732  32.034  11.063
34537W        W 2931  20.035   9.456  11.069
34538W        W 2932  32.129   6.392   2.804
34539W        W 2933   5.882  34.830   1.697
34540W        W 2934  19.704  10.579  14.584
34541W        W 2935  18.051   3.181   1.928
34542W        W 2936   7.171  21.940   3.230
34543W        W 2937  19.689  14.998   3.184
34544W        W 2938   7.419   5.880  11.546
34545W        W 2939  12.776  40.738   0.958
34546W        W 2940  43.814  26.372   3.710
34547W        W 2941  42.537  30.467   3.810
34548W        W 2942   7.774  27.668  13.881
34549W        W 2943  40.016  11.117  11.554
34550W        W 2944  10.705  21.601   0.566
34551W        W 2945  37.587  15.273   1.376
34552W        W 2946  10.483  29.413   2.301
34553W        W 2947  22.262   2.495   3.102
34554W        W 2948  17.072  43.842  10.762
34555W        W 2949   8.823  44.284   1.665
34556W        W 2950  17.426  44.318  11.668
34557W        W 2951   8.331  18.473  14.828
34558W        W 2952  44.212  13.312   4.751
34559W        W 2953   8.675  16.783  12.356
34560W        W 2954  40.466  16.635  10.645
34561W        W 2955   0.935   6.398  11.226
34562W        W 2956  41.251   4.210   0.972
34563W        W 2957  27.882  19.012  13.933
34564W        W 2958  37.534  23.137   4.544
34565W        W 2959  12.277  43.751  10.980
34566W        W 2960  27.730  29.101   3.416
34567W        W 2961  35.708  29.781   0.337
34568W        W 2962  41.765   0.519  10.759
34569W        W 2963  36.044  10.811  13.589
34570W        W 2964  42.987  22.978   2.307
34571W        W 2965  17.622  30.641   1.906
34572W        W 2966  35.442   4.218  14.524
34573W        W 2967   5.426  21.008  14.298
34574W        W 2968  12.565  17.511  11.134
34575W        W 2969  22.047  21.500  12.276
34576W        W 2970  29.641  21.216   3.692
34577W        W 2971  36.199  16.048  11.694
34578W        W 2972   3.555  40.918   0.868
34579W        W 2973   3.311  15.343   2.276
34580W        W 2974  23.744   4.466  14.723
34581W        W 2975  17.423  26.583  10.605
34582W        W 2976  41.880  19.733   2.384
34583W        W 2977   8.691  24.185   3.152
34584W        W 2978  43.396  41.324   1.681
34585W        W 2979   4.848  43.962   1.312
34586W        W 2980  40.459  23.405  14.566
34587W        W 2981   4.541  41.742   2.404
34588W        W 2982  42.612   2.156  12.390
34589W        W 2983  14.787  23.410   4.144
34590W        W 2984  21.047  31.501  11.396
34591W        W 2985   8.113  23.241   0.939
34592W        W 2986   5.344  17.812   4.977
34593W        W 2987  44.323  35.036   0.551
34594W        W 2988  38.942   8.473  10.743
34595W        W 2989   7.252   8.426  13.979
34596W        W 2990  32.594  15.117  12.037
34597W        W 2991   7.258  12.659  11.908
34598W        W 2992   5.315   7.592   3.733
34599W        W 2993  30.602  14.483   3.146
34600W        W 2994  30.194   7.824   2.750
34601W        W 2995  20.799  23.353   1.184
34602W        W 2996  21.218  19.548  10.698
34603W        W 2997  17.103  11.193  12.208
34604W        W 2998  22.072  15.599   3.145
34605W        W 2999  43.367  35.626  13.787
34606W        W 3000  42.731  11.754   4.131
34607W        W 3001  29.572  32.459  14.766
34608W        W 3002  23.006  18.831  11.104
34609W        W 3003  40.427  40.105  10.613
34610W        W 3004  25.044  25.644  14.258
34611W        W 3005   8.920  30.064  14.996
34612W        W 3006  42.542  24.759  13.177
34613W        W 3007  43.500  22.925   2.904
34614W        W 3008   7.406   7.917  11.709
34615W        W 3009  43.613  39.494   4.583
34616W        W 3010  37.794  14.615  13.579
34617W        W 3011  38.140  40.257  14.922
34618W        W 3012  10.700  16.291  12.108
34619W        W 3013  42.915  15.241   2.305
34620W        W 3014   9.309  42.522  12.083
34621W        W 3015  30.151  14.843  12.928
34622W        W 3016  24.059   5.290   2.612
34623W        W 3017  13.433  11.311   4.215
34624W        W 3018  23.148  24.099  13.417
34625W        W 3019  44.391  11.079  14.902
34626W        W 3020  17.803   4.680  11.537
34627W        W 3021  42.109  32.269  14.369
34628W        W 3022   0.929  40.151   2.295
34629W        W 3023  41.492  33.000  14.054
34630W        W 3024  44.619  43.735   2.424
34631W        W 3025  35.528  37.956   4.021
34632W        W 3026  32.854  26.632  10.965
34633W        W 3027   9.218  16.742   2.179
34634W        W 3028  30.529  25.166   2.135
34635W        W 3029   0.918  27.617   3.348
34636W        W 3030  34.062  40.357   1.386
34637W        W 3031  38.850  28.183   0.775
34638W        W 3032  38.822  14.839  13.281
34639W        W 3033  43.860  21.140   3.824
34640W        W 3034   0.473  18.309   3.790
34641W        W 3035  44.610  40.422  14.913
34642W        W 3036  42.456  38.346   0.050
34643W        W 3037  25.901   4.406  13.114
34644W        W 3038  21.750  32.389  10.580
34645W        W 3039  26.242   0.887  12.780
34646W        W 3040  44.302  20.004   0.434
34647W        W 3041   9.844  13.153  13.337
34648W        W 3042  36.920  24.829   0.714
34649W        W 3043  14.228  10.277   3.264
34650W        W 3044  44.787  40.759   3.186
34651W        W 3045  11.272   0.074  14.143
34652W        W 3046  12.269  18.396  13.564
34653W        W 3047  38.298   4.652   3.792
34654W        W 3048  20.797  26.985   1.035
34655W        W 3049  20.196   6.443  14.442
34656W        W 3050  12.814  11.118  14.366
34657W        W 3051  15.260   8.643  11.650
34658W        W 3052   0.247   3.717   4.181
34659W        W 3053  14.804   6.287  11.864
34660W        W 3054  38.365  26.880  11.851
34661W        W 3055  12.102  20.853  12.398
34662W        W 3056   2.286   4.474  14.799
34663W        W 3057   6.395  15.445   4.583
34664W        W 3058  21.214  34.849  14.894
34665W        W 3059  19.512  32.638   2.921
34666W        W 3060   7.477   8.726  12.561
34667W        W 3061  24.010  35.142  10.588
34668W        W 3062  16.059  29.532  14.017
34669W        W 3063  10.883  44.250   0.351
34670W        W 3064  42.036  40.498   3.690
34671W        W 3065  40.285  23.777   4.945
34672W        W 3066  34.585  14.345   1.939
34673W        W 3067   6.729  26.104  12.487
34674W        W 3068   2.906  18.755   2.317
34675W        W 3069  19.306   2.852   1.839
34676W        W 3070  20.635  27.017  12.176
34677W        W 3071  29.384  34.100   4.268
34678W        W 3072  22.106  24.033  11.016
34679W        W 3073  38.592   6.858   0.758
34680W        W 3074  36.776  18.425   4.130
34681W        W 3075  21.582  40.905  10.784
34682W        W 3076   0.349  23.054   2.661
34683W        W 3077  37.563  33.599   4.664
34684W        W 3078   6.690  37.729  12.962
34685W        W 3079  11.858  44.021  14.533
34686W        W 3080  20.057  20.813   2.388
34687W        W 3081  44.579  38.413  14.434
34688W        W 3082  37.035   0.243  14.333
34689W        W 3083  21.404  17.516   3.252
34690W        W 3084  19.626  26.140  12.045
34691W        W 3085  10.979  25.939   3.659
34692W        W 3086  35.997  44.819  10.406
34693W        W 3087  20.861   8.192   1.412
34694W        W 3088  23.365  39.397  13.890
34695W        W 3089   0.187   6.009  11.923
34696W        W 3090  10.607   9.814  11.599
34697W        W 3091  14.928  16.769  12.667
34698W        W 3092  10.260  43.913  11.201
34699W        W 3093  38.290  24.452   4.116
34700W        W 3094   5.396  41.987   1.729
34701W        W 3095  15.723  17.210  10.922
34702W        W 3096  35.598   4.867   2.707
34703W        W 3097  26.753  12.563  10.234
34704W        W 3098  17.127  26.345  10.954
34705W        W 3099   8.753  30.465   0.919
34706W        W 3100   8.699  36.636   2.442
34707W        W 3101  44.528  42.882   3.659
34708W        W 3102   3.802   4.344   4.292
34709W        W 3103  44.486  44.022  10.082
34710W        W 3104  28.131  26.190  12.602
34711W        W 3105  10.629  13.717   3.859
34712W        W 3106  27.245  19.081   0.433
34713W        W 3107   0.484   8.281   4.653
34714W        W 3108  12.877  43.331  10.794
34715W        W 3109   8.186  44.922   0.472
34716W        W 3110  26.685  22.361  12.113
34717W        W 3111   8.668  28.679  12.450
34718W        W 3112  18.561  35.783   4.138
34719W        W 3113  16.765  38.365   2.418
34720W        W 3114  27.574   2.700   4.245
34721W        W 3115  20.980   0.643   3.707
34722W        W 3116  20.040  13.623  13.652
34723W        W 3117  38.955   3.127  10.722
34724W        W 3118   8.438  21.008   3.188
34725W        W 3119  38.630  12.950   1.784
34726W        W 3120  28.388  14.496  14.770
34727W        W 3121   1.933  12.820   4.084
34728W        W 3122  24.531  11.303   1.244
34729W        W 3123  15.953  31.028   0.981
34730W        W 3124  29.162  25.306  10.650
34731W        W 3125  21.369  12.804  13.013
34732W        W 3126  17.662  39.620   2.170
34733W        W 3127  35.524  31.510   0.698
34734W        W 3128   9.865  38.134  11.556
34735W        W 3129  25.374   9.680  10.716
34736W        W 3130  33.343  17.118  14.049
34737W        W 3131   6.313  20.732  14.603
34738W        W 3132  28.818  42.449   2.656
34739W        W 3133   8.211  14.148   4.491
34740W        W 3134  29.133  19.978  13.886
34741W        W 3135  17.808   1.975   0.374
34742W        W 3136   3.860   0.410   0.864
34743W        W 3137  27.443  27.058   3.598
34744W        W 3138  37.385  36.465  14.926
34745W        W 3139  17.335   0.623   4.061
34746W        W 3140  17.713  37.291   2.744
34747W        W 3141  26.255  30.499  13.767
34748W        W 3142  22.930  11.901   3.543
34749W        W 3143  21.952  20.922   2.167
34750W        W 3144  22.031  12.050  11.960
34751W        W 3145   9.663  37.652   0.365
34752W        W 3146  34.625  34.128   4.165
34753W        W 3147  18.855  33.608  14.380
34754W        W 3148  43.526  41.993   2.174
34755W        W 3149  25.162  38.459  13.370
34756W        W 3150  30.423  36.523   2.404
34757W        W 3151  44.314  13.275  12.885
34758W        W 3152  35.400  22.275   2.128
34759W        W 3153  25.087   3.723   3.600
34760W        W 3154   0.346  16.780   3.687
34761W        W 3155  15.913  16.560   3.413
34762W        W 3156   8.640  14.409  13.131
34763W        W 3157  21.015  11.250  13.603
34764W        W 3158  32.016  41.724  10.709
34765W        W 3159  21.583  14.421   0.018
34766W        W 3160   0.315  11.417  13.848
34767W        W 3161  41.239   2.507  10.728
34768W        W 3162  14.274  21.627  11.167
34769W        W 3163  16.169  14.665  10.390
34770W        W 3164  29.296  36.571   4.213
34771W        W 3165  13.216  38.378  10.617
34772W        W 3166  37.365  12.721   2.877
34773W        W 3167  17.748  35.482   1.411
34774W        W 3168  42.065  30.348   1.482
34775W        W 3169  31.462  37.591   2.475
34776W        W 3170  11.197  39.812  10.315
34777W        W 3171   8.213  12.423  12.739
34778W        W 3172  41.807  36.423  12.506
34779W        W 3173   7.997  37.099  12.817
34780W        W 3174   3.837   3.388   4.359
34781W        W 3175   4.609   8.265   2.283
34782W        W 3176  21.090  29.797  13.474
34783W        W 3177  18.781  25.536   2.771
34784W        W 3178  21.691  22.209  14.664
34785W        W 3179   1.999   9.828  14.756
34786W        W 3180  11.019  44.638  13.980
34787W        W 3181   6.312  13.527   1.285
34788W        W 3182  15.057  33.858  12.881
34789W        W 3183  21.472  34.916   4.652
34790W        W 3184  15.033  18.281   3.730
34791W        W 3185   0.962  11.841  11.661
34792W        W 3186   9.108  10.484   3.988
34793W        W 3187  10.692   2.821  14.991
34794W        W 3188  37.335  34.860  12.013
34795W        W 3189  24.540  35.546   1.739
34796W        W 3190  43.320  40.112   0.659
34797W        W 3191  25.338  19.693  10.787
34798W        W 3192  15.304  17.267   9.950
34799W        W 3193  34.774   2.840   1.770
34800W        W 3194   2.508  19.504   1.944
34801W        W 3195   0.824  19.728   0.370
34802W        W 3196  16.119  27.333  14.294
34803W        W 3197  24.088  25.469  13.113
34804W        W 3198   0.711  26.171  13.361
34805W        W 3199  33.593  44.029  13.111
34806W        W 3200  33.402  34.838   0.914
34807W        W 3201  42.236  27.558  12.603
34808W        W 3202  27.668   6.216   0.331
34809W        W 3203  16.562  20.742  13.724
34810W        W 3204  34.640  18.051   2.666
34811W        W 3205  38.592  10.412  11.861
34812W        W 3206  36.852  30.556   2.895
34813W        W 3207  21.267   4.926  10.378
34814W        W 3208  32.993  24.019   4.115
34815W        W 3209  44.492  27.541  13.462
34816W        W 3210  21.628  24.535   0.424
34817W        W 3211  15.804  31.558   2.961
34818W        W 3212  30.077   1.946  11.191
34819W        W 3213   6.508  32.846  10.901
34820W        W 3214  34.097  14.168   1.773
34821W        W 3215  12.216  33.574  10.758
34822W        W 3216  39.849  21.444   4.534
34823W        W 3217   2.824  26.124  14.322
34824W        W 3218  23.933  14.590   0.859
34825W        W 3219   5.308  42.429  13.410
34826W        W 3220  39.846  40.928   0.185
34827W        W 3221  31.973  40.022  13.487
34828W        W 3222  10.153   2.879   0.850
34829W        W 3223  38.045  18.097   2.853
34830W        W 3224  31.483  18.988  13.117
34831W        W 3225  33.145  11.751  13.911
34832W        W 3226  13.932   1.815   4.555
34833W        W 3227  22.904   6.753  11.665
34834W        W 3228  24.677   6.379   2.322
34835W        W 3229  28.208  23.700   3.217
34836W        W 3230  23.240  15.209   4.122
34837W        W 3231  37.032   1.551   4.063
34838W        W 3232  26.628  31.817   0.683
34839W        W 3233  14.601   5.586  13.241
34840W        W 3234   0.442   0.426  11.678
34841W        W 3235  37.541  43.461   4.242
34842W        W 3236   8.772   8.137   0.332
34843W        W 3237   6.233  35.516  10.729
34844W        W 3238  30.205  25.486   2.856
34845W        W 3239  11.351  16.322  10.638
34846W        W 3240  37.558   5.970   1.385
34847W        W 3241   9.196   4.159  12.724
34848W        W 3242  42.503  12.472  14.610
34849W        W 3243  21.271  28.928  10.720
34850W        W 3244  24.227   4.859  13.856
34851W        W 3245  18.646  32.107  14.017
34852W        W 3246  28.487  36.004  14.289
34853W        W 3247   9.415  36.953  12.876
34854W        W 3248  21.570   9.018   0.674
34855W        W 3249  40.767  36.024   5.201
34856W        W 3250  27.900  27.996   3.591
34857W        W 3251  10.716  36.843  10.354
34858W        W 3252  40.949   7.747   2.568
34859W        W 3253  35.802  26.558   4.106
34860W        W 3254  35.780  19.751  11.643
34861W        W 3255  42.300  32.361  14.861
34862W        W 3256  17.792   3.380  13.727
34863W        W 3257  10.864  38.341   1.663
34864W        W 3258  38.762  37.478   3.218
34865W        W 3259  11.072  25.465  13.104
34866W        W 3260  26.659  11.540   2.945
34867W        W 3261  33.410  20.137  13.622
34868W        W 3262  42.420  32.420   4.567
34869W        W 3263  27.541   8.375  12.907
34870W        W 3264   1.477   1.996  14.335
34871W        W 3265  31.482  19.807  12.627
34872W        W 3266  27.077  28.563  11.588
34873W        W 3267   5.248  22.520  10.765
34874W        W 3268  40.473  26.052  13.907
34875W        W 3269  29.048  44.878  10.251
34876W        W 3270  35.187  29.705   0.297
34877W        W 3271  12.131  43.944  14.001
34878W        W 3272  42.355  28.861   1.824
34879W        W 3273  29.330  21.650   2.153
34880W        W 3274  26.165  36.964   1.258
34881W        W 3275  13.390  44.384   1.671
34882W        W 3276  35.095   8.002  14.084
34883W        W 3277  29.446   8.805   1.967
34884W        W 3278  34.063  31.615   0.678
34885W        W 3279  34.114  36.462   4.184
34886W        W 3280  27.157  27.908  13.056
34887W        W 3281  26.471  25.162   3.957
34888W        W 3282  16.063  16.777  14.507
34889W        W 3283  23.183  13.878   3.195
34890W        W 3284  42.293  36.940   0.056
34891W        W 3285  12.304  35.548   2.707
34892W        W 3286  17.481   2.485  11.808
34893W        W 3287  25.254   6.530  11.385
34894W        W 3288  32.618   4.714  12.469
34895W        W 3289   4.177  38.977  11.599
34896W        W 3290  24.006   4.446  10.638
34897W        W 3291  31.900  40.492   3.674
34898W        W 3292  27.882   8.241   1.798
34899W        W 3293   2.797  22.680  12.684
34900W        W 3294  16.097  12.217   4.354
34901W        W 3295  30.707  16.140   1.488
34902W        W 3296  10.181  14.839  13.956
34903W        W 3297  20.380  15.821   9.772
34904W        W 3298  40.705  21.144   0.213
34905W        W 3299  36.009  10.311   4.170
34906W        W 3300  38.005  28.664   4.625
34907W        W 3301  24.794  41.776  13.137
34908W        W 3302   8.642   0.905   2.632
34909W        W 3303  44.237  31.940   0.093
34910W        W 3304  22.226  12.788  13.557
34911W        W 3305  41.887  16.968  11.092
34912W        W 3306  32.440   6.943  11.568
34913W        W 3307  13.283  15.738  12.161
34914W        W 3308   3.251  34.648  13.423
34915W        W 3309  23.585  31.336   4.638
34916W        W 3310  24.411  25.596   3.210
34917W        W 3311   1.000  36.518  13.433
34918W        W 3312  39.720  39.075   1.360
34919W        W 3313  22.386  43.135  14.618
34920W        W 3314  35.902  29.610  11.689
34921W        W 3315  26.600  42.679   5.029
34922W        W 3316  25.429  13.194  14.839
34923W        W 3317  19.015  26.588   1.004
34924W        W 3318  10.400  42.289   4.062
34925W        W 3319  39.215   7.836  14.573
34926W        W 3320  34.002  36.078  14.992
34927W        W 3321  12.275  36.830   0.477
34928W        W 3322  18.526   7.876  11.807
34929W        W 3323  11.873  34.447  13.303
34930W        W 3324   4.215   3.481  11.195
34931W        W 3325  21.273  29.618  14.860
34932W        W 3326  13.352  33.077   1.179
34933W        W 3327  13.752  39.912   3.355
34934W        W 3328  40.559  14.871  13.901
34935W        W 3329  41.275  40.036   2.442
34936W        W 3330  22.983  16.205   1.326
34937W        W 3331  40.928  18.340   3.807
34938W        W 3332  35.473  42.220  14.600
34939W        W 3333  42.533   2.446  14.972
34940W        W 3334  29.635  35.539   2.844
34941W        W 3335  19.745  30.429  12.970
34942W        W 3336  16.217   4.514  14.936
34943W        W 3337  27.982  20.990   3.421
34944W        W 3338  26.695   5.224  11.531
34945W        W 3339  23.362  43.844   0.480
34946W        W 3340  32.274  19.655  10.672
34947W        W 3341  41.935  44.158   0.953
34948W        W 3342  43.458   2.406  11.126
34949W        W 3343  26.040   1.767   1.790
34950W        W 3344  35.508  42.860   1.412
34951W        W 3345  10.415  12.238   4.112
34952W        W 3346  43.520   9.260   0.425
34953W        W 3347  31.439  41.650  11.912
34954W        W 3348  10.389  13.871   4.634
34955W        W 3349  11.744  20.956   1.888
34956W        W 3350  10.794  29.023  13.890
34957W        W 3351  27.424  23.154  12.449
34958W        W 3352  17.572  24.390   4.018
34959W        W 3353  15.817  36.425  13.968
34960W        W 3354  31.630  19.608   2.238
34961W        W 3355  29.187  32.144  12.058
34962W        W 3356  23.145  40.889   1.575
34963W        W 3357  13.950  28.256   1.261
34964W        W 3358  19.060  38.370  10.852
34965W        W 3359  15.081  41.380   1.726
34966W        W 3360  34.162  40.346  13.040
34967W        W 3361   8.063  28.639  11.691
34968W        W 3362  34.831  29.216  12.488
34969W        W 3363  44.881  18.171   4.501
34970W        W 3364  20.042  18.164   2.826
34971W        W 3365  14.599  39.012   1.807
34972W        W 3366  28.084  30.326  11.932
34973W        W 3367  44.344  27.135   3.671
34974W        W 3368  27.138  11.409  14.425
34975W        W 3369  42.651  29.575   1.445
34976W        W 3370  13.136  14.202   4.192
34977W        W 3371   6.571  15.670  13.580
34978W        W 3372  34.473  31.192  12.120
34979W        W 3373  33.429  35.067   1.904
34980W        W 3374  25.232  40.892   0.787
34981W        W 3375  19.623  39.925  13.540
34982W        W 3376   6.796  13.785  12.582
34983W        W 3377  12.183   0.710   3.325
34984W        W 3378  28.202  43.744   1.832
34985W        W 3379  19.979  39.435   3.871
34986W        W 3380  35.825  27.035   4.351
34987W        W 3381  34.863  22.589  11.897
34988W        W 3382  16.722   7.281   2.267
34989W        W 3383  21.909  11.395   3.278
34990W        W 3384   7.102  36.916   1.325
34991W        W 3385  15.553  35.084  14.912
34992W        W 3386  33.702  27.210  12.486
34993W        W 3387  27.289  24.802  13.206
34994W        W 3388  11.577  37.482   0.744
34995W        W 3389  12.363   3.296  11.192
34996W        W 3390   2.881  11.905  13.461
34997W        W 3391  34.885  20.389  12.537
34998W        W 3392  36.790  20.480   2.886
34999W        W 3393  40.903  38.684   3.264
35000W        W 3394  15.836  43.960  13.876
35001W        W 3395  34.967   5.511  12.606
35002W        W 3396  34.856  34.011  11.377
35003W        W 3397   5.753  24.980   3.655
35004W        W 3398  19.781  30.688   0.314
35005W        W 3399  43.781  22.246   4.050
35006W        W 3400  42.588  11.349   3.772
35007W        W 3401  42.935   5.828  11.444
35008W        W 3402  35.786  14.304   2.753
35009W        W 3403   8.508  42.453   2.636
35010W        W 3404  32.187  21.522   1.556
35011W        W 3405   0.741  13.115  11.446
35012W        W 3406  36.360  29.602   0.840
35013W        W 3407  19.673  37.139  14.900
35014W        W 3408  43.392  19.509  12.165
35015W        W 3409  36.988  41.039   1.947
35016W        W 3410   1.354  28.434  13.327
35017W        W 3411  33.766  37.823   4.274
35018W        W 3412  34.226  40.642   0.594
35019W        W 3413  42.026  25.069  14.811
35020W        W 3414   7.922  21.942   1.279
35021W        W 3415  29.539  18.536   2.734
35022W        W 3416  26.904  23.639   3.646
35023W        W 3417  19.581  42.396  11.493
35024W        W 3418   1.718   6.747  14.443
35025W        W 3419  10.600   9.879   4.386
35026W        W 3420  20.189  20.190   0.257
35027W        W 3421   8.384  20.573  12.104
35028W        W 3422  16.037  40.471  12.162
35029W        W 3423  24.171  40.252  12.491
35030W        W 3424  31.086   5.672   2.411
35031W        W 3425  44.127  24.470   3.593
35032W        W 3426   7.689  19.788  14.847
35033W        W 3427  22.663  16.680  12.026
35034W        W 3428   7.334  30.883   1.499
35035W        W 3429   3.760  22.486   2.696
35036W        W 3430  37.055  26.874   0.027
35037W        W 3431  37.047   8.057   2.867
35038W        W 3432  33.580   4.662  14.829
35039W        W 3433  31.661   9.311   1.481
35040W        W 3434  43.247  36.098   1.723
35041W        W 3435  10.789  33.409   3.434
35042W        W 3436  32.627   8.830   4.616
35043W        W 3437   1.289   5.959  13.411
35044W        W 3438  19.971   0.765   1.914
35045W        W 3439  19.175   1.529   2.772
35046W        W 3440  30.125  15.783   4.881
35047W        W 3441  38.451  21.610   4.423
35048W        W 3442  32.163  41.037  12.093
35049W        W 3443  37.794  10.817  11.936
35050W        W 3444  12.281   6.717   0.274
35051W        W 3445  20.034  38.593  12.350
35052W        W 3446  14.634  11.810  10.373
35053W        W 3447  34.864   8.278   3.206
35054W        W 3448   4.414  33.399   4.041
35055W        W 3449  40.227  38.319   5.005
35056W        W 3450  15.489   8.724   2.273
35057W        W 3451  31.095  42.136   0.583
35058W        W 3452  26.134  10.031  10.836
35059W        W 3453  39.021  14.720   1.232
35060W        W 3454  28.917  42.901  13.272
35061W        W 3455  30.308   4.035   4.211
35062W        W 3456  28.573  42.696   0.794
35063W        W 3457   7.837  14.924   1.343
35064W        W 3458  24.428   9.355   2.451
35065W        W 3459  18.122   2.459  13.501
35066W        W 3460  14.753   0.145   0.347
35067W        W 3461  30.050  29.890   1.180
35068W        W 3462  14.170  36.848   1.443
35069W        W 3463   0.828  30.604  12.137
35070W        W 3464   4.360   6.755   2.366
35071W        W 3465  28.850  21.747   0.515
35072W        W 3466  19.127  12.371   3.661
35073W        W 3467  23.775   9.182   3.965
35074W        W 3468  29.587  14.061  11.591
35075W        W 3469  15.178  26.446   0.290
35076W        W 3470  13.823  24.110   3.026
35077W        W 3471   6.890   8.152  14.308
35078W        W 3472   9.230  26.496   2.715
35079W        W 3473  30.386   6.682  10.622
35080W        W 3474  36.562   4.751   2.619
35081W        W 3475  31.533  26.496   4.624
35082W        W 3476  14.070   8.093   2.931
35083W        W 3477  11.155  29.238  14.422
35084W        W 3478  26.242  10.354   5.065
35085W        W 3479  22.260  17.137   2.688
35086W        W 3480  24.946  20.288  11.631
35087W        W 3481   7.130  40.070  10.700
35088W        W 3482  39.643   7.627  13.156
35089W        W 3483  20.394  15.655  13.372
35090W        W 3484  11.382  44.529  13.063
35091W        W 3485  43.794  22.754   2.472
35092W        W 3486   1.817   5.808   2.332
35093W        W 3487   4.956  12.332  12.050
35094W        W 3488  42.029   8.395   0.333
35095W        W 3489  36.479  34.262  10.122
35096W        W 3490  31.181  14.273   0.004
35097W        W 3491   1.528  40.425  14.296
35098W        W 3492  44.926  41.520  12.135
35099W        W 3493  41.435  28.902   0.270
35100W        W 3494  11.068   9.304  12.427
35101W        W 3495  20.697  17.912   1.844
35102W        W 3496  35.091   3.318   0.373
35103W        W 3497   2.883  19.560   2.754
35104W        W 3498  15.683  16.019   2.234
35105W        W 3499  39.554  25.904  12.916
35106W        W 3500  17.839   1.337   3.595
35107W        W 3501   1.960   0.931   0.009
35108W        W 3502  35.029   5.868  14.522
35109W        W 3503   8.848  20.493   0.245
35110W        W 3504  13.856  32.308  11.971
35111W        W 3505  25.574  13.693   4.864
35112W        W 3506  12.381  40.353   2.881
35113W        W 3507  31.080  14.140  12.005
35114W        W 3508  13.856  26.001   0.430
35115W        W 3509  20.629  14.049  11.380
35116W        W 3510   2.486  31.871   2.715
35117W        W 3511  10.074  44.137   0.055
35118W        W 3512  18.561   1.183  12.333
35119W        W 3513   1.496  18.160   3.768
35120W        W 3514  28.053  17.148  12.834
35121W        W 3515  42.843  31.431  14.315
35122W        W 3516  15.825  19.317   1.789
35123W        W 3517  16.822  34.885  12.408
35124W        W 3518   9.158  29.242   4.153
35125W        W 3519  16.759  26.597   1.457
35126W        W 3520  20.336  15.728   1.531
35127W        W 3521  24.823   6.967  13.948
35128W        W 3522  33.680  27.750  13.315
35129W        W 3523  44.765  10.316   2.323
35130W        W 3524  20.799  26.080   2.542
35131W        W 3525   9.639  22.013  10.606
35132W        W 3526   1.464   6.254  11.906
35133W        W 3527  37.504  24.329   1.874
35134W        W 3528  39.389  44.749   2.965
35135W        W 3529  36.950  27.396  14.956
35136W        W 3530  43.234  33.888   1.182
35137W        W 3531  28.621  12.660   2.223
35138W        W 3532   8.874   5.197  13.157
35139W        W 3533   8.461  38.372  11.605
35140W        W 3534  35.984   5.585  14.216
35141W        W 3535  23.784  34.862   2.273
35142W        W 3536  39.334  11.335  12.494
35143W        W 3537  12.761  35.474   4.340
35144W        W 3538   9.889  18.640   4.233
35145W        W 3539  22.011  33.193  11.188
35146W        W 3540   4.978   3.169  14.257
35147W        W 3541   0.091  40.735  12.455
35148W        W 3542  32.460  42.779   3.798
35149W        W 3543   5.306  23.212  12.066
35150W        W 3544  41.354   4.230  10.975
35151W        W 3545  41.176  21.976  11.440
35152W        W 3546  39.811  22.987  10.636
35153W        W 3547  27.013  15.702   0.863
35154W        W 3548   3.790  14.927  13.462
35155W        W 3549  42.536   2.976   1.938
35156W        W 3550  27.016  25.472  14.400
35157W        W 3551   1.002  37.101  14.401
35158W        W 3552  16.673  18.052  13.625
35159W        W 3553  22.540  18.091   2.461
35160W        W 3554   5.875  35.554   0.748
35161W        W 3555  16.473  38.901   1.233
35162W        W 3556  16.723  39.754  13.780
35163W        W 3557  13.169  14.036   3.719
35164W        W 3558  10.374  30.012  13.913
35165W        W 3559  33.929  43.682  14.557
35166W        W 3560  34.938  17.287  10.318
35167W        W 3561  35.358   1.994   1.776
35168W        W 3562   1.818  38.329   4.537
35169W        W 3563  40.758   3.730  11.453
35170W        W 3564   2.720  19.068  14.020
35171W        W 3565  23.893   2.202   1.754
35172W        W 3566  37.178  36.948  14.997
35173W        W 3567  37.654   9.984   0.028
35174W        W 3568   8.128  39.839  10.673
35175W        W 3569  43.518  21.682   3.234
35176W        W 3570   7.401   0.093   3.115
35177W        W 3571   6.373  12.413   0.108
35178W        W 3572  18.540  23.699  13.877
35179W        W 3573  34.830   7.970   1.323
35180W        W 3574   9.900  26.463   1.889
35181W        W 3575   9.790  31.347  13.582
35182W        W 3576  22.415  34.606   3.376
35183W        W 3577   1.652  43.830   3.130
35184W        W 3578  35.608  39.775  11.499
35185W        W 3579   3.689  14.352  11.243
35186W        W 3580   0.190  17.200  12.994
35187W        W 3581  19.554  30.445  13.976
35188W        W 3582  28.662  40.974   1.644
35189W        W 3583  40.287  29.793  11.073
35190W        W 3584  28.484  28.946   2.390
35191W        W 3585  31.393  39.250   2.049
35192W        W 3586  27.074   7.326  14.407
35193W        W 3587  41.313  36.287  13.799
35194W        W 3588   3.005  44.333   4.575
35195W        W 3589  42.871  24.449   2.204
35196W        W 3590  10.653  41.690   0.693
35197W        W 3591  40.375   1.533   0.502
35198W        W 3592  41.413  18.237   1.784
35199W        W 3593  31.542  44.836   2.169
35200W        W 3594  29.915  12.858   0.525
35201W        W 3595  29.741  31.545  10.219
35202W        W 3596   9.193  24.176  11.464
35203W        W 3597   7.236  42.812   0.031
35204W        W 3598  30.918  35.785   4.416
35205W        W 3599  11.039  38.546   2.701
35206W        W 3600  33.990  41.763   0.865
35207W        W 3601  31.791  42.806   4.575
35208W        W 3602  17.402  33.564   2.108
35209W        W 3603  25.615   5.735  14.789
35210W        W 3604  32.056   2.425   3.147
35211W        W 3605  11.018   0.815  11.532
35212W        W 3606  29.176   3.720  13.948
35213W        W 3607  10.492   5.432  11.971
35214W        W 3608  41.311  41.002  13.815
35215W        W 3609  27.274   9.120   1.865
35216W        W 3610  33.549  26.025   0.924
35217W        W 3611  26.090  43.286  11.048
35218W        W 3612  36.857  11.229   0.524
35219W        W 3613  15.720  17.184  11.885
35220W        W 3614  40.544  26.253   3.638
35221W        W 3615   6.361  39.945  13.057
35222W        W 3616   3.402  12.215  14.388
35223W        W 3617  13.229  18.873   2.762
35224W        W 3618   7.242  12.388  13.785
35225W        W 3619  10.783  42.176  11.259
35226W        W 3620  24.924  35.135  14.508
35227W        W 3621  41.629  28.948   3.101
35228W        W 3622  42.984  13.662  11.135
35229W        W 3623  26.076   5.418  11.617
35230W        W 3624  34.634  22.917  11.114
35231W        W 3625  40.819  22.209   4.522
35232W        W 3626  32.425  36.554   4.588
35233W        W 3627  15.509   2.345  12.537
35234W        W 3628  22.348  21.803   1.010
35235W        W 3629  28.615   7.957  14.124
35236W        W 3630   0.547   5.901  13.982
35237W        W 3631  20.278  16.287  12.372
35238W        W 3632  24.785  21.745  11.612
35239W        W 3633  31.598  14.637  14.851
35240W        W 3634   5.811  15.951  14.861
35241W        W 3635  33.604  34.977   0.449
35242W        W 3636  18.516  27.070   0.467
35243W        W 3637   4.765  41.349   1.267
35244W        W 3638  26.161  35.028  10.608
35245W        W 3639  20.948  38.779  13.961
35246W        W 3640   1.010  33.108  14.410
35247W        W 3641  40.544  19.099   1.304
35248W        W 3642  25.233  27.169  12.784
35249W        W 3643  14.474  20.148   0.675
35250W        W 3644   6.034  22.552   4.642
35251W        W 3645   8.589  19.735  14.006
35252W        W 3646  38.715  15.309   2.973
35253W        W 3647   3.585   7.577  12.469
35254W        W 3648  27.027  22.056  10.465
35255W        W 3649  20.629  17.185   5.014
35256W        W 3650  11.702  43.851   2.725
35257W        W 3651  23.645   0.999  13.276
35258W        W 3652  41.250  26.106  14.280
35259W        W 3653  37.666  36.427   4.237
35260W        W 3654  27.740  36.650  10.762
35261W        W 3655  23.730  20.455   1.378
35262W        W 3656  34.583  41.072  13.649
35263W        W 3657  33.981  16.619   4.100
35264W        W 3658  19.616   6.447  14.846
35265W        W 3659  44.890   8.104   0.356
35266W        W 3660  24.037  20.308  14.314
35267W        W 3661  14.673  27.999  12.571
35268W        W 3662  12.096  27.086  14.955
35269W        W 3663  30.697  32.848  14.977
35270W        W 3664  11.213   4.263  11.631
35271W        W 3665  36.846   6.516   4.120
35272W        W 3666   7.709  16.022  14.845
35273W        W 3667  18.591  30.739   2.335
35274W        W 3668  19.497  32.162  13.499
35275W        W 3669   5.386  27.131   4.986
35276W        W 3670   2.960  13.040  11.067
35277W        W 3671  41.930  20.140  11.589
35278W        W 3672  33.901  12.362   4.416
35279W        W 3673   4.360  20.576  13.436
35280W        W 3674  32.504  34.146   0.870
35281W        W 3675  17.663  24.753  11.019
35282W        W 3676  26.194  33.020  12.255
35283W        W 3677   2.779  34.913  13.473
35284W        W 3678  12.379  24.133  13.154
35285W        W 3679  29.876   4.303   4.269
35286W        W 3680  40.780  19.525  13.933
35287W        W 3681   7.354  31.141   2.439
35288W        W 3682  40.455  24.527   4.559
35289W        W 3683  38.465  42.050   3.208
35290W        W 3684  22.318  34.876   4.912
35291W        W 3685  10.032   6.734   3.119
35292W        W 3686  36.114  36.958   2.840
35293W        W 3687  32.635  29.879  13.958
35294W        W 3688  20.739  13.359  14.762
35295W        W 3689  30.854  38.293  14.329
35296W        W 3690   5.172  25.619   4.975
35297W        W 3691  24.382   4.746  11.058
35298W        W 3692  41.626   4.868  10.530
35299W        W 3693  36.308  13.149   1.024
35300W        W 3694  42.911  30.122   4.029
35301W        W 3695   0.639   5.479   1.938
35302W        W 3696   4.326  17.363   0.285
35303W        W 3697   2.236  11.844   3.432
35304W        W 3698  13.521   6.797  14.969
35305W        W 3699  32.504  26.439  14.468
35306W        W 3700   8.665   9.761   2.277
35307W        W 3701   9.089  43.307   0.674
35308W        W 3702  20.780  13.337   2.866
35309W        W 3703  36.559  14.537  13.184
35310W        W 3704   2.799  35.458  12.612
35311W        W 3705  37.871   3.781  13.425
35312W        W 3706  20.589   1.808  10.520
35313W        W 3707  23.829  34.346   2.186
35314W        W 3708  41.388  16.525  12.983
35315W        W 3709  29.919  29.166  14.079
35316W        W 3710  37.826   1.308   3.640
35317W        W 3711  43.357  18.835  12.764
35318W        W 3712  35.439  11.378  11.607
35319W        W 3713  39.595  33.040   4.176
35320W        W 3714  17.439  35.076  14.980
35321W        W 3715  20.200   7.953  11.192
35322W        W 3716  27.576  40.563   1.250
35323W        W 3717  28.394  21.718  12.094
35324W        W 3718  20.968  34.934  11.532
35325W        W 3719  44.613  37.098   0.282
35326W        W 3720  29.125   6.613  14.022
35327W        W 3721  11.870  14.072  14.304
35328W        W 3722  44.182   9.927  11.367
35329W        W 3723  16.317  40.207   2.303
35330W        W 3724  39.272  24.563  12.107
35331W        W 3725   5.858   9.350   2.211
35332W        W 3726  19.778  33.394  14.031
35333W        W 3727  39.942   8.034  13.077
35334W        W 3728  44.888  27.171   3.734
35335W        W 3729   5.078  16.803  13.422
35336W        W 3730  29.407  23.402   3.412
35337W        W 3731   8.947  25.686   3.218
35338W        W 3732  34.955  32.598   4.130
35339W        W 3733  15.362  17.749  10.314
35340W        W 3734  26.081  31.599   4.118
35341W        W 3735   2.130  33.525   4.910
35342W        W 3736  16.235  43.599  14.664
35343W        W 3737  13.851  29.373  14.937
35344W        W 3738  37.332  24.199   3.665
35345W        W 3739  37.452  23.058  14.021
35346W        W 3740   0.997   3.438  11.619
35347W        W 3741  43.534  36.198  11.690
35348W        W 3742  13.742  31.886   0.208
35349W        W 3743  21.686  44.714  10.109
35350W        W 3744  36.938  20.071  12.860
35351W        W 3745  16.616   7.593   2.668
35352W        W 3746  21.798  21.323  13.162
35353W        W 3747   5.952  30.023   4.999
35354W        W 3748  12.861  10.168   3.919
35355W        W 3749   3.546  36.001   1.312
35356W        W 3750  35.564  44.685  11.199
35357W        W 3751   9.742  37.801  10.733
35358W        W 3752  19.837  35.141   2.279
35359W        W 3753   2.236   4.477   3.819
35360W        W 3754   9.376  19.628   0.418
35361W        W 3755  42.740  13.122  13.047
35362W        W 3756  41.781  31.912   2.870
35363W        W 3757   8.251  26.667   0.456
35364W        W 3758   4.770  25.462   9.683
35365W        W 3759  21.136  20.723  13.920
35366W        W 3760   0.861  38.569   0.021
35367W        W 3761  37.087  43.520   2.344
35368W        W 3762  26.552  19.533   5.230
35369W        W 3763   5.525  40.974  13.898
35370W        W 3764   9.798  15.474   3.875
35371W        W 3765  34.609  33.896   3.335
35372W        W 3766  24.970   3.637  14.020
35373W        W 3767   9.099   3.078  11.565
35374W        W 3768  36.785  38.714   1.378
35375W        W 3769  11.239  19.014   2.684
35376W        W 3770  20.832  26.396   4.912
35377W        W 3771  12.026  10.012  12.027
35378W        W 3772   3.262  33.066   2.230
35379W        W 3773  36.447   9.059  10.685
35380W        W 3774  19.758  38.527   3.174
35381W        W 3775  28.078   4.575   1.712
35382W        W 3776  41.734  32.210  12.457
35383W        W 3777  38.361  25.952  12.023
35384W        W 3778  25.585   8.236   1.027
35385W        W 3779   5.621  31.540  14.858
35386W        W 3780  27.894   2.432   3.713
35387W        W 3781  18.823   7.097   1.043
35388W        W 3782  21.058   4.173   2.268
35389W        W 3783   4.390  33.391   0.738
35390W        W 3784   9.236  40.593  13.518
35391W        W 3785  29.668  34.425   3.346
35392W        W 3786   4.674  41.927  13.552
35393W        W 3787  34.525  13.081  11.994
35394W        W 3788  21.052  28.614   2.612
35395W        W 3789  29.668  40.665   4.250
35396W        W 3790  25.193  40.551  14.048
35397W        W 3791   8.330  39.609   0.530
35398W        W 3792  18.712  37.983  13.474
35399W        W 3793   2.804  20.261  11.636
35400W        W 3794   6.713   6.006  12.028
35401W        W 3795  38.409  41.986   4.841
35402W        W 3796   4.904  18.502   4.570
35403W        W 3797  39.304  42.543  12.053
35404W        W 3798  25.288  31.660  13.909
35405W        W 3799   3.897   0.890   0.015
35406W        W 3800  43.421   9.217   2.541
35407W        W 3801  10.346  18.657   2.282
35408W        W 3802  15.201  24.229  14.810
35409W        W 3803   9.671  27.679  13.930
35410W        W 3804   6.128   3.082   3.992
35411W        W 3805  14.353  21.006   4.076
35412W        W 3806  17.746  44.382   3.760
35413W        W 3807  33.981  37.903  12.668
35414W        W 3808  14.228  39.372   3.966
35415W        W 3809  32.147  37.568   3.329
35416W        W 3810  10.149   2.458   4.156
35417W        W 3811  21.218  26.941   2.095
35418W        W 3812  28.447  27.114   4.491
35419W        W 3813  10.724  34.556   2.158
35420W        W 3814  23.563   6.958   1.353
35421W        W 3815  31.520   4.316   1.717
35422W        W 3816   8.983  22.211   4.762
35423W        W 3817  29.989  21.063   2.371
35424W        W 3818   1.313  11.847  12.514
35425W        W 3819  28.016  39.360   0.443
35426W        W 3820  20.564  32.548   0.414
35427W        W 3821   7.771   8.252  12.612
35428W        W 3822  33.274  27.477  11.969
35429W        W 3823  40.529  18.556   2.656
35430W        W 3824   5.433  26.246  12.933
35431W        W 3825  24.880  44.945  10.653
35432W        W 3826  33.482  39.098  14.676
35433W        W 3827  30.469  36.981   2.150
35434W        W 3828  35.131  43.990   3.081
35435W        W 3829   9.726   4.631  11.928
35436W        W 3830  25.427  14.609  14.340
35437W        W 3831  21.988  43.800   3.268
35438W        W 3832   5.754  19.266  10.601
35439W        W 3833  35.049   5.756   2.984
35440W        W 3834  34.494  28.675   3.645
35441W        W 3835  22.294  44.947   1.184
35442W        W 3836  23.266  33.150   1.008
35443W        W 3837  36.497  19.476  11.229
35444W        W 3838  16.049  32.024  11.824
35445W        W 3839  17.537  25.983   2.165
35446W        W 3840  43.087  29.636  10.667
35447W        W 3841   3.877   4.649  10.655
35448W        W 3842   0.056  14.593  11.073
35449W        W 3843  16.719  35.862  10.485
35450W        W 3844  30.073  40.004  11.478
35451W        W 3845  39.135  18.758   2.872
35452W        W 3846  14.646  17.224  12.938
35453W        W 3847  16.788  14.192  12.505
35454W        W 3848  19.093  25.490   2.317
35455W        W 3849  26.255   2.416  14.331
35456W        W 3850  21.734  44.202  11.050
35457W        W 3851   9.380  10.282   2.401
35458W        W 3852  44.379  11.033  14.004
35459W        W 3853  28.476  14.745  10.712
35460W        W 3854  42.456  35.579   0.740
35461W        W 3855  25.461  17.035   3.261
35462W        W 3856   6.209  27.486  12.627
35463W        W 3857  27.374  20.291  13.309
35464W        W 3858  28.905   2.683  14.052
35465W        W 3859  25.777  15.404  11.933
35466W        W 3860  29.251  13.726   2.839
35467W        W 3861  43.593   2.272   3.168
35468W        W 3862  40.363  22.113  11.117
35469W        W 3863  37.043  44.431  14.834
35470W        W 3864  19.797  31.952  10.771
35471W        W 3865  39.511  16.670   0.734
35472W        W 3866   4.209  36.977   3.324
35473W        W 3867  44.289   3.615   2.805
35474W        W 3868  28.181  23.703  13.286
35475W        W 3869  13.585  21.662  11.700
35476W        W 3870   4.750  39.773   1.444
35477W        W 3871  11.107  23.110   4.288
35478W        W 3872  31.026   0.859   4.568
35479W        W 3873   5.225  37.593  13.061
35480W        W 3874   9.834  38.442   0.481
35481W        W 3875  20.118   1.884   2.414
35482W        W 3876  20.544   3.816  12.128
35483W        W 3877  25.911  37.381  11.150
35484W        W 3878   1.517  33.010  14.385
35485W        W 3879  29.068  16.881  11.629
35486W        W 3880   0.672   9.314   2.245
35487W        W 3881  19.021  17.858  14.800
35488W        W 3882  28.360  41.543  13.477
35489W        W 3883  40.068  35.989   1.864
35490W        W 3884  29.482  44.108  10.490
35491W        W 3885   0.456  22.899  10.690
35492W        W 3886  11.227   8.483  14.081
35493W        W 3887   2.017  26.851  11.501
35494W        W 3888   2.681  14.246  14.274
35495W        W 3889  10.159  19.092   3.323
35496W        W 3890  23.291  26.230   4.193
35497W        W 3891  36.504  43.999  11.160
35498W        W 3892  29.890   6.995   0.933
35499W        W 3893  39.773  29.014  12.155
35500W        W 3894  27.633   3.032   4.670
35501W        W 3895  24.037  38.852  14.825
35502W        W 3896  36.419   8.674   2.818
35503W        W 3897   1.649  12.855  14.873
35504W        W 3898  38.387  19.837  13.844
35505W        W 3899   3.393  43.719  12.417
35506W        W 3900  23.150  37.839  13.250
35507W        W 3901  12.258   9.686  12.396
35508W        W 3902  19.661  30.032  10.541
35509W        W 3903  33.005  21.228   5.047
35510W        W 3904  29.697   0.363   2.276
35511W        W 3905  26.977  20.592   2.168
35512W        W 3906  30.028   9.208   0.919
35513W        W 3907   2.266  13.544   4.559
35514W        W 3908  19.047   5.515   4.058
35515W        W 3909   4.365  26.517   0.980
35516W        W 3910   1.732  37.892   4.786
35517W        W 3911  41.959  35.422  12.639
35518W        W 3912  12.237  19.900  13.383
35519W        W 3913  22.116  14.257   3.660
35520W        W 3914  30.772  22.543  14.484
35521W        W 3915  39.862  33.289   3.392
35522W        W 3916  14.235  17.826  14.918
35523W        W 3917  36.962   2.922  10.994
35524W        W 3918  21.214   9.782  14.628
35525W        W 3919   4.993   2.933   0.933
35526W        W 3920   5.329  35.380   4.226
35527W        W 3921  39.058   7.868  14.042
35528W        W 3922   2.286   7.923   3.597
35529W        W 3923  40.445   9.744   4.896
35530W        W 3924  32.247  13.139   4.175
35531W        W 3925  33.110  27.751   1.389
35532W        W 3926  22.616   3.210   1.965
35533W        W 3927  12.299  44.954   1.886
35534W        W 3928   6.831  13.367  14.353
35535W        W 3929  25.491  44.044   3.161
35536W        W 3930  40.761  14.072  11.262
35537W        W 3931  28.185  18.127  14.667
35538W        W 3932  20.952  38.040   4.218
35539W        W 3933  26.063  14.702  12.136
35540W        W 3934  25.554   3.181  11.474
35541W        W 3935   2.917  42.326   4.525
35542W        W 3936  32.014   6.124  11.642
35543W        W 3937   3.170   0.567  11.606
35544W        W 3938  43.413   3.221   0.438
35545W        W 3939   6.727  40.009  12.359
35546W        W 3940  23.797  34.574  13.616
35547W        W 3941  19.746  43.466   0.411
35548W        W 3942  25.470   0.382   3.310
35549W        W 3943  25.539  28.169   1.393
35550W        W 3944  33.578  30.985  11.718
35551W        W 3945   6.122  29.361  11.177
35552W        W 3946  25.497  18.192   1.953
35553W        W 3947  39.814  14.335  11.958
35554W        W 3948  42.921   3.261   0.267
35555W        W 3949  29.307  32.572   2.952
35556W        W 3950  22.017   3.021  13.462
35557W        W 3951   6.001  22.792   3.651
35558W        W 3952  16.354  25.272  12.534
35559W        W 3953  40.319  33.291  11.965
35560W        W 3954  31.993   2.467   0.754
35561W        W 3955  28.434  39.295  11.999
35562W        W 3956  39.506   4.431  14.887
35563W        W 3957  31.616  31.129   1.453
35564W        W 3958  33.530  15.755   2.639
35565W        W 3959  11.356  42.341  14.384
35566W        W 3960   6.305   3.515   1.711
35567W        W 3961  26.666  38.316  11.649
35568W        W 3962  12.365   1.345  14.842
35569W        W 3963  13.915  13.812  13.924
35570W        W 3964   3.181  36.849  11.604
35571W        W 3965  22.587  29.353  13.343
35572W        W 3966  10.182  12.063   2.319
35573W        W 3967  42.822  20.190  11.205
35574W        W 3968  16.228  24.323  10.896
35575W        W 3969  24.448  37.533  14.100
35576W        W 3970   6.338  13.309   2.335
35577W        W 3971  39.226   9.121  12.048
35578W        W 3972  23.352  44.484   1.296
35579W        W 3973  31.149   4.696  13.495
35580W        W 3974  40.998  41.089  12.067
35581W        W 3975  34.471   9.349  10.788
35582W        W 3976  19.770  20.245   3.642
35583W        W 3977   3.278  22.006  14.857
35584W        W 3978   3.225  40.421   3.338
35585W        W 3979  43.902  22.103  13.400
35586W        W 3980   2.213  16.272   2.907
35587W        W 3981   2.717   2.418   0.828
35588W        W 3982  29.211  10.348  10.649
35589W        W 3983  23.582   5.928   3.336
35590W        W 3984  29.915  36.651  13.409
35591W        W 3985  26.394  12.509   2.532
35592W        W 3986  42.933  37.996  13.138
35593W        W 3987  42.419  34.579  10.210
35594W        W 3988  38.159  24.121  14.777
35595W        W 3989  33.150   8.199   0.407
35596W        W 3990   7.825  36.520   2.358
35597W        W 3991  24.806  38.090  10.761
35598W        W 3992  24.789  21.593   3.639
35599W        W 3993  44.016  35.908   1.895
35600W        W 3994  16.198  28.294   2.572
35601W        W 3995  24.156  14.331   1.867
35602W        W 3996  18.031  21.985   3.092
35603W        W 3997  33.850  41.529  13.349
35604W        W 3998   8.887  29.410  11.528
35605W        W 3999  27.571  41.823  11.513
35606W        W 4000  17.637  19.751   3.238
35607W        W 4001  40.375  30.643   3.798
35608W        W 4002  24.677  34.947  12.831
35609W        W 4003  32.395  21.463  13.417
35610W        W 4004  23.968  12.845  14.887
35611W        W 4005   9.802  39.246   3.704
35612W        W 4006  12.331  27.429   2.100
35613W        W 4007  31.052  10.273   2.712
35614W        W 4008  35.857  42.399  12.828
35615W        W 4009  32.484   8.249  13.415
35616W        W 4010  34.886  19.752   3.246
35617W        W 4011  42.445   9.852  11.113
35618W        W 4012  30.710   4.543  13.220
35619W        W 4013  18.176  19.719  13.853
35620W        W 4014  25.724  36.283   1.915
35621W        W 4015  29.158  25.143   4.828
35622W        W 4016  42.938  23.030   4.723
35623W        W 4017   3.268  40.114  14.709
35624W        W 4018   4.500   0.301   0.386
35625W        W 4019  13.596  37.437   3.613
35626W        W 4020  41.267  28.740  12.938
35627W        W 4021  32.411  13.241   0.918
35628W        W 4022  36.678  11.914  14.368
35629W        W 4023  23.374  29.264  12.953
35630W        W 4024  40.962  34.602   1.772
35631W        W 4025  22.476  33.466   1.427
35632W        W 4026  29.593   3.352  10.683
35633W        W 4027  11.255  19.578  13.381
35634W        W 4028  33.934  33.914   3.806
35635W        W 4029   8.817  11.536   1.870
35636W        W 4030  27.242  23.598  10.699
35637W        W 4031  22.356  40.958   0.849
35638W        W 4032   4.818  17.249  12.129
35639W        W 4033  15.149   5.527  10.255
35640W        W 4034  14.648  39.986  10.685
35641W        W 4035  12.795  37.857  11.949
35642W        W 4036   9.452  23.026  13.407
35643W        W 4037  29.001  22.985   3.580
35644W        W 4038   8.424  31.163   2.600
35645W        W 4039  43.243  27.984  13.094
35646W        W 4040  19.031  22.125   4.325
35647W        W 4041  38.654  19.599  13.428
35648W        W 4042   3.239  43.913  11.078
35649W        W 4043  19.200  15.080  10.703
35650W        W 4044  31.435  27.690   0.578
35651W        W 4045   4.213  34.366  14.238
35652W        W 4046  19.077  31.666  13.518
35653W        W 4047  13.540  36.443  13.072
35654W        W 4048  39.293  28.338  12.527
35655W        W 4049  40.271  18.298  13.422
35656W        W 4050  21.685   1.597  14.483
35657W        W 4051  34.648   9.421   1.884
35658W        W 4052  19.198  42.978  12.921
35659W        W 4053  23.837  38.418  12.401
35660W        W 4054   1.153  39.440  14.293
35661W        W 4055  25.422  41.250   0.285
35662W        W 4056  14.319  21.037   3.571
35663W        W 4057  32.891  18.945  12.173
35664W        W 4058  18.577  40.121   3.293
35665W        W 4059  12.087   9.184  12.403
35666W        W 4060  25.010  10.628  12.131
35667W        W 4061  41.526   4.153   3.268
35668W        W 4062  25.542  12.748  11.579
35669W        W 4063   0.340  16.676  13.079
35670W        W 4064   2.277   1.453  14.773
35671W        W 4065  44.950  12.353   2.992
35672W        W 4066   6.705   3.338  14.370
35673W        W 4067  36.853  40.994   0.326
35674W        W 4068  32.026  35.590  12.140
35675W        W 4069  21.686   6.136  13.498
35676W        W 4070   0.647   7.261   1.189
35677W        W 4071  32.963  28.991  11.652
35678W        W 4072  35.908  28.663  11.892
35679W        W 4073  24.969   5.198   3.639
35680W        W 4074  16.847  22.133  12.753
35681W        W 4075  25.489   3.260  13.743
35682W        W 4076   3.976   9.254   0.340
35683W        W 4077  41.175  25.697   3.253
35684W        W 4078   3.619   5.949  10.178
35685W        W 4079  30.541  28.473   1.549
35686W        W 4080   3.316  33.992  11.545
35687W        W 4081  43.536  39.962  11.445
35688W        W 4082   1.694  25.437  13.830
35689W        W 4083   3.856  22.860  11.382
35690W        W 4084  13.771  38.287   0.487
35691W        W 4085  13.613  31.641   3.381
35692W        W 4086  17.225   6.857   2.322
35693W        W 4087  42.995  40.566   0.680
35694W        W 4088  14.024  38.270  12.522
35695W        W 4089  28.227  40.733   0.286
35696W        W 4090  41.862  17.661  10.554
35697W        W 4091   4.484  14.917   5.051
35698W        W 4092  30.668  21.689  13.054
35699W        W 4093  37.316  40.369   1.232
35700W        W 4094  38.758  27.913   5.119
35701W        W 4095   3.283  37.186   4.583
35702W        W 4096  26.235  22.694  13.026
35703W        W 4097  18.587   4.251   0.808
35704W        W 4098  16.860   4.770   4.563
35705W        W 4099  17.584  41.500   3.122
35706W        W 4100   5.899  11.071   1.527
35707W        W 4101  43.711  10.717  11.372
35708W        W 4102  23.497  44.327   4.445
35709W        W 4103   7.782  36.824   1.379
35710W        W 4104   4.352  24.136   3.022
35711W        W 4105  38.888  36.400   3.814
35712W        W 4106  40.264  14.662   3.821
35713W        W 4107  39.458  28.140   1.358
35714W        W 4108  42.675  33.908   1.263
35715W        W 4109  21.001   6.382  12.576
35716W        W 4110  18.370  11.394   2.970
35717W        W 4111  44.890  39.748  13.515
35718W        W 4112  44.882  26.843   2.511
35719W        W 4113  43.022   2.469   5.167
35720W        W 4114   0.847  33.467   2.174
35721W        W 4115   1.753  20.843   0.348
35722W        W 4116  42.127   5.651  13.497
35723W        W 4117   3.338  23.611  11.142
35724W        W 4118   0.832  42.000   3.616
35725W        W 4119  19.186  27.652   1.729
35726W        W 4120   2.524  31.187   2.195
35727W        W 4121   6.820   5.546  11.241
35728W        W 4122  31.209  17.732  11.868
35729W        W 4123   1.437  12.721   2.077
35730W        W 4124  15.596  40.349   4.701
35731W        W 4125  17.662  35.171  13.479
35732W        W 4126  13.742  13.156   3.616
35733W        W 4127  24.009   1.994   4.885
35734W        W 4128  34.917  32.636   4.653
35735W        W 4129  22.163  34.095  13.937
35736W        W 4130  11.670  41.364   2.131
35737W        W 4131  29.248  17.160   5.072
35738W        W 4132  14.592  14.032   1.796
35739W        W 4133  19.068  28.462  14.415
35740W        W 4134  20.748   0.915   3.294
35741W        W 4135  10.551  43.427   2.856
35742W        W 4136  38.215  10.775   4.592
35743W        W 4137   8.607  22.309   3.749
35744W        W 4138  35.925  11.385   0.950
35745W        W 4139  17.612  25.516  13.814
35746W        W 4140   7.898   0.013  12.479
35747W        W 4141  18.683   8.525  10.254
35748W        W 4142  17.237  38.634  12.616
35749W        W 4143  29.630  20.617   1.274
35750W        W 4144  25.031  25.465   2.332
35751W        W 4145   6.710  43.979   0.174
35752W        W 4146  42.029  27.026   3.826
35753W        W 4147  36.422  37.083  11.605
35754W        W 4148  10.656  30.975   0.875
35755W        W 4149  25.077  33.537  14.799
35756W        W 4150  30.464  22.774  10.818
35757W        W 4151  16.746  13.952  14.971
35758W        W 4152   6.242  40.301  11.174
35759W        W 4153  26.257  34.609   4.585
35760W        W 4154   4.993  11.174   1.294
35761W        W 4155  44.073  24.654   3.109
35762W        W 4156  39.094  12.210   2.696
35763W        W 4157   8.997  44.900   2.769
35764W        W 4158  33.994  42.838   1.740
35765W        W 4159  38.366  18.524  12.051
35766W        W 4160  13.302  29.713   4.068
35767W        W 4161  32.672  43.336   2.658
35768W        W 4162  15.549  41.945   0.805
35769W        W 4163  23.250   1.624   1.692
35770W        W 4164   5.909   4.843  14.002
35771W        W 4165   3.710  15.009  11.671
35772W        W 4166  31.377  44.228   0.950
35773W        W 4167  15.762  10.568   4.662
35774W        W 4168  35.344  32.951  14.051
35775W        W 4169  22.320  28.481  10.140
35776W        W 4170  32.049  35.062  10.369
35777W        W 4171  27.119  21.226   4.332
35778W        W 4172  19.221  28.407   9.889
35779W        W 4173   2.870  18.528   0.370
35780W        W 4174  17.372  29.185   2.842
35781W        W 4175  12.163  17.517   3.809
35782W        W 4176  19.288  24.759  13.503
35783W        W 4177  30.231  41.812   3.771
35784W        W 4178  34.403  40.861   4.614
35785W        W 4179   6.465  44.442  12.961
35786W        W 4180   6.210  32.202   0.407
35787W        W 4181  44.523  12.227  11.986
35788W        W 4182  35.605  31.188  13.931
35789W        W 4183  23.122  27.247  10.612
35790W        W 4184   1.796   8.343   1.291
35791W        W 4185  32.502  10.595   3.938
35792W        W 4186   8.215  25.702  12.985
35793W        W 4187  30.006  32.468   2.003
35794W        W 4188  41.830  14.306   3.687
35795W        W 4189  13.203  14.860  11.185
35796W        W 4190  23.558  34.366  10.601
35797W        W 4191   1.208  16.393  11.227
35798W        W 4192  24.913  19.065   1.923
35799W        W 4193  36.442   8.339   1.284
35800W        W 4194  24.264  22.989   3.710
35801W        W 4195   1.409  36.414   1.309
35802W        W 4196  11.663  43.122  14.384
35803W        W 4197  31.179  30.044  14.853
35804W        W 4198   5.970  44.761   2.298
35805W        W 4199   6.194  18.141   4.233
35806W        W 4200   0.766  40.636   3.052
35807W        W 4201  27.451   1.270   2.075
35808W        W 4202  17.849  36.527  14.895
35809W        W 4203  25.600  27.619  10.900
35810W        W 4204  12.418  36.881   1.476
35811W        W 4205  23.827  31.947  13.517
35812W        W 4206  25.428  36.765  13.889
35813W        W 4207   3.467  35.194   4.613
35814W        W 4208  31.883  22.132   3.810
35815W        W 4209  38.795  22.347  12.570
35816W        W 4210  41.093  12.170   4.486
35817W        W 4211  14.782  10.724  13.342
35818W        W 4212  21.087  26.510  11.162
35819W        W 4213   2.436  28.890  11.191
35820W        W 4214  21.198  44.499  10.820
35821W        W 4215  24.191  26.590   0.345
35822W        W 4216  29.909  32.377  12.357
35823W        W 4217   7.128   9.639  14.318
35824W        W 4218  29.187   6.431  13.537
35825W        W 4219  31.434  41.804  11.416
35826W        W 4220  14.833   9.366   2.209
35827W        W 4221  38.316  12.124   3.405
35828W        W 4222  30.679  23.804   2.195
35829W        W 4223  22.007  39.851  14.427
35830W        W 4224  37.359  17.547  13.363
35831W        W 4225  29.620  14.097   4.674
35832W        W 4226   6.236   9.709   4.578
35833W        W 4227  37.617  16.733   4.083
35834W        W 4228   0.849  43.611   0.441
35835W        W 4229  29.964  36.339  11.164
35836W        W 4230  20.831  11.324  11.696
35837W        W 4231  26.887   8.825   5.051
35838W        W 4232  11.936  34.343  10.363
35839W        W 4233  42.485  26.291   1.722
35840W        W 4234  36.356  22.466  10.698
35841W        W 4235  36.318  34.433  14.410
35842W        W 4236  35.710  21.931   1.908
35843W        W 4237  42.770  11.379  13.859
35844W        W 4238  12.143  28.473   0.558
35845W        W 4239  20.974  28.275  14.880
35846W        W 4240   4.351  42.189  12.169
35847W        W 4241  11.844  26.515   4.514
35848W        W 4242   9.108  37.591  13.989
35849W        W 4243  40.247  12.267  11.055
35850W        W 4244  41.294  29.554  12.471
35851W        W 4245  22.592  35.991  11.132
35852W        W 4246   2.340   9.835   0.710
35853W        W 4247  41.479  40.645  14.242
35854W        W 4248   4.240  37.085  13.973
35855W        W 4249  16.183  14.499  14.063
35856W        W 4250  23.175  31.271   1.267
35857W        W 4251   8.387  29.497  10.947
35858W        W 4252  38.942  29.132  12.470
35859W        W 4253  16.595  30.121  14.533
35860W        W 4254  25.925  28.475  11.178
35861W        W 4255   5.319  24.094   4.008
35862W        W 4256  42.484   8.480  13.840
35863W        W 4257  39.497  32.931   3.294
35864W        W 4258  41.064  41.433   4.673
35865W        W 4259  18.320  40.122  11.925
35866W        W 4260  25.432  13.700  14.331
35867W        W 4261  44.402  18.111   4.726
35868W        W 4262  40.466   6.087   0.590
35869W        W 4263   1.061  40.036  14.961
35870W        W 4264  35.793  28.460  11.422
35871W        W 4265   9.863   4.854  12.372
35872W        W 4266  22.236  18.186  14.220
35873W        W 4267  11.275  30.542  12.018
35874W        W 4268  37.903  25.218  13.895
35875W        W 4269  23.027  23.550   4.504
35876W        W 4270  19.619  28.359  11.200
35877W        W 4271  29.217  29.109   1.276
35878W        W 4272  14.207  31.672  14.045
35879W        W 4273  19.088   2.361   1.655
35880W        W 4274   1.970  32.577   4.710
35881W        W 4275  25.174  12.961   1.194
35882W        W 4276   3.484  30.017   1.228
35883W        W 4277  37.239  22.035   1.217
35884W        W 4278   8.475  12.663   3.697
35885W        W 4279  14.117  33.344   3.525
35886W        W 4280  41.051   3.749  14.510
35887W        W 4281  15.600  26.102  14.582
35888W        W 4282  35.972   9.030  11.545
35889W        W 4283  13.839  11.282  14.479
35890W        W 4284  38.990  27.507  13.331
35891W        W 4285  32.479   6.378  12.582
35892W        W 4286  37.340  42.308   3.617
35893W        W 4287  17.336  26.449  14.024
35894W        W 4288  36.342  26.726   2.849
35895W        W 4289  17.177  27.589   1.694
35896W        W 4290  21.279  22.519   0.294
35897W        W 4291  14.208   2.665   4.250
35898W        W 4292  35.030   9.840   1.255
35899W        W 4293   5.886  16.687   0.330
35900W        W 4294  31.463  26.102  12.374
35901W        W 4295  13.265  42.634   1.702
35902W        W 4296   3.499  15.635   0.431
35903W        W 4297  17.475   6.949   2.811
35904W        W 4298   3.788   7.361   3.463
35905W        W 4299  34.282  25.309   2.023
35906W        W 4300  12.768  39.060   2.703
35907W        W 4301  17.483  23.434  12.916
35908W        W 4302  10.137  33.061  13.575
35909W        W 4303  20.612  21.956   4.300
35910W        W 4304  13.106   5.132   1.230
35911W        W 4305   0.348  32.695  14.039
35912W        W 4306  36.456  26.682  13.969
35913W        W 4307  44.206  17.688   4.920
35914W        W 4308  21.236   8.683   1.462
35915W        W 4309   5.401  27.466  14.993
35916W        W 4310  10.297  28.430   3.276
35917W        W 4311  27.090  34.218  14.066
35918W        W 4312  41.521   6.396   0.771
35919W        W 4313  34.064  26.106  12.873
35920W        W 4314   9.650   4.752  11.439
35921W        W 4315  33.546   7.345   2.062
35922W        W 4316  25.519   6.367  13.076
35923W        W 4317  19.297  21.702   4.532
35924W        W 4318  39.434  16.135  11.865
35925W        W 4319  42.912  35.078  13.453
35926W        W 4320  28.937  26.715   3.231
35927W        W 4321  26.709  21.326  12.880
35928W        W 4322  42.939  24.487  12.940
35929W        W 4323   8.199   6.015  13.971
35930W        W 4324  27.194   1.333   3.343
35931W        W 4325   9.285  16.223   2.807
35932W        W 4326  41.093  44.399   1.532
35933W        W 4327   5.344  35.433  12.839
35934W        W 4328  26.947  31.389   0.466
35935W        W 4329   3.542  43.445   3.270
35936W        W 4330  12.754  44.049  14.285
35937W        W 4331  12.639  15.399   4.406
35938W        W 4332  37.479  23.240   2.433
35939W        W 4333  13.732  27.534  14.536
35940W        W 4334  44.240  21.067   5.332
35941W        W 4335  32.476  32.849  12.240
35942W        W 4336   5.111  37.648  11.190
35943W        W 4337  12.858   1.967  11.641
35944W        W 4338  10.891  33.293   2.944
35945W        W 4339   5.655  21.021   2.215
35946W        W 4340  17.547  36.534   4.059
35947W        W 4341   0.775  14.120   0.937
35948W        W 4342  21.038  39.475   0.420
35949W        W 4343  15.278   3.983  10.108
35950W        W 4344  22.979  42.419  12.898
35951W        W 4345   9.568  18.145  12.862
35952W        W 4346  19.083  40.528   0.727
35953W        W 4347   8.648  43.254  10.690
35954W        W 4348  17.699  23.511   2.206
35955W        W 4349  41.871  41.891   4.533
35956W        W 4350  36.966  15.301   3.132
35957W        W 4351   0.851  31.572  12.791
35958W        W 4352   4.207  12.849  12.587
35959W        W 4353  30.670  17.713  13.925
35960W        W 4354   2.450  18.319  12.095
35961W        W 4355   5.857  40.258  13.483
35962W        W 4356  44.522  10.223  11.593
35963W        W 4357  43.018   4.085   3.770
35964W        W 4358   5.718  13.822   0.103
35965W        W 4359  31.936   9.969  10.165
35966W        W 4360   0.936   6.687  12.347
35967W        W 4361  15.717  27.483  13.437
35968W        W 4362  28.127  22.729  13.006
35969W        W 4363  24.902  31.538   1.279
35970W        W 4364  40.519  21.035   3.919
35971W        W 4365  19.292   0.523  12.092
35972W        W 4366  13.932  25.606  12.767
35973W        W 4367  29.147   1.960  14.470
35974W        W 4368  27.094   9.024   1.326
35975W        W 4369  17.573   2.593   3.562
35976W        W 4370  21.797   2.899   0.778
35977W        W 4371   8.152  22.094   0.855
35978W        W 4372  18.527  39.633   2.275
35979W        W 4373  34.963  36.514   2.610
35980W        W 4374  34.476  35.145   0.809
35981W        W 4375   3.352   0.202   4.087
35982W        W 4376  33.530  34.098  10.548
35983W        W 4377  22.620   3.209  12.400
35984W        W 4378  33.791   3.119   5.000
35985W        W 4379  18.544   1.371  12.832
35986W        W 4380  12.544  11.613   3.105
35987W        W 4381   2.162  22.105   2.745
35988W        W 4382  34.484   8.470   3.574
35989W        W 4383  16.879   8.269  13.762
35990W        W 4384   7.250  35.103  14.367
35991W        W 4385   1.249  10.817  14.953
35992W        W 4386  28.180  25.514   3.741
35993W        W 4387  10.822   8.630  13.785
35994W        W 4388  27.530  36.353  14.383
35995W        W 4389   8.534  23.604   2.596
35996W        W 4390  34.591  44.309   1.982
35997W        W 4391   8.631  11.477  13.455
35998W        W 4392  24.115  11.171   3.269
35999W        W 4393  43.094  42.615  13.956
36000W        W 4394  17.713   7.800  13.818
36001W        W 4395  13.697  19.912   1.097
36002W        W 4396   7.791  28.966  12.945
36003W        W 4397  12.204  43.343   1.885
36004W        W 4398   6.940  16.658   0.556
36005W        W 4399  37.672  44.205  11.060
36006W        W 4400  18.734  15.269   5.024
36007W        W 4401  18.478  18.178   3.621
36008W        W 4402  24.413   0.390   1.400
36009W        W 4403  14.106   3.231  11.710
36010W        W 4404  10.658  29.668  10.725
36011W        W 4405  10.402   2.726  11.107
36012W        W 4406  16.095   0.280  12.553
36013W        W 4407  41.856   4.800  13.857
36014W        W 4408  16.911   8.730  11.509
36015W        W 4409  27.598   9.427   0.767
36016W        W 4410   9.880   6.812  10.807
36017W        W 4411  33.784  38.839  12.764
36018W        W 4412  44.614  41.800  13.086
36019W        W 4413   0.250   1.358  11.897
36020W        W 4414  13.754  12.830   4.071
36021W        W 4415  18.600  21.396   2.884
36022W        W 4416  29.764   7.777  12.362
36023W        W 4417   4.749  16.743   4.141
36024W        W 4418  26.782  13.060  10.726
36025W        W 4419  41.454  22.811  14.768
36026W        W 4420   2.716   4.249   0.642
36027W        W 4421  20.793  40.321  14.582
36028W        W 4422  35.975  43.515   0.360
36029W        W 4423  40.449  44.909  13.971
36030W        W 4424   8.621   1.868   2.273
36031W        W 4425  12.541  38.972   1.651
36032W        W 4426  38.733  13.138  11.010
36033W        W 4427  18.140  40.699  11.567
36034W        W 4428   5.471  42.076  13.050
36035W        W 4429   1.771  39.869  13.094
36036W        W 4430  15.694  23.065   1.817
36037W        W 4431  37.630  33.253   9.846
36038W        W 4432   6.399   8.715   4.618
36039W        W 4433  21.202  18.735   0.940
36040W        W 4434  29.070   5.641   3.307
36041W        W 4435  35.772  13.329   4.061
36042W        W 4436  42.897  19.510  14.868
36043W        W 4437  24.021  24.198  14.908
36044W        W 4438  44.069  10.972   0.832
36045W        W 4439  21.168  25.987   2.164
36046W        W 4440  38.316  18.692   3.304
36047W        W 4441   5.612  36.022   1.418
36048W        W 4442  30.626  22.195  11.633
36049W        W 4443   7.665   0.298  14.573
36050W        W 4444  14.545  11.113  13.083
36051W        W 4445  17.223  18.783   0.370
36052W        W 4446  37.187  41.565  14.579
36053W        W 4447  18.190  19.375   1.639
36054W        W 4448  33.517  35.560  10.089
36055W        W 4449  18.342  24.110   1.677
36056W        W 4450  34.943  44.602  13.281
36057W        W 4451  11.333  22.569   3.176
36058W        W 4452  28.267  17.510   3.117
36059W        W 4453  22.355  14.878  14.920
36060W        W 4454  38.910  21.955  14.288
36061W        W 4455  16.208  13.156  14.284
36062W        W 4456  43.076  24.091   1.865
36063W        W 4457  42.107  39.468   2.859
36064W        W 4458  20.990  35.140   1.596
36065W        W 4459  30.126  26.144   1.266
36066W        W 4460   9.079  22.493   0.355
36067W        W 4461  39.619   6.266   3.356
36068W        W 4462  15.090  14.277  11.096
36069W        W 4463  24.155  33.355   4.593
36070W        W 4464  43.959   7.729   0.783
36071W        W 4465   1.095   6.220  14.718
36072W        W 4466  11.868   4.330   2.208
36073W        W 4467  34.920   6.814  14.550
36074W        W 4468  10.240  14.329  12.111
36075W        W 4469   3.405   6.858  12.439
36076W        W 4470  33.821  23.576   1.760
36077W        W 4471  13.209  36.119   2.866
36078W        W 4472  24.615  34.597  14.107
36079W        W 4473   5.022  22.161  10.161
36080W        W 4474  42.634  20.136  10.591
36081W        W 4475   0.291  18.641   1.898
36082W        W 4476  34.640  35.894   0.290
36083W        W 4477  43.837  15.993   0.337
36084W        W 4478  13.207   1.565  14.293
36085W        W 4479  15.593  24.608   0.935
36086W        W 4480  13.889  37.268   3.185
36087W        W 4481  25.751  32.595   0.968
36088W        W 4482  22.224  40.413  13.442
36089W        W 4483   5.173  18.196  12.167
36090W        W 4484  23.682  38.844   2.672
36091W        W 4485  32.125   1.082  14.880
36092W        W 4486  32.466   5.870  12.729
36093W        W 4487  30.022  26.547  14.376
36094W        W 4488  27.409  11.732  11.914
36095W        W 4489   1.451  14.198   0.280
36096W        W 4490  28.049  35.904   2.361
36097W        W 4491  31.589  33.221  13.375
36098W        W 4492  34.009  27.258   1.894
36099W        W 4493  13.237  16.169   1.765
36100W        W 4494  29.362  23.914   5.095
36101W        W 4495  34.057  37.747  11.148
36102W        W 4496  41.507  33.810  11.039
36103W        W 4497  33.368  14.229   4.294
36104W        W 4498  36.512  17.825   1.320
36105W        W 4499  42.399  11.133  12.542
36106W        W 4500  38.817  32.967  12.403
36107W        W 4501   0.101  34.889   4.515
36108W        W 4502  18.392  36.838  11.906
36109W        W 4503   4.438  40.982  10.658
36110W        W 4504   3.401   2.536   3.065
36111W        W 4505  23.430   3.269  13.787
36112W        W 4506   8.163  29.012  12.099
36113W        W 4507  20.969   0.110  14.106
36114W        W 4508  38.934  27.103   3.117
36115W        W 4509  42.940  41.687  11.605
36116W        W 4510   2.411  30.709   4.737
36117W        W 4511  40.480  31.597  10.973
36118W        W 4512  38.827  42.597  13.814
36119W        W 4513  20.257  11.339   2.361
36120W        W 4514  14.419  42.393  14.430
36121W        W 4515   9.218  37.502  10.585
36122W        W 4516  23.848  16.691  12.998
36123W        W 4517  28.575  29.637   1.674
36124W        W 4518  21.624  36.510  13.246
36125W        W 4519  27.668  12.807   4.181
36126W        W 4520  37.672  10.435   2.210
36127W        W 4521  36.990  29.985  13.319
36128W        W 4522  22.565   7.337  13.557
36129W        W 4523  43.401  35.450   0.933
36130W        W 4524  10.848  12.379   0.679
36131W        W 4525   7.703  38.805   4.182
36132W        W 4526   8.157   1.812  12.999
36133W        W 4527  11.272   1.073  14.993
36134W        W 4528  29.206  13.289  14.357
36135W        W 4529  41.443  17.727  13.091
36136W        W 4530  12.961   2.666   0.544
36137W        W 4531  25.633   4.840  12.897
36138W        W 4532  36.934  43.680  12.591
36139W        W 4533  16.316  21.087   3.278
36140W        W 4534   8.360  36.254  11.811
36141W        W 4535  43.366  10.504  11.697
36142W        W 4536  21.721  25.421   4.546
36143W        W 4537  42.931  23.983  12.917
36144W        W 4538  38.936  25.267  14.686
36145W        W 4539  11.457  28.483  14.456
36146W        W 4540  14.244   5.486  12.007
36147W        W 4541  31.218  26.924   2.350
36148W        W 4542  40.944  42.879   4.922
36149W        W 4543  34.842  31.827  13.863
36150W        W 4544  13.557  28.618   0.976
36151W        W 4545  21.742   9.952  12.419
36152W        W 4546  27.570  29.318   1.786
36153W        W 4547  24.137   5.875  10.729
36154W        W 4548  23.622  35.042   3.284
36155W        W 4549  11.650   8.704   4.141
36156W        W 4550   5.467  14.192   2.706
36157W        W 4551  28.848  41.516  11.117
36158W        W 4552  10.590  43.444  14.382
36159W        W 4553  11.290  31.336   0.311
36160W        W 4554  38.336  16.227   2.678
36161W        W 4555  40.004  39.807   4.604
36162W        W 4556  37.094  43.287  14.841
36163W        W 4557  37.563  44.533   4.263
36164W        W 4558  38.148  19.700  13.339
36165W        W 4559  37.304  24.652  13.042
36166W        W 4560  19.503  30.500   2.143
36167W        W 4561  14.257   7.433  14.737
36168W        W 4562  42.820  19.122  13.921
36169W        W 4563  32.002  34.632   3.212
36170W        W 4564  38.320  31.598  12.540
36171W        W 4565  42.977  35.941   4.592
36172W        W 4566  13.793  13.337  11.409
36173W        W 4567  32.529  27.136   0.416
36174W        W 4568  34.976  24.686  11.645
36175W        W 4569  37.026  36.916  14.494
36176W        W 4570  35.562  24.371   4.877
36177W        W 4571  16.822  26.098   4.600
36178W        W 4572   7.296  22.128   4.530
36179W        W 4573  20.098  27.046  13.601
36180W        W 4574  14.606   6.269  10.848
36181W        W 4575  41.748  20.752  13.450
36182W        W 4576  17.662  26.473   1.431
36183W        W 4577   7.597  16.544  11.684
36184W        W 4578  15.202  26.797  11.516
36185W        W 4579  17.026   1.293   0.302
36186W        W 4580   0.336   8.310   3.080
36187W        W 4581  14.637   9.316   1.172
36188W        W 4582   9.881  11.734   4.578
36189W        W 4583  16.224  43.688  12.619
36190W        W 4584   1.809   9.134  12.838
36191W        W 4585  22.013   7.331   1.920
36192W        W 4586  41.301  15.700   2.264
36193W        W 4587  33.554  35.458  14.476
36194W        W 4588   7.283  44.971  14.460
36195W        W 4589   9.123  11.219   2.198
36196W        W 4590  10.873  13.378   3.514
36197W        W 4591  27.085  37.584   0.655
36198W        W 4592  28.949  37.002  13.015
36199W        W 4593  15.563  13.739  13.469
36200W        W 4594  17.142  13.819  12.882
36201W        W 4595   3.657  18.859   0.919
36202W        W 4596  31.486  23.477  14.047
36203W        W 4597  36.846  32.977   3.210
36204W        W 4598  28.253  42.072  10.384
36205W        W 4599  42.091  34.064  14.528
36206W        W 4600  29.078   1.217   0.039
36207W        W 4601  12.951   0.331  12.889
36208W        W 4602   9.748  35.089   3.821
36209W        W 4603  38.742  40.041  13.955
36210W        W 4604  18.052   9.680   4.267
36211W        W 4605  35.880  21.819   1.421
36212W        W 4606  34.345   0.435   1.162
36213W        W 4607  11.954   7.802  11.079
36214W        W 4608  37.105  39.147   4.081
36215W        W 4609  36.796   6.309   0.332
36216W        W 4610  28.091   3.746   0.817
36217W        W 4611  22.827  21.247  14.233
36218W        W 4612   7.398  33.913   2.525
36219W        W 4613  27.897  30.735  12.215
36220W        W 4614   3.751  16.245   4.350
36221W        W 4615   8.726  26.541   3.674
36222W        W 4616  41.797  38.031  12.781
36223W        W 4617  21.827   0.415  13.869
36224W        W 4618   3.275  31.881   4.605
36225W        W 4619  28.271   0.166   9.895
36226W        W 4620  17.189  22.944  13.264
36227W        W 4621  38.958  20.482  10.661
36228W        W 4622  19.315   4.909   3.517
36229W        W 4623   0.118  27.458   1.282
36230W        W 4624  12.787  19.837   1.413
36231W        W 4625  43.429  41.127   2.799
36232W        W 4626  16.304  21.304  10.550
36233W        W 4627   6.741  15.650  10.598
36234W        W 4628   5.897  39.734  13.510
36235W        W 4629  40.938   8.840   3.219
36236W        W 4630  16.551  11.827  11.925
36237W        W 4631  27.513   2.130   4.912
36238W        W 4632  41.085  23.660  13.295
36239W        W 4633  28.135  37.523  12.073
36240W        W 4634  41.912  15.983  13.460
36241W        W 4635   0.786  20.104   4.651
36242W        W 4636   4.885  18.285   3.278
36243W        W 4637  28.003   9.667  11.175
36244W        W 4638   7.651  14.739  11.853
36245W        W 4639  26.577   9.834  12.607
36246W        W 4640   3.381  23.450  12.516
36247W        W 4641  38.841  39.115   1.129
36248W        W 4642   7.846  42.256   4.253
36249W        W 4643  28.907  21.672   2.434
36250W        W 4644   0.820  20.911  12.819
36251W        W 4645  10.626  28.703   1.681
36252W        W 4646  29.107  21.196  10.597
36253W        W 4647   0.112  37.196   0.418
36254W        W 4648  29.074  39.112  11.162
36255W        W 4649  24.611  44.557   4.166
36256W        W 4650  36.407  30.609   2.624
36257W        W 4651  31.878  10.374   3.776
36258W        W 4652  19.354  44.238  13.959
36259W        W 4653  14.399  26.281  11.977
36260W        W 4654  27.560  24.112   3.103
36261W        W 4655  28.580  26.937   0.851
36262W        W 4656   4.960  27.771  14.242
36263W        W 4657  20.140  28.190  14.414
36264W        W 4658  30.401   5.982  14.485
36265W        W 4659   7.642   9.690  14.238
36266W        W 4660  38.290  10.314   1.066
36267W        W 4661   3.943  14.763  12.118
36268W        W 4662  12.846  11.786  12.136
36269W        W 4663  15.084  28.518   0.742
36270W        W 4664  36.920  16.746  14.284
36271W        W 4665  19.236  17.682   1.835
36272W        W 4666  35.502   0.776  12.869
36273W        W 4667  25.145  26.764   1.279
36274W        W 4668  35.605  16.809  10.692
36275W        W 4669  20.004  35.039   3.189
36276W        W 4670   6.668  43.100   3.695
36277W        W 4671  29.920  24.610  11.477
36278W        W 4672   8.247  14.641   4.190
36279W        W 4673  19.573  20.642  10.017
36280W        W 4674  23.581  13.066  14.214
36281W        W 4675  33.413  41.236  13.364
36282W        W 4676  39.490  25.791   0.702
36283W        W 4677  21.782  27.932  12.766
36284W        W 4678  13.557  15.682   9.880
36285W        W 4679  18.126   7.433   3.601
36286W        W 4680  26.022  41.782   1.313
36287W        W 4681   2.927  33.488   0.477
36288W        W 4682  17.365  37.387   1.101
36289W        W 4683  17.545   2.929  14.487
36290W        W 4684   8.218  28.950   3.961
36291W        W 4685  15.158  13.884   4.413
36292W        W 4686   1.886  33.480   2.064
36293W        W 4687  15.552  24.165   1.276
36294W        W 4688   8.776  19.287  14.639
36295W        W 4689  33.464   1.546   4.925
36296W        W 4690  36.564  41.421  11.415
36297W        W 4691  13.188   8.125   2.808
36298W        W 4692  13.595  43.697  12.277
36299W        W 4693  41.874  29.499   4.742
36300W        W 4694  33.923  40.247  10.718
36301W        W 4695  15.746  29.155   0.399
36302W        W 4696  25.417  22.543   2.267
36303W        W 4697  16.765  28.055   4.760
36304W        W 4698  17.873   8.865  11.185
36305W        W 4699  34.381  27.604  13.840
36306W        W 4700  39.258  18.191   1.236
36307W        W 4701   4.662  42.803  12.102
36308W        W 4702  26.980  14.589   3.811
36309W        W 4703  22.614  38.007  10.779
36310W        W 4704  16.491  29.102   4.096
36311W        W 4705  16.540  38.635  12.082
36312W        W 4706  40.560  32.720  13.089
36313W        W 4707  38.120  44.268  12.048
36314W        W 4708   0.410  39.480  14.917
36315W        W 4709  38.297  26.470  10.426
36316W        W 4710  30.209  32.685   3.182
36317W        W 4711   7.496   9.593   2.837
36318W        W 4712   0.219  24.262   1.117
36319W        W 4713  36.632  29.768  12.006
36320W        W 4714  20.826  16.430  10.321
36321W        W 4715  28.428  21.030   4.566
36322W        W 4716  13.334   5.513  11.974
36323W        W 4717  12.366  16.337  13.997
36324W        W 4718  31.915   8.379   1.303
36325W        W 4719  42.957  41.763   4.124
36326W        W 4720  31.544  17.809  12.684
36327W        W 4721  17.147  19.039  13.936
36328W        W 4722  29.706  27.380  11.604
36329W        W 4723   0.322   7.018  11.604
36330W        W 4724  30.426  42.983  14.371
36331W        W 4725  12.819  22.057  14.434
36332W        W 4726  33.011  13.991   2.329
36333W        W 4727  29.621  23.727   3.753
36334W        W 4728  34.628  20.626  12.115
36335W        W 4729  35.570  23.881  12.568
36336W        W 4730   2.226   9.906   3.093
36337W        W 4731   4.169  40.226   2.323
36338W        W 4732  14.845  44.533   2.331
36339W        W 4733  38.793   1.887   4.408
36340W        W 4734  40.801  24.596  12.931
36341W        W 4735  30.708  14.328  13.847
36342W        W 4736  18.793  40.394  12.589
36343W        W 4737  27.260  20.304   0.088
36344W        W 4738  24.131  44.928  10.244
36345W        W 4739  13.187  32.560   4.461
36346W        W 4740  23.510  40.326  13.557
36347W        W 4741  39.371  17.097   2.425
36348W        W 4742  12.965   4.448   4.995
36349W        W 4743  13.902  10.267   0.413
36350W        W 4744  14.629  26.650   1.874
36351W        W 4745  34.404  38.574   2.524
36352W        W 4746   8.224  26.585  10.992
36353W        W 4747  24.248  38.024   4.176
36354W        W 4748  18.102  33.106  11.883
36355W        W 4749   0.050  10.715  12.947
36356W        W 4750  36.521   4.485  13.082
36357W        W 4751   5.262  28.441  12.317
36358W        W 4752  44.058   0.459   4.182
36359W        W 4753  10.306  30.739  14.830
36360W        W 4754  24.969  10.170   2.377
36361W        W 4755   7.534   4.321   3.276
36362W        W 4756  40.047  41.816  12.013
36363W        W 4757  34.653   4.528  13.408
36364W        W 4758  14.965  11.669   1.761
36365W        W 4759  25.356   0.763   2.707
36366W        W 4760  37.090  41.335  12.002
36367W        W 4761  15.600  10.191   0.808
36368W        W 4762   6.011  21.541  12.062
36369W        W 4763   8.659  18.292  12.677
36370W        W 4764  43.031  11.324   4.349
36371W        W 4765  29.064  36.306   2.071
36372W        W 4766  40.368   7.908  13.381
36373W        W 4767  42.113   6.225   2.193
36374W        W 4768  29.856  25.569   1.482
36375W        W 4769  38.414  28.446  13.923
36376W        W 4770   9.891   5.870   4.536
36377W        W 4771  35.097  20.126  11.562
36378W        W 4772  34.390  42.390  13.598
36379W        W 4773  31.842  44.699   1.777
36380W        W 4774   9.209  11.656   4.263
36381W        W 4775  35.000  12.088   0.343
36382W        W 4776   2.561  44.979  13.633
36383W        W 4777   2.096  20.609   1.150
36384W        W 4778  27.442  10.714   0.077
36385W        W 4779   0.293  16.770   2.273
36386W        W 4780  27.726  11.074   1.460
36387W        W 4781   8.159  34.087  13.002
36388W        W 4782  28.516  13.769  12.161
36389W        W 4783  28.023  10.079  12.592
36390W        W 4784  26.012  17.388  12.395
36391W        W 4785  39.414  13.323   3.989
36392W        W 4786  18.114   4.907   4.141
36393W        W 4787  44.240  24.240  12.814
36394W        W 4788  44.418  29.010  10.270
36395W        W 4789  41.342  10.784  14.070
36396W        W 4790  33.294  40.337   1.140
36397W        W 4791   3.213  28.523  13.456
36398W        W 4792  43.013  33.910   2.512
36399W        W 4793  36.193  13.464  11.579
36400W        W 4794  26.694  36.130  14.374
36401W        W 4795  32.456  15.334  10.736
36402W        W 4796   5.254   8.113   4.865
36403W        W 4797  39.128   1.306  13.335
36404W        W 4798   8.800   3.281   1.928
36405W        W 4799  20.027  11.857  14.811
36406W        W 4800   5.441  29.326   3.591
36407W        W 4801   2.618   3.199   5.019
36408W        W 4802   2.543  32.654   1.623
36409W        W 4803   4.802  21.645   3.162
36410W        W 4804   6.736  24.754   2.724
36411W        W 4805  14.768  17.820   0.057
36412W        W 4806  43.269  40.696  11.204
36413W        W 4807  12.753  34.453  13.458
36414W        W 4808   4.911  24.194   0.675
36415W        W 4809   1.995  23.093  12.498
36416W        W 4810   2.172  21.166   4.947
36417W        W 4811  40.420  12.286   0.082
36418W        W 4812  41.129   8.981   3.688
36419W        W 4813  33.163  31.911  11.611
36420W        W 4814  10.833   1.337   0.877
36421W        W 4815  12.336  27.642   3.647
36422W        W 4816   9.663   4.394   2.377
36423W        W 4817  23.492  40.970   4.017
36424W        W 4818  44.575  23.725   4.531
36425W        W 4819  27.710  27.586   2.817
36426W        W 4820  43.607  14.738  10.889
36427W        W 4821  21.131  13.134   3.177
36428W        W 4822  37.089  35.985  12.436
36429W        W 4823   7.112  33.444  12.478
36430W        W 4824   7.074  13.117   1.604
36431W        W 4825  26.984  30.458  12.788
36432W        W 4826  40.316   3.251   3.157
36433W        W 4827  14.853  16.122   0.769
36434W        W 4828   1.814  15.157   5.172
36435W        W 4829   3.007  37.231  12.381
36436W        W 4830  18.497  21.997   1.265
36437W        W 4831  23.227  10.930   3.726
36438W        W 4832  13.733  16.370  13.957
36439W        W 4833  13.730  21.033   2.974
36440W        W 4834   5.218  21.045   0.918
36441W        W 4835  13.789  27.884   1.654
36442W        W 4836  20.738   5.715  10.708
36443W        W 4837  20.082  41.171   1.427
36444W        W 4838  35.913  15.242  13.402
36445W        W 4839  12.812  37.975   0.495
36446W        W 4840  40.860  39.487  14.212
36447W        W 4841   3.398  25.448   4.306
36448W        W 4842  18.149  40.723   3.794
36449W        W 4843   8.826  10.593  10.720
36450W        W 4844  27.228  29.958  10.417
36451W        W 4845  35.316  30.203   1.221
36452W        W 4846   8.336   5.090  10.153
36453W        W 4847   8.262   0.887  12.375
36454W        W 4848   8.660  14.797   3.367
36455W        W 4849   1.265  23.004  10.961
36456W        W 4850  10.737   6.709  10.733
36457W        W 4851   0.965  23.153  14.948
36458W        W 4852   0.362  12.131   4.212
36459W        W 4853  26.463  38.419  12.916
36460W        W 4854  31.224   5.305   3.338
36461W        W 4855  32.450  32.664   4.166
36462W        W 4856  15.674  14.509  10.210
36463W        W 4857  19.917  29.530   2.398
36464W        W 4858  32.673  24.733  12.051
36465W        W 4859  16.278   7.827  12.101
36466W        W 4860  22.545  17.255  13.846
36467W        W 4861  41.025  26.462  14.588
36468W        W 4862  36.620  33.081   1.392
36469W        W 4863  18.132  20.643   3.411
36470W        W 4864  32.852  23.145  14.061
36471W        W 4865  23.257  39.427  10.612
36472W        W 4866  27.793  24.714   3.807
36473W        W 4867   3.952   2.068  10.318
36474W        W 4868  13.240  10.933  12.011
36475W        W 4869  17.633  31.556  14.395
36476W        W 4870  19.074  16.131  14.742
36477W        W 4871  39.117   8.227   2.201
36478W        W 4872  27.921  34.884  13.420
36479W        W 4873   4.909  22.308  14.419
36480W        W 4874  27.976  23.174   4.966
36481W        W 4875   7.939  27.012  12.941
36482W        W 4876  20.295  22.361  14.832
36483W        W 4877  26.736  14.185  12.149
36484W        W 4878  28.969  42.452  11.484
36485W        W 4879   1.657  11.896   2.337
36486W        W 4880  22.975  10.542   3.452
36487W        W 4881  17.059  16.817   4.223
36488W        W 4882  30.079  16.723   4.679
36489W        W 4883  30.634  36.052   2.234
36490W        W 4884  38.553  36.526   4.765
36491W        W 4885  28.784  32.421   2.980
36492W        W 4886  26.717  42.273   4.484
36493W        W 4887  25.373  25.209  11.093
36494W        W 4888  44.538  24.628  10.660
36495W        W 4889  19.343  12.107  11.468
36496W        W 4890  26.493  38.297   2.724
36497W        W 4891   4.932  24.985   2.658
36498W        W 4892  32.117  31.847  14.534
36499W        W 4893  36.636  14.684  10.527
36500W        W 4894  27.127  28.160  14.408
36501W        W 4895   3.916  11.355  12.462
36502W        W 4896   6.900  25.734  13.753
36503W        W 4897  40.470  11.812  11.284
36504W        W 4898  27.446   1.721  10.265
36505W        W 4899  29.583  18.327  14.468
36506W        W 4900  12.717  36.550   1.171
36507W        W 4901   7.784  11.811   4.132
36508W        W 4902   9.493  42.774  14.044
36509W        W 4903  42.877  22.182   4.721
36510W        W 4904  41.942  22.612  14.972
36511W        W 4905  17.243  25.374  10.720
36512W        W 4906  35.371  37.637  12.962
36513W        W 4907   4.025  14.147  12.491
36514W        W 4908  44.570   5.920  10.692
36515W        W 4909  12.116  22.230   4.825
36516W        W 4910  37.545  44.276   1.200
36517W        W 4911  36.007  16.796  13.821
36518W        W 4912  23.706  18.184  13.578
36519W        W 4913  37.931  27.041  14.114
36520W        W 4914  29.877  30.908  14.041
36521W        W 4915   1.736  39.815   2.823
36522W        W 4916  39.947  17.989  13.679
36523W        W 4917  25.931  18.542  11.647
36524W        W 4918  29.644  40.328   2.515
36525W        W 4919  24.466  35.561   2.654
36526W        W 4920  23.703   1.286  10.977
36527W        W 4921   7.942  38.465  13.174
36528W        W 4922  40.054  27.964   2.261
36529W        W 4923  39.785  23.502  10.669
36530W        W 4924  36.943  31.912   2.770
36531W        W 4925  12.783  12.047   0.287
36532W        W 4926  31.887  21.806  10.838
36533W        W 4927  15.800   0.243   1.358
36534W        W 4928  23.278  36.928  12.140
36535W        W 4929  31.168   1.293  11.537
36536W        W 4930  37.540  27.964  12.055
36537W        W 4931  39.259  18.239  12.046
36538W        W 4932  33.647  41.971  12.511
36539W        W 4933  13.762  32.891   1.905
36540W        W 4934  37.674  14.678   0.298
36541W        W 4935  11.163  21.069   3.127
36542W        W 4936  40.352   2.000  14.384
36543W        W 4937  20.812   9.126  11.907
36544W        W 4938  24.265  16.487   3.964
36545W        W 4939  37.102   8.919   3.346
36546W        W 4940   2.852  10.696  12.842
36547W        W 4941  27.856  35.939   0.811
36548W        W 4942  21.739  11.599   4.986
36549W        W 4943   9.873   2.835  11.002
36550W        W 4944  10.663  13.812  14.486
36551W        W 4945  36.499  35.295   1.978
36552W        W 4946  13.603  34.703   2.674
36553W        W 4947  38.879   8.316   2.646
36554W        W 4948  23.361  25.933  12.497
36555W        W 4949   7.318  19.748  14.080
36556W        W 4950  28.467   7.169  11.595
36557W        W 4951  23.323  43.499  12.602
36558W        W 4952  34.017  44.455   0.263
36559W        W 4953  29.877  31.213   1.989
36560W        W 4954   3.854  11.859   0.983
36561W        W 4955  20.234  34.785   2.148
36562W        W 4956  23.181   5.421  13.895
36563W        W 4957   2.146  15.407   2.721
36564W        W 4958  34.536  37.071   3.668
36565W        W 4959   7.657  22.613  12.776
36566W        W 4960  29.903  41.430   0.435
36567W        W 4961  16.104  13.694   3.404
36568W        W 4962  10.474   8.137  11.121
36569W        W 4963  38.428  14.597  12.667
36570W        W 4964  13.002  34.491   1.164
36571W        W 4965  42.550  16.728   1.856
36572W        W 4966  44.679  24.080   4.123
36573W        W 4967  36.475  17.312  10.871
36574W        W 4968  26.556   2.156  14.017
36575W        W 4969   1.021  24.272  14.293
36576W        W 4970  38.449  19.779   0.446
36577W        W 4971  16.684  27.357  12.030
36578W        W 4972  28.563  29.517  12.849
36579W        W 4973  12.769  34.109   0.855
36580W        W 4974  34.927  24.218   0.971
36581W        W 4975   4.785  44.938   4.322
36582W        W 4976   9.677  14.206  10.587
36583W        W 4977  16.109  16.652  11.907
36584W        W 4978  12.684  41.578   1.275
36585W        W 4979  28.159  40.929   1.459
36586W        W 4980  23.450  17.012  12.982
36587W        W 4981  11.970  42.495  12.013
36588W        W 4982  31.600  31.634   2.680
36589W        W 4983  41.068   7.101   2.104
36590W        W 4984   8.333  37.819   3.575
36591W        W 4985  19.149  23.124   3.853
36592W        W 4986  22.556  35.926   5.164
36593W        W 4987   3.584   6.152   2.382
36594W        W 4988  29.697  23.214   3.784
36595W        W 4989  12.831   3.793   4.142
36596W        W 4990   1.764  30.506  11.765
36597W        W 4991  33.523  40.006  12.489
36598W        W 4992  43.966  43.717  12.903
36599W        W 4993  23.069  22.767   1.560
36600W        W 4994   3.215  21.747  10.944
36601W        W 4995  19.555  14.381  12.586
36602W        W 4996   8.374  15.374  10.848
36603W        W 4997  20.740  38.214   1.357
36604W        W 4998  32.956  38.511   1.206
36605W        W 4999  21.671  42.786  12.211
36606W        W 5000  13.340  20.883  12.142
36607W        W 5001  29.824  18.425  12.879
36608W        W 5002   5.908   1.350   0.719
36609W        W 5003   6.706  41.478   3.802
36610W        W 5004  40.981   8.578  13.825
36611W        W 5005   5.904  35.935   4.801
36612W        W 5006   2.369  23.644   0.933
36613W        W 5007   5.275  17.277  11.840
36614W        W 5008  21.234  38.421   0.370
36615W        W 5009   9.467  35.143  12.427
36616W        W 5010  25.443  11.089   2.395
36617W        W 5011   5.829  22.081   4.748
36618W        W 5012   8.636  18.828   4.514
36619W        W 5013  14.091  33.660  11.621
36620W        W 5014  11.708  15.003   1.805
36621W        W 5015   5.661  18.216  13.485
36622W        W 5016   9.268  12.726  12.898
36623W        W 5017  38.232  17.385  12.068
36624W        W 5018  41.645  43.202   4.629
36625W        W 5019  20.031  24.509  11.896
36626W        W 5020  16.075  12.567  10.771
36627W        W 5021   5.888  10.841  12.006
36628W        W 5022  26.715  43.302  11.716
36629W        W 5023  37.048  25.552   0.019
36630W        W 5024  14.161  28.446   2.394
36631W        W 5025  22.531  43.358   1.756
36632W        W 5026  35.826  39.528   4.602
36633W        W 5027  38.493  24.190   0.250
36634W        W 5028   1.312   5.900  12.483
36635W        W 5029  43.833   0.525  13.425
36636W        W 5030   7.796  42.869   4.927
36637W        W 5031   1.436  33.317   2.271
36638W        W 5032  24.585  29.982  11.097
36639W        W 5033  36.824  40.004  12.920
36640W        W 5034  19.725  37.950   2.623
36641W        W 5035  24.107   6.220   3.442
36642W        W 5036  37.898  20.049   0.500
36643W        W 5037  44.909  38.048   2.913
36644W        W 5038  38.674  11.834  10.703
36645W        W 5039  33.188  37.602  13.259
36646W        W 5040  36.827  19.639  11.581
36647W        W 5041  10.703  12.838   1.585
36648W        W 5042  21.962  37.453   4.088
36649W        W 5043  33.276  28.139  12.472
36650W        W 5044   5.742  12.761  13.402
36651W        W 5045  38.879  11.199   2.800
36652W        W 5046  14.616  14.269  14.307
36653W        W 5047   7.680  10.241  14.786
36654W        W 5048   3.970  41.951   1.836
36655W        W 5049  27.934  31.609   0.779
36656W        W 5050  30.502  38.963   4.329
36657W        W 5051  37.897  17.606  14.818
36658W        W 5052  23.946  41.970   5.088
36659W        W 5053   7.179  36.510   3.542
36660W        W 5054  23.506   0.547   4.164
36661W        W 5055   1.034  18.224  12.940
36662W        W 5056  11.844  17.000  11.523
36663W        W 5057   1.330  37.570  10.377
36664W        W 5058  29.441   0.754   0.914
36665W        W 5059  11.562  16.348  12.027
36666W        W 5060  20.557   8.455   4.405
36667W        W 5061  27.532  35.106   2.392
36668W        W 5062  15.001  40.425  14.278
36669W        W 5063  27.072   7.925   2.205
36670W        W 5064  13.134  36.382   2.238
36671W        W 5065   6.778  38.027  14.399
36672W        W 5066  43.360  19.297   1.735
36673W        W 5067  29.162  27.966  12.030
36674W        W 5068   9.446  42.807  11.688
36675W        W 5069  32.527   3.502  11.188
36676W        W 5070   7.851  12.753   4.533
36677W        W 5071   6.884  30.726  11.332
36678W        W 5072   6.685  26.608  14.203
36679W        W 5073  36.854  12.074  12.140
36680W        W 5074  21.220  34.066   0.539
36681W        W 5075  29.157  36.499   3.596
36682W        W 5076  25.179  22.764  12.026
36683W        W 5077  35.619  25.160  10.898
36684W        W 5078   9.619  33.602   3.825
36685W        W 5079  23.825  37.219   3.762
36686W        W 5080  21.110  24.497  14.948
36687W        W 5081   4.260  11.183  14.366
36688W        W 5082  11.281   9.637   1.135
36689W        W 5083  11.166  32.637  10.580
36690W        W 5084   3.786  40.419  12.797
36691W        W 5085   6.963  38.111   3.661
36692W        W 5086   4.710  25.832   4.959
36693W        W 5087  39.644  12.324  12.954
36694W        W 5088   6.829  29.498   2.329
36695W        W 5089  23.197  22.294  12.047
36696W        W 5090  44.344  21.258  10.557
36697W        W 5091  10.876  42.037  10.730
36698W        W 5092  10.337  10.496   4.994
36699W        W 5093  16.611  37.225  12.922
36700W        W 5094  15.782  39.325   2.294
36701W        W 5095  18.914  12.083  13.420
36702W        W 5096  36.277   3.457  14.008
36703W        W 5097  33.180  12.993   0.882
36704W        W 5098  42.009  24.035   4.332
36705W        W 5099  37.895   8.401  12.547
36706W        W 5100   8.281  41.833   3.594
36707W        W 5101   9.210  25.143   1.856
36708W        W 5102  24.736  21.815  13.792
36709W        W 5103  22.016  26.917   1.696
36710W        W 5104  11.279  10.917  13.944
36711W        W 5105  18.260  13.617  11.595
36712W        W 5106  40.322   4.398   2.902
36713W        W 5107  14.737  44.813   1.902
36714W        W 5108   9.656  42.512   4.389
36715W        W 5109  29.348   2.364  12.422
36716W        W 5110  42.533  34.862   1.568
36717W        W 5111  24.473  18.136   0.267
36718W        W 5112   5.712  40.785  14.379
36719W        W 5113  37.099  29.651  11.084
36720W        W 5114  12.912  31.069   1.244
36721W        W 5115  36.475  19.502  13.903
36722W        W 5116  16.996  27.593  10.864
36723W        W 5117  10.365  13.008  10.085
36724W        W 5118  37.050  15.657   1.647
36725W        W 5119  39.210  25.066  11.923
36726W        W 5120  29.167  10.131   1.762
36727W        W 5121  20.727   4.936   2.699
36728W        W 5122  27.951  17.968  10.814
36729W        W 5123  16.668  33.117   0.786
36730W        W 5124  28.876   0.889  13.891
36731W        W 5125   6.829  28.972  11.575
36732W        W 5126   3.575  25.248   4.811
36733W        W 5127  31.565  23.763   4.717
36734W        W 5128   8.271  12.788   2.295
36735W        W 5129   9.035  41.519  13.492
36736W        W 5130  41.393  35.263   3.719
36737W        W 5131  28.468   7.164  10.594
36738W        W 5132   0.386  14.693  10.606
36739W        W 5133  37.550   8.432   4.035
36740W        W 5134   1.353   6.172   3.193
36741W        W 5135  15.844  42.287  13.375
36742W        W 5136  28.934  20.672   2.063
36743W        W 5137   2.371  21.734   1.756
36744W        W 5138  44.041  22.930   4.847
36745W        W 5139   3.801  43.272  12.094
36746W        W 5140  21.983  17.298   4.510
36747W        W 5141   3.549   0.477   0.436
36748W        W 5142  32.489  26.382   3.193
36749W        W 5143   8.800   1.047  14.640
36750W        W 5144  35.811  24.461  11.115
36751W        W 5145   4.470  23.798   2.653
36752W        W 5146  39.070   5.450   2.224
36753W        W 5147  26.952  36.836  11.156
36754W        W 5148   8.237  14.013   4.984
36755W        W 5149  25.878   7.065   1.239
36756W        W 5150  24.209  29.709  12.958
36757W        W 5151  14.512  20.003   3.177
36758W        W 5152  23.867   9.802   2.672
36759W        W 5153  15.016  35.176  14.018
36760W        W 5154  22.252   4.832   2.203
36761W        W 5155  18.212  38.307  14.929
36762W        W 5156  10.439  38.581   3.362
36763W        W 5157  19.927   9.542  13.834
36764W        W 5158   8.365  16.810  10.985
36765W        W 5159  19.000  24.479  10.882
36766W        W 5160   8.864   0.242  12.822
36767W        W 5161  42.216   5.303  13.009
36768W        W 5162  17.633  25.660  10.562
36769W        W 5163  26.472  35.472   4.358
36770W        W 5164  13.822  11.164   2.378
36771W        W 5165  32.313  12.226   0.881
36772W        W 5166  31.095  28.034  11.176
36773W        W 5167  35.157  16.350  12.443
36774W        W 5168  20.001  38.606  11.745
36775W        W 5169   9.355   1.476  11.475
36776W        W 5170   1.508  42.100  13.092
36777W        W 5171  17.770   7.834   1.336
36778W        W 5172   6.717  32.414  11.175
36779W        W 5173   2.443  39.618   0.009
36780W        W 5174  12.607  28.746   0.537
36781W        W 5175  15.791   5.244   2.609
36782W        W 5176  34.443  16.137   4.453
36783W        W 5177   5.717  24.157  14.405
36784W        W 5178  13.699  11.160  13.932
36785W        W 5179   8.534   7.813   4.643
36786W        W 5180   5.643  26.054   2.353
36787W        W 5181  43.726  40.827  11.024
36788W        W 5182  29.564  33.954  11.914
36789W        W 5183  34.915  29.354   3.646
36790W        W 5184  25.591  38.880  14.290
36791W        W 5185  33.042  13.897   0.898
36792W        W 5186   2.079   5.422   3.127
36793W        W 5187   8.418  27.253  12.812
36794W        W 5188  29.434  33.341   0.270
36795W        W 5189   1.792  34.990   2.661
36796W        W 5190   9.693  44.730   1.346
36797W        W 5191  34.470  14.801   3.700
36798W        W 5192  26.244  28.156  13.003
36799W        W 5193  25.318   0.760   3.625
36800W        W 5194  19.076   1.742  14.485
36801W        W 5195  14.243  31.077  14.411
36802W        W 5196  22.266  32.271  12.001
36803W        W 5197  25.750  35.873   4.977
36804W        W 5198  35.163  29.715  11.213
36805W        W 5199  17.168  35.194  14.173
36806W        W 5200  30.893  31.863   0.733
36807W        W 5201   6.648  34.355  12.786
36808W        W 5202  24.853  27.945  14.450
36809W        W 5203  40.454  24.162   4.174
36810W        W 5204   6.545  42.559   3.680
36811W        W 5205  15.340  29.552  14.439
36812W        W 5206  36.774  40.474  11.641
36813W        W 5207  26.300  10.118   5.513
36814W        W 5208   0.396   3.323  11.029
36815W        W 5209  42.266   2.934  12.082
36816W        W 5210  31.908  39.209  13.093
36817W        W 5211  22.170  29.860  12.608
36818W        W 5212  38.081  10.824  12.851
36819W        W 5213  42.907  44.472   1.165
36820W        W 5214  15.376   2.364   0.934
36821W        W 5215  14.726  13.838  10.748
36822W        W 5216  21.968  26.152  14.832
36823W        W 5217  19.809  16.334   2.118
36824W        W 5218  25.556   7.639   4.325
36825W        W 5219  18.812   3.054  12.217
36826W        W 5220  26.028  11.464   9.913
36827W        W 5221   3.174  41.529   3.742
36828W        W 5222  15.346   7.108  13.901
36829W        W 5223  29.089   8.231  14.843
36830W        W 5224   7.482  16.875   3.692
36831W        W 5225  31.882  19.969   0.859
36832W        W 5226  38.374  13.222   3.630
36833W        W 5227  37.511  40.147   1.811
36834W        W 5228  24.675  34.680  14.610
36835W        W 5229  36.543  40.976  13.313
36836W        W 5230  34.552  41.952   0.074
36837W        W 5231   2.846  12.168   0.084
36838W        W 5232   0.444  23.988   0.102
36839W        W 5233  29.903  13.589  14.541
36840W        W 5234  39.281   4.205   3.685
36841W        W 5235  43.928   4.433  14.382
36842W        W 5236   4.145   8.880   4.040
36843W        W 5237  36.776  20.393  12.495
36844W        W 5238   7.833  29.618   1.307
36845W        W 5239  17.758  30.438   4.179
36846W        W 5240  19.097  19.906  10.460
36847W        W 5241   8.867  39.778  14.949
36848W        W 5242  29.008  33.000   4.178
36849W        W 5243  35.546  32.744  11.074
36850W        W 5244  32.551  35.064  12.585
36851W        W 5245   2.916   3.203   1.382
36852W        W 5246   3.701  23.654  11.494
36853W        W 5247  20.709  43.260   4.148
36854W        W 5248  19.610   5.534  11.215
36855W        W 5249  21.361  24.075   0.374
36856W        W 5250   7.818  40.173   4.049
36857W        W 5251  20.667  17.829   0.920
36858W        W 5252  14.980  20.125  12.649
36859W        W 5253  29.886  38.809  11.674
36860W        W 5254  24.274  28.538   4.688
36861W        W 5255  38.335  18.202  11.645
36862W        W 5256  27.964  18.207   2.831
36863W        W 5257  11.122  44.702  12.658
36864W        W 5258  21.770  14.637   3.747
36865W        W 5259  31.738  18.177   3.349
36866W        W 5260   9.218  28.320   1.357
36867W        W 5261  16.701  31.791  10.254
36868W        W 5262  23.760  17.053  14.531
36869W        W 5263  14.375  19.192  14.715
36870W        W 5264  19.683  29.178   1.446
36871W        W 5265   1.031  33.552   1.120
36872W        W 5266  30.592  10.201   1.011
36873W        W 5267  18.199  37.883   2.183
36874W        W 5268  37.694  16.272  12.764
36875W        W 5269  27.085  25.612   2.922
36876W        W 5270  19.607  12.931  14.902
36877W        W 5271  42.492  42.502   3.247
36878W        W 5272  10.362  31.041   3.204
36879W        W 5273   1.877  13.322   3.218
36880W        W 5274  23.082   7.347   2.738
36881W        W 5275   5.760  12.819  14.879
36882W        W 5276  13.208  32.977  12.093
36883W        W 5277  39.275   4.339   0.752
36884W        W 5278   1.195  36.070  10.626
36885W        W 5279  42.094  30.767   0.718
36886W        W 5280  11.075  27.918  11.059
36887W        W 5281  13.644   3.060   0.977
36888W        W 5282  38.027   9.769   2.733
36889W        W 5283   2.876   5.357  14.711
36890W        W 5284  10.811  19.726   4.091
36891W        W 5285  30.000  44.317  11.111
36892W        W 5286  38.689  31.307  10.431
36893W        W 5287  23.740  15.278   4.219
36894W        W 5288  42.143  37.443  13.972
36895W        W 5289  17.679  27.429   3.084
36896W        W 5290  18.642  18.668   0.793
36897W        W 5291  14.581  39.729   3.763
36898W        W 5292  33.118  15.624  14.530
36899W        W 5293   2.112  13.231  10.154
36900W        W 5294  26.660   5.647  12.881
36901W        W 5295  20.782  28.617  11.550
36902W        W 5296   5.901  12.171  11.105
36903W        W 5297  22.253  15.224  14.544
36904W        W 5298  32.586   9.417   2.707
36905W        W 5299  42.027  28.880  13.836
36906W        W 5300  37.974  19.541  12.875
36907W        W 5301  36.448  14.080   1.611
36908W        W 5302  37.590   6.390  11.323
36909W        W 5303   1.978  24.420  12.428
36910W        W 5304  15.837   5.966   2.244
36911W        W 5305  25.070   0.082  11.617
36912W        W 5306  21.676  15.608   0.329
36913W        W 5307  35.414  20.793  13.409
36914W        W 5308  38.416   2.581   3.854
36915W        W 5309  23.079  34.075  11.145
36916W        W 5310  13.589  35.861   4.128
36917W        W 5311   9.624  23.499  13.501
36918W        W 5312   0.797  22.244   0.834
36919W        W 5313  31.794  35.930   4.147
36920W        W 5314  23.530  34.657   1.834
36921W        W 5315   9.845  18.307   3.831
36922W        W 5316  38.127  34.615   4.220
36923W        W 5317   8.433  42.795   2.197
36924W        W 5318   4.727  32.930   3.219
36925W        W 5319  27.052  22.290  12.939
36926W        W 5320  35.883  20.266   0.300
36927W        W 5321  21.846  40.958  11.769
36928W        W 5322   5.315  39.395  11.473
36929W        W 5323  19.337   0.479   0.826
36930W        W 5324   0.273  36.616   2.875
36931W        W 5325  26.768  22.703   3.697
36932W        W 5326  12.393   4.642  13.590
36933W        W 5327  42.360  42.336   4.641
36934W        W 5328  35.410  10.873  11.620
36935W        W 5329  17.227  24.308  12.362
36936W        W 5330  34.084  12.247   1.786
36937W        W 5331  42.144   8.443  10.689
36938W        W 5332  35.956   2.234   0.351
36939W        W 5333   8.856   3.258  14.185
36940W        W 5334  42.315  37.759   1.324
36941W        W 5335  20.254  25.769  13.305
36942W        W 5336  34.003  11.852   4.355
36943W        W 5337  23.107  30.965   2.763
36944W        W 5338  16.826  26.672  11.213
36945W        W 5339  24.484  20.555  14.458
36946W        W 5340  19.093  30.488  13.708
36947W        W 5341  44.570  33.957  14.962
36948W        W 5342   7.624  25.521  12.982
36949W        W 5343   0.053   1.771  11.614
36950W        W 5344  38.086  29.214  13.438
36951W        W 5345  27.670   2.175   1.353
36952W        W 5346  34.845  34.942   2.831
36953W        W 5347   8.732  42.060   3.735
36954W        W 5348  19.636  17.645   0.455
36955W        W 5349  16.867  41.391   2.464
36956W        W 5350  19.679  27.700  13.397
36957W        W 5351  30.706  42.930   1.043
36958W        W 5352  11.863  43.709   4.087
36959W        W 5353  21.332  25.348   0.491
36960W        W 5354  17.942   6.806   3.063
36961W        W 5355  35.388   9.889   0.318
36962W        W 5356  24.068   5.369   2.107
36963W        W 5357  44.952  36.711   0.254
36964W        W 5358  25.770  22.282   2.849
36965W        W 5359  15.888   2.160  10.784
36966W        W 5360  20.415  30.621   1.723
36967W        W 5361  13.066  25.553   3.564
36968W        W 5362  21.080   6.813   0.005
36969W        W 5363  35.501  21.373   3.204
36970W        W 5364  34.150  38.506   4.722
36971W        W 5365  27.555   0.754   4.197
36972W        W 5366  41.076   0.238   4.834
36973W        W 5367   5.694   8.444  11.898
36974W        W 5368   8.100  31.468  12.949
36975W        W 5369   3.128  37.954   1.693
36976W        W 5370  40.896  35.201   3.635
36977W        W 5371  25.152  11.117   3.621
36978W        W 5372  33.135   4.397  14.837
36979W        W 5373  36.982   7.112  14.400
36980W        W 5374  16.218  27.319  11.020
36981W        W 5375   4.329  38.389   2.183
36982W        W 5376   4.369  24.660   9.649
36983W        W 5377  19.042  31.116  13.026
36984W        W 5378   6.507  22.625  10.355
36985W        W 5379   0.882   8.166   1.697
36986W        W 5380   2.007  30.130  14.406
36987W        W 5381   5.684  43.345  13.422
36988W        W 5382   1.425   5.041   3.685
36989W        W 5383  37.344  17.493   1.411
36990W        W 5384  44.504  26.284   3.295
36991W        W 5385  33.504  21.524  14.861
36992W        W 5386  11.089  36.623   3.156
36993W        W 5387  35.623   3.931   0.735
36994W        W 5388  14.050   1.841   0.924
36995W        W 5389  36.571  22.808   0.780
36996W        W 5390  43.369   2.890   2.346
36997W        W 5391   3.824  32.670  11.654
36998W        W 5392   5.493  17.831  12.506
36999W        W 5393  39.485  18.614   1.000
37000W        W 5394  25.213  12.311   0.937
37001W        W 5395  24.607  33.345   1.368
37002W        W 5396  44.313   0.244   3.786
37003W        W 5397  20.302  38.835  13.322
37004W        W 5398  20.345   2.484  11.904
37005W        W 5399  33.585  33.844   2.288
37006W        W 5400   3.875   9.660   3.745
37007W        W 5401  12.104   0.648  12.897
37008W        W 5402  23.825  27.498  10.717
37009W        W 5403   1.719  38.287   1.932
37010W        W 5404  16.103  25.065  12.120
37011W        W 5405  28.777  19.507  11.994
37012W        W 5406  20.047  24.200   1.848
37013W        W 5407   9.227  16.082  10.812
37014W        W 5408  28.005   3.003  14.453
37015W        W 5409  35.275  15.298   1.698
37016W        W 5410  29.082  32.580  12.937
37017W        W 5411   1.291  26.086  13.311
37018W        W 5412   3.427   5.073  13.707
37019W        W 5413  15.514   8.799  13.020
37020W        W 5414  14.292  29.647  14.934
37021W        W 5415  20.663  36.377  14.507
37022W        W 5416  30.656   2.413  13.892
37023W        W 5417  11.296  19.729   3.859
37024W        W 5418  36.443  32.025   2.678
37025W        W 5419  24.201   9.407   3.787
37026W        W 5420   9.862  17.738  10.892
37027W        W 5421  38.979  25.466  11.661
37028W        W 5422   3.889  40.582  14.251
37029W        W 5423  36.830  14.339  10.167
37030W        W 5424  35.351  44.387  10.692
37031W        W 5425   2.639   7.127   3.166
37032W        W 5426  41.179   4.946   3.665
37033W        W 5427  43.154   6.169  13.042
37034W        W 5428  29.353   5.476  12.024
37035W        W 5429  42.838  36.432   4.489
37036W        W 5430  42.215  11.597   4.041
37037W        W 5431  16.211  37.402   2.713
37038W        W 5432  39.057  17.416  14.091
37039W        W 5433   3.788  25.997  14.777
37040W        W 5434  20.707   9.015   2.148
37041W        W 5435  16.161  21.057  13.827
37042W        W 5436   7.899  33.053  12.343
37043W        W 5437  37.671  41.396   2.345
37044W        W 5438  29.662  24.401   2.337
37045W        W 5439  36.913  16.096   3.401
37046W        W 5440  34.479  11.345   0.290
37047W        W 5441  43.946  42.493  12.979
37048W        W 5442  17.790  28.192   4.577
37049W        W 5443  25.230  21.538   1.687
37050W        W 5444  18.570  16.026  11.104
37051W        W 5445  19.707  14.356  12.088
37052W        W 5446  25.519  25.665   0.019
37053W        W 5447  20.165  39.757  14.598
37054W        W 5448  15.637  42.810  13.363
37055W        W 5449   8.629   0.013   1.811
37056W        W 5450  33.146   2.647   3.951
37057W        W 5451   9.791  33.656  12.998
37058W        W 5452   7.314  20.596  13.007
37059W        W 5453  34.273  27.093   4.014
37060W        W 5454  31.579  42.061   4.082
37061W        W 5455  20.172  39.912   9.766
37062W        W 5456  14.621  20.802   0.381
37063W        W 5457  28.945  43.335   4.548
37064W        W 5458  44.999   0.240   3.597
37065W        W 5459   1.318  19.581   0.324
37066W        W 5460   2.231   7.284  14.523
37067W        W 5461  34.669  41.907  13.512
37068W        W 5462  25.907   9.414  11.661
37069W        W 5463  30.091  10.832  11.649
37070W        W 5464   3.774  26.220  14.301
37071W        W 5465  23.006  38.472   1.862
37072W        W 5466  18.531  29.653   3.254
37073W        W 5467   7.385  15.084   1.140
37074W        W 5468   4.415  31.762   0.748
37075W        W 5469   7.836  19.689   0.876
37076W        W 5470  22.251  26.947  14.917
37077W        W 5471   2.239  15.169  10.564
37078W        W 5472  16.866   8.976   0.522
37079W        W 5473  19.712  33.239   3.153
37080W        W 5474   0.399   0.917   3.628
37081W        W 5475  30.896   8.763   2.862
37082W        W 5476  14.803  19.360   0.425
37083W        W 5477  24.850  19.103  11.052
37084W        W 5478  16.365  34.596   0.501
37085W        W 5479  32.378   1.685  10.950
37086W        W 5480  29.391  16.654  10.708
37087W        W 5481  39.548  22.589  14.213
37088W        W 5482  44.799   2.166   2.895
37089W        W 5483  36.059  27.683  13.406
37090W        W 5484  12.202  31.424  14.818
37091W        W 5485   1.073  30.139   0.510
37092W        W 5486  11.813  21.190   0.801
37093W        W 5487  41.370  40.302   0.472
37094W        W 5488  44.651  14.811  14.742
37095W        W 5489  43.541  17.602   3.069
37096W        W 5490  41.793  44.985  12.047
37097W        W 5491  17.868  13.733  12.993
37098W        W 5492   2.289  21.492   2.202
37099W        W 5493   7.436  14.278   0.066
37100W        W 5494  10.465  40.593  14.457
37101W        W 5495   6.511  26.178   4.093
37102W        W 5496  12.413  36.050   4.880
37103W        W 5497   3.740  20.417  11.528
37104W        W 5498  35.233  12.562   5.323
37105W        W 5499  28.111  35.443  12.407
37106W        W 5500  26.078   9.939  11.750
37107W        W 5501  40.849  43.042  14.502
37108W        W 5502   6.436  43.803  13.340
37109W        W 5503  37.128  17.609  12.894
37110W        W 5504  25.189   6.398  11.872
37111W        W 5505   4.030  12.321   1.172
37112W        W 5506  21.421  31.009  12.667
37113W        W 5507  14.152  12.930  11.466
37114W        W 5508   9.257   6.781  14.556
37115W        W 5509   1.300   5.398  14.784
37116W        W 5510  28.750   0.077  12.520
37117W        W 5511  38.642   5.812  12.081
37118W        W 5512  37.838  29.950  14.101
37119W        W 5513  44.044  29.962  14.145
37120W        W 5514   8.745  17.817  11.637
37121W        W 5515  35.375  30.176  14.015
37122W        W 5516   6.033  18.565   2.180
37123W        W 5517  43.986   2.569  13.435
37124W        W 5518  23.241  27.653   3.681
37125W        W 5519  34.114  28.462   2.342
37126W        W 5520  33.533  22.670  13.090
37127W        W 5521  18.799  21.260   4.997
37128W        W 5522  44.184  19.290  11.631
37129W        W 5523  23.475  22.939  11.654
37130W        W 5524  27.036  28.346   2.270
37131W        W 5525  32.522  25.605   0.804
37132W        W 5526  22.123  22.020  14.948
37133W        W 5527  12.189  44.333   3.714
37134W        W 5528  42.001  16.498  13.429
37135W        W 5529   3.701  40.633   3.216
37136W        W 5530  15.562  41.640   1.822
37137W        W 5531   6.989   2.993  12.557
37138W        W 5532   5.104   4.036   2.218
37139W        W 5533  37.562  28.683  14.036
37140W        W 5534   1.462   3.339   2.159
37141W        W 5535  33.044  22.778   2.886
37142W        W 5536  24.224  12.256   1.688
37143W        W 5537   5.159  32.918  11.936
37144W        W 5538  10.756  43.361   2.357
37145W        W 5539  24.581  22.270  11.399
37146W        W 5540  18.590  37.843   2.705
37147W        W 5541  17.792  41.549  13.376
37148W        W 5542   1.669   2.237   2.664
37149W        W 5543  31.609  39.802  11.790
37150W        W 5544  24.967  19.189   3.908
37151W        W 5545  16.149   2.755  12.922
37152W        W 5546  31.631  42.966   4.084
37153W        W 5547  44.892  21.555  11.379
37154W        W 5548  44.133  14.651  11.532
37155W        W 5549   8.679  31.338   4.400
37156W        W 5550  23.993  30.969   3.224
37157W        W 5551   6.307   7.277  10.938
37158W        W 5552  16.846  21.084   3.234
37159W        W 5553  22.132  27.498   4.586
37160W        W 5554   7.223  37.352  14.822
37161W        W 5555  41.837  43.157   1.785
37162W        W 5556  15.868  18.083   0.808
37163W        W 5557   6.782  33.246  12.070
37164W        W 5558  10.703  16.455  11.223
37165W        W 5559   1.070  22.036  11.022
37166W        W 5560  39.343  35.009  13.110
37167W        W 5561   3.342  22.275  13.818
37168W        W 5562   5.986  16.596   0.852
37169W        W 5563  25.386  22.994  11.176
37170W        W 5564  19.973  30.547  12.377
37171W        W 5565  29.148  13.857   4.676
37172W        W 5566  31.068  26.318   1.795
37173W        W 5567  25.756  19.056   0.785
37174W        W 5568  41.852   2.002   2.739
37175W        W 5569  39.997  16.720  13.413
37176W        W 5570  37.772  36.556  13.368
37177W        W 5571  31.061  21.577  10.499
37178W        W 5572  18.780   7.006  12.445
37179W        W 5573  10.065  39.936   4.263
37180W        W 5574  34.581  19.882  12.165
37181W        W 5575  35.008  18.711   3.298
37182W        W 5576   6.831  14.257  13.027
37183W        W 5577  21.726   3.688   1.925
37184W        W 5578   6.960   5.314   9.877
37185W        W 5579  24.564  44.531  12.403
37186W        W 5580   3.777   5.336   0.440
37187W        W 5581  16.871   5.669  10.307
37188W        W 5582  44.848  24.149   1.472
37189W        W 5583  33.878  39.047  13.215
37190W        W 5584   5.362  28.096   2.166
37191W        W 5585  38.348  28.469   3.388
37192W        W 5586  15.297  30.043   1.380
37193W        W 5587  44.747  22.972   1.269
37194W        W 5588  39.311  10.597   1.807
37195W        W 5589  38.975  35.480   2.413
37196W        W 5590  43.934  39.977   3.851
37197W        W 5591  34.623  31.323   2.907
37198W        W 5592  11.897  22.549   0.720
37199W        W 5593  19.575   3.776   1.498
37200W        W 5594  36.427  42.949   0.904
37201W        W 5595  41.885  35.173  14.924
37202W        W 5596  44.716  32.016  12.645
37203W        W 5597  43.742  30.631  13.514
37204W        W 5598  12.364  12.770   2.454
37205W        W 5599   0.287   3.865  10.676
37206W        W 5600  10.742  42.964  14.586
37207W        W 5601  18.952  14.097  10.658
37208W        W 5602  30.125  21.226   0.039
37209W        W 5603  36.618  41.192  11.912
37210W        W 5604  44.297  35.205  13.440
37211W        W 5605   3.797  37.531  14.781
37212W        W 5606  20.141  34.357  13.574
37213W        W 5607   2.927  30.666  13.959
37214W        W 5608  28.212  39.971   2.407
37215W        W 5609   0.856  27.688  13.418
37216W        W 5610   8.978  27.880   4.365
37217W        W 5611  42.913  10.635  14.819
37218W        W 5612  30.570  20.038   3.591
37219W        W 5613  34.948   4.948   0.010
37220W        W 5614   3.223  35.093  14.292
37221W        W 5615  18.292  36.360   0.951
37222W        W 5616   7.074  15.639  14.434
37223W        W 5617   1.211   8.785  11.947
37224W        W 5618  39.491  28.450   0.902
37225W        W 5619  17.268  30.558   4.366
37226W        W 5620  18.447  25.027  11.556
37227W        W 5621  16.729  33.389   3.931
37228W        W 5622  40.781  40.958  14.708
37229W        W 5623   3.380  16.356   2.093
37230W        W 5624   6.122  39.439  12.906
37231W        W 5625  33.675  23.268  11.814
37232W        W 5626  35.961  34.148   1.175
37233W        W 5627  42.848   3.508  12.562
37234W        W 5628  14.337  44.802   2.737
37235W        W 5629   5.348  21.171   5.001
37236W        W 5630   0.767  12.619   0.734
37237W        W 5631  27.653   1.941  14.410
37238W        W 5632  30.446  16.640  10.423
37239W        W 5633  23.080   8.011  14.051
37240W        W 5634  41.428  32.838   2.316
37241W        W 5635  25.976  34.881  11.431
37242W        W 5636  40.613  31.012  11.632
37243W        W 5637   3.526  41.263  11.947
37244W        W 5638  42.629  10.603  14.315
37245W        W 5639   5.388  17.754  11.995
37246W        W 5640   8.908  20.718   3.184
37247W        W 5641   7.641  28.857   0.765
37248W        W 5642   1.227  34.924  13.959
37249W        W 5643  16.632  34.168   1.978
37250W        W 5644  43.985  15.075   2.097
37251W        W 5645  34.368   8.222  12.830
37252W        W 5646  44.206  30.822  14.341
37253W        W 5647  36.799  33.560   0.679
37254W        W 5648  12.813  16.739  10.795
37255W        W 5649  17.550  36.550  12.171
37256W        W 5650  24.141   8.459   0.850
37257W        W 5651  44.029  28.501  12.022
37258W        W 5652  37.029  19.775  12.033
37259W        W 5653   6.964  37.616   3.842
37260W        W 5654  40.083  10.045  11.589
37261W        W 5655  39.064  27.227  14.150
37262W        W 5656  34.595  24.068   3.353
37263W        W 5657  42.054   8.409   2.817
37264W        W 5658  42.322  23.616  12.161
37265W        W 5659   4.700  16.157   5.436
37266W        W 5660  20.741  19.652  10.852
37267W        W 5661  25.188  24.562   4.686
37268W        W 5662  14.734  26.967   1.465
37269W        W 5663  29.751  37.076   0.496
37270W        W 5664   3.508   8.177  13.191
37271W        W 5665  22.216  38.026  12.025
37272W        W 5666   0.449  26.257   4.060
37273W        W 5667  17.693  13.286   2.639
37274W        W 5668  29.127  14.636   2.699
37275W        W 5669  36.053  10.747  14.635
37276W        W 5670  23.168  20.265  12.224
37277W        W 5671  25.529  16.233   0.043
37278W        W 5672  10.843  31.606   3.675
37279W        W 5673  13.031  30.406  14.458
37280W        W 5674  35.986  32.130   0.978
37281W        W 5675  20.211  38.864  14.195
37282W        W 5676  32.494  14.698  12.379
37283W        W 5677  37.899   1.597   0.063
37284W        W 5678  39.815  16.833   3.703
37285W        W 5679  37.973  19.895  14.508
37286W        W 5680  15.695  19.578  14.073
37287W        W 5681  27.108   3.837  10.674
37288W        W 5682   2.827  34.316  13.928
37289W        W 5683  25.668  25.582   2.455
37290W        W 5684   5.735   7.958   0.693
37291W        W 5685  26.636   2.335  11.267
37292W        W 5686  27.332  27.541   4.106
37293W        W 5687   0.687  37.527  12.551
37294W        W 5688   3.141  22.151   3.643
37295W        W 5689  26.395  25.281   4.452
37296W        W 5690  35.928  43.503  10.647
37297W        W 5691  33.524  43.794  14.886
37298W        W 5692   4.494  34.325   4.166
37299W        W 5693  40.818  16.453   0.788
37300W        W 5694  35.144  43.434  14.790
37301W        W 5695  22.418  37.533  12.049
37302W        W 5696  12.640   7.145  10.240
37303W        W 5697   4.768   7.636  11.123
37304W        W 5698  44.285  10.788   1.774
37305W        W 5699  25.955  36.009   3.606
37306W        W 5700  40.222  28.701  12.404
37307W        W 5701   0.286   1.413   4.722
37308W        W 5702  15.709  20.535   0.646
37309W        W 5703  19.227  26.941  12.020
37310W        W 5704  15.354   6.602  13.968
37311W        W 5705   2.373   0.717  14.118
37312W        W 5706  43.252  35.125  13.850
37313W        W 5707  16.808  19.983   5.559
37314W        W 5708  10.704   9.264  12.786
37315W        W 5709  10.683   0.341  14.872
37316W        W 5710   2.521   1.012   1.764
37317W        W 5711  19.546  12.091  11.020
37318W        W 5712   2.625  26.675   9.959
37319W        W 5713   3.640  31.025  10.634
37320W        W 5714   3.124  43.435  14.225
37321W        W 5715  41.823   4.671   0.518
37322W        W 5716  27.686  15.308   3.677
37323W        W 5717  34.093  17.143  13.567
37324W        W 5718  36.871  16.814  13.754
37325W        W 5719  10.417  23.255  10.209
37326W        W 5720   7.919  21.215   0.489
37327W        W 5721  44.862  43.504  12.739
37328W        W 5722   8.661  26.028   1.231
37329W        W 5723  32.463  32.530  13.025
37330W        W 5724   9.660  37.908   1.694
37331W        W 5725   9.765  42.934   0.794
37332W        W 5726  17.720  26.508  11.069
37333W        W 5727   1.321  29.259  14.978
37334W        W 5728  24.292  33.546   1.738
37335W        W 5729  26.924  20.356   0.972
37336W        W 5730  13.744   4.684   4.300
37337W        W 5731  31.742  27.708  12.864
37338W        W 5732  11.327  35.861   0.388
37339W        W 5733  24.940  25.313  10.891
37340W        W 5734  21.782  25.646   3.076
37341W        W 5735   7.542  23.168  12.166
37342W        W 5736   9.635  20.694   2.406
37343W        W 5737  27.661   9.113  13.399
37344W        W 5738  12.886  14.249   3.351
37345W        W 5739   2.721   3.747  11.092
37346W        W 5740  39.345  43.454  11.946
37347W        W 5741  27.748  31.883   4.558
37348W        W 5742  23.155   8.284  11.652
37349W        W 5743  24.950   5.213  13.516
37350W        W 5744  39.769  30.494   4.563
37351W        W 5745  35.678  19.516   3.781
37352W        W 5746  22.143  43.443   0.825
37353W        W 5747  26.135  36.001   4.447
37354W        W 5748  31.376  38.747   0.244
37355W        W 5749  23.311  17.721  10.603
37356W        W 5750  44.962  34.074  12.562
37357W        W 5751  21.243   5.619   2.361
37358W        W 5752  11.615  44.899  11.465
37359W        W 5753   1.309  33.454   2.752
37360W        W 5754  31.503  35.106  11.568
37361W        W 5755  42.540  28.160   0.436
37362W        W 5756  15.225  32.907  12.609
37363W        W 5757  14.731  27.041  13.922
37364W        W 5758   6.556  34.669  12.374
37365W        W 5759  39.965   3.178  11.028
37366W        W 5760   9.700   5.747  12.025
37367W        W 5761  16.494  25.316   1.747
37368W        W 5762  38.881   3.893   3.716
37369W        W 5763  11.886  18.984   3.165
37370W        W 5764  34.094  37.502  13.570
37371W        W 5765  27.119   4.847  13.891
37372W        W 5766  17.216   6.818   4.597
37373W        W 5767  27.716   6.125  14.216
37374W        W 5768  23.451  21.288   4.783
37375W        W 5769   2.949  19.523  14.107
37376W        W 5770  23.426  25.462   4.644
37377W        W 5771  18.049  10.614  14.045
37378W        W 5772   0.293   0.966   1.917
37379W        W 5773  37.482  27.896   3.277
37380W        W 5774   3.966   0.511  14.355
37381W        W 5775  19.123  41.943   1.442
37382W        W 5776  10.308  24.180  14.279
37383W        W 5777  31.405  30.947  14.385
37384W        W 5778  36.936   9.343  11.664
37385W        W 5779   7.838  24.989  12.375
37386W        W 5780  39.958  21.120   3.887
37387W        W 5781   5.432   3.763   0.733
37388W        W 5782  12.886  43.266  12.089
37389W        W 5783  23.222   1.296   0.786
37390W        W 5784  39.850   5.752   1.828
37391W        W 5785  14.817  40.859   0.831
37392W        W 5786   7.258  15.176  13.959
37393W        W 5787  19.532   5.859  14.841
37394W        W 5788  17.921  19.671  12.411
37395W        W 5789  36.185  24.573  13.871
37396W        W 5790  36.764  19.058   2.764
37397W        W 5791  33.509  22.052  11.099
37398W        W 5792  32.735  12.565   4.658
37399W        W 5793  32.561   9.687   2.268
37400W        W 5794   7.181  34.018   1.512
37401W        W 5795  35.237   7.751  14.536
37402W        W 5796  43.421   4.750  12.612
37403W        W 5797  36.526  27.066  12.836
37404W        W 5798  11.329  40.958  13.429
37405W        W 5799   2.810   4.846   1.500
37406W        W 5800  21.975  10.268  13.284
37407W        W 5801  27.847  10.768  13.123
37408W        W 5802   4.321   4.005  11.355
37409W        W 5803   1.270  16.473   4.079
37410W        W 5804   0.230  39.899  10.494
37411W        W 5805  43.417  12.884  11.965
37412W        W 5806  41.854  10.270   4.515
37413W        W 5807  15.062  35.439   2.735
37414W        W 5808  29.046  41.996  11.208
37415W        W 5809   2.864  19.000  11.797
37416W        W 5810  42.297  32.638   4.073
37417W        W 5811   8.145   8.502  13.899
37418W        W 5812  18.818  16.026   5.063
37419W        W 5813  36.642  16.322  14.501
37420W        W 5814  12.232   4.042   2.834
37421W        W 5815  25.406  18.657  13.004
37422W        W 5816  14.492  23.732   3.798
37423W        W 5817  23.653  36.586  12.016
37424W        W 5818  23.688  23.677  11.093
37425W        W 5819  27.000  26.996   4.508
37426W        W 5820  43.480  28.981  11.732
37427W        W 5821  38.924  29.340   1.707
37428W        W 5822  43.284  43.993   4.610
37429W        W 5823  44.904  22.961   2.922
37430W        W 5824  25.044   4.416  10.902
37431W        W 5825  11.831  20.178  13.555
37432W        W 5826  26.976  31.185   1.850
37433W        W 5827   2.798  32.718  14.505
37434W        W 5828  42.396  17.528   2.606
37435W        W 5829  15.172  43.951   1.568
37436W        W 5830  14.274  18.433   5.113
37437W        W 5831  12.708  31.141  14.550
37438W        W 5832  13.559  31.736   0.682
37439W        W 5833  16.222  30.733  14.191
37440W        W 5834   0.633  43.392  11.170
37441W        W 5835   7.409   9.448  11.456
37442W        W 5836   9.866  36.661   0.727
37443W        W 5837  16.107  34.358   4.348
37444W        W 5838   4.460  38.936   3.170
37445W        W 5839  39.909  29.258   1.707
37446W        W 5840  23.817  30.402   1.982
37447W        W 5841  18.290  33.255  11.450
37448W        W 5842   1.160  40.909  10.790
37449W        W 5843   3.653  17.843   2.763
37450W        W 5844  24.220  15.033   0.870
37451W        W 5845  44.792  25.873   2.777
37452W        W 5846  24.114  12.190   0.345
37453W        W 5847  15.331   8.885   0.433
37454W        W 5848   7.004  38.292  13.505
37455W        W 5849  26.538  10.012   4.801
37456W        W 5850  33.970  20.588  11.303
37457W        W 5851   2.897  13.785   1.063
37458W        W 5852  23.225  35.448   1.984
37459W        W 5853  41.327  10.643   0.563
37460W        W 5854  40.533  21.632   0.293
37461W        W 5855  15.438   8.418   4.897
37462W        W 5856  35.004  36.008   2.722
37463W        W 5857  37.896  28.736   4.128
37464W        W 5858  16.873  33.434   2.211
37465W        W 5859  22.040  29.624   4.168
37466W        W 5860  33.919   9.711  14.067
37467W        W 5861  21.812  43.788  14.534
37468W        W 5862  44.350  24.955  12.396
37469W        W 5863  22.741  24.837  13.800
37470W        W 5864  18.192   1.875  12.100
37471W        W 5865   2.623  15.021  14.228
37472W        W 5866  33.985  29.846   0.337
37473W        W 5867  16.183  22.750   0.322
37474W        W 5868   3.010   1.025   2.662
37475W        W 5869  23.124   9.603   3.237
37476W        W 5870  26.942  31.986  12.283
37477W        W 5871  33.421  31.639  13.923
37478W        W 5872  19.751  12.329  14.085
37479W        W 5873   5.348  10.408   1.445
37480W        W 5874  33.786   7.264  10.380
37481W        W 5875   3.898  41.398   2.638
37482W        W 5876   3.748   8.754   0.404
37483W        W 5877  11.815  40.578   3.139
37484W        W 5878  16.700  18.270   2.242
37485W        W 5879   8.943  42.054  13.572
37486W        W 5880   2.167  40.996  13.227
37487W        W 5881  24.619   2.914  11.521
37488W        W 5882  28.399   6.479   2.678
37489W        W 5883  28.535  36.541  11.101
37490W        W 5884  27.686  35.360  13.988
37491W        W 5885  40.018  39.995  12.676
37492W        W 5886  36.766   9.840   4.177
37493W        W 5887  11.097   2.475   1.559
37494W        W 5888  40.306  25.938   1.262
37495W        W 5889   1.844   1.049  11.578
37496W        W 5890  28.151   9.255  12.042
37497W        W 5891  19.683  21.751  13.145
37498W        W 5892  39.604   8.144   2.417
37499W        W 5893  36.874  37.947   1.743
37500W        W 5894  10.607  19.207   1.960
37501W        W 5895   3.966  43.781   0.312
37502W        W 5896  19.864  25.049   0.384
37503W        W 5897  15.825  23.738  12.441
37504W        W 5898  18.694   7.635  10.350
37505W        W 5899  43.726  28.274   3.098
37506W        W 5900  33.904  14.342  13.466
37507W        W 5901  10.780  40.258   2.223
37508W        W 5902  21.499  11.095  13.407
37509W        W 5903   4.804  42.492   0.341
37510W        W 5904  12.725  21.609  13.104
37511W        W 5905  18.275   0.826  11.543
37512W        W 5906  31.816  26.162   0.366
37513W        W 5907   0.963   8.118  11.644
37514W        W 5908  17.158  21.850  14.970
37515W        W 5909  31.995   9.324  14.748
37516W        W 5910  39.847   2.718  12.014
37517W        W 5911  21.491   0.996   1.461
37518W        W 5912  29.706   8.859  10.287
37519W        W 5913  22.919  35.397   3.344
37520W        W 5914  11.612  32.390  10.686
37521W        W 5915   4.964  20.140  11.063
37522W        W 5916  34.023  32.799   2.751
37523W        W 5917  14.831  42.046  10.406
37524W        W 5918  26.381  20.146   1.681
37525W        W 5919  36.354  13.638  10.779
37526W        W 5920   2.173  17.238   4.184
37527W        W 5921  18.674  35.502  11.266
37528W        W 5922  22.571  39.444  12.791
37529W        W 5923  30.376  14.180   2.776
37530W        W 5924  18.711  30.079   0.655
37531W        W 5925  25.599  14.662   3.684
37532W        W 5926   1.094  41.290  14.735
37533W        W 5927  42.302  40.454   1.441
37534W        W 5928  31.617  11.425   0.491
37535W        W 5929  19.305  12.130   0.252
37536W        W 5930  21.567  34.296  12.044
37537W        W 5931  33.807  16.696  14.773
37538W        W 5932  14.092  12.878  14.928
37539W        W 5933  12.201  17.842  13.648
37540W        W 5934   0.127  14.667  14.007
37541W        W 5935  24.662  20.596   4.659
37542W        W 5936   2.487  36.872  14.278
37543W        W 5937   0.464   4.527   0.368
37544W        W 5938  24.428   8.861   1.772
37545W        W 5939  42.979  37.889   0.432
37546W        W 5940  40.556  20.080   4.414
37547W        W 5941  11.540  36.823   3.793
37548W        W 5942  26.083  24.801   1.221
37549W        W 5943  22.700   2.760   0.347
37550W        W 5944  35.781   8.237   0.675
37551W        W 5945   7.060  23.103   1.862
37552W        W 5946  22.152   7.687   3.085
37553W        W 5947  33.021  30.698   1.214
37554W        W 5948  33.832  25.534   1.866
37555W        W 5949  31.553  30.644   3.278
37556W        W 5950  29.096  14.215  11.719
37557W        W 5951  16.903  38.930  11.099
37558W        W 5952  29.886   5.675   1.239
37559W        W 5953  23.200  31.334  12.108
37560W        W 5954  23.163  26.101   4.668
37561W        W 5955   4.071   3.557   9.848
37562W        W 5956  26.066  15.540   4.091
37563W        W 5957  42.894  33.089  12.278
37564W        W 5958  15.030  39.079  10.684
37565W        W 5959  33.686  33.521  10.978
37566W        W 5960  16.909  36.843   3.173
37567W        W 5961  13.802  32.809   2.870
37568W        W 5962  26.102   7.092  12.317
37569W        W 5963  22.485  33.537  12.101
37570W        W 5964  27.738   0.271  12.092
37571W        W 5965  31.853  43.257   0.812
37572W        W 5966  36.872  18.563  11.067
37573W        W 5967   8.413  44.416  12.103
37574W        W 5968  42.009  33.885   0.530
37575W        W 5969  24.080  41.504   3.768
37576W        W 5970  42.843  37.589   4.025
37577W        W 5971   6.512  29.990  13.383
37578W        W 5972   7.262  36.588  10.729
37579W        W 5973  23.620  12.540   2.904
37580W        W 5974  31.085  39.855   3.282
37581W        W 5975  11.897   1.730   4.681
37582W        W 5976  37.846  40.059  12.932
37583W        W 5977  11.235  32.605   3.578
37584W        W 5978  41.366  12.261   3.217
37585W        W 5979  41.904  24.417   5.109
37586W        W 5980  33.105  19.234  12.561
37587W        W 5981   4.373  26.736  11.568
37588W        W 5982   3.722  18.182   3.191
37589W        W 5983  23.206   9.127   1.744
37590W        W 5984   9.124  17.680   3.913
37591W        W 5985  36.614  33.650  11.599
37592W        W 5986  21.544  18.320  14.042
37593W        W 5987  39.120  41.562  12.937
37594W        W 5988  10.142  13.713   3.693
37595W        W 5989  11.841  33.178  14.945
37596W        W 5990   6.844  26.001  13.286
37597W        W 5991  37.636  28.023   5.050
37598W        W 5992  32.153  29.949   0.721
37599W        W 5993  10.867  11.300   4.135
37600W        W 5994   4.095  38.845   2.183
37601W        W 5995   9.526   0.336  10.939
37602W        W 5996  31.956   2.972   0.950
37603W        W 5997  12.861   0.914  11.191
37604W        W 5998  33.384  10.401  14.887
37605W        W 5999  36.036  14.730   2.898
37606W        W 6000  14.841  38.032   2.265
37607W        W 6001  35.820  27.437  10.903
37608W        W 6002  21.594  28.855   1.918
37609W        W 6003  27.427  21.249  11.473
37610W        W 6004  17.233  31.472  12.828
37611W        W 6005   7.923  16.092  13.480
37612W        W 6006  38.967  31.546  14.839
37613W        W 6007  17.979   9.336  12.198
37614W        W 6008  32.116  17.996   0.431
37615W        W 6009  42.713   7.230  11.152
37616W        W 6010   0.222  19.683   1.344
37617W        W 6011  10.302  34.511   4.801
37618W        W 6012   9.899  13.259   3.799
37619W        W 6013  42.734  37.793  11.623
37620W        W 6014  11.577  36.779  13.894
37621W        W 6015  24.094  18.712  14.114
37622W        W 6016  28.717   5.393   4.752
37623W        W 6017  41.379  22.059   0.319
37624W        W 6018   7.588  25.189  13.396
37625W        W 6019  42.276  27.911  13.939
37626W        W 6020   7.398  35.778   2.761
37627W        W 6021   9.986   9.891  10.607
37628W        W 6022  40.755  23.552  10.414
37629W        W 6023   9.131  19.586   2.800
37630W        W 6024  40.519  30.996   4.763
37631W        W 6025  38.080  29.160   2.371
37632W        W 6026  40.312  10.326  12.603
37633W        W 6027  11.865  30.888   2.235
37634W        W 6028  44.355  20.708  12.088
37635W        W 6029  39.108  11.146  11.604
37636W        W 6030   3.237  44.439  11.048
37637W        W 6031  13.254  19.941  10.498
37638W        W 6032   1.764   8.735   4.513
37639W        W 6033  24.137  42.720   1.436
37640W        W 6034  40.602  37.660   0.978
37641W        W 6035   7.815   0.928  12.637
37642W        W 6036   2.840  17.559  11.726
37643W        W 6037  36.989   7.845   3.357
37644W        W 6038  12.768  15.174  11.178
37645W        W 6039   5.263   8.855  10.568
37646W        W 6040  18.309  40.344   4.121
37647W        W 6041  12.796  37.873  12.480
37648W        W 6042  17.966  31.881  14.876
37649W        W 6043  16.411  38.148  10.850
37650W        W 6044  44.518  38.047   4.203
37651W        W 6045  31.108  38.483  11.343
37652W        W 6046  21.779  29.218   2.871
37653W        W 6047  34.228  33.904   2.072
37654W        W 6048  27.441  38.114   1.335
37655W        W 6049  43.443   4.919   0.757
37656W        W 6050  38.147  15.785  11.629
37657W        W 6051  37.549  34.889  11.540
37658W        W 6052  32.587  21.833  11.511
37659W        W 6053  15.527  36.686  10.636
37660W        W 6054  43.280   3.108  10.386
37661W        W 6055  32.708  34.552  10.968
37662W        W 6056  17.204  30.454   0.029
37663W        W 6057  38.091  21.803   4.789
37664W        W 6058  26.571  25.130  13.876
37665W        W 6059  10.660   5.455   4.917
37666W        W 6060  44.245  25.104  11.505
37667W        W 6061  35.913   9.460  13.163
37668W        W 6062   1.257   6.707   1.248
37669W        W 6063  14.131  33.742   1.359
37670W        W 6064   7.497  27.052   2.036
37671W        W 6065  25.509  23.798   1.922
37672W        W 6066  24.249  40.325   2.167
37673W        W 6067  37.883  31.196   0.300
37674W        W 6068  36.551  36.465   4.188
37675W        W 6069   0.477   8.315  11.487
37676W        W 6070   6.818  41.055   0.437
37677W        W 6071   6.207  19.597  10.530
37678W        W 6072   2.347   3.378   0.485
37679W        W 6073  19.831   8.373  12.071
37680W        W 6074  33.148  21.673  12.456
37681W        W 6075   6.409   2.919  12.451
37682W        W 6076   6.902   2.640  13.363
37683W        W 6077  19.517  38.549  11.094
37684W        W 6078  19.569  40.091   4.196
37685W        W 6079  28.125  26.291   3.112
37686W        W 6080  28.369   8.627  12.383
37687W        W 6081  10.443  13.073  13.506
37688W        W 6082  44.975  11.376  11.982
37689W        W 6083  20.326  39.146   4.137
37690W        W 6084  37.757  21.744  14.142
37691W        W 6085  14.283  43.932   2.844
37692W        W 6086  20.183  37.571  12.392
37693W        W 6087  28.942  26.124   2.176
37694W        W 6088   8.241   8.346  13.404
37695W        W 6089  26.539  32.031   2.215
37696W        W 6090  39.019  23.691  11.182
37697W        W 6091   6.688  21.635  11.124
37698W        W 6092  10.098  21.552   2.946
37699W        W 6093  28.606  39.725  12.368
37700W        W 6094  29.398  14.245   2.931
37701W        W 6095  23.136  38.371   0.341
37702W        W 6096  34.532  16.566   3.169
37703W        W 6097   3.644   5.710   2.717
37704W        W 6098  40.818  16.546   3.078
37705W        W 6099  33.383   0.934   1.810
37706W        W 6100  28.403  18.145  10.674
37707W        W 6101  29.325  40.549  13.055
37708W        W 6102  26.068  40.688   0.875
37709W        W 6103   9.365   1.923  14.458
37710W        W 6104   0.490   9.360   1.767
37711W        W 6105   0.009  12.048  11.128
37712W        W 6106  42.175   1.726   1.301
37713W        W 6107   3.421   5.234  12.829
37714W        W 6108  40.312  12.442   4.195
37715W        W 6109  14.592  38.003   0.361
37716W        W 6110   9.191  13.606  10.752
37717W        W 6111  11.667  12.757  13.665
37718W        W 6112   1.947  32.015   4.103
37719W        W 6113  34.618   3.371   3.843
37720W        W 6114  14.549   7.380   3.146
37721W        W 6115  14.611  38.379   1.397
37722W        W 6116  33.261  30.179   3.820
37723W        W 6117  40.321  15.216  10.658
37724W        W 6118  31.018   1.841  11.656
37725W        W 6119   4.951  37.312  10.858
37726W        W 6120  40.775  41.422  14.461
37727W        W 6121  20.260  36.077  12.119
37728W        W 6122  44.455   8.727   3.677
37729W        W 6123  38.823   7.425   2.870
37730W        W 6124   6.764  11.009   0.224
37731W        W 6125   0.366  22.809   4.586
37732W        W 6126  22.545  36.462   5.050
37733W        W 6127   3.453  41.920   1.808
37734W        W 6128  12.494  17.724   3.343
37735W        W 6129  15.532  15.732  11.502
37736W        W 6130  15.752  34.589  12.189
37737W        W 6131  26.187  42.896   5.770
37738W        W 6132  31.958  27.375   2.744
37739W        W 6133  35.310  17.778   2.237
37740W        W 6134   0.928   9.359  10.668
37741W        W 6135  37.358  40.501  13.591
37742W        W 6136  22.789  17.234   4.975
37743W        W 6137   5.222  31.110  11.216
37744W        W 6138  26.709  36.993  14.400
37745W        W 6139   3.927  21.202   3.256
37746W        W 6140  24.372  33.098  14.046
37747W        W 6141  33.018  34.398  12.609
37748W        W 6142   5.993  26.202   4.146
37749W        W 6143  26.600   1.051   1.918
37750W        W 6144  13.666  30.849  12.879
37751W        W 6145  44.872  22.755   4.222
37752W        W 6146  23.580  11.375  12.529
37753W        W 6147  28.451  31.663  12.980
37754W        W 6148  44.357   6.607  11.605
37755W        W 6149   2.109   3.252  14.457
37756W        W 6150  36.780  29.605  11.511
37757W        W 6151  34.821   6.547  10.620
37758W        W 6152  32.418  43.786  11.132
37759W        W 6153  14.114  31.043   1.803
37760W        W 6154   0.252  28.168  11.312
37761W        W 6155  38.377   5.953   1.872
37762W        W 6156   8.454  40.928   3.967
37763W        W 6157  36.826  31.585   4.447
37764W        W 6158  31.487  10.717  13.549
37765W        W 6159   2.095  18.383   4.599
37766W        W 6160  32.006   1.885  10.609
37767W        W 6161   6.597  26.172  10.386
37768W        W 6162   1.770  16.653   2.177
37769W        W 6163  40.075  32.498   2.749
37770W        W 6164   5.586  23.319  11.033
37771W        W 6165  42.767  27.243  13.890
37772W        W 6166  36.949  36.788   2.712
37773W        W 6167  39.847  36.631  14.817
37774W        W 6168  36.950  27.762  12.906
37775W        W 6169  20.222  40.054   1.252
37776W        W 6170  32.442  17.787  12.931
37777W        W 6171  42.767   9.625   3.219
37778W        W 6172  17.408  21.112   1.046
37779W        W 6173  12.067  34.471   2.855
37780W        W 6174   4.791  20.206  13.322
37781W        W 6175  33.116  22.985  11.197
37782W        W 6176  36.376  22.784  14.455
37783W        W 6177  19.299   0.305  14.462
37784W        W 6178  15.368  31.334  11.932
37785W        W 6179  16.778  19.612  11.456
37786W        W 6180   5.232  24.090   9.847
37787W        W 6181   9.372  42.151  14.279
37788W        W 6182  41.279  17.542  13.959
37789W        W 6183  35.992  14.577  13.818
37790W        W 6184  16.166  25.694   3.317
37791W        W 6185  43.484  24.983  12.598
37792W        W 6186  25.764  34.210   3.765
37793W        W 6187   2.488   7.651  10.401
37794W        W 6188  31.742  43.424   1.667
37795W        W 6189  31.327  33.342  12.842
37796W        W 6190  40.784   1.471  12.136
37797W        W 6191  40.688  25.425  11.243
37798W        W 6192  28.424  26.444   0.918
37799W        W 6193  15.176  33.417  12.631
37800W        W 6194   9.085  33.313  11.969
37801W        W 6195  31.455   8.419   2.765
37802W        W 6196  44.468  37.503  11.295
37803W        W 6197   9.270  40.304  10.814
37804W        W 6198  32.081  35.668  13.921
37805W        W 6199  10.416  32.378  14.208
37806W        W 6200  22.554  29.091   4.664
37807W        W 6201  37.831  30.108  11.529
37808W        W 6202  23.432  38.310  13.267
37809W        W 6203  29.742  35.480  12.438
37810W        W 6204   6.887  24.275  14.966
37811W        W 6205  24.493  23.654  13.138
37812W        W 6206  33.263  32.893   0.892
37813W        W 6207  14.659  19.288  13.868
37814W        W 6208  34.944  17.311   4.533
37815W        W 6209  29.857   5.431   0.192
37816W        W 6210   6.195  40.802   0.363
37817W        W 6211  15.112  30.616   2.485
37818W        W 6212   3.296  32.407   1.175
37819W        W 6213  42.885  21.109   0.048
37820W        W 6214  20.208  39.176   5.009
37821W        W 6215  35.350  33.991  12.531
37822W        W 6216  25.644  15.235  12.412
37823W        W 6217  36.307  33.195   1.792
37824W        W 6218  17.213  35.174   3.746
37825W        W 6219  44.394  37.407  11.798
37826W        W 6220  34.311  33.993  11.347
37827W        W 6221  18.198  30.493  10.935
37828W        W 6222  23.120  31.818   1.483
37829W        W 6223  34.870  30.699  12.219
37830W        W 6224  10.562  15.189  11.211
37831W        W 6225  11.671  17.292  10.196
37832W        W 6226  28.589  15.810   1.150
37833W        W 6227  19.446  16.128  11.400
37834W        W 6228   0.694  43.557  10.686
37835W        W 6229  34.696   7.793  14.953
37836W        W 6230  41.778  33.415  12.559
37837W        W 6231  11.902  29.557  13.949
37838W        W 6232  39.688   8.014  11.675
37839W        W 6233  18.153  19.148  14.665
37840W        W 6234  27.981  31.935   4.090
37841W        W 6235  34.401   4.179  13.723
37842W        W 6236  25.947   1.467   4.605
37843W        W 6237  42.788   3.594   4.033
37844W        W 6238  36.281  24.421   0.220
37845W        W 6239  20.199  29.726  14.916
37846W        W 6240  14.365  11.701   2.804
37847W        W 6241  39.003  20.098   3.362
37848W        W 6242  29.259  26.489   4.576
37849W        W 6243  11.430  18.731  11.203
37850W        W 6244  22.360   4.780   4.143
37851W        W 6245  42.945   8.758  11.623
37852W        W 6246  43.541  31.938  13.183
37853W        W 6247   9.706   4.341   0.306
37854W        W 6248  38.520  18.814   0.732
37855W        W 6249  14.567  32.224  14.830
37856W        W 6250  31.607   0.484  10.647
37857W        W 6251  11.136  17.554   4.743
37858W        W 6252  16.245  37.843  12.577
37859W        W 6253   0.423  24.072   4.612
37860W        W 6254   6.892   9.205  12.144
37861W        W 6255  15.813  11.205  10.707
37862W        W 6256   8.064  17.986  14.995
37863W        W 6257  26.818  41.730  13.660
37864W        W 6258   1.700  27.119  12.527
37865W        W 6259  13.310  16.639  12.026
37866W        W 6260  40.588  41.619   0.862
37867W        W 6261   4.282   1.910   2.240
37868W        W 6262  27.632  16.833  11.154
37869W        W 6263  35.067  14.988  12.732
37870W        W 6264  17.082  34.415   3.184
37871W        W 6265  23.170  42.121  10.740
37872W        W 6266  36.015  29.391  14.090
37873W        W 6267   3.402  17.955  12.919
37874W        W 6268  33.088  27.605  14.278
37875W        W 6269   4.214  39.100  12.490
37876W        W 6270  11.758   2.834  10.750
37877W        W 6271   3.627  34.629  12.975
37878W        W 6272  44.591   6.465  14.035
37879W        W 6273  36.944  31.622   0.463
37880W        W 6274  35.898  44.771   1.904
37881W        W 6275   4.790  27.714  14.727
37882W        W 6276  41.824  39.492  12.584
37883W        W 6277  29.383  16.127   2.643
37884W        W 6278  17.209   7.332  14.772
37885W        W 6279  40.616  26.804  13.349
37886W        W 6280  24.650  22.541  14.521
37887W        W 6281  11.382  37.630   1.408
37888W        W 6282  43.555  37.895   1.952
37889W        W 6283   1.344   7.604  14.340
37890W        W 6284  29.668  35.587   1.312
37891W        W 6285   5.765  42.568   0.491
37892W        W 6286  32.391  26.478   2.585
37893W        W 6287   1.454   5.778  11.612
37894W        W 6288  31.196  40.351  13.471
37895W        W 6289  35.342   4.685   3.698
37896W        W 6290  43.448  37.619  13.805
37897W        W 6291  39.147  44.734  13.500
37898W        W 6292   1.183  15.620  13.456
37899W        W 6293  43.470  37.083  13.787
37900W        W 6294  23.580  35.155   1.753
37901W        W 6295  35.893   9.175   3.462
37902W        W 6296  37.436  43.045   3.081
37903W        W 6297   7.124  16.863  11.685
37904W        W 6298  25.118  32.427   2.728
37905W        W 6299  29.597  41.972  13.422
37906W        W 6300  36.600  28.846  13.429
37907W        W 6301  17.920  17.611  10.801
37908W        W 6302  21.581  20.921   3.425
37909W        W 6303  23.698   4.429  11.456
37910W        W 6304   4.214  40.852  13.445
37911W        W 6305  41.269  15.345  11.728
37912W        W 6306  21.302  36.970   0.655
37913W        W 6307  12.957   2.462  11.525
37914W        W 6308  44.028  20.575  10.734
37915W        W 6309  35.671  31.411  14.771
37916W        W 6310  11.847  21.513   4.357
37917W        W 6311   6.110  26.515   2.658
37918W        W 6312   0.474  36.628  10.183
37919W        W 6313  26.816   9.328  14.379
37920W        W 6314  39.513   6.899   1.802
37921W        W 6315  34.958  29.154  14.256
37922W        W 6316  21.251  22.194  12.975
37923W        W 6317  37.179  17.667  13.842
37924W        W 6318  33.086  43.450   1.227
37925W        W 6319  17.568   7.309  14.375
37926W        W 6320  28.630  22.502  11.139
37927W        W 6321  25.938   3.587   3.654
37928W        W 6322  24.207  17.172   1.000
37929W        W 6323  43.249   3.779  13.284
37930W        W 6324   5.186  23.025  10.948
37931W        W 6325  40.386   0.746   2.105
37932W        W 6326  42.483  30.433  11.588
37933W        W 6327  27.074  37.496  13.378
37934W        W 6328  24.701  17.199   1.938
37935W        W 6329  36.524  36.582  13.043
37936W        W 6330   5.279   1.500  11.667
37937W        W 6331  22.205   2.507  12.195
37938W        W 6332  27.687  30.723  14.299
37939W        W 6333  44.802   9.419  14.558
37940W        W 6334  14.076  37.483  11.134
37941W        W 6335  36.975  21.777   3.355
37942W        W 6336   1.837  18.038   2.915
37943W        W 6337  30.349  30.506   3.850
37944W        W 6338  35.389   7.300   4.667
37945W        W 6339  13.660   7.327   0.036
37946W        W 6340  38.042  36.898   4.190
37947W        W 6341  10.060   9.710   0.135
37948W        W 6342  28.609  14.348  11.557
37949W        W 6343  27.873  11.436  12.591
37950W        W 6344  25.768  21.205  13.389
37951W        W 6345  38.782  44.909  13.882
37952W        W 6346  38.411   9.178  11.685
37953W        W 6347  18.819   4.146   1.746
37954W        W 6348   3.439  35.944  13.829
37955W        W 6349  21.848  39.313   0.830
37956W        W 6350  38.085  11.347   2.127
37957W        W 6351  24.592  34.537  11.071
37958W        W 6352   8.352  25.152  11.636
37959W        W 6353   3.890  16.438   2.002
37960W        W 6354  14.838  22.555  13.279
37961W        W 6355  26.587  17.205   2.116
37962W        W 6356  28.683   3.158   2.164
37963W        W 6357  25.124   4.677   2.818
37964W        W 6358   4.510  37.655  12.542
37965W        W 6359  40.328  30.909  13.610
37966W        W 6360   4.180  39.506   3.207
37967W        W 6361  32.349  35.015   1.883
37968W        W 6362  17.926   8.728   1.447
37969W        W 6363  39.734  25.301  14.261
37970W        W 6364   9.991  33.965  10.828
37971W        W 6365  33.463  15.252  10.710
37972W        W 6366  19.283   8.662  12.504
37973W        W 6367  15.582  36.118   1.279
37974W        W 6368  11.599  11.351   1.644
37975W        W 6369  42.189  10.312   2.224
37976W        W 6370  16.735  20.321  14.716
37977W        W 6371  37.605   6.180   0.483
37978W        W 6372  24.739  29.621  13.018
37979W        W 6373  26.572  19.606   0.009
37980W        W 6374  39.274   9.762   1.394
37981W        W 6375   0.848  22.570  11.952
37982W        W 6376  40.422  12.746  12.289
37983W        W 6377  33.537  24.991  14.497
37984W        W 6378  43.983  21.720  14.995
37985W        W 6379  14.846   2.191  14.371
37986W        W 6380   4.234  18.287  14.509
37987W        W 6381  28.139  21.501   2.579
37988W        W 6382  26.271   4.330   0.768
37989W        W 6383  43.404   7.782  12.762
37990W        W 6384   7.396  14.195   3.258
37991W        W 6385  34.039  26.175  14.971
37992W        W 6386  16.267  38.908   3.805
37993W        W 6387  38.388  11.384   1.695
37994W        W 6388   2.765  20.736   1.265
37995W        W 6389  43.655   6.157  12.975
37996W        W 6390  42.613  20.643  10.693
37997W        W 6391  23.246   3.997   1.068
37998W        W 6392  23.651  10.936   3.134
37999W        W 6393  10.635  30.145  14.362
38000W        W 6394  15.575  40.393  10.854
38001W        W 6395  37.462  21.253   4.921
38002W        W 6396  20.661  12.905  14.305
38003W        W 6397   2.349  26.516  12.101
38004W        W 6398   8.932   8.422  13.019
38005W        W 6399  21.685  11.824   2.189
38006W        W 6400   5.494  28.469   2.846
38007W        W 6401  38.864  15.648  13.390
38008W        W 6402  37.570  11.857   3.872
38009W        W 6403  32.080   3.042   0.430
38010W        W 6404   0.585  39.365   9.943
38011W        W 6405  16.049  42.616  12.963
38012W        W 6406  19.428  18.920   4.664
38013W        W 6407  17.067  24.125   4.640
38014W        W 6408  17.659   5.058   4.984
38015W        W 6409  42.687   1.178   2.708
38016W        W 6410   2.337  11.665   0.025
38017W        W 6411  34.895  14.093   2.295
38018W        W 6412  26.269   1.029   4.505
38019W        W 6413   6.117  22.237   0.856
38020W        W 6414   2.411  25.519   1.296
38021W        W 6415  29.407  42.853  10.770
38022W        W 6416  22.031  18.797   1.330
38023W        W 6417  44.478  16.586  13.462
38024W        W 6418  44.375   1.884  11.190
38025W        W 6419  44.683   6.205   1.886
38026W        W 6420   2.934  16.803   0.990
38027W        W 6421  15.510  40.787  10.122
38028W        W 6422   5.909  21.056  13.869
38029W        W 6423  27.122   2.671  14.773
38030W        W 6424   4.195  23.298  13.841
38031W        W 6425  41.439  37.017   0.729
38032W        W 6426  16.173  16.211  12.163
38033W        W 6427  22.288  30.459  10.805
38034W        W 6428   2.274   9.347  12.987
38035W        W 6429  15.014   9.669   3.082
38036W        W 6430   2.273  24.244  12.037
38037W        W 6431  10.016   1.500  12.351
38038W        W 6432  22.879   1.868   2.982
38039W        W 6433  29.694  28.034  12.114
38040W        W 6434   3.011  22.134   0.353
38041W        W 6435  10.119   1.132  11.055
38042W        W 6436  13.492  28.452   4.173
38043W        W 6437  25.765  15.537   3.680
38044W        W 6438  12.169  17.741  11.388
38045W        W 6439  17.169   4.340   0.490
38046W        W 6440  15.682   0.333  14.093
38047W        W 6441  32.894  10.763   0.204
38048W        W 6442  18.356  17.116  12.948
38049W        W 6443  40.323  42.818   1.832
38050W        W 6444   5.436   1.755   1.745
38051W        W 6445  35.062  22.034  13.785
38052W        W 6446  23.494   6.448   0.215
38053W        W 6447  12.699  25.322   1.790
38054W        W 6448  33.634  32.475  12.646
38055W        W 6449  28.900  11.199  12.504
38056W        W 6450  42.840  18.526  14.627
38057W        W 6451  17.330  18.170  12.834
38058W        W 6452   2.875  37.818  11.947
38059W        W 6453  10.617  37.331   4.337
38060W        W 6454  39.044  10.857  14.653
38061W        W 6455  26.260  15.613  10.690
38062W        W 6456  16.316  12.785   3.653
38063W        W 6457  43.806  20.019   3.654
38064W        W 6458  31.343  42.874   2.714
38065W        W 6459  21.156  33.036   0.054
38066W        W 6460  22.580  21.640   0.573
38067W        W 6461  42.028  26.554  14.379
38068W        W 6462  41.235  21.292   1.769
38069W        W 6463  40.270  42.110  11.630
38070W        W 6464  29.213  27.116  12.020
38071W        W 6465  31.680  31.393   0.415
38072W        W 6466  30.679  38.533  11.088
38073W        W 6467  17.914   3.803  12.373
38074W        W 6468  44.442  39.477  10.575
38075W        W 6469  44.574  15.105   4.311
38076W        W 6470  36.933  24.704   3.068
38077W        W 6471  34.140  41.992  13.376
38078W        W 6472   0.003  16.720   2.703
38079W        W 6473  30.613  28.454  11.644
38080W        W 6474  37.835  27.973  10.991
38081W        W 6475  25.081  34.932   3.718
38082W        W 6476  15.639  14.576   1.728
38083W        W 6477  25.652  20.822  11.571
38084W        W 6478  42.249  20.610   2.637
38085W        W 6479  26.083   4.417   2.126
38086W        W 6480  37.459   0.911   1.064
38087W        W 6481  20.147  24.264   0.998
38088W        W 6482  38.523  32.492  12.514
38089W        W 6483  18.062  13.540   4.254
38090W        W 6484  35.590  32.555  13.802
38091W        W 6485  28.076  44.547  12.867
38092W        W 6486  15.281  32.645  13.103
38093W        W 6487  40.996  29.640  14.390
38094W        W 6488   0.400  39.938  11.868
38095W        W 6489  31.025   7.012   4.968
38096W        W 6490  27.941   6.577   4.051
38097W        W 6491  21.174  18.270   3.603
38098W        W 6492  36.458  12.274  11.394
38099W        W 6493  18.449   2.893   3.647
38100W        W 6494  20.324  12.232  10.580
38101W        W 6495  44.442  32.320  13.728
38102W        W 6496  29.616  13.559   4.635
38103W        W 6497  34.363   4.454  12.075
38104W        W 6498  30.904  16.147  14.966
38105W        W 6499   8.819  17.286   4.421
38106W        W 6500  24.052   3.224  13.114
38107W        W 6501  31.466  42.953   1.723
38108W        W 6502  20.518  12.765  12.587
38109W        W 6503  39.660  21.959   1.344
38110W        W 6504   0.396  23.712  14.338
38111W        W 6505  17.917  37.794   1.267
38112W        W 6506   0.237  21.769   0.462
38113W        W 6507  44.430  41.302  12.979
38114W        W 6508   5.707   4.645  14.550
38115W        W 6509  33.993  15.928  12.318
38116W        W 6510  13.219  36.103   1.809
38117W        W 6511   5.308  16.508   1.092
38118W        W 6512  39.546  40.278   2.615
38119W        W 6513  35.166   8.295  14.517
38120W        W 6514   8.851  27.959   2.982
38121W        W 6515  36.117   7.898   2.657
38122W        W 6516  31.759  16.161  13.642
38123W        W 6517  24.269  40.630   0.418
38124W        W 6518  12.801   9.664  13.171
38125W        W 6519   7.664  12.363   1.234
38126W        W 6520  14.180  29.676   4.136
38127W        W 6521  15.948  20.108   9.942
38128W        W 6522   2.946  21.671   1.618
38129W        W 6523  10.923   0.915  10.919
38130W        W 6524  12.246  21.282   0.543
38131W        W 6525  12.775  29.247  14.439
38132W        W 6526  28.098  29.759  12.859
38133W        W 6527   9.315  15.816  11.658
38134W        W 6528  30.471  35.642  10.648
38135W        W 6529  11.929  42.833  12.697
38136W        W 6530  20.412  19.078  11.971
38137W        W 6531  19.629  32.442   4.270
38138W        W 6532   6.611  14.613   3.334
38139W        W 6533  42.852  31.125   2.458
38140W        W 6534   3.282   5.516   0.388
38141W        W 6535  40.105   2.246  14.002
38142W        W 6536  19.423  30.997  10.761
38143W        W 6537  31.416  13.328   3.211
38144W        W 6538  39.774  27.058   2.318
38145W        W 6539  10.646  14.282  13.132
38146W        W 6540  20.505   2.953  12.504
38147W        W 6541   6.642   6.182   4.243
38148W        W 6542  20.159  33.085   0.240
38149W        W 6543  34.550   1.532  11.545
38150W        W 6544  38.675   0.816  14.075
38151W        W 6545   3.738  43.875  14.854
38152W        W 6546  14.217  35.992   4.690
38153W        W 6547   5.844  37.157  12.991
38154W        W 6548  31.638  19.147  11.208
38155W        W 6549  20.567   9.357   0.725
38156W        W 6550  19.373  34.003   4.039
38157W        W 6551  13.274  29.197  11.783
38158W        W 6552  33.351  23.385  13.224
38159W        W 6553   0.405  34.011   4.061
38160W        W 6554  41.271  42.316   0.895
38161W        W 6555   0.951  37.419   5.053
38162W        W 6556  18.820  23.567   4.701
38163W        W 6557  25.042   5.979   3.150
38164W        W 6558  15.476   7.202   0.776
38165W        W 6559   5.818  29.546  13.051
38166W        W 6560   1.266  17.695  13.349
38167W        W 6561   7.425  39.770  14.986
38168W        W 6562  24.986  18.304  13.070
38169W        W 6563  25.670  40.989  11.122
38170W        W 6564  27.674  11.158  14.373
38171W        W 6565   6.655  15.730  11.095
38172W        W 6566  27.090  42.175  13.589
38173W        W 6567  20.474  40.724  14.485
38174W        W 6568  15.745  21.748   1.952
38175W        W 6569  29.167  10.641   1.045
38176W        W 6570  35.406  42.907   2.454
38177W        W 6571  40.542  41.441   4.756
38178W        W 6572  15.607  17.110   2.100
38179W        W 6573   4.734  27.429   3.117
38180W        W 6574  39.257  14.129  10.218
38181W        W 6575  42.703   8.845   0.180
38182W        W 6576  28.082   0.011  10.367
38183W        W 6577  37.377  31.972  13.528
38184W        W 6578  30.542  21.892   3.834
38185W        W 6579   3.018  12.107  12.175
38186W        W 6580  32.534  12.373  11.689
38187W        W 6581   3.361  11.890  12.978
38188W        W 6582  38.139  41.079   3.155
38189W        W 6583  13.768  11.636  12.145
38190W        W 6584  26.683   1.144  10.666
38191W        W 6585  24.380   0.448   2.065
38192W        W 6586  25.750  12.339   2.806
38193W        W 6587   4.317  43.900  13.451
38194W        W 6588   0.046  31.350   2.742
38195W        W 6589  18.843   7.729   9.867
38196W        W 6590  19.613  31.657  13.414
38197W        W 6591   1.477   7.902   1.247
38198W        W 6592   7.706   5.723  12.087
38199W        W 6593  28.192  29.794  12.020
38200W        W 6594  10.220  37.630   4.137
38201W        W 6595  32.125  11.124   3.084
38202W        W 6596   7.764  17.624   2.669
38203W        W 6597  42.434  24.689  13.660
38204W        W 6598  18.083  39.867   3.279
38205W        W 6599  34.384  26.923   0.419
38206W        W 6600  36.836  39.784  14.074
38207W        W 6601  37.822   8.716  12.970
38208W        W 6602  25.074   9.650   0.844
38209W        W 6603  12.567  34.395   1.962
38210W        W 6604  20.481  11.161  13.080
38211W        W 6605  29.995  37.807   3.588
38212W        W 6606  42.414  34.541   1.996
38213W        W 6607   1.984  29.690  10.589
38214W        W 6608  19.520  36.868  10.616
38215W        W 6609  12.847  11.505   1.317
38216W        W 6610  13.673  13.022  14.635
38217W        W 6611   5.449  24.237  10.316
38218W        W 6612  30.593  26.849   0.543
38219W        W 6613   2.216   7.239   2.845
38220W        W 6614   4.884  19.265  10.296
38221W        W 6615  35.267  38.068  12.090
38222W        W 6616   9.515  37.724   3.628
38223W        W 6617  22.664  16.749   3.287
38224W        W 6618  26.543  43.473  14.799
38225W        W 6619  11.331  16.764   1.045
38226W        W 6620  41.628  16.202  14.406
38227W        W 6621   0.023  15.928  14.158
38228W        W 6622  39.669  32.732   2.310
38229W        W 6623  28.028  26.206  11.605
38230W        W 6624  44.345   8.127  12.973
38231W        W 6625  28.051  36.061   4.685
38232W        W 6626   7.167  35.708  12.164
38233W        W 6627  16.523  34.469  12.554
38234W        W 6628  22.582   6.313  14.322
38235W        W 6629  25.462  28.087   2.919
38236W        W 6630  16.304  22.527   2.980
38237W        W 6631   4.094  28.958  12.573
38238W        W 6632  38.626  28.421  12.922
38239W        W 6633   4.270  27.801  13.902
38240W        W 6634  17.718   6.224   4.520
38241W        W 6635  38.028  24.032   4.245
38242W        W 6636   4.979  33.949  14.338
38243W        W 6637  29.693   2.279  14.236
38244W        W 6638  41.246  32.901  12.187
38245W        W 6639  33.021   4.496  12.873
38246W        W 6640  28.376  25.692  11.905
38247W        W 6641  37.919  21.489   4.175
38248W        W 6642  11.814  18.252   2.219
38249W        W 6643  32.808  33.315   0.929
38250W        W 6644  44.174   4.284  12.943
38251W        W 6645  34.484  39.756  12.146
38252W        W 6646  21.484   6.909   3.281
38253W        W 6647  30.421  40.944   2.374
38254W        W 6648  25.176  17.922   3.199
38255W        W 6649  30.418  34.169   4.381
38256W        W 6650  40.145  35.910   0.899
38257W        W 6651  24.941  30.553   2.214
38258W        W 6652  30.405  33.476  10.716
38259W        W 6653   1.313   4.807  10.689
38260W        W 6654  37.042  13.198  10.569
38261W        W 6655  31.733  33.683  14.700
38262W        W 6656   9.655   5.243   3.299
38263W        W 6657  31.552   0.312  14.865
38264W        W 6658  30.917  20.864  11.592
38265W        W 6659  22.061  21.998   4.622
38266W        W 6660  32.366  33.908   4.540
38267W        W 6661  29.187  21.206  11.953
38268W        W 6662  28.842  32.039   2.178
38269W        W 6663  12.695  26.209  11.538
38270W        W 6664  17.617  26.132   0.766
38271W        W 6665  25.011  34.075   2.774
38272W        W 6666   4.269  14.729  13.440
38273W        W 6667  27.912  42.236  13.899
38274W        W 6668  37.508  22.769   0.952
38275W        W 6669  23.008   4.909  11.516
38276W        W 6670  42.785  44.474   0.668
38277W        W 6671  28.169  19.940   3.238
38278W        W 6672   0.416  19.331   2.244
38279W        W 6673  13.510   5.133   4.181
38280W        W 6674   7.367  42.593   2.361
38281W        W 6675   6.688  35.023   4.410
38282W        W 6676  27.039  28.575  14.900
38283W        W 6677  34.802   4.009   1.409
38284W        W 6678  16.307  16.313   0.993
38285W        W 6679   3.810  29.373   1.719
38286W        W 6680  33.449  12.352  12.193
38287W        W 6681  43.939  14.402  11.098
38288W        W 6682   9.590  17.194  12.181
38289W        W 6683   2.202  16.782  11.062
38290W        W 6684  20.825  31.059  11.575
38291W        W 6685  27.146  25.029  14.633
38292W        W 6686   4.229  18.773   1.972
38293W        W 6687  13.423  34.436  14.006
38294W        W 6688  19.411  41.575  10.174
38295W        W 6689  15.530  33.468   3.604
38296W        W 6690  17.156  40.466   4.544
38297W        W 6691  42.919   0.792   2.968
38298W        W 6692  32.090  19.892  11.520
38299W        W 6693  28.196  19.638   4.740
38300W        W 6694  10.353   5.029   5.061
38301W        W 6695  10.762   4.911   3.593
38302W        W 6696  11.860  26.025   3.649
38303W        W 6697   5.335  31.600   3.865
38304W        W 6698  36.439  26.532   0.500
38305W        W 6699  24.701  18.046  10.692
38306W        W 6700  14.179  32.183  13.932
38307W        W 6701  38.524  33.575  12.915
38308W        W 6702   3.676   4.071  13.384
38309W        W 6703  21.579  20.222  12.797
38310W        W 6704  34.412  31.077  10.662
38311W        W 6705   3.671  11.819  12.517
38312W        W 6706   1.551  18.337   2.376
38313W        W 6707  17.611  12.723   0.199
38314W        W 6708   9.732  28.333   2.245
38315W        W 6709  22.511  37.120   2.918
38316W        W 6710   7.606  19.259  14.919
38317W        W 6711   8.680  34.007  12.102
38318W        W 6712  35.495  11.087   0.939
38319W        W 6713  18.732  22.188  14.710
38320W        W 6714  44.318  33.084  10.750
38321W        W 6715  19.186  26.497   3.264
38322W        W 6716  14.150   8.985  13.986
38323W        W 6717  13.549   5.423   1.237
38324W        W 6718  29.506  13.339   0.740
38325W        W 6719  16.721  28.031   4.230
38326W        W 6720   1.992  34.550   1.224
38327W        W 6721   5.505  43.282   1.407
38328W        W 6722   1.223  33.874  12.092
38329W        W 6723   8.030  26.336  14.910
38330W        W 6724  26.031  28.138   3.768
38331W        W 6725   6.182  31.408  11.142
38332W        W 6726  39.293   2.517  11.619
38333W        W 6727  18.716  16.562   3.857
38334W        W 6728  20.187  25.141   3.171
38335W        W 6729   4.899  38.910   0.264
38336W        W 6730   6.118  31.943   4.517
38337W        W 6731  33.453  12.588   0.848
38338W        W 6732  18.001  41.532   2.704
38339W        W 6733   8.330  11.804   2.227
38340W        W 6734  42.342   1.906   3.344
38341W        W 6735  42.771  20.967   1.056
38342W        W 6736  21.304  12.952   4.931
38343W        W 6737  37.013  31.498  12.171
38344W        W 6738   4.201  25.038   1.281
38345W        W 6739  25.487   6.677  10.786
38346W        W 6740   4.825  11.362   1.744
38347W        W 6741  26.651  11.139  10.315
38348W        W 6742   3.571  24.087  13.291
38349W        W 6743  16.134  35.962  12.867
38350W        W 6744  41.463   5.150   0.815
38351W        W 6745  39.398  34.967   2.656
38352W        W 6746  19.514  28.555   5.396
38353W        W 6747  27.518  11.355   4.386
38354W        W 6748  26.494  30.101  14.061
38355W        W 6749  10.217  29.087  14.740
38356W        W 6750  37.065  22.912   0.765
38357W        W 6751  36.071   1.930  12.584
38358W        W 6752   7.802   0.389   3.284
38359W        W 6753  21.164   3.414  14.802
38360W        W 6754   2.884  33.322   0.963
38361W        W 6755  14.254  31.111   0.440
38362W        W 6756   7.716   1.692  12.064
38363W        W 6757  15.108  42.818   3.690
38364W        W 6758  17.181  35.625  13.867
38365W        W 6759   6.070  23.569  13.037
38366W        W 6760   2.279  17.751   2.853
38367W        W 6761  12.099   4.899   3.801
38368W        W 6762  23.626  29.082  13.933
38369W        W 6763  35.577  12.356  11.547
38370W        W 6764  37.782  29.486  12.966
38371W        W 6765  40.440   1.198  12.589
38372W        W 6766  28.724  39.202   4.948
38373W        W 6767  31.114   7.437  11.624
38374W        W 6768  38.407  39.738  11.245
38375W        W 6769  21.962  14.281  11.150
38376W        W 6770  11.690  22.171   0.416
38377W        W 6771  26.593  21.705  14.833
38378W        W 6772   2.526  28.449   1.830
38379W        W 6773  37.632  13.055  11.629
38380W        W 6774  31.017  18.452  12.384
38381W        W 6775  32.418  16.207  14.838
38382W        W 6776  13.413  37.084   3.268
38383W        W 6777   4.541  28.131   1.013
38384W        W 6778  35.025  26.860  12.762
38385W        W 6779  33.849  35.713   2.667
38386W        W 6780   8.830   3.941  13.394
38387W        W 6781  15.716   7.664   4.778
38388W        W 6782  14.045  18.447  11.862
38389W        W 6783  35.827  42.324  11.555
38390W        W 6784   4.947  33.674  14.982
38391W        W 6785  43.298  13.390   4.673
38392W        W 6786  12.920  13.272   1.711
38393W        W 6787  43.349  35.336  13.354
38394W        W 6788  40.777  39.569   9.582
38395W        W 6789  28.593  30.811  14.338
38396W        W 6790  18.269  26.498   1.827
38397W        W 6791  44.407  23.140   2.261
38398W        W 6792  15.162  34.888   3.894
38399W        W 6793   7.326  40.903   3.795
38400W        W 6794   7.106  14.258  10.563
38401W        W 6795  36.699  35.554   3.272
38402W        W 6796  24.327   3.354   1.436
38403W        W 6797  41.060  34.483   0.809
38404W        W 6798  38.845  23.834  12.441
38405W        W 6799  35.162   7.278   3.171
38406W        W 6800  41.454  13.709   3.148
38407W        W 6801   9.375   1.376   1.283
38408W        W 6802  31.686  10.791  11.076
38409W        W 6803   0.687   9.438  13.517
38410W        W 6804  28.797  11.733   0.684
38411W        W 6805  43.304  30.539  10.723
38412W        W 6806   5.389  11.563  13.886
38413W        W 6807  30.165   7.944  10.507
38414W        W 6808  40.818  22.835  14.836
38415W        W 6809  44.972  41.091   0.331
38416W        W 6810  22.012   9.890   4.137
38417W        W 6811   8.430  11.901  13.783
38418W        W 6812   3.402   7.099  10.725
38419W        W 6813   1.016   7.910   2.893
38420W        W 6814  13.681   8.169  14.249
38421W        W 6815   6.114  40.358   1.635
38422W        W 6816  27.805  23.583  10.628
38423W        W 6817  20.608  28.679   2.829
38424W        W 6818   2.490  19.760   0.045
38425W        W 6819  37.558  17.991  14.895
38426W        W 6820   7.872  15.229  13.852
38427W        W 6821  14.268  28.952   2.412
38428W        W 6822  23.666  10.893  11.022
38429W        W 6823  27.399  42.783   4.111
38430W        W 6824   1.776  13.353  13.376
38431W        W 6825  32.016  38.278   0.273
38432W        W 6826  27.878  18.062   1.139
38433W        W 6827  25.084  21.796  14.214
38434W        W 6828  11.758  32.228  13.169
38435W        W 6829   7.473  17.163   4.195
38436W        W 6830  14.577  30.669  14.367
38437W        W 6831  16.452  44.746   0.339
38438W        W 6832  43.879  44.771   0.474
38439W        W 6833  24.694  41.344   1.031
38440W        W 6834  36.487  37.085  10.697
38441W        W 6835   8.005  29.388   3.110
38442W        W 6836   1.818  41.117   0.164
38443W        W 6837  21.290  38.643  12.261
38444W        W 6838  11.399  22.720  14.503
38445W        W 6839  10.305  21.994  13.959
38446W        W 6840   6.706  16.678  13.843
38447W        W 6841  37.147  42.038   0.249
38448W        W 6842  22.100  13.189   5.493
38449W        W 6843  34.284  20.099   0.819
38450W        W 6844  44.951  13.572   4.492
38451W        W 6845  31.755  15.679   2.569
38452W        W 6846  12.925   4.425  10.951
38453W        W 6847  22.164  25.636  12.242
38454W        W 6848  22.721   6.910  12.583
38455W        W 6849  30.632  33.957  10.471
38456W        W 6850  16.312  12.854   0.977
38457W        W 6851  34.320   5.243  13.034
38458W        W 6852  15.888  43.582  14.274
38459W        W 6853  20.179   4.810  13.949
38460W        W 6854  44.442  19.827   2.902
38461W        W 6855  43.025   8.897  13.316
38462W        W 6856  40.899  44.891  14.247
38463W        W 6857  15.480  42.784   5.006
38464W        W 6858  14.315  41.454  10.581
38465W        W 6859  20.082  15.225   0.845
38466W        W 6860   4.280  19.564  12.330
38467W        W 6861  42.508  36.962   0.531
38468W        W 6862   4.365  29.151   4.670
38469W        W 6863  20.776  25.996   0.432
38470W        W 6864   0.448  37.501   4.327
38471W        W 6865  28.481  16.616  11.500
38472W        W 6866  23.099  42.359   2.800
38473W        W 6867  33.874  17.954   1.485
38474W        W 6868  22.557  42.912   3.224
38475W        W 6869  27.104  25.010   0.149
38476W        W 6870  13.819   0.229  10.795
38477W        W 6871   7.309   1.481   3.005
38478W        W 6872  28.025   5.361   2.053
38479W        W 6873  12.837  25.475  13.479
38480W        W 6874  38.069  15.648   4.266
38481W        W 6875  27.898  33.495  14.403
38482W        W 6876  41.347  20.792   1.636
38483W        W 6877  26.013  20.907  11.210
38484W        W 6878   8.977  27.172   2.243
38485W        W 6879  27.110  44.436   2.176
38486W        W 6880  15.753   0.353   3.554
38487W        W 6881  44.874   1.999  14.904
38488W        W 6882  22.992  16.094   2.256
38489W        W 6883  36.035  37.706   4.202
38490W        W 6884  32.906  41.838  11.094
38491W        W 6885  32.972   8.343  11.407
38492W        W 6886  34.674  28.121   4.861
38493W        W 6887  18.493  39.911  12.386
38494W        W 6888  32.883  16.575  13.762
38495W        W 6889  26.974  20.279  13.641
38496W        W 6890   5.014  10.789  12.391
38497W        W 6891  40.720  39.054  11.604
38498W        W 6892  33.415   1.505   2.258
38499W        W 6893  14.953  39.556  11.491
38500W        W 6894  43.368   4.244  13.475
38501W        W 6895  33.523  18.791   1.185
38502W        W 6896  35.443  10.655   2.213
38503W        W 6897   8.639  25.925   2.875
38504W        W 6898   7.937  32.466  13.981
38505W        W 6899  22.500  42.365  10.539
38506W        W 6900  29.859  26.665   2.316
38507W        W 6901  17.359  40.089   4.222
38508W        W 6902  26.994   4.352  10.617
38509W        W 6903  30.053  28.437   4.099
38510W        W 6904  35.577   9.019   3.855
38511W        W 6905  24.455  14.556   3.049
38512W        W 6906  18.277  32.172   2.424
38513W        W 6907  39.424  12.867   0.266
38514W        W 6908  21.702  18.890  14.714
38515W        W 6909  28.403   0.412  13.485
38516W        W 6910  14.126  13.142   1.256
38517W        W 6911  32.917  40.935  11.205
38518W        W 6912   3.762  27.092  12.715
38519W        W 6913  38.813  20.966  14.511
38520W        W 6914  31.419   1.521  11.910
38521W        W 6915  34.964   8.670   3.671
38522W        W 6916   1.597   3.822   3.404
38523W        W 6917  40.465  39.848  12.899
38524W        W 6918  31.618   6.475   2.843
38525W        W 6919  30.942  25.676  10.432
38526W        W 6920  15.753  14.826  11.760
38527W        W 6921  11.911  43.156   5.078
38528W        W 6922  14.390  25.608  11.580
38529W        W 6923  27.531  31.605   3.748
38530W        W 6924   7.682   7.745  13.903
38531W        W 6925   2.967   8.070   3.352
38532W        W 6926  22.038  24.613  13.763
38533W        W 6927   8.599  27.560   4.193
38534W        W 6928  35.064  41.116  13.792
38535W        W 6929  31.444   7.217  12.055
38536W        W 6930  12.260  18.193   3.384
38537W        W 6931  31.134  35.100   0.297
38538W        W 6932  31.239  26.533   3.594
38539W        W 6933   6.114  29.119   0.063
38540W        W 6934  30.112  32.788  12.611
38541W        W 6935   2.879  42.051   3.594
38542W        W 6936  43.486   4.077   2.391
38543W        W 6937   3.761  20.496  14.844
38544W        W 6938  31.164   2.489   4.588
38545W        W 6939   4.688  27.936  10.678
38546W        W 6940  18.409  12.674  10.785
38547W        W 6941  37.910  44.666   0.305
38548W        W 6942  36.945  24.411   2.604
38549W        W 6943   7.259  22.279   3.603
38550W        W 6944  40.937  27.601  13.093
38551W        W 6945  38.511  34.437  13.926
38552W        W 6946  31.205   0.912  12.937
38553W        W 6947   5.012   3.793  13.822
38554W        W 6948  37.290  41.560   3.248
38555W        W 6949  32.124  36.398  10.729
38556W        W 6950  43.026  22.698  13.545
38557W        W 6951   7.115  31.092   2.884
38558W        W 6952  30.564  14.767   0.671
38559W        W 6953  10.437  19.939  13.940
38560W        W 6954  41.211  43.049   3.474
38561W        W 6955  24.098  25.936   2.909
38562W        W 6956  37.323   6.688  10.634
38563W        W 6957  39.368  14.982  12.561
38564W        W 6958  31.087  25.125  11.333
38565W        W 6959  19.135  24.957   3.230
38566W        W 6960   6.976  31.954  11.096
38567W        W 6961  20.398  21.084  10.366
38568W        W 6962  39.455  30.385  14.936
38569W        W 6963   6.183  29.211   4.097
38570W        W 6964  10.827   4.973  12.497
38571W        W 6965  39.068  19.203   3.180
38572W        W 6966   7.362  17.563   5.036
38573W        W 6967  21.647  38.539   3.558
38574W        W 6968  10.473  37.932   2.850
38575W        W 6969  41.617  14.723  12.991
38576W        W 6970  33.557  17.079   0.003
38577W        W 6971  39.028  30.184   1.395
38578W        W 6972   7.801  25.939  11.063
38579W        W 6973   0.814   5.388   4.083
38580W        W 6974  13.778  26.452   1.836
38581W        W 6975  13.071   5.857  14.998
38582W        W 6976   3.699  12.586   2.684
38583W        W 6977  16.030  14.232   4.684
38584W        W 6978  10.898  36.591  14.920
38585W        W 6979  21.557  21.931   1.563
38586W        W 6980  39.045  34.599   2.807
38587W        W 6981  41.896   7.487   4.103
38588W        W 6982  33.139  42.914   3.333
38589W        W 6983   4.471   5.380  11.185
38590W        W 6984  32.133  11.220   3.598
38591W        W 6985   8.474  33.652   0.813
38592W        W 6986  30.253   7.615   1.749
38593W        W 6987  37.371  40.930   2.414
38594W        W 6988  37.543   1.811   4.586
38595W        W 6989  21.286  27.883  13.945
38596W        W 6990   9.209  27.695  13.333
38597W        W 6991  43.668  39.381   4.082
38598W        W 6992   9.883  33.143  14.857
38599W        W 6993  18.740  29.670  12.947
38600W        W 6994  43.837  31.137  13.449
38601W        W 6995  35.957  43.004  10.784
38602W        W 6996  16.723   0.259   1.219
38603W        W 6997  29.415  14.683  11.009
38604W        W 6998  36.418  10.495   2.129
38605W        W 6999  33.912  23.104   3.754
38606W        W 7000  23.436  37.389   0.826
38607W        W 7001  43.217  38.481   3.737
38608W        W 7002  44.216   2.343   1.742
38609W        W 7003  19.121   1.765  11.905
38610W        W 7004  34.998  28.166   1.286
38611W        W 7005  24.512  18.507  10.530
38612W        W 7006   3.567  11.654  14.264
38613W        W 7007  15.735  36.891  12.824
38614W        W 7008  39.813  24.223  13.262
38615W        W 7009  33.984  43.002   2.231
38616W        W 7010   0.503  28.570   3.326
38617W        W 7011   4.255   0.810  13.021
38618W        W 7012   6.777  25.182   0.985
38619W        W 7013  30.169  35.655   2.114
38620W        W 7014  34.623   5.456  13.404
38621W        W 7015  18.927  28.306  10.321
38622W        W 7016  29.920   0.162   2.852
38623W        W 7017  21.015  27.416   1.191
38624W        W 7018  18.725  29.469   0.374
38625W        W 7019  30.527   5.242  14.093
38626W        W 7020  27.233  43.972   3.671
38627W        W 7021  23.252  13.382  13.940
38628W        W 7022  31.553  23.073   3.584
38629W        W 7023  18.078  37.580   3.209
38630W        W 7024   5.670   9.450  12.528
38631W        W 7025   2.535  31.455   1.764
38632W        W 7026   8.601   6.533  11.443
38633W        W 7027   8.626  10.157   0.864
38634W        W 7028  14.351  10.404   0.104
38635W        W 7029  25.543  28.919  14.901
38636W        W 7030  38.437  19.263  12.606
38637W        W 7031  29.624  18.845  14.402
38638W        W 7032  35.378  43.902   2.121
38639W        W 7033  35.369  40.331  10.809
38640W        W 7034   5.670   6.279   3.273
38641W        W 7035  39.944  10.867  11.982
38642W        W 7036  34.630  14.611   0.011
38643W        W 7037  40.411  38.062   0.039
38644W        W 7038  25.404  20.997  14.717
38645W        W 7039   4.509  33.457   3.033
38646W        W 7040   1.664  44.237   2.764
38647W        W 7041  24.096  20.471   4.208
38648W        W 7042  23.523  32.369   1.702
38649W        W 7043  12.588   2.798  12.317
38650W        W 7044   2.084  34.292  11.164
38651W        W 7045  43.546  18.675  13.871
38652W        W 7046  35.651  18.582   4.605
38653W        W 7047  23.120  32.916  14.675
38654W        W 7048  14.696  28.399   2.468
38655W        W 7049  37.371  17.170   3.133
38656W        W 7050  34.637  32.807  11.053
38657W        W 7051  19.171  24.906   4.272
38658W        W 7052  24.666   8.392  11.855
38659W        W 7053  38.545  16.569  10.717
38660W        W 7054  15.246  24.698  11.545
38661W        W 7055  31.059  30.852   1.133
38662W        W 7056  18.201  30.690   0.673
38663W        W 7057  25.345  24.678  14.744
38664W        W 7058  42.923  23.733  11.587
38665W        W 7059   6.649   6.512  11.879
38666W        W 7060  11.653  41.412   4.964
38667W        W 7061  38.008  24.999  14.365
38668W        W 7062  11.141  37.390   3.882
38669W        W 7063  34.104  18.146  14.900
38670W        W 7064  27.640   0.402  12.980
38671W        W 7065  18.604  12.539  14.323
38672W        W 7066  32.205  29.987  11.335
38673W        W 7067   8.335  28.620  10.880
38674W        W 7068  12.482  28.165   4.059
38675W        W 7069   2.010  27.736  10.668
38676W        W 7070  13.242  41.527  12.446
38677W        W 7071  25.027   8.946   3.145
38678W        W 7072  33.555  18.404  13.666
38679W        W 7073  38.571  20.552  12.399
38680W        W 7074  14.113  29.857  12.860
38681W        W 7075  14.156  34.876   3.412
38682W        W 7076  35.666   0.340   0.778
38683W        W 7077   6.446  37.610  14.391
38684W        W 7078   3.253  44.432  12.864
38685W        W 7079  11.626   1.321   0.312
38686W        W 7080  12.171   5.844   2.230
38687W        W 7081  28.637  12.598   4.202
38688W        W 7082  18.188  35.060   1.738
38689W        W 7083  41.039  19.005   1.167
38690W        W 7084  15.682  17.980  14.042
38691W        W 7085  36.061  20.730  12.974
38692W        W 7086  44.586  11.060   0.807
38693W        W 7087  15.022   4.691  11.593
38694W        W 7088  31.436  13.725   0.950
38695W        W 7089  33.010  17.862   2.664
38696W        W 7090  16.196  24.660   4.727
38697W        W 7091  14.255  16.564   1.233
38698W        W 7092  37.409  32.657  14.920
38699W        W 7093  44.476  36.598  11.642
38700W        W 7094   5.999   8.410   0.678
38701W        W 7095   6.403  26.126   1.902
38702W        W 7096   5.835  27.504  11.861
38703W        W 7097  26.164  19.001   2.236
38704W        W 7098  42.803  36.870  11.639
38705W        W 7099   8.378  42.789   3.834
38706W        W 7100  38.597  26.638  12.601
38707W        W 7101  28.872   4.444   4.179
38708W        W 7102  42.533  25.158  12.840
38709W        W 7103   5.407  15.500  14.021
38710W        W 7104  36.805  25.079   3.808
38711W        W 7105  25.573  13.859   0.709
38712W        W 7106   2.853   3.523  12.500
38713W        W 7107  24.129  30.656   2.708
38714W        W 7108  28.716   1.194   2.337
38715W        W 7109  12.259  42.754  14.166
38716W        W 7110  44.017   8.924   1.334
38717W        W 7111   6.809   2.529  14.747
38718W        W 7112  23.308  12.745  14.540
38719W        W 7113   7.159  10.835  11.630
38720W        W 7114  31.119   3.915  12.537
38721W        W 7115   4.221   5.345  10.206
38722W        W 7116  27.133  20.113   2.360
38723W        W 7117  12.841  28.533  12.839
38724W        W 7118   1.158  33.816   5.031
38725W        W 7119  22.603  30.538   1.288
38726W        W 7120  18.041  27.953  12.658
38727W        W 7121  19.101  38.546  14.798
38728W        W 7122  30.444  39.088   1.697
38729W        W 7123  37.861  40.988  11.603
38730W        W 7124  17.643  30.427   4.712
38731W        W 7125  38.592  39.444   0.379
38732W        W 7126  15.341  27.567   0.965
38733W        W 7127  10.733  23.705  14.797
38734W        W 7128  22.549  23.866  14.846
38735W        W 7129  44.202  17.356  13.867
38736W        W 7130  22.586   4.531   2.763
38737W        W 7131  13.412  31.188  11.329
38738W        W 7132  20.360  25.087  11.148
38739W        W 7133  43.330   4.827   4.720
38740W        W 7134  36.363  27.714   2.416
38741W        W 7135  11.940  21.233  11.188
38742W        W 7136  42.745   2.183  13.328
38743W        W 7137  13.211  25.011  12.563
38744W        W 7138  11.851   2.275  10.777
38745W        W 7139  41.474  22.144  11.829
38746W        W 7140  18.045  18.668  14.354
38747W        W 7141  40.815   0.967  11.170
38748W        W 7142   4.350  24.300   0.482
38749W        W 7143   1.839  14.908   1.704
38750W        W 7144   8.211  17.022   2.207
38751W        W 7145  21.226  34.340   2.226
38752W        W 7146   9.626  10.280  10.505
38753W        W 7147  36.825   3.271   2.766
38754W        W 7148  25.317   7.115  12.681
38755W        W 7149  16.357  41.635  12.963
38756W        W 7150  44.063  43.525   3.261
38757W        W 7151  10.166  28.446  11.328
38758W        W 7152  35.490  32.347   1.929
38759W        W 7153  14.451   1.497  13.701
38760W        W 7154  41.059  18.054  11.777
38761W        W 7155  11.433  37.138   1.196
38762W        W 7156  10.483   5.820  12.915
38763W        W 7157  42.855  10.751  12.467
38764W        W 7158  34.663  13.486  11.730
38765W        W 7159   4.471  43.921   0.446
38766W        W 7160  32.531  12.251  12.202
38767W        W 7161   7.571  39.588  13.927
38768W        W 7162   4.910   5.862   0.385
38769W        W 7163   0.615   2.015   1.577
38770W        W 7164  28.286  31.864   4.610
38771W        W 7165   7.165  19.742  14.900
38772W        W 7166  17.668  44.056  14.384
38773W        W 7167  27.693  38.019   1.799
38774W        W 7168  32.567   1.045  14.539
38775W        W 7169  30.530  42.474   2.360
38776W        W 7170  34.991  26.416   2.556
38777W        W 7171   5.437  13.508   1.509
38778W        W 7172  25.565  20.607   4.225
38779W        W 7173  23.186  24.485   0.580
38780W        W 7174  32.366  27.089  14.940
38781W        W 7175  29.811   6.876   3.644
38782W        W 7176   7.708   2.840  13.358
38783W        W 7177  19.264  28.912  13.038
38784W        W 7178  10.368  19.547  12.435
38785W        W 7179  43.961   1.438  14.826
38786W        W 7180  24.089  37.443  10.940
38787W        W 7181  36.761  11.182   3.602
38788W        W 7182  26.228  16.031   4.159
38789W        W 7183   4.815  38.585   3.415
38790W        W 7184  15.549  31.503  10.777
38791W        W 7185   2.202  44.359   0.332
38792W        W 7186  39.276   1.530  12.344
38793W        W 7187  42.447  42.227  12.432
38794W        W 7188  21.634   5.376  12.381
38795W        W 7189   2.055  34.718  14.069
38796W        W 7190  26.702   7.028  11.041
38797W        W 7191  13.661   4.866   2.584
38798W        W 7192  28.423  27.158   1.749
38799W        W 7193  43.530   8.665  14.859
38800W        W 7194   9.829   2.735  14.105
38801W        W 7195  20.933  43.435  14.274
38802W        W 7196  22.765  37.045  11.608
38803W        W 7197  37.627  11.799   0.929
38804W        W 7198  16.963  32.261  13.377
38805W        W 7199  22.232  23.523   3.352
38806W        W 7200   4.413  34.917  13.925
38807W        W 7201   3.505  18.258   4.558
38808W        W 7202  42.739  14.797   3.683
38809W        W 7203  10.182  44.426  14.607
38810W        W 7204  20.138   7.084  13.073
38811W        W 7205   9.235  39.145   1.850
38812W        W 7206  10.829  17.962   3.345
38813W        W 7207  18.635   2.757   3.173
38814W        W 7208   6.558   9.958   2.710
38815W        W 7209   2.818  10.151   0.734
38816W        W 7210  32.897  33.527   3.274
38817W        W 7211  14.631  44.503   1.488
38818W        W 7212  15.280  37.459  11.176
38819W        W 7213   0.220  23.605   0.349
38820W        W 7214  38.073  25.412  11.511
38821W        W 7215  11.492  40.254  11.025
38822W        W 7216  12.096   6.445   1.003
38823W        W 7217   1.900   9.597  12.589
38824W        W 7218   2.360  23.463  13.522
38825W        W 7219  25.629  21.127   0.224
38826W        W 7220   6.895  17.146  13.605
38827W        W 7221   9.573  35.965   4.884
38828W        W 7222  16.061  28.416  12.686
38829W        W 7223  33.292  21.342   2.856
38830W        W 7224  11.167  22.680  11.655
38831W        W 7225  30.392  33.108  14.465
38832W        W 7226  18.338   0.303   1.737
38833W        W 7227  37.077  30.921  14.900
38834W        W 7228  24.212   3.664   1.858
38835W        W 7229  25.121  44.014  14.050
38836W        W 7230  29.191  19.387   2.203
38837W        W 7231  28.060  15.554  12.129
38838W        W 7232  42.999  34.416  10.176
38839W        W 7233  36.051  27.515   0.749
38840W        W 7234  36.570  44.323   0.017
38841W        W 7235  33.969   5.346   0.971
38842W        W 7236  44.384  44.621  13.696
38843W        W 7237  41.991  41.415   0.161
38844W        W 7238   8.181  27.099   4.643
38845W        W 7239  28.095  11.433  14.305
38846W        W 7240  24.158  13.866  12.103
38847W        W 7241  11.696   4.042   3.515
38848W        W 7242  12.725  21.536  14.527
38849W        W 7243  43.857  12.489   4.809
38850W        W 7244  13.893  36.509  10.975
38851W        W 7245  40.762  32.665  11.498
38852W        W 7246  37.299   9.561   2.171
38853W        W 7247  14.289  44.127  11.638
38854W        W 7248   0.230   3.312   3.312
38855W        W 7249  13.744   3.302   4.591
38856W        W 7250  13.986  23.772   3.729
38857W        W 7251  12.056   0.539  10.426
38858W        W 7252   6.693  10.924  11.824
38859W        W 7253  33.581  39.743   4.677
38860W        W 7254  32.015  26.504  10.234
38861W        W 7255  35.882  19.665   1.291
38862W        W 7256  16.040  40.352  11.632
38863W        W 7257  20.013  35.547   0.579
38864W        W 7258  23.557   3.258  11.865
38865W        W 7259  27.890  30.877   0.307
38866W        W 7260   0.986  39.165   2.258
38867W        W 7261  13.028   1.261  11.654
38868W        W 7262  26.744   6.024   3.779
38869W        W 7263   7.910  27.253  12.457
38870W        W 7264  21.619  24.699   3.215
38871W        W 7265  18.059  17.199   3.686
38872W        W 7266  27.813  23.650   4.915
38873W        W 7267  27.427  26.709   4.549
38874W        W 7268  10.994  40.256  11.007
38875W        W 7269   6.769  27.571   2.139
38876W        W 7270  34.085  18.327   3.296
38877W        W 7271  34.939  34.400   1.877
38878W        W 7272   5.624  44.448   3.998
38879W        W 7273  13.438  11.422  11.049
38880W        W 7274  20.545   7.204  14.819
38881W        W 7275  29.744  35.009  14.754
38882W        W 7276  30.119  38.082   0.480
38883W        W 7277   3.131  34.643   0.916
38884W        W 7278  24.320  19.085   0.314
38885W        W 7279  40.108   9.525  11.657
38886W        W 7280  18.123   1.865  10.852
38887W        W 7281  18.763  38.528   0.237
38888W        W 7282  20.136   9.656   3.762
38889W        W 7283  41.386  13.564  11.612
38890W        W 7284  27.946  18.498   2.386
38891W        W 7285  39.326   6.796   1.319
38892W        W 7286   8.748  30.470   4.878
38893W        W 7287  20.312  34.462  14.562
38894W        W 7288   9.177  29.477   1.497
38895W        W 7289   2.194   2.485  11.937
38896W        W 7290  37.784  10.046   0.524
38897W        W 7291  24.204  28.463   1.443
38898W        W 7292  35.570   8.432  10.611
38899W        W 7293  31.535  20.462   0.497
38900W        W 7294   9.971  22.523  14.458
38901W        W 7295   6.245  33.483  14.485
38902W        W 7296  24.719   5.005  13.922
38903W        W 7297  34.701  42.610   0.086
38904W        W 7298  23.685  41.011   1.457
38905W        W 7299  35.602  26.815   3.712
38906W        W 7300  17.789  22.193   0.256
38907W        W 7301  16.633  38.808   0.393
38908W        W 7302  17.140  32.344  10.746
38909W        W 7303  29.612   6.120  10.856
38910W        W 7304  37.952  19.722  10.602
38911W        W 7305  42.295   2.169   1.667
38912W        W 7306  40.640  22.975   1.033
38913W        W 7307   1.708  24.216   1.394
38914W        W 7308  37.880  26.019  12.475
38915W        W 7309   4.242  22.794  13.933
38916W        W 7310   5.713  20.109   4.882
38917W        W 7311   7.370  10.644   4.908
38918W        W 7312  19.078  26.234  14.677
38919W        W 7313  12.121  21.154   4.610
38920W        W 7314  20.870  42.772   4.044
38921W        W 7315  29.862  14.815   3.562
38922W        W 7316  12.306  35.108  11.120
38923W        W 7317   1.888   4.864  14.119
38924W        W 7318  13.412  23.127  14.016
38925W        W 7319  13.014  10.987   1.244
38926W        W 7320  31.820  43.912   3.195
38927W        W 7321  10.017  20.557   4.765
38928W        W 7322  21.492  28.713   0.900
38929W        W 7323   0.841  38.095   1.369
38930W        W 7324   6.618  28.526   0.259
38931W        W 7325   1.922  44.203  12.923
38932W        W 7326  11.287  44.221   3.701
38933W        W 7327  32.620  43.021  13.678
38934W        W 7328  44.590  38.001  11.958
38935W        W 7329  40.387  23.584   2.784
38936W        W 7330  24.231  13.098  11.752
38937W        W 7331  22.076  23.109   0.873
38938W        W 7332   1.873  44.716  12.860
38939W        W 7333  34.854  16.310   1.425
38940W        W 7334   7.860   3.705   2.432
38941W        W 7335  27.063  22.120  10.990
38942W        W 7336  26.150  13.840  13.856
38943W        W 7337  28.586  33.701  11.031
38944W        W 7338  32.111   9.996  13.586
38945W        W 7339  44.235  20.638   4.207
38946W        W 7340  10.833   3.165  11.088
38947W        W 7341  32.460  27.182   3.759
38948W        W 7342  14.962   2.416   3.696
38949W        W 7343  19.068   1.502  13.554
38950W        W 7344  40.347  38.114   0.977
38951W        W 7345   7.965  26.025  12.660
38952W        W 7346  41.233   7.241  12.509
38953W        W 7347  24.924  20.046  14.005
38954W        W 7348  35.028   6.981  14.049
38955W        W 7349  44.843  27.545  12.558
38956W        W 7350   5.017   0.920   3.355
38957W        W 7351  13.149  43.659  14.354
38958W        W 7352  14.648  16.670   2.868
38959W        W 7353  12.071  33.832   3.278
38960W        W 7354   1.908  26.634  10.686
38961W        W 7355  40.073  26.662  13.289
38962W        W 7356  38.841  25.928  14.387
38963W        W 7357  11.622   4.962  12.493
38964W        W 7358   0.162  26.030   1.401
38965W        W 7359  31.956  43.898   1.811
38966W        W 7360  25.078  43.564   1.733
38967W        W 7361  28.616  30.100   3.299
38968W        W 7362  13.783  28.171   2.662
38969W        W 7363  35.300  31.509   4.824
38970W        W 7364  19.160  16.453   0.153
38971W        W 7365  28.529  31.185  13.783
38972W        W 7366  37.380   5.394   4.515
38973W        W 7367  43.814  25.128  14.359
38974W        W 7368  44.047  36.675   4.149
38975W        W 7369  34.426   8.558   0.272
38976W        W 7370   2.928   1.941   4.134
38977W        W 7371  41.945  36.162   5.318
38978W        W 7372   6.383   0.405   0.307
38979W        W 7373   8.223  12.206   3.747
38980W        W 7374  20.510  18.331  12.606
38981W        W 7375   1.417  14.653   1.870
38982W        W 7376  20.078  41.695  11.553
38983W        W 7377  12.285  33.078   4.492
38984W        W 7378   7.713  13.618   2.785
38985W        W 7379  24.043  21.996   3.379
38986W        W 7380  34.342  42.490  12.448
38987W        W 7381  44.875  18.590   2.655
38988W        W 7382  24.911  31.905   0.301
38989W        W 7383  39.461  38.949   0.508
38990W        W 7384  39.889  22.232   4.030
38991W        W 7385  27.048  42.952  14.601
38992W        W 7386  10.601   4.339   3.676
38993W        W 7387  16.289  40.011  11.917
38994W        W 7388  23.520  38.143   1.033
38995W        W 7389  35.937  36.771   1.483
38996W        W 7390   1.302   3.789  10.457
38997W        W 7391  43.512  16.538  12.345
38998W        W 7392  10.630  23.135   0.223
38999W        W 7393  13.955  42.933   0.780
39000W        W 7394  20.595  26.335  13.323
39001W        W 7395  37.327   3.339   0.008
39002W        W 7396   4.739  20.927   0.798
39003W        W 7397  13.640  33.025  12.931
39004W        W 7398  35.119  37.624  13.418
39005W        W 7399   7.962   8.647  12.324
39006W        W 7400  35.429  11.274   0.454
39007W        W 7401   0.972  13.068  14.805
39008W        W 7402  28.117  25.080  14.193
39009W        W 7403  41.525   7.673  12.397
39010W        W 7404  20.634  17.499  12.046
39011W        W 7405  40.049  10.539   1.588
39012W        W 7406  30.386  39.775   4.668
39013W        W 7407  24.640  20.931   2.840
39014W        W 7408  26.974   8.721   1.752
39015W        W 7409  23.917  36.834  14.682
39016W        W 7410  27.007   5.536   1.374
39017W        W 7411  38.561  21.122   3.599
39018W        W 7412   0.713  32.461  11.460
39019W        W 7413  32.504  29.584   4.664
39020W        W 7414   5.796  21.299  10.731
39021W        W 7415   0.068  38.493  11.214
39022W        W 7416  29.171  30.900   3.712
39023W        W 7417  37.056  15.155   3.645
39024W        W 7418  41.055  31.297  11.574
39025W        W 7419  43.242  37.390   2.629
39026W        W 7420  40.746   2.227  11.562
39027W        W 7421  38.422  40.034   0.957
39028W        W 7422  11.870  22.950  11.225
39029W        W 7423  36.365  29.741  12.505
39030W        W 7424  30.728   7.676  13.375
39031W        W 7425  33.806  19.064  11.310
39032W        W 7426  16.708  15.859  13.868
39033W        W 7427  30.397  28.556   1.044
39034W        W 7428  26.074  15.777   2.753
39035W        W 7429  23.082   6.693  13.451
39036W        W 7430  19.741  34.613   2.319
39037W        W 7431  31.642  41.990  10.431
39038W        W 7432  30.573  21.656   0.926
39039W        W 7433  25.098   6.186  12.826
39040W        W 7434   8.924  20.178  11.675
39041W        W 7435  21.794  43.804   3.783
39042W        W 7436  17.579  12.828  11.507
39043W        W 7437  23.187   5.687  12.581
39044W        W 7438  39.166   5.713  14.574
39045W        W 7439  25.404  11.401  14.689
39046W        W 7440  30.571  29.621   1.367
39047W        W 7441   7.476  41.306   5.178
39048W        W 7442  32.896  30.904   2.600
39049W        W 7443  35.356  17.965   0.524
39050W        W 7444  12.977  30.100  11.405
39051W        W 7445  24.710  11.756  11.397
39052W        W 7446  34.616  28.444  12.534
39053W        W 7447   6.356   7.144   4.566
39054W        W 7448  12.574  27.135   1.759
39055W        W 7449  43.820  39.926   4.809
39056W        W 7450  22.531  12.799   3.762
39057W        W 7451  27.451  14.759   4.115
39058W        W 7452  12.415   3.401  13.095
39059W        W 7453  20.176  42.324   2.774
39060W        W 7454  36.871  14.686   3.520
39061W        W 7455  15.457   2.277   3.667
39062W        W 7456  16.942  15.868   5.088
39063W        W 7457  26.576  30.581   1.398
39064W        W 7458  24.299  13.394  13.976
39065W        W 7459  44.284  38.259   3.618
39066W        W 7460  16.564   9.161  10.650
39067W        W 7461  35.564  38.788  14.984
39068W        W 7462   9.819  10.798   1.163
39069W        W 7463  27.695  35.157   3.813
39070W        W 7464  29.662  44.000   1.713
39071W        W 7465  33.563  30.512  10.276
39072W        W 7466  40.653   3.735  10.920
39073W        W 7467   2.815  35.032   1.898
39074W        W 7468  39.276  34.540  10.744
39075W        W 7469  19.196  19.695  12.140
39076W        W 7470   4.885  44.296  13.902
39077W        W 7471   3.506  40.586  10.423
39078W        W 7472   5.208  15.547  12.625
39079W        W 7473  15.780  31.699  12.634
39080W        W 7474  34.992  27.062   1.215
39081W        W 7475  30.323  42.241  12.510
39082W        W 7476  14.705  26.464   0.484
39083W        W 7477  31.498  27.043   2.778
39084W        W 7478  28.070  35.573   0.342
39085W        W 7479   7.764  31.604  11.178
39086W        W 7480  14.313   7.266   3.596
39087W        W 7481   5.399  26.109   4.972
39088W        W 7482  10.601   3.996   4.545
39089W        W 7483  43.576  22.012   2.786
39090W        W 7484  38.524  25.710   1.220
39091W        W 7485  16.766  24.480   0.849
39092W        W 7486  22.310  41.500  11.613
39093W        W 7487   8.185  23.301   2.829
39094W        W 7488   5.662  36.962   2.524
39095W        W 7489  13.827  27.696  10.655
39096W        W 7490   8.388  35.843  12.119
39097W        W 7491  38.398  12.763  12.050
39098W        W 7492  32.154  26.913  10.541
39099W        W 7493  38.412   4.437  10.689
39100W        W 7494  20.019   9.124  11.566
39101W        W 7495   5.404  17.752  14.799
39102W        W 7496  37.606  29.498   4.912
39103W        W 7497  20.116  38.069  12.382
39104W        W 7498  14.633  11.718  10.893
39105W        W 7499  33.092  36.864   4.734
39106W        W 7500   5.373   3.461  14.519
39107W        W 7501  38.293   8.714  12.756
39108W        W 7502  39.280  32.001  13.309
39109W        W 7503   1.728  13.633   4.570
39110W        W 7504   7.242   2.717  13.976
39111W        W 7505  27.561   9.464  11.447
39112W        W 7506   4.478  42.545   0.739
39113W        W 7507   5.868  18.623  11.893
39114W        W 7508  12.266   8.867   1.743
39115W        W 7509  34.726  15.234   2.903
39116W        W 7510  12.192   0.262  11.521
39117W        W 7511   6.027  34.395   2.223
39118W        W 7512  33.546   5.926  10.252
39119W        W 7513  37.596  35.306  12.241
39120W        W 7514  40.576  36.697   2.189
39121W        W 7515   0.570  40.748  13.855
39122W        W 7516  11.381  19.821  10.486
39123W        W 7517  17.114  10.297  10.112
39124W        W 7518   8.121  32.018   0.230
39125W        W 7519  38.509  31.491  10.891
39126W        W 7520  18.802  23.056  13.850
39127W        W 7521  31.021  40.511  14.902
39128W        W 7522   9.854  35.525   4.132
39129W        W 7523  21.508  39.817  10.947
39130W        W 7524   5.907   4.059  13.296
39131W        W 7525  35.880  31.214   4.167
39132W        W 7526  10.827  34.556  12.524
39133W        W 7527  14.064  16.089   1.363
39134W        W 7528  39.047  13.802   1.277
39135W        W 7529   7.789   1.216  14.430
39136W        W 7530   1.709   4.504  10.819
39137W        W 7531  16.346  42.400   3.588
39138W        W 7532   2.328   4.864   4.216
39139W        W 7533  28.687  42.112   2.283
39140W        W 7534  20.207  21.740   3.203
39141W        W 7535  22.490  41.552   4.568
39142W        W 7536  43.321  26.195  11.628
39143W        W 7537   1.789  42.462  12.526
39144W        W 7538   8.474  25.456   3.193
39145W        W 7539  41.940  29.908  14.077
39146W        W 7540   9.122  24.596  14.357
39147W        W 7541  20.468  13.093  13.851
39148W        W 7542  21.959  35.334  10.622
39149W        W 7543  33.554  19.744   0.274
39150W        W 7544  31.123  41.586   3.807
39151W        W 7545  31.640   4.428   4.252
39152W        W 7546  12.895  37.422  12.735
39153W        W 7547  19.823  42.421   1.825
39154W        W 7548  17.057  17.713  11.963
39155W        W 7549  44.814  38.812   0.903
39156W        W 7550   6.485  33.564  14.936
39157W        W 7551  26.661  43.561   4.132
39158W        W 7552  18.510  21.725  14.930
39159W        W 7553  10.410  19.251  11.586
39160W        W 7554  22.967  28.057  12.134
39161W        W 7555  28.153  43.770  13.007
39162W        W 7556   4.202  31.521  13.443
39163W        W 7557  10.274  16.723   3.847
39164W        W 7558  13.855   7.367   4.325
39165W        W 7559  16.701   7.825   1.198
39166W        W 7560  14.585  12.497  10.362
39167W        W 7561  15.663  36.404  10.124
39168W        W 7562   3.194  35.402  14.891
39169W        W 7563   9.382  17.346  14.888
39170W        W 7564  19.602  20.142  10.197
39171W        W 7565  35.946  32.002   2.845
39172W        W 7566  27.450  14.777   0.772
39173W        W 7567  43.780   9.344  14.447
39174W        W 7568  32.608  31.198   2.013
39175W        W 7569   4.235  22.792  12.938
39176W        W 7570  20.362   9.483  14.154
39177W        W 7571  30.237  35.359  12.550
39178W        W 7572   5.974  30.927   1.435
39179W        W 7573   9.374   8.851   0.359
39180W        W 7574  31.045   3.423   4.671
39181W        W 7575  16.330  13.838   4.828
39182W        W 7576  21.932   4.391   2.287
39183W        W 7577  12.759  29.463   2.157
39184W        W 7578  39.319   3.483  14.761
39185W        W 7579  41.525  16.815   1.202
39186W        W 7580  40.546  10.449   1.736
39187W        W 7581  42.688  32.152   1.344
39188W        W 7582  34.411  32.005  12.217
39189W        W 7583  33.049  22.887  12.521
39190W        W 7584  25.484  40.543   3.315
39191W        W 7585  16.159  35.540   2.439
39192W        W 7586  16.239  35.640  11.722
39193W        W 7587  35.329  34.440   3.668
39194W        W 7588   7.074   5.395   4.596
39195W        W 7589  33.496  25.639  14.068
39196W        W 7590   3.232  37.953  14.759
39197W        W 7591   9.428  11.010   0.886
39198W        W 7592  13.404  31.568   1.940
39199W        W 7593   0.063  40.891  13.805
39200W        W 7594  30.102  42.303   2.597
39201W        W 7595  40.673  26.700   4.007
39202W        W 7596  25.784  27.954  13.898
39203W        W 7597  24.031  31.831  14.349
39204W        W 7598  34.997  42.537   4.253
39205W        W 7599  41.216  11.955  13.035
39206W        W 7600  35.856  30.379  12.923
39207W        W 7601   3.308   0.509   1.331
39208W        W 7602   3.176  34.028   2.180
39209W        W 7603  17.090  24.487  13.236
39210W        W 7604  37.415  36.283   1.998
39211W        W 7605  24.770  11.773   1.294
39212W        W 7606  39.017   8.357   3.147
39213W        W 7607  35.038   6.994   4.105
39214W        W 7608  20.365  39.972   2.186
39215W        W 7609  44.370  20.075  13.382
39216W        W 7610  28.725  29.939  11.576
39217W        W 7611  33.153  12.258  12.853
39218W        W 7612  11.429  21.819   4.379
39219W        W 7613  24.335  43.900   0.300
39220W        W 7614  43.313   7.077  14.989
39221W        W 7615  26.552  27.424   5.105
39222W        W 7616  31.573  39.506  10.649
39223W        W 7617  13.830   0.949   4.675
39224W        W 7618   7.229  36.434   0.779
39225W        W 7619   1.602  36.628   4.196
39226W        W 7620  11.689  10.349   1.459
39227W        W 7621  42.953  42.281   4.193
39228W        W 7622  32.946  31.992   2.829
39229W        W 7623  18.447  15.923  10.106
39230W        W 7624  17.093  15.449   1.004
39231W        W 7625  13.858  11.385   1.916
39232W        W 7626  41.968  42.927  14.314
39233W        W 7627   9.115  22.395   1.866
39234W        W 7628  19.953  24.572  10.563
39235W        W 7629  36.563  28.411  12.055
39236W        W 7630   1.467   7.757  10.501
39237W        W 7631   9.008  28.984   2.606
39238W        W 7632  19.709   2.808  10.812
39239W        W 7633  33.804  39.699  11.638
39240W        W 7634   6.187  37.660  12.004
39241W        W 7635  10.222  44.549   2.136
39242W        W 7636  33.640  19.176  14.896
39243W        W 7637  42.024  24.477   3.150
39244W        W 7638  23.500  11.615  12.975
39245W        W 7639  25.161   3.002   4.049
39246W        W 7640   6.375  14.737  14.048
39247W        W 7641  25.513   5.899   1.734
39248W        W 7642  15.527  29.952   2.192
39249W        W 7643  23.459   3.992  11.541
39250W        W 7644  27.545   2.249  13.997
39251W        W 7645  28.065   3.023  14.952
39252W        W 7646  21.348  20.496   1.234
39253W        W 7647   8.419  19.408   3.313
39254W        W 7648  41.339  28.460   4.687
39255W        W 7649   0.831  36.511   2.840
39256W        W 7650  33.031  14.722  14.052
39257W        W 7651   1.852  28.235  10.660
39258W        W 7652   2.108  43.371  11.623
39259W        W 7653  35.142   1.378  14.054
39260W        W 7654  31.501  26.492   4.105
39261W        W 7655   0.399  27.119   3.804
39262W        W 7656  23.710   7.625  11.870
39263W        W 7657  18.650  15.612  14.628
39264W        W 7658  34.707  32.466   1.671
39265W        W 7659  13.770  36.761   3.074
39266W        W 7660   9.989   2.942   4.168
39267W        W 7661  17.571  20.673   3.294
39268W        W 7662   9.885  38.483  10.575
39269W        W 7663  16.499  26.949   9.889
39270W        W 7664  39.349  11.098   2.009
39271W        W 7665   7.246  44.864   4.001
39272W        W 7666  20.239   0.344   2.779
39273W        W 7667  27.115   6.971   4.540
39274W        W 7668  23.136  42.605   4.219
39275W        W 7669  35.954   5.615   2.473
39276W        W 7670  18.286  38.983  12.119
39277W        W 7671  32.888  21.331  13.539
39278W        W 7672  29.151  40.379  13.733
39279W        W 7673   7.398  33.898   0.060
39280W        W 7674  15.115   6.696   1.510
39281W        W 7675  11.544  36.031   1.798
39282W        W 7676  23.598  34.912  12.308
39283W        W 7677   7.640  23.599  10.541
39284W        W 7678  14.680   2.392  11.594
39285W        W 7679  25.711  43.299   4.386
39286W        W 7680  22.650   0.996  10.596
39287W        W 7681  22.103  23.024   3.041
39288W        W 7682  29.401  40.834   3.841
39289W        W 7683  33.467  11.822   1.283
39290W        W 7684  27.678  33.816  12.412
39291W        W 7685  10.566  40.082  14.490
39292W        W 7686   2.926  22.009  13.968
39293W        W 7687   2.561  25.672  13.588
39294W        W 7688  17.590  20.682   0.785
39295W        W 7689  24.807  26.672   1.685
39296W        W 7690  24.739  44.710  12.934
39297W        W 7691  38.904  35.920   3.586
39298W        W 7692  44.010  26.774  13.899
39299W        W 7693  35.407  30.694  12.087
39300W        W 7694   6.307  30.889   3.351
39301W        W 7695   9.265  36.937  10.672
39302W        W 7696  41.972  15.851   1.871
39303W        W 7697   4.016  10.035  13.269
39304W        W 7698  31.667  19.073  13.942
39305W        W 7699  43.166  10.349  12.271
39306W        W 7700  44.621   9.749  14.073
39307W        W 7701   7.378   1.227   1.651
39308W        W 7702  42.569  34.948  11.632
39309W        W 7703  24.270  20.317   3.713
39310W        W 7704  34.884  20.682   4.370
39311W        W 7705  23.201  42.109  11.646
39312W        W 7706   4.880   7.872   3.611
39313W        W 7707  29.719  27.489   3.655
39314W        W 7708  13.788  30.975  11.010
39315W        W 7709  13.843   7.885   3.530
39316W        W 7710  12.582  25.821   1.920
39317W        W 7711  40.234  17.360  14.480
39318W        W 7712  30.448   6.287   5.004
39319W        W 7713  16.832  42.935   0.725
39320W        W 7714  28.388  24.784   4.614
39321W        W 7715  13.611   4.365   0.655
39322W        W 7716  23.702  43.441   4.642
39323W        W 7717  18.822   4.765   3.627
39324W        W 7718  36.949  28.414   2.223
39325W        W 7719  22.569  24.294   0.846
39326W        W 7720  34.511  11.123   3.085
39327W        W 7721  20.799   2.284   1.412
39328W        W 7722   4.897  36.120  14.839
39329W        W 7723   1.775  15.290  11.645
39330W        W 7724  24.692  25.277  14.788
39331W        W 7725  15.154  31.253   0.414
39332W        W 7726  21.509  15.198  12.500
39333W        W 7727  34.344  43.333   1.611
39334W        W 7728  13.884  41.390  12.437
39335W        W 7729  21.936  39.866  10.649
39336W        W 7730  24.691   0.323  13.807
39337W        W 7731  20.898  24.734   1.443
39338W        W 7732  11.616   7.788  14.979
39339W        W 7733   0.122  44.971   0.142
39340W        W 7734  10.651  20.772   3.423
39341W        W 7735  29.599   5.382   2.286
39342W        W 7736  41.567  30.102  11.689
39343W        W 7737  30.612  42.724  10.548
39344W        W 7738   5.739  30.714   1.895
39345W        W 7739   3.329  14.747  14.975
39346W        W 7740  44.161  27.455   2.033
39347W        W 7741  27.215  41.446   0.734
39348W        W 7742  27.945  43.423  14.660
39349W        W 7743   9.461   2.379   2.204
39350W        W 7744  17.494   4.218   2.799
39351W        W 7745  21.767   2.438   1.057
39352W        W 7746   8.664  39.067  14.029
39353W        W 7747  36.472   4.364  14.106
39354W        W 7748  42.789  26.700  13.832
39355W        W 7749   0.894  23.961   3.258
39356W        W 7750  11.138  36.988   1.591
39357W        W 7751  28.988   1.462  12.691
39358W        W 7752  31.470   5.718   4.584
39359W        W 7753  35.637  44.129   2.926
39360W        W 7754  29.421   2.032   1.650
39361W        W 7755  10.350  37.331  13.380
39362W        W 7756  30.152  40.959  11.035
39363W        W 7757  42.034   9.327  10.770
39364W        W 7758  37.810  41.381  10.682
39365W        W 7759   3.693  34.700  11.169
39366W        W 7760  33.005  28.451  14.852
39367W        W 7761  12.602   1.513  11.643
39368W        W 7762  38.161  38.584   1.252
39369W        W 7763  33.041   8.633  14.024
39370W        W 7764  26.582   6.010  11.151
39371W        W 7765  39.000  39.557   3.343
39372W        W 7766  41.792   3.404  14.392
39373W        W 7767  13.712  44.880  13.062
39374W        W 7768  15.062  28.520  12.204
39375W        W 7769  19.456  25.067   1.876
39376W        W 7770  15.633  42.925   3.723
39377W        W 7771  24.124  42.897  11.935
39378W        W 7772  10.320  30.404   1.911
39379W        W 7773  37.505  29.171   3.105
39380W        W 7774   0.285   4.792  11.529
39381W        W 7775  40.503  12.938   1.386
39382W        W 7776   5.966  27.942  12.673
39383W        W 7777   1.855  30.552   0.467
39384W        W 7778  39.959  36.780  13.418
39385W        W 7779  10.391  19.365   2.433
39386W        W 7780  21.415  33.089  14.581
39387W        W 7781  20.785   9.294   4.185
39388W        W 7782  29.700  18.861  11.190
39389W        W 7783  43.437  28.048  12.181
39390W        W 7784  10.803  13.350   4.660
39391W        W 7785  14.455  12.755   1.382
39392W        W 7786  22.984  28.086   4.483
39393W        W 7787  26.531  13.851   1.439
39394W        W 7788  28.399  18.735  13.927
39395W        W 7789   4.526  15.529   0.384
39396W        W 7790  19.506   9.420   3.821
39397W        W 7791   4.752  22.535   2.214
39398W        W 7792  29.046  38.849   1.700
39399W        W 7793  29.974  26.684  12.057
39400W        W 7794  30.976  36.374   1.716
39401W        W 7795  22.967  21.212  12.461
39402W        W 7796  43.035  43.951  10.666
39403W        W 7797  26.124   3.842  10.555
39404W        W 7798  31.528  28.223  12.013
39405W        W 7799  34.030  18.004   1.985
39406W        W 7800   3.371  26.234   0.798
39407W        W 7801  43.836  44.648   0.983
39408W        W 7802  18.107  26.708   1.332
39409W        W 7803  42.503  10.877  12.087
39410W        W 7804  21.830  40.557   4.196
39411W        W 7805   7.767  22.216  12.442
39412W        W 7806  10.175  28.452   1.430
39413W        W 7807   8.575  35.378  14.421
39414W        W 7808   1.356  43.237  12.217
39415W        W 7809  22.543   5.789   3.673
39416W        W 7810  43.112  41.477   3.706
39417W        W 7811  39.566  20.738  12.593
39418W        W 7812  10.630   7.715  13.820
39419W        W 7813  10.889   4.357  13.385
39420W        W 7814  35.639  20.036  12.936
39421W        W 7815  35.418  10.153   2.379
39422W        W 7816  27.801  21.161  11.124
39423W        W 7817  10.462  14.670  11.182
39424W        W 7818  30.162  13.382  10.447
39425W        W 7819  44.905  44.392   1.407
39426W        W 7820  27.962  23.614   0.474
39427W        W 7821  13.099  42.151   1.867
39428W        W 7822  27.108  32.881   4.014
39429W        W 7823  26.476  41.589   4.146
39430W        W 7824  42.097  15.140   0.557
39431W        W 7825  14.238  36.811   3.299
39432W        W 7826  40.339   7.820   1.174
39433W        W 7827  41.404  41.559   0.281
39434W        W 7828  36.849  14.337  14.387
39435W        W 7829  16.515  24.883   1.161
39436W        W 7830  27.157  23.088  10.565
39437W        W 7831  34.588  32.725   2.188
39438W        W 7832   1.708   4.868  13.623
39439W        W 7833  30.443   1.671  13.391
39440W        W 7834  16.564  36.950  12.482
39441W        W 7835  14.699   3.066  12.823
39442W        W 7836  23.032  25.176  14.768
39443W        W 7837  25.900  37.277   0.908
39444W        W 7838  11.607   7.999   1.570
39445W        W 7839  17.285   7.664   0.431
39446W        W 7840  15.124  18.193  10.132
39447W        W 7841  43.895   9.653  13.823
39448W        W 7842  30.069  35.682   1.600
39449W        W 7843  42.457  32.338  12.000
39450W        W 7844   4.834  35.192  13.778
39451W        W 7845  37.450   8.479   0.065
39452W        W 7846   4.362  31.458  12.587
39453W        W 7847  36.081  44.873  11.456
39454W        W 7848  29.479  34.521  14.846
39455W        W 7849  42.494   8.694  14.560
39456W        W 7850  22.472  33.959  11.713
39457W        W 7851  41.488   2.323   3.764
39458W        W 7852  25.071  25.700  12.843
39459W        W 7853  43.720  14.114  10.717
39460W        W 7854   8.986  11.715   3.805
39461W        W 7855  42.428  38.459  11.230
39462W        W 7856  19.358  26.916  12.971
39463W        W 7857  15.243  44.941   2.407
39464W        W 7858  24.063   1.001  12.938
39465W        W 7859   7.712  35.442   2.977
39466W        W 7860  25.350  21.376   4.916
39467W        W 7861  32.554  38.874  10.309
39468W        W 7862   9.257  19.842   2.365
39469W        W 7863  33.210  12.610   4.817
39470W        W 7864  16.364  36.056   2.908
39471W        W 7865  19.193  26.008   1.668
39472W        W 7866  25.759  21.369   0.876
39473W        W 7867  43.743  20.225  12.562
39474W        W 7868  21.074  11.040   5.209
39475W        W 7869  30.110  23.545   3.659
39476W        W 7870  43.886   3.745  14.050
39477W        W 7871  20.613   6.837   0.201
39478W        W 7872  26.313  34.193  14.747
39479W        W 7873  14.140  31.966   2.701
39480W        W 7874  41.289  20.318  13.063
39481W        W 7875  17.231  34.146   3.613
39482W        W 7876  19.956  17.331  10.656
39483W        W 7877  41.159  14.445  12.936
39484W        W 7878  33.168  38.053   1.333
39485W        W 7879   5.864   5.196  10.564
39486W        W 7880  27.279  36.913   4.702
39487W        W 7881  27.972  19.541  14.569
39488W        W 7882  25.091  23.548   0.268
39489W        W 7883  31.116  37.260   3.238
39490W        W 7884   5.269  31.685   1.480
39491W        W 7885  24.607  15.278   1.834
39492W        W 7886  18.990  25.567  13.844
39493W        W 7887  15.788  30.937  14.855
39494W        W 7888  27.213  36.598  13.986
39495W        W 7889  27.239  10.898  14.426
39496W        W 7890  34.375   8.208  10.862
39497W        W 7891  20.748  41.438  13.634
39498W        W 7892  27.924  30.410   1.747
39499W        W 7893  36.074   7.760   0.672
39500W        W 7894  11.186  29.935   3.278
39501W        W 7895  24.151  35.869  14.075
39502W        W 7896   9.312  29.905  11.014
39503W        W 7897   0.493   2.420  11.851
39504W        W 7898  20.611  38.471   3.583
39505W        W 7899  42.914  23.992   3.814
39506W        W 7900   5.833   8.670   2.903
39507W        W 7901   5.865  23.660  14.542
39508W        W 7902   7.566   7.280  12.300
39509W        W 7903  27.329  22.714   1.556
39510W        W 7904   7.077   4.412   1.631
39511W        W 7905  20.196  15.812   0.382
39512W        W 7906  18.810  31.479   0.774
39513W        W 7907   5.660  24.774  11.758
39514W        W 7908  30.457  14.594  11.638
39515W        W 7909  28.042  11.384   4.513
39516W        W 7910  44.035  41.309   4.696
39517W        W 7911  34.582  14.249  12.727
39518W        W 7912  36.001  31.130  11.739
39519W        W 7913  24.165  44.638  14.090
39520W        W 7914   6.305  13.531  12.493
39521W        W 7915  26.010   1.154  11.045
39522W        W 7916  25.953   4.684  11.118
39523W        W 7917  33.135  19.259  14.848
39524W        W 7918  11.679  16.011   3.708
39525W        W 7919   3.891  25.702   2.184
39526W        W 7920  28.720  42.977  11.528
39527W        W 7921  24.263  20.244  12.994
39528W        W 7922  27.909   7.378   3.620
39529W        W 7923   8.367   7.731  11.217
39530W        W 7924   8.595  35.029   2.880
39531W        W 7925  16.320   1.986   1.340
39532W        W 7926  27.488  10.674  13.507
39533W        W 7927  14.604  22.007   2.305
39534W        W 7928  25.532  26.953  12.404
39535W        W 7929   8.982   8.252  13.992
39536W        W 7930  38.927  14.827  10.884
39537W        W 7931  37.099  35.956  13.433
39538W        W 7932  24.856   2.702  11.068
39539W        W 7933  15.298   6.159   1.628
39540W        W 7934   5.981   6.393   0.768
39541W        W 7935  19.589   1.430  14.458
39542W        W 7936  36.123  22.127   2.176
39543W        W 7937  42.554  43.659   0.682
39544W        W 7938  12.630  21.160  11.552
39545W        W 7939  13.773  38.306  10.841
39546W        W 7940   5.876   4.929  14.959
39547W        W 7941  18.117   6.391  11.387
39548W        W 7942  37.374  32.478   0.439
39549W        W 7943   8.418   7.276   4.898
39550W        W 7944  15.267  31.678  14.414
39551W        W 7945   8.864  17.648  12.101
39552W        W 7946  17.814   3.480  12.771
39553W        W 7947  36.988   0.687   4.501
39554W        W 7948  32.719  10.689  11.975
39555W        W 7949  13.221  21.965   0.761
39556W        W 7950  38.332  41.008   4.575
39557W        W 7951  18.548  20.532  12.605
39558W        W 7952  25.207   1.708   0.744
39559W        W 7953  11.224   9.023   2.428
39560W        W 7954  11.223   7.988   4.563
39561W        W 7955  24.708  18.446   3.743
39562W        W 7956  43.393   1.529   4.808
39563W        W 7957  27.607  38.301  12.673
39564W        W 7958   7.783  39.420   3.707
39565W        W 7959  18.014  38.137   3.990
39566W        W 7960   6.081   8.764  11.930
39567W        W 7961  17.165  17.803   4.069
39568W        W 7962  25.033   9.203  10.539
39569W        W 7963  24.964  42.276  13.278
39570W        W 7964  24.479  14.064   2.227
39571W        W 7965  15.273  19.296   1.777
39572W        W 7966  18.419  44.461  11.856
39573W        W 7967  30.333  13.618  13.408
39574W        W 7968   2.512  41.298   3.253
39575W        W 7969   7.941  26.189   4.536
39576W        W 7970  25.977  37.849   3.728
39577W        W 7971  31.656  42.449   2.748
39578W        W 7972   5.058  35.916   0.286
39579W        W 7973  17.333   3.344   1.503
39580W        W 7974   6.541   2.175   9.880
39581W        W 7975  38.564  31.664  14.023
39582W        W 7976  16.272  29.071  13.822
39583W        W 7977  19.338   0.095   1.573
39584W        W 7978  34.563   7.191  13.865
39585W        W 7979   0.982   4.905  14.766
39586W        W 7980  16.369  27.499   3.602
39587W        W 7981  25.669  26.551  14.500
39588W        W 7982  24.243  27.601  12.522
39589W        W 7983  15.214  20.493   2.862
39590W        W 7984  25.685  40.122   2.087
39591W        W 7985  39.331  40.267  11.155
39592W        W 7986  39.521  20.570  14.876
39593W        W 7987  38.603  40.025  11.653
39594W        W 7988  16.674  41.972  13.167
39595W        W 7989   3.495  11.280   3.009
39596W        W 7990   3.649  28.371   3.806
39597W        W 7991  44.397  33.370  13.141
39598W        W 7992  15.105  15.985   2.667
39599W        W 7993  39.009  16.811  10.797
39600W        W 7994  11.890  22.894  12.792
39601W        W 7995  29.465   9.387   0.253
39602W        W 7996  29.067  42.451   4.368
39603W        W 7997  29.445   2.526   4.454
39604W        W 7998  32.830   7.775  12.735
39605W        W 7999  42.157  23.045   4.691
39606W        W 8000  35.507   6.901   1.838
39607W        W 8001   0.360   7.865   3.338
39608W        W 8002  17.456   0.474  10.311
39609W        W 8003  36.466  40.783   0.861
39610W        W 8004  13.756  23.296  11.101
39611W        W 8005  22.583  14.195   0.054
39612W        W 8006   2.438  19.555  10.737
39613W        W 8007  43.796  40.285   0.700
39614W        W 8008  32.913  13.361   1.782
39615W        W 8009  27.618  26.947  12.181
39616W        W 8010  28.851  27.676  12.657
39617W        W 8011  12.723  24.759  12.600
39618W        W 8012  31.341  38.274  14.492
39619W        W 8013  24.023  40.303   3.971
39620W        W 8014  35.399  28.622  12.028
39621W        W 8015   7.300   3.255   1.904
39622W        W 8016  15.636  38.650  12.552
39623W        W 8017  18.687   6.404  10.078
39624W        W 8018  39.495  37.929   1.520
39625W        W 8019  16.260  34.898  12.392
39626W        W 8020   0.495  19.631  12.659
39627W        W 8021   7.529   3.416  13.555
39628W        W 8022  44.361  39.770   3.657
39629W        W 8023  30.147  13.194  13.992
39630W        W 8024  38.553  44.304  10.852
39631W        W 8025  41.458  21.251   3.317
39632W        W 8026   8.153   2.259  12.048
39633W        W 8027  23.523   8.448  10.637
39634W        W 8028  37.234   3.173   4.997
39635W        W 8029   5.167   5.921   4.286
39636W        W 8030  16.678   2.009  14.369
39637W        W 8031  37.544  29.572  14.351
39638W        W 8032  24.628  11.572   2.618
39639W        W 8033  16.289  25.177   4.624
39640W        W 8034  34.884  40.994   0.074
39641W        W 8035   1.696  31.994  14.655
39642W        W 8036  27.519  41.495   1.681
39643W        W 8037  37.820  19.523  11.553
39644W        W 8038  30.697   3.386   9.832
39645W        W 8039  17.863  36.383   1.875
39646W        W 8040  42.031  27.438   0.895
39647W        W 8041  10.683  44.220  13.949
39648W        W 8042   7.748  14.732  13.374
39649W        W 8043  26.084  11.791   3.617
39650W        W 8044   4.005  39.183  13.847
39651W        W 8045  27.008  11.646   9.748
39652W        W 8046  41.056  24.295  14.510
39653W        W 8047  35.134  24.690   1.340
39654W        W 8048   3.960   1.427   3.671
39655W        W 8049  23.251  33.908   4.115
39656W        W 8050  29.448  18.868   2.321
39657W        W 8051  17.632  33.944   1.228
39658W        W 8052  39.873   6.475  12.461
39659W        W 8053  32.891  41.020   3.609
39660W        W 8054  16.723  33.029   3.145
39661W        W 8055  13.536  13.735   2.332
39662W        W 8056  39.884   8.830   2.296
39663W        W 8057  24.712  16.273   1.930
39664W        W 8058  34.690   5.973   3.309
39665W        W 8059  28.002  17.300  14.854
39666W        W 8060  35.917  14.770  12.437
39667W        W 8061  41.449   9.394   0.240
39668W        W 8062   5.418  23.988  12.762
39669W        W 8063  20.066  33.038  14.297
39670W        W 8064   7.402  30.614   3.626
39671W        W 8065  38.777  16.781  10.310
39672W        W 8066  25.175  27.393   3.651
39673W        W 8067  23.064  43.557  10.872
39674W        W 8068  25.948   4.839  14.459
39675W        W 8069  22.073  24.983  10.642
39676W        W 8070  38.061  37.950   1.838
39677W        W 8071   1.442  41.018  11.670
39678W        W 8072  43.745  33.439  10.648
39679W        W 8073   7.435  19.261   0.822
39680W        W 8074  43.053  37.284  10.824
39681W        W 8075  11.089  23.467  12.038
39682W        W 8076  31.445  14.801  11.556
39683W        W 8077   3.901   4.762  13.847
39684W        W 8078  21.012  21.687   3.904
39685W        W 8079  43.142  30.595   4.122
39686W        W 8080  31.535  36.917   3.910
39687W        W 8081  41.778  31.446  12.055
39688W        W 8082  33.143  34.333   0.756
39689W        W 8083  20.264  30.644   0.459
39690W        W 8084  35.354  20.511  11.781
39691W        W 8085  33.487  10.593  12.521
39692W        W 8086  41.743  24.524   0.825
39693W        W 8087  44.401  22.791   1.833
39694W        W 8088  31.562   8.587  14.315
39695W        W 8089  19.277  29.946  12.897
39696W        W 8090   5.937  25.649   2.191
39697W        W 8091   1.101  12.746  11.407
39698W        W 8092  16.532   9.831   3.338
39699W        W 8093  24.531  38.644  13.853
39700W        W 8094  13.601  30.666  13.614
39701W        W 8095  12.115  37.072  12.986
39702W        W 8096  10.201  24.053   1.325
39703W        W 8097   3.504  20.318  14.422
39704W        W 8098  41.225   0.737   3.000
39705W        W 8099  29.106  40.329  11.642
39706W        W 8100  10.326   8.151   2.685
39707W        W 8101  36.403   3.397   0.189
39708W        W 8102  40.573  20.979   3.378
39709W        W 8103  30.910  40.967   0.872
39710W        W 8104  21.791   0.535  12.096
39711W        W 8105  17.273  42.205  13.785
39712W        W 8106  35.352   5.943  11.619
39713W        W 8107  12.993   4.000  10.674
39714W        W 8108  41.868  16.840   4.188
39715W        W 8109  32.483   4.242  10.684
39716W        W 8110   9.769  35.589   0.914
39717W        W 8111  37.508   1.794  13.523
39718W        W 8112  23.593   6.740  10.703
39719W        W 8113  43.743  26.675   3.299
39720W        W 8114  24.226  32.165  11.206
39721W        W 8115  21.630   7.378  14.043
39722W        W 8116  18.274  44.333  10.592
39723W        W 8117  39.930  21.149   2.366
39724W        W 8118  13.156   9.980   0.916
39725W        W 8119  27.401  33.421  12.674
39726W        W 8120   6.019   9.891   2.264
39727W        W 8121  44.401  23.675   0.810
39728W        W 8122  17.647   9.798  12.197
39729W        W 8123  16.137  35.840  13.384
39730W        W 8124  39.444  36.517   0.749
39731W        W 8125   7.167  28.664  12.423
39732W        W 8126  14.943   4.155   3.832
39733W        W 8127  43.805  36.304  12.120
39734W        W 8128  38.483  44.693  11.623
39735W        W 8129   1.397  36.148   4.112
39736W        W 8130  43.824  12.110  14.365
39737W        W 8131  11.780   9.729   3.772
39738W        W 8132  21.198   7.466   0.788
39739W        W 8133  14.771  14.401  10.710
39740W        W 8134  16.266  36.854  11.916
39741W        W 8135  43.982   9.676   3.805
39742W        W 8136  12.077  26.567   2.146
39743W        W 8137  35.538  13.336   4.550
39744W        W 8138   5.217  24.572   0.899
39745W        W 8139   6.657  18.715  11.503
39746W        W 8140  34.517  18.534  12.354
39747W        W 8141  38.249   5.892   3.793
39748W        W 8142   3.735   2.935   4.133
39749W        W 8143  13.116  14.343  11.140
39750W        W 8144   4.242   8.285  11.375
39751W        W 8145  42.384  40.994   2.317
39752W        W 8146  27.637   8.746   2.015
39753W        W 8147   9.871  32.667   1.343
39754W        W 8148  40.521  21.628  11.202
39755W        W 8149  36.079  11.615  13.865
39756W        W 8150  40.409  44.014  12.920
39757W        W 8151  31.390  44.291   3.856
39758W        W 8152  14.284  35.909   2.674
39759W        W 8153   7.852   2.778  11.993
39760W        W 8154  30.091  37.493  14.771
39761W        W 8155  39.334  19.687  11.665
39762W        W 8156  12.107  31.823  11.237
39763W        W 8157  35.403  39.850   4.722
39764W        W 8158  40.540  37.542  10.629
39765W        W 8159  23.150   0.909   2.751
39766W        W 8160  32.920  23.134  10.740
39767W        W 8161  27.529  13.802   4.684
39768W        W 8162  33.117  12.005  12.388
39769W        W 8163  19.743  37.211   3.218
39770W        W 8164  21.502  15.793   1.731
39771W        W 8165  20.165   1.849   1.509
39772W        W 8166   4.014  36.316  14.460
39773W        W 8167   6.875  12.638   1.480
39774W        W 8168   7.705  27.296   4.582
39775W        W 8169   2.484   9.243  14.471
39776W        W 8170  13.361  41.005   3.163
39777W        W 8171  32.434  18.625   2.794
39778W        W 8172   0.776  22.350  11.503
39779W        W 8173   1.864  19.459  13.981
39780W        W 8174  30.456  36.164   0.004
39781W        W 8175  21.228  34.014  11.044
39782W        W 8176  11.406  25.656  11.587
39783W        W 8177  24.073   3.352   4.357
39784W        W 8178  22.769  24.585   4.108
39785W        W 8179  15.528   8.855  14.008
39786W        W 8180  41.494  26.349  10.567
39787W        W 8181  11.305   6.672   2.601
39788W        W 8182  32.629   9.314  12.168
39789W        W 8183  43.549  15.708  14.008
39790W        W 8184   3.202  15.872  11.191
39791W        W 8185  17.176  28.464   3.293
39792W        W 8186  17.214  39.608   5.308
39793W        W 8187  34.493  16.620   4.158
39794W        W 8188  21.942  27.161  12.482
39795W        W 8189  41.552  38.665  12.663
39796W        W 8190  42.075  13.694   3.794
39797W        W 8191   4.503  23.083   4.978
39798W        W 8192  28.874  43.336  14.039
39799W        W 8193  15.614  15.122   2.311
39800W        W 8194  28.933   2.330   4.548
39801W        W 8195  24.018  38.099   3.726
39802W        W 8196   5.278  10.087  11.662
39803W        W 8197  25.792  24.000  14.349
39804W        W 8198   0.866  33.968   3.765
39805W        W 8199   1.065  32.281   3.495
39806W        W 8200  34.475   4.188   1.866
39807W        W 8201  34.670  18.981  12.546
39808W        W 8202  17.430  25.647  11.124
39809W        W 8203  30.334   2.359  11.166
39810W        W 8204  44.576   4.227   3.593
39811W        W 8205  22.832   4.903  13.025
39812W        W 8206   2.401  33.967   0.528
39813W        W 8207   6.303  43.067  14.842
39814W        W 8208   5.508   0.471   0.406
39815W        W 8209  29.404  17.028   4.383
39816W        W 8210  37.939   5.870   2.645
39817W        W 8211  31.150   5.185   0.764
39818W        W 8212  42.801  37.414   1.754
39819W        W 8213   2.962  24.553  13.925
39820W        W 8214   9.814   8.645  11.939
39821W        W 8215  27.006   3.784   1.656
39822W        W 8216  38.947  41.090   1.376
39823W        W 8217   1.418  28.961  13.605
39824W        W 8218  20.291  41.339  13.924
39825W        W 8219   3.372  34.821   3.620
39826W        W 8220  28.066  38.854  11.529
39827W        W 8221  10.162  43.954   0.558
39828W        W 8222  27.597   0.935   1.711
39829W        W 8223  33.835   7.669   3.783
39830W        W 8224  27.383  32.165  11.510
39831W        W 8225  37.769  12.703  12.981
39832W        W 8226   9.639  18.803  11.561
39833W        W 8227  42.900  17.098   0.357
39834W        W 8228  29.073  11.766   3.595
39835W        W 8229  19.467  31.859   3.572
39836W        W 8230  30.105  31.957  12.062
39837W        W 8231   1.785   6.346  11.056
39838W        W 8232  40.382  33.443  14.060
39839W        W 8233  34.769  39.968   3.288
39840W        W 8234  25.982  26.492  14.920
39841W        W 8235  39.380  33.937   4.455
39842W        W 8236  15.226  40.706   5.129
39843W        W 8237  30.067  37.950   2.329
39844W        W 8238  18.106   9.910  11.014
39845W        W 8239  38.763  22.101   1.230
39846W        W 8240  13.379  27.923  14.393
39847W        W 8241  29.626  25.245   3.648
39848W        W 8242   1.234   5.174   1.220
39849W        W 8243  36.975  37.158   2.337
39850W        W 8244  18.281   5.199   2.299
39851W        W 8245   5.833  14.063  13.029
39852W        W 8246  10.258   1.274   0.937
39853W        W 8247  26.191  35.146  14.941
39854W        W 8248  38.026  44.780   0.833
39855W        W 8249   9.836  33.596   4.323
39856W        W 8250   3.176  13.688  12.550
39857W        W 8251  34.485  25.797  10.430
39858W        W 8252  37.940  29.152   3.386
39859W        W 8253   2.650   4.267   3.140
39860W        W 8254  24.947  12.097   3.354
39861W        W 8255  15.261  31.094  14.290
39862W        W 8256   9.921  43.455   4.362
39863W        W 8257  22.790  17.680  10.630
39864W        W 8258  42.523   2.722  14.408
39865W        W 8259  42.865   7.099   4.093
39866W        W 8260  16.738  34.958   4.576
39867W        W 8261  42.707  15.279   1.790
39868W        W 8262  25.484  15.749  14.848
39869W        W 8263  38.886  32.025   1.688
39870W        W 8264  36.875  29.934  14.966
39871W        W 8265   9.263   9.585   1.261
39872W        W 8266  16.261  22.142   1.998
39873W        W 8267  22.520  28.926   2.862
39874W        W 8268   9.419  40.138   1.762
39875W        W 8269  15.799  44.585  12.544
39876W        W 8270  29.688  11.215   3.352
39877W        W 8271  15.749  39.644   1.864
39878W        W 8272  24.363  10.291   0.004
39879W        W 8273  39.679  21.299   1.938
39880W        W 8274   9.132  15.013   3.241
39881W        W 8275  10.154  42.205   3.591
39882W        W 8276  26.454  20.465  12.622
39883W        W 8277  42.870  36.938  14.303
39884W        W 8278  37.841  31.844  13.341
39885W        W 8279  35.891  44.276   1.236
39886W        W 8280  34.627  42.466  12.039
39887W        W 8281   3.503  10.848   0.761
39888W        W 8282  30.553  30.516   5.002
39889W        W 8283  37.720  13.570  13.576
39890W        W 8284  36.258  18.060  11.616
39891W        W 8285   2.711  25.132   2.652
39892W        W 8286  13.626  26.478  11.135
39893W        W 8287  19.697  20.166   0.444
39894W        W 8288  29.207   8.222   2.295
39895W        W 8289  43.318  18.546  11.825
39896W        W 8290  15.011   3.989   4.840
39897W        W 8291   5.868  22.873  13.676
39898W        W 8292  17.970   7.164  10.687
39899W        W 8293  23.098  24.495  11.162
39900W        W 8294  34.091  33.022   4.280
39901W        W 8295   8.673   2.813  13.978
39902W        W 8296  13.802  37.989  14.354
39903W        W 8297   9.046  19.872   0.002
39904W        W 8298  34.321  12.785   1.817
39905W        W 8299  40.445  12.669   2.319
39906W        W 8300  34.890   2.443  11.521
39907W        W 8301  38.505  30.333  13.033
39908W        W 8302  34.655   9.336  12.078
39909W        W 8303  27.677  26.698   0.462
39910W        W 8304  14.417  15.670   1.367
39911W        W 8305  44.341  32.312  11.138
39912W        W 8306  39.125  22.460  14.976
39913W        W 8307   4.706  15.523  12.554
39914W        W 8308  13.389  10.209   3.934
39915W        W 8309  25.363  41.262   4.096
39916W        W 8310  37.417  35.868   2.365
39917W        W 8311  24.675  17.346   2.861
39918W        W 8312  33.977  40.521   4.890
39919W        W 8313   9.132   2.328  14.667
39920W        W 8314  44.246   8.950  10.329
39921W        W 8315  20.622  19.126   0.730
39922W        W 8316  12.728  22.452  13.186
39923W        W 8317  39.423  36.048   3.656
39924W        W 8318  19.756  31.420   3.583
39925W        W 8319  27.553  12.868  14.573
39926W        W 8320  27.589  43.230  13.331
39927W        W 8321  33.116  23.160  14.905
39928W        W 8322  15.719   2.940   1.884
39929W        W 8323   6.334  34.968   0.872
39930W        W 8324  15.094   2.236   4.159
39931W        W 8325  27.374  24.574   0.143
39932W        W 8326   4.451  25.397   3.334
39933W        W 8327  35.675  39.568  11.967
39934W        W 8328  36.983   7.358  13.938
39935W        W 8329   5.662   2.198  14.900
39936W        W 8330  17.873   7.720   1.837
39937W        W 8331  21.634  12.652  11.138
39938W        W 8332  24.761  15.614   3.700
39939W        W 8333   4.954  37.635  11.665
39940W        W 8334   2.668  25.624   1.757
39941W        W 8335  44.471   2.478   3.137
39942W        W 8336   6.233  25.563  11.992
39943W        W 8337  24.949  18.132   2.599
39944W        W 8338   1.684   1.816   2.310
39945W        W 8339  20.835  33.464   2.263
39946W        W 8340  31.648  29.980   0.704
39947W        W 8341  12.600  13.575  11.197
39948W        W 8342  15.159  26.684  14.810
39949W        W 8343  20.099  34.430  10.712
39950W        W 8344  35.008   4.475   1.194
39951W        W 8345  26.739  41.057   0.456
39952W        W 8346  30.343  39.078   3.375
39953W        W 8347  30.956  41.919   2.748
39954W        W 8348   1.388  16.233  10.323
39955W        W 8349  10.753   4.416   0.328
39956W        W 8350  17.653  22.102  13.861
39957W        W 8351   2.688   3.898  11.848
39958W        W 8352  19.273  20.483  14.361
39959W        W 8353  19.293  37.028   3.856
39960W        W 8354   2.847  23.566  10.974
39961W        W 8355  27.927   8.665  11.140
39962W        W 8356  42.719  29.139   2.121
39963W        W 8357  26.743  39.941  14.976
39964W        W 8358  14.590  26.719  11.041
39965W        W 8359  24.525  22.094  11.861
39966W        W 8360  25.952  25.863  13.526
39967W        W 8361  34.691  29.015   1.942
39968W        W 8362   6.155   8.994   5.184
39969W        W 8363  21.980   8.710   0.799
39970W        W 8364  33.286  24.052  14.879
39971W        W 8365   0.011   1.243   1.569
39972W        W 8366  35.563   7.666   2.814
39973W        W 8367  12.909  14.401   1.334
39974W        W 8368  32.623  41.951  14.296
39975W        W 8369  17.187   1.859   3.674
39976W        W 8370  24.082  43.850   3.098
39977W        W 8371   0.295  36.307   0.301
39978W        W 8372  15.354  20.443   1.514
39979W        W 8373  25.792   4.511   0.758
39980W        W 8374  21.428  23.707  10.942
39981W        W 8375  17.375   8.185   0.937
39982W        W 8376  22.110  40.313  14.862
39983W        W 8377  28.132   1.283  10.829
39984W        W 8378  42.002  28.220   0.439
39985W        W 8379  15.700   7.312   4.071
39986W        W 8380  31.440  35.412   1.704
39987W        W 8381  10.638   1.198   2.690
39988W        W 8382  38.844  38.465  11.478
39989W        W 8383  10.931  11.267   0.977
39990W        W 8384  40.913  24.529   1.481
39991W        W 8385  40.828  20.272  13.499
39992W        W 8386  37.013  38.397   0.468
39993W        W 8387  31.368   5.149  12.922
39994W        W 8388  39.883  39.890   0.862
39995W        W 8389  12.889   1.091   0.763
39996W        W 8390  38.379  34.300   3.701
39997W        W 8391  29.454  34.031   2.950
39998W        W 8392  44.442  33.936   5.130
39999W        W 8393  13.091  14.211   0.884
40000W        W 8394  43.788  40.849  10.503
40001W        W 8395   3.027  15.037  12.503
40002W        W 8396  23.667   8.163   1.761
40003W        W 8397  28.059  42.834   2.425
40004W        W 8398  15.513  11.917  11.205
40005W        W 8399  26.433   3.804  14.542
40006W        W 8400  11.800  34.651  14.742
40007W        W 8401   4.092  27.320   3.608
40008W        W 8402  39.057  19.158   1.292
40009W        W 8403  23.322  23.311  13.872
40010W        W 8404  29.349  41.628   4.150
40011W        W 8405  40.268  15.723  13.473
40012W        W 8406  29.194   6.722  11.981
40013W        W 8407   8.758  13.893  10.671
40014W        W 8408  42.901  19.038   4.018
40015W        W 8409  19.737  15.364   2.839
40016W        W 8410  31.437  29.426  11.113
40017W        W 8411  23.281  30.003  14.045
40018W        W 8412  13.380  17.568  12.180
40019W        W 8413  28.015   4.666  10.240
40020W        W 8414  33.534   8.747   4.729
40021W        W 8415  31.928  37.452   5.163
40022W        W 8416  17.896  40.770  13.081
40023W        W 8417  10.289  17.946   2.796
40024W        W 8418  13.634  33.013  14.449
40025W        W 8419  20.366   5.612   3.995
40026W        W 8420  20.099   0.825  12.123
40027W        W 8421  27.002   3.001   2.340
40028W        W 8422  39.907  18.719  12.397
40029W        W 8423  13.779  39.361   0.972
40030W        W 8424  14.637  24.970  12.360
40031W        W 8425  34.604   6.279   0.586
40032W        W 8426  29.954  10.276   0.261
40033W        W 8427  40.809  38.056  11.184
40034W        W 8428  12.253  22.142   3.353
40035W        W 8429   2.086  41.237   2.806
40036W        W 8430  28.237  31.484  12.539
40037W        W 8431   7.445  43.941  11.525
40038W        W 8432   4.839   1.260   0.081
40039W        W 8433  21.797  41.072   2.976
40040W        W 8434  36.418  16.509  13.636
40041W        W 8435  15.522  23.541  10.772
40042W        W 8436  43.294  23.546   4.171
40043W        W 8437   8.305   5.299  12.499
40044W        W 8438   9.882  19.628   4.013
40045W        W 8439  28.776  11.075   3.708
40046W        W 8440  15.054   9.144  14.278
40047W        W 8441  30.188   5.152   0.937
40048W        W 8442  38.956  14.738  11.388
40049W        W 8443  24.027  38.333  14.007
40050W        W 8444  43.018   8.481  12.046
40051W        W 8445   5.860  14.819  13.576
40052W        W 8446  31.914  11.656  13.311
40053W        W 8447   6.579   7.177  12.578
40054W        W 8448  29.882  32.611   1.529
40055W        W 8449  32.038  20.124  14.916
40056W        W 8450  42.558  42.739  12.434
40057W        W 8451  11.412  42.868  10.378
40058W        W 8452  10.900  44.818   3.069
40059W        W 8453  18.541   7.216  13.829
40060W        W 8454  23.092  42.954   3.226
40061W        W 8455  28.913  16.067  11.219
40062W        W 8456  11.739  27.478  11.571
40063W        W 8457  33.210  43.880  11.626
40064W        W 8458  43.266  16.741   4.646
40065W        W 8459  39.537  34.415   1.715
40066W        W 8460  27.071  31.490  13.852
40067W        W 8461  16.069  24.132  12.184
40068W        W 8462  34.487   2.381  13.756
40069W        W 8463   4.728  28.032  13.874
40070W        W 8464  16.806  29.246  14.690
40071W        W 8465  22.576  16.065  10.365
40072W        W 8466  12.587  10.655  14.546
40073W        W 8467   2.500  44.545   1.956
40074W        W 8468  41.009   7.290   4.111
40075W        W 8469  38.263  22.556  13.998
40076W        W 8470  39.463  22.963  13.140
40077W        W 8471   2.227  28.440   3.692
40078W        W 8472   3.519  37.378  12.389
40079W        W 8473   2.847  43.907  13.310
40080W        W 8474  42.594  17.108  14.919
40081W        W 8475  25.011  11.645  13.580
40082W        W 8476  12.111  33.798  11.459
40083W        W 8477   5.400  27.577   1.511
40084W        W 8478  42.542  13.624   4.063
40085W        W 8479  28.659  37.858   0.494
40086W        W 8480  33.085  16.553   2.175
40087W        W 8481  23.195  22.581   2.584
40088W        W 8482  40.368  33.179   3.888
40089W        W 8483  35.563  31.410  12.548
40090W        W 8484  23.336  27.725  10.733
40091W        W 8485  12.867  27.572   1.847
40092W        W 8486  44.901  44.376  10.610
40093W        W 8487   9.661  34.043   4.114
40094W        W 8488  13.316   0.270  14.714
40095W        W 8489  11.594  41.391  13.492
40096W        W 8490  24.804  33.390   4.609
40097W        W 8491  36.116  25.711  13.500
40098W        W 8492  26.673   9.760   4.377
40099W        W 8493  18.044  43.281   2.769
40100W        W 8494  29.812  28.424   3.639
40101W        W 8495   2.140  17.743  11.056
40102W        W 8496  25.248  37.194   2.189
40103W        W 8497  18.612  32.067   2.867
40104W        W 8498  26.676  33.128   3.315
40105W        W 8499  16.081  32.559   4.596
40106W        W 8500  14.224  35.108  14.966
40107W        W 8501  30.911   3.493  14.398
40108W        W 8502  15.296  28.327   0.302
40109W        W 8503   3.902  35.342  12.521
40110W        W 8504  43.888   2.981   5.025
40111W        W 8505  40.819   4.369  13.192
40112W        W 8506  10.522  18.721   0.441
40113W        W 8507  39.923  32.014   0.202
40114W        W 8508  25.059   2.396  12.116
40115W        W 8509  17.352   8.887  14.257
40116W        W 8510   4.822  36.489   2.913
40117W        W 8511  21.400   8.233   1.229
40118W        W 8512   6.014  20.228  12.818
40119W        W 8513  18.569  36.517  11.089
40120W        W 8514  10.794  16.243  13.423
40121W        W 8515  38.241  32.162  13.281
40122W        W 8516  36.804  27.020  13.733
40123W        W 8517   7.685  15.647  13.552
40124W        W 8518   5.234  29.549   4.025
40125W        W 8519  15.725   7.624   5.326
40126W        W 8520  30.569   1.257   0.856
40127W        W 8521   7.042  30.225   2.687
40128W        W 8522   9.430  39.705  10.396
40129W        W 8523  43.590   1.486   1.909
40130W        W 8524   2.187  32.052   3.070
40131W        W 8525  24.109  20.810   1.305
40132W        W 8526  11.350   8.226   0.891
40133W        W 8527  20.516   1.519   3.205
40134W        W 8528  28.475  18.237  12.225
40135W        W 8529  44.094  37.451   3.644
40136W        W 8530  35.942   5.340  11.682
40137W        W 8531  43.280  32.675   0.667
40138W        W 8532   0.098  16.161  10.767
40139W        W 8533  30.218   0.383   2.251
40140W        W 8534  39.877  11.861  12.940
40141W        W 8535   8.933  12.392   1.025
40142W        W 8536  43.970  40.400  11.325
40143W        W 8537  39.955   0.165  14.456
40144W        W 8538   3.178  26.485  13.519
40145W        W 8539  31.652  31.436  11.931
40146W        W 8540   5.601  41.936  12.547
40147W        W 8541  40.265   9.059  14.874
40148W        W 8542  22.534   2.900   3.771
40149W        W 8543  30.497  23.105   1.628
40150W        W 8544  13.600  10.396  13.583
40151W        W 8545  31.993   2.972   4.612
40152W        W 8546   7.639  32.656   3.869
40153W        W 8547  12.776   8.162  12.826
40154W        W 8548  15.056  34.808   2.369
40155W        W 8549  33.206  31.514   3.752
40156W        W 8550  18.674  40.078  11.049
40157W        W 8551  31.533  39.227   0.353
40158W        W 8552   9.833   4.031   0.725
40159W        W 8553  21.465  42.002   3.905
40160W        W 8554  18.020  43.381  12.773
40161W        W 8555  10.352  27.447   1.221
40162W        W 8556  26.533  29.434  14.381
40163W        W 8557  41.016  23.233  14.512
40164W        W 8558  36.886  40.606   1.357
40165W        W 8559   9.870  37.389  13.560
40166W        W 8560  17.622  15.069  12.977
40167W        W 8561   7.632   4.174   2.353
40168W        W 8562  29.267  25.788  13.842
40169W        W 8563   6.283  29.074  11.898
40170W        W 8564  18.967  22.167   3.272
40171W        W 8565  37.367  16.833   0.065
40172W        W 8566   6.683  19.457  13.010
40173W        W 8567   4.587  22.060   3.443
40174W        W 8568  13.670  26.017  14.540
40175W        W 8569  20.800  42.968  13.474
40176W        W 8570  38.505  34.454   1.798
40177W        W 8571  23.879  25.007  12.967
40178W        W 8572   9.565   3.001  11.377
40179W        W 8573   4.924  39.385  11.810
40180W        W 8574  30.903  24.711   4.279
40181W        W 8575   5.685  10.217   0.298
40182W        W 8576   9.404  18.737   1.234
40183W        W 8577  36.300  12.959  13.594
40184W        W 8578  11.593  37.914  10.645
40185W        W 8579  24.214  32.079   3.542
40186W        W 8580  32.904   3.763   3.598
40187W        W 8581  20.035  30.966   4.178
40188W        W 8582  18.751  42.671  10.979
40189W        W 8583  34.600  38.808   4.681
40190W        W 8584  22.311   9.339  11.444
40191W        W 8585  17.040  40.951  13.362
40192W        W 8586   8.370  23.756  12.935
40193W        W 8587  35.483   1.606   2.481
40194W        W 8588  32.191  44.378   4.007
40195W        W 8589  27.441  40.459  11.169
40196W        W 8590  27.096  29.677  13.363
40197W        W 8591  30.643   4.317   3.260
40198W        W 8592  34.346  15.898   9.837
40199W        W 8593   8.788  10.411   1.295
40200W        W 8594  10.331   1.719  13.139
40201W        W 8595  22.694   4.341  10.923
40202W        W 8596  12.287  39.081   2.281
40203W        W 8597  41.427  43.394  12.643
40204W        W 8598  18.577  25.638   0.317
40205W        W 8599  33.606   6.040  11.151
40206W        W 8600   8.985  33.586   0.686
40207W        W 8601   8.110  35.495  12.889
40208W        W 8602   0.542   6.845  14.969
40209W        W 8603  30.645  13.698   2.700
40210W        W 8604  40.220  39.719  11.000
40211W        W 8605   4.375  21.214   2.577
40212W        W 8606  33.113  10.795   3.712
40213W        W 8607  30.789  31.454  11.621
40214W        W 8608  38.440   9.227  10.808
40215W        W 8609  16.665  20.051   2.775
40216W        W 8610   5.228  10.378   0.500
40217W        W 8611  43.962  15.615   4.817
40218W        W 8612  23.656  39.147  11.908
40219W        W 8613  37.838   1.688  12.003
40220W        W 8614  23.002  44.185   0.433
40221W        W 8615  22.095  44.979   2.729
40222W        W 8616  20.034   2.500   0.670
40223W        W 8617   3.840   4.172   1.273
40224W        W 8618  37.961  44.840  12.861
40225W        W 8619  33.685  36.476  14.121
40226W        W 8620  32.296  15.580  12.210
40227W        W 8621  14.584  36.905  10.776
40228W        W 8622  14.613  26.271   0.946
40229W        W 8623  27.781  30.031   0.886
40230W        W 8624  42.087  23.250  13.550
40231W        W 8625   4.663  37.966   4.071
40232W        W 8626  13.333  36.601   1.799
40233W        W 8627  16.049  20.058  11.253
40234W        W 8628  11.233  32.873  12.896
40235W        W 8629  24.710  26.541  14.027
40236W        W 8630  42.963   4.258   2.352
40237W        W 8631  43.423  34.665   1.869
40238W        W 8632  20.733  41.707  14.646
40239W        W 8633   5.226  11.859  12.944
40240W        W 8634  19.308  37.008  14.002
40241W        W 8635  43.860  37.806  14.066
40242W        W 8636   8.080  43.431   3.297
40243W        W 8637  30.552  29.587   3.412
40244W        W 8638   8.291  42.688   1.217
40245W        W 8639  10.171  35.653  12.112
40246W        W 8640  29.937  13.729  10.767
40247W        W 8641  17.038  10.145  11.482
40248W        W 8642  32.662   3.519   0.809
40249W        W 8643  26.475  21.596  13.792
40250W        W 8644  14.674  33.075   2.877
40251W        W 8645   3.789  25.011   0.238
40252W        W 8646  30.701   4.888   2.193
40253W        W 8647  39.002   3.349   1.869
40254W        W 8648   4.230  15.240  13.748
40255W        W 8649  18.839  37.408  10.325
40256W        W 8650  21.274  15.282   0.398
40257W        W 8651  15.671  11.308  14.832
40258W        W 8652  22.247   2.520   2.472
40259W        W 8653  16.982  13.723   1.395
40260W        W 8654  12.029  29.375   3.204
40261W        W 8655  18.691  16.124  13.043
40262W        W 8656  31.602   4.589  10.163
40263W        W 8657   4.899  22.586   0.419
40264W        W 8658  36.915  29.664   3.080
40265W        W 8659  11.204  36.118  12.109
40266W        W 8660   3.461  42.290   2.619
40267W        W 8661  40.020  24.051   0.778
40268W        W 8662   0.858  15.814   1.173
40269W        W 8663  26.445  24.752  12.738
40270W        W 8664  21.454  14.286   2.342
40271W        W 8665   3.766  17.057   4.955
40272W        W 8666  29.177  10.765  12.547
40273W        W 8667  37.946   6.794   1.528
40274W        W 8668  12.073  22.584  10.934
40275W        W 8669  31.775  22.978  11.728
40276W        W 8670  24.985  23.142   1.262
40277W        W 8671  42.746  20.470  14.291
40278W        W 8672   1.889  33.261  13.627
40279W        W 8673   1.540  16.214  14.496
40280W        W 8674  34.019  10.570   2.506
40281W        W 8675  28.244  16.718  13.997
40282W        W 8676  22.773  19.255   1.309
40283W        W 8677  19.042  22.164  14.112
40284W        W 8678  37.642  19.167  12.846
40285W        W 8679  23.642  27.269   2.281
40286W        W 8680  13.713  34.678  10.977
40287W        W 8681   7.816   5.482  13.286
40288W        W 8682  25.056  19.291   4.411
40289W        W 8683  22.291  10.813  12.515
40290W        W 8684  10.460  39.418  12.038
40291W        W 8685   2.854   2.243  14.518
40292W        W 8686  19.774  42.324   4.175
40293W        W 8687   0.509  12.651  11.799
40294W        W 8688  17.926  35.874   1.746
40295W        W 8689  42.577   0.750   2.387
40296W        W 8690  43.423   4.747  13.131
40297W        W 8691  37.339  23.672   0.623
40298W        W 8692  16.179  18.946  13.765
40299W        W 8693  36.851  44.863  12.188
40300W        W 8694  26.906   1.423  11.072
40301W        W 8695  28.944  21.196   2.637
40302W        W 8696   6.876   6.835   4.460
40303W        W 8697  35.051  15.377   1.235
40304W        W 8698  16.497  26.483  12.976
40305W        W 8699  15.365   0.457  12.217
40306W        W 8700  16.763  22.647  14.065
40307W        W 8701  26.668  10.852   1.456
40308W        W 8702  12.186  22.179  11.969
40309W        W 8703  38.063   1.611  10.693
40310W        W 8704  15.021  23.408   0.976
40311W        W 8705   9.949  29.458  14.501
40312W        W 8706   8.703  41.947  10.939
40313W        W 8707  13.592  17.789  13.466
40314W        W 8708  22.033  35.054   1.426
40315W        W 8709  39.500  34.106  14.880
40316W        W 8710  18.128  14.794  10.837
40317W        W 8711   3.206  13.085  11.540
40318W        W 8712  38.542  15.237  13.481
40319W        W 8713  21.580  29.872   5.069
40320W        W 8714  14.990  15.189   4.941
40321W        W 8715  25.990  28.862   1.169
40322W        W 8716  24.241   4.932  12.959
40323W        W 8717   1.035  22.699   2.970
40324W        W 8718   8.535  44.391  13.086
40325W        W 8719  19.395   7.717   5.035
40326W        W 8720  35.378   4.760   0.743
40327W        W 8721  43.796   6.431   3.571
40328W        W 8722  23.622  19.562  13.377
40329W        W 8723  24.528   1.029  13.142
40330W        W 8724  26.919  22.466  14.443
40331W        W 8725  25.489   5.300   4.714
40332W        W 8726   1.940   0.217  12.977
40333W        W 8727  28.957  10.304  12.464
40334W        W 8728   1.567  13.804  10.747
40335W        W 8729  42.826  28.480  11.522
40336W        W 8730  25.283  37.919   2.867
40337W        W 8731  10.360   1.380  11.478
40338W        W 8732  34.434  18.894   4.045
40339W        W 8733  15.619  16.149  14.464
40340W        W 8734   0.623  23.073   1.737
40341W        W 8735   0.826  43.552  13.596
40342W        W 8736  12.852  19.235   3.461
40343W        W 8737  12.080  12.836  11.150
40344W        W 8738  32.359  34.579   4.112
40345W        W 8739   8.282  44.927  12.144
40346W        W 8740  33.931  10.882   4.686
40347W        W 8741  34.859  13.101  11.113
40348W        W 8742  11.275  41.316   3.641
40349W        W 8743  29.402   5.667   2.887
40350W        W 8744   7.269  16.555  12.092
40351W        W 8745  40.675   4.983   3.679
40352W        W 8746  26.624  24.272   3.615
40353W        W 8747  15.258  15.233   1.929
40354W        W 8748  27.422  32.507   3.675
40355W        W 8749  19.963  25.101   1.857
40356W        W 8750  26.927   0.160  11.614
40357W        W 8751  13.640  35.488  12.107
40358W        W 8752  43.853  40.040   2.440
40359W        W 8753  21.682   1.369   0.509
40360W        W 8754  40.590  22.956  14.310
40361W        W 8755  22.067  36.010   3.136
40362W        W 8756   5.718  38.918   3.570
40363W        W 8757  36.558  15.908  10.946
40364W        W 8758  27.256  22.995   2.411
40365W        W 8759  34.928  19.242   3.337
40366W        W 8760  31.732  21.328  11.024
40367W        W 8761  17.595  33.299  14.008
40368W        W 8762   7.005  28.065  11.375
40369W        W 8763   1.046  31.323  14.890
40370W        W 8764  16.886  10.353   4.115
40371W        W 8765  15.068  11.354  14.904
40372W        W 8766  19.512   2.085  11.731
40373W        W 8767  33.627  18.831   0.307
40374W        W 8768  24.308  21.274  12.416
40375W        W 8769  44.784  17.802   1.733
40376W        W 8770  40.590  32.537   2.672
40377W        W 8771   3.386  24.771   4.951
40378W        W 8772  35.396  36.941   4.139
40379W        W 8773   6.536  30.379  11.187
40380W        W 8774   5.384  12.187  12.544
40381W        W 8775   9.348  44.314   2.416
40382W        W 8776  39.079  22.792   2.426
40383W        W 8777  31.046  37.487   2.190
40384W        W 8778  42.280  21.942   4.117
40385W        W 8779  20.956  41.061  12.025
40386W        W 8780  32.390   8.446   0.715
40387W        W 8781   0.172  35.910  10.747
40388W        W 8782   5.349  33.598   1.796
40389W        W 8783  31.608  43.063   5.003
40390W        W 8784  39.941   5.989   0.672
40391W        W 8785  44.949   4.105   3.257
40392W        W 8786  36.450  36.125   1.515
40393W        W 8787  32.020   4.064   1.629
40394W        W 8788  12.878  17.930   3.620
40395W        W 8789  42.873  29.934  14.067
40396W        W 8790  33.153  38.583   3.243
40397W        W 8791  12.782  27.791   2.840
40398W        W 8792  18.231  40.373   4.957
40399W        W 8793   5.664  12.759   1.917
40400W        W 8794  11.285  19.041  14.988
40401W        W 8795  19.319   1.540   0.875
40402W        W 8796  29.881  18.660  13.999
40403W        W 8797  31.106  34.957   1.336
40404W        W 8798  40.960  21.625   1.469
40405W        W 8799  37.085  42.308  12.135
40406W        W 8800   7.665  29.009  11.179
40407W        W 8801  24.642  19.139   5.089
40408W        W 8802  15.260   2.001  10.665
40409W        W 8803  22.739  34.421  14.281
40410W        W 8804  42.041   3.880   4.656
40411W        W 8805   9.514  41.632  14.324
40412W        W 8806  43.077  38.870   4.046
40413W        W 8807   3.722  19.143  13.649
40414W        W 8808  26.643  35.418   1.104
40415W        W 8809   8.156  15.765   4.147
40416W        W 8810  18.279  35.580   2.844
40417W        W 8811   3.197  23.947   1.182
40418W        W 8812  39.008  34.010   4.066
40419W        W 8813  33.427  37.744   1.625
40420W        W 8814  25.986  25.656   0.258
40421W        W 8815  34.173  39.475   1.892
40422W        W 8816  29.999  13.331   2.672
40423W        W 8817  31.955  15.083   2.378
40424W        W 8818  18.297  41.071   1.003
40425W        W 8819  25.493   6.208   3.276
40426W        W 8820  27.926  11.790  11.938
40427W        W 8821  42.037  11.409   1.903
40428W        W 8822   7.172  13.984  13.465
40429W        W 8823  27.126  19.157  11.546
40430W        W 8824  38.109   9.775   3.875
40431W        W 8825  27.081  20.044  12.143
40432W        W 8826   3.157   4.325   2.657
40433W        W 8827  39.415  26.591  13.621
40434W        W 8828   9.805  33.427  13.481
40435W        W 8829  37.698   2.374  14.170
40436W        W 8830  10.831  41.098   1.853
40437W        W 8831  13.591  21.399   3.853
40438W        W 8832   3.262   8.366   3.667
40439W        W 8833  15.843  28.630   2.759
40440W        W 8834  37.942  39.517  11.601
40441W        W 8835  44.488   4.474   1.351
40442W        W 8836  35.891  10.288  14.474
40443W        W 8837  12.273  22.796   1.003
40444W        W 8838  28.490  21.100   1.838
40445W        W 8839  17.672  27.754  14.355
40446W        W 8840  35.761  37.460  12.602
40447W        W 8841  26.967  36.586   0.706
40448W        W 8842  20.194   3.974  13.380
40449W        W 8843  32.575  32.374  12.052
40450W        W 8844  36.072  23.374  14.781
40451W        W 8845  26.415   2.422   3.962
40452W        W 8846  40.896  39.906  12.595
40453W        W 8847  39.563  43.941   2.698
40454W        W 8848   5.749  19.486  12.865
40455W        W 8849  11.719  22.352  14.890
40456W        W 8850   3.437   6.293   0.665
40457W        W 8851  33.780  23.340  14.556
40458W        W 8852  33.364  23.767   1.933
40459W        W 8853  11.444  18.695   2.281
40460W        W 8854  13.837  36.438   0.273
40461W        W 8855   3.927  18.364  10.673
40462W        W 8856  40.900  15.039   4.440
40463W        W 8857  37.456  20.655   3.077
40464W        W 8858  10.628  39.897  11.396
40465W        W 8859  11.777   1.900  11.162
40466W        W 8860  18.048   1.903  14.803
40467W        W 8861  16.642  21.591  14.096
40468W        W 8862  12.035  44.178   4.208
40469W        W 8863  29.723  17.289   3.141
40470W        W 8864   5.801  29.049   4.743
40471W        W 8865  13.109  21.496  11.599
40472W        W 8866  29.675  10.580  10.617
40473W        W 8867  40.828  39.449   1.819
40474W        W 8868   2.451  30.687   2.181
40475W        W 8869  22.283  34.111   3.198
40476W        W 8870  12.134  38.830   4.829
40477W        W 8871  40.028  42.353   4.331
40478W        W 8872   5.238  27.222  13.022
40479W        W 8873  16.574  14.839   3.945
40480W        W 8874  32.149   4.308   3.860
40481W        W 8875  39.220   6.733  11.924
40482W        W 8876  16.581  18.332   5.484
40483W        W 8877  23.570  14.071   0.266
40484W        W 8878  25.542   1.888   1.769
40485W        W 8879  41.174  19.209   5.044
40486W        W 8880  23.516   5.303   4.228
40487W        W 8881  27.255  38.901   4.582
40488W        W 8882  10.473  29.616  12.507
40489W        W 8883   0.487  22.519  12.484
40490W        W 8884  17.779  33.449  12.615
40491W        W 8885   1.398  40.367   2.303
40492W        W 8886  44.394  38.899  14.613
40493W        W 8887  21.870   2.823   2.261
40494W        W 8888  42.740   9.592  11.974
40495W        W 8889  43.321   7.986  13.768
40496W        W 8890  43.387  22.637   2.159
40497W        W 8891  21.035  17.655  14.735
40498W        W 8892  29.128  20.282  12.117
40499W        W 8893  38.098  40.014  11.570
40500W        W 8894  43.469  21.472   1.183
40501W        W 8895  12.251  19.982   3.743
40502W        W 8896   3.306  28.735  12.989
40503W        W 8897  27.070   9.840   5.352
40504W        W 8898  30.461  20.212   4.663
40505W        W 8899  15.879  10.323   4.130
40506W        W 8900  24.532  28.635  13.418
40507W        W 8901   6.375  25.882  11.232
40508W        W 8902   1.400   6.220  11.369
40509W        W 8903  26.137  17.130   2.402
40510W        W 8904  33.524  28.548  13.165
40511W        W 8905   0.934  13.390  10.643
40512W        W 8906  28.463  24.179   1.661
40513W        W 8907  36.748  10.628  12.060
40514W        W 8908  27.255   2.592   3.512
40515W        W 8909  17.927  29.311   1.249
40516W        W 8910  16.518   0.826   3.799
40517W        W 8911  15.745  10.707  10.537
40518W        W 8912  35.131   7.802   0.889
40519W        W 8913  13.730   9.144  14.585
40520W        W 8914  40.412  17.155  10.704
40521W        W 8915   1.920  21.458  11.294
40522W        W 8916   3.283  35.518   0.801
40523W        W 8917  24.760  24.770  12.009
40524W        W 8918   3.291  20.573   0.408
40525W        W 8919  12.178  21.681   3.603
40526W        W 8920   7.741  40.552   3.706
40527W        W 8921  32.621  29.384   2.420
40528W        W 8922  35.362   8.904   1.291
40529W        W 8923  37.604  35.616   4.270
40530W        W 8924  24.586   3.279   3.184
40531W        W 8925   2.404  15.313  13.392
40532W        W 8926  41.882  24.867   2.423
40533W        W 8927  15.392  31.538   2.167
40534W        W 8928  42.268  35.263   3.766
40535W        W 8929   7.055  11.478  12.417
40536W        W 8930  17.312  11.904   3.689
40537W        W 8931  23.713  37.374  10.558
40538W        W 8932  33.070  43.433   2.266
40539W        W 8933  21.511  18.022  11.882
40540W        W 8934   6.420   6.322  12.349
40541W        W 8935   4.559  20.549   4.236
40542W        W 8936  40.291   4.868  11.579
40543W        W 8937  41.299   5.869   1.662
40544W        W 8938  21.933  42.824  11.378
40545W        W 8939   5.202   8.131   2.828
40546W        W 8940  28.169  36.956   9.961
40547W        W 8941   3.240  27.158   0.855
40548W        W 8942  11.615  10.863   1.478
40549W        W 8943  35.094  13.310  10.691
40550W        W 8944  36.786   8.168  12.065
40551W        W 8945  30.043  38.094   4.446
40552W        W 8946   4.338  43.806   2.799
40553W        W 8947  44.405  34.035  14.457
40554W        W 8948  35.182  22.213  12.737
40555W        W 8949   1.987  26.460  13.919
40556W        W 8950   9.802   5.228   4.956
40557W        W 8951  33.043  25.033  13.308
40558W        W 8952   7.881  11.601   0.061
40559W        W 8953   5.407  20.991  12.448
40560W        W 8954  22.499   1.407  13.179
40561W        W 8955   4.276  27.190  11.350
40562W        W 8956  39.860  27.032   4.627
40563W        W 8957   5.232  31.153  14.793
40564W        W 8958  16.577  12.035   2.191
40565W        W 8959  44.421  36.149  14.554
40566W        W 8960  39.954  44.404  12.753
40567W        W 8961  21.293  43.505  10.673
40568W        W 8962  20.908  15.228  11.117
40569W        W 8963  20.051  35.000  11.917
40570W        W 8964  36.456  35.605  10.727
40571W        W 8965   4.618   4.090   3.169
40572W        W 8966   7.141   2.788  11.243
40573W        W 8967   3.543   6.482  13.504
40574W        W 8968  37.565  12.300   0.761
40575W        W 8969   0.978   7.116  12.623
40576W        W 8970  17.278  24.812  12.307
40577W        W 8971   3.875  42.499   2.363
40578W        W 8972  25.248  39.905  12.050
40579W        W 8973  29.498  35.583  14.100
40580W        W 8974  12.416  28.047   0.324
40581W        W 8975  15.138  10.918   1.247
40582W        W 8976  40.292   3.113  12.539
40583W        W 8977  29.448  13.857   4.236
40584W        W 8978   3.943  14.715   0.062
40585W        W 8979   6.611   1.020   9.961
40586W        W 8980  29.141  29.657   1.117
40587W        W 8981   4.143   8.012   4.253
40588W        W 8982  22.186  25.125  13.716
40589W        W 8983  16.827  14.669   4.366
40590W        W 8984   3.512  33.324  13.896
40591W        W 8985   2.568  30.147  11.397
40592W        W 8986  16.122  16.785   0.877
40593W        W 8987  34.688   6.723   1.570
40594W        W 8988  33.374  40.736   3.898
40595W        W 8989  18.349  40.964  12.977
40596W        W 8990  36.420  12.599  10.546
40597W        W 8991  29.674  27.167   4.077
40598W        W 8992  22.004   4.939  12.475
40599W        W 8993  15.184  26.165  14.881
40600W        W 8994  44.337  16.872   0.337
40601W        W 8995  35.693  23.058  14.991
40602W        W 8996   1.492  18.014  13.003
40603W        W 8997  27.966  33.570  13.882
40604W        W 8998  25.881  24.154  10.733
40605W        W 8999  38.835  23.248   9.978
40606W        W 9000  31.607   3.341   1.164
40607W        W 9001  17.042   1.819   0.565
40608W        W 9002  24.130   6.027   0.974
40609W        W 9003  14.754  13.382  13.870
40610W        W 9004  24.161  21.081  10.790
40611W        W 9005  21.434  33.613   0.371
40612W        W 9006  27.720  41.859  10.508
40613W        W 9007  28.870  25.644   4.113
40614W        W 9008  22.212  26.948  11.441
40615W        W 9009  40.122  22.073   0.900
40616W        W 9010  19.577  14.855  10.409
40617W        W 9011  34.310  44.295  11.622
40618W        W 9012  16.346   8.840  13.474
40619W        W 9013  35.012  10.287  12.155
40620W        W 9014   1.333   3.682   4.715
40621W        W 9015  39.324  22.605   1.162
40622W        W 9016  29.484  22.156  12.854
40623W        W 9017  23.705  38.997   0.794
40624W        W 9018  44.997  41.931   2.391
40625W        W 9019  33.393   9.294  11.031
40626W        W 9020   7.233  15.732   4.418
40627W        W 9021  27.711  33.691   4.640
40628W        W 9022  38.421  27.577  13.077
40629W        W 9023   4.281  15.249   1.967
40630W        W 9024  20.381  28.127  12.916
40631W        W 9025  37.581  32.984   3.714
40632W        W 9026  37.139   7.238  12.921
40633W        W 9027  26.759  37.554   1.416
40634W        W 9028  23.046  40.508  13.372
40635W        W 9029  11.882  20.796   2.831
40636W        W 9030   1.376  23.582  12.534
40637W        W 9031  31.080  35.941  12.441
40638W        W 9032  37.465   3.146   1.740
40639W        W 9033  10.314  44.291   9.778
40640W        W 9034  17.040   5.238   1.299
40641W        W 9035   5.176  40.536   4.871
40642W        W 9036  35.607  15.093  14.321
40643W        W 9037  40.284   5.140  12.404
40644W        W 9038  22.577  27.095   0.807
40645W        W 9039  17.332   1.489  14.268
40646W        W 9040  26.178  35.083   4.828
40647W        W 9041  39.794  37.552   3.257
40648W        W 9042  39.114  37.777   2.342
40649W        W 9043  39.799  17.322  12.081
40650W        W 9044  26.568  28.917  14.344
40651W        W 9045  19.630  44.887  10.803
40652W        W 9046  31.067  19.287  14.979
40653W        W 9047   2.379  19.065   1.216
40654W        W 9048   4.851  16.795   1.236
40655W        W 9049  34.130  29.517   1.194
40656W        W 9050  13.394  10.179  10.777
40657W        W 9051  22.267  38.999  14.457
40658W        W 9052  33.502   1.326  12.909
40659W        W 9053  24.859  39.674  13.733
40660W        W 9054  38.987  30.699   1.456
40661W        W 9055  28.751   7.713   0.879
40662W        W 9056  37.995  18.656  14.138
40663W        W 9057   9.945   2.570  13.433
40664W        W 9058  25.731   5.969   2.828
40665W        W 9059  20.727   8.374  13.301
40666W        W 9060  35.705   4.431  11.531
40667W        W 9061  35.160   4.341   4.825
40668W        W 9062  31.668   9.983   4.110
40669W        W 9063   1.421  21.214  12.981
40670W        W 9064  30.479   5.971  11.082
40671W        W 9065  12.906  19.140  14.300
40672W        W 9066   4.352   0.936   2.868
40673W        W 9067  19.720  44.205  12.975
40674W        W 9068  24.103   6.340  14.263
40675W        W 9069  28.256   8.379   3.211
40676W        W 9070   3.885  13.132   0.827
40677W        W 9071  29.750   0.246  12.533
40678W        W 9072  25.283  36.268  13.840
40679W        W 9073   7.777  41.408   0.520
40680W        W 9074  28.178  40.079  13.449
40681W        W 9075  32.392  20.913  14.724
40682W        W 9076  29.979   9.460  13.927
40683W        W 9077  44.093  44.359  10.100
40684W        W 9078  25.401   4.583   0.440
40685W        W 9079  36.017   2.809  10.581
40686W        W 9080  18.348   8.182   4.108
40687W        W 9081  19.831   7.773  12.410
40688W        W 9082   3.818   4.662  11.996
40689W        W 9083  30.362  26.185  14.958
40690W        W 9084  37.458  25.064  12.392
40691W        W 9085  43.811  41.605  13.491
40692W        W 9086  34.160  39.897   1.182
40693W        W 9087  24.630  19.449   1.688
40694W        W 9088  38.090  11.787   3.790
40695W        W 9089   6.019  28.120   0.967
40696W        W 9090  31.116  18.594   2.178
40697W        W 9091   7.460  38.373   0.306
40698W        W 9092  36.387  24.933   4.102
40699W        W 9093   9.757  44.760   2.175
40700W        W 9094  41.394   0.318  14.411
40701W        W 9095  36.589  31.103   1.893
40702W        W 9096  43.380  31.973   4.203
40703W        W 9097  22.557  36.239   0.245
40704W        W 9098  41.859  27.221  13.929
40705W        W 9099  35.330  36.280  14.614
40706W        W 9100  15.476  44.203  12.711
40707W        W 9101  43.497  31.716   2.868
40708W        W 9102  21.112  26.627  14.904
40709W        W 9103  10.941  44.507   0.897
40710W        W 9104  21.431   5.393   3.169
40711W        W 9105  37.430  34.562   5.001
40712W        W 9106   8.242  22.004   1.677
40713W        W 9107  35.595  42.205  12.411
40714W        W 9108  32.922  38.571   0.705
40715W        W 9109  12.149  40.374  13.308
40716W        W 9110   6.997   1.807   3.594
40717W        W 9111  40.425  25.096  12.456
40718W        W 9112  11.206  40.253  13.918
40719W        W 9113   2.277  26.749  12.586
40720W        W 9114  29.054   2.892   3.104
40721W        W 9115  16.706   7.187   4.161
40722W        W 9116  12.712  19.157   0.746
40723W        W 9117   8.420  23.619   3.613
40724W        W 9118   4.753  17.402  14.092
40725W        W 9119  14.812  21.499   2.188
40726W        W 9120  14.941  38.776   2.699
40727W        W 9121  34.856  10.504  12.610
40728W        W 9122  10.250  10.793  11.584
40729W        W 9123  23.778  19.110   2.682
40730W        W 9124  41.265   6.846  11.854
40731W        W 9125  20.665  13.418  14.248
40732W        W 9126  42.783  10.691  10.814
40733W        W 9127  39.416   8.795   4.593
40734W        W 9128  17.735  41.098  10.351
40735W        W 9129   0.317  35.016   0.201
40736W        W 9130   1.214  28.389  11.031
40737W        W 9131  42.878  26.008  12.915
40738W        W 9132   0.522  13.129  10.420
40739W        W 9133  38.969  34.174   3.079
40740W        W 9134   0.421   0.277   1.711
40741W        W 9135  38.490  44.738   1.399
40742W        W 9136  21.445  17.185   0.357
40743W        W 9137  20.844  41.163   0.904
40744W        W 9138  34.708  21.580   2.637
40745W        W 9139  44.957   7.291   4.441
40746W        W 9140  10.826  32.529  13.891
40747W        W 9141   0.818   0.805   4.318
40748W        W 9142  13.675  11.641  14.096
40749W        W 9143  35.448  28.515  10.559
40750W        W 9144  10.192  10.721   2.283
40751W        W 9145   2.278  29.465  13.453
40752W        W 9146  24.734  13.139  13.932
40753W        W 9147   7.982  22.584   0.831
40754W        W 9148  16.289  20.945  13.319
40755W        W 9149  42.755  16.631  10.664
40756W        W 9150  13.999  20.053   0.487
40757W        W 9151  40.616   8.212   0.479
40758W        W 9152  32.280  16.278  13.445
40759W        W 9153  30.859  14.348  12.529
40760W        W 9154  39.314   9.172   3.746
40761W        W 9155  38.944   5.798  13.092
40762W        W 9156  40.141  13.700   3.582
40763W        W 9157  43.352  36.404   3.997
40764W        W 9158   7.699   7.886   1.479
40765W        W 9159   9.473  23.297   2.796
40766W        W 9160  18.000   5.718  12.242
40767W        W 9161   5.731  15.542   0.901
40768W        W 9162  28.461  31.117  12.072
40769W        W 9163   6.422  27.872   4.514
40770W        W 9164   5.324   0.382   1.354
40771W        W 9165  26.739  28.827   1.804
40772W        W 9166   8.231  26.963  10.650
40773W        W 9167  34.563  18.076  12.683
40774W        W 9168  24.306  17.797   0.722
40775W        W 9169  33.393  40.438   2.634
40776W        W 9170   9.018  30.639  13.650
40777W        W 9171  30.459  44.097  14.506
40778W        W 9172  11.829   7.340   1.955
40779W        W 9173  42.322   9.894  13.783
40780W        W 9174  21.060  29.342   4.359
40781W        W 9175  41.861  36.914   0.980
40782W        W 9176  42.944  44.495  12.433
40783W        W 9177  19.958  34.020  11.982
40784W        W 9178  42.042  25.750   1.411
40785W        W 9179   4.815  30.579  13.026
40786W        W 9180  36.090  40.530   4.432
40787W        W 9181   3.390  13.411  14.828
40788W        W 9182  11.577  36.593   3.321
40789W        W 9183  25.141  40.427   4.709
40790W        W 9184  27.584  37.497   4.146
40791W        W 9185  37.508  15.273   4.547
40792W        W 9186  25.142  28.588  11.614
40793W        W 9187  12.064  22.184  13.300
40794W        W 9188  40.563  14.747  10.743
40795W        W 9189   6.985  30.313   3.188
40796W        W 9190   8.297  35.011  10.845
40797W        W 9191  35.386  16.258   1.908
40798W        W 9192   0.560  28.108   2.701
40799W        W 9193  15.754  30.064  13.336
40800W        W 9194  30.605  37.109  10.848
40801W        W 9195   6.813  15.873   4.071
40802W        W 9196  32.227  20.725   3.764
40803W        W 9197  19.694  37.793  12.482
40804W        W 9198  19.485  34.036   3.541
40805W        W 9199  19.615  37.835   3.133
40806W        W 9200  35.477  20.825  14.853
40807W        W 9201  19.590   5.688  12.254
40808W        W 9202  29.958  28.454   1.333
40809W        W 9203   2.373   8.139  13.477
40810W        W 9204  26.520  13.522  10.774
40811W        W 9205   5.007  16.994   1.924
40812W        W 9206  16.524  19.215  11.653
40813W        W 9207   5.668  36.856   3.034
40814W        W 9208  34.827  12.020  13.504
40815W        W 9209  42.697   9.001  10.189
40816W        W 9210  33.400   8.320   0.856
40817W        W 9211  10.109  35.903  12.608
40818W        W 9212  43.505  42.273  13.121
40819W        W 9213   0.441  41.893  11.579
40820W        W 9214  12.939  37.990   1.021
40821W        W 9215   9.099  16.263  11.803
40822W        W 9216  28.995  27.025  12.466
40823W        W 9217  30.700  34.057  11.585
40824W        W 9218  18.143  10.696   2.409
40825W        W 9219  32.903  44.255   0.804
40826W        W 9220   7.225  34.447   1.789
40827W        W 9221  31.530  36.374  13.103
40828W        W 9222  30.981   5.993   4.592
40829W        W 9223  28.545  16.580   3.503
40830W        W 9224  20.034  35.620  14.527
40831W        W 9225   3.422  23.638   3.128
40832W        W 9226  17.014  14.532   3.864
40833W        W 9227  44.232  26.039  10.554
40834W        W 9228  24.394  30.229   0.547
40835W        W 9229  25.421  28.957   1.822
40836W        W 9230  22.061  10.347  12.434
40837W        W 9231  24.669  29.555   2.205
40838W        W 9232   7.503  15.175  13.503
40839W        W 9233  10.553  20.157   1.900
40840W        W 9234  19.621  42.350   2.310
40841W        W 9235  28.520   6.456   3.542
40842W        W 9236  43.803  32.606   0.794
40843W        W 9237  12.767  20.001  11.109
40844W        W 9238   8.054  35.959  13.955
40845W        W 9239  28.946  28.108   1.689
40846W        W 9240  32.993  32.305   1.921
40847W        W 9241  26.587  40.880  14.574
40848W        W 9242  36.355  37.586  10.782
40849W        W 9243  38.319   0.340  12.463
40850W        W 9244  44.319  16.649  14.870
40851W        W 9245   0.844   2.235   0.478
40852W        W 9246  33.519  25.239   2.245
40853W        W 9247  14.799  33.693   4.685
40854W        W 9248  44.508  10.295   3.276
40855W        W 9249  36.547  24.548   3.425
40856W        W 9250  44.446  11.620  12.090
40857W        W 9251  33.704  12.735  11.941
40858W        W 9252  44.576  11.229   1.703
40859W        W 9253   7.178  32.341   1.939
40860W        W 9254  18.275  16.550  10.755
40861W        W 9255  36.470   5.341   4.599
40862W        W 9256  18.661  25.762  13.417
40863W        W 9257  33.813   8.618  13.552
40864W        W 9258  30.581   9.312  14.634
40865W        W 9259  11.373  39.358  10.473
40866W        W 9260  27.540  43.291  13.857
40867W        W 9261   2.389  19.331   4.700
40868W        W 9262   0.402  15.124  13.886
40869W        W 9263  27.635  39.599   0.176
40870W        W 9264  12.396   0.510   4.118
40871W        W 9265  26.165  40.952  10.916
40872W        W 9266  25.197   9.718   3.642
40873W        W 9267  29.958  39.063   0.285
40874W        W 9268   5.835   6.936   4.547
40875W        W 9269  43.003  21.297   1.372
40876W        W 9270  14.746  43.349   0.469
40877W        W 9271  37.487  23.168   2.938
40878W        W 9272  34.904   6.802   0.085
40879W        W 9273  10.436  39.292   3.182
40880W        W 9274  12.123  24.710   1.402
40881W        W 9275  34.064  14.741   1.636
40882W        W 9276  30.680  40.434   4.188
40883W        W 9277  36.384   2.298   3.203
40884W        W 9278  43.899  42.513   1.392
40885W        W 9279  16.075  39.500   0.659
40886W        W 9280  23.349  25.576  14.903
40887W        W 9281  22.054   3.172   0.271
40888W        W 9282  15.174  40.567  11.143
40889W        W 9283  15.303  18.092   0.742
40890W        W 9284  20.746  22.707  10.945
40891W        W 9285  10.115  30.506  12.607
40892W        W 9286  14.318  30.587   0.504
40893W        W 9287   0.019  22.931   0.802
40894W        W 9288  22.958  29.412  11.194
40895W        W 9289  18.164  32.162  12.095
40896W        W 9290  21.654  44.428  10.559
40897W        W 9291  14.561  40.013   1.326
40898W        W 9292  43.491  23.690  11.044
40899W        W 9293   0.924  17.254  12.150
40900W        W 9294   6.761  21.651  12.622
40901W        W 9295  27.275  18.247  14.331
40902W        W 9296  28.918   3.215   1.013
40903W        W 9297  24.095  24.961  10.994
40904W        W 9298  10.197  21.300  12.536
40905W        W 9299  33.182  31.568  13.456
40906W        W 9300  30.147  12.895   3.845
40907W        W 9301   1.795  16.798   0.204
40908W        W 9302   0.317  33.104  12.444
40909W        W 9303  10.897  19.121   0.893
40910W        W 9304  14.231  25.458  13.907
40911W        W 9305  35.135  20.439  14.772
40912W        W 9306  25.504  21.703  13.465
40913W        W 9307  35.469  29.606  10.796
40914W        W 9308  41.394  44.502   2.837
40915W        W 9309   1.245  18.717  12.136
40916W        W 9310   2.481   0.906   2.689
40917W        W 9311   6.705  40.271  13.329
40918W        W 9312   5.344  38.153   0.309
40919W        W 9313  44.678  11.090  10.622
40920W        W 9314  37.711  22.912   3.307
40921W        W 9315  30.025  12.362  10.712
40922W        W 9316   2.449  16.767   4.489
40923W        W 9317  25.843  13.161  12.522
40924W        W 9318  17.172   4.218  13.920
40925W        W 9319   7.254  34.071   4.386
40926W        W 9320   5.685  18.621   0.977
40927W        W 9321  13.818   5.269   1.667
40928W        W 9322  35.620  12.141  11.050
40929W        W 9323  40.569  26.656   2.502
40930W        W 9324  42.434  17.779  10.398
40931W        W 9325  27.305  16.771   1.340
40932W        W 9326  31.448  32.486  12.949
40933W        W 9327   4.516  27.074   1.421
40934W        W 9328  39.026  13.870  13.865
40935W        W 9329  11.872   4.305  14.384
40936W        W 9330  23.635  38.406   4.742
40937W        W 9331  11.877   8.402  13.367
40938W        W 9332  44.213  36.933  11.915
40939W        W 9333   0.224  13.822   0.819
40940W        W 9334  43.628  19.556   0.885
40941W        W 9335   2.353  27.145  13.517
40942W        W 9336  32.044   5.602  11.551
40943W        W 9337  31.023  34.378  12.074
40944W        W 9338  34.196  28.187   4.651
40945W        W 9339   0.819  13.526  12.462
40946W        W 9340  23.421   7.605  13.427
40947W        W 9341   2.215  36.029  12.069
40948W        W 9342  20.730  28.721   1.584
40949W        W 9343   1.131   8.880  10.653
40950W        W 9344  31.980   6.435  13.597
40951W        W 9345  10.583  31.705   4.155
40952W        W 9346  23.608  14.173   0.797
40953W        W 9347  39.843  31.566   5.016
40954W        W 9348  18.324  20.078   4.244
40955W        W 9349  22.206   6.653   2.849
40956W        W 9350  43.570  43.817  11.988
40957W        W 9351  40.081  17.242  14.003
40958W        W 9352  34.442  16.656   4.661
40959W        W 9353  30.635  20.212   1.968
40960W        W 9354  44.309  14.511  13.421
40961W        W 9355  44.599  14.293  12.205
40962W        W 9356   1.098  27.919  11.168
40963W        W 9357  22.525  12.832   2.221
40964W        W 9358  33.155  30.668   3.915
40965W        W 9359   3.929  38.884  12.944
40966W        W 9360  28.211  37.736  14.725
40967W        W 9361  12.860   2.272   2.961
40968W        W 9362  24.816  10.396  14.289
40969W        W 9363  23.496  17.031  14.081
40970W        W 9364  11.330   2.415  13.578
40971W        W 9365  14.328  42.108   4.015
40972W        W 9366  14.375   5.253  10.704
40973W        W 9367  31.492  38.908  13.504
40974W        W 9368   3.269  16.294  11.492
40975W        W 9369   8.846  31.123  12.623
40976W        W 9370  24.370  44.421  10.063
40977W        W 9371  37.900  23.000   2.669
40978W        W 9372  16.100  10.984  13.923
40979W        W 9373  29.622  34.991   1.946
40980W        W 9374  35.299  13.311  12.349
40981W        W 9375  29.577  32.570   2.451
40982W        W 9376  19.433  20.631   0.512
40983W        W 9377   1.379  11.472   2.196
40984W        W 9378  27.590  25.046  14.918
40985W        W 9379  17.693  27.080  12.788
40986W        W 9380  21.411  40.317  12.074
40987W        W 9381   5.466  19.851   0.318
40988W        W 9382  27.455  35.821  11.040
40989W        W 9383   0.569  32.494  10.784
40990W        W 9384  15.901  41.847  12.095
40991W        W 9385  21.360   9.433  14.235
40992W        W 9386  28.473   7.498  13.918
40993W        W 9387  40.031  30.882   1.332
40994W        W 9388  20.107   7.704   2.869
40995W        W 9389  30.690  28.482  14.633
40996W        W 9390  17.549  33.110   0.234
40997W        W 9391  27.724   9.865  14.855
40998W        W 9392   8.425  31.985   4.619
40999W        W 9393  23.598   4.461  11.971
41000W        W 9394  21.522  21.490   1.272
41001W        W 9395   6.853  10.424  11.648
41002W        W 9396   9.905   1.885   3.306
41003W        W 9397  11.061  30.789   1.186
41004W        W 9398  10.685  35.089   2.228
41005W        W 9399  26.442   4.475  11.199
41006W        W 9400  41.573  38.135   1.694
41007W        W 9401   5.644  34.020   0.741
41008W        W 9402  38.920  36.719   1.611
41009W        W 9403  24.965  23.255   2.578
41010W        W 9404  31.945  21.677  13.150
41011W        W 9405  38.348   9.233  12.846
41012W        W 9406  13.784   4.039  14.837
41013W        W 9407  18.157  43.797   4.513
41014W        W 9408  40.019   3.908  14.340
41015W        W 9409  11.579  29.685  11.223
41016W        W 9410  39.001  44.022   0.428
41017W        W 9411  30.432  10.760  12.833
41018W        W 9412  20.102   6.666  13.961
41019W        W 9413  10.228  27.114  11.001
41020W        W 9414  44.290   7.954   1.908
41021W        W 9415  10.829  33.964  14.757
41022W        W 9416  30.310  23.653  14.325
41023W        W 9417  27.196  29.117  14.737
41024W        W 9418  28.972  21.130   1.175
41025W        W 9419  24.464   6.917  13.509
41026W        W 9420  16.296   5.331   2.707
41027W        W 9421  38.331  41.853   3.826
41028W        W 9422   5.291   7.765   1.385
41029W        W 9423  15.215  25.503   1.217
41030W        W 9424  27.902   2.728  12.268
41031W        W 9425  44.140  14.974  12.679
41032W        W 9426   1.399  26.070  11.377
41033W        W 9427  21.258   9.738  11.041
41034W        W 9428  35.031   9.474  12.587
41035W        W 9429  22.681   9.693   0.358
41036W        W 9430  15.814   0.559   0.933
41037W        W 9431   8.218  39.083   1.108
41038W        W 9432   1.481  35.642   4.178
41039W        W 9433  22.688  43.541   0.530
41040W        W 9434  16.030  24.586  12.954
41041W        W 9435   4.471   6.042   2.472
41042W        W 9436  17.842  38.138  11.614
41043W        W 9437  16.710  20.509  13.295
41044W        W 9438   4.523  41.356   5.062
41045W        W 9439   8.943   2.805  14.433
41046W        W 9440   3.316  19.818   3.784
41047W        W 9441  17.322  42.964  10.611
41048W        W 9442   9.612   9.223  12.268
41049W        W 9443  15.419   7.777  14.255
41050W        W 9444  18.392  10.005   4.075
41051W        W 9445  30.522  30.549   1.751
41052W        W 9446  31.071  40.549   3.858
41053W        W 9447  36.824  16.414   1.586
41054W        W 9448   5.201   7.078   3.837
41055W        W 9449  15.616  27.514  11.730
41056W        W 9450  24.441  38.465   4.383
41057W        W 9451  31.967   1.940   2.912
41058W        W 9452   4.452  44.862  13.384
41059W        W 9453  26.449  13.170  14.875
41060W        W 9454  12.651  29.735  13.430
41061W        W 9455  44.931  19.604  10.656
41062W        W 9456  21.254  25.644   1.760
41063W        W 9457   0.328  21.888  13.626
41064W        W 9458  44.948  12.247  12.487
41065W        W 9459  34.672  42.825  13.429
41066W        W 9460  36.358  34.506   4.621
41067W        W 9461  24.525   1.010   0.448
41068W        W 9462  11.182  37.448  12.429
41069W        W 9463   1.293   7.845   1.721
41070W        W 9464   0.495  31.547  12.175
41071W        W 9465   5.768  33.218   3.595
41072W        W 9466   6.900  33.425  13.847
41073W        W 9467   9.968  13.263  10.511
41074W        W 9468  20.135  13.326   2.344
41075W        W 9469   4.665   4.593  10.292
41076W        W 9470   2.826  15.371   4.632
41077W        W 9471   7.953  10.436  11.569
41078W        W 9472  40.005  34.545   1.857
41079W        W 9473  28.905  27.502  12.157
41080W        W 9474   6.540   5.936  11.522
41081W        W 9475  39.078  38.493  13.059
41082W        W 9476  31.592  33.797   3.232
41083W        W 9477  20.065   9.528   0.484
41084W        W 9478   2.942  33.650  12.102
41085W        W 9479   5.217  17.546  13.817
41086W        W 9480  41.083  18.834  12.403
41087W        W 9481  40.759   7.436  12.533
41088W        W 9482  29.622   0.916  12.230
41089W        W 9483  31.557  36.479   4.201
41090W        W 9484  10.225   0.884   0.601
41091W        W 9485  33.662   3.943  12.292
41092W        W 9486  39.555  40.551   4.875
41093W        W 9487  38.416  44.797  10.728
41094W        W 9488  30.402  14.586  12.529
41095W        W 9489  22.748  36.394  10.827
41096W        W 9490   4.730  39.387   4.383
41097W        W 9491   9.878   8.830  12.463
41098W        W 9492  24.547  14.357  12.438
41099W        W 9493  25.202  41.051   1.320
41100W        W 9494   5.830  41.201  11.084
41101W        W 9495  16.530   1.215   4.587
41102W        W 9496  39.334  29.898   3.238
41103W        W 9497  22.986   0.043   2.448
41104W        W 9498   5.975  14.788  11.253
41105W        W 9499  37.814   1.119  11.964
41106W        W 9500  36.069   7.849  14.884
41107W        W 9501  24.960  13.293   1.959
41108W        W 9502   6.682  31.582   1.158
41109W        W 9503  12.724   4.997  13.383
41110W        W 9504  40.166  42.994  11.508
41111W        W 9505  29.919  22.732  14.204
41112W        W 9506   8.342  41.753   1.140
41113W        W 9507   5.449   8.300  12.981
41114W        W 9508  40.579  42.916   0.965
41115W        W 9509  21.237  39.839   4.108
41116W        W 9510  27.547  41.190   2.098
41117W        W 9511  30.284  43.460   3.984
41118W        W 9512   5.422   7.292   4.300
41119W        W 9513  28.817  19.575  13.000
41120W        W 9514   2.469   9.272   4.742
41121W        W 9515  26.057  22.259  12.777
41122W        W 9516   2.830  11.704  13.926
41123W        W 9517  21.610  21.176   3.858
41124W        W 9518  16.521  16.764   2.180
41125W        W 9519   3.732  30.017  13.374
41126W        W 9520  24.079  14.612  14.537
41127W        W 9521  27.422  26.660   3.256
41128W        W 9522   6.687  40.319  11.430
41129W        W 9523   6.645  20.987   3.673
41130W        W 9524   8.427  28.931   0.358
41131W        W 9525  37.419  44.529   5.138
41132W        W 9526  21.186  18.992   4.094
41133W        W 9527  26.763  36.484   2.832
41134W        W 9528  28.111   2.857  11.711
41135W        W 9529   4.659  23.040   3.526
41136W        W 9530  22.577   8.190  13.004
41137W        W 9531  17.750  30.010  12.053
41138W        W 9532  27.752   9.863  13.072
41139W        W 9533  31.665   5.516  13.286
41140W        W 9534  23.969  25.985   5.039
41141W        W 9535  27.061   3.655   0.644
41142W        W 9536  13.284  34.830   3.474
41143W        W 9537  31.973  37.693   4.157
41144W        W 9538   6.275  19.511  11.851
41145W        W 9539  44.562  42.063   4.957
41146W        W 9540  41.018  39.967  11.357
41147W        W 9541  27.099  15.409  11.599
41148W        W 9542  27.735   9.320   1.705
41149W        W 9543  37.927   1.761  10.201
41150W        W 9544  10.869  33.500   1.763
41151W        W 9545  15.033  42.269   3.374
41152W        W 9546  10.283  16.824  11.931
41153W        W 9547  18.151   5.844   4.075
41154W        W 9548  20.968   3.721  10.647
41155W        W 9549  40.873  17.493   1.683
41156W        W 9550   8.346  10.128  14.361
41157W        W 9551  17.771  16.591   1.332
41158W        W 9552  24.229   1.450  12.212
41159W        W 9553  24.087  27.220  13.792
41160W        W 9554  41.539   3.275   4.156
41161W        W 9555  42.845  13.896   3.333
41162W        W 9556  42.451  32.881  10.745
41163W        W 9557   9.177  34.560  11.664
41164W        W 9558  35.981  40.505  11.979
41165W        W 9559  28.090  15.040   4.688
41166W        W 9560  13.869  24.541   3.288
41167W        W 9561  21.799  18.624   1.827
41168W        W 9562  16.673  29.714  12.535
41169W        W 9563   0.289  40.748   2.684
41170W        W 9564   6.580   3.324   1.307
41171W        W 9565  38.222  24.263   2.156
41172W        W 9566  32.218  22.190  11.990
41173W        W 9567  24.604  20.117   2.301
41174W        W 9568  41.605  42.159  11.996
41175W        W 9569   4.733   2.725   2.307
41176W        W 9570  29.611  20.215  12.019
41177W        W 9571   3.497  30.950   4.508
41178W        W 9572  44.257  42.889   4.106
41179W        W 9573   2.188  11.637   5.071
41180W        W 9574  40.377  14.826  11.600
41181W        W 9575  37.796   8.876   1.121
41182W        W 9576   6.807  36.351  12.514
41183W        W 9577  16.129  23.732   3.345
41184W        W 9578  13.090   0.258   1.338
41185W        W 9579  43.359  23.147  11.201
41186W        W 9580   0.236  18.220   3.353
41187W        W 9581  21.220  36.393   0.283
41188W        W 9582   0.874  17.736   2.652
41189W        W 9583  26.879  11.360   1.313
41190W        W 9584  39.250   1.023   2.764
41191W        W 9585  33.360  32.063  10.986
41192W        W 9586   5.053  44.921  14.211
41193W        W 9587  40.429  41.698   2.741
41194W        W 9588  35.567  20.511  13.032
41195W        W 9589  35.004  20.722   0.592
41196W        W 9590  25.517   2.294  13.986
41197W        W 9591   1.355  34.881   2.389
41198W        W 9592  19.074  27.415   0.303
41199W        W 9593  35.915  39.609  14.774
41200W        W 9594  32.038  11.135   1.160
41201W        W 9595  24.285  24.753   3.802
41202W        W 9596  12.727  29.675   2.789
41203W        W 9597  22.971  28.409  13.823
41204W        W 9598  26.067  43.485   2.175
41205W        W 9599   5.680  10.720  11.540
41206W        W 9600  16.731  43.551  14.190
41207W        W 9601  35.455   3.750   3.716
41208W        W 9602  29.102  22.072  11.966
41209W        W 9603  18.197  40.985   2.885
41210W        W 9604  32.816  27.562  11.128
41211W        W 9605  35.929  16.249   3.211
41212W        W 9606  12.163  24.599   3.706
41213W        W 9607  15.280  36.946   5.044
41214W        W 9608  13.076  39.816  14.780
41215W        W 9609  40.875  24.280   1.036
41216W        W 9610  44.110  37.265  14.729
41217W        W 9611  43.313   0.823  14.716
41218W        W 9612  39.173  40.997  14.994
41219W        W 9613  35.393  19.659   3.258
41220W        W 9614  15.725  24.803  14.286
41221W        W 9615  43.681  42.059  14.869
41222W        W 9616  31.672   5.375  12.327
41223W        W 9617  38.774  19.707   2.452
41224W        W 9618  44.888  41.253   3.106
41225W        W 9619  28.458  44.213   1.426
41226W        W 9620  17.042  28.681   1.495
41227W        W 9621   5.250  39.438  12.390
41228W        W 9622  15.518  23.423  13.201
41229W        W 9623  23.813  12.576   1.860
41230W        W 9624  30.742  21.038  12.056
41231W        W 9625   7.711   2.794   2.217
41232W        W 9626   9.116  28.520  10.379
41233W        W 9627  26.014  39.349   3.830
41234W        W 9628  30.039  24.229   0.196
41235W        W 9629  22.620  40.768  13.489
41236W        W 9630  33.071  30.173   4.532
41237W        W 9631  17.748  17.816  14.443
41238W        W 9632  16.852  22.915   2.269
41239W        W 9633  44.463   7.484   1.781
41240W        W 9634   9.445  29.125   0.571
41241W        W 9635   0.307  21.941  14.120
41242W        W 9636  37.034   1.518  12.468
41243W        W 9637   2.811  30.724   0.442
41244W        W 9638   9.653  29.692   2.176
41245W        W 9639  21.623  16.412  11.109
41246W        W 9640  31.795  30.456  13.774
41247W        W 9641  13.288  31.247   4.091
41248W        W 9642   8.280  30.062   3.160
41249W        W 9643  32.106   7.920   3.826
41250W        W 9644  15.913  27.986  13.033
41251W        W 9645  24.156   9.751   2.246
41252W        W 9646   0.423   1.226   1.220
41253W        W 9647  24.853   9.689  10.685
41254W        W 9648  16.123  29.734   1.273
41255W        W 9649  38.017   4.654   4.292
41256W        W 9650   9.809  34.468  11.033
41257W        W 9651  12.546  35.016   4.167
41258W        W 9652  28.395  23.713   1.914
41259W        W 9653   9.220   2.865  12.728
41260W        W 9654  27.673  27.155   3.134
41261W        W 9655  26.194   2.060  11.130
41262W        W 9656  36.128   0.030   4.100
41263W        W 9657   5.924  37.387  13.502
41264W        W 9658  36.122  19.481  13.475
41265W        W 9659  10.137  11.186   0.454
41266W        W 9660  29.427  14.539   4.903
41267W        W 9661  18.210   9.771  14.601
41268W        W 9662   3.867  12.210   5.480
41269W        W 9663  22.774  19.582   0.862
41270W        W 9664  37.552   4.515   4.077
41271W        W 9665  37.145  12.314   0.425
41272W        W 9666  31.490  25.071   4.116
41273W        W 9667   7.722  41.814   2.319
41274W        W 9668  31.275   7.484   1.877
41275W        W 9669  18.085  10.153   2.332
41276W        W 9670  10.327  17.047  14.974
41277W        W 9671   4.398  18.566  10.652
41278W        W 9672  44.005  33.071   0.699
41279W        W 9673  39.905  21.802  14.604
41280W        W 9674   0.195  14.851   3.686
41281W        W 9675  29.529   0.243   0.891
41282W        W 9676  37.539  27.359  14.424
41283W        W 9677  32.411  39.058   1.823
41284W        W 9678  26.660  25.996  10.476
41285W        W 9679  41.744  32.977  12.013
41286W        W 9680  44.830   3.311   0.717
41287W        W 9681  37.944  27.151  14.978
41288W        W 9682   9.904   9.603  12.035
41289W        W 9683   3.824   7.671  12.002
41290W        W 9684  31.584   3.025  11.593
41291W        W 9685   6.404  44.788  12.511
41292W        W 9686   7.491  34.559  11.207
41293W        W 9687  41.014   0.730  13.291
41294W        W 9688  18.166  21.488   3.154
41295W        W 9689  19.205   5.257  12.424
41296W        W 9690  17.933  13.231  11.460
41297W        W 9691  32.018  36.846   3.732
41298W        W 9692  24.172  18.740   1.377
41299W        W 9693   6.978  36.257   0.226
41300W        W 9694   8.092  20.000  12.737
41301W        W 9695  18.764  24.126  14.656
41302W        W 9696   7.348   5.482  11.151
41303W        W 9697  32.297  30.156   3.630
41304W        W 9698  29.227  21.848  11.512
41305W        W 9699  43.467  34.788   3.996
41306W        W 9700  25.474  15.064   0.309
41307W        W 9701  40.126  27.505  11.043
41308W        W 9702  40.346  29.059   3.283
41309W        W 9703  14.674  44.279  11.351
41310W        W 9704   7.813  13.175  12.402
41311W        W 9705   2.851  30.438   2.406
41312W        W 9706  26.895   5.682   2.468
41313W        W 9707  34.918  16.596   0.326
41314W        W 9708  32.057  43.061  10.951
41315W        W 9709  22.842  44.789  11.493
41316W        W 9710  23.906  15.085  10.848
41317W        W 9711   1.356  40.546  13.325
41318W        W 9712   5.228   5.413   2.158
41319W        W 9713  37.371   7.524  11.573
41320W        W 9714  27.587  22.173  12.027
41321W        W 9715  15.570  32.069  11.626
41322W        W 9716   3.348  13.511   1.044
41323W        W 9717  28.405  39.386   3.963
41324W        W 9718  14.779   5.256  14.804
41325W        W 9719  20.931  44.839   0.933
41326W        W 9720  29.182  11.154  12.946
41327W        W 9721  37.970  38.259   4.189
41328W        W 9722  16.798   3.845   3.646
41329W        W 9723  15.214  41.049  14.915
41330W        W 9724  13.874   5.943   2.569
41331W        W 9725  40.382  32.536  12.647
41332W        W 9726  38.095   5.677  12.847
41333W        W 9727  16.008  23.362  10.735
41334W        W 9728  39.242  36.347   1.788
41335W        W 9729  26.560   2.419  12.133
41336W        W 9730  23.548  41.338  13.351
41337W        W 9731  19.657  13.343   3.602
41338W        W 9732   0.450  23.259  11.571
41339W        W 9733  26.614  25.979  11.384
41340W        W 9734  10.645  42.018   3.703
41341W        W 9735   2.937  11.363  12.174
41342W        W 9736  15.248  35.580  14.848
41343W        W 9737  44.939   8.302   3.398
41344W        W 9738  25.980  21.605  13.629
41345W        W 9739   8.540  35.327   0.234
41346W        W 9740   4.874  33.390   1.901
41347W        W 9741  11.038   8.211   0.500
41348W        W 9742  13.101   6.508   2.250
41349W        W 9743  22.551  12.313   2.084
41350W        W 9744   2.937   8.213  11.120
41351W        W 9745  39.483  44.888   3.479
41352W        W 9746  29.459   7.342  14.495
41353W        W 9747  15.576   0.290   2.192
41354W        W 9748  42.780  41.535   3.305
41355W        W 9749  30.641  37.519   4.200
41356W        W 9750  20.470  43.393  11.216
41357W        W 9751  37.847  25.909  13.339
41358W        W 9752  33.504   8.265   3.143
41359W        W 9753  21.719   9.055   1.633
41360W        W 9754  34.957  29.587   2.590
41361W        W 9755  10.007   4.996   4.139
41362W        W 9756  17.649   3.325   4.179
41363W        W 9757   1.495  12.748  11.749
41364W        W 9758  16.899  27.493   0.881
41365W        W 9759  11.628   4.559   4.574
41366W        W 9760   1.531  42.902  12.594
41367W        W 9761  37.597  33.505  12.910
41368W        W 9762   9.356  16.005   0.399
41369W        W 9763  34.848   3.291   0.838
41370W        W 9764  23.566  43.084  10.737
41371W        W 9765  29.394  43.145   5.461
41372W        W 9766  43.498  28.122  10.228
41373W        W 9767  15.722  32.450   0.535
41374W        W 9768  37.760  21.073   2.864
41375W        W 9769  33.023   4.692   4.154
41376W        W 9770  39.888   7.260   1.813
41377W        W 9771   3.622  18.709   3.314
41378W        W 9772  38.935  21.471  14.512
41379W        W 9773  10.766  41.022   3.611
41380W        W 9774  32.797   2.734  11.928
41381W        W 9775  12.888   0.510  13.370
41382W        W 9776  40.539  41.020   1.975
41383W        W 9777  18.692  13.899  13.436
41384W        W 9778  11.893  39.133   2.852
41385W        W 9779   2.181  38.508   3.298
41386W        W 9780  31.476  35.685  12.166
41387W        W 9781  22.577  39.134   0.377
41388W        W 9782  10.346  31.606   2.380
41389W        W 9783  28.039  11.371  10.188
41390W        W 9784  34.306  12.091  12.187
41391W        W 9785  27.732  19.606  12.168
41392W        W 9786  29.278   6.866   3.634
41393W        W 9787  42.795  27.759   3.524
41394W        W 9788   8.009  22.238  12.913
41395W        W 9789  27.931  21.671  13.018
41396W        W 9790  14.600  43.297  12.041
41397W        W 9791  29.688  41.301   3.722
41398W        W 9792  20.528  42.539  10.805
41399W        W 9793  26.951  12.519  12.407
41400W        W 9794  17.729   1.785   1.897
41401W        W 9795   6.833  42.101  11.196
41402W        W 9796  38.219  17.867  10.896
41403W        W 9797  22.056   8.216  12.572
41404W        W 9798  39.023   7.805   0.967
41405W        W 9799  18.187   3.314   0.378
41406W        W 9800  14.890  17.149   3.065
41407W        W 9801  43.870   5.549   1.459
41408W        W 9802  34.035  13.106   2.139
41409W        W 9803  31.601  43.380  12.150
41410W        W 9804   0.406  30.379  11.933
41411W        W 9805  32.379  21.151   1.243
41412W        W 9806  23.125  43.080  13.858
41413W        W 9807  14.732  27.715  14.369
41414W        W 9808  19.623  19.527   3.926
41415W        W 9809  32.562   3.809  12.480
41416W        W 9810  40.834  14.294   1.215
41417W        W 9811  29.198  10.853  10.692
41418W        W 9812  41.825  36.403   1.746
41419W        W 9813   1.753  39.163  11.613
41420W        W 9814  30.583   1.182  13.616
41421W        W 9815  39.773   4.440   4.789
41422W        W 9816  20.987  12.060  13.391
41423W        W 9817  26.143   2.986   4.560
41424W        W 9818  36.983   8.275  14.972
41425W        W 9819   4.360  25.159   9.785
41426W        W 9820  34.398  36.641  14.841
41427W        W 9821  22.490  12.314  14.357
41428W        W 9822  33.119   4.837  12.479
41429W        W 9823  24.756  30.883   3.857
41430W        W 9824  29.641  31.100   2.570
41431W        W 9825  14.625   4.930  13.947
41432W        W 9826  33.869  33.322  13.482
41433W        W 9827   9.333   4.356   4.131
41434W        W 9828   6.926  16.401   1.873
41435W        W 9829  37.483   3.256   3.681
41436W        W 9830  31.455  21.646   1.254
41437W        W 9831  24.591  39.279   2.782
41438W        W 9832  24.506  22.689  11.085
41439W        W 9833   0.973  23.976   2.247
41440W        W 9834  44.369  35.492  13.879
41441W        W 9835  20.912   1.319   4.149
41442W        W 9836  43.318  44.742   1.759
41443W        W 9837  42.812  37.015   0.111
41444W        W 9838   6.701  11.428  11.994
41445W        W 9839   6.688  26.160   2.358
41446W        W 9840  14.322  24.469   0.889
41447W        W 9841  10.863  21.416   3.359
41448W        W 9842  24.342  15.630   4.529
41449W        W 9843  33.427  23.004   2.234
41450W        W 9844  31.525  37.367   1.025
41451W        W 9845  22.128  20.127  12.480
41452W        W 9846  43.814  17.597   3.903
41453W        W 9847  11.226   6.389   1.672
41454W        W 9848   3.131  28.011  13.466
41455W        W 9849  33.508   3.773  13.322
41456W        W 9850   7.782  12.236  14.213
41457W        W 9851  28.585  19.277   4.805
41458W        W 9852  40.887   5.124   1.345
41459W        W 9853   9.414  11.080  14.945
41460W        W 9854  30.119  42.764   2.293
41461W        W 9855  14.444  15.140  11.099
41462W        W 9856  23.777  10.065   3.627
41463W        W 9857  32.051  17.850   2.062
41464W        W 9858  33.386  22.560   0.895
41465W        W 9859  33.647  27.021   4.598
41466W        W 9860  12.006  15.809  10.205
41467W        W 9861  15.496  43.800  10.724
41468W        W 9862   6.987  11.321   1.767
41469W        W 9863  31.440  24.685  13.352
41470W        W 9864   3.490  15.560  11.543
41471W        W 9865  20.187  36.635   2.216
41472W        W 9866  42.951  18.035  14.756
41473W        W 9867  28.194  28.447  11.453
41474W        W 9868  21.592  35.286   0.955
41475W        W 9869  22.134   3.407  13.152
41476W        W 9870  26.343  35.906  10.361
41477W        W 9871  34.577  10.710  13.021
41478W        W 9872  32.709  26.253   2.217
41479W        W 9873  14.632   0.809  11.198
41480W        W 9874  26.414   2.109   1.630
41481W        W 9875  42.816  31.532   4.528
41482W        W 9876  23.416   9.309  13.101
41483W        W 9877  13.321  39.170   0.630
41484W        W 9878   5.010   0.302   1.993
41485W        W 9879  36.756  35.645   2.264
41486W        W 9880  16.311  11.456  13.842
41487W        W 9881  10.079  36.161   2.021
41488W        W 9882  41.052  13.177   2.728
41489W        W 9883  28.527   0.984  10.930
41490W        W 9884  10.652   4.934   1.128
41491W        W 9885  25.385  24.113  10.864
41492W        W 9886  23.991  32.755  12.577
41493W        W 9887  42.568  40.093  12.979
41494W        W 9888  30.228  18.826  11.994
41495W        W 9889  13.342  22.927   2.004
41496W        W 9890  14.588   9.662   3.360
41497W        W 9891  36.364  15.814  14.386
41498W        W 9892  11.186  37.078   0.002
41499W        W 9893   7.914  32.198  14.805
41500W        W 9894  42.801   4.328   1.840
41501W        W 9895  10.796  14.348  11.647
41502W        W 9896  35.946   6.871   0.522
41503W        W 9897  44.466   1.091  14.116
41504W        W 9898  26.334   1.650   1.379
41505W        W 9899  32.093   4.813  10.177
41506W        W 9900   4.941   6.908  12.093
41507W        W 9901  39.540  26.297   5.112
41508W        W 9902  43.838  39.981   1.418
41509W        W 9903  27.895  34.571   2.743
41510W        W 9904  22.550   8.318  12.377
41511W        W 9905  27.512   8.774   1.514
41512W        W 9906  27.182  29.635   1.903
41513W        W 9907  30.008   5.148  12.904
41514W        W 9908  13.933  43.915   1.176
41515W        W 9909  22.165  22.470  14.707
41516W        W 9910   0.124   3.200   4.111
41517W        W 9911  10.182  26.933  13.099
41518W        W 9912   2.784  39.221  10.256
41519W        W 9913  24.270  37.247   1.426
41520W        W 9914  41.436  15.810  11.887
41521W        W 9915  42.015  18.044  14.498
41522W        W 9916  13.923  40.471  13.935
41523W        W 9917  21.497  40.447   1.793
41524W        W 9918   1.226  29.112   4.858
41525W        W 9919  16.800  28.406  10.731
41526W        W 9920  33.096  15.146  14.334
41527W        W 9921  39.494  28.600   2.936
41528W        W 9922  11.121   4.379  13.859
41529W        W 9923  21.025   2.730   1.281
41530W        W 9924  20.616  28.124  11.561
41531W        W 9925   0.783  43.382   4.576
41532W        W 9926   1.588  38.109  14.251
41533W        W 9927   9.189   1.478  13.857
41534W        W 9928  23.085  18.569   2.963
41535W        W 9929  15.402  15.139  13.909
41536W        W 9930   0.373  29.642  13.418
41537W        W 9931  17.823  10.183  11.881
41538W        W 9932  41.406  20.224   2.814
41539W        W 9933  20.561  31.395  14.376
41540W        W 9934   5.993  20.696   1.907
41541W        W 9935  37.595  34.448  11.848
41542W        W 9936  36.437   2.926  14.906
41543W        W 9937  17.157  42.978  12.509
41544W        W 9938  27.244  26.857   4.072
41545W        W 9939  31.604   0.977   1.482
41546W        W 9940   6.808   1.048   0.748
41547W        W 9941  33.814   9.382   3.172
41548W        W 9942   0.489  14.903  11.051
41549W        W 9943   7.945  24.937  11.876
41550W        W 9944   8.691   2.896   4.581
41551W        W 9945  30.941   4.831  12.732
41552W        W 9946  41.599  27.940   3.798
41553W        W 9947   3.294  21.799  11.999
41554W        W 9948   6.664  44.296  11.592
41555W        W 9949  41.919  18.483  13.929
41556W        W 9950  17.683  14.825   2.630
41557W        W 9951  10.399  22.907   2.951
41558W        W 9952  44.178  23.108  14.353
41559W        W 9953  35.455  35.624   0.877
41560W        W 9954  15.072  37.608  12.794
41561W        W 9955  35.504   8.420   2.490
41562W        W 9956  39.826  14.244  14.482
41563W        W 9957  42.715  26.700   1.333
41564W        W 9958   9.275   2.223   2.668
41565W        W 9959  37.776  19.359  10.957
41566W        W 9960  37.267  30.178   0.193
41567W        W 9961  29.576  43.888  12.097
41568W        W 9962   3.799  43.216   0.841
41569W        W 9963  36.591  11.264  10.706
41570W        W 9964  19.682  40.430   4.728
41571W        W 9965  25.386   7.305   1.334
41572W        W 9966  37.916  18.259  13.354
41573W        W 9967  33.965  25.132   4.643
41574W        W 9968  24.866   9.378   0.181
41575W        W 9969  20.662  16.669   1.347
41576W        W 9970   3.730   8.618   2.894
41577W        W 9971  32.697   6.887   3.119
41578W        W 9972   4.319  42.803  10.469
41579W        W 9973  14.397  30.978   0.932
41580W        W 9974   7.923   5.845  10.602
41581W        W 9975  16.520   4.290  12.415
41582W        W 9976  10.122  38.879   3.066
41583W        W 9977  18.687   7.863   4.972
41584W        W 9978  25.776  17.773  11.150
41585W        W 9979  28.692  15.343  13.501
41586W        W 9980  39.146  19.672  11.164
41587W        W 9981   5.979   9.190   3.064
41588W        W 9982  22.760  20.381   2.312
41589W        W 9983  12.789  29.647   4.946
41590W        W 9984  30.881  22.464  12.070
41591W        W 9985  38.865   4.726   3.122
41592W        W 9986  29.981  11.413  12.456
41593W        W 9987  16.809  19.097  12.070
41594W        W 9988  35.583  21.901  10.747
41595W        W 9989  43.951  28.098  12.351
41596W        W 9990   6.663   4.871  12.077
41597W        W 9991  24.545  23.586  12.637
41598W        W 9992  15.221  18.574   5.017
41599W        W 9993  37.421  39.562  11.541
41600W        W 9994  16.766  34.055  12.313
41601W        W 9995  25.894  28.950  11.366
41602W        W 9996   5.764  40.805   4.261
41603W        W 9997  20.795  43.539   1.464
41604W        W 9998   4.984  31.393   9.930
41605W        W 9999  25.253  17.830   1.297
41606W        W10000  30.503  10.758  13.880
41607W        W10001  14.616  37.085   1.283
41608W        W10002  33.315   1.920  10.743
41609W        W10003  13.743  22.030   2.940
41610W        W10004  37.820  30.668  11.500
41611W        W10005  41.492  33.401  14.420
41612W        W10006  23.404  25.469   3.576
41613W        W10007  29.664  42.173  11.068
41614W        W10008  40.143  42.378   3.793
41615W        W10009  17.265  21.259   5.009
41616W        W10010  34.719  35.092  10.799
41617W        W10011  25.069   3.135  14.009
41618W        W10012  15.801   3.225  12.127
41619W        W10013  35.120  44.457   0.010
41620W        W10014  31.453  25.666   1.899
41621W        W10015  32.323  34.404   1.259
41622W        W10016  31.093   6.652  12.472
41623W        W10017  44.876  22.497  11.706
41624W        W10018  13.718  26.134  11.574
41625W        W10019  40.912  38.968  10.883
41626W        W10020  14.813  28.941  14.829
41627W        W10021  36.713  28.924   2.503
41628W        W10022  27.668   3.333  14.765
41629W        W10023  40.267  30.646  14.390
41630W        W10024   1.493  24.693  12.021
41631W        W10025  26.150  20.657  11.649
41632W        W10026  15.664   4.397  10.656
41633W        W10027  12.810  21.488   2.252
41634W        W10028  12.425  16.054  12.833
41635W        W10029  30.792   8.678  10.723
41636W        W10030  38.005   7.257  12.887
41637W        W10031  12.920   0.634   4.136
41638W        W10032  23.376  27.049   2.677
41639W        W10033  44.365  42.213  12.878
41640W        W10034   0.081  10.260   3.267
41641W        W10035  11.471  17.572   4.320
41642W        W10036  30.424  29.273   1.722
41643W        W10037  36.011  25.689   3.160
41644W        W10038  40.845  10.663   3.835
41645W        W10039  18.715  41.684  14.383
41646W        W10040  27.651  10.566  12.645
41647W        W10041  26.666  32.433   4.230
41648W        W10042  28.700  35.843  11.024
41649W        W10043  43.013   9.345  13.068
41650W        W10044  26.415  11.694   0.397
41651W        W10045   3.017  13.757   2.454
41652W        W10046   5.630  12.657   0.756
41653W        W10047  11.939  24.773  11.655
41654W        W10048  17.256  22.234  11.574
41655W        W10049  44.225  23.010   1.308
41656W        W10050   2.818  21.434  10.271
41657W        W10051   2.952  28.063   0.169
41658W        W10052  28.052   7.110   2.753
41659W        W10053  28.854  44.997   1.221
41660W        W10054  20.110  41.023  10.732
41661W        W10055   1.830  27.571   0.708
41662W        W10056   0.141  36.463   2.044
41663W        W10057  23.694  33.656  12.877
41664W        W10058  17.303   1.334   3.670
41665W        W10059  11.017  23.440   0.462
41666W        W10060   6.427   8.297  11.209
41667W        W10061   8.768  23.365   3.303
41668W        W10062  11.769  32.844   4.187
41669W        W10063  23.288   4.736   0.515
41670W        W10064  37.900  38.552  12.450
41671W        W10065   8.816  25.758  11.146
41672W        W10066  38.378  10.905  13.355
41673W        W10067  21.260  26.942  10.909
41674W        W10068  31.954  32.656   4.043
41675W        W10069  43.211  14.718  14.132
41676W        W10070  41.978   0.350   2.827
41677W        W10071  36.316  11.148  13.952
41678W        W10072   0.260  17.682   1.836
41679W        W10073   9.474   8.420  13.886
41680W        W10074  21.498  40.269   2.812
41681W        W10075  15.517   9.743  12.932
41682W        W10076  15.313  42.411   2.080
41683W        W10077  25.506  24.221  12.378
41684W        W10078  19.051  17.041   2.722
41685W        W10079   5.750   5.441  13.534
41686W        W10080  21.025   5.391   2.811
41687W        W10081   2.216  39.529  14.547
41688W        W10082  10.872  32.250   4.390
41689W        W10083  23.694  42.921   1.625
41690W        W10084  18.233  26.681   2.910
41691W        W10085  10.831  31.472  13.943
41692W        W10086   7.021  17.242   2.775
41693W        W10087   2.423  11.626  13.597
41694W        W10088  19.532  33.674  12.122
41695W        W10089  37.333  12.325   1.775
41696W        W10090  41.728  38.768   3.974
41697W        W10091  13.683   1.460  14.481
41698W        W10092  15.274  28.558   4.190
41699W        W10093   0.868  30.964  11.188
41700W        W10094  15.130  41.793  14.274
41701W        W10095  20.589   1.698  13.400
41702W        W10096  17.568  34.895   2.851
41703W        W10097  12.134   1.162  12.815
41704W        W10098  26.760   7.268  14.983
41705W        W10099   4.062   6.334   2.405
41706W        W10100  34.836  18.993   1.417
41707W        W10101  42.330  40.595  11.612
41708W        W10102  40.669   7.449   2.892
41709W        W10103  17.958  35.600  13.611
41710W        W10104  23.935  26.851  13.442
41711W        W10105  10.399  24.013  12.060
41712W        W10106  10.606  20.206   4.105
41713W        W10107   4.182   3.442   3.726
41714W        W10108  42.632   1.081   5.069
41715W        W10109  31.084   0.434   2.695
41716W        W10110  16.486  32.397   4.945
41717W        W10111   0.725   3.794  12.549
41718W        W10112  15.050  26.520  11.102
41719W        W10113  21.865   7.283  12.830
41720W        W10114   3.536  14.393  13.922
41721W        W10115  21.581  35.906  12.409
41722W        W10116  40.866  23.192   3.657
41723W        W10117  43.845  14.208  11.577
41724W        W10118  36.825   8.404  11.612
41725W        W10119   6.810   1.436  13.937
41726W        W10120   4.929  40.883  10.840
41727W        W10121  31.564  40.039  10.538
41728W        W10122  15.148  30.373   0.476
41729W        W10123  33.937   0.691  11.644
41730W        W10124  32.548   1.716   2.203
41731W        W10125  15.067  16.742   9.865
41732W        W10126   4.596  19.209  12.584
41733W        W10127  41.772   2.054   1.407
41734W        W10128  27.514  32.938   1.295
41735W        W10129  26.601  10.657  13.920
41736W        W10130  33.923  12.671   1.514
41737W        W10131  15.345   9.289   0.767
41738W        W10132  36.080  28.926   1.965
41739W        W10133  27.673   0.115  13.817
41740W        W10134  20.010   6.393  13.499
41741W        W10135  40.494  32.167  12.987
41742W        W10136  13.458  37.327  12.179
41743W        W10137   8.703  16.219  14.876
41744W        W10138   4.711  17.488   4.661
41745W        W10139   0.438  27.287  11.200
41746W        W10140  25.215  44.396   1.604
41747W        W10141  28.451  42.895  11.096
41748W        W10142   6.274  11.784  11.615
41749W        W10143   6.388  29.063   0.508
41750W        W10144  16.476   2.879   2.350
41751W        W10145   0.137   5.141   0.316
41752W        W10146  39.101  11.215  13.786
41753W        W10147  27.482  41.089   1.201
41754W        W10148   1.399  25.841  12.369
41755W        W10149  37.393  40.497   4.200
41756W        W10150  19.618  23.644   2.241
41757W        W10151  25.067   3.873  14.482
41758W        W10152   5.813  42.247   4.318
41759W        W10153  31.802  28.798   1.187
41760W        W10154  31.916  28.438  14.229
41761W        W10155   7.014  10.843  13.804
41762W        W10156  16.757   9.341  12.891
41763W        W10157   8.788  43.726  11.774
41764W        W10158   6.195  25.664   1.738
41765W        W10159  15.323  18.727   4.543
41766W        W10160  43.175   6.840   1.221
41767W        W10161   9.364  22.513   3.963
41768W        W10162  27.395  40.020  11.879
41769W        W10163  24.929   7.351  10.927
41770W        W10164  36.083  36.217   0.261
41771W        W10165   7.422   3.731   2.138
41772W        W10166  13.121  19.992  14.546
41773W        W10167  33.957  34.211   2.910
41774W        W10168  34.632  30.609  10.497
41775W        W10169  35.080  21.860  11.288
41776W        W10170  13.566   9.717   2.288
41777W        W10171  28.866   9.056   3.221
41778W        W10172  26.135  40.803  13.339
41779W        W10173  23.279  42.477   3.749
41780W        W10174  12.391  38.529   2.372
41781W        W10175  13.102  17.926  14.903
41782W        W10176   1.738  43.904   4.434
41783W        W10177  30.490  44.122   3.352
41784W        W10178   3.749  13.886  13.405
41785W        W10179  27.426  12.652   3.720
41786W        W10180  16.522  20.342   3.617
41787W        W10181  13.114  39.006   0.153
41788W        W10182   8.291  16.124   1.670
41789W        W10183  34.651  22.511   0.171
41790W        W10184  43.822   5.584   4.157
41791W        W10185  38.809  17.100   0.544
41792W        W10186  32.441  40.369  10.558
41793W        W10187  29.508  29.229  12.922
41794W        W10188  41.206  36.539   1.624
41795W        W10189  39.257  23.692  12.128
41796W        W10190  24.335  44.458   4.575
41797W        W10191   9.693  41.375   2.771
41798W        W10192   1.818  21.169  14.338
41799W        W10193   1.423  13.197  11.994
41800W        W10194  25.569  14.351  13.453
41801W        W10195  37.870  34.818   1.811
41802W        W10196  44.931  37.638  12.115
41803W        W10197  16.264   2.255  14.544
41804W        W10198  18.447  42.485   3.175
41805W        W10199  15.022   3.821   2.456
41806W        W10200  33.022  25.001   2.180
41807W        W10201  42.457  35.473   3.320
41808W        W10202  44.260  16.351   0.329
41809W        W10203  24.339  26.329   5.238
41810W        W10204  40.372  31.033  12.094
41811W        W10205  19.528  15.854   1.223
41812W        W10206  11.868  26.518   5.036
41813W        W10207  24.284  37.905  10.739
41814W        W10208  37.862  36.002   4.502
41815W        W10209  18.485  32.669   0.177
41816W        W10210  37.182  42.795  11.043
41817W        W10211  25.961  37.466  14.291
41818W        W10212  11.347  24.089   4.765
41819W        W10213  16.327  37.519   0.882
41820W        W10214   3.454  18.591  13.919
41821W        W10215  27.627   3.005  13.310
41822W        W10216   2.482   6.853  10.849
41823W        W10217  23.468  30.258  11.589
41824W        W10218  12.425  30.478   2.461
41825W        W10219   3.279  23.400   4.531
41826W        W10220  19.526  17.718  14.865
41827W        W10221  12.445  28.574  11.630
41828W        W10222   9.753  32.145   3.095
41829W        W10223  28.568  10.775   1.244
41830W        W10224  27.943   0.979   3.582
41831W        W10225   9.720  24.980  14.338
41832W        W10226  30.597  24.258  11.455
41833W        W10227  16.347  12.700  14.493
41834W        W10228   7.357  34.786   2.497
41835W        W10229  26.088  19.719   1.791
41836W        W10230  14.328  13.180  12.639
41837W        W10231   8.263  16.065   1.153
41838W        W10232  23.501  40.270   3.295
41839W        W10233  15.303  36.110   4.634
41840W        W10234  20.575  24.263   3.151
41841W        W10235  16.684  37.510  13.341
41842W        W10236   4.607   4.374   1.804
41843W        W10237   0.920  16.485   0.320
41844W        W10238  42.373  29.484  11.389
41845W        W10239  16.114  22.057   3.474
41846W        W10240  29.532  41.357  10.583
41847W        W10241  15.246  39.634   0.154
41848W        W10242  11.251  44.917   4.901
41849W        W10243  41.792  43.051   2.728
41850W        W10244   1.439  38.847  12.863
41851W        W10245  17.195  34.647   4.513
41852W        W10246  40.326  21.387   4.758
41853W        W10247  17.267  24.568   0.665
41854W        W10248  11.941  31.237   1.459
41855W        W10249  39.329  34.886   1.757
41856W        W10250  24.222   4.345  12.998
41857W        W10251  16.972  20.187  12.911
41858W        W10252  21.146  14.882   4.206
41859W        W10253  25.564  12.692   0.983
41860W        W10254  27.284  44.909   2.672
41861W        W10255   6.369  17.430  13.405
41862W        W10256  31.671   7.188   2.313
41863W        W10257  12.273  12.815   3.753
41864W        W10258   0.015  23.632  12.127
41865W        W10259  31.442  22.660   0.075
41866W        W10260   2.437  37.338   1.449
41867W        W10261   3.327  14.464   3.613
41868W        W10262  24.207  21.332  11.222
41869W        W10263   3.739  13.264   1.334
41870W        W10264  43.849   0.794   2.710
41871W        W10265  36.028  39.486  13.038
41872W        W10266  44.260  44.506   0.699
41873W        W10267  36.135  18.155  10.429
41874W        W10268  32.503  16.627   2.881
41875W        W10269   3.444  28.026   2.731
41876W        W10270  20.269   3.261   0.282
41877W        W10271  43.867  12.573   3.997
41878W        W10272   8.348  35.475   4.485
41879W        W10273  30.673  16.046  14.356
41880W        W10274  38.494  21.479  12.438
41881W        W10275  21.192  39.895  12.242
41882W        W10276  17.412  43.073   9.936
41883W        W10277  27.494  34.313  13.735
41884W        W10278   5.756  34.061  12.534
41885W        W10279  30.144   2.799   3.772
41886W        W10280  27.218  17.765   1.623
41887W        W10281  31.904  13.517   3.145
41888W        W10282  27.141  41.801  10.713
41889W        W10283   1.235  40.777   2.566
41890W        W10284  18.252  26.231  14.931
41891W        W10285  22.676   9.923  13.565
41892W        W10286  44.300  37.040  11.426
41893W        W10287  29.111   1.739   4.881
41894W        W10288  13.220   3.450  10.582
41895W        W10289  33.477  32.037  13.387
41896W        W10290  33.409   0.822  11.583
41897W        W10291   0.542  42.531   3.851
41898W        W10292   1.892  13.623   9.906
41899W        W10293   6.344  40.370   2.182
41900W        W10294  41.762   7.911   0.471
41901W        W10295  25.726   7.160   3.191
41902W        W10296  27.190  10.966   1.387
41903W        W10297   7.387  39.398   0.839
41904W        W10298   4.400  11.364  10.403
41905W        W10299  42.836   6.983  14.789
41906W        W10300  17.017  26.536   3.560
41907W        W10301  42.996   9.237  14.039
41908W        W10302  17.072  25.690   3.676
41909W        W10303   4.701   5.839  10.939
41910W        W10304  42.796  42.354   2.826
41911W        W10305  29.498  33.001   4.381
41912W        W10306  22.708   8.157  14.431
41913W        W10307  27.251  22.745   3.546
41914W        W10308  32.250   4.769  10.693
41915W        W10309  26.475  15.494  14.937
41916W        W10310  27.104  40.901  13.632
41917W        W10311  40.280  40.458   1.314
41918W        W10312  44.521   4.638   2.639
41919W        W10313  22.120  29.764  13.545
41920W        W10314  26.927  18.719   3.165
41921W        W10315   8.576  17.126  11.928
41922W        W10316  18.500   5.033   4.925
41923W        W10317  25.561   4.375  11.021
41924W        W10318  20.137  12.755  12.112
41925W        W10319  11.672  40.999  10.722
41926W        W10320  43.054  20.767  12.356
41927W        W10321  33.027  22.413   1.247
41928W        W10322   1.968   3.362  11.211
41929W        W10323  25.815  34.606   0.385
41930W        W10324   9.887  38.943   0.743
41931W        W10325  29.272  21.944  13.855
41932W        W10326  36.555  24.950   0.292
41933W        W10327  15.659  12.909  12.090
41934W        W10328  23.096   8.743   0.547
41935W        W10329  31.025   5.012   1.273
41936W        W10330  25.427  18.497   2.406
41937W        W10331  10.617  30.422   3.230
41938W        W10332  44.626  17.275   0.082
41939W        W10333  27.498  40.961  11.107
41940W        W10334   3.288  34.649  12.535
41941W        W10335  43.814   5.180   0.487
41942W        W10336  10.198  31.624   9.998
41943W        W10337  13.280  19.323   4.619
41944W        W10338  22.083  23.188  13.533
41945W        W10339   7.170  22.308  10.231
41946W        W10340  39.838  20.269   0.710
41947W        W10341   1.355  15.299   4.964
41948W        W10342  12.901  34.165  11.207
41949W        W10343  39.502  20.260  12.301
41950W        W10344   5.857  35.626   0.238
41951W        W10345  11.157  16.342  12.817
41952W        W10346  14.036  40.769  14.369
41953W        W10347  34.919  21.116   2.046
41954W        W10348  13.534   7.502   1.635
41955W        W10349   1.981  43.211  11.143
41956W        W10350  37.517   0.428  14.374
41957W        W10351  38.085   9.666  11.144
41958W        W10352  12.705  40.564  10.421
41959W        W10353  44.279  12.597   3.356
41960W        W10354  24.066  33.933  14.597
41961W        W10355  33.869  44.833  14.066
41962W        W10356  26.171  32.620  13.098
41963W        W10357  20.544  27.931   0.450
41964W        W10358  26.212   8.282  11.927
41965W        W10359  34.667  20.889  13.874
41966W        W10360  23.694   1.793   1.470
41967W        W10361   4.859  22.758  12.857
41968W        W10362  42.715  23.733   1.944
41969W        W10363   5.448  29.596  10.542
41970W        W10364  43.651  27.394   2.736
41971W        W10365  25.524  33.825   4.689
41972W        W10366  26.124  12.192  13.856
41973W        W10367  26.681  25.665   4.699
41974W        W10368  24.697  36.503  13.021
41975W        W10369  18.591  40.369  13.919
41976W        W10370   2.076  22.478  11.931
41977W        W10371   1.781  20.021   4.593
41978W        W10372  12.522   6.016  13.587
41979W        W10373  11.146  21.211  11.117
41980W        W10374  16.787  12.681   4.851
41981W        W10375  13.821  29.225  11.019
41982W        W10376   5.411  31.113   0.713
41983W        W10377  30.667  12.811  11.066
41984W        W10378  30.778   9.451   3.644
41985W        W10379  41.844  29.641  13.614
41986W        W10380  39.481  37.510   3.679
41987W        W10381  44.536   1.367  10.772
41988W        W10382  42.272  26.812   2.913
41989W        W10383   7.131  41.467   4.112
41990W        W10384  31.140  42.451  10.954
41991W        W10385   5.518  26.596  13.826
41992W        W10386   1.587  32.770   0.806
41993W        W10387  19.272  15.016  14.505
41994W        W10388   6.611  43.900   0.681
41995W        W10389  21.774  26.487   1.567
41996W        W10390  27.181   2.264   0.399
41997W        W10391  30.805  34.862  12.070
41998W        W10392  39.797  20.757  14.461
41999W        W10393  30.731  34.515  13.420
42000W        W10394  36.454   7.754   4.593
42001W        W10395   2.575  28.155   2.930
42002W        W10396  32.374   3.831  12.966
42003W        W10397   0.213   6.325   0.355
42004W        W10398  14.823  17.962  13.855
42005W        W10399  27.154   4.957  11.598
42006W        W10400  21.501   7.813   1.747
42007W        W10401  31.296  28.438   0.398
42008W        W10402  25.085  32.921   0.465
42009W        W10403  12.453  35.809   2.241
42010W        W10404   9.278  35.373   2.353
42011W        W10405  23.240  27.155  12.482
42012W        W10406  36.950  10.808  13.548
42013W        W10407  13.860  16.902  13.504
42014W        W10408  20.074  13.105   0.936
42015W        W10409  44.053  22.041  11.943
42016W        W10410  15.140   8.447   4.498
42017W        W10411   3.850  28.403   2.814
42018W        W10412   5.569   1.203   2.396
42019W        W10413  23.196  26.487   5.060
42020W        W10414  13.429  34.403   0.859
42021W        W10415   2.282   0.791   1.358
42022W        W10416  32.505  24.652  13.517
42023W        W10417  28.641  12.870  12.156
42024W        W10418   1.920  21.430  13.892
42025W        W10419  23.142  32.210  13.463
42026W        W10420   9.283  32.661   3.546
42027W        W10421  12.822  27.734  14.463
42028W        W10422   7.807   5.721   4.146
42029W        W10423  24.232  39.048  14.015
42030W        W10424  19.975  18.793  10.315
42031W        W10425  40.884  17.489   0.775
42032W        W10426  11.845  15.993   1.721
42033W        W10427  24.145  28.512   3.273
42034W        W10428  38.875  43.744   4.405
42035W        W10429  37.759  14.047   3.701
42036W        W10430  19.109  41.448   1.251
42037W        W10431   8.386  34.737  12.298
42038W        W10432   2.280  25.143  12.105
42039W        W10433   2.310  39.249  14.112
42040W        W10434  35.493  22.225   1.053
42041W        W10435  27.158  25.052  14.106
42042W        W10436  44.284  35.346   3.687
42043W        W10437  24.125  10.821  11.250
42044W        W10438  10.805  26.648   3.822
42045W        W10439   0.268   4.523  12.966
42046W        W10440  39.106  16.818  14.801
42047W        W10441  13.093  12.264   1.137
42048W        W10442  34.921  28.834  13.791
42049W        W10443  24.905  18.789  12.945
42050W        W10444   3.302   1.899  12.962
42051W        W10445  40.889  16.941  10.701
42052W        W10446  12.737  14.871  12.027
42053W        W10447  33.713  15.704   1.190
42054W        W10448  24.639  33.208  11.957
42055W        W10449   0.618  10.247   3.171
42056W        W10450  32.029   4.759  13.308
42057W        W10451  33.653  21.172   1.243
42058W        W10452  38.973  35.580  13.551
42059W        W10453  42.245  28.326  13.594
42060W        W10454  24.978   1.193   3.605
42061W        W10455   4.361  43.494  11.582
42062W        W10456   7.704   6.435   3.269
42063W        W10457  13.105  15.982   0.402
42064W        W10458  29.912  11.690   3.221
42065W        W10459   2.395  41.340   2.357
42066W        W10460  43.009  23.219  13.402
42067W        W10461  33.951   5.409   0.044
42068W        W10462  35.807  11.425  12.341
42069W        W10463   0.788  16.689   3.440
42070W        W10464  42.833   7.381  13.536
42071W        W10465  30.960  43.918   2.628
42072W        W10466  19.483  10.728  13.938
42073W        W10467  32.439  41.442  10.848
42074W        W10468  32.642  44.841   2.783
42075W        W10469  28.738  19.226   3.031
42076W        W10470   7.742   8.099  12.095
42077W        W10471   2.404  16.737   1.423
42078W        W10472  35.334   5.499  12.983
42079W        W10473  24.035  32.404   2.234
42080W        W10474  40.395   1.259   2.497
42081W        W10475  23.927  19.881  13.117
42082W        W10476   4.603   0.314  13.167
42083W        W10477  26.419  37.532   4.727
42084W        W10478  10.110   9.900  12.445
42085W        W10479   0.354  29.022   1.108
42086W        W10480  39.395  38.424   2.367
42087W        W10481   3.892  32.970   4.625
42088W        W10482  20.572  38.853   4.856
42089W        W10483  33.388  17.009  12.032
42090W        W10484  26.956  26.503   1.886
42091W        W10485  28.078   7.847   2.807
42092W        W10486   3.459  41.767  11.185
42093W        W10487  33.356  42.415  12.435
42094W        W10488  12.878   6.919  13.412
42095W        W10489   7.527  14.822   0.240
42096W        W10490  14.891  10.218  10.412
42097W        W10491   3.888  33.077   1.914
42098W        W10492  35.893  11.297  14.902
42099W        W10493  11.624  29.197  14.207
42100W        W10494  15.595  10.257  11.178
42101W        W10495  10.186  42.605   4.443
42102W        W10496  13.844   3.624   4.145
42103W        W10497   6.794  28.019  14.315
42104W        W10498  33.015   1.226   3.208
42105W        W10499   1.052   3.265  14.356
42106W        W10500   7.109  25.945  14.711
42107W        W10501  18.006  38.488   3.232
42108W        W10502  41.859  40.284  10.985
42109W        W10503  34.388  18.857   1.664
42110W        W10504   3.653  21.652  13.439
42111W        W10505  11.339  33.936  14.425
42112W        W10506  27.744   4.981   1.686
42113W        W10507  12.152  39.859  11.314
42114W        W10508  18.541  14.229   4.321
42115W        W10509  18.509  10.188   3.162
42116W        W10510  17.351   0.321   4.492
42117W        W10511  18.724  42.814  12.791
42118W        W10512   1.984  24.564   2.697
42119W        W10513  32.469  15.274  13.008
42120W        W10514  11.374  13.878  12.957
42121W        W10515  17.282   1.957  11.078
42122W        W10516  13.422  42.069   3.234
42123W        W10517  22.297  43.250   0.356
42124W        W10518   7.685  18.599   1.405
42125W        W10519  18.156  27.463   2.412
42126W        W10520  13.170  34.041  14.951
42127W        W10521  23.671  39.754  14.929
42128W        W10522  17.379  25.136   3.782
42129W        W10523  25.643  22.973   0.915
42130W        W10524  39.009  29.572   3.844
42131W        W10525  18.590   2.235   1.826
42132W        W10526   7.152  31.950  13.388
42133W        W10527  12.481  20.900  13.295
42134W        W10528  24.719  42.955   0.375
42135W        W10529   4.485  26.800  14.928
42136W        W10530  31.877  33.598  11.906
42137W        W10531  30.015  19.974  11.523
42138W        W10532  40.676  31.277   2.517
42139W        W10533  12.208  33.659  13.529
42140W        W10534  32.475  44.597  11.672
42141W        W10535  29.203  13.666   1.335
42142W        W10536  24.666  33.086   0.914
42143W        W10537  22.292  15.101   0.412
42144W        W10538  15.205   6.810   2.842
42145W        W10539   5.214  17.007   2.380
42146W        W10540  42.735  35.321   1.398
42147W        W10541  41.061  19.303   3.158
42148W        W10542  41.652   9.345  12.150
42149W        W10543   0.933  19.153   0.986
42150W        W10544  36.068  38.882   0.878
42151W        W10545  27.494  29.685  12.953
42152W        W10546   3.248  19.071  13.909
42153W        W10547  14.091  33.411  13.780
42154W        W10548   2.145  18.172  13.623
42155W        W10549  26.664  26.573   2.748
42156W        W10550  43.780  17.138   3.623
42157W        W10551   7.758  21.012  10.147
42158W        W10552  24.155  25.223   1.465
42159W        W10553   1.981  40.004  11.117
42160W        W10554   3.201  26.726   2.331
42161W        W10555  26.465  20.027   3.387
42162W        W10556  12.790   6.589  12.586
42163W        W10557  25.363   1.892  12.810
42164W        W10558  35.932  22.416  11.969
42165W        W10559  17.130   3.430   3.279
42166W        W10560  42.479  23.131   2.339
42167W        W10561  24.904  36.516   1.894
42168W        W10562   4.989  26.723   0.554
42169W        W10563  30.782  16.445  13.380
42170W        W10564  20.035  16.123  11.939
42171W        W10565  14.148  33.570   0.004
42172W        W10566   0.944  26.631  14.576
42173W        W10567  25.583   2.467   4.283
42174W        W10568  17.990  15.979   3.299
42175W        W10569   9.453   8.250   1.935
42176W        W10570  43.212  20.805  11.676
42177W        W10571  14.372  37.594   4.545
42178W        W10572   2.950  21.147   0.231
42179W        W10573   3.457   8.074   5.022
42180W        W10574  23.034   2.311  14.391
42181W        W10575   9.145  34.665   0.431
42182W        W10576   0.671  24.998   0.925
42183W        W10577  32.446   0.485  13.309
42184W        W10578  40.106  39.338  13.287
42185W        W10579  24.412   9.407  12.092
42186W        W10580  17.082  36.511  11.879
42187W        W10581  13.674  37.763  11.968
42188W        W10582  33.857  37.921  12.170
42189W        W10583  11.365  31.660   3.742
42190W        W10584  23.909  11.312  11.239
42191W        W10585  43.205   2.331  13.153
42192W        W10586  10.649  16.600  10.720
42193W        W10587  30.094  28.133  11.808
42194W        W10588  32.534   8.783  13.988
42195W        W10589   3.719  10.911  14.993
42196W        W10590  44.285  30.075   0.011
42197W        W10591  23.178  27.586   2.786
42198W        W10592  33.526  28.318  14.948
42199W        W10593  29.669  20.585  10.786
42200W        W10594   0.525   6.201  11.510
42201W        W10595  44.214  13.776   2.858
42202W        W10596   2.601  29.764   1.317
42203W        W10597  42.618   3.804   3.605
42204W        W10598   3.988  18.694   4.231
42205W        W10599  23.042  12.725   3.697
42206W        W10600  10.560  17.006   4.177
42207W        W10601   6.577  30.055   0.198
42208W        W10602  15.197   3.763  14.959
42209W        W10603  35.519   0.717   4.084
42210W        W10604  18.793  16.598   2.843
42211W        W10605  25.964  43.200   1.720
42212W        W10606  42.478   5.250  13.463
42213W        W10607   2.758  13.018   5.097
42214W        W10608  10.092  23.601  12.016
42215W        W10609  30.404  12.551  12.478
42216W        W10610  41.069  39.489   1.343
42217W        W10611  30.969  37.339   9.889
42218W        W10612   9.619   7.279  10.821
42219W        W10613  24.534  35.540   0.799
42220W        W10614  13.601  43.589  12.786
42221W        W10615  21.577  42.798   0.399
42222W        W10616  12.728  10.023   3.108
42223W        W10617   5.714  22.922   1.163
42224W        W10618  10.877  25.142   3.218
42225W        W10619  17.493   9.062  10.889
42226W        W10620  14.202   7.506   4.701
42227W        W10621  35.977   1.681   2.157
42228W        W10622  12.264  10.036  13.553
42229W        W10623   7.204  15.474   1.861
42230W        W10624   9.850  43.368   2.470
42231W        W10625   5.844   7.207   2.402
42232W        W10626   9.705  41.874   4.666
42233W        W10627   0.253   4.838  14.612
42234W        W10628  23.950   3.999  14.806
42235W        W10629  17.310  41.071   1.418
42236W        W10630  24.943  18.257   2.106
42237W        W10631   3.434  36.102   0.778
42238W        W10632  25.226  27.347  14.545
42239W        W10633  23.691  23.555  14.116
42240W        W10634  43.462   8.655  11.479
42241W        W10635  37.120  24.136   0.490
42242W        W10636  24.509  11.701  12.376
42243W        W10637  21.725   4.824  10.646
42244W        W10638  10.177   9.408   4.633
42245W        W10639  42.042  40.478   4.595
42246W        W10640  24.681  14.395   1.210
42247W        W10641  31.902  25.504  12.866
42248W        W10642  35.141  20.797  12.134
42249W        W10643  10.225  37.329   3.636
42250W        W10644  31.358  38.434   2.380
42251W        W10645   8.602  23.528  13.612
42252W        W10646  16.824  14.790   2.485
42253W        W10647  26.711  43.864  10.589
42254W        W10648   7.075  24.975   3.871
42255W        W10649   8.788  39.756   1.286
42256W        W10650  28.145  29.004   1.984
42257W        W10651  17.842  42.893  10.470
42258W        W10652  37.889  35.337   1.698
42259W        W10653   6.628  28.485  11.472
42260W        W10654  11.210   8.521   2.363
42261W        W10655   0.457  40.337  10.661
42262W        W10656  13.547  44.032  13.674
42263W        W10657  23.200  35.334   2.926
42264W        W10658  14.307  35.625   0.022
42265W        W10659   9.904  15.667   2.997
42266W        W10660  21.551  16.666   3.825
42267W        W10661   9.624  23.037  10.665
42268W        W10662  30.920  10.978   0.960
42269W        W10663  12.384  13.779  13.031
42270W        W10664  35.185  28.064   4.952
42271W        W10665  33.082   1.745  11.647
42272W        W10666  17.707  43.945  14.934
42273W        W10667  12.270  22.794  14.446
42274W        W10668  43.431  36.157   4.439
42275W        W10669  24.987   1.165   2.728
42276W        W10670  33.516   7.382  14.545
42277W        W10671  39.955  21.937  12.090
42278W        W10672   3.854  18.078  12.668
42279W        W10673   7.225  12.355   4.567
42280W        W10674  29.429  16.592  13.397
42281W        W10675  12.269  40.486   4.850
42282W        W10676   6.213  23.542  10.524
42283W        W10677  16.724   2.774   1.847
42284W        W10678  40.644  36.152   4.011
42285W        W10679  38.300   2.479  10.728
42286W        W10680  18.792  39.358   2.651
42287W        W10681  30.611  30.070  14.913
42288W        W10682  43.946  10.792   2.632
42289W        W10683  36.411  43.474  10.426
42290W        W10684  39.042  26.927   0.482
42291W        W10685  14.848  33.422  14.260
42292W        W10686   6.822  12.415   0.522
42293W        W10687   1.530   2.215   4.124
42294W        W10688   3.451  41.940   0.228
42295W        W10689   5.212  42.766  11.567
42296W        W10690  34.473   5.647  11.585
42297W        W10691  36.946   4.185  13.128
42298W        W10692   2.050  14.017   2.765
42299W        W10693  34.067   3.743  11.507
42300W        W10694  15.849   8.745  13.603
42301W        W10695  19.664  25.609  14.534
42302W        W10696  40.172  21.894   3.636
42303W        W10697  10.915  10.819   1.911
42304W        W10698  22.194  28.866   2.200
42305W        W10699  27.478  31.974   4.122
42306W        W10700  39.746  35.156  13.778
42307W        W10701  11.782   3.787   0.972
42308W        W10702  22.505  36.616   3.186
42309W        W10703  18.604  32.331  11.162
42310W        W10704  44.616  36.986   1.657
42311W        W10705   9.587   9.795  11.582
42312W        W10706  27.561  35.120   1.295
42313W        W10707  20.199  14.710   3.825
42314W        W10708  43.709  35.499   3.676
42315W        W10709  18.617  26.982  12.991
42316W        W10710  32.456  37.131   3.679
42317W        W10711   9.363   9.249  14.083
42318W        W10712  36.447  35.977  10.358
42319W        W10713  26.504  31.727  12.058
42320W        W10714   1.261  39.908   3.487
42321W        W10715  43.013  22.597   4.447
42322W        W10716  42.784  28.738   3.271
42323W        W10717  36.577  21.439   1.708
42324W        W10718   3.206  39.166  13.449
42325W        W10719   2.872  35.572   3.657
42326W        W10720  27.687  21.223  14.989
42327W        W10721  11.173  11.555   4.509
42328W        W10722  44.699  35.503   5.016
42329W        W10723  17.293  32.374  14.323
42330W        W10724  44.005  38.288  13.847
42331W        W10725   2.253  24.097   4.953
42332W        W10726  23.234  37.470   2.265
42333W        W10727  34.581  36.393   0.281
42334W        W10728  40.994  15.597   4.382
42335W        W10729  21.310   3.747  14.233
42336W        W10730   8.900   1.911   0.882
42337W        W10731  33.663   7.475  12.831
42338W        W10732  10.935  20.274   0.520
42339W        W10733  44.403   1.742  14.807
42340W        W10734   8.570  14.356  10.760
42341W        W10735  35.934  41.997  12.022
42342W        W10736  27.048  39.762   1.954
42343W        W10737  41.349  20.481   1.198
42344W        W10738   1.882   3.229  12.598
42345W        W10739   7.820  38.606   3.318
42346W        W10740  16.647  18.803   2.228
42347W        W10741  31.656  31.923  12.079
42348W        W10742  33.520  41.916   4.077
42349W        W10743   8.199  29.274  13.067
42350W        W10744  24.769  15.416  12.489
42351W        W10745  10.139   9.631   3.124
42352W        W10746  36.903   3.704   1.539
42353W        W10747   9.391  12.939   3.723
42354W        W10748  28.166  17.435   0.345
42355W        W10749  24.492  32.959   4.631
42356W        W10750   4.343  36.290   0.914
42357W        W10751  32.196  20.073   0.418
42358W        W10752  38.414  31.350   4.111
42359W        W10753  42.993  15.684   1.665
42360W        W10754  39.449  16.756  13.117
42361W        W10755  19.749  18.534   3.793
42362W        W10756  11.097  12.782   0.153
42363W        W10757  13.260  14.392   0.016
42364W        W10758  10.108  29.128  12.088
42365W        W10759   5.529  17.398   3.262
42366W        W10760  27.057   6.425   1.316
42367W        W10761  20.084   3.671   3.777
42368W        W10762   4.933   1.774   4.554
42369W        W10763  33.618  40.999   1.770
42370W        W10764   0.812  37.397   3.620
42371W        W10765  35.045  28.124  11.216
42372W        W10766  24.038  41.811   1.976
42373W        W10767  19.269  42.129   0.960
42374W        W10768   7.176  16.527  10.925
42375W        W10769   4.266  15.342   3.657
42376W        W10770  42.095  33.110   1.217
42377W        W10771  28.117  19.013   4.225
42378W        W10772   8.932  34.977  13.490
42379W        W10773  34.214  18.618   2.863
42380W        W10774  38.303  29.457  13.017
42381W        W10775  24.570   0.911   2.219
42382W        W10776  14.620  33.802   0.073
42383W        W10777  29.578  39.805  12.423
42384W        W10778  33.131  33.310  12.604
42385W        W10779   5.971  18.321  13.951
42386W        W10780  15.319  26.709   0.716
42387W        W10781   0.508  21.522   3.753
42388W        W10782  16.223  25.437   2.874
42389W        W10783   3.441   1.004  11.813
42390W        W10784   2.408   6.863  13.897
42391W        W10785  44.287  24.763  11.925
42392W        W10786  38.212   8.398  14.971
42393W        W10787   3.003  31.063   3.122
42394W        W10788  33.808  23.086   2.947
42395W        W10789  35.765  32.797  12.464
42396W        W10790  14.510  20.293  12.582
42397W        W10791  17.080  19.637   4.424
42398W        W10792  32.186  13.024  14.475
42399W        W10793  19.217  29.417   3.663
42400W        W10794  43.336   8.909  11.915
42401W        W10795  22.469   4.976   1.443
42402W        W10796   0.183  31.497   0.824
42403W        W10797  35.753  14.719   0.927
42404W        W10798  43.231  42.283  14.731
42405W        W10799  19.990   1.498   3.112
42406W        W10800  25.965  12.549  13.448
42407W        W10801  20.988  25.761  11.739
42408W        W10802  11.618  32.977  11.139
42409W        W10803  15.378   0.862   1.144
42410W        W10804  13.013  16.309  11.040
42411W        W10805  17.656  26.559  13.003
42412W        W10806  24.641  30.765   4.883
42413W        W10807  31.126  44.574   0.657
42414W        W10808  22.188  31.106   2.691
42415W        W10809   1.313  28.918  14.096
42416W        W10810   0.011  21.979   4.410
42417W        W10811   8.337   4.310   3.700
42418W        W10812  33.109   1.007   1.391
42419W        W10813  31.551  19.070  14.829
42420W        W10814  32.490  18.872   3.636
42421W        W10815  28.931  27.482   4.232
42422W        W10816   8.418   1.926  11.289
42423W        W10817  25.630  12.035   0.753
42424W        W10818   1.839  26.629  11.946
42425W        W10819  44.673   4.411  10.278
42426W        W10820  12.173  32.148  10.857
42427W        W10821  32.602  41.452  13.111
42428W        W10822  15.757  24.653   5.054
42429W        W10823  27.011  44.201   2.654
42430W        W10824  35.411   5.751  14.948
42431W        W10825  42.560  23.160   0.355
42432W        W10826  13.407  27.754  11.959
42433W        W10827  26.806  38.084   0.224
42434W        W10828  39.446  15.094  10.673
42435W        W10829  26.439  22.566  12.582
42436W        W10830  14.813  23.060   4.578
42437W        W10831  33.204  43.706  13.019
42438W        W10832  25.759  29.427  13.006
42439W        W10833  34.101  17.195  10.365
42440W        W10834  37.551  11.640  13.428
42441W        W10835  31.181  30.496  13.061
42442W        W10836  19.002  25.754   4.512
42443W        W10837  31.191  27.592   3.805
42444W        W10838  23.958  40.496   3.124
42445W        W10839  30.207  44.530   2.138
42446W        W10840  38.573  20.748  14.011
42447W        W10841  14.546  40.901  12.975
42448W        W10842  13.720  27.475  12.823
42449W        W10843   8.770  28.110  11.214
42450W        W10844   7.126   2.300  12.011
42451W        W10845  44.527  12.642   1.510
42452W        W10846  16.002  16.077   3.629
42453W        W10847   4.778   3.392   0.762
42454W        W10848  25.090  32.031   1.224
42455W        W10849  37.555  16.692   3.231
42456W        W10850  44.943  41.591   3.484
42457W        W10851  23.003  10.835  14.233
42458W        W10852   7.481  16.181   4.255
42459W        W10853  37.528  18.735  14.328
42460W        W10854  14.008  32.659   0.574
42461W        W10855  13.612  43.410   4.124
42462W        W10856  30.079  27.683  13.914
42463W        W10857  31.731  14.574   2.656
42464W        W10858  32.979  40.839   2.262
42465W        W10859   1.319  27.977  13.017
42466W        W10860  15.835  44.673  12.015
42467W        W10861  39.339   3.664   3.742
42468W        W10862   4.043  35.699   4.333
42469W        W10863  15.083   8.322  13.244
42470W        W10864  42.879  39.458   3.430
42471W        W10865   9.222  34.852  12.074
42472W        W10866   3.129  19.697   1.326
42473W        W10867  41.869  44.415  12.197
42474W        W10868  12.407  12.996   1.063
42475W        W10869  11.397  27.118  12.500
42476W        W10870   3.304  13.875   1.421
42477W        W10871  14.337  22.558  12.031
42478W        W10872   0.725  32.933  14.848
42479W        W10873  16.546  26.225   1.732
42480W        W10874  30.147   1.944   1.282
42481W        W10875  38.378  43.315  13.364
42482W        W10876  38.320  32.892  12.739
42483W        W10877  13.318   0.296   4.163
42484W        W10878  19.654  31.114  14.749
42485W        W10879  36.144   8.879   2.398
42486W        W10880  44.818   5.268   4.351
42487W        W10881  13.324  32.625   3.963
42488W        W10882  10.203  44.403  14.069
42489W        W10883  13.968  19.309  11.797
42490W        W10884  11.412   6.156  14.471
42491W        W10885  16.160   0.284  11.591
42492W        W10886  26.598  28.660  13.892
42493W        W10887  28.176   4.285   1.279
42494W        W10888  16.300  32.113   1.293
42495W        W10889   1.691  24.063  14.861
42496W        W10890  44.499  13.099  14.843
42497W        W10891  25.895   7.780  14.397
42498W        W10892   8.263  10.391   3.648
42499W        W10893  14.610  27.011  12.951
42500W        W10894  38.978  19.849   4.740
42501W        W10895  39.051  26.066  10.681
42502W        W10896   7.914  13.584   4.905
42503W        W10897  12.666  38.861   3.167
42504W        W10898  40.357  23.045   4.417
42505W        W10899  33.058  20.150   2.370
42506W        W10900  21.262  32.149   3.610
42507W        W10901  38.464  34.342  12.356
42508W        W10902   6.976  31.561  14.017
42509W        W10903  13.626  19.627  11.028
42510W        W10904  31.860   0.892  10.399
42511W        W10905   0.965  10.061   0.947
42512W        W10906  34.015  18.465   1.381
42513W        W10907  16.894  17.591   0.460
42514W        W10908  24.195  39.294   3.304
42515W        W10909  19.139  13.081   1.848
42516W        W10910   0.533  32.968  10.534
42517W        W10911  43.213  43.118  10.607
42518W        W10912  28.123  30.416   0.463
42519W        W10913  13.176  25.929  14.397
42520W        W10914  14.183   3.400  12.179
42521W        W10915  42.822   8.848  13.769
42522W        W10916  17.064  37.461  12.115
42523W        W10917  12.022  16.263   1.307
42524W        W10918  10.366  25.531  12.390
42525W        W10919  17.731  10.594  13.610
42526W        W10920   1.802  22.594   1.899
42527W        W10921  23.538   3.012  12.301
42528W        W10922  27.144  30.116  14.613
42529W        W10923  36.886  38.017   2.693
42530W        W10924  33.306   1.327   3.621
42531W        W10925  42.098   8.466  13.509
42532W        W10926  30.307  36.632   0.187
42533W        W10927  22.849  14.297  12.128
42534W        W10928  39.399   1.748  13.096
42535W        W10929   8.116   3.466   0.468
42536W        W10930  14.204   7.453  13.836
42537W        W10931   7.198  34.862   0.322
42538W        W10932  22.717  42.823  10.320
42539W        W10933  23.252  24.034   4.531
42540W        W10934  40.862  11.506   1.874
42541W        W10935  38.892  29.970  12.961
42542W        W10936  10.745  35.198   0.913
42543W        W10937  26.337  34.774  12.555
42544W        W10938  36.509  22.806  13.515
42545W        W10939  18.886   8.299   4.821
42546W        W10940  28.535  42.863   2.647
42547W        W10941  10.339  27.189  12.626
42548W        W10942  21.583   9.777   4.904
42549W        W10943  44.330  24.650  14.910
42550W        W10944   2.907  34.050  14.350
42551W        W10945  27.443  10.815  11.661
42552W        W10946  33.938  33.350   3.296
42553W        W10947  14.158   1.409  14.188
42554W        W10948  16.179   4.759   1.269
42555W        W10949  31.584  18.069  11.158
42556W        W10950  13.349  32.602   3.448
42557W        W10951  42.407   9.933   1.954
42558W        W10952  28.642  19.555   3.823
42559W        W10953  29.122  19.222  13.293
42560W        W10954  35.853   4.895  14.988
42561W        W10955  40.426  29.920   3.189
42562W        W10956  32.145  22.906  13.542
42563W        W10957  21.540   8.809  13.257
42564W        W10958  18.091   0.966  10.637
42565W        W10959   0.527   7.069  12.895
42566W        W10960  41.432  19.072  13.480
42567W        W10961  40.212  20.502   1.249
42568W        W10962  29.200  42.029   1.391
42569W        W10963  17.819  20.824   4.377
42570W        W10964   7.765   7.601  11.922
42571W        W10965  39.533  37.563  13.244
42572W        W10966  34.612   0.378  13.882
42573W        W10967  41.533  32.658   4.120
42574W        W10968  27.534  33.898  14.056
42575W        W10969  13.731  32.316  13.300
42576W        W10970  26.989   8.398  10.695
42577W        W10971   6.172  28.635  13.374
42578W        W10972  19.765  29.907  13.074
42579W        W10973   4.251   5.158   4.506
42580W        W10974   7.230  25.670   4.468
42581W        W10975   5.567  28.455  11.453
42582W        W10976  27.166  42.573   4.521
42583W        W10977  10.121  27.610   4.635
42584W        W10978  30.053  29.614  12.399
42585W        W10979   9.719  21.703   3.655
42586W        W10980  31.406  21.885   1.707
42587W        W10981  37.994  41.940  13.449
42588W        W10982  37.443  25.446   3.254
42589W        W10983  38.649  44.773  13.404
42590W        W10984  37.670  39.877   3.615
42591W        W10985   5.754  36.952  14.899
42592W        W10986  35.359  20.943  10.543
42593W        W10987  35.654  10.284   1.915
42594W        W10988  29.689  11.736   5.048
42595W        W10989  37.665   3.304   4.604
42596W        W10990  19.108  11.855   3.629
42597W        W10991  12.427  43.815   2.118
42598W        W10992   7.462  16.760   1.313
42599W        W10993   5.327  12.933   5.354
42600W        W10994   8.849  24.447   4.525
42601W        W10995  40.754  31.860   3.762
42602W        W10996  10.598  42.879  13.039
42603W        W10997   0.082   2.830   2.000
42604W        W10998   3.923  36.200  12.215
42605W        W10999   6.222  24.865   1.570
42606W        W11000   2.862  22.183   4.091
42607W        W11001  18.558   8.580  14.863
42608W        W11002  15.626  25.443   0.269
42609W        W11003   0.897  33.901   1.883
42610W        W11004  44.016   3.921   3.516
42611W        W11005  15.558  30.108   0.675
42612W        W11006   2.748  20.977  13.899
42613W        W11007  35.661   6.420   0.838
42614W        W11008  14.144  37.292   4.200
42615W        W11009  40.994  14.520  11.004
42616W        W11010  41.828  23.695  14.297
42617W        W11011  39.687  30.163   4.184
42618W        W11012  44.755  11.411  12.457
42619W        W11013  14.711   7.367  13.945
42620W        W11014  27.514  10.106   4.624
42621W        W11015  31.626  26.643   0.485
42622W        W11016  11.863  29.041   2.272
42623W        W11017  24.631   8.679   3.315
42624W        W11018   6.749  39.560   0.344
42625W        W11019  43.768  11.718   4.320
42626W        W11020  14.390   0.640   5.038
42627W        W11021  26.523  17.597   2.645
42628W        W11022  39.000  20.008  14.310
42629W        W11023  16.361   5.224   1.860
42630W        W11024  23.081  30.754   1.302
42631W        W11025  24.172   9.313  12.548
42632W        W11026   8.789  44.215  14.020
42633W        W11027  44.492   6.673   2.191
42634W        W11028  43.422  38.741  12.016
42635W        W11029  29.254  11.510   0.659
42636W        W11030  43.436   0.387   0.492
42637W        W11031  17.698  37.896  11.172
42638W        W11032  20.214  41.435   2.416
42639W        W11033  18.246  38.965   1.809
42640W        W11034  31.846  15.639   3.647
42641W        W11035  37.798  43.332   3.725
42642W        W11036   5.779   1.698   9.804
42643W        W11037   8.107  35.972   5.112
42644W        W11038  23.033  35.493  10.544
42645W        W11039  31.618  19.048   0.874
42646W        W11040  21.143  38.006   4.701
42647W        W11041  13.740  39.411   3.201
42648W        W11042  21.294   3.903  12.857
42649W        W11043  27.371  16.111   1.612
42650W        W11044   1.710  41.872   1.290
42651W        W11045  34.701  43.474   1.939
42652W        W11046   2.408   6.835   1.777
42653W        W11047   4.720  18.790  12.842
42654W        W11048  20.519  36.667  11.545
42655W        W11049   3.273  10.591  12.554
42656W        W11050  17.270  31.329  14.945
42657W        W11051  32.051  36.455  12.217
42658W        W11052  25.492  24.133  11.869
42659W        W11053  44.290   8.147  14.272
42660W        W11054   0.306   8.722   3.874
42661W        W11055  34.460   3.520  14.463
42662W        W11056   3.680   5.014  12.341
42663W        W11057  14.084   1.096  13.770
42664W        W11058  38.888  33.437  14.801
42665W        W11059  37.914  41.196  13.931
42666W        W11060   4.902  34.194  13.883
42667W        W11061  13.749  19.613  10.524
42668W        W11062   4.343  31.232  14.811
42669W        W11063  30.940  19.180  14.477
42670W        W11064  40.561  18.041  11.949
42671W        W11065  27.236  17.730   3.192
42672W        W11066   6.911  12.686   4.830
42673W        W11067  41.886  42.089   1.703
42674W        W11068   1.233  32.117  11.361
42675W        W11069   1.412  43.409  11.085
42676W        W11070  34.208  43.734   0.830
42677W        W11071  27.035  31.921  11.805
42678W        W11072  41.019  33.611  14.356
42679W        W11073  23.023  34.503  10.510
42680W        W11074  10.927  13.274  13.527
42681W        W11075  34.621   3.535   0.371
42682W        W11076  26.083   5.501   4.670
42683W        W11077   6.785   9.338  13.129
42684W        W11078  39.895  44.376  11.075
42685W        W11079  40.105  15.611   3.668
42686W        W11080   5.714  30.226  11.052
42687W        W11081  22.502  18.074   5.114
42688W        W11082   9.296   5.307  14.236
42689W        W11083  19.596  19.374  10.777
42690W        W11084  35.621  20.313  14.845
42691W        W11085  36.881  44.901   2.738
42692W        W11086  44.783  10.755   1.633
42693W        W11087  18.775  15.782   1.913
42694W        W11088  19.453  37.429   5.016
42695W        W11089   8.148  27.596  13.103
42696W        W11090  11.645   1.740  11.682
42697W        W11091   0.575  31.434  13.772
42698W        W11092  24.710   6.189   2.809
42699W        W11093   7.119   0.373  12.575
42700W        W11094  12.729  35.179  12.324
42701W        W11095   0.388  29.249  11.196
42702W        W11096  26.472  29.220  11.230
42703W        W11097  44.337  16.429  11.148
42704W        W11098  16.264  25.374   1.266
42705W        W11099  15.432  20.729  12.035
42706W        W11100  27.206  30.085   0.134
42707W        W11101  30.293   4.533  11.163
42708W        W11102  21.498   1.774  11.884
42709W        W11103   0.431   0.926  12.105
42710W        W11104  42.248  22.177   3.273
42711W        W11105  34.617   5.969  14.206
42712W        W11106  20.261  24.916   3.626
42713W        W11107  13.910  30.562  10.718
42714W        W11108   0.936  39.107   1.409
42715W        W11109  25.486  15.998   3.499
42716W        W11110   6.329  25.801  13.291
42717W        W11111  26.606  27.848  11.406
42718W        W11112  36.018  43.842   1.482
42719W        W11113  17.696  39.852  12.908
42720W        W11114  29.668  34.478  12.658
42721W        W11115  10.774  23.409  13.747
42722W        W11116  13.880  19.544   3.786
42723W        W11117  10.768  23.297   4.656
42724W        W11118  29.078  30.052   0.774
42725W        W11119   8.209   0.858  10.963
42726W        W11120  14.651   7.718   2.348
42727W        W11121  41.332  20.033  12.644
42728W        W11122  38.048  36.546   2.320
42729W        W11123  22.769  38.777  13.501
42730W        W11124  15.208  16.593   4.701
42731W        W11125  25.763  40.389   1.204
42732W        W11126  16.512  30.568   0.487
42733W        W11127  18.596  36.153   3.250
42734W        W11128  13.542   8.469  13.332
42735W        W11129  39.011  19.463   4.383
42736W        W11130  17.124  28.465   5.072
42737W        W11131  39.630  19.557  11.012
42738W        W11132  36.085  10.879   0.960
42739W        W11133  34.177  21.325  13.042
42740W        W11134  25.642  16.366  13.509
42741W        W11135   2.030   9.475   4.084
42742W        W11136  21.756  28.194   1.391
42743W        W11137  12.378  34.447  13.854
42744W        W11138  17.804  44.427   4.605
42745W        W11139  13.851   0.529   2.610
42746W        W11140  11.903  40.017  13.656
42747W        W11141  27.436   2.180   4.407
42748W        W11142  33.063  38.332  12.545
42749W        W11143  23.110  20.368  14.407
42750W        W11144  28.689  35.322   1.819
42751W        W11145  41.977  32.462  12.093
42752W        W11146  16.594  32.051   3.561
42753W        W11147  41.585   6.313   2.198
42754W        W11148  39.005   9.902  14.973
42755W        W11149  23.813  30.510  13.324
42756W        W11150   1.244  35.689   3.163
42757W        W11151  29.183  11.720   4.097
42758W        W11152  22.220  37.848   3.859
42759W        W11153   2.161  20.541  14.646
42760W        W11154  23.729  17.573  13.442
42761W        W11155  35.812  28.573  14.946
42762W        W11156  19.236  38.786  12.935
42763W        W11157   8.770   1.027   2.155
42764W        W11158  15.844  15.875  13.828
42765W        W11159   5.401  12.138   3.311
42766W        W11160   0.379   3.938  12.113
42767W        W11161   6.285   7.764  14.866
42768W        W11162  36.666  31.695  14.832
42769W        W11163  43.296   6.153   2.753
42770W        W11164  39.140   3.518   1.377
42771W        W11165  18.585  44.350  11.393
42772W        W11166  31.218  20.759  12.413
42773W        W11167  42.902   9.125  12.096
42774W        W11168  20.862  13.253  13.408
42775W        W11169  40.524  14.258   4.517
42776W        W11170  15.461   3.346   0.921
42777W        W11171  39.023  23.785   2.285
42778W        W11172   7.164  13.744   3.133
42779W        W11173   9.892  39.540  12.017
42780W        W11174  44.474  22.491  12.373
42781W        W11175  33.488   9.298   4.580
42782W        W11176  32.144   3.741  13.970
42783W        W11177  29.781  17.598  12.817
42784W        W11178  39.497  44.290   0.493
42785W        W11179  38.150  25.070  13.036
42786W        W11180  40.312   3.512  11.234
42787W        W11181  29.387   8.398   5.064
42788W        W11182  31.427  39.519  14.832
42789W        W11183  35.135  28.552  10.951
42790W        W11184  17.191  22.814  13.773
42791W        W11185   1.238  30.809  12.899
42792W        W11186  42.516  19.305  10.972
42793W        W11187  22.576  20.898   2.207
42794W        W11188   8.184  41.790   0.314
42795W        W11189  28.968  43.884  11.447
42796W        W11190  17.706  10.454  12.853
42797W        W11191  16.665   6.437   1.583
42798W        W11192  36.493  26.666   1.904
42799W        W11193  18.557   5.750  13.063
42800W        W11194  44.777  18.621   4.212
42801W        W11195   0.972  34.068  14.494
42802W        W11196  31.120  29.047   0.942
42803W        W11197  43.526  29.512   3.111
42804W        W11198  30.704  28.660  12.946
42805W        W11199   1.337  44.076  10.934
42806W        W11200  21.120   9.645   4.699
42807W        W11201  16.817  38.454   4.232
42808W        W11202  22.639  38.349  12.062
42809W        W11203  14.144  29.934  13.832
42810W        W11204  21.562  24.916   3.738
42811W        W11205  19.014  16.146   0.918
42812W        W11206  33.558  27.776   3.104
42813W        W11207  37.076  30.956   0.845
42814W        W11208  25.245  26.244   2.588
42815W        W11209   3.311  41.133  14.916
42816W        W11210  13.121   3.955  13.481
42817W        W11211   1.372  23.591  11.488
42818W        W11212  30.127  28.195  13.838
42819W        W11213  20.671  30.049   1.025
42820W        W11214  19.320   8.833   2.637
42821W        W11215   6.213  34.099   4.640
42822W        W11216  34.894  13.193  12.677
42823W        W11217  40.000  26.531  11.445
42824W        W11218  26.548   3.958  11.210
42825W        W11219  25.758  19.814  13.016
42826W        W11220  44.852  41.986   0.887
42827W        W11221   3.671  25.801   0.897
42828W        W11222  41.955   3.046   1.305
42829W        W11223  37.933   0.756   1.731
42830W        W11224  29.966  12.063  14.900
42831W        W11225  15.270  29.346   0.791
42832W        W11226  17.678  42.942   1.905
42833W        W11227   1.971  30.985   3.203
42834W        W11228  37.854  29.010   0.371
42835W        W11229  34.188  10.210  11.465
42836W        W11230  20.709  30.361   0.464
42837W        W11231   5.632  24.637   4.215
42838W        W11232   5.242   2.546   1.190
42839W        W11233  38.499  33.354  14.466
42840W        W11234  21.635   5.292   0.972
42841W        W11235  42.069  19.529   5.183
42842W        W11236  42.233  13.473  12.061
42843W        W11237  32.815   6.621   4.661
42844W        W11238  31.558  41.814   3.612
42845W        W11239  14.530   2.217   3.878
42846W        W11240   6.419  39.092   4.703
42847W        W11241  12.370  43.379  12.016
42848W        W11242   0.812  15.293   2.955
42849W        W11243  32.044   6.351  11.180
42850W        W11244  17.662  28.832  14.389
42851W        W11245  40.806  32.536   0.447
42852W        W11246  15.035  24.924  13.427
42853W        W11247  35.408  16.408   0.278
42854W        W11248  32.962  19.472  12.986
42855W        W11249  22.224  35.191  13.928
42856W        W11250  25.647   6.199  11.590
42857W        W11251  13.914  41.512   2.353
42858W        W11252  35.813  18.435   0.057
42859W        W11253  36.098  44.350  10.161
42860W        W11254  23.229  19.215  14.508
42861W        W11255   9.433  42.365   2.524
42862W        W11256  36.517  42.716   0.428
42863W        W11257  36.005   3.042  13.109
42864W        W11258  26.358  25.442   3.268
42865W        W11259  11.678   9.302   1.592
42866W        W11260  25.275  40.830  11.913
42867W        W11261  22.805  22.712   3.426
42868W        W11262   8.156   4.426   1.894
42869W        W11263  28.901   9.408  10.690
42870W        W11264  26.016   0.021  12.633
42871W        W11265  33.580   3.103  11.921
42872W        W11266   0.418  26.652   0.445
42873W        W11267   9.786  43.804  10.958
42874W        W11268   5.738  21.149   3.361
42875W        W11269  41.640   5.833  13.496
42876W        W11270  13.219  26.457   2.853
42877W        W11271  10.237   3.812   4.176
42878W        W11272  40.484  16.140  12.630
42879W        W11273  13.352  14.671  13.733
42880W        W11274  32.462  10.272  11.095
42881W        W11275   7.175   4.200   2.091
42882W        W11276  12.628  38.351   0.815
42883W        W11277  35.650  35.082  12.135
42884W        W11278  11.626   0.432  12.721
42885W        W11279  15.982  18.621  11.135
42886W        W11280   6.262  15.964   3.159
42887W        W11281  10.365  15.864   4.204
42888W        W11282   0.243  10.898  13.923
42889W        W11283  33.623   2.005   2.259
42890W        W11284  31.971  40.050   2.801
42891W        W11285  11.665  23.513   2.760
42892W        W11286   4.925  22.268  12.107
42893W        W11287  38.010   0.411  14.552
42894W        W11288  22.484  19.640   0.406
42895W        W11289  44.490  42.792   1.824
42896W        W11290   3.711  15.744  13.539
42897W        W11291  19.712  37.293  12.364
42898W        W11292  12.757  30.358   0.307
42899W        W11293  12.623  31.195   1.655
42900W        W11294  21.209   4.864   0.409
42901W        W11295  17.164  19.307   0.332
42902W        W11296  15.235   3.837   0.869
42903W        W11297  33.649   1.374  12.024
42904W        W11298  44.351  13.302   0.695
42905W        W11299  23.108  36.343   1.445
42906W        W11300  10.663  23.128   1.205
42907W        W11301  40.975  25.532  13.618
42908W        W11302   9.855  29.424  13.380
42909W        W11303   6.670  36.519   1.971
42910W        W11304   9.815  40.892  12.494
42911W        W11305  30.641  18.815   2.203
42912W        W11306  18.122  24.037  12.396
42913W        W11307  15.521  23.963   4.668
42914W        W11308  33.501  28.077  12.948
42915W        W11309  16.419   1.387   1.966
42916W        W11310   1.472  11.381  14.381
42917W        W11311  35.049  41.239  14.285
42918W        W11312  14.277   4.464  13.076
42919W        W11313  28.901  43.407  12.364
42920W        W11314  26.136  38.200   4.165
42921W        W11315  30.465  26.683  12.166
42922W        W11316  11.626  40.017  14.099
42923W        W11317  40.414  16.567  14.729
42924W        W11318  33.387  25.689   3.160
42925W        W11319   0.866   1.779   2.797
42926W        W11320  39.924   6.101   1.208
42927W        W11321   2.693  31.514  12.453
42928W        W11322  16.305  24.589  11.987
42929W        W11323   9.134  39.051  11.540
42930W        W11324  42.272  35.860  13.493
42931W        W11325  37.474  17.987   1.288
42932W        W11326  31.976   6.880   1.363
42933W        W11327  33.873  22.216   3.003
42934W        W11328  31.519  37.286  12.380
42935W        W11329  28.895  15.224  14.970
42936W        W11330  41.838   3.909   0.072
42937W        W11331   9.655  28.730   4.179
42938W        W11332  32.409  39.312  13.767
42939W        W11333  29.572  43.938   3.099
42940W        W11334  28.938  26.582   0.999
42941W        W11335   6.286  14.882  13.012
42942W        W11336   1.436  29.054   3.434
42943W        W11337  12.295  43.833   3.692
42944W        W11338  22.978   8.780  11.509
42945W        W11339   9.756  43.751  12.429
42946W        W11340  11.359  18.195  11.266
42947W        W11341  18.541  33.902  12.123
42948W        W11342   4.229   6.652  11.895
42949W        W11343  22.378   3.411   3.183
42950W        W11344  13.798  27.507   3.946
42951W        W11345   7.290   2.371  11.519
42952W        W11346  37.343  41.426  12.448
42953W        W11347  29.284  43.453  13.713
42954W        W11348  36.375  26.547   4.750
42955W        W11349  29.184  38.440   3.705
42956W        W11350  27.713   1.828   0.009
42957W        W11351  27.191   0.946  10.677
42958W        W11352  25.878  22.200   1.264
42959W        W11353  10.289  39.134  13.830
42960W        W11354   3.917   0.767   1.850
42961W        W11355  11.774  35.597  11.570
42962W        W11356  15.843   8.171   0.875
42963W        W11357  12.619  38.969   0.302
42964W        W11358   3.225  35.638   4.687
42965W        W11359  11.686  25.662  14.788
42966W        W11360  24.634  41.839  13.985
42967W        W11361  44.314  31.859  14.587
42968W        W11362  29.599  19.191   3.766
42969W        W11363  25.179   3.667   1.325
42970W        W11364  27.533  10.443   2.819
42971W        W11365  24.139  41.822   1.455
42972W        W11366  20.643   4.775  14.787
42973W        W11367  17.526  21.697   4.275
42974W        W11368  11.148  39.600   2.669
42975W        W11369  38.581   3.466  11.594
42976W        W11370  23.779  34.930  12.780
42977W        W11371  39.388  24.273  11.448
42978W        W11372  42.281  16.430   1.006
42979W        W11373  15.632   8.622   4.418
42980W        W11374  41.548  31.970  12.036
42981W        W11375   8.234  33.444   2.697
42982W        W11376  14.674  29.302   2.418
42983W        W11377  43.693  13.814   2.826
42984W        W11378  43.459  11.891  13.562
42985W        W11379  16.634  37.409  10.340
42986W        W11380  33.929   9.929  10.324
42987W        W11381   6.308  28.368   4.648
42988W        W11382   2.342  35.482  13.320
42989W        W11383  26.971   5.190  12.569
42990W        W11384  20.451  14.541  11.429
42991W        W11385  26.247  12.339   2.996
42992W        W11386  37.997  30.459   2.739
42993W        W11387  33.033  35.407   1.858
42994W        W11388   5.963  27.027   1.377
42995W        W11389   6.739   6.891   3.586
42996W        W11390  30.446  31.204  12.521
42997W        W11391  37.440  39.520  10.442
42998W        W11392  42.009  42.270   3.276
42999W        W11393  16.020  12.162   1.862
43000W        W11394  16.076  14.322  11.922
43001W        W11395  14.121   9.353   1.178
43002W        W11396   6.205  23.621   0.766
43003W        W11397  31.011  35.187  13.945
43004W        W11398   0.210   8.801  13.084
43005W        W11399  24.107  33.124   1.385
43006W        W11400  24.577  16.089   4.563
43007W        W11401  25.786  21.021  14.354
43008W        W11402  15.112  21.247   3.393
43009W        W11403   6.721  40.585  11.867
43010W        W11404  25.156  37.438  10.069
43011W        W11405  17.708  28.343   1.780
43012W        W11406   2.898   1.297  12.951
43013W        W11407  24.797  19.929   1.860
43014W        W11408  21.072  18.997   0.436
43015W        W11409  30.668  31.438   1.822
43016W        W11410   4.452  15.782  13.080
43017W        W11411   2.865   8.314   1.957
43018W        W11412  26.874  44.945   3.741
43019W        W11413  29.902   8.868  12.854
43020W        W11414  30.646  24.232  12.485
43021W        W11415   3.524  43.779  11.483
43022W        W11416  43.027  13.091   0.406
43023W        W11417  34.606  18.085  14.985
43024W        W11418  41.918  30.227   0.619
43025W        W11419  24.899  11.114  13.007
43026W        W11420  30.416   2.934   2.971
43027W        W11421  39.976   1.749  10.934
43028W        W11422   4.291  20.267   3.175
43029W        W11423  29.885  18.126  13.602
43030W        W11424  25.995  14.031   2.328
43031W        W11425  33.495  39.792  10.056
43032W        W11426   9.943  17.760  12.177
43033W        W11427  43.538  13.398  14.537
43034W        W11428  41.936   6.979   0.770
43035W        W11429  22.410  41.093  10.347
43036W        W11430  36.349  28.116  10.328
43037W        W11431   8.038  24.801  11.381
43038W        W11432  30.801  43.012  12.115
43039W        W11433  43.751  23.596   2.380
43040W        W11434  39.326  39.348  10.773
43041W        W11435  17.717  33.020   1.235
43042W        W11436   3.304   5.038   4.308
43043W        W11437  36.002  42.830  11.606
43044W        W11438  23.887  18.795  14.598
43045W        W11439  17.000  15.029  12.109
43046W        W11440   7.124  34.471  10.875
43047W        W11441   0.430  11.055   4.298
43048W        W11442   3.060  39.806  14.299
43049W        W11443   6.685  17.247   4.366
43050W        W11444  21.488  12.654   0.706
43051W        W11445   1.142  13.220   0.302
43052W        W11446  15.044  36.894  10.528
43053W        W11447  23.672  37.177  13.450
43054W        W11448  29.009   1.229   1.883
43055W        W11449  19.436  11.142   4.173
43056W        W11450  34.917   3.736   3.618
43057W        W11451  37.123  40.228  13.967
43058W        W11452  20.977   5.050   4.602
43059W        W11453  40.289  25.527   0.929
43060W        W11454  17.718  41.108   2.776
43061W        W11455  11.866   9.662   4.319
43062W        W11456  35.203   2.407   3.840
43063W        W11457  33.077  25.653  12.104
43064W        W11458  21.603  10.110   2.359
43065W        W11459   2.709  12.387   1.498
43066W        W11460  12.379  19.711  13.914
43067W        W11461  34.436  33.415   3.388
43068W        W11462  17.220   3.836  10.677
43069W        W11463  32.635  27.116   0.911
43070W        W11464  20.091   6.454   1.335
43071W        W11465   7.688   1.959  13.900
43072W        W11466   7.234  35.550   0.938
43073W        W11467  42.662  12.274   3.548
43074W        W11468   2.943  37.986  12.906
43075W        W11469  38.031  29.963  10.710
43076W        W11470  34.426  10.244  12.806
43077W        W11471  31.578  38.044  12.558
43078W        W11472  15.253   1.034  13.419
43079W        W11473  10.482  44.489   0.047
43080W        W11474  11.351  27.140   0.363
43081W        W11475  21.087   9.121   4.590
43082W        W11476  36.876  26.084   1.450
43083W        W11477  25.209  32.825   2.288
43084W        W11478  19.918  34.911  11.430
43085W        W11479  34.380  17.181   1.430
43086W        W11480   9.829  34.632   3.027
43087W        W11481  12.817  11.154   1.713
43088W        W11482  20.556   5.286   4.846
43089W        W11483  25.011  22.250  11.650
43090W        W11484  17.541  26.718  12.018
43091W        W11485  39.314  14.770   4.411
43092W        W11486  14.576  11.948   3.214
43093W        W11487  36.684  44.676   4.100
43094W        W11488   8.610   5.251  11.887
43095W        W11489  27.972  41.750   1.655
43096W        W11490   7.644  17.228   4.698
43097W        W11491  22.677  43.286   2.637
43098W        W11492   4.286  13.991   0.354
43099W        W11493   2.530  19.281  12.078
43100W        W11494  32.992  29.571  10.961
43101W        W11495  15.233  31.636   0.083
43102W        W11496  29.358   8.847   1.048
43103W        W11497   0.570  44.986  12.845
43104W        W11498   0.738  19.155  12.501
43105W        W11499  41.206  10.416  11.061
43106W        W11500  28.681   0.835   4.087
43107W        W11501  21.944  22.515   4.544
43108W        W11502  35.866  40.312  12.635
43109W        W11503  23.249   3.785   2.336
43110W        W11504   2.725  28.400   3.414
43111W        W11505  15.082  18.035  11.514
43112W        W11506  40.711  18.262   4.564
43113W        W11507   6.850  21.209   0.833
43114W        W11508  33.649  40.735  14.025
43115W        W11509  19.183  32.241   2.761
43116W        W11510  26.709  42.109  10.870
43117W        W11511   4.247  27.693  10.618
43118W        W11512  32.617  27.689  11.592
43119W        W11513   3.695  44.751   4.127
43120W        W11514  37.171  39.980   0.897
43121W        W11515  35.270  43.715  14.272
43122W        W11516  10.407  27.735  14.404
43123W        W11517  27.246  33.360   2.278
43124W        W11518  21.677  18.850  12.282
43125W        W11519   9.525  23.931   3.196
43126W        W11520  21.017  37.801   3.299
43127W        W11521  18.318  12.032   1.275
43128W        W11522  27.232  32.572   1.972
43129W        W11523  27.631   1.383  13.004
43130W        W11524   3.547  35.581   4.284
43131W        W11525  31.365  22.179   3.753
43132W        W11526  38.269  14.193  13.508
43133W        W11527   1.287  20.717  13.052
43134W        W11528  35.628  43.523  13.922
43135W        W11529  19.257  10.119   2.213
43136W        W11530  24.932  19.614  11.087
43137W        W11531  37.114  11.234  12.756
43138W        W11532  10.721  13.272   4.151
43139W        W11533  39.768  23.592  12.436
43140W        W11534  22.076  19.205   4.060
43141W        W11535  18.516   6.687  14.868
43142W        W11536   4.946  18.168  11.174
43143W        W11537  27.177   0.762  11.646
43144W        W11538  28.627   3.456   2.596
43145W        W11539  26.522  27.939   2.906
43146W        W11540   6.864   0.559  13.600
43147W        W11541  13.752   7.001  12.575
43148W        W11542  25.043  22.600  13.767
43149W        W11543  21.333   6.362  12.977
43150W        W11544  30.850  28.116   1.336
43151W        W11545  27.602  18.819   3.957
43152W        W11546  34.902  27.332  12.974
43153W        W11547  37.078  39.429   0.863
43154W        W11548   0.712   7.448   5.066
43155W        W11549  33.414  42.559   1.919
43156W        W11550  35.541   3.641  10.998
43157W        W11551  26.658  31.360   2.769
43158W        W11552  39.006  43.586  11.242
43159W        W11553  31.686  16.552  11.106
43160W        W11554   4.903   6.810  13.112
43161W        W11555  35.381  32.164  12.819
43162W        W11556  39.844   4.341  11.219
43163W        W11557  32.397  25.972  12.570
43164W        W11558  17.668  32.450  12.217
43165W        W11559  14.670  41.555  13.401
43166W        W11560  42.268  23.573   4.139
43167W        W11561   7.538   7.830  14.391
43168W        W11562   9.878  25.781   4.482
43169W        W11563  30.877   3.669  12.125
43170W        W11564  12.174  43.446  11.556
43171W        W11565  35.810   0.416  11.564
43172W        W11566  19.204   5.338   2.164
43173W        W11567  30.582  23.466   1.245
43174W        W11568  40.865  41.800  13.140
43175W        W11569  15.189  23.584   4.828
43176W        W11570   8.581  27.659   3.699
43177W        W11571  42.777  24.983  10.692
43178W        W11572  36.399   0.647  13.232
43179W        W11573  16.072   6.404  13.532
43180W        W11574  30.550   7.661  10.756
43181W        W11575  32.138  12.188  14.488
43182W        W11576   6.469  23.610   2.690
43183W        W11577  34.150  22.640   3.735
43184W        W11578  22.978  41.672  13.856
43185W        W11579  29.508  23.970   4.219
43186W        W11580  16.298  29.700  14.464
43187W        W11581  42.473  12.766  13.606
43188W        W11582  10.080  11.848   4.117
43189W        W11583   4.677  10.876   1.591
43190W        W11584  34.604  16.661   2.166
43191W        W11585  36.080  30.421  12.208
43192W        W11586  36.466  36.537   0.432
43193W        W11587  27.421  32.664   0.454
43194W        W11588  28.518  42.526   0.068
43195W        W11589  28.245  41.012  14.374
43196W        W11590  34.927   7.646   0.429
43197W        W11591  38.296  30.400   3.165
43198W        W11592  44.340  23.013  11.662
43199W        W11593  22.233  13.848   3.274
43200W        W11594  28.606  24.612   2.848
43201W        W11595   3.537   1.435  14.518
43202W        W11596  24.848   0.775  12.118
43203W        W11597  41.975   8.088  11.065
43204W        W11598  11.614  24.584  12.053
43205W        W11599  25.568  14.209   1.720
43206W        W11600  41.986  18.636   0.715
43207W        W11601  37.517  14.326  11.373
43208W        W11602  26.130  26.661   2.726
43209W        W11603  33.837  24.691   4.301
43210W        W11604  17.003  41.449   4.941
43211W        W11605  34.139  15.735   3.740
43212W        W11606  15.744  12.245  13.901
43213W        W11607  42.496  27.565   0.708
43214W        W11608   8.711  15.073   2.922
43215W        W11609  28.640  21.604   0.976
43216W        W11610  41.722  34.258  13.072
43217W        W11611  37.538   5.789   0.896
43218W        W11612  39.862   4.908   4.577
43219W        W11613   4.749   8.599   0.468
43220W        W11614  25.562  14.557   1.276
43221W        W11615  17.775  41.545   4.074
43222W        W11616  18.042  40.372  11.163
43223W        W11617   3.762  40.321  14.728
43224W        W11618   8.530  21.974   4.854
43225W        W11619  42.208   8.448   1.937
43226W        W11620   4.030  25.770  11.029
43227W        W11621  18.137  44.290   1.199
43228W        W11622  43.139  16.695  12.646
43229W        W11623  18.320  41.390   4.423
43230W        W11624  32.354  15.081  11.521
43231W        W11625  44.877  22.227  14.799
43232W        W11626  32.695  27.872   4.011
43233W        W11627   1.509  21.717  12.141
43234W        W11628   7.168  23.729  13.576
43235W        W11629  40.403  28.508  10.745
43236W        W11630  39.136  10.918   4.516
43237W        W11631  15.136   7.992   0.642
43238W        W11632  39.050  22.462  12.127
43239W        W11633  11.406  25.014   3.500
43240W        W11634  17.289  16.366   1.318
43241W        W11635  34.656  25.657   0.719
43242W        W11636   3.367  20.565  12.734
43243W        W11637   7.168  41.167   0.972
43244W        W11638   5.204  39.530  12.882
43245W        W11639  34.974  28.323  12.898
43246W        W11640  25.717  19.714  13.528
43247W        W11641  21.358  40.996   2.647
43248W        W11642  23.719  11.289   3.599
43249W        W11643  16.206  31.432   1.903
43250W        W11644  20.549  25.720   1.277
43251W        W11645  37.057  24.660   3.602
43252W        W11646   2.191   7.981  14.907
43253W        W11647  20.735   8.681   1.279
43254W        W11648  33.642  36.973  10.598
43255W        W11649   4.271  20.779   2.302
43256W        W11650  29.981  32.067   1.676
43257W        W11651  30.377  40.731  14.380
43258W        W11652  43.478   8.694   2.591
43259W        W11653  13.266  16.860   4.072
43260W        W11654   7.413  25.526   1.032
43261W        W11655  19.308  20.252   3.886
43262W        W11656  43.323   9.951  11.973
43263W        W11657  18.134  32.117  14.078
43264W        W11658   1.732  36.045  13.080
43265W        W11659  40.728  25.128  10.764
43266W        W11660  21.478  23.094  14.268
43267W        W11661  11.608  18.087  13.907
43268W        W11662  32.564  43.437  14.037
43269W        W11663  27.736  32.075   3.656
43270W        W11664  19.174  33.472   2.134
43271W        W11665  14.820   6.268   2.864
43272W        W11666   5.377  23.729   2.154
43273W        W11667  32.092  30.264  12.264
43274W        W11668   1.193  26.674  12.674
43275W        W11669  23.690   9.337   4.448
43276W        W11670  12.802  17.275   3.283
43277W        W11671  21.617  22.591  12.971
43278W        W11672  12.188  37.855  13.963
43279W        W11673  18.691  42.517  12.366
43280W        W11674  37.110  25.130  12.882
43281W        W11675  28.202  42.471   4.766
43282W        W11676  27.668  27.164  13.666
43283W        W11677  13.060  23.833   3.578
43284W        W11678  41.373  38.461  14.380
43285W        W11679   6.293  29.969   4.606
43286W        W11680  40.474  11.861   1.899
43287W        W11681  38.060   3.760   3.038
43288W        W11682  34.659  33.305  10.931
43289W        W11683  42.292  10.198   0.922
43290W        W11684  17.179  42.804   4.544
43291W        W11685  12.093  11.330   2.538
43292W        W11686   2.432  19.008  10.481
43293W        W11687   3.695   5.871  10.957
43294W        W11688  16.256  29.222   1.247
43295W        W11689   0.370  43.835   4.601
43296W        W11690   4.879  29.338  14.673
43297W        W11691  14.155   8.135  10.689
43298W        W11692  13.608   0.107  10.351
43299W        W11693  35.401  37.320   3.152
43300W        W11694  24.516  25.210  11.141
43301W        W11695   6.937  24.220   0.766
43302W        W11696  23.543   2.377  14.306
43303W        W11697  43.897  17.754   3.425
43304W        W11698  29.512  25.325  14.490
43305W        W11699  12.708  43.293   4.614
43306W        W11700   9.821  26.992   1.921
43307W        W11701  30.326  41.422  11.224
43308W        W11702  21.731  30.448   2.373
43309W        W11703  10.884  23.109   3.817
43310W        W11704  16.276  32.886  11.685
43311W        W11705  10.721  23.428  14.267
43312W        W11706  17.198   6.799  14.890
43313W        W11707  43.725  38.069  11.622
43314W        W11708  40.721  15.595  14.939
43315W        W11709  23.169  44.378  11.520
43316W        W11710   2.704  41.084  14.141
43317W        W11711  41.091  14.021  11.666
43318W        W11712  15.663  19.158   2.693
43319W        W11713   0.360  23.896   3.795
43320W        W11714  20.997  25.768   0.838
43321W        W11715   6.647  31.923   0.474
43322W        W11716  29.876  35.296  12.942
43323W        W11717  11.358  14.220   3.785
43324W        W11718  38.645  32.427   1.452
43325W        W11719   0.237  11.708  14.730
43326W        W11720  25.034   3.227   3.596
43327W        W11721  12.956  20.473  14.462
43328W        W11722  34.360   9.922   2.728
43329W        W11723   6.633  44.554  10.634
43330W        W11724  24.855  37.638   3.864
43331W        W11725  26.594   2.329   5.019
43332W        W11726  29.366  16.364  11.139
43333W        W11727  18.834   8.712  14.422
43334W        W11728   0.308   6.874   3.217
43335W        W11729   7.295   6.724  10.670
43336W        W11730  28.871  43.316   0.016
43337W        W11731  29.716  38.005   1.435
43338W        W11732  36.889  37.405  12.812
43339W        W11733  28.230  18.232   4.609
43340W        W11734  15.861  13.063  10.764
43341W        W11735  33.661  28.684   0.753
43342W        W11736  28.047  27.191   2.143
43343W        W11737  33.364  23.273  13.954
43344W        W11738  21.621  39.281   1.290
43345W        W11739   5.929  40.123  12.330
43346W        W11740   8.292   5.280  10.646
43347W        W11741  15.959  21.202   1.938
43348W        W11742  40.549  44.906  11.552
43349W        W11743  25.836  36.573   0.309
43350W        W11744  36.487  16.421   4.650
43351W        W11745  35.081  40.527   0.219
43352W        W11746  42.326  13.220   1.350
43353W        W11747   3.068   3.678   1.203
43354W        W11748  27.966   8.304   3.677
43355W        W11749   9.902   2.385   1.950
43356W        W11750   8.354   5.247   1.325
43357W        W11751  24.985  31.927  12.071
43358W        W11752  25.129  33.524  11.030
43359W        W11753   8.870  35.562  10.379
43360W        W11754  40.771  37.496   0.515
43361W        W11755   0.581  22.941   3.659
43362W        W11756  35.580  37.948  10.680
43363W        W11757  12.421  12.094  12.039
43364W        W11758  38.667  19.700  10.317
43365W        W11759  32.103   5.849   1.490
43366W        W11760  38.325  22.561   2.283
43367W        W11761  22.870  29.511   2.338
43368W        W11762  14.600  19.123  11.378
43369W        W11763  38.351  16.891   0.363
43370W        W11764  43.404  44.738   1.249
43371W        W11765   3.078   7.408  11.007
43372W        W11766  40.329  42.344  11.186
43373W        W11767  40.715  35.639  12.874
43374W        W11768  37.581  32.165  12.030
43375W        W11769  16.808  15.681   2.713
43376W        W11770  19.885  25.573   4.767
43377W        W11771  30.111   1.766   2.198
43378W        W11772  34.509  10.227  12.319
43379W        W11773  14.503  35.828  14.325
43380W        W11774  20.990   5.443  13.147
43381W        W11775  14.395  20.662  14.389
43382W        W11776  12.193   9.131  11.913
43383W        W11777   6.728  14.242   2.457
43384W        W11778   0.974   9.875   4.812
43385W        W11779  20.279  25.615   3.385
43386W        W11780  25.470  14.727   2.707
43387W        W11781  16.735  22.131  14.230
43388W        W11782  16.062  22.780  11.528
43389W        W11783   6.637  13.596   9.819
43390W        W11784  21.586  15.328   0.816
43391W        W11785  41.038  44.476  13.955
43392W        W11786  43.063  44.834   2.221
43393W        W11787  18.560   3.201   1.927
43394W        W11788   9.369  14.101   2.231
43395W        W11789   2.671  40.334  13.401
43396W        W11790  33.870  39.590   2.294
43397W        W11791  19.016   6.314   2.401
43398W        W11792  39.053  26.768  12.380
43399W        W11793  16.772  14.767   3.018
43400W        W11794  27.596   1.379   4.516
43401W        W11795  27.978  20.113  10.938
43402W        W11796  39.353  40.666   3.857
43403W        W11797  23.076  20.760   3.138
43404W        W11798   7.807  40.764  14.301
43405W        W11799  18.769   6.221  14.824
43406W        W11800   4.998  25.848   0.538
43407W        W11801  36.067  36.360  12.927
43408W        W11802  13.638  23.218   3.400
43409W        W11803   5.996  15.611   4.878
43410W        W11804  29.511  37.477  14.528
43411W        W11805  25.223   1.484  12.532
43412W        W11806  20.597   2.773   0.023
43413W        W11807  36.444   8.334  14.414
43414W        W11808  43.494  39.054  11.580
43415W        W11809  42.685  14.872  13.988
43416W        W11810   8.251  21.044   0.983
43417W        W11811  30.438  35.973  13.363
43418W        W11812  13.034   9.825  13.613
43419W        W11813  36.534  16.097   4.248
43420W        W11814   4.101  12.865   4.210
43421W        W11815  33.474  33.468  14.268
43422W        W11816  19.465  39.553   1.694
43423W        W11817  27.569  28.937   2.463
43424W        W11818  22.937  30.563   1.758
43425W        W11819  13.916  12.110   3.502
43426W        W11820   3.914   4.519   0.868
43427W        W11821  31.149  14.057  13.986
43428W        W11822  25.966  21.593  13.075
43429W        W11823  27.014  42.294   1.358
43430W        W11824  33.082  34.845  14.479
43431W        W11825   3.999  13.328  12.429
43432W        W11826  26.906  11.048   3.619
43433W        W11827  23.738  23.652   1.357
43434W        W11828   4.786  33.467  12.010
43435W        W11829  27.291  17.190   0.526
43436W        W11830  10.096   8.007   0.795
43437W        W11831  17.419  38.667   5.005
43438W        W11832  16.281  31.739   2.318
43439W        W11833  38.379  26.415   0.819
43440W        W11834  38.821  20.542  13.491
43441W        W11835  36.910  41.245  14.866
43442W        W11836  19.609   1.425  11.088
43443W        W11837   4.170  35.119  13.506
43444W        W11838   1.084  29.133   2.552
43445W        W11839  30.891  27.545  12.628
43446W        W11840  23.561  35.299  11.525
43447W        W11841  32.971  32.919  10.979
43448W        W11842  40.001  10.019   1.723
43449W        W11843  22.640  12.870   2.738
43450W        W11844  31.421  33.645  11.595
43451W        W11845  23.759  26.420  13.007
43452W        W11846  31.982   7.054  14.957
43453W        W11847   2.509  27.624  10.505
43454W        W11848   7.516  14.599   2.566
43455W        W11849   4.992  31.046   2.235
43456W        W11850  27.537  34.398   0.793
43457W        W11851  30.995  38.560   3.722
43458W        W11852  21.570   6.356  14.384
43459W        W11853  28.680  19.801   3.270
43460W        W11854  27.027   2.251  13.115
43461W        W11855  13.602  17.737  10.925
43462W        W11856  40.909  36.307  11.511
43463W        W11857  36.905  29.568   4.159
43464W        W11858  31.450  42.728  14.995
43465W        W11859  25.267  29.607  13.066
43466W        W11860   1.325  44.508  11.221
43467W        W11861  23.986  23.444  13.715
43468W        W11862  30.849  32.251   2.762
43469W        W11863  33.848  42.324   1.766
43470W        W11864  21.480   9.261  11.118
43471W        W11865  35.605  15.797   3.271
43472W        W11866  29.852  24.196  13.009
43473W        W11867  42.705  22.678   1.938
43474W        W11868  18.195  34.626  14.732
43475W        W11869  12.886  27.140  11.603
43476W        W11870   3.975   5.313   2.658
43477W        W11871  22.039  43.507   4.128
43478W        W11872   2.271  29.870  11.046
43479W        W11873  13.222  12.131  14.414
43480W        W11874   7.340  38.970  14.571
43481W        W11875  33.959   7.293   4.901
43482W        W11876  10.612  25.107  14.849
43483W        W11877  27.215  12.301   1.003
43484W        W11878  42.841  40.819  13.767
43485W        W11879  18.131  10.171  12.348
43486W        W11880   2.034  26.399  12.967
43487W        W11881  39.791   4.687   0.263
43488W        W11882  34.854  14.300   3.706
43489W        W11883  26.985  29.768  12.827
43490W        W11884  44.175  36.231   0.043
43491W        W11885  31.748  19.134   1.499
43492W        W11886  39.252  20.586   0.401
43493W        W11887  36.606  31.146   4.620
43494W        W11888  22.618  20.270   0.030
43495W        W11889  23.286   3.729  12.888
43496W        W11890  27.225  40.281   3.175
43497W        W11891  15.724  26.193   2.729
43498W        W11892  21.601  43.313  13.611
43499W        W11893  32.680  40.858   1.325
43500W        W11894  25.173  25.782  11.164
43501W        W11895  41.701  42.666  13.948
43502W        W11896  18.047  34.913  14.308
43503W        W11897   9.888   9.658  12.917
43504W        W11898  12.772  28.102   1.857
43505W        W11899   4.426  23.145  14.904
43506W        W11900  30.116  29.881  11.086
43507W        W11901  13.318  32.975   2.658
43508W        W11902   4.829  38.085   0.765
43509W        W11903  19.798  15.545   0.162
43510W        W11904  42.583  18.443  13.278
43511W        W11905  27.075   1.351   5.318
43512W        W11906  26.471  35.165  14.403
43513W        W11907  21.913  12.099   4.781
43514W        W11908  15.110  16.486   2.744
43515W        W11909   0.056  17.329  12.088
43516W        W11910  29.179  12.901  12.137
43517W        W11911   9.216  28.276  14.750
43518W        W11912  39.226  12.539   3.675
43519W        W11913  39.868  11.161  12.401
43520W        W11914  31.077   3.297   1.952
43521W        W11915   8.485  36.092   1.829
43522W        W11916  18.781  34.352  12.054
43523W        W11917  37.862  43.943   4.597
43524W        W11918  11.060  32.526  11.573
43525W        W11919  24.768  42.098   0.311
43526W        W11920   9.762  24.584   1.673
43527W        W11921   7.441   8.321  11.015
43528W        W11922  32.694   8.399   2.596
43529W        W11923   3.170   1.256  14.197
43530W        W11924  25.725  35.325   5.025
43531W        W11925  44.565   5.285  11.443
43532W        W11926  10.764  15.619  12.258
43533W        W11927  32.537  22.777   4.576
43534W        W11928  24.085   3.160   3.251
43535W        W11929  33.351  39.316   2.694
43536W        W11930  13.182   7.412   4.948
43537W        W11931   1.259  11.527   2.712
43538W        W11932   1.942  20.008   0.762
43539W        W11933  23.541   0.344  14.877
43540W        W11934   6.692  37.541  11.148
43541W        W11935   2.006   1.330  10.717
43542W        W11936  16.036  17.216   0.289
43543W        W11937   8.171  29.663   1.800
43544W        W11938   0.631  11.739   3.393
43545W        W11939  30.386  17.146  11.043
43546W        W11940  12.169  13.860  11.100
43547W        W11941  32.912   3.729   2.761
43548W        W11942  10.321  41.740  13.032
43549W        W11943  42.270  30.946   3.767
43550W        W11944  24.532   0.934   4.133
43551W        W11945  31.599  13.876  13.078
43552W        W11946  13.419  39.664   0.746
43553W        W11947  41.265  40.003   3.269
43554W        W11948  23.531   4.334  10.434
43555W        W11949  15.242  20.590  10.609
43556W        W11950  18.484   4.636   3.221
43557W        W11951  13.231  12.920  11.965
43558W        W11952   6.412  33.011   1.973
43559W        W11953  31.055  10.279  12.447
43560W        W11954   5.276  26.665  10.555
43561W        W11955  44.813  41.041   4.964
43562W        W11956  42.061   0.376  13.804
43563W        W11957  21.675  19.085  13.302
43564W        W11958  21.620  12.116  11.127
43565W        W11959  36.942  31.595   3.430
43566W        W11960   1.659  43.884   1.802
43567W        W11961  32.919   0.717   4.116
43568W        W11962  17.890  25.571   3.253
43569W        W11963   9.202  15.263   0.842
43570W        W11964  23.764  33.010   3.287
43571W        W11965  10.921  15.065   1.399
43572W        W11966   5.524  35.903   0.530
43573W        W11967  33.448  15.834  14.165
43574W        W11968  36.094   2.229  12.009
43575W        W11969  28.642   9.742   1.463
43576W        W11970  35.391   1.586   3.638
43577W        W11971  29.781  33.393  14.074
43578W        W11972  35.772  17.036  12.948
43579W        W11973  29.675  32.222  11.919
43580W        W11974  21.987  11.040   4.939
43581W        W11975  24.261   1.888  14.412
43582W        W11976  29.886  28.004   1.700
43583W        W11977   4.622  44.942   2.094
43584W        W11978  14.210  27.653  12.951
43585W        W11979   1.515   8.167  12.987
43586W        W11980  11.880  20.472  13.989
43587W        W11981  12.819  28.573  14.830
43588W        W11982  41.049  41.002   4.268
43589W        W11983  28.092  25.080  11.106
43590W        W11984  18.042  14.692  13.555
43591W        W11985  17.269   2.734   1.853
43592W        W11986  13.094  30.009  14.793
43593W        W11987  11.594   1.047   4.134
43594W        W11988  31.316   5.684  12.065
43595W        W11989  39.352  22.344  11.563
43596W        W11990  25.203  43.897  12.889
43597W        W11991   7.709   6.201  14.107
43598W        W11992  17.948   8.873   3.776
43599W        W11993  34.844  35.127   2.320
43600W        W11994  31.099  24.635   0.860
43601W        W11995  15.097  40.226   1.213
43602W        W11996  21.683  44.659   2.368
43603W        W11997  23.281  39.434  11.693
43604W        W11998  38.035  24.553   1.762
43605W        W11999  44.362  18.017  10.711
43606W        W12000  31.163   9.198   3.411
43607W        W12001   3.374  12.917  13.966
43608W        W12002  30.970   3.605   2.783
43609W        W12003   4.006  32.175   2.829
43610W        W12004  27.776  36.544   3.869
43611W        W12005  43.106   2.040  12.507
43612W        W12006  18.056   9.781   4.930
43613W        W12007  21.610  40.532  11.639
43614W        W12008   3.373  22.316  12.155
43615W        W12009  18.488  25.185  12.060
43616W        W12010  29.174  43.426   4.107
43617W        W12011  37.331  18.317  11.166
43618W        W12012   1.766  31.599   4.824
43619W        W12013  38.637  15.606  11.550
43620W        W12014  27.074  21.117   3.347
43621W        W12015  26.187  41.956   4.566
43622W        W12016  43.912  35.008  12.438
43623W        W12017   5.929   8.254  13.916
43624W        W12018  35.818  33.794   2.826
43625W        W12019   6.868  10.232   1.018
43626W        W12020  13.306   9.543   2.696
43627W        W12021  34.131  41.790  14.256
43628W        W12022  22.678  31.212   2.970
43629W        W12023  30.510  12.045  13.635
43630W        W12024  31.128  24.552   2.297
43631W        W12025  37.851  26.545   2.133
43632W        W12026  25.493   3.626  14.120
43633W        W12027  16.097  17.023  10.639
43634W        W12028  16.729   7.942   3.122
43635W        W12029  17.854  37.789   0.362
43636W        W12030  29.851  15.699  13.881
43637W        W12031  14.723  12.383  14.255
43638W        W12032   7.081   9.284   3.910
43639W        W12033  44.380   5.376   3.211
43640W        W12034  32.867   3.112  11.119
43641W        W12035  42.523  12.590  14.099
43642W        W12036  31.062   4.761  12.215
43643W        W12037  21.524  19.229   0.648
43644W        W12038   9.180   6.732  13.542
43645W        W12039   3.936  31.224  11.439
43646W        W12040  44.852  23.680   2.814
43647W        W12041   2.874  31.421   1.011
43648W        W12042   1.349  38.749  11.016
43649W        W12043   8.656  42.505   4.658
43650W        W12044  30.395  15.787  10.993
43651W        W12045  32.399  27.581   1.106
43652W        W12046   3.169  18.145  13.900
43653W        W12047  22.724  39.743  13.179
43654W        W12048  18.737  28.550   3.583
43655W        W12049  19.075   6.884   4.697
43656W        W12050  12.157   8.154  12.550
43657W        W12051  19.215  11.677  12.677
43658W        W12052  34.133  37.827  14.463
43659W        W12053   1.021  16.083  10.663
43660W        W12054  30.048  39.322  14.236
43661W        W12055   2.085  16.081   9.836
43662W        W12056   1.315  22.159   0.718
43663W        W12057  38.725   8.624  12.469
43664W        W12058  40.523  12.447   3.698
43665W        W12059   8.124  29.910  14.352
43666W        W12060  10.330  43.064  11.554
43667W        W12061   7.742  20.067   1.852
43668W        W12062   9.952  40.082  12.095
43669W        W12063  20.780  33.473   1.338
43670W        W12064  18.343  24.353   2.319
43671W        W12065   2.481  11.319   0.388
43672W        W12066  16.781   0.223  10.667
43673W        W12067  16.147   0.746   4.179
43674W        W12068  44.923   7.405  14.564
43675W        W12069   1.002  26.973  11.657
43676W        W12070  20.042  30.051  13.488
43677W        W12071  17.867  31.253  10.814
43678W        W12072  11.094   9.206   2.907
43679W        W12073  41.060  17.384  12.983
43680W        W12074   4.247  22.455  12.503
43681W        W12075  23.536  30.194  14.459
43682W        W12076  21.311   5.161  14.489
43683W        W12077   8.425  17.714   0.452
43684W        W12078  22.469  15.685   4.081
43685W        W12079  33.086   8.784   0.972
43686W        W12080  30.318  27.583  14.369
43687W        W12081   1.552   5.842  13.908
43688W        W12082  14.642  27.533   2.095
43689W        W12083  28.005   0.498  13.883
43690W        W12084  38.047  29.917  13.153
43691W        W12085  36.390   5.961  14.067
43692W        W12086  12.738   9.734   1.633
43693W        W12087  31.732  38.447   2.041
43694W        W12088  17.779  36.692   3.125
43695W        W12089  30.651  33.561  14.505
43696W        W12090   4.224   9.910  11.516
43697W        W12091  37.525  41.084  12.105
43698W        W12092  40.128   1.138   3.707
43699W        W12093  16.138   9.267   1.228
43700W        W12094   6.738   4.680   0.323
43701W        W12095  12.683   3.642  13.502
43702W        W12096  11.290  24.167  11.984
43703W        W12097  36.528  15.325   0.803
43704W        W12098  16.279  29.398  12.696
43705W        W12099  32.545  38.006  11.473
43706W        W12100  33.169  28.978  14.376
43707W        W12101   7.726  40.305   4.928
43708W        W12102  41.712   5.834   2.707
43709W        W12103  14.655  43.992  14.272
43710W        W12104   9.656  35.910  10.745
43711W        W12105  37.275  36.061  10.594
43712W        W12106  41.662   8.975   3.662
43713W        W12107  39.808  39.288   0.007
43714W        W12108   1.286  19.663  14.464
43715W        W12109  20.334  10.807   1.955
43716W        W12110   1.290  33.031   3.564
43717W        W12111  33.737  11.411  12.806
43718W        W12112   0.378  27.465  13.484
43719W        W12113  44.567   8.163   4.604
43720W        W12114  11.739  37.274   2.786
43721W        W12115  43.990  37.589  12.489
43722W        W12116  13.173  26.721   4.558
43723W        W12117  34.997  16.104   0.166
43724W        W12118  38.406  29.248   0.477
43725W        W12119  42.723  10.920   4.203
43726W        W12120  42.778  39.304   2.265
43727W        W12121  14.402   0.008  11.962
43728W        W12122  42.287  27.860   3.663
43729W        W12123  17.049   5.719  12.917
43730W        W12124  10.663  18.454  14.718
43731W        W12125  40.092  17.831   1.294
43732W        W12126  22.439  37.006  14.841
43733W        W12127  17.126  40.008   0.506
43734W        W12128  27.479  16.709   0.541
43735W        W12129   1.340  22.903  10.450
43736W        W12130  21.507  31.402   1.493
43737W        W12131  23.083  32.406  14.044
43738W        W12132  30.982  15.687  14.686
43739W        W12133  16.774  28.364   1.854
43740W        W12134   6.180  35.615   3.842
43741W        W12135   0.562   5.229  11.731
43742W        W12136  35.374  32.881   1.932
43743W        W12137   7.750  25.707  13.521
43744W        W12138  34.928  36.409  12.962
43745W        W12139  32.913  39.041   0.431
43746W        W12140  36.087  34.713  14.036
43747W        W12141   8.628  26.159   0.707
43748W        W12142   8.381   7.607   3.156
43749W        W12143  43.549  33.624  11.173
43750W        W12144   3.513   2.915  14.284
43751W        W12145  25.798  13.772   1.916
43752W        W12146  17.363  21.146   3.214
43753W        W12147  39.908  22.988  11.948
43754W        W12148  29.053  17.511   0.270
43755W        W12149  15.906  20.544  11.298
43756W        W12150  41.072   8.106   2.211
43757W        W12151  14.168  44.265   2.386
43758W        W12152  40.419   2.981  11.179
43759W        W12153  12.231  18.568  12.196
43760W        W12154  11.339  34.170   4.222
43761W        W12155  24.916  30.205   1.367
43762W        W12156  16.186   9.835   4.756
43763W        W12157  21.561  30.044  13.520
43764W        W12158  42.487  17.329   3.720
43765W        W12159  25.627   5.869  13.785
43766W        W12160  12.140  43.883  14.961
43767W        W12161  29.880  24.067   3.335
43768W        W12162  27.646   7.153   1.185
43769W        W12163  37.513  25.100   4.297
43770W        W12164  34.131  25.448  11.879
43771W        W12165   5.891  15.723  10.379
43772W        W12166  10.170  24.900   2.892
43773W        W12167  33.500  25.116  13.127
43774W        W12168  39.290   6.219  11.239
43775W        W12169  39.125   7.229  13.505
43776W        W12170   2.737  19.360   1.492
43777W        W12171  20.182  20.219  13.794
43778W        W12172   9.427  17.509   4.897
43779W        W12173   1.052  27.051  14.869
43780W        W12174  16.607  28.162   0.449
43781W        W12175  19.731   8.576   4.109
43782W        W12176  12.683  18.263  14.882
43783W        W12177  15.171  24.304  10.614
43784W        W12178  10.064   9.498  13.358
43785W        W12179  42.796  13.900  11.555
43786W        W12180  22.100  18.197  13.017
43787W        W12181  19.544  23.675  13.035
43788W        W12182  10.150   6.114   4.953
43789W        W12183  43.616  32.512   3.556
43790W        W12184   3.482  19.840  13.367
43791W        W12185  18.027  43.344   3.688
43792W        W12186  23.406  35.949   1.287
43793W        W12187   0.902  31.932  10.114
43794W        W12188  28.594   8.340   0.073
43795W        W12189  38.068  42.384   2.345
43796W        W12190  37.808   5.936  12.480
43797W        W12191  25.026  10.262   0.095
43798W        W12192   1.834  16.442  10.157
43799W        W12193  16.868  23.636   4.527
43800W        W12194  23.697  36.979   4.253
43801W        W12195  28.119   9.685   1.554
43802W        W12196  20.811  25.717   4.347
43803W        W12197  21.606   7.235  11.572
43804W        W12198  31.313   4.685   0.749
43805W        W12199  13.399  26.085   1.973
43806W        W12200  14.102  33.563   0.868
43807W        W12201  12.781  38.532  14.086
43808W        W12202  33.587   9.349  12.037
43809W        W12203  33.141  21.782   2.606
43810W        W12204  36.687   5.699   1.289
43811W        W12205   0.945  28.242   4.635
43812W        W12206  26.582   7.370   0.499
43813W        W12207  17.744   9.702  14.401
43814W        W12208  43.140   7.772   2.297
43815W        W12209  24.988  38.333   1.253
43816W        W12210  25.601  26.659   2.154
43817W        W12211   8.698  30.649  10.992
43818W        W12212  23.631  22.633   4.532
43819W        W12213  32.819  14.887  12.901
43820W        W12214  34.878   0.613   1.838
43821W        W12215  25.032   9.359  11.054
43822W        W12216  35.116  17.688   3.597
43823W        W12217  28.214  18.677  12.070
43824W        W12218  14.130  44.375  14.948
43825W        W12219  40.578  13.339   3.522
43826W        W12220  42.458  33.105   3.140
43827W        W12221  19.306   4.029   3.623
43828W        W12222  27.784  39.684  13.340
43829W        W12223  13.850  27.687   0.808
43830W        W12224  12.250  18.557   1.362
43831W        W12225  20.977  21.053   1.569
43832W        W12226  15.306  12.162  10.754
43833W        W12227  31.794  26.925   4.891
43834W        W12228   7.867   1.231  11.147
43835W        W12229  40.466  42.005  10.403
43836W        W12230  13.672   0.493   3.733
43837W        W12231  26.452  21.514  13.294
43838W        W12232  40.828   1.949  13.008
43839W        W12233  20.656  10.797   0.223
43840W        W12234  41.211  24.188  13.376
43841W        W12235  14.143  17.048  13.057
43842W        W12236  27.350   5.886   2.388
43843W        W12237   8.527   5.314   0.584
43844W        W12238  20.626  41.076  10.930
43845W        W12239  12.812  23.002   3.763
43846W        W12240  34.476  22.169   4.841
43847W        W12241   0.794   1.487  14.921
43848W        W12242  24.455  28.883   1.623
43849W        W12243   5.341  18.110   1.319
43850W        W12244   9.772   0.818   0.359
43851W        W12245  36.488  26.019   0.641
43852W        W12246  22.098  38.309   0.428
43853W        W12247  33.251  22.692   1.846
43854W        W12248  17.851  20.456  10.775
43855W        W12249   8.978   0.542   1.157
43856W        W12250  15.665  11.933   4.226
43857W        W12251  18.153  27.188   0.068
43858W        W12252   0.464  17.057  14.263
43859W        W12253  35.259  44.268   1.473
43860W        W12254   0.426  32.039  11.960
43861W        W12255  13.683  20.606  12.466
43862W        W12256  20.059  17.655   3.173
43863W        W12257   2.843  17.244   3.862
43864W        W12258  26.387  18.619   3.273
43865W        W12259  39.765  41.863   4.695
43866W        W12260  18.218   1.326   3.226
43867W        W12261  43.801  32.999  12.734
43868W        W12262  26.057  14.777  11.146
43869W        W12263   7.362   5.504  13.511
43870W        W12264   5.410  14.550   1.339
43871W        W12265  35.525  13.123  14.833
43872W        W12266   8.926  12.751  11.252
43873W        W12267  38.365   6.765  13.578
43874W        W12268   0.584  24.527   2.712
43875W        W12269   1.173  17.975   4.144
43876W        W12270  17.672  42.438  14.510
43877W        W12271  28.163  36.392   0.823
43878W        W12272  16.716  37.027  11.041
43879W        W12273   5.937  31.889   3.156
43880W        W12274  25.213  41.797   0.390
43881W        W12275  25.305  13.652   1.886
43882W        W12276   3.778   0.045  12.983
43883W        W12277  22.468   0.800   0.927
43884W        W12278  31.554  22.677  10.933
43885W        W12279  38.281  36.354   0.987
43886W        W12280   8.586  37.757  12.017
43887W        W12281  11.065  43.006  14.996
43888W        W12282  43.318  15.427  13.626
43889W        W12283  39.428  33.676  12.504
43890W        W12284  39.949   9.642   2.663
43891W        W12285  12.837  44.078   0.306
43892W        W12286   2.849   9.091  13.799
43893W        W12287   7.875  28.419  12.994
43894W        W12288  17.164  23.805   1.447
43895W        W12289   6.431  22.641   3.998
43896W        W12290  28.696  42.442  11.063
43897W        W12291  12.283  32.329   0.724
43898W        W12292   1.452   2.300   3.155
43899W        W12293  26.099  21.328  14.065
43900W        W12294  13.691  29.321   1.377
43901W        W12295   9.494  32.858   3.124
43902W        W12296  21.060   6.451   3.773
43903W        W12297  42.988  27.463   4.902
43904W        W12298  37.730   6.524   4.039
43905W        W12299  18.680  32.019   0.837
43906W        W12300  42.584   5.754   2.326
43907W        W12301   7.176  29.545  11.945
43908W        W12302  27.133   2.913   3.914
43909W        W12303  18.804  26.104   0.453
43910W        W12304  38.867   5.967  12.521
43911W        W12305  17.339  21.019  10.224
43912W        W12306  36.846  37.984  12.114
43913W        W12307   4.368  35.637   2.492
43914W        W12308  25.208   2.848  12.370
43915W        W12309   5.370  22.984  13.447
43916W        W12310  27.952  43.221  14.181
43917W        W12311   7.403  16.207   0.227
43918W        W12312  30.089   8.203  11.448
43919W        W12313  39.034  39.180   0.275
43920W        W12314  10.857  33.713  12.440
43921W        W12315  24.500  38.151   1.312
43922W        W12316  26.933   4.793  14.586
43923W        W12317  12.907   9.754  14.969
43924W        W12318  11.214  23.258  12.485
43925W        W12319  18.184   1.222   2.718
43926W        W12320  31.412  43.579   3.255
43927W        W12321   3.412  31.837  11.990
43928W        W12322  23.061   9.852  11.642
43929W        W12323  40.253  28.948  10.440
43930W        W12324  32.512  44.903  13.900
43931W        W12325  17.366  28.501  11.641
43932W        W12326   2.711  34.528   1.935
43933W        W12327  16.699  38.849   2.855
43934W        W12328  44.516   3.170  11.548
43935W        W12329  36.987  17.113  11.556
43936W        W12330  15.566  34.934   2.542
43937W        W12331  36.478  23.619   3.674
43938W        W12332   8.955   3.842  10.349
43939W        W12333  26.453  33.086   1.865
43940W        W12334  29.905  36.995   0.996
43941W        W12335   4.519   4.937   4.886
43942W        W12336  21.237  39.619   2.170
43943W        W12337   9.175  43.003  11.298
43944W        W12338  39.984  11.152  13.277
43945W        W12339  17.547   6.740   0.920
43946W        W12340  29.948  25.640   2.398
43947W        W12341  13.133   5.987   2.370
43948W        W12342  26.576  19.595   2.894
43949W        W12343  19.322  13.041  12.811
43950W        W12344  33.436  11.427  14.817
43951W        W12345  37.139  27.253  14.068
43952W        W12346  38.967  21.602   0.408
43953W        W12347  16.979   3.282   2.795
43954W        W12348  33.099  22.105  10.726
43955W        W12349   7.791   8.327   4.562
43956W        W12350  33.628  33.093   2.975
43957W        W12351  16.665  16.983   1.741
43958W        W12352  43.587   0.921  10.677
43959W        W12353  24.519  16.175   3.641
43960W        W12354  39.794  13.721   1.738
43961W        W12355  44.893  38.280   0.859
43962W        W12356  17.685  10.624   1.720
43963W        W12357  22.226  38.099   0.896
43964W        W12358  11.814   6.734  14.025
43965W        W12359  33.914  21.904   1.073
43966W        W12360  27.608  11.833   4.249
43967W        W12361  12.666  26.571   3.393
43968W        W12362  14.092  19.426   2.668
43969W        W12363  36.386  33.326   0.910
43970W        W12364   1.292  42.292   0.437
43971W        W12365   1.660  13.763   2.404
43972W        W12366  21.067  42.858   2.139
43973W        W12367  28.710  29.538   2.549
43974W        W12368  39.803   8.407   0.813
43975W        W12369  36.810  30.504   0.858
43976W        W12370  30.170  14.052  12.072
43977W        W12371  32.691  35.627  14.358
43978W        W12372  32.508  31.251  10.639
43979W        W12373   6.893  27.596  11.548
43980W        W12374  26.185  40.953  12.838
43981W        W12375  38.417  19.163   1.129
43982W        W12376  10.167   6.745   1.263
43983W        W12377   2.382  20.069  10.659
43984W        W12378  31.625  12.672  13.863
43985W        W12379  31.117  41.496   0.815
43986W        W12380  40.131  35.162   3.168
43987W        W12381   5.739  38.002  10.610
43988W        W12382  31.719  28.639  12.861
43989W        W12383   7.687  35.632   4.982
43990W        W12384  38.816  24.447  13.516
43991W        W12385  35.179  18.254  10.282
43992W        W12386  29.954  19.415  12.990
43993W        W12387  13.230  26.196   1.493
43994W        W12388   9.047   1.699  13.405
43995W        W12389  16.386  35.021   2.279
43996W        W12390  37.071   3.868   3.711
43997W        W12391   1.716   0.811  10.783
43998W        W12392  18.268  37.911   3.597
43999W        W12393   7.114  28.868   2.680
44000W        W12394  20.494  18.162  10.640
44001W        W12395  43.802  44.563  14.887
44002W        W12396  17.194  36.954   9.785
44003W        W12397  42.403  42.290  13.466
44004W        W12398   6.759  10.902  11.326
44005W        W12399  39.060   5.644  11.078
44006W        W12400  14.787  34.832  13.127
44007W        W12401  44.575  16.681   1.723
44008W        W12402  18.743  14.984  10.477
44009W        W12403  20.516  35.796   4.179
44010W        W12404  10.106  32.137   4.119
44011W        W12405  23.825  31.020   3.767
44012W        W12406  34.894  19.131   1.893
44013W        W12407  29.659  35.501   1.884
44014W        W12408   3.992   2.918   3.676
44015W        W12409  34.544  33.687  12.777
44016W        W12410  35.797   3.901  10.623
44017W        W12411   6.826   8.572  11.465
44018W        W12412  22.637  12.582  14.863
44019W        W12413  16.846  34.019  13.400
44020W        W12414   5.263  25.093   0.001
44021W        W12415  37.341   1.369   0.234
44022W        W12416  22.014  31.188  13.471
44023W        W12417  12.654   1.110   0.297
44024W        W12418   3.677  12.204  11.130
44025W        W12419  27.947  33.212   3.196
44026W        W12420   7.729  24.027  11.581
44027W        W12421   3.897  34.920   4.741
44028W        W12422  39.334  37.037   4.911
44029W        W12423  15.340   4.221   5.174
44030W        W12424  14.750  15.633   0.954
44031W        W12425   3.812  23.015  13.139
44032W        W12426  22.005  30.171   4.270
44033W        W12427   6.559  12.380  12.908
44034W        W12428  38.095  19.741   0.843
44035W        W12429   2.842  33.091   4.711
44036W        W12430  25.717  16.777   3.654
44037W        W12431  37.161  27.718  13.846
44038W        W12432  31.462  13.594   4.068
44039W        W12433  16.991   3.936  11.124
44040W        W12434  44.775  26.742   4.051
44041W        W12435  31.910  39.708  12.976
44042W        W12436  10.887  10.029   0.428
44043W        W12437  27.716  31.463  13.450
44044W        W12438  17.199  31.502  11.857
44045W        W12439  21.603  22.133   4.912
44046W        W12440  31.195  37.940  11.052
44047W        W12441   1.712  10.849   1.230
44048W        W12442  26.664  30.371   2.751
44049W        W12443  17.167  16.321   4.146
44050W        W12444  27.926   7.951   4.919
44051W        W12445  29.788  21.963  13.853
44052W        W12446  38.218   0.253   2.928
44053W        W12447  33.808  17.551  13.472
44054W        W12448  30.385   7.188  10.696
44055W        W12449  24.232  11.413   3.731
44056W        W12450  31.405  28.456  12.465
44057W        W12451   6.424  35.963  12.488
44058W        W12452  27.831  37.110  12.048
44059W        W12453  42.701  12.673  12.336
44060W        W12454  28.193   1.913   2.164
44061W        W12455  13.359  32.473  12.067
44062W        W12456  11.435  36.048   2.373
44063W        W12457  11.788  10.795  12.985
44064W        W12458  26.987  15.031   3.152
44065W        W12459   6.716  28.794  11.075
44066W        W12460  22.766  34.338  11.460
44067W        W12461   9.116  37.866  12.015
44068W        W12462  16.059  30.424   2.879
44069W        W12463   5.450  40.011   3.323
44070W        W12464  18.273  24.750  11.157
44071W        W12465  32.118  17.071  10.590
44072W        W12466  35.538  14.607  14.732
44073W        W12467  10.196  33.373  14.482
44074W        W12468  23.667  26.389   1.345
44075W        W12469  39.866   8.389  12.033
44076W        W12470  21.028  32.711  11.433
44077W        W12471  25.055  37.029  12.510
44078W        W12472  35.030   0.559   2.734
44079W        W12473  15.552  37.792  13.806
44080W        W12474  37.891  25.213   2.183
44081W        W12475  25.454   8.903  12.509
44082W        W12476   7.582  35.283   1.779
44083W        W12477   6.712  12.191   3.745
44084W        W12478  18.192  31.885  10.195
44085W        W12479  18.278   0.996  14.935
44086W        W12480  18.873  41.337   1.730
44087W        W12481  13.541   6.227  12.103
44088W        W12482   7.229  39.591  13.537
44089W        W12483  11.557  33.656   4.509
44090W        W12484  16.005  25.465  13.862
44091W        W12485  26.556  19.188  10.773
44092W        W12486  27.221  18.697   1.760
44093W        W12487  22.587   2.738   2.785
44094W        W12488  25.659  25.997  10.794
44095W        W12489  19.104  38.502  11.879
44096W        W12490  21.189   7.864  13.026
44097W        W12491   4.022   6.295  14.419
44098W        W12492  29.424   4.797  10.356
44099W        W12493  32.874  42.993   5.156
44100W        W12494   7.359  39.879   3.331
44101W        W12495  44.002  28.048  10.308
44102W        W12496  23.078  16.065  14.937
44103W        W12497  37.455  23.204  11.781
44104W        W12498   3.199  26.050  12.287
44105W        W12499  31.471  33.125   0.763
44106W        W12500   9.687  15.891   1.277
44107W        W12501  30.527  33.911   3.358
44108W        W12502  28.643  34.388   3.713
44109W        W12503  19.155   9.786   2.714
44110W        W12504  25.919  40.318   4.295
44111W        W12505  29.952  14.020  11.196
44112W        W12506  30.182  43.893   1.554
44113W        W12507  19.836  25.277  13.958
44114W        W12508   5.372   6.239  14.105
44115W        W12509  20.534  33.021   1.233
44116W        W12510   3.805  21.882  11.629
44117W        W12511  32.603  40.465  12.447
44118W        W12512  37.018   1.045   1.339
44119W        W12513  37.083  43.294  13.865
44120W        W12514   6.697  15.355  11.445
44121W        W12515  33.321   8.145   4.173
44122W        W12516  39.403  24.412   3.435
44123W        W12517  26.930  24.573  10.744
44124W        W12518   4.314  27.186   0.712
44125W        W12519  31.206  12.883  11.104
44126W        W12520  33.015  34.246  10.684
44127W        W12521  43.601  32.008  10.607
44128W        W12522  24.244  38.873   4.114
44129W        W12523  28.004  30.452  11.413
44130W        W12524  22.444  18.197   0.115
44131W        W12525  16.345   2.054  10.994
44132W        W12526   7.932  12.858  12.921
44133W        W12527   4.711   9.843   1.641
44134W        W12528  26.282  18.197  10.790
44135W        W12529  30.074  18.516   3.822
44136W        W12530  28.852   8.933   5.062
44137W        W12531  20.141  15.515  12.959
44138W        W12532  31.050   2.315  13.042
44139W        W12533   8.700  10.579   1.872
44140W        W12534  33.362  28.147  13.456
44141W        W12535  29.674  13.273  10.612
44142W        W12536   1.468  19.040  11.175
44143W        W12537  20.575  12.788   4.517
44144W        W12538  26.932   3.379  11.589
44145W        W12539  26.259  39.345   4.288
44146W        W12540   9.941  43.700   2.102
44147W        W12541  43.378  25.958   0.222
44148W        W12542   6.588  30.383   4.091
44149W        W12543  35.013  37.986   1.930
44150W        W12544  15.562  22.728  13.974
44151W        W12545   2.320  25.971  14.280
44152W        W12546   2.377  17.272  11.003
44153W        W12547  26.643   4.335  14.464
44154W        W12548  13.619  44.197  10.608
44155W        W12549  27.370   5.779   1.623
44156W        W12550   3.206  28.805   2.325
44157W        W12551  41.120  22.950   1.250
44158W        W12552  38.487  41.799  13.472
44159W        W12553   7.363  29.563  12.451
44160W        W12554  24.582  42.493  10.703
44161W        W12555   8.379  23.060  14.779
44162W        W12556  43.859  33.041   0.194
44163W        W12557  28.112  24.396  12.177
44164W        W12558  41.076   1.049  12.102
44165W        W12559  17.512  11.488  14.884
44166W        W12560  38.546  15.867  12.027
44167W        W12561  10.194  19.098   0.191
44168W        W12562  33.375  17.646   0.842
44169W        W12563   4.331  23.572  11.941
44170W        W12564  26.550  39.027  13.709
44171W        W12565  35.906  22.065   4.617
44172W        W12566   8.575  31.611  11.796
44173W        W12567   9.070  34.910   4.153
44174W        W12568   0.438  36.115  10.242
44175W        W12569   4.316  19.618   0.754
44176W        W12570   0.970  35.392  13.873
44177W        W12571  29.556   5.704   0.533
44178W        W12572   4.199  42.382   1.645
44179W        W12573   0.926   6.248  14.177
44180W        W12574  33.806  20.933   0.681
44181W        W12575  22.895  12.659  10.666
44182W        W12576  34.679  10.891  14.374
44183W        W12577  43.077  43.974  12.115
44184W        W12578   8.929  42.344   1.661
44185W        W12579  28.802  31.309   1.700
44186W        W12580  41.046  15.285   2.112
44187W        W12581  17.117  16.212  12.839
44188W        W12582  14.394  33.458  13.301
44189W        W12583  33.217  38.989   2.283
44190W        W12584  33.402   3.716  14.938
44191W        W12585  16.046   0.469  11.115
44192W        W12586   9.507  37.878  11.185
44193W        W12587  29.398  23.869   3.146
44194W        W12588  13.851  31.345   2.140
44195W        W12589  14.304  20.977   2.681
44196W        W12590  37.336  26.759  12.599
44197W        W12591  33.050  30.007   2.849
44198W        W12592  15.823  19.125   0.520
44199W        W12593   1.026  42.997  11.234
44200W        W12594  27.695  32.544  14.469
44201W        W12595  37.248  29.953   1.311
44202W        W12596   8.671  10.734   4.613
44203W        W12597  21.846   5.658  13.338
44204W        W12598  43.408   5.806  11.648
44205W        W12599  41.031   9.798  12.457
44206W        W12600  37.126  19.574   0.811
44207W        W12601  28.905  36.910  11.198
44208W        W12602  24.772  11.354   3.865
44209W        W12603  34.634  42.557   3.332
44210W        W12604  33.330  43.073   1.981
44211W        W12605  14.036  31.744   3.656
44212W        W12606  16.235  21.039   2.405
44213W        W12607   1.856   8.257   4.270
44214W        W12608  33.057   2.438   4.702
44215W        W12609  38.011  23.264  12.931
44216W        W12610   8.832  28.510   3.226
44217W        W12611  31.928  23.803   2.751
44218W        W12612  28.477  39.440   0.683
44219W        W12613   8.380   3.779   3.162
44220W        W12614  15.840  19.419  11.980
44221W        W12615  39.766  26.301  14.490
44222W        W12616  40.929   4.481  12.682
44223W        W12617  20.000   6.283  10.598
44224W        W12618  24.188  16.343   0.510
44225W        W12619   6.534  26.674  14.708
44226W        W12620  13.755  20.979  11.169
44227W        W12621  19.269  18.634   2.882
44228W        W12622  12.181  35.943  11.555
44229W        W12623  39.520  26.555   1.425
44230W        W12624   7.032  12.853  11.446
44231W        W12625   8.323  36.432  13.325
44232W        W12626  32.244  16.837   2.364
44233W        W12627  34.874  17.646  13.470
44234W        W12628  36.369  11.280   0.725
44235W        W12629  14.151  42.703   3.195
44236W        W12630   7.446  43.054  12.715
44237W        W12631  21.225  26.573   4.142
44238W        W12632  11.578  21.567  12.365
44239W        W12633  17.566   8.840   5.044
44240W        W12634  34.059  10.586  12.925
44241W        W12635  14.309  21.369   2.296
44242W        W12636  37.289  41.854   2.462
44243W        W12637  37.313  21.710  11.081
44244W        W12638  25.891  12.602   3.257
44245W        W12639  26.940   3.253   0.979
44246W        W12640  25.253  12.375  11.826
44247W        W12641  34.404  11.088  14.786
44248W        W12642  19.032  30.344  12.413
44249W        W12643  19.659  21.285  12.122
44250W        W12644   8.239   6.885   4.343
44251W        W12645  22.086   9.912   2.173
44252W        W12646  11.646  21.482  13.800
44253W        W12647   5.644  12.989   1.133
44254W        W12648  17.585  20.532   2.781
44255W        W12649   7.445  18.546   0.295
44256W        W12650  12.815  26.217   2.632
44257W        W12651   5.474  35.407  11.939
44258W        W12652  15.400   4.125   1.260
44259W        W12653   8.130  36.797   3.170
44260W        W12654  44.279  18.125   2.200
44261W        W12655  37.519  27.824  13.443
44262W        W12656  11.608  29.959  13.338
44263W        W12657  22.688  30.123  10.632
44264W        W12658   0.864  29.462  14.901
44265W        W12659  30.203  25.182   1.362
44266W        W12660  15.660  34.509  13.874
44267W        W12661  11.480  22.183   4.013
44268W        W12662  26.664   3.753   4.057
44269W        W12663  19.251  33.924   0.119
44270W        W12664   4.533  42.940   9.997
44271W        W12665  12.743  23.524   0.982
44272W        W12666   3.285  29.291  12.884
44273W        W12667  17.215   7.698   4.897
44274W        W12668  26.521  14.760   3.965
44275W        W12669  25.500  23.473   4.126
44276W        W12670   6.759  24.219   2.036
44277W        W12671  40.490  13.779  11.663
44278W        W12672   2.903   5.743  11.375
44279W        W12673  18.359  44.686  13.463
44280W        W12674  11.427  28.216   0.343
44281W        W12675  36.113  27.009   2.003
44282W        W12676  32.108  44.784  14.255
44283W        W12677  10.322  17.003   2.907
44284W        W12678  25.735  26.997  13.406
44285W        W12679  39.545  32.443  12.166
44286W        W12680  18.319  37.661  10.463
44287W        W12681   7.224  32.611   1.376
44288W        W12682  39.051  14.125   0.827
44289W        W12683  20.094  39.141  10.517
44290W        W12684  21.215  17.270  13.049
44291W        W12685   4.435  27.494  13.416
44292W        W12686  19.628  43.317   1.911
44293W        W12687  10.770  25.192  12.386
44294W        W12688  11.988  16.123   2.193
44295W        W12689   0.347   9.211   2.687
44296W        W12690  16.551  15.748  11.473
44297W        W12691  21.065  25.684  13.081
44298W        W12692  37.056  22.477   0.463
44299W        W12693  34.047  22.208  12.175
44300W        W12694  11.900  28.550  13.516
44301W        W12695  32.640  28.608  11.558
44302W        W12696  22.133   7.206  12.407
44303W        W12697  18.815  19.183   4.153
44304W        W12698  33.465   7.420   1.034
44305W        W12699  12.349  41.912   2.983
44306W        W12700  14.568  24.962   1.384
44307W        W12701  21.675  29.005  10.154
44308W        W12702  43.370  23.683   5.026
44309W        W12703  16.811  19.164  11.202
44310W        W12704  31.722  25.176   1.135
44311W        W12705  14.375   9.068  11.129
44312W        W12706  39.797   8.837  10.725
44313W        W12707  26.447   9.798   1.272
44314W        W12708  14.461  19.074  11.881
44315W        W12709  24.707  28.414   1.604
44316W        W12710  37.816  12.270  12.617
44317W        W12711  42.977   4.998  12.464
44318W        W12712   1.526  39.388   2.640
44319W        W12713  34.449  18.357   4.023
44320W        W12714   7.836  18.606  10.901
44321W        W12715  25.299  27.287  11.150
44322W        W12716  44.904   6.664  11.012
44323W        W12717  39.954  39.334   1.748
44324W        W12718  32.418  37.657   1.567
44325W        W12719  38.804  35.509   1.006
44326W        W12720  24.347  24.982  14.544
44327W        W12721  37.854  13.262  13.150
44328W        W12722  15.658   3.908  10.462
44329W        W12723  13.911  33.235   4.372
44330W        W12724  11.613  40.581   1.303
44331W        W12725   7.068   7.303  12.444
44332W        W12726  39.291   7.282  14.009
44333W        W12727  43.110  38.734  11.582
44334W        W12728  21.026  28.099  11.165
44335W        W12729  35.594  32.234   1.416
44336W        W12730  30.874  39.020  10.254
44337W        W12731  12.217   5.393   0.863
44338W        W12732   5.297  22.894   0.849
44339W        W12733  33.841  19.978  12.412
44340W        W12734  35.016  41.548   1.669
44341W        W12735  37.075  27.128  11.572
44342W        W12736  41.007  26.288  12.126
44343W        W12737  39.964  20.190   3.710
44344W        W12738  42.770   4.616   0.419
44345W        W12739  23.953  35.475   2.643
44346W        W12740  13.289  23.532  13.275
44347W        W12741  31.436  21.144   2.454
44348W        W12742  41.765   0.188  12.824
44349W        W12743  18.581  30.687  10.661
44350W        W12744   8.641   9.239  13.342
44351W        W12745   7.125   0.778   1.706
44352W        W12746  33.089  26.994   1.882
44353W        W12747  34.503  13.690   0.776
44354W        W12748  11.379   9.993  13.703
44355W        W12749  38.317  35.611   1.821
44356W        W12750  11.791   8.343  11.643
44357W        W12751  38.832  20.704   2.239
44358W        W12752  32.657   1.223   0.024
44359W        W12753  17.942   9.199   2.224
44360W        W12754  44.062  44.519  13.300
44361W        W12755  15.600   7.788   2.346
44362W        W12756   6.883  32.031   0.982
44363W        W12757  10.518  25.527  11.167
44364W        W12758   2.813  42.303  11.646
44365W        W12759   0.453  21.008  13.512
44366W        W12760  24.255  27.135  12.256
44367W        W12761  40.550  26.708  14.467
44368W        W12762  17.145   9.828  10.625
44369W        W12763  21.665  37.554   1.233
44370W        W12764  31.094  36.785   2.570
44371W        W12765   2.030  11.376   4.640
44372W        W12766   3.297  23.114   4.072
44373W        W12767  35.569  12.611  14.736
44374W        W12768  40.380  13.285  13.546
44375W        W12769  35.471  43.273   0.401
44376W        W12770  20.253  21.805  12.457
44377W        W12771  33.912  22.789  11.855
44378W        W12772   7.765  12.402   0.613
44379W        W12773  30.409  21.446   3.575
44380W        W12774   9.322  19.749   4.985
44381W        W12775  38.348   1.095  11.990
44382W        W12776  13.425  22.451   3.698
44383W        W12777   2.425  41.845  12.749
44384W        W12778  17.223  26.719   1.258
44385W        W12779  27.494   6.626  10.576
44386W        W12780  37.135   0.668   3.616
44387W        W12781  41.387  43.002  12.988
44388W        W12782   5.065  41.086   3.061
44389W        W12783  24.223  27.213  14.677
44390W        W12784  44.734  19.114  13.449
44391W        W12785  29.849   3.037  13.822
44392W        W12786  16.000   4.852  11.147
44393W        W12787  23.648  44.330  12.522
44394W        W12788  24.114   8.890   2.626
44395W        W12789   9.727  37.309  14.529
44396W        W12790  44.820  35.028   0.404
44397W        W12791  25.441   1.926   3.361
44398W        W12792  15.243  17.127  10.757
44399W        W12793  13.099  35.986  11.269
44400W        W12794  21.719  12.307   2.353
44401W        W12795  33.572   8.798   3.201
44402W        W12796   1.343   5.772   4.518
44403W        W12797  40.679  27.724  14.955
44404W        W12798  40.314  35.844   2.311
44405W        W12799  27.642  33.576  13.134
44406W        W12800  34.078  28.971   0.050
44407W        W12801   2.306  28.212   2.245
44408W        W12802  25.171  44.715   2.553
44409W        W12803   5.219  30.339   4.629
44410W        W12804  12.842  39.296  11.897
44411W        W12805  41.546  42.014  11.498
44412W        W12806   6.433  16.226   2.753
44413W        W12807  23.654  35.546   3.048
44414W        W12808   1.293  32.631   1.743
44415W        W12809   1.327   5.387  13.362
44416W        W12810   8.252  31.522   0.314
44417W        W12811   4.227   6.343  14.963
44418W        W12812  24.126   7.933   0.770
44419W        W12813   2.101  22.908  11.163
44420W        W12814  33.583  15.854  12.740
44421W        W12815  11.302  29.104   0.552
44422W        W12816   9.181   6.302   4.612
44423W        W12817  11.660  16.301   0.915
44424W        W12818  24.020  25.093   4.683
44425W        W12819  25.664   7.218   2.172
44426W        W12820   5.270  24.808   3.573
44427W        W12821  18.733  35.652  14.236
44428W        W12822  19.090  30.637  10.552
44429W        W12823  18.558  42.895   4.059
44430W        W12824  40.367  28.030  13.832
44431W        W12825  19.208  28.183   5.163
44432W        W12826  44.729  13.194   4.838
44433W        W12827   3.592  24.636  12.107
44434W        W12828  42.859  19.163   4.513
44435W        W12829   6.476  34.737   1.338
44436W        W12830  33.727  17.393   3.960
44437W        W12831   6.081  35.521  13.898
44438W        W12832   6.386  25.520   0.926
44439W        W12833  24.188   3.554  14.926
44440W        W12834  28.126  15.071   3.717
44441W        W12835  40.538  22.699   2.763
44442W        W12836  12.558  30.669  12.033
44443W        W12837  11.371  31.080  13.455
44444W        W12838  24.288  38.622  11.456
44445W        W12839  41.403  35.456   0.890
44446W        W12840  26.607   7.792  11.732
44447W        W12841  33.926  18.554  11.548
44448W        W12842  20.997  20.822  12.477
44449W        W12843  25.539  39.136  11.165
44450W        W12844   2.112  34.598   2.770
44451W        W12845  26.537  22.199   3.708
44452W        W12846  15.488   3.829  10.944
44453W        W12847   5.969  26.764   0.899
44454W        W12848  12.984   8.817   4.919
44455W        W12849  24.107  27.390   4.205
44456W        W12850  14.178  27.281  12.541
44457W        W12851   1.660   7.666  13.126
44458W        W12852  13.505  30.456  12.017
44459W        W12853   4.687  40.112  11.535
44460W        W12854   8.074   5.902   2.741
44461W        W12855  27.903  29.616   0.306
44462W        W12856  18.090   2.901   1.237
44463W        W12857  39.868  30.078  11.195
44464W        W12858  43.235  35.079  12.917
44465W        W12859   0.914  37.279  10.533
44466W        W12860  26.382  26.861  12.496
44467W        W12861  43.348   8.689   0.790
44468W        W12862   7.002  26.462  13.739
44469W        W12863   1.146  33.607   0.594
44470W        W12864  15.106  15.107   2.427
44471W        W12865  21.168  41.805  10.714
44472W        W12866  16.458  44.823   3.837
44473W        W12867  19.863  35.788  12.310
44474W        W12868  12.834  11.933  13.162
44475W        W12869   2.191   4.153   3.365
44476W        W12870  24.527  43.191   0.801
44477W        W12871  19.504  11.224  14.163
44478W        W12872  38.797   5.194   3.325
44479W        W12873  33.048  25.746  11.143
44480W        W12874  26.099  43.078  13.838
44481W        W12875  29.383  19.501   0.673
44482W        W12876   3.881  32.029   1.910
44483W        W12877   5.954  34.191   0.341
44484W        W12878  13.209  44.655   3.416
44485W        W12879  14.698  22.040   3.177
44486W        W12880  15.652   6.654   0.744
44487W        W12881  13.387   8.457   4.217
44488W        W12882   6.818   6.361   0.783
44489W        W12883  35.360  27.240  11.017
44490W        W12884  38.508  23.650  13.390
44491W        W12885  23.864  34.831   0.935
44492W        W12886  27.455   5.139  14.892
44493W        W12887   6.986   4.882  13.376
44494W        W12888  24.702  38.100   0.386
44495W        W12889  27.571  25.082   3.524
44496W        W12890  10.684  19.202   4.024
44497W        W12891  36.501  27.973  13.391
44498W        W12892  25.216  11.864  14.544
44499W        W12893  37.945  18.343  10.685
44500W        W12894  35.236  29.089   3.364
44501W        W12895   2.017  22.045   0.213
44502W        W12896  40.542  43.509  12.051
44503W        W12897   4.457  39.970  14.361
44504W        W12898  32.017   8.134   0.859
44505W        W12899  29.111  19.157   0.362
44506W        W12900  19.005  25.666   0.674
44507W        W12901   9.547   5.394  14.735
44508W        W12902  22.661  39.910  11.197
44509W        W12903  13.288  25.521   2.602
44510W        W12904  18.265  15.328   1.187
44511W        W12905  27.117  26.686  10.653
44512W        W12906  23.494  20.534  12.809
44513W        W12907  31.451  26.465   2.274
44514W        W12908  23.690  33.220   0.459
44515W        W12909  19.634  18.113   0.188
44516W        W12910  39.133  28.596   4.705
44517W        W12911   9.035  41.905   1.902
44518W        W12912   4.338  19.963  10.817
44519W        W12913  12.167  11.956   1.675
44520W        W12914  37.152   7.659   2.379
44521W        W12915  15.756  18.151  13.460
44522W        W12916  16.061  15.404  14.521
44523W        W12917   2.198  29.214  11.535
44524W        W12918   6.767  20.512   4.538
44525W        W12919   5.499  25.283  13.798
44526W        W12920  19.865   5.765   4.096
44527W        W12921   1.898  31.073  13.443
44528W        W12922  40.186  18.726   1.138
44529W        W12923  40.260  34.868  14.170
44530W        W12924  30.495   8.796   0.264
44531W        W12925  17.102  41.227  11.503
44532W        W12926  24.098  25.252  12.476
44533W        W12927  37.903   8.595   0.325
44534W        W12928  27.479  21.785  10.417
44535W        W12929  14.016  32.618  14.401
44536W        W12930  41.403   2.222  14.892
44537W        W12931  16.802  18.776  11.521
44538W        W12932  15.260   4.639   2.129
44539W        W12933  21.657   7.689   2.871
44540W        W12934  31.173  33.818  13.518
44541W        W12935  29.958  23.752  11.566
44542W        W12936  19.531   5.305  10.739
44543W        W12937  26.739  28.538   0.839
44544W        W12938  33.483  29.078   2.305
44545W        W12939   9.312  25.079   2.845
44546W        W12940   6.684  36.569  10.746
44547W        W12941  37.529   9.227  13.892
44548W        W12942  36.769  39.421  12.322
44549W        W12943  37.388  44.517   3.375
44550W        W12944   4.783   0.961   5.197
44551W        W12945   5.920  31.869  11.139
44552W        W12946  19.357  16.347   3.235
44553W        W12947  34.505  33.382  12.357
44554W        W12948  37.266  14.810   0.008
44555W        W12949  41.720  27.956  11.976
44556W        W12950  35.907  19.038   3.476
44557W        W12951  26.091  23.121   0.735
44558W        W12952  21.652   0.203  11.115
44559W        W12953  43.280  28.547   3.051
44560W        W12954   9.771   1.874  12.643
44561W        W12955  10.939   0.141   1.344
44562W        W12956  13.599  15.795   0.281
44563W        W12957  37.031  34.529   1.691
44564W        W12958   1.423   9.899   0.783
44565W        W12959   9.703  29.564   2.740
44566W        W12960  21.957  26.740   3.656
44567W        W12961  25.445   3.339   2.081
44568W        W12962  21.201  39.507   4.966
44569W        W12963  27.767  18.321  14.423
44570W        W12964   4.929  15.176  12.962
44571W        W12965  42.220  21.634  12.120
44572W        W12966  33.660  16.662  13.327
44573W        W12967  26.140  42.132   1.714
44574W        W12968   7.826   2.721  10.969
44575W        W12969   7.873   4.335  13.380
44576W        W12970  42.064   6.498   4.421
44577W        W12971  33.647  32.158   1.308
44578W        W12972  10.595   3.611   1.437
44579W        W12973   0.764  26.237   9.998
44580W        W12974   8.391  31.000  13.016
44581W        W12975   4.539   5.717   3.716
44582W        W12976  18.808  12.856   0.711
44583W        W12977  38.035  38.349   3.681
44584W        W12978  11.812  33.474   2.157
44585W        W12979   2.696  39.719  11.644
44586W        W12980  12.501  32.921  11.521
44587W        W12981  11.291   6.944  12.011
44588W        W12982  44.321  12.179   1.367
44589W        W12983  33.101  10.801  14.717
44590W        W12984  42.361  12.834  10.432
44591W        W12985  33.068   5.398   1.499
44592W        W12986   5.056   6.897   3.350
44593W        W12987  29.622  34.811   3.740
44594W        W12988  35.690  17.279   0.959
44595W        W12989  10.401  32.958   2.334
44596W        W12990  39.014  20.708   0.884
44597W        W12991   6.723   5.419  12.068
44598W        W12992  22.209  16.181   0.772
44599W        W12993  11.345  42.020   0.303
44600W        W12994   9.106  16.370  13.884
44601W        W12995  20.746  24.444   0.850
44602W        W12996  30.816   4.767   0.847
44603W        W12997  13.663  13.103   1.638
44604W        W12998  16.203   4.688   3.843
44605W        W12999   1.779  26.518   2.879
44606W        W13000   3.519  30.946   2.251
44607W        W13001  18.558   6.020   4.599
44608W        W13002  26.065  30.152   2.274
44609W        W13003   4.339  21.317   1.571
44610W        W13004   6.484  25.094   0.558
44611W        W13005   1.959   1.280   3.355
44612W        W13006  13.213  23.040  13.054
44613W        W13007  11.284  20.089  11.081
44614W        W13008  39.405  22.592   0.650
44615W        W13009  14.620  13.546  13.401
44616W        W13010  41.352   1.388   4.022
44617W        W13011   2.627  28.166  13.452
44618W        W13012  43.896   6.841   4.401
44619W        W13013   2.382  30.406  12.554
44620W        W13014  27.374  14.888  12.451
44621W        W13015  37.826  33.691   4.236
44622W        W13016  21.497  31.025  10.584
44623W        W13017  36.820  13.864   2.297
44624W        W13018   1.803  12.158  13.938
44625W        W13019  38.681  13.768   4.200
44626W        W13020  31.137  15.943  11.573
44627W        W13021  33.450   0.560  13.518
44628W        W13022  24.858  21.921   1.732
44629W        W13023   4.822  40.856  12.792
44630W        W13024  33.707  30.106   2.246
44631W        W13025   8.654  37.794  13.854
44632W        W13026  21.315  42.907  13.442
44633W        W13027  15.308  34.223  11.534
44634W        W13028   7.628  35.692   0.224
44635W        W13029  36.292  11.803  12.078
44636W        W13030   4.533   6.625  12.307
44637W        W13031  24.536  21.248   3.294
44638W        W13032  16.690  42.777  14.768
44639W        W13033  36.066   3.687   2.525
44640W        W13034  29.038   1.729  11.113
44641W        W13035  37.868  23.960  14.342
44642W        W13036  43.904  35.766   1.010
44643W        W13037  21.696   3.505  10.725
44644W        W13038   1.245  35.866  13.048
44645W        W13039  29.497  11.411  10.956
44646W        W13040  16.332  23.638   2.425
44647W        W13041  37.500  34.464  13.896
44648W        W13042  18.298   2.366  12.194
44649W        W13043  36.406  25.300  11.347
44650W        W13044  11.396  29.051   4.306
44651W        W13045  44.481  18.685  13.609
44652W        W13046   1.797  10.815   4.188
44653W        W13047  39.344  25.197   3.159
44654W        W13048  33.591  25.916  11.037
44655W        W13049  25.263  36.980   4.415
44656W        W13050  40.521  43.840   1.587
44657W        W13051   0.763  36.951   5.013
44658W        W13052  42.756  13.887   1.738
44659W        W13053  32.635  30.441  13.826
44660W        W13054   4.836  34.959  10.441
44661W        W13055  14.138  42.097  11.186
44662W        W13056  23.962  23.288  12.380
44663W        W13057  13.377  18.109   0.605
44664W        W13058  31.469  32.372  11.123
44665W        W13059  23.967  31.537   0.918
44666W        W13060  14.917  27.088   1.976
44667W        W13061   1.273  28.797   0.309
44668W        W13062  18.695   6.404   2.845
44669W        W13063  27.479  39.470  12.025
44670W        W13064  18.270  34.697  13.440
44671W        W13065  42.873  39.035   1.841
44672W        W13066  19.217   9.318  10.932
44673W        W13067  27.557  37.363   0.892
44674W        W13068  19.528  13.046   2.214
44675W        W13069  27.676  35.394   2.827
44676W        W13070  41.444   9.245   2.734
44677W        W13071   4.350   2.235  12.361
44678W        W13072  18.299  12.856   0.704
44679W        W13073  14.060  14.353   1.772
44680W        W13074  10.796   6.453  11.176
44681W        W13075   0.785  19.634   4.104
44682W        W13076  34.761  42.816  11.393
44683W        W13077  24.684  10.697   1.802
44684W        W13078  24.717  21.600   2.381
44685W        W13079  21.396  21.923   1.004
44686W        W13080  36.879  20.412  11.189
44687W        W13081  32.581  19.030  12.575
44688W        W13082  28.040  26.479  14.933
44689W        W13083   0.759  33.364   2.896
44690W        W13084  12.821  23.967   0.741
44691W        W13085  35.595  27.169   2.438
44692W        W13086   1.430   7.486   4.750
44693W        W13087  39.427   6.269   1.257
44694W        W13088  42.125  34.908  14.518
44695W        W13089  41.507   6.226  14.758
44696W        W13090  35.207  15.933   2.257
44697W        W13091  41.407  38.512  11.222
44698W        W13092  31.589  30.924  11.242
44699W        W13093  11.791  11.312   2.129
44700W        W13094   8.773  28.071   3.906
44701W        W13095  26.549  12.962   3.945
44702W        W13096  10.567  39.336  14.235
44703W        W13097  19.559   9.852   4.598
44704W        W13098  27.580  30.344  12.118
44705W        W13099  22.926  28.599   2.819
44706W        W13100  20.229  43.963  14.499
44707W        W13101  16.147  14.605  13.560
44708W        W13102   7.336   7.584   0.725
44709W        W13103  13.154  14.644  13.264
44710W        W13104  25.560  11.507   0.971
44711W        W13105  43.580  41.788   3.421
44712W        W13106  32.422  44.884   1.914
44713W        W13107  10.175  11.101  12.462
44714W        W13108  39.352   2.001   2.841
44715W        W13109  35.909   1.407  14.774
44716W        W13110  42.962  23.756  13.383
44717W        W13111  24.675  14.792   1.568
44718W        W13112  40.969  26.181   0.956
44719W        W13113  33.103  41.463   0.371
44720W        W13114  21.934  30.456   1.891
44721W        W13115   0.659  17.357   1.842
44722W        W13116  37.816   9.218   1.521
44723W        W13117  41.781  37.392   1.710
44724W        W13118  23.108   7.410   3.709
44725W        W13119  38.643   1.787   3.677
44726W        W13120  28.972   0.995   3.684
44727W        W13121   6.282  27.679  13.093
44728W        W13122  32.903  21.641  11.950
44729W        W13123  12.598   7.059   0.502
44730W        W13124  36.821  16.895   4.470
44731W        W13125  13.143  19.135  12.890
44732W        W13126  40.040  16.154   2.943
44733W        W13127  33.550  16.270  10.981
44734W        W13128  15.022  22.426   4.888
44735W        W13129  14.318  40.572   2.829
44736W        W13130   7.737  15.183   0.773
44737W        W13131   4.349  30.656   3.611
44738W        W13132  17.641  41.287  11.405
44739W        W13133  12.160   3.701   1.364
44740W        W13134  26.701  13.887   3.792
44741W        W13135  24.244  18.782  13.633
44742W        W13136  19.732  35.917  11.005
44743W        W13137  42.542  40.512   3.722
44744W        W13138  43.556  27.179  13.506
44745W        W13139  27.193  29.011   1.623
44746W        W13140  42.800  17.063  10.959
44747W        W13141  43.515   4.156   0.278
44748W        W13142  30.159  29.448   2.141
44749W        W13143  31.971   8.222  13.432
44750W        W13144  42.314  22.570   1.177
44751W        W13145  34.953  43.939   4.588
44752W        W13146  17.579  25.608   3.686
44753W        W13147   2.197  29.124   0.763
44754W        W13148  12.681  36.495   4.867
44755W        W13149   1.121  42.116  11.082
44756W        W13150  34.541  11.938   1.057
44757W        W13151  40.337  34.004  14.716
44758W        W13152  16.212  43.732  11.246
44759W        W13153  20.235   1.004   3.306
44760W        W13154  10.230   4.668   4.531
44761W        W13155  36.856   6.593   3.219
44762W        W13156  35.594   5.404   4.731
44763W        W13157  41.441  21.994   1.437
44764W        W13158  23.040  14.525  14.424
44765W        W13159  21.688  26.104  10.603
44766W        W13160   6.919  14.919   4.208
44767W        W13161  10.616   9.684   2.885
44768W        W13162   6.588   8.899   4.154
44769W        W13163   0.905   3.174  13.227
44770W        W13164   5.270  24.313   4.467
44771W        W13165  13.547  38.052   1.850
44772W        W13166  13.857  10.740  12.596
44773W        W13167  21.267  20.654  12.898
44774W        W13168  31.842  23.851   0.021
44775W        W13169  34.967   4.854  12.089
44776W        W13170  15.525  10.332   5.068
44777W        W13171   9.746   5.829  12.565
44778W        W13172  36.477  20.628   2.165
44779W        W13173  36.035  28.205  12.126
44780W        W13174  40.282   6.022   1.924
44781W        W13175   3.298  10.241   1.738
44782W        W13176  13.943  25.676   3.313
44783W        W13177   0.888   7.658   0.428
44784W        W13178  30.992  11.368  11.583
44785W        W13179  42.407   5.260   0.740
44786W        W13180  29.181  25.572   0.438
44787W        W13181  39.124  24.765  12.602
44788W        W13182  42.907  25.968   3.902
44789W        W13183  32.835   4.168   1.372
44790W        W13184  23.130  21.709  12.080
44791W        W13185  28.299  30.446   9.809
44792W        W13186  21.591  21.647   4.712
44793W        W13187  44.724  28.733   0.834
44794W        W13188  17.799   8.856  14.508
44795W        W13189   3.865  32.401   0.926
44796W        W13190   3.275  10.080  12.591
44797W        W13191  24.479  33.499  12.365
44798W        W13192   5.688  32.850  13.415
44799W        W13193   2.301  25.623   3.397
44800W        W13194  31.572  12.656  14.766
44801W        W13195  12.620  12.521   3.442
44802W        W13196  42.421  41.465  11.883
44803W        W13197  28.015   9.505   0.500
44804W        W13198   2.308  30.467   1.729
44805W        W13199  30.738   2.575  11.345
44806W        W13200   5.752  43.316   1.864
44807W        W13201  14.030   9.882  11.848
44808W        W13202  30.331  22.773  13.844
44809W        W13203  39.392  27.085   1.423
44810W        W13204  15.203  15.273   3.875
44811W        W13205  23.643  40.730  10.898
44812W        W13206  29.912   3.204   4.225
44813W        W13207  44.150  36.987   2.684
44814W        W13208  24.149  28.376   4.190
44815W        W13209   3.918  36.048  14.042
44816W        W13210  30.805  10.648   1.384
44817W        W13211   9.047  38.303  14.670
44818W        W13212  11.629  19.285  11.249
44819W        W13213   2.492   1.067   0.040
44820W        W13214   9.020  42.965  14.706
44821W        W13215   0.875  30.404  10.644
44822W        W13216  42.216  13.072  12.935
44823W        W13217  28.984  43.406   2.579
44824W        W13218  34.756  41.835   3.705
44825W        W13219  44.538   9.643   0.830
44826W        W13220  28.917  16.761  12.866
44827W        W13221  38.337  41.461   2.080
44828W        W13222  10.774  33.063  13.063
44829W        W13223  42.800  38.045  14.484
44830W        W13224   4.391  27.483   4.924
44831W        W13225  11.362  11.468   0.671
44832W        W13226  10.197  26.257   4.447
44833W        W13227  17.987  14.224  14.820
44834W        W13228   1.219  31.226  14.353
44835W        W13229  24.817   0.724   3.728
44836W        W13230  43.771   6.878   0.355
44837W        W13231   2.954  30.467  10.633
44838W        W13232  15.745  36.546  13.463
44839W        W13233   3.144  12.127   5.007
44840W        W13234  35.774  16.571   3.737
44841W        W13235  13.234  22.401  10.210
44842W        W13236  23.580  14.710  13.755
44843W        W13237   3.968  44.420   0.866
44844W        W13238  15.520  23.233   0.954
44845W        W13239  29.009  40.944  12.966
44846W        W13240   6.239  41.945   1.148
44847W        W13241  37.322   1.923   3.271
44848W        W13242   0.784   9.351  12.032
44849W        W13243   7.134   4.955  11.933
44850W        W13244   8.741   0.948   0.152
44851W        W13245  20.538  15.269  13.701
44852W        W13246   7.938  17.341  11.954
44853W        W13247  43.290  22.783  14.356
44854W        W13248  21.573  33.824   1.765
44855W        W13249   2.047  19.235  10.774
44856W        W13250  10.184  44.974  11.592
44857W        W13251  17.681  33.098  10.935
44858W        W13252  39.848  20.544  10.780
44859W        W13253  13.140  39.323  12.478
44860W        W13254  23.684  43.332  10.297
44861W        W13255  41.651  35.173   0.468
44862W        W13256  31.149  21.139  10.743
44863W        W13257  23.929  23.592   0.854
44864W        W13258  41.820  21.498  13.027
44865W        W13259  23.184   4.435  11.650
44866W        W13260  24.247  43.001  11.111
44867W        W13261   9.519  26.693   1.646
44868W        W13262   1.230  39.539   4.764
44869W        W13263   7.348   6.473  10.226
44870W        W13264  23.288  12.035  11.872
44871W        W13265  41.893  14.128  14.207
44872W        W13266  29.210  32.075  14.918
44873W        W13267  25.791  16.847   1.732
44874W        W13268   9.426  21.262   2.121
44875W        W13269  28.065  32.487  11.459
44876W        W13270  20.073  25.570   1.103
44877W        W13271   7.234  23.955  14.751
44878W        W13272  15.365   4.523   0.379
44879W        W13273  32.221  27.084   3.168
44880W        W13274   0.331  39.397  13.110
44881W        W13275  13.295  34.685  11.649
44882W        W13276  18.795  31.611   1.971
44883W        W13277  20.975  14.800   4.681
44884W        W13278  20.710   7.686   0.018
44885W        W13279  34.071  37.065   4.517
44886W        W13280  29.854  17.197  14.116
44887W        W13281  35.020  38.023   4.726
44888W        W13282  28.071  31.048  11.260
44889W        W13283  10.866  32.497   2.558
44890W        W13284   4.169  21.687  10.927
44891W        W13285  28.623  15.842  14.348
44892W        W13286  37.818  11.340  11.388
44893W        W13287  20.513   2.833   3.590
44894W        W13288   1.239  17.601   1.658
44895W        W13289  31.640   8.650   3.611
44896W        W13290  23.760  27.394   0.499
44897W        W13291  33.486   5.479  11.984
44898W        W13292  12.151  25.552   4.184
44899W        W13293  39.433   4.982   4.240
44900W        W13294  12.348  29.109   1.351
44901W        W13295  33.458  27.962  11.929
44902W        W13296  42.500  42.516   4.160
44903W        W13297  34.146  31.373   1.157
44904W        W13298  12.843   2.453   4.787
44905W        W13299  19.855  19.071  14.531
44906W        W13300  23.045  13.758  12.474
44907W        W13301  30.608  27.683  13.942
44908W        W13302   4.288  14.434   5.070
44909W        W13303  38.133  17.185  13.438
44910W        W13304  10.609  18.206   1.224
44911W        W13305  39.321  22.960  14.575
44912W        W13306  25.458  22.079   3.281
44913W        W13307  10.381   0.551   2.246
44914W        W13308   2.931  18.183  12.876
44915W        W13309   5.620  26.047   3.262
44916W        W13310  14.232  26.236   4.841
44917W        W13311   1.829  36.649   3.530
44918W        W13312  24.772  27.449   0.512
44919W        W13313  14.240   4.207  12.614
44920W        W13314   3.458  16.531   3.675
44921W        W13315  36.013  23.024   2.373
44922W        W13316  44.734  43.538  14.727
44923W        W13317  38.433  23.926  13.808
44924W        W13318   7.706   1.155  13.443
44925W        W13319  30.575  12.221   3.626
44926W        W13320  33.400  16.791   0.390
44927W        W13321   4.185  38.070  12.508
44928W        W13322   0.382  12.508   0.317
44929W        W13323  22.768  15.084   0.196
44930W        W13324  12.743   5.710  10.795
44931W        W13325  20.511  17.509  11.175
44932W        W13326  43.808  36.020  12.542
44933W        W13327  10.632   5.717   0.026
44934W        W13328  20.071  17.768   4.545
44935W        W13329  43.001  30.340  10.056
44936W        W13330  14.135  41.794  12.669
44937W        W13331  44.983  20.238   4.442
44938W        W13332  34.002  11.314   4.289
44939W        W13333  35.212  12.263  14.548
44940W        W13334  33.593  13.339   2.228
44941W        W13335  34.419  34.639   4.201
44942W        W13336  24.511  20.038   4.612
44943W        W13337  44.311  16.391   2.479
44944W        W13338  16.277  11.850   4.700
44945W        W13339  12.596  16.633  14.365
44946W        W13340   7.092  26.849   1.805
44947W        W13341  13.859  25.213   1.772
44948W        W13342  23.485  12.307  14.333
44949W        W13343   1.497  30.241  14.586
44950W        W13344   4.707  15.419   0.874
44951W        W13345   0.887  29.601  13.481
44952W        W13346  18.145   2.434   0.966
44953W        W13347  26.763  29.278  10.467
44954W        W13348  33.397  43.440  10.448
44955W        W13349   3.592  16.307  14.787
44956W        W13350  36.615  15.237  11.520
44957W        W13351  19.490  35.012  14.954
44958W        W13352  25.782   3.925  12.925
44959W        W13353  42.416  25.535  13.143
44960W        W13354   5.671  38.771  12.587
44961W        W13355  29.017  25.970  11.657
44962W        W13356  29.605  42.312  12.874
44963W        W13357  28.506  36.122  12.471
44964W        W13358  14.258  23.985   0.746
44965W        W13359   2.470  37.029   4.609
44966W        W13360   1.922  23.268   2.382
44967W        W13361  18.788  34.914   0.850
44968W        W13362   8.240  43.216   1.189
44969W        W13363  12.485   6.149  14.450
44970W        W13364  27.671  29.840   1.822
44971W        W13365  32.627  14.092   1.202
44972W        W13366  19.631  25.042  14.402
44973W        W13367  13.225  39.329  13.823
44974W        W13368  35.554  20.272   2.414
44975W        W13369  27.574  17.344  11.212
44976W        W13370  32.047   7.162  12.470
44977W        W13371   0.093  35.828   3.681
44978W        W13372   8.097   5.045  14.803
44979W        W13373  44.028  43.247   1.008
44980W        W13374  26.496  12.182  10.458
44981W        W13375  22.318   4.834  13.114
44982W        W13376  30.011  23.226  14.354
44983W        W13377  26.429   4.317  12.457
44984W        W13378  23.683   2.952  11.445
44985W        W13379  26.618   6.429   2.531
44986W        W13380  14.149  22.299   1.072
44987W        W13381  38.419  17.344   0.842
44988W        W13382  10.663   8.770  10.878
44989W        W13383   6.070   7.437  11.343
44990W        W13384  28.359  20.399  12.059
44991W        W13385  26.198  37.459  10.715
44992W        W13386  24.402  30.229  12.119
44993W        W13387  29.487  33.484  11.198
44994W        W13388  17.561  10.292  14.722
44995W        W13389  12.879   8.315   4.132
44996W        W13390  35.113  30.478  14.840
44997W        W13391  19.969  42.726  11.562
44998W        W13392  26.266  22.643   3.707
44999W        W13393  11.220  23.966   3.798
45000W        W13394  11.760  16.740   4.057
45001W        W13395  12.779  12.750   4.489
45002W        W13396  44.862   6.195  13.548
45003W        W13397  25.573  22.655  13.934
45004W        W13398   3.882  26.579  11.446
45005W        W13399   0.992   1.846  13.046
45006W        W13400  18.155  22.287   3.544
45007W        W13401  15.313  35.889   2.869
45008W        W13402  12.664   3.479   2.118
45009W        W13403  24.687  40.526  10.776
45010W        W13404  26.916  20.228   2.828
45011W        W13405  16.273  26.100   3.752
45012W        W13406  36.957   2.436  11.887
45013W        W13407  21.758  31.959   3.588
45014W        W13408  12.655   4.849   2.297
45015W        W13409  33.932  22.446  11.465
45016W        W13410  44.351   5.791  11.483
45017W        W13411  10.385   5.155  11.499
45018W        W13412  41.755  17.333   0.937
45019W        W13413  40.719  25.989   2.197
45020W        W13414  31.451  27.382   2.372
45021W        W13415  16.607  24.811   1.753
45022W        W13416  35.349  11.636   1.717
45023W        W13417  20.717   3.880   4.106
45024W        W13418  44.042  28.699   2.124
45025W        W13419  38.150   2.344  12.701
45026W        W13420  29.149  19.455  11.641
45027W        W13421  24.135  10.574  11.741
45028W        W13422  21.331  43.734  10.211
45029W        W13423  42.137  12.298   3.608
45030W        W13424   3.762  27.893  14.809
45031W        W13425   7.979  26.088  11.815
45032W        W13426  25.811  34.722   4.827
45033W        W13427  27.961  21.387  14.507
45034W        W13428   1.952  24.032  10.778
45035W        W13429  40.042  11.828   3.675
45036W        W13430  36.099  34.977   0.473
45037W        W13431  38.542   3.904   3.333
45038W        W13432  26.670  14.794  11.466
45039W        W13433  21.192   1.337  12.024
45040W        W13434   2.521  24.079  13.073
45041W        W13435  29.084   3.758   4.685
45042W        W13436  25.041   1.973   1.745
45043W        W13437  20.230  38.587  13.769
45044W        W13438   6.659   8.920  12.854
45045W        W13439   9.612  33.164  11.594
45046W        W13440  11.912  34.934  13.108
45047W        W13441  23.501  24.657   1.267
45048W        W13442  39.089  21.697   1.364
45049W        W13443  22.711  37.290   9.865
45050W        W13444  16.534  14.259   4.549
45051W        W13445  33.128   6.171   2.317
45052W        W13446  33.810   2.527   4.747
45053W        W13447  20.616   4.465   2.842
45054W        W13448  25.506  22.962   4.124
45055W        W13449  39.601   9.809  11.653
45056W        W13450  10.813  41.298   2.368
45057W        W13451  44.789  35.291  10.210
45058W        W13452  11.609  34.641   2.029
45059W        W13453  32.326   0.003   4.482
45060W        W13454   0.278  25.575   1.183
45061W        W13455  21.763  21.056   1.430
45062W        W13456  31.101  29.601  14.433
45063W        W13457   1.141  44.363  12.536
45064W        W13458  21.087   4.503  14.988
45065W        W13459  38.256  33.972  13.945
45066W        W13460  36.867  22.812  11.958
45067W        W13461  20.116  17.161  11.959
45068W        W13462  30.507   0.781   1.990
45069W        W13463   0.294  44.302   1.895
45070W        W13464  13.973  13.436  12.308
45071W        W13465  37.806  44.909   4.622
45072W        W13466  11.113  16.235   1.799
45073W        W13467   1.790  28.229  13.118
45074W        W13468  24.525   5.393   2.376
45075W        W13469  40.937  10.123   4.090
45076W        W13470   9.229   6.161   0.997
45077W        W13471  32.118   9.094   0.730
45078W        W13472  18.255  33.348   1.174
45079W        W13473  17.537  36.104  14.932
45080W        W13474  27.709  18.686   3.471
45081W        W13475  14.285  10.523  11.002
45082W        W13476  18.484  40.430  13.001
45083W        W13477  29.921  43.476  14.973
45084W        W13478   6.588  39.524  12.293
45085W        W13479  21.014  42.344   3.790
45086W        W13480  44.975  18.120  12.904
45087W        W13481   8.847  19.582   0.406
45088W        W13482  42.831  36.612   0.881
45089W        W13483   1.157  21.171   2.771
45090W        W13484  25.614  39.087  10.185
45091W        W13485   9.895  19.085   0.774
45092W        W13486  18.640  28.177   2.285
45093W        W13487   2.901  36.084  14.395
45094W        W13488  37.671  27.130  10.712
45095W        W13489  42.335  13.818  10.702
45096W        W13490  19.086  30.533  14.202
45097W        W13491  11.810  42.394  11.109
45098W        W13492  32.464  24.494   3.193
45099W        W13493  23.726  19.573  14.912
45100W        W13494  33.111  13.450  12.451
45101W        W13495  17.627  22.730  11.149
45102W        W13496  37.009  41.882  13.098
45103W        W13497  42.263  38.981  10.377
45104W        W13498  44.524  37.890   1.158
45105W        W13499  36.978  28.595   3.675
45106W        W13500  24.662   9.197   4.500
45107W        W13501  29.071   4.225   0.829
45108W        W13502  39.021  37.691  12.416
45109W        W13503  38.067  40.641  13.972
45110W        W13504  11.587  16.738   3.194
45111W        W13505  43.290  17.036  11.513
45112W        W13506  43.411  18.052   1.797
45113W        W13507  37.743  34.019  13.994
45114W        W13508   7.870  29.086   1.352
45115W        W13509  41.153   8.641  14.858
45116W        W13510  24.535  22.299   4.045
45117W        W13511   8.182  28.967  12.619
45118W        W13512  22.398  36.021  13.449
45119W        W13513  35.095   9.717   2.172
45120W        W13514  26.252   1.585   3.588
45121W        W13515  21.649  10.439   3.740
45122W        W13516  44.651   6.015   3.675
45123W        W13517   6.012   5.248   3.229
45124W        W13518  22.311  25.136   2.307
45125W        W13519  10.813  19.826  13.596
45126W        W13520  26.898   8.171   0.897
45127W        W13521  40.120  12.252  14.062
45128W        W13522  42.208   4.219  12.435
45129W        W13523  13.362  39.504  13.352
45130W        W13524  19.046  36.314  12.982
45131W        W13525  28.205  40.293  13.972
45132W        W13526   3.398  44.982   0.459
45133W        W13527   1.702   3.856  12.167
45134W        W13528   3.382  41.990   3.856
45135W        W13529  13.765  29.226  13.979
45136W        W13530   7.795  33.887  14.280
45137W        W13531  27.037  28.132  11.265
45138W        W13532  33.895  37.360   4.085
45139W        W13533  30.992  22.086   0.152
45140W        W13534  12.111   0.426   2.252
45141W        W13535  31.949  32.091   3.632
45142W        W13536  30.177  40.551   0.198
45143W        W13537  38.830  39.564  14.940
45144W        W13538  10.952  27.112  13.864
45145W        W13539  40.502  37.944   0.524
45146W        W13540  29.382  23.490  14.849
45147W        W13541  42.485  10.824   3.750
45148W        W13542  30.214  28.708  13.024
45149W        W13543  20.487  30.736   2.236
45150W        W13544  21.947  34.885  13.622
45151W        W13545  33.667  41.785   2.340
45152W        W13546   5.185  39.572   3.241
45153W        W13547  28.133  26.004  13.136
45154W        W13548   5.914  34.653  11.594
45155W        W13549  34.201   3.004  12.890
45156W        W13550  10.327   0.297   1.210
45157W        W13551  35.881  43.538  13.419
45158W        W13552  44.426  19.709  10.720
45159W        W13553  28.543  44.522   3.754
45160W        W13554  42.619  31.658  13.771
45161W        W13555  13.342  25.433  13.680
45162W        W13556  22.664  15.846   0.360
45163W        W13557  25.421  12.022  12.135
45164W        W13558  36.716   7.336   3.339
45165W        W13559   5.791  27.530  12.360
45166W        W13560  13.803  23.729   2.395
45167W        W13561  39.611  18.857  11.117
45168W        W13562  14.032  29.161  14.461
45169W        W13563   5.333  27.129  10.242
45170W        W13564  15.861  29.552  12.450
45171W        W13565  29.441   8.642   0.570
45172W        W13566  22.269  41.356   3.239
45173W        W13567  39.376   4.771   4.728
45174W        W13568  32.864  32.333  11.603
45175W        W13569  30.947  13.489   4.817
45176W        W13570  37.918  18.114  10.187
45177W        W13571  13.812  43.322  10.823
45178W        W13572  12.410  26.048   2.366
45179W        W13573  41.744  21.003   1.904
45180W        W13574  35.643   2.851  12.492
45181W        W13575  15.025   2.967   2.252
45182W        W13576   2.287   7.046   0.896
45183W        W13577  42.289  29.396   0.533
45184W        W13578  37.422  36.947  13.445
45185W        W13579  41.682  25.853   4.154
45186W        W13580  20.171   2.268   0.213
45187W        W13581  15.770   9.690  10.534
45188W        W13582  28.850  41.921   4.251
45189W        W13583   2.379   1.206  11.599
45190W        W13584  12.941  24.089   2.754
45191W        W13585  39.922   8.301  14.442
45192W        W13586  22.789  29.642   3.243
45193W        W13587  43.704   4.352  14.850
45194W        W13588   6.403  30.451   1.146
45195W        W13589  42.034   4.169   1.445
45196W        W13590  36.119   0.252  12.946
45197W        W13591   0.725  27.455  12.525
45198W        W13592  19.134  33.988   2.219
45199W        W13593   3.783  27.665  10.382
45200W        W13594   4.933  23.610   3.942
45201W        W13595   6.716  12.538   2.367
45202W        W13596  25.080  29.611   4.457
45203W        W13597  31.975  23.907   3.657
45204W        W13598  26.671  37.400   3.707
45205W        W13599  36.347  27.377  14.519
45206W        W13600  25.227   3.734   4.527
45207W        W13601  18.764  36.607  12.669
45208W        W13602  22.576  23.326   4.659
45209W        W13603  26.069  24.599   0.462
45210W        W13604  34.983  22.093  11.759
45211W        W13605   4.146   7.323   1.238
45212W        W13606  22.322  21.266  13.083
45213W        W13607  38.570  32.011   0.502
45214W        W13608  43.861  26.088   4.968
45215W        W13609   1.864  12.247   0.387
45216W        W13610  16.592  22.780   1.849
45217W        W13611  29.145  33.045   1.868
45218W        W13612  35.650  34.571  12.169
45219W        W13613  24.923  28.600  11.166
45220W        W13614  15.762  10.199  10.679
45221W        W13615  32.162  22.485   0.608
45222W        W13616  31.479  40.785   3.606
45223W        W13617  28.549  34.104  12.609
45224W        W13618   8.869  13.517   3.733
45225W        W13619  37.602  43.182  14.731
45226W        W13620   5.868  14.894   3.678
45227W        W13621  28.099  36.052  12.142
45228W        W13622  13.126  13.648  13.493
45229W        W13623  34.278  31.427   4.903
45230W        W13624  22.476  18.301  13.443
45231W        W13625   9.283  35.873  12.076
45232W        W13626  16.518  22.572  10.707
45233W        W13627   0.235   5.824  13.568
45234W        W13628  40.853  35.738  11.627
45235W        W13629  19.136  43.511   1.907
45236W        W13630   4.564  43.018  14.281
45237W        W13631  42.669  34.340  10.580
45238W        W13632  44.419  35.322   2.352
45239W        W13633   2.227  12.720   4.557
45240W        W13634  35.301  10.713  10.765
45241W        W13635  24.459   9.691  13.338
45242W        W13636  36.229  30.018   1.434
45243W        W13637   3.858   2.714   1.330
45244W        W13638  29.152  13.738  11.403
45245W        W13639  25.650  43.197  14.979
45246W        W13640  40.853   9.582  12.037
45247W        W13641  24.329  10.314  14.467
45248W        W13642  18.661  27.335  14.226
45249W        W13643  26.708   1.339   0.256
45250W        W13644  28.140   0.698  11.540
45251W        W13645  20.935  16.566   0.908
45252W        W13646  38.350  27.098  12.861
45253W        W13647  44.337   9.472   4.117
45254W        W13648   2.201  38.832   1.249
45255W        W13649  34.776  28.660  11.279
45256W        W13650  39.275   3.326   2.734
45257W        W13651  22.695  15.648  10.665
45258W        W13652  32.476  32.683  14.559
45259W        W13653  21.582  33.819  10.699
45260W        W13654  31.104  40.015  14.535
45261W        W13655  37.021  22.517   2.792
45262W        W13656   7.025  13.799  10.134
45263W        W13657  29.844  28.303  12.539
45264W        W13658  17.066  41.848  10.404
45265W        W13659  28.143  25.679  12.742
45266W        W13660  32.038  42.865   2.436
45267W        W13661   2.897  28.321   1.483
45268W        W13662  22.000  14.753  12.987
45269W        W13663  35.108  42.034  11.078
45270W        W13664   8.947  21.981   1.551
45271W        W13665  27.522  11.961   1.302
45272W        W13666  32.551   9.697  14.253
45273W        W13667  22.059  16.831  13.224
45274W        W13668  10.685  21.632  13.532
45275W        W13669  21.464   8.305   3.172
45276W        W13670  22.032  22.256  12.083
45277W        W13671  27.726  41.367   0.808
45278W        W13672  37.335  24.947   3.268
45279W        W13673  43.620   5.878  14.417
45280W        W13674   0.001  10.533   3.693
45281W        W13675  37.462   9.334   4.537
45282W        W13676  34.899  39.743   1.319
45283W        W13677  21.158  11.297  12.131
45284W        W13678  12.224  10.433  14.873
45285W        W13679  11.807   9.865   2.441
45286W        W13680  35.844   1.932   1.158
45287W        W13681  32.879  40.186  10.776
45288W        W13682  36.969  10.777  13.005
45289W        W13683   1.815  35.718   3.184
45290W        W13684  21.192  32.056   1.586
45291W        W13685  14.526  16.067  11.163
45292W        W13686  23.684  40.265  14.986
45293W        W13687  44.285  26.195  11.803
45294W        W13688  25.079   4.467   2.343
45295W        W13689  43.933   0.429  12.555
45296W        W13690  34.961  37.558   0.045
45297W        W13691  20.570  12.169   0.463
45298W        W13692  16.568  30.637   1.867
45299W        W13693  43.037  15.496   0.695
45300W        W13694  33.299  22.956   5.201
45301W        W13695  13.611  15.127   2.240
45302W        W13696  35.433  16.911   1.981
45303W        W13697   4.935  15.166  12.073
45304W        W13698  11.950   0.743  12.432
45305W        W13699   4.322  43.314   4.555
45306W        W13700   1.022  13.221   2.720
45307W        W13701  19.462  20.157  11.240
45308W        W13702  35.664  43.353   3.126
45309W        W13703  25.924  42.305   4.127
45310W        W13704  20.526  17.341   0.850
45311W        W13705  42.318   7.993  11.943
45312W        W13706  28.351  19.595   2.887
45313W        W13707   5.377  26.011   1.917
45314W        W13708  24.093   0.429   3.345
45315W        W13709  11.108  19.269   1.777
45316W        W13710  26.284  16.712   1.457
45317W        W13711  16.122  35.184  11.011
45318W        W13712  25.306  13.720  12.607
45319W        W13713  43.100  44.340   4.256
45320W        W13714   5.619  37.450  14.803
45321W        W13715  40.493  12.289   2.825
45322W        W13716  10.651  37.538  14.306
45323W        W13717   1.792  21.349   2.278
45324W        W13718  15.701  22.769  11.164
45325W        W13719   8.379  29.865   4.184
45326W        W13720  26.011  33.998   0.763
45327W        W13721  34.668  24.480   4.652
45328W        W13722  19.339  24.757  11.173
45329W        W13723  22.701   1.214  11.064
45330W        W13724   5.843  43.364  14.822
45331W        W13725   0.701  29.651  11.287
45332W        W13726   5.377   1.517   4.361
45333W        W13727  41.757  15.066   1.859
45334W        W13728  40.918  16.586  14.886
45335W        W13729   3.991  12.233   4.606
45336W        W13730   6.065  22.518   1.273
45337W        W13731  43.801  27.220   3.353
45338W        W13732  30.559  28.904   4.094
45339W        W13733  12.193   6.947   4.192
45340W        W13734  30.672  13.362  13.921
45341W        W13735   3.698  34.916  14.464
45342W        W13736  10.001   5.550   1.713
45343W        W13737  22.383  38.219   4.183
45344W        W13738   8.527   0.384  14.326
45345W        W13739  25.131  41.398   4.539
45346W        W13740  17.765  24.930  14.976
45347W        W13741  26.571   9.737   3.433
45348W        W13742  15.376  36.074   0.065
45349W        W13743   7.077  13.401  11.537
45350W        W13744  18.712  42.269  12.822
45351W        W13745  30.356  16.547  12.574
45352W        W13746  19.702  25.397   2.862
45353W        W13747  43.851   2.973  13.134
45354W        W13748  10.345   7.866  11.893
45355W        W13749   5.896  32.831   1.864
45356W        W13750  14.728  14.923  10.719
45357W        W13751  10.440   0.606   0.225
45358W        W13752  32.020  23.452   4.749
45359W        W13753  11.862  14.812  14.832
45360W        W13754  43.711  26.758  11.128
45361W        W13755  10.263  35.801   3.816
45362W        W13756   9.265  35.073   1.270
45363W        W13757  23.247  43.219   1.679
45364W        W13758   9.831  10.565  11.801
45365W        W13759  30.981  27.439   4.261
45366W        W13760   9.725  37.417  11.231
45367W        W13761  22.144  14.889  11.949
45368W        W13762  44.729  42.828   2.785
45369W        W13763  23.139  36.651  11.726
45370W        W13764  30.795  38.800  11.702
45371W        W13765  16.572   9.640   4.164
45372W        W13766  32.846  33.867  11.750
45373W        W13767  24.705  12.839   4.545
45374W        W13768  12.709  16.562   0.716
45375W        W13769  22.812  19.473  11.938
45376W        W13770   9.345  16.557  11.031
45377W        W13771   2.382  33.028   4.176
45378W        W13772  30.601  30.897   4.644
45379W        W13773  19.750  16.882   2.820
45380W        W13774  36.055  21.657   2.942
45381W        W13775  31.553   7.963  10.837
45382W        W13776  15.821   1.470  11.337
45383W        W13777  14.825  44.002  13.295
45384W        W13778  35.657  34.163   3.296
45385W        W13779  26.617  41.148   4.359
45386W        W13780  40.322  43.326  13.452
45387W        W13781  26.692  42.632  14.427
45388W        W13782  17.045  26.196  13.528
45389W        W13783   7.198  34.832  14.794
45390W        W13784  18.769  34.598  12.906
45391W        W13785  22.683  32.978  10.130
45392W        W13786  34.591  33.485   2.898
45393W        W13787   7.129  11.838   1.792
45394W        W13788  25.749  42.354   2.818
45395W        W13789   5.330  42.494   4.195
45396W        W13790  17.760  28.093  11.455
45397W        W13791  14.791  33.984   1.374
45398W        W13792  31.603  42.433  10.737
45399W        W13793  35.832  17.745   3.161
45400W        W13794   5.741  36.852   2.010
45401W        W13795  37.158  41.542   4.759
45402W        W13796  34.284  17.660  14.853
45403W        W13797  24.113   9.774   0.811
45404W        W13798  22.044  33.798  14.962
45405W        W13799  14.780  43.372  11.569
45406W        W13800  35.613  22.202   4.076
45407W        W13801  37.610   2.847   1.348
45408W        W13802  12.257  27.653  13.873
45409W        W13803  24.981  17.127  14.177
45410W        W13804  40.349  15.592   4.119
45411W        W13805  28.029  42.904  10.707
45412W        W13806   4.766  30.909  11.164
45413W        W13807   7.501  31.912   1.636
45414W        W13808   1.194   3.966  12.830
45415W        W13809   9.430   2.514  13.307
45416W        W13810  31.117   7.235   2.283
45417W        W13811  25.725  19.549   0.930
45418W        W13812  40.383   1.467  14.378
45419W        W13813   8.806  10.327  13.548
45420W        W13814   9.449  22.208   1.487
45421W        W13815  21.073  36.356  13.902
45422W        W13816  22.155  23.779  13.558
45423W        W13817  24.071  30.913   0.263
45424W        W13818  28.389  21.294   4.115
45425W        W13819  12.095  44.981   0.485
45426W        W13820  18.614  19.563   1.862
45427W        W13821  12.144   1.828  14.752
45428W        W13822  28.603  41.135  10.794
45429W        W13823  40.098  18.595  14.377
45430W        W13824   5.160  20.093   1.641
45431W        W13825  38.123   9.179   0.146
45432W        W13826  34.439  16.809  11.889
45433W        W13827   5.991   1.531   1.190
45434W        W13828  34.991  13.749   3.998
45435W        W13829  19.001  24.994  10.782
45436W        W13830  12.586  30.735   1.996
45437W        W13831  44.435  14.280   1.280
45438W        W13832  42.975  33.072   1.421
45439W        W13833   4.272   5.861  13.640
45440W        W13834   1.355  23.052   0.749
45441W        W13835  29.883  28.666   0.853
45442W        W13836  15.825  22.977  13.075
45443W        W13837   4.507  10.479   1.296
45444W        W13838  35.985  33.189  11.650
45445W        W13839   8.199  32.916   2.699
45446W        W13840  36.634  44.465   2.847
45447W        W13841  23.652  31.720  13.954
45448W        W13842  16.575  15.208  13.041
45449W        W13843  24.571   6.146  14.493
45450W        W13844  39.457   1.182   4.044
45451W        W13845   7.860   6.536   1.366
45452W        W13846  30.194   2.287   1.681
45453W        W13847   6.200   3.175   0.399
45454W        W13848  31.914   4.218  11.382
45455W        W13849  29.933  24.182  12.198
45456W        W13850  40.750  16.755  11.593
45457W        W13851  15.382   4.237  13.899
45458W        W13852  33.356  19.790   1.143
45459W        W13853   0.208  20.113   0.699
45460W        W13854   7.242  41.760   4.945
45461W        W13855  19.364  25.156   3.647
45462W        W13856   0.890  28.673  11.847
45463W        W13857   2.878   7.006  13.184
45464W        W13858  16.874   2.577  13.360
45465W        W13859  44.973  20.710  12.408
45466W        W13860  32.430  20.018  14.592
45467W        W13861   1.764   5.687  13.455
45468W        W13862  27.298  20.774   0.919
45469W        W13863  26.425   2.372  10.787
45470W        W13864  15.673  27.034  11.497
45471W        W13865  11.387  44.329   0.677
45472W        W13866   3.669  39.865  14.978
45473W        W13867   4.221  19.089  13.438
45474W        W13868  20.045   7.335  12.611
45475W        W13869   3.368  15.416   4.536
45476W        W13870  17.716  34.579  11.214
45477W        W13871  33.679  28.167   2.312
45478W        W13872  41.818  39.978  12.366
45479W        W13873   0.417  28.495   4.662
45480W        W13874  20.312  31.102  11.641
45481W        W13875  42.370   1.015  13.743
45482W        W13876  14.366  11.424  14.495
45483W        W13877  30.005  35.163   0.354
45484W        W13878   5.791   0.945   2.013
45485W        W13879  27.896  43.336   1.700
45486W        W13880  40.540  29.486  13.138
45487W        W13881  33.717  34.093  13.723
45488W        W13882  28.663  11.128  12.981
45489W        W13883  33.114  44.472  12.065
45490W        W13884  14.293   1.746   0.054
45491W        W13885  21.149  11.368   1.928
45492W        W13886  36.985  23.129   2.191
45493W        W13887   6.230  42.852  13.914
45494W        W13888  31.901   9.714  12.716
45495W        W13889  14.546   9.923  11.797
45496W        W13890  33.074  34.293  11.615
45497W        W13891  25.535   8.431   2.046
45498W        W13892  32.172  35.911   1.412
45499W        W13893   3.447  32.371  12.997
45500W        W13894  40.767  19.166   4.701
45501W        W13895  39.816   0.779  13.146
45502W        W13896  43.272   1.364   2.333
45503W        W13897   9.873  20.655  10.969
45504W        W13898  13.201   7.347  10.937
45505W        W13899  43.015   5.043  13.921
45506W        W13900  25.575   2.741   1.460
45507W        W13901  25.681  27.617   2.735
45508W        W13902  28.873   9.013  13.994
45509W        W13903  37.838  21.950   1.810
45510W        W13904   8.796  19.840  12.534
45511W        W13905   4.823  24.907   9.687
45512W        W13906  40.374  25.878  14.811
45513W        W13907  26.087  27.133   2.422
45514W        W13908  22.934  38.299  13.387
45515W        W13909  16.282  35.603  10.706
45516W        W13910  18.664  31.214  11.264
45517W        W13911  16.170  20.410  12.127
45518W        W13912  24.238  42.679   9.797
45519W        W13913   3.851  27.511   4.075
45520W        W13914  16.642  20.737  11.000
45521W        W13915  30.626  30.917   3.677
45522W        W13916  20.101  42.302   3.717
45523W        W13917  27.234   6.888  14.002
45524W        W13918  34.683   2.471   3.786
45525W        W13919   2.382  39.122  13.020
45526W        W13920  21.721  19.990   0.419
45527W        W13921  25.439   4.905  14.474
45528W        W13922  27.932  38.870  10.679
45529W        W13923  14.800  19.410   3.677
45530W        W13924  30.467  44.107  11.223
45531W        W13925  11.734  10.663  13.994
45532W        W13926  11.184  38.409  13.034
45533W        W13927   1.996  38.820   4.743
45534W        W13928  13.205  19.245   2.170
45535W        W13929  33.170  44.280  10.726
45536W        W13930  36.784   7.740   2.021
45537W        W13931  36.601  20.738  14.830
45538W        W13932  19.053  13.774   3.135
45539W        W13933  38.779  20.705   1.413
45540W        W13934  18.996  13.792   2.628
45541W        W13935  25.712  43.357  12.552
45542W        W13936  10.651  29.670  11.233
45543W        W13937   1.564  29.558   2.186
45544W        W13938  43.524  29.887  11.621
45545W        W13939  30.700  40.346   0.289
45546W        W13940   3.755  39.010   1.843
45547W        W13941  19.213  14.265  12.198
45548W        W13942  44.262  26.744  11.185
45549W        W13943   0.859  19.899  13.019
45550W        W13944  14.715  36.026   1.299
45551W        W13945  27.486   3.241  13.849
45552W        W13946   3.789   8.389  10.584
45553W        W13947  11.876  43.020  10.177
45554W        W13948  41.852  43.886   2.459
45555W        W13949   0.056   4.672   0.050
45556W        W13950   1.790  14.341  12.485
45557W        W13951  31.005  30.780  11.650
45558W        W13952  15.062  39.955  10.373
45559W        W13953  28.930  19.685   0.465
45560W        W13954  22.075  40.808   3.811
45561W        W13955   2.037  11.148  11.135
45562W        W13956  24.547  41.708  12.184
45563W        W13957  32.993  10.780  10.709
45564W        W13958   1.972   4.836  12.047
45565W        W13959  16.049  36.900  11.004
45566W        W13960  44.020  39.769  14.832
45567W        W13961  28.677  10.078  14.515
45568W        W13962  32.812  44.880  11.974
45569W        W13963  11.092  42.867  11.866
45570W        W13964  36.531  25.949   3.106
45571W        W13965   4.490  12.652  11.325
45572W        W13966  18.713   2.228  12.467
45573W        W13967   1.956   1.792  10.988
45574W        W13968  42.404  36.338  14.350
45575W        W13969  38.948  13.611  11.097
45576W        W13970  36.160  42.506   3.475
45577W        W13971  10.195  20.498   3.218
45578W        W13972  23.532  35.836  12.632
45579W        W13973   4.098  31.043  10.338
45580W        W13974  42.462   2.720   2.943
45581W        W13975  19.302  44.343   3.791
45582W        W13976  14.976  30.614  10.870
45583W        W13977  43.298  35.175   3.679
45584W        W13978  23.560  31.511  10.723
45585W        W13979  12.709  10.174  13.835
45586W        W13980  29.738  34.497   2.840
45587W        W13981  34.830   6.087  10.822
45588W        W13982  14.016  33.816   3.745
45589W        W13983  16.610  14.439   0.025
45590W        W13984   7.931  40.844   4.084
45591W        W13985   4.757  38.377   1.225
45592W        W13986  40.577  34.530  11.729
45593W        W13987  11.242  38.709  13.907
45594W        W13988  34.618   7.212  12.969
45595W        W13989  29.626  31.551   2.849
45596W        W13990  32.644  29.954  11.687
45597W        W13991  32.893   0.702  12.845
45598W        W13992  12.252  24.161  14.922
45599W        W13993  27.595  12.184  14.442
45600W        W13994  13.157  26.362   3.363
45601W        W13995   5.897  25.963   3.704
45602W        W13996  16.157  26.635  12.016
45603W        W13997   8.900  25.179   3.120
45604W        W13998  24.718   1.406  13.814
45605W        W13999  36.572  13.548  14.236
45606W        W14000  32.854  28.202  13.409
45607W        W14001  42.807  15.204   4.889
45608W        W14002   6.929  13.840   3.639
45609W        W14003  38.953  27.619  10.514
45610W        W14004  38.127  12.393   0.277
45611W        W14005  30.622  22.556   4.589
45612W        W14006  22.670  35.966  14.189
45613W        W14007  38.471   1.060  11.132
45614W        W14008  38.492  10.644   4.172
45615W        W14009  20.557   2.933   1.227
45616W        W14010  17.573  39.399  13.848
45617W        W14011  30.045  23.655  10.564
45618W        W14012  40.388  21.857  14.850
45619W        W14013  13.507  33.991   3.710
45620W        W14014   0.126   8.986   3.095
45621W        W14015  30.641  14.325  14.823
45622W        W14016  27.948  19.238   2.854
45623W        W14017  38.245  36.386   3.221
45624W        W14018  44.417  40.411   3.227
45625W        W14019   2.837   3.348   3.341
45626W        W14020   2.209  36.226  11.586
45627W        W14021  39.508   9.295   1.262
45628W        W14022  37.285  18.992   1.210
45629W        W14023  30.926  18.108   4.459
45630W        W14024  33.952  19.235  14.033
45631W        W14025  15.243  34.627  11.920
45632W        W14026  34.181  22.253  13.009
45633W        W14027  22.621   5.913  10.773
45634W        W14028  16.873  13.567   2.422
45635W        W14029  13.427  30.121   0.206
45636W        W14030  13.402  20.669   2.653
45637W        W14031   1.245  39.033   3.164
45638W        W14032   5.353  11.333  12.941
45639W        W14033  28.696  43.982  11.884
45640W        W14034   7.247  35.919  13.829
45641W        W14035  38.522  43.724   1.307
45642W        W14036  42.888   7.739  13.927
45643W        W14037  29.703  17.705  10.553
45644W        W14038  36.628  44.652  13.031
45645W        W14039   6.695  14.174  10.268
45646W        W14040  40.531  30.883  13.111
45647W        W14041  22.284  33.365   0.107
45648W        W14042  23.520  44.424   2.167
45649W        W14043  19.203  26.019   0.139
45650W        W14044  19.218  34.922  14.509
45651W        W14045  28.959   1.333  12.181
45652W        W14046  17.423  41.490   2.595
45653W        W14047  12.339  39.350   2.744
45654W        W14048  43.316  27.125  14.361
45655W        W14049  15.718  34.671  13.039
45656W        W14050  39.272  25.543  12.082
45657W        W14051  15.386  20.487  12.569
45658W        W14052   0.378   0.327   4.831
45659W        W14053  14.073  39.240  10.625
45660W        W14054  11.915  18.107   0.413
45661W        W14055  14.740  25.104   0.483
45662W        W14056  15.517  28.624  11.020
45663W        W14057  40.845   1.369   4.215
45664W        W14058  17.084  12.741   3.071
45665W        W14059  30.135  13.109  14.527
45666W        W14060  17.169  30.566   3.374
45667W        W14061  30.857   0.906   2.743
45668W        W14062  27.492  18.766  11.604
45669W        W14063  20.982  18.644  11.538
45670W        W14064  23.799  13.137   3.537
45671W        W14065   9.663   7.717  12.527
45672W        W14066  20.617   8.676   0.227
45673W        W14067  26.085  41.242   1.625
45674W        W14068  26.646   1.654  14.087
45675W        W14069  10.703   3.474  13.014
45676W        W14070  42.383  10.595  14.793
45677W        W14071   6.679  11.176   2.172
45678W        W14072   2.235  26.296   2.780
45679W        W14073  34.335  30.927  14.947
45680W        W14074  23.709  19.202  12.418
45681W        W14075  18.744  21.307   4.134
45682W        W14076   7.757  43.429  14.965
45683W        W14077   6.148   5.128  13.604
45684W        W14078   6.726  26.547   0.239
45685W        W14079  28.274  14.137  14.386
45686W        W14080  36.778  39.286  11.025
45687W        W14081   5.442   1.766  10.426
45688W        W14082  39.889  20.645   4.271
45689W        W14083   1.153   5.736  12.017
45690W        W14084  36.594  31.902   2.198
45691W        W14085  39.182  18.449  11.541
45692W        W14086   4.903  23.514  13.822
45693W        W14087   1.718  36.015  12.188
45694W        W14088  43.304  12.845  10.742
45695W        W14089  31.116   9.599  11.135
45696W        W14090  13.303  35.448   2.321
45697W        W14091  28.662  16.308   1.305
45698W        W14092  19.620   6.328   2.946
45699W        W14093  23.026  18.069   3.135
45700W        W14094  16.989  10.177   1.003
45701W        W14095  18.724  12.834  11.163
45702W        W14096   3.730  13.591   0.692
45703W        W14097  32.631  21.667  12.414
45704W        W14098  32.625  43.728   0.553
45705W        W14099  20.322  24.571  10.964
45706W        W14100   8.002  11.879  12.115
45707W        W14101   4.886   1.696   2.804
45708W        W14102  19.820  15.658   0.697
45709W        W14103  29.572  35.529  14.878
45710W        W14104  29.589  25.532  12.835
45711W        W14105  18.014  27.444  11.412
45712W        W14106  19.487   9.737  12.071
45713W        W14107  36.185  28.042   2.781
45714W        W14108  22.514  26.918   4.608
45715W        W14109   0.852  32.906  13.975
45716W        W14110  11.224  36.563  11.850
45717W        W14111  11.593   6.424  11.647
45718W        W14112  29.701  14.268  13.784
45719W        W14113  38.745  42.814  14.762
45720W        W14114  35.497  14.827   1.763
45721W        W14115  23.042  23.196  11.801
45722W        W14116   5.862   2.551  11.046
45723W        W14117  42.451  24.310   4.509
45724W        W14118  31.932   5.201  12.949
45725W        W14119   1.929  22.432  13.857
45726W        W14120  15.135  20.982  13.945
45727W        W14121  32.082  22.121  10.464
45728W        W14122   0.404  19.592   2.765
45729W        W14123  41.469  26.947   0.835
45730W        W14124   4.200  28.922   1.325
45731W        W14125  19.788  33.046  12.376
45732W        W14126  39.447  29.659  12.260
45733W        W14127  18.400  24.975  13.502
45734W        W14128  41.928  14.174  10.666
45735W        W14129  33.005   7.884  10.617
45736W        W14130   9.872  19.506   1.715
45737W        W14131   5.737  34.629   0.208
45738W        W14132  21.000  27.045  12.530
45739W        W14133   2.347  31.815   2.201
45740W        W14134  20.633  10.103  12.163
45741W        W14135  14.951   5.100   3.684
45742W        W14136  34.078  43.169  14.500
45743W        W14137  18.033  31.797   4.109
45744W        W14138  43.296  13.228  11.112
45745W        W14139  15.217  12.210  13.988
45746W        W14140   1.021   2.411  12.558
45747W        W14141  42.583  44.981   0.191
45748W        W14142  11.584  23.344   2.277
45749W        W14143  44.374  33.172   0.287
45750W        W14144  39.055  19.986  13.445
45751W        W14145  10.703  44.268   4.844
45752W        W14146  27.234  21.489  14.965
45753W        W14147   7.670  29.191  14.861
45754W        W14148  12.650   0.011  11.531
45755W        W14149   3.779  33.660   0.458
45756W        W14150  35.461  12.045   2.408
45757W        W14151  23.884  28.057   3.208
45758W        W14152  12.093  41.137   2.351
45759W        W14153  35.697  29.172   3.537
45760W        W14154   0.849  39.272  13.871
45761W        W14155  12.545  37.927  11.483
45762W        W14156  36.871   6.414  10.589
45763W        W14157   0.872  31.946   2.734
45764W        W14158  44.521  24.688  12.795
45765W        W14159  33.899  23.491   0.257
45766W        W14160   6.526  16.931  13.347
45767W        W14161  14.114  10.281  12.620
45768W        W14162   5.806  28.527   4.670
45769W        W14163  28.045  20.037   2.414
45770W        W14164  35.049  26.608  10.076
45771W        W14165  31.620  14.361  12.918
45772W        W14166  15.522  41.881  13.428
45773W        W14167  40.369  10.182  14.853
45774W        W14168   8.942   6.796   2.173
45775W        W14169  38.499  24.746   1.488
45776W        W14170   3.614  29.610   4.774
45777W        W14171  35.894  33.389   1.551
45778W        W14172  40.244  20.318   2.882
45779W        W14173  21.272   9.195   4.099
45780W        W14174  18.209  27.055  14.071
45781W        W14175  42.568  39.193  10.751
45782W        W14176   2.080  34.897  12.423
45783W        W14177  39.788   0.830   4.639
45784W        W14178  44.261  31.479   2.297
45785W        W14179  25.148  41.448   3.664
45786W        W14180  16.866  37.817  11.581
45787W        W14181  16.336   8.973   3.605
45788W        W14182  28.238  32.955   3.581
45789W        W14183  33.657   6.635   0.888
45790W        W14184   9.615   0.928   4.166
45791W        W14185  22.473  43.084  12.075
45792W        W14186  40.364  44.491  13.698
45793W        W14187  33.359  30.053  10.437
45794W        W14188  16.267  18.107  11.994
45795W        W14189  24.236  13.653   1.264
45796W        W14190  20.302  20.696   4.857
45797W        W14191  37.740  37.948   0.067
45798W        W14192  44.488  12.375   0.276
45799W        W14193  11.611  12.237  12.531
45800W        W14194   7.454  26.036  10.662
45801W        W14195  29.622   8.137  10.645
45802W        W14196  43.824  15.021   0.752
45803W        W14197  10.220  23.218  12.342
45804W        W14198  27.291  36.072  11.470
45805W        W14199  22.394   3.519   2.381
45806W        W14200  33.646  16.671   4.896
45807W        W14201  24.294  19.746   1.407
45808W        W14202  19.736  43.496  10.709
45809W        W14203  27.716  31.487   4.228
45810W        W14204  14.650   9.854  11.256
45811W        W14205  13.075  44.891   4.383
45812W        W14206  29.482  43.266   4.561
45813W        W14207  37.590  38.028  10.721
45814W        W14208  34.765  37.158   2.277
45815W        W14209  11.172  10.917  11.190
45816W        W14210  43.494  40.473  11.620
45817W        W14211  24.650  41.691   0.648
45818W        W14212  34.404  13.151  11.450
45819W        W14213  32.431  15.704  14.997
45820W        W14214   8.916  26.449  13.921
45821W        W14215  27.167  31.958   4.539
45822W        W14216  29.922  22.438  11.632
45823W        W14217  25.575   6.909   0.256
45824W        W14218  43.279   3.386   1.813
45825W        W14219   1.940  31.863   0.657
45826W        W14220   6.410  12.817   0.503
45827W        W14221  34.954  28.262  12.199
45828W        W14222  32.610  15.596  12.617
45829W        W14223  24.725  25.266  13.764
45830W        W14224  17.643   9.662   3.954
45831W        W14225  22.125  26.581   2.108
45832W        W14226  38.795  10.181  10.048
45833W        W14227  30.816  36.511   0.252
45834W        W14228  36.028  22.759  14.055
45835W        W14229  23.283  13.329   2.337
45836W        W14230  25.020  42.456   4.637
45837W        W14231   4.728  21.103  11.610
45838W        W14232  31.830  15.763  12.281
45839W        W14233   9.782  14.553  12.244
45840W        W14234  36.831  24.015   3.796
45841W        W14235  44.359  11.073  13.108
45842W        W14236   7.722   6.286   0.490
45843W        W14237   7.252  37.146  12.472
45844W        W14238   1.385   2.344   4.607
45845W        W14239   7.154  39.440  11.109
45846W        W14240  16.179  40.636   4.575
45847W        W14241  42.504  10.665   0.794
45848W        W14242  42.721  30.158  11.219
45849W        W14243  42.465  28.145   2.292
45850W        W14244  12.290  41.922   2.479
45851W        W14245   7.592   0.818   1.911
45852W        W14246  31.400   1.982   2.253
45853W        W14247  13.275  36.976  10.445
45854W        W14248  12.910  29.047  10.613
45855W        W14249  22.489  20.026   1.776
45856W        W14250  24.430  35.447  10.728
45857W        W14251  34.329  16.737  14.736
45858W        W14252   8.682  20.285   0.698
45859W        W14253  39.845  14.419   5.137
45860W        W14254  31.577  38.882  11.914
45861W        W14255  35.054  43.965   3.581
45862W        W14256   8.006  31.443   0.938
45863W        W14257  26.110  13.111   4.184
45864W        W14258  17.772  30.442   0.865
45865W        W14259   0.376  30.394  12.935
45866W        W14260  13.089   3.404   1.813
45867W        W14261  20.073  37.387  11.939
45868W        W14262  42.363  14.636  14.820
45869W        W14263  18.243   1.508   4.620
45870W        W14264  21.880  24.561  14.257
45871W        W14265  13.902   5.039  10.694
45872W        W14266  34.031  43.493   4.040
45873W        W14267  42.193  24.769  12.811
45874W        W14268   7.726  12.385  11.982
45875W        W14269  32.634  29.025  14.352
45876W        W14270  32.062   1.106   0.778
45877W        W14271   9.282  40.333  12.155
45878W        W14272  39.753  36.382   1.733
45879W        W14273  13.130   5.952  10.052
45880W        W14274  26.641  34.207   0.350
45881W        W14275  40.975   7.060  13.474
45882W        W14276  14.586  33.522   1.455
45883W        W14277  34.537  31.852   4.643
45884W        W14278   0.893  44.896   3.317
45885W        W14279  33.385   7.653  11.904
45886W        W14280  14.688  16.596   0.976
45887W        W14281  44.428  14.410  14.222
45888W        W14282  13.330   5.003   0.510
45889W        W14283  23.645  11.831  14.446
45890W        W14284  17.571  28.205   5.038
45891W        W14285  38.365  11.767  12.984
45892W        W14286  40.746  37.359   3.270
45893W        W14287  26.064  17.911  14.822
45894W        W14288  31.536  29.079   3.326
45895W        W14289  16.962   4.838   2.255
45896W        W14290  41.479  34.687   2.538
45897W        W14291  37.620  39.071  11.567
45898W        W14292  32.061  16.407   4.209
45899W        W14293   4.252  23.477  14.327
45900W        W14294  12.367   4.486   4.231
45901W        W14295  44.286  39.805   2.277
45902W        W14296  25.008   0.810   0.285
45903W        W14297  15.221   6.088   4.552
45904W        W14298  33.844   9.178  12.450
45905W        W14299  25.317  10.436  14.230
45906W        W14300  24.807  22.738  11.637
45907W        W14301  42.733  27.037   2.847
45908W        W14302  39.783  31.528   0.387
45909W        W14303   1.942  33.764  11.192
45910W        W14304   2.646  22.569   1.275
45911W        W14305  24.117  30.866  12.056
45912W        W14306   2.597   3.963  10.635
45913W        W14307  18.826   3.650   1.945
45914W        W14308   4.946  25.002   0.811
45915W        W14309  11.667  39.780  11.098
45916W        W14310  41.051  28.182   1.932
45917W        W14311  34.653  33.840  13.482
45918W        W14312  39.938  26.873   0.700
45919W        W14313  33.225  41.876   1.402
45920W        W14314  31.559  11.772  13.650
45921W        W14315  25.462  17.651   4.493
45922W        W14316  18.964  15.459  12.964
45923W        W14317  21.932  35.508   3.151
45924W        W14318  26.445  28.567   4.540
45925W        W14319  15.872  43.489  10.495
45926W        W14320  11.262  38.881  11.808
45927W        W14321  20.700  25.032  14.591
45928W        W14322  26.535  39.077  12.020
45929W        W14323  35.187   5.859   1.472
45930W        W14324  21.777  23.404  12.289
45931W        W14325  39.421  12.619  12.145
45932W        W14326   2.509  30.462   3.777
45933W        W14327  24.914  13.128  14.853
45934W        W14328  37.866  21.501   3.279
45935W        W14329  10.271  41.097   3.694
45936W        W14330   1.266  31.440  13.525
45937W        W14331  28.155  25.363  12.319
45938W        W14332  22.458  25.261   4.071
45939W        W14333  35.371  43.050   0.903
45940W        W14334  27.788   2.231  13.556
45941W        W14335  33.568  13.386  11.718
45942W        W14336   8.598  26.992  11.827
45943W        W14337   4.437  27.439  12.633
45944W        W14338  16.784   5.680   0.362
45945W        W14339  30.476  34.399   0.197
45946W        W14340  42.475  33.730  14.440
45947W        W14341  18.734  23.011  10.676
45948W        W14342   4.345   0.734   4.202
45949W        W14343  16.857  30.758  11.110
45950W        W14344  42.712  18.498  11.101
45951W        W14345  44.799  42.526   5.005
45952W        W14346  15.245  20.971  12.442
45953W        W14347   2.181   6.173   1.160
45954W        W14348  23.265  16.690  10.581
45955W        W14349  34.822   5.976  12.532
45956W        W14350  30.917   6.629  10.755
45957W        W14351  22.690  28.174   0.069
45958W        W14352   2.729  35.943  12.063
45959W        W14353  16.695  10.535   1.211
45960W        W14354  39.943  38.056  11.092
45961W        W14355  19.807  23.611  13.477
45962W        W14356  26.000  39.660   0.807
45963W        W14357   0.812  24.722  14.477
45964W        W14358  24.447  32.607   2.006
45965W        W14359   8.638   6.308  10.636
45966W        W14360  35.085  20.055  13.932
45967W        W14361  44.492  13.989   5.087
45968W        W14362  38.846  40.038   3.147
45969W        W14363  34.823  11.007   0.062
45970W        W14364   4.721   4.956  12.402
45971W        W14365  42.969   7.353  14.270
45972W        W14366  22.224  42.434   0.914
45973W        W14367  32.806   6.677  14.396
45974W        W14368   9.882  10.839   1.695
45975W        W14369  43.287  18.173   0.848
45976W        W14370  27.057  41.979  12.711
45977W        W14371  36.872  21.424  11.156
45978W        W14372  35.505  41.034  13.498
45979W        W14373  11.680  36.871   2.311
45980W        W14374   3.425   6.542   2.676
45981W        W14375  41.998  15.019  12.804
45982W        W14376  14.488   8.367  13.884
45983W        W14377  35.826   4.798   3.578
45984W        W14378  10.548  11.723   3.079
45985W        W14379  36.830  34.306   2.141
45986W        W14380   0.869  23.110   2.707
45987W        W14381  16.149  32.522  12.471
45988W        W14382  11.858  16.584  13.960
45989W        W14383  37.001  12.242   3.327
45990W        W14384  24.561  42.020   3.972
45991W        W14385  40.539  40.383   0.866
45992W        W14386  14.720  17.274   4.645
45993W        W14387   6.930  28.279  12.941
45994W        W14388   0.648  17.585  10.941
45995W        W14389  35.055  28.497   0.702
45996W        W14390  30.636  18.253   4.871
45997W        W14391  28.668  22.554  14.559
45998W        W14392  31.539  10.679   4.671
45999W        W14393  43.421   3.487   4.114
46000W        W14394  27.315  42.278   4.086
46001W        W14395  27.526  26.405  14.905
46002W        W14396  26.680   1.838  12.305
46003W        W14397   2.721   0.693  10.794
46004W        W14398   5.820   6.800  10.243
46005W        W14399  18.001  21.486  11.178
46006W        W14400   3.709   8.780  10.907
46007W        W14401   3.503  32.063  12.564
46008W        W14402  44.836  14.119   0.991
46009W        W14403  27.057  35.909   3.373
46010W        W14404  40.820  10.761  14.304
46011W        W14405  25.704  44.800   1.005
46012W        W14406  35.911   8.841  14.547
46013W        W14407   4.805  11.344   0.833
46014W        W14408  36.815  37.887  11.624
46015W        W14409  13.182  10.007  13.162
46016W        W14410  15.386  31.022   4.275
46017W        W14411  32.319  37.381  12.856
46018W        W14412  35.532  33.286  11.141
46019W        W14413   3.424  14.107   1.863
46020W        W14414  33.612  29.861  13.131
46021W        W14415   9.359  30.961   0.748
46022W        W14416  30.597  41.980  12.101
46023W        W14417  23.153  34.860   3.147
46024W        W14418  14.287  21.205  10.554
46025W        W14419  43.828  18.006  13.115
46026W        W14420  35.791  40.958   0.249
46027W        W14421  40.399   9.402   2.795
46028W        W14422   1.833  16.130  14.907
46029W        W14423  14.520  32.523  14.419
46030W        W14424   5.912   1.266  11.112
46031W        W14425  22.773  24.073   4.289
46032W        W14426  40.159  18.232  11.695
46033W        W14427  11.306  43.819  11.148
46034W        W14428  28.629  24.438   4.120
46035W        W14429  27.171  14.610   4.855
46036W        W14430   2.255  13.717  12.467
46037W        W14431  10.459   2.452  14.721
46038W        W14432  20.252  43.520  10.759
46039W        W14433   9.662  23.144  12.866
46040W        W14434  10.142  39.058  11.250
46041W        W14435  32.683  16.069   0.277
46042W        W14436  42.263  40.428   0.460
46043W        W14437  15.326   8.718  14.475
46044W        W14438  30.622  23.467  12.110
46045W        W14439  26.024  21.521   2.088
46046W        W14440  42.906  27.447   1.021
46047W        W14441  13.600  41.778  12.729
46048W        W14442  25.180  32.082   3.116
46049W        W14443  43.327  39.277  14.385
46050W        W14444  28.389  17.075   3.367
46051W        W14445  12.254  21.617   0.156
46052W        W14446   5.568  40.948   3.157
46053W        W14447  29.632  15.523   4.234
46054W        W14448  38.129   3.334  13.369
46055W        W14449  21.729  42.269   1.671
46056W        W14450  22.100  31.602   0.128
46057W        W14451  14.966  21.237  12.798
46058W        W14452  15.739  21.836  14.989
46059W        W14453   2.470  10.376   3.281
46060W        W14454  29.177  13.214   3.779
46061W        W14455  24.091  22.013   3.897
46062W        W14456  19.792  18.048   1.906
46063W        W14457  21.084   5.945   3.905
46064W        W14458  20.040  17.982   0.462
46065W        W14459   8.759  23.921  13.300
46066W        W14460   0.263  21.303   1.278
46067W        W14461  29.422  28.145   0.279
46068W        W14462  38.687  38.985   4.522
46069W        W14463  41.349  11.583   0.560
46070W        W14464   1.872  18.215   1.025
46071W        W14465  11.863  29.617   0.930
46072W        W14466  18.434   9.233   4.851
46073W        W14467  26.458  32.362   4.775
46074W        W14468   4.762  22.642   4.991
46075W        W14469  28.727  27.670   2.866
46076W        W14470   3.529  13.070  10.664
46077W        W14471  22.524   3.138  13.397
46078W        W14472  34.899  35.027   4.190
46079W        W14473   6.784  16.031   3.092
46080W        W14474  40.462  39.353  13.894
46081W        W14475  20.495  38.817   0.919
46082W        W14476   7.938  17.188   3.263
46083W        W14477  38.066  22.582   3.430
46084W        W14478  12.555   5.987   4.206
46085W        W14479  30.689  13.795  12.965
46086W        W14480  13.870  13.553   3.917
46087W        W14481   3.226  38.951   3.222
46088W        W14482   8.714  40.336   4.569
46089W        W14483  38.492  39.997   4.646
46090W        W14484  29.039  31.093   1.314
46091W        W14485  13.980  43.940  11.998
46092W        W14486  11.363   6.216   3.539
46093W        W14487  33.145   7.730  13.689
46094W        W14488  31.160  22.801  12.433
46095W        W14489  23.093  17.247  11.223
46096W        W14490  12.671   6.955   3.290
46097W        W14491  19.969  42.600   1.309
46098W        W14492   5.165  43.707   3.763
46099W        W14493  38.437  11.267   3.072
46100W        W14494  19.551  31.983  12.485
46101W        W14495  22.676  33.879   1.173
46102W        W14496  44.617  22.307   4.310
46103W        W14497  33.598   1.210  14.722
46104W        W14498   9.372  42.304   1.988
46105W        W14499   6.480  36.546   4.220
46106W        W14500  23.287   2.765  14.560
46107W        W14501   3.279  42.314   2.129
46108W        W14502  18.087  30.606   4.554
46109W        W14503  19.937  35.419  11.173
46110W        W14504  14.440  16.358  12.653
46111W        W14505  12.099   5.211   3.050
46112W        W14506   0.929  12.284   2.750
46113W        W14507  41.628  36.048   0.475
46114W        W14508  11.914  16.730  10.193
46115W        W14509  11.731  38.529  12.242
46116W        W14510  24.259   5.675  11.969
46117W        W14511  44.785  19.794  13.806
46118W        W14512   1.810  24.064   2.732
46119W        W14513   3.143  37.948   1.143
46120W        W14514  23.964  21.111  13.847
46121W        W14515   6.018   9.357  14.246
46122W        W14516  32.179  22.273   2.655
46123W        W14517  13.143  44.417   2.631
46124W        W14518  26.481  22.734  13.475
46125W        W14519  34.024  23.736   4.291
46126W        W14520  39.007  13.773   2.168
46127W        W14521  40.804   1.640   1.267
46128W        W14522  36.053  18.454  11.388
46129W        W14523  39.898  32.834  12.563
46130W        W14524  18.136  21.233   3.624
46131W        W14525  14.784   8.873  11.609
46132W        W14526  29.374  27.465  13.592
46133W        W14527  20.960   1.203  12.955
46134W        W14528  41.969  14.257  11.685
46135W        W14529  10.554   1.861  10.829
46136W        W14530  31.604  27.694  11.566
46137W        W14531  24.568  32.409   3.712
46138W        W14532  10.782  42.933  10.725
46139W        W14533  37.006  17.301  12.054
46140W        W14534  20.534  21.241   0.447
46141W        W14535  25.002  34.543   3.066
46142W        W14536  42.289  32.737  14.412
46143W        W14537  12.334   2.286   2.181
46144W        W14538  36.108  39.507   1.193
46145W        W14539  22.387  16.995   3.743
46146W        W14540  21.421   8.576   9.957
46147W        W14541  21.188  33.340  12.738
46148W        W14542   4.981   1.741  14.822
46149W        W14543   0.220   2.420   1.680
46150W        W14544  36.700   5.738   0.363
46151W        W14545  32.069  15.533  10.398
46152W        W14546  24.962  14.050  14.861
46153W        W14547  39.385  38.420  11.422
46154W        W14548  21.384   5.295  11.185
46155W        W14549  11.967  18.748   2.271
46156W        W14550   3.899  30.207   2.826
46157W        W14551  26.483  21.947   3.254
46158W        W14552  29.125  39.236  11.655
46159W        W14553  12.302  25.999   3.912
46160W        W14554  43.076  23.158   0.286
46161W        W14555   1.861  43.562   1.262
46162W        W14556  34.034  13.682  11.046
46163W        W14557  28.405  26.116   2.714
46164W        W14558  43.771  12.340  13.010
46165W        W14559  14.882  36.251   0.019
46166W        W14560  19.121   8.727  10.505
46167W        W14561   1.433  21.260  11.193
46168W        W14562   1.014  39.947   4.245
46169W        W14563  12.763   3.748   3.238
46170W        W14564  25.151  32.935   1.002
46171W        W14565   0.243  44.486  11.963
46172W        W14566  13.049  14.107   1.725
46173W        W14567   7.814  38.829   4.698
46174W        W14568   8.220  12.174   0.531
46175W        W14569  36.157  31.258   0.238
46176W        W14570  22.973  16.026  11.507
46177W        W14571  10.443  18.518  13.390
46178W        W14572   1.905   1.955   0.928
46179W        W14573  29.310  21.004  11.030
46180W        W14574  32.878  33.011   3.697
46181W        W14575  26.302  27.103  11.959
46182W        W14576  43.671  41.348   3.677
46183W        W14577  41.292   6.725   0.449
46184W        W14578  16.362   2.547  10.776
46185W        W14579  16.769  23.307  11.171
46186W        W14580   3.349  24.045  11.451
46187W        W14581  24.517   5.433   1.856
46188W        W14582   6.233  23.995  11.396
46189W        W14583  13.366  43.291   0.083
46190W        W14584  34.521  44.754   1.725
46191W        W14585  44.543   3.311  12.106
46192W        W14586  13.876   2.773  11.637
46193W        W14587  28.478  17.168   4.886
46194W        W14588   2.220  24.235   1.599
46195W        W14589  30.177   4.810   0.072
46196W        W14590  40.726  11.806  14.561
46197W        W14591  39.670  24.417   0.957
46198W        W14592   7.609  44.372  10.824
46199W        W14593   6.439  36.100  13.459
46200W        W14594  29.028   8.424   0.340
46201W        W14595  33.022  17.058   2.109
46202W        W14596  11.692  32.133   1.360
46203W        W14597  41.007  10.111   3.160
46204W        W14598  35.123  31.389  13.909
46205W        W14599  15.731  22.588   4.641
46206W        W14600  18.060  37.827  14.748
46207W        W14601   2.470  12.075   2.675
46208W        W14602  13.527  15.287  11.917
46209W        W14603  28.096  15.553   3.423
46210W        W14604   9.885  21.196   2.349
46211W        W14605  29.907  24.678  11.978
46212W        W14606  33.919  23.927   2.154
46213W        W14607  38.357  27.946   3.424
46214W        W14608  44.991  34.057  14.330
46215W        W14609  24.299  39.842   1.988
46216W        W14610  36.611  30.046   0.916
46217W        W14611   1.489  12.885   1.080
46218W        W14612  24.218  13.637   5.003
46219W        W14613   4.154   5.936   4.012
46220W        W14614  33.800   3.268  11.493
46221W        W14615   6.621  14.455   2.868
46222W        W14616   5.648  42.777   1.304
46223W        W14617  10.863  27.308   1.377
46224W        W14618  36.348  30.020  13.905
46225W        W14619  20.627  31.346  11.136
46226W        W14620  31.944  17.770   3.605
46227W        W14621  24.486   9.780  12.446
46228W        W14622  25.280  34.611   0.356
46229W        W14623  42.798  32.878  14.518
46230W        W14624  25.707  31.090   2.313
46231W        W14625  22.483  42.869   2.359
46232W        W14626  43.802  43.338  14.092
46233W        W14627  33.508   4.682   3.218
46234W        W14628  35.380  23.572  12.182
46235W        W14629  26.094  39.550   1.766
46236W        W14630  38.978  13.334  14.029
46237W        W14631  34.633  17.526   3.627
46238W        W14632  17.187  43.443  10.430
46239W        W14633  12.811   5.218   1.950
46240W        W14634  26.223  14.218  12.030
46241W        W14635   6.551   2.506   1.645
46242W        W14636   3.693  12.675  14.315
46243W        W14637   3.849  24.123  11.622
46244W        W14638  31.190   8.361   3.594
46245W        W14639   3.515   7.751   1.207
46246W        W14640  40.529  25.044   4.035
46247W        W14641  37.861  23.980   1.910
46248W        W14642  31.398  43.865  13.492
46249W        W14643   4.178   9.229  13.052
46250W        W14644   1.459  38.607  13.925
46251W        W14645  30.997  35.562  10.691
46252W        W14646  40.106  14.118   0.836
46253W        W14647  26.603  43.885  13.860
46254W        W14648  40.902  29.751   2.321
46255W        W14649  21.713  29.329  12.876
46256W        W14650  27.109  19.536  12.988
46257W        W14651  44.008  13.377   2.023
46258W        W14652  36.375   5.884   2.624
46259W        W14653  26.926   8.609   2.639
46260W        W14654  42.362  16.026   2.346
46261W        W14655  34.455  21.107  14.392
46262W        W14656  20.097  21.169   1.507
46263W        W14657  38.289  23.566   4.193
46264W        W14658  42.005   4.301   3.160
46265W        W14659  39.295  24.784   0.853
46266W        W14660  34.400  40.171  13.491
46267W        W14661  31.951   2.796  10.847
46268W        W14662  32.218  11.967   1.884
46269W        W14663  23.699  20.565   2.285
46270W        W14664   5.540   3.824  13.706
46271W        W14665  18.329  12.134   2.353
46272W        W14666  39.659  28.497   3.411
46273W        W14667  37.991  33.346  14.552
46274W        W14668  42.357  24.944   4.639
46275W        W14669  20.501  16.834  13.396
46276W        W14670  25.017  31.485  14.438
46277W        W14671  19.729  27.197  12.120
46278W        W14672  42.878  25.546  12.040
46279W        W14673   9.740   3.525   0.893
46280W        W14674  15.370  30.173  12.627
46281W        W14675  17.794  27.852  13.098
46282W        W14676  10.736  42.585   4.324
46283W        W14677  33.886  30.514   0.872
46284W        W14678  40.232   2.157  12.623
46285W        W14679  20.589  26.118   3.626
46286W        W14680   7.522  38.368   4.762
46287W        W14681  19.015  31.657   0.279
46288W        W14682  31.427  25.119   2.613
46289W        W14683  43.831  44.433  12.438
46290W        W14684  12.626  43.508  12.459
46291W        W14685  21.344  17.827   2.686
46292W        W14686  25.635  41.904   0.746
46293W        W14687  14.206  35.488  10.790
46294W        W14688  35.368  38.403  12.460
46295W        W14689  20.916   4.433   3.267
46296W        W14690  42.287  44.725  12.092
46297W        W14691   7.664  32.871  12.791
46298W        W14692   4.504  41.729   4.667
46299W        W14693  39.448  23.746  11.526
46300W        W14694  17.970  40.559  12.045
46301W        W14695  17.888  20.677   5.195
46302W        W14696  25.498   3.628   0.890
46303W        W14697  10.169  21.797   5.029
46304W        W14698   8.959  18.833   2.375
46305W        W14699  42.600  10.364   1.308
46306W        W14700   3.211  38.381   2.309
46307W        W14701  35.631  13.804   2.730
46308W        W14702   3.938  40.909   4.486
46309W        W14703  28.260  31.767   1.152
46310W        W14704  13.796  22.518  12.472
46311W        W14705  29.402  38.850  13.814
46312W        W14706   2.955   9.229   4.924
46313W        W14707   3.444  23.301  13.865
46314W        W14708   9.801  38.472  12.848
46315W        W14709   0.784  12.659   4.967
46316W        W14710  16.590  37.375  11.546
46317W        W14711   6.813  22.921   4.637
46318W        W14712  43.018  42.088   2.133
46319W        W14713  25.107   1.991  14.932
46320W        W14714  37.856  13.603  12.436
46321W        W14715  34.894   7.276  12.454
46322W        W14716  44.049  18.505  13.984
46323W        W14717   1.795  36.475   0.242
46324W        W14718  16.449  40.079   1.795
46325W        W14719  38.585   0.034  12.036
46326W        W14720   4.156   2.857   2.316
46327W        W14721  23.044  22.504  11.023
46328W        W14722  29.639  33.651   4.428
46329W        W14723  25.923  36.456   3.267
46330W        W14724  39.547  20.294   1.714
46331W        W14725  44.495  27.463  11.944
46332W        W14726  16.399   2.744   4.933
46333W        W14727  10.280  26.493   0.842
46334W        W14728  31.617   7.435  14.761
46335W        W14729  40.934  35.846  14.764
46336W        W14730   6.173  16.478  11.398
46337W        W14731  18.608   9.799   1.259
46338W        W14732   4.223  15.749   1.242
46339W        W14733  39.652  18.941   2.344
46340W        W14734  24.325  40.753  12.297
46341W        W14735  22.498  41.552  13.126
46342W        W14736   7.407  22.684   1.941
46343W        W14737  41.883  16.572  10.717
46344W        W14738  44.156  31.885  12.051
46345W        W14739  30.657  39.365   0.262
46346W        W14740  29.964  37.935  11.658
46347W        W14741  26.466   5.332  12.448
46348W        W14742   0.091  39.014   4.647
46349W        W14743  22.740  36.846   1.044
46350W        W14744  28.416   7.297   3.543
46351W        W14745  19.334   4.774  12.397
46352W        W14746  22.901  25.014  12.853
46353W        W14747  29.799  19.822   4.287
46354W        W14748  41.419  41.265   2.780
46355W        W14749  18.354  12.037   3.409
46356W        W14750  21.556  30.947   2.283
46357W        W14751  26.857  30.592   3.184
46358W        W14752  24.534  24.177  11.403
46359W        W14753   3.198  24.741   0.994
46360W        W14754  43.421  27.551   3.245
46361W        W14755   4.701  35.967  13.416
46362W        W14756  40.313  32.682   3.727
46363W        W14757  19.027  25.716  11.141
46364W        W14758   9.901  29.731   4.199
46365W        W14759  22.991  28.133  10.636
46366W        W14760  21.073  11.249  13.110
46367W        W14761  37.349  23.914   3.196
46368W        W14762  38.694  18.317   4.071
46369W        W14763  39.936  21.047  14.013
46370W        W14764  38.250  20.151  13.045
46371W        W14765  36.210  18.115   0.035
46372W        W14766  10.336  21.060   2.122
46373W        W14767  15.581  14.319   4.922
46374W        W14768  33.360  11.077   0.189
46375W        W14769   7.929   3.454  12.632
46376W        W14770  22.750   4.505  13.995
46377W        W14771   7.834  44.837   3.224
46378W        W14772   7.678  25.606   2.862
46379W        W14773  33.210  26.457  12.864
46380W        W14774  12.121  26.192  11.663
46381W        W14775  10.185   5.503   4.180
46382W        W14776  28.886   9.700  11.118
46383W        W14777  44.503  38.579  10.335
46384W        W14778  15.292  33.339  13.513
46385W        W14779  30.072  26.493   1.858
46386W        W14780  25.800  42.316  14.036
46387W        W14781   3.293  18.826  11.560
46388W        W14782  21.497  18.599   3.872
46389W        W14783  40.432   7.290   0.932
46390W        W14784  33.182  12.724  13.907
46391W        W14785   3.694   7.255   1.467
46392W        W14786   0.037  23.692  10.788
46393W        W14787   4.298  13.339  11.975
46394W        W14788  41.246  17.177   0.430
46395W        W14789  17.252   7.834  14.939
46396W        W14790  26.751  27.828   1.920
46397W        W14791  31.110  27.066  12.644
46398W        W14792  22.582   7.720   0.393
46399W        W14793   0.517  36.415  11.938
46400W        W14794  38.525  22.973  14.075
46401W        W14795  31.988   4.350  11.883
46402W        W14796  39.606  44.481  14.007
46403W        W14797  18.508  10.921  13.950
46404W        W14798  10.358  22.099  10.296
46405W        W14799  35.001  16.491  10.794
46406W        W14800  20.590   7.594  11.946
46407W        W14801   5.844  12.189   0.815
46408W        W14802  10.164  33.886  14.568
46409W        W14803   6.265   5.193  12.024
46410W        W14804  15.121  18.111  14.754
46411W        W14805  19.828  37.316  11.488
46412W        W14806  36.902  29.600  12.443
46413W        W14807  21.462   2.509  10.652
46414W        W14808  17.308  12.863  12.883
46415W        W14809  40.529   6.910   1.605
46416W        W14810   0.200  44.846  11.097
46417W        W14811  27.507   9.278  13.899
46418W        W14812  14.232   6.570   0.142
46419W        W14813   1.735  12.145  12.583
46420W        W14814  19.733   7.421   0.203
46421W        W14815  26.809  40.474  13.825
46422W        W14816  22.577  37.857   2.214
46423W        W14817  31.685  32.962  12.914
46424W        W14818  28.520  30.285   0.834
46425W        W14819  17.781  26.047  11.307
46426W        W14820  16.325  17.839  11.551
46427W        W14821   8.254  31.823  10.607
46428W        W14822  41.566  31.356   1.706
46429W        W14823   4.497  28.091  12.120
46430W        W14824  19.187  43.177  13.952
46431W        W14825  39.708  36.613   3.177
46432W        W14826  11.384  15.809   1.655
46433W        W14827  34.462  26.416  13.539
46434W        W14828   5.964  35.134   3.113
46435W        W14829  23.975  33.506  13.281
46436W        W14830  35.376   4.926  13.734
46437W        W14831   8.904   7.985  14.438
46438W        W14832  15.533   4.909  13.989
46439W        W14833  20.691  38.153   2.240
46440W        W14834  21.426  30.914   3.414
46441W        W14835   0.472  37.962  14.985
46442W        W14836  24.663  44.264  13.984
46443W        W14837   0.172  23.067   3.329
46444W        W14838  18.327  44.773   2.866
46445W        W14839   1.388  34.384  12.902
46446W        W14840   7.273   6.993   5.287
46447W        W14841   6.595  44.848   1.690
46448W        W14842   7.175   1.760  12.029
46449W        W14843  26.247  43.949  11.984
46450W        W14844  27.998  16.322   4.571
46451W        W14845  22.253   8.137   4.816
46452W        W14846  16.313  18.600   4.178
46453W        W14847   1.599   3.934   0.953
46454W        W14848  20.628  22.193  14.301
46455W        W14849  29.028  37.745   1.763
46456W        W14850  19.536  40.365  10.694
46457W        W14851  28.542  29.678   4.098
46458W        W14852  36.803  28.645   4.205
46459W        W14853   2.340  14.646   3.818
46460W        W14854  16.561  29.086  12.980
46461W        W14855   1.490  26.341  13.998
46462W        W14856  34.024  10.321  10.640
46463W        W14857  21.727  34.875  12.498
46464W        W14858  34.724  12.627  11.975
46465W        W14859  29.452  39.770   3.942
46466W        W14860  24.569  41.307   2.899
46467W        W14861  24.112   0.763   2.414
46468W        W14862  23.543   4.306   0.712
46469W        W14863  31.722  23.105  13.209
46470W        W14864  40.005  44.746   3.549
46471W        W14865  11.386  31.037   2.844
46472W        W14866  15.431  14.053   2.061
46473W        W14867  42.469  15.211   2.807
46474W        W14868   3.659   6.391   1.388
46475W        W14869  37.430  43.997   2.761
46476W        W14870  33.175   2.401  14.215
46477W        W14871  12.870  20.543   4.548
46478W        W14872  17.633  34.480   4.255
46479W        W14873  20.175   4.356  14.376
46480W        W14874  11.407  26.137   3.369
46481W        W14875  41.042  23.031   0.300
46482W        W14876  29.636  13.576  11.515
46483W        W14877  15.799  33.556   4.456
46484W        W14878  35.167   3.675   1.651
46485W        W14879   4.059  17.589  11.660
46486W        W14880  24.742  39.902  12.022
46487W        W14881  17.088  31.630   4.830
46488W        W14882  35.481   2.306   4.309
46489W        W14883  33.918   6.299   1.246
46490W        W14884   9.163  20.082   1.918
46491W        W14885  31.947  17.786   2.574
46492W        W14886   0.224  44.801   3.840
46493W        W14887  27.613  25.936  11.345
46494W        W14888   2.028  16.515  10.654
46495W        W14889  23.723  42.402  11.264
46496W        W14890  39.814  44.613   2.661
46497W        W14891  43.178  12.099  11.375
46498W        W14892   6.319  29.643  13.066
46499W        W14893  41.074  13.370  10.608
46500W        W14894  13.049  40.858  11.289
46501W        W14895  12.067   5.326   9.729
46502W        W14896  27.153   0.206  12.941
46503W        W14897  17.306   6.822  10.991
46504W        W14898   4.335   4.421  10.714
46505W        W14899  21.424  36.860  10.662
46506W        W14900  43.250  26.537  13.521
46507W        W14901   2.522  15.167  14.726
46508W        W14902   1.014  29.464   3.702
46509W        W14903  40.832  11.203   4.019
46510W        W14904  35.910   3.400  14.365
46511W        W14905   2.477  11.217  11.954
46512W        W14906  19.655  19.826  13.829
46513W        W14907  33.021   3.815   1.721
46514W        W14908  10.641  36.113  11.038
46515W        W14909   7.151  40.610   2.783
46516W        W14910  33.949  43.918   3.735
46517W        W14911  19.345  31.938   2.352
46518W        W14912   9.410  16.595  11.556
46519W        W14913  37.133   1.551   1.286
46520W        W14914  22.518  43.881   1.835
46521W        W14915  15.100  23.698  13.062
46522W        W14916  39.831  17.143   2.726
46523W        W14917  10.853   6.927  13.384
46524W        W14918  41.482  18.781  13.907
46525W        W14919   4.905  34.141   0.245
46526W        W14920  13.252   1.808  11.967
46527W        W14921  21.479  10.326   0.694
46528W        W14922  10.840   4.327  14.296
46529W        W14923  13.163  43.468   2.003
46530W        W14924  42.945  17.924  10.408
46531W        W14925  26.504   4.704   3.347
46532W        W14926  14.151  43.252   4.588
46533W        W14927  28.524  22.467  10.095
46534W        W14928   8.909  16.291   0.370
46535W        W14929  18.159  43.889  13.569
46536W        W14930   6.402  22.707   0.902
46537W        W14931   9.151  19.046   1.949
46538W        W14932  25.753  38.469   3.248
46539W        W14933  20.353   0.565  11.193
46540W        W14934  21.215  38.664  13.551
46541W        W14935  32.073   4.257  13.142
46542W        W14936  27.570  40.310  12.580
46543W        W14937   5.601  14.392  13.452
46544W        W14938  41.346   9.662  10.722
46545W        W14939  28.584  36.038   4.747
46546W        W14940  36.285  19.949  14.323
46547W        W14941  21.245  13.799   1.307
46548W        W14942  20.391   5.260  14.859
46549W        W14943  39.042   6.494  10.458
46550W        W14944  21.397  19.735  12.770
46551W        W14945  21.826  11.249  14.704
46552W        W14946  10.778  18.266   2.951
46553W        W14947  26.669  43.013   2.367
46554W        W14948  13.753   6.181   1.745
46555W        W14949  41.151  31.049   1.570
46556W        W14950   3.449  16.687   5.115
46557W        W14951  14.699  11.296  14.095
46558W        W14952   7.303  10.927   1.907
46559W        W14953  44.110   2.294  12.986
46560W        W14954  14.123  13.173  14.490
46561W        W14955  42.910   6.167   1.870
46562W        W14956  34.508  29.541   2.829
46563W        W14957  44.361  31.789   3.698
46564W        W14958  25.173   3.507  11.231
46565W        W14959   1.764  22.109   0.995
46566W        W14960  34.874  26.818   5.144
46567W        W14961  44.421  32.977   2.550
46568W        W14962  33.132  22.041  13.078
46569W        W14963  26.667  19.261  12.946
46570W        W14964  25.795   4.763   2.372
46571W        W14965   1.562  40.367   2.785
46572W        W14966   0.529  18.202   2.107
46573W        W14967  43.290   2.923  11.260
46574W        W14968  24.263  24.120  14.454
46575W        W14969   1.370  11.285  12.964
46576W        W14970  20.214   4.099  11.048
46577W        W14971   3.448  22.727   1.828
46578W        W14972   2.275  39.975   4.941
46579W        W14973  20.613  31.340  13.428
46580W        W14974  30.631  27.576  11.627
46581W        W14975  21.158   9.621   2.695
46582W        W14976   3.483  11.260  10.779
46583W        W14977  22.221  35.312  14.443
46584W        W14978  38.453  27.453  14.983
46585W        W14979  17.492  12.504   2.291
46586W        W14980  22.857   8.829   1.002
46587W        W14981   2.105   0.232  11.561
46588W        W14982  40.962  22.157  11.905
46589W        W14983  37.041  10.923   3.278
46590W        W14984  34.378  27.430  11.257
46591W        W14985  39.058   3.810   2.745
46592W        W14986  32.865   6.770   2.620
46593W        W14987  28.949   0.358   4.106
46594W        W14988  37.592  23.174   3.720
46595W        W14989  31.233  21.309  11.207
46596W        W14990   8.963  32.692   3.140
46597W        W14991  40.829  21.708   4.691
46598W        W14992  36.383   1.270  13.388
46599W        W14993  29.643  36.005  13.849
46600W        W14994   4.177  10.896   1.375
46601W        W14995  15.248  17.568  13.959
46602W        W14996  40.172   5.395  11.567
46603W        W14997  27.691  21.425   3.332
46604W        W14998  32.011  35.160  13.846
46605W        W14999  32.083  39.276   4.319
46606W        W15000  38.346  35.574  11.082
46607W        W15001  17.881  42.227   5.460
46608W        W15002   8.298  13.346  11.121
46609W        W15003   8.601  26.257  11.191
46610W        W15004  13.661  23.337  12.926
46611W        W15005  33.794  40.441   1.836
46612W        W15006  28.099  41.993   4.572
46613W        W15007  11.445  35.164   3.194
46614W        W15008  37.065  33.100  10.662
46615W        W15009   5.474  32.188  14.792
46616W        W15010  41.188   1.295   1.276
46617W        W15011  14.364  26.969  11.431
46618W        W15012  23.186  31.010   4.686
46619W        W15013  13.047   4.861  11.630
46620W        W15014  33.460  34.914  12.647
46621W        W15015  31.126  29.986  13.164
46622W        W15016  14.709  14.758  13.545
46623W        W15017  44.688  28.526   1.697
46624W        W15018  34.700  33.329   3.807
46625W        W15019  26.574  36.334  13.572
46626W        W15020  25.846  16.591  11.470
46627W        W15021  41.806  36.956  14.895
46628W        W15022  27.184  40.937  13.119
46629W        W15023  36.846  19.679   4.487
46630W        W15024   0.994   1.284  14.468
46631W        W15025  39.786  43.483  11.642
46632W        W15026   8.553   2.778   0.749
46633W        W15027  26.553  27.386   0.878
46634W        W15028  31.645  14.994   0.364
46635W        W15029  40.889  41.742  14.074
46636W        W15030   4.779  23.352  12.015
46637W        W15031  33.917  14.110  13.001
46638W        W15032  27.074  32.118   1.782
46639W        W15033  37.917   4.799   0.574
46640W        W15034  37.057  29.125   4.409
46641W        W15035  25.019  42.405   3.275
46642W        W15036  17.187  24.155   0.305
46643W        W15037  39.399   0.918  14.396
46644W        W15038  17.501  42.149   5.084
46645W        W15039  25.041  10.432   4.148
46646W        W15040  39.162  37.541   4.997
46647W        W15041   5.467  11.087   4.148
46648W        W15042  16.969  17.345  14.295
46649W        W15043   6.383  14.063  12.490
46650W        W15044  31.848  43.488   4.107
46651W        W15045   4.981  29.163  11.325
46652W        W15046   3.602  27.450   3.608
46653W        W15047  30.516  21.059   2.449
46654W        W15048  20.375  23.108   1.384
46655W        W15049  13.529  29.928  14.482
46656W        W15050  26.723  12.813   4.411
46657W        W15051  14.133  32.496   4.339
46658W        W15052   5.492  24.017  12.253
46659W        W15053  22.564  24.619  12.933
46660W        W15054  26.605  36.195   4.663
46661W        W15055   5.668  29.557  12.049
46662W        W15056  32.007  13.377  14.113
46663W        W15057  41.520  11.224   4.502
46664W        W15058  11.739  17.562  12.672
46665W        W15059  25.719  13.747  11.549
46666W        W15060  39.382  23.125  10.407
46667W        W15061  37.520  44.560  12.886
46668W        W15062  40.344  39.870   3.567
46669W        W15063  23.802   2.786  14.513
46670W        W15064  16.476  37.420   2.254
46671W        W15065  25.484  28.628  12.564
46672W        W15066  35.930  14.129  14.386
46673W        W15067  13.410  16.349   4.113
46674W        W15068  30.435  35.927   4.081
46675W        W15069   1.454   7.671   2.684
46676W        W15070  22.570  36.394   3.684
46677W        W15071  27.109  12.802   4.073
46678W        W15072   8.251  37.963  14.809
46679W        W15073  40.855  25.683   0.928
46680W        W15074  10.558  13.148  13.991
46681W        W15075  30.832  39.924   1.902
46682W        W15076   5.669   5.920  14.898
46683W        W15077  27.042  34.020  14.544
46684W        W15078  42.414  33.379  10.606
46685W        W15079  25.965   6.798   2.067
46686W        W15080  24.102   0.230  11.650
46687W        W15081  42.134   5.183   4.422
46688W        W15082   5.792  13.172   1.632
46689W        W15083  40.834   3.303  11.166
46690W        W15084  39.932   3.360   1.939
46691W        W15085  33.337   4.888  14.436
46692W        W15086  40.504   9.045  14.408
46693W        W15087  27.935   1.153  11.281
46694W        W15088  30.642  19.159   3.825
46695W        W15089  12.194  29.697   1.342
46696W        W15090  37.814  28.324  12.460
46697W        W15091  34.928  42.325  11.481
46698W        W15092  24.934   9.261  12.009
46699W        W15093  28.897  29.036   1.673
46700W        W15094   4.837  21.233  10.610
46701W        W15095  35.988  24.669   3.273
46702W        W15096  38.853  42.952  12.474
46703W        W15097   9.782  21.329   3.290
46704W        W15098  30.410  34.924  11.254
46705W        W15099  34.348  17.941   3.082
46706W        W15100   6.181  36.483   0.442
46707W        W15101  42.847   8.198   2.371
46708W        W15102  35.034  13.404   1.803
46709W        W15103  31.811  34.407  14.809
46710W        W15104  22.046  16.605   3.884
46711W        W15105  38.565  28.660  10.717
46712W        W15106  10.351  18.227   3.795
46713W        W15107  41.766  37.727   1.297
46714W        W15108  22.174   4.435   1.846
46715W        W15109  20.793  13.849  14.998
46716W        W15110  11.801  35.578   1.856
46717W        W15111   5.555   6.356   1.058
46718W        W15112  19.357  16.865  14.304
46719W        W15113  29.503   4.946   4.598
46720W        W15114  43.805  28.761   1.597
46721W        W15115  38.819  35.188   1.441
46722W        W15116  15.571  40.271  11.356
46723W        W15117  42.929  44.894   1.485
46724W        W15118  11.871  19.760   2.818
46725W        W15119   9.845  44.470  13.478
46726W        W15120   6.705  18.937  14.050
46727W        W15121   9.789  20.281  13.376
46728W        W15122  30.460  21.514  14.518
46729W        W15123  44.292  25.828   5.107
46730W        W15124  39.816  21.183  11.447
46731W        W15125   6.454  37.110   2.782
46732W        W15126  12.309  24.232   4.286
46733W        W15127  15.121   9.921   0.070
46734W        W15128  22.494   4.484   9.961
46735W        W15129   4.075  10.496   2.644
46736W        W15130  28.403   3.880  11.183
46737W        W15131   0.179  43.745   2.600
46738W        W15132  30.000  25.078   0.080
46739W        W15133  14.840  11.836  14.877
46740W        W15134  35.017  27.880   2.150
46741W        W15135  37.831   7.353   3.852
46742W        W15136  41.146  34.591  12.196
46743W        W15137  36.350   7.965   2.182
46744W        W15138  33.528   6.919   2.391
46745W        W15139  13.128   8.984  13.924
46746W        W15140  12.334  25.128   4.430
46747W        W15141   3.035   8.062   1.052
46748W        W15142  13.788  43.087  11.742
46749W        W15143  17.394   1.454   1.671
46750W        W15144  36.647  38.986   3.198
46751W        W15145  22.781  30.320   2.189
46752W        W15146   7.308  26.085   0.199
46753W        W15147  18.840  38.485  13.283
46754W        W15148  44.850  14.789  13.349
46755W        W15149  31.166  13.369   2.408
46756W        W15150  43.092  13.827  11.966
46757W        W15151   5.219  32.654  13.547
46758W        W15152  40.549  44.044  12.054
46759W        W15153  20.034  29.602  14.164
46760W        W15154   8.873  33.374   4.495
46761W        W15155  22.225  33.415  14.564
46762W        W15156  38.405  43.300   0.535
46763W        W15157  40.958  31.599  13.822
46764W        W15158   3.877  36.581   3.326
46765W        W15159  37.855   4.105   4.878
46766W        W15160   6.076  39.559  11.136
46767W        W15161  34.226  19.535   4.658
46768W        W15162  28.797  21.619   1.946
46769W        W15163  12.995  28.919   0.279
46770W        W15164  12.714  37.433  11.470
46771W        W15165   1.202  24.002  11.160
46772W        W15166  28.940  34.985   2.889
46773W        W15167  34.911  20.716   3.400
46774W        W15168   7.394  30.403   4.579
46775W        W15169  26.832  17.850   4.064
46776W        W15170   6.218  23.572  14.913
46777W        W15171  14.072  21.022  11.579
46778W        W15172  14.584  35.455  13.360
46779W        W15173  29.112  10.577  11.133
46780W        W15174  43.596   8.784   3.485
46781W        W15175  17.843  28.148  14.020
46782W        W15176  37.540  29.616  12.258
46783W        W15177  20.350  36.082  13.605
46784W        W15178  20.205  19.829   1.760
46785W        W15179  35.331  18.732   0.803
46786W        W15180  18.064  20.008  11.978
46787W        W15181   9.436  25.697   2.360
46788W        W15182  36.530  12.111   2.860
46789W        W15183   6.062  41.439  14.945
46790W        W15184  37.416  32.554  14.312
46791W        W15185   8.961  14.712   1.277
46792W        W15186   6.243   8.647   3.825
46793W        W15187   9.548   5.137   2.190
46794W        W15188  28.914   8.717  12.549
46795W        W15189  31.483  22.085   2.862
46796W        W15190   6.835  32.185   3.651
46797W        W15191  31.651  37.063   4.893
46798W        W15192  14.172  26.562   2.170
46799W        W15193  17.135  19.468   1.171
46800W        W15194  38.364  28.140   4.866
46801W        W15195  29.150  42.760   1.970
46802W        W15196  38.460  34.712  11.407
46803W        W15197  30.449  39.035  11.002
46804W        W15198  44.366   5.983  12.396
46805W        W15199  29.279   2.529   1.691
46806W        W15200  12.692   6.216   3.722
46807W        W15201  41.455  21.786   0.767
46808W        W15202  41.016   2.973   3.703
46809W        W15203  29.343  38.251  13.824
46810W        W15204  42.894  38.310  12.514
46811W        W15205   9.966  26.073   1.558
46812W        W15206  44.073   0.692   1.543
46813W        W15207  17.558   4.782  14.968
46814W        W15208  16.523  39.336   0.934
46815W        W15209   4.962   7.951  10.738
46816W        W15210  32.324  32.977   4.553
46817W        W15211  32.114   7.584   0.841
46818W        W15212  23.711  21.544   2.061
46819W        W15213  13.725  44.467  14.310
46820W        W15214   8.269   0.190   2.356
46821W        W15215  17.903   5.393   4.054
46822W        W15216  25.422   6.806   1.223
46823W        W15217   5.707  27.876  13.636
46824W        W15218  12.931  16.105  13.003
46825W        W15219  39.853  28.639  14.751
46826W        W15220  29.968  16.254  12.689
46827W        W15221  41.064   7.783   4.774
46828W        W15222  43.837   6.949   4.917
46829W        W15223  21.778  40.674   2.641
46830W        W15224   7.970  20.753   4.646
46831W        W15225  29.696  14.721   0.425
46832W        W15226   4.768  22.144  13.453
46833W        W15227  33.320   9.133   2.258
46834W        W15228  27.046   3.827  12.842
46835W        W15229  35.674  43.986  13.287
46836W        W15230  25.128  18.698  11.190
46837W        W15231  11.230  19.673  12.386
46838W        W15232  28.881  20.379  14.324
46839W        W15233   3.476   5.429  13.313
46840W        W15234  31.456  40.517   3.161
46841W        W15235  42.912  42.552   0.403
46842W        W15236  44.107  41.391  14.908
46843W        W15237   7.821  26.024   2.574
46844W        W15238  37.909  33.291   2.932
46845W        W15239  25.551   2.872   2.902
46846W        W15240  23.331  25.126   1.452
46847W        W15241  37.802  25.604   2.834
46848W        W15242   7.923  35.270  12.466
46849W        W15243  12.897  15.733   2.423
46850W        W15244  22.011  22.278   2.730
46851W        W15245  17.049   8.307  14.918
46852W        W15246  13.944  44.908  14.061
46853W        W15247   5.905  17.669  14.586
46854W        W15248  17.254  10.920   1.671
46855W        W15249  35.865  12.882  12.620
46856W        W15250  43.188  40.501  14.940
46857W        W15251  33.092  37.973  11.076
46858W        W15252  28.963  24.001  13.339
46859W        W15253  10.674  10.901  11.891
46860W        W15254  38.052  11.285   4.556
46861W        W15255  25.207  33.626   2.950
46862W        W15256  14.685  33.081  11.114
46863W        W15257  34.540  33.232   2.068
46864W        W15258  22.264  22.710  10.658
46865W        W15259  19.870  44.825   3.844
46866W        W15260  14.879   2.327  10.800
46867W        W15261  39.580   8.159  14.807
46868W        W15262   0.944  44.254  13.015
46869W        W15263  16.071  22.172   3.960
46870W        W15264  24.792  33.111  13.099
46871W        W15265  33.162  16.044   3.761
46872W        W15266  17.343   2.322  12.260
46873W        W15267  17.677  31.574   4.431
46874W        W15268  24.547  12.316  14.458
46875W        W15269  26.954   5.217   3.765
46876W        W15270  37.284  22.802  13.021
46877W        W15271   7.946  34.809  13.802
46878W        W15272  37.462  26.610   1.801
46879W        W15273   1.711  40.598  11.892
46880W        W15274  25.089  42.060  14.141
46881W        W15275   0.922  19.409  12.909
46882W        W15276  27.981  28.897   3.818
46883W        W15277  30.376  29.520   0.889
46884W        W15278  19.534   0.074  12.216
46885W        W15279  38.324  31.913   3.242
46886W        W15280   2.354   2.672  12.396
46887W        W15281  44.925  16.034   0.206
46888W        W15282   1.713  42.916   3.318
46889W        W15283  23.136  26.903   0.860
46890W        W15284   5.754  18.319  10.612
46891W        W15285  13.469  42.935   4.311
46892W        W15286  29.997  36.369   4.830
46893W        W15287  14.417  16.259   4.266
46894W        W15288   4.605  15.810   1.907
46895W        W15289  35.590  25.918  13.809
46896W        W15290  31.005  21.370  11.661
46897W        W15291   2.416   1.695  10.711
46898W        W15292   4.841  27.073   4.114
46899W        W15293  20.167  11.787   2.113
46900W        W15294  38.845   4.162   4.445
46901W        W15295   5.598  42.187   3.871
46902W        W15296   6.397   6.969   0.443
46903W        W15297  41.042  39.929  14.885
46904W        W15298  32.887  10.432  13.665
46905W        W15299  38.901   3.062   1.443
46906W        W15300  27.117  32.086  13.759
46907W        W15301   1.616  12.614   3.710
46908W        W15302   3.387  25.744   2.291
46909W        W15303  39.416   6.491   4.600
46910W        W15304  25.970  42.024  13.189
46911W        W15305  28.553  10.159   4.600
46912W        W15306  24.845  24.347  10.699
46913W        W15307  12.196  18.233  11.529
46914W        W15308  22.299  26.114   3.773
46915W        W15309  28.546  34.061   2.425
46916W        W15310  15.911  16.592   4.946
46917W        W15311  34.959  43.951   1.812
46918W        W15312  41.901   1.267  13.546
46919W        W15313  42.522  19.819  12.288
46920W        W15314  28.241  13.624  11.609
46921W        W15315   5.522  20.271  14.013
46922W        W15316   3.002  35.068  10.610
46923W        W15317  32.913   5.605   4.571
46924W        W15318  36.827  43.283   0.809
46925W        W15319   3.956  28.941  11.257
46926W        W15320  38.297  11.974   1.907
46927W        W15321  31.511  35.902   3.708
46928W        W15322   2.252  22.314  14.839
46929W        W15323  38.617  42.274   4.187
46930W        W15324  13.940  29.764   1.351
46931W        W15325  13.287   0.975  10.431
46932W        W15326  24.164  19.865   2.430
46933W        W15327   2.476  16.171  12.011
46934W        W15328  21.531  33.319   1.731
46935W        W15329  24.520  38.219   2.815
46936W        W15330  28.624  21.586   2.852
46937W        W15331  32.672   5.725  14.920
46938W        W15332   9.601  25.237  10.231
46939W        W15333  29.462   1.036  11.756
46940W        W15334   5.288   7.892   0.415
46941W        W15335  41.959  39.534   1.847
46942W        W15336  36.525  40.882  14.904
46943W        W15337  28.438   4.976   4.620
46944W        W15338   0.551  26.662  13.045
46945W        W15339   7.104  19.301   4.116
46946W        W15340  20.282  35.921   3.567
46947W        W15341  34.634  37.811   1.297
46948W        W15342  28.893  11.303   4.172
46949W        W15343   5.963  27.346  14.274
46950W        W15344  38.450   5.850  13.379
46951W        W15345  17.781   7.731  10.634
46952W        W15346   4.501  20.038  14.766
46953W        W15347  18.757  36.065   4.527
46954W        W15348  18.867  18.380   1.370
46955W        W15349  13.161  31.377  12.008
46956W        W15350  16.578   0.495  12.854
46957W        W15351  12.807  24.039   4.181
46958W        W15352  13.108   7.622  14.968
46959W        W15353  40.325   2.929  12.046
46960W        W15354  29.253   0.993   3.244
46961W        W15355  26.453  13.102   1.690
46962W        W15356   3.973  27.994  11.262
46963W        W15357   4.751   5.450  12.526
46964W        W15358  17.085   5.741   4.552
46965W        W15359  22.696   4.912  14.312
46966W        W15360  27.157  41.483  11.668
46967W        W15361  42.320   8.745  12.417
46968W        W15362  31.579  22.683   1.367
46969W        W15363  43.863   1.182  11.261
46970W        W15364   2.590  11.918  14.308
46971W        W15365  25.487  16.268  11.228
46972W        W15366  30.204  42.935   0.862
46973W        W15367  22.584  41.045   1.340
46974W        W15368   2.463  21.325   4.075
46975W        W15369   4.729  31.917   1.688
46976W        W15370  23.848  27.961   4.080
46977W        W15371  33.001  32.804   1.797
46978W        W15372   6.426  30.666  11.601
46979W        W15373  28.666  35.905  13.814
46980W        W15374  39.781   5.236  13.188
46981W        W15375   8.937  30.149  13.059
46982W        W15376   9.338  33.596  11.626
46983W        W15377  44.445  41.774  12.195
46984W        W15378  26.534  18.155  14.887
46985W        W15379   2.796  26.145   3.637
46986W        W15380  39.990  16.583   1.519
46987W        W15381  35.865  15.879  14.220
46988W        W15382  18.221  12.960  11.777
46989W        W15383  31.552  30.120   3.244
46990W        W15384  20.593  12.190   2.932
46991W        W15385   2.712  37.572  12.677
46992W        W15386  29.945  42.720   4.062
46993W        W15387   9.849  27.275   4.312
46994W        W15388  32.179  12.914   0.304
46995W        W15389  26.489   8.418  11.013
46996W        W15390  17.698  20.999  10.646
46997W        W15391  30.673  36.296  12.089
46998W        W15392  15.827  27.344   0.130
46999W        W15393  21.976  11.674   2.657
47000W        W15394   2.905  20.508  11.186
47001W        W15395  14.294  23.413  13.924
47002W        W15396   0.357  29.874   2.765
47003W        W15397  15.845   6.427  12.601
47004W        W15398  25.974  18.618  10.736
47005W        W15399   4.795  20.113   4.426
47006W        W15400  40.582  12.148   4.532
47007W        W15401  29.518  11.493  12.081
47008W        W15402  34.056  16.010   0.355
47009W        W15403   3.506  21.296  10.650
47010W        W15404  10.738  36.304   3.384
47011W        W15405  19.108   9.612   2.235
47012W        W15406  12.203  30.687  11.681
47013W        W15407  19.539   8.943  11.609
47014W        W15408   1.823  23.499  10.772
47015W        W15409  10.646  16.262   1.014
47016W        W15410  11.143  16.232  11.109
47017W        W15411  29.382  17.154  14.994
47018W        W15412   1.278   2.228  14.754
47019W        W15413   1.464  19.138   4.250
47020W        W15414   3.740  20.655  12.346
47021W        W15415  14.175  10.646   4.222
47022W        W15416   9.484  19.573   3.185
47023W        W15417   6.231  32.951   2.852
47024W        W15418  24.002  29.639  12.426
47025W        W15419  24.422  18.351  12.390
47026W        W15420   3.623  18.705  11.049
47027W        W15421  37.863  23.993   2.988
47028W        W15422  15.429  37.913  12.611
47029W        W15423  11.226  26.752  13.533
47030W        W15424  29.658   5.839  12.747
47031W        W15425  33.439  37.241   2.210
47032W        W15426  37.918  31.408   2.171
47033W        W15427  34.549  22.933   2.226
47034W        W15428  25.387  10.700   3.799
47035W        W15429   0.338  13.121  13.503
47036W        W15430  34.308  43.538  14.230
47037W        W15431  36.027  17.090  10.735
47038W        W15432  17.378  32.868   4.245
47039W        W15433  27.038  18.800   1.004
47040W        W15434  33.571   6.755   4.909
47041W        W15435  27.638  12.728   2.384
47042W        W15436   8.901  31.523   0.917
47043W        W15437  21.637   2.186  11.012
47044W        W15438  32.098  40.481  12.199
47045W        W15439  36.452  29.321  13.426
47046W        W15440  18.743   6.764   2.373
47047W        W15441  39.445  21.516   3.247
47048W        W15442  33.158  40.030   0.287
47049W        W15443  14.973  30.964  13.866
47050W        W15444  17.194  11.194   0.798
47051W        W15445  40.769  44.740   1.790
47052W        W15446  32.407  35.908  12.269
47053W        W15447  16.596  36.293   1.308
47054W        W15448  16.062  25.499   0.809
47055W        W15449  35.806   4.444   1.413
47056W        W15450   2.228   1.406   1.950
47057W        W15451  10.500  13.586  13.530
47058W        W15452  38.344   7.203  10.597
47059W        W15453  43.327   8.071  12.300
47060W        W15454  33.606  23.548  12.823
47061W        W15455  30.855  27.403  13.569
47062W        W15456  43.521  27.998  12.673
47063W        W15457  24.054   6.706  12.577
47064W        W15458   3.798  31.386  10.969
47065W        W15459  42.474  26.466   0.348
47066W        W15460  16.520  14.118   0.840
47067W        W15461   9.113  42.424  13.899
47068W        W15462  44.069   9.669   1.046
47069W        W15463  28.136  14.211  13.343
47070W        W15464   0.865  38.515  11.504
47071W        W15465  35.260  14.296   2.671
47072W        W15466   8.748  36.750  13.947
47073W        W15467  38.653  11.406  10.355
47074W        W15468  16.635  23.519  14.828
47075W        W15469  22.695   0.371  14.862
47076W        W15470   0.998   1.235  12.502
47077W        W15471  24.229   1.417   0.280
47078W        W15472  41.108  31.365   3.741
47079W        W15473  23.681  10.711   2.552
47080W        W15474  20.161  43.385  13.802
47081W        W15475  24.045  18.860  13.112
47082W        W15476  31.610   2.511   1.705
47083W        W15477  16.990  29.448  10.331
47084W        W15478  44.254   7.614  12.838
47085W        W15479  28.756  34.557   4.583
47086W        W15480  33.606   3.538   1.911
47087W        W15481  10.245  36.938   1.438
47088W        W15482   4.890  38.935   4.576
47089W        W15483  39.868   3.380   2.438
47090W        W15484  25.291  39.713  13.447
47091W        W15485  42.461  30.641  12.062
47092W        W15486  35.122  19.607   1.968
47093W        W15487   6.279  34.923   4.099
47094W        W15488  20.702  20.666   1.802
47095W        W15489  28.352  23.049  12.044
47096W        W15490   5.462  33.115  12.309
47097W        W15491   6.900  42.000  12.109
47098W        W15492  23.039  17.145  10.733
47099W        W15493  39.063  23.275   2.218
47100W        W15494   7.461  41.869  13.708
47101W        W15495  22.672  42.309   4.355
47102W        W15496   4.212  16.038   4.137
47103W        W15497  32.860   0.439   0.619
47104W        W15498  16.155  14.204  11.177
47105W        W15499  19.554  18.451  11.650
47106W        W15500  43.716  19.345   3.721
47107W        W15501  43.916  25.656   0.256
47108W        W15502  22.089  16.589  14.478
47109W        W15503   8.679   3.999  14.331
47110W        W15504  10.394   8.852  14.985
47111W        W15505  23.499  18.663   0.518
47112W        W15506  41.892  36.607  13.009
47113W        W15507  28.254  31.403   2.672
47114W        W15508  39.809  16.801  13.927
47115W        W15509  42.363  32.566   1.866
47116W        W15510  15.154  28.266  10.775
47117W        W15511  22.841   0.906   1.274
47118W        W15512  16.790  10.655  14.248
47119W        W15513  39.788   5.717   3.222
47120W        W15514  18.650  27.233   3.107
47121W        W15515  18.248  27.037  12.636
47122W        W15516  27.524   4.393   0.335
47123W        W15517  21.884  25.311  10.224
47124W        W15518  29.684  41.351  13.074
47125W        W15519  41.796  31.943  13.812
47126W        W15520  16.289  34.488  13.052
47127W        W15521  13.165  42.326   0.111
47128W        W15522  27.544  30.636  11.553
47129W        W15523  18.413  19.263   2.296
47130W        W15524  10.349  30.093  13.340
47131W        W15525  19.520  42.340   1.387
47132W        W15526  16.490  39.793   4.653
47133W        W15527  29.545  20.676  11.794
47134W        W15528  37.419   6.380   4.853
47135W        W15529   2.936   2.416   0.359
47136W        W15530  41.033  34.168   2.737
47137W        W15531  28.976  31.649  12.000
47138W        W15532  20.178  20.733  14.504
47139W        W15533  34.511  37.806   4.820
47140W        W15534  16.498  41.288   2.872
47141W        W15535  37.450  41.003   4.144
47142W        W15536  13.658  10.392  11.172
47143W        W15537  44.193  31.299   0.810
47144W        W15538  14.526   7.023  12.246
47145W        W15539  40.789  43.582  10.673
47146W        W15540  19.051  26.899   0.206
47147W        W15541  32.194  13.843  14.278
47148W        W15542   7.693  28.862  11.995
47149W        W15543  18.921  15.161   3.617
47150W        W15544  25.743  20.668  13.967
47151W        W15545  13.284  29.487  14.049
47152W        W15546  15.367  34.101  14.001
47153W        W15547  41.855  44.093  12.610
47154W        W15548  11.605  15.753  13.816
47155W        W15549  16.769  28.439  11.507
47156W        W15550  12.066  42.852   2.336
47157W        W15551  31.598  22.990   2.644
47158W        W15552  17.229  27.190   2.588
47159W        W15553  42.797  14.322   4.636
47160W        W15554   4.197  18.770  11.577
47161W        W15555  19.173  17.404   3.095
47162W        W15556  12.784  32.485   4.143
47163W        W15557  25.185  33.970  13.588
47164W        W15558  32.433  35.010   0.036
47165W        W15559   2.470   0.228  10.739
47166W        W15560  40.009  13.268   2.692
47167W        W15561   7.199  17.183  14.372
47168W        W15562  35.292  43.217   9.976
47169W        W15563  21.020  22.996  14.465
47170W        W15564  19.076  10.811   3.977
47171W        W15565  21.591  43.829   4.266
47172W        W15566  22.897  36.387  14.440
47173W        W15567  19.736  43.893  13.801
47174W        W15568  22.693  19.110  14.491
47175W        W15569  43.398  33.549  10.283
47176W        W15570  10.842  30.116  10.591
47177W        W15571  27.612   2.885  12.800
47178W        W15572  22.774  17.757   2.777
47179W        W15573  17.111   8.259   2.880
47180W        W15574  12.362  14.895   2.384
47181W        W15575  22.219  36.520  14.969
47182W        W15576  40.963   3.740   4.930
47183W        W15577  35.122  24.656  13.895
47184W        W15578  13.962   7.744  12.076
47185W        W15579  16.810  24.009  12.502
47186W        W15580   4.293   6.968   4.238
47187W        W15581  29.699  17.868   4.784
47188W        W15582   6.220  27.025  11.512
47189W        W15583   8.087  41.014  13.879
47190W        W15584  31.787  27.058  14.850
47191W        W15585  24.164   6.320  13.762
47192W        W15586  26.933  18.635   0.526
47193W        W15587  19.927  17.078  13.722
47194W        W15588  21.506  40.825  14.346
47195W        W15589  30.546  39.806  14.482
47196W        W15590   7.759  35.438   3.576
47197W        W15591  15.758   8.012  13.890
47198W        W15592  40.215  21.764  13.897
47199W        W15593  36.466  22.045  14.387
47200W        W15594  13.296  21.792   3.168
47201W        W15595   1.765   8.715  11.141
47202W        W15596  26.409  12.717   2.049
47203W        W15597  40.560  12.127  12.172
47204W        W15598   8.844  31.952  11.516
47205W        W15599  27.255  15.014   3.629
47206W        W15600  34.694  27.410   1.460
47207W        W15601  35.778   3.863   3.290
47208W        W15602  11.705  14.127  11.206
47209W        W15603  27.980  13.022   0.723
47210W        W15604  24.602  14.386  13.452
47211W        W15605  20.376  36.942   1.808
47212W        W15606  19.211  29.166   0.692
47213W        W15607  18.959  15.683   3.500
47214W        W15608  21.212  18.273  12.991
47215W        W15609   0.932  16.993  13.476
47216W        W15610  13.620  33.801  14.819
47217W        W15611  18.309  33.082   4.598
47218W        W15612  32.732  38.628   4.551
47219W        W15613  15.365  21.601  14.705
47220W        W15614  20.729   7.131  13.301
47221W        W15615  43.510  25.478  12.480
47222W        W15616   3.323   3.679   4.651
47223W        W15617   1.361  19.719  12.656
47224W        W15618  44.775  25.995  13.032
47225W        W15619  38.351  10.761   0.814
47226W        W15620   6.201  38.313   1.578
47227W        W15621  31.944  30.049   4.278
47228W        W15622  32.529  24.230   2.382
47229W        W15623  42.540  37.316  11.674
47230W        W15624  14.819  12.287  12.484
47231W        W15625  40.021  44.249  14.886
47232W        W15626  31.685  22.726  12.412
47233W        W15627   4.312  28.872   0.300
47234W        W15628   6.441  30.896  13.401
47235W        W15629   0.311   9.592  12.071
47236W        W15630  25.060  35.488   0.810
47237W        W15631  23.602  33.522  12.102
47238W        W15632  26.969   5.026   0.618
47239W        W15633  38.888  20.283   2.897
47240W        W15634   6.194  14.093   4.048
47241W        W15635  21.948  18.622  14.316
47242W        W15636  10.819  25.243   2.280
47243W        W15637  11.359  15.079   3.683
47244W        W15638  16.630   5.532   1.484
47245W        W15639  26.584  37.420   4.224
47246W        W15640  24.078  38.508   0.498
47247W        W15641  40.559  17.729  14.270
47248W        W15642  34.454  20.809   2.767
47249W        W15643  10.126   2.280  11.127
47250W        W15644  31.809  21.691   0.004
47251W        W15645  18.998  29.933   2.258
47252W        W15646  33.112   8.383   4.616
47253W        W15647  41.955  23.353   9.950
47254W        W15648  36.089  17.853  12.093
47255W        W15649  39.845  35.739  10.679
47256W        W15650  44.113  17.790   1.428
47257W        W15651  40.941   1.646  13.518
47258W        W15652  12.266  35.384  12.531
47259W        W15653   6.895  30.697   1.217
47260W        W15654   2.965  35.021   3.857
47261W        W15655  16.850  15.308  12.560
47262W        W15656  12.723  10.771  11.963
47263W        W15657  17.055  35.325  12.540
47264W        W15658   1.985   5.359   1.851
47265W        W15659  39.500   3.011  14.769
47266W        W15660  22.284  12.944   1.203
47267W        W15661   8.173  32.188   2.111
47268W        W15662   0.905  33.440   1.611
47269W        W15663   6.222  20.230  11.572
47270W        W15664  27.934  41.456  14.336
47271W        W15665   0.695  43.173  11.627
47272W        W15666   6.960  43.038  11.335
47273W        W15667   5.341   2.030   4.305
47274W        W15668  36.315  32.160   3.170
47275W        W15669   9.297  27.194   3.585
47276W        W15670  34.000  13.479  13.855
47277W        W15671  36.653  17.251   2.174
47278W        W15672  38.548  38.897   4.044
47279W        W15673  10.923   9.692   1.907
47280W        W15674  41.573   5.444   1.784
47281W        W15675  13.191  37.286   2.294
47282W        W15676  27.132   2.176  11.130
47283W        W15677   3.920  29.638   2.137
47284W        W15678  15.358  15.106  11.554
47285W        W15679   9.692  15.455  11.598
47286W        W15680  34.973  22.933   3.949
47287W        W15681  10.023  26.005   9.694
47288W        W15682  35.010   3.520   4.134
47289W        W15683  14.353  30.410   3.024
47290W        W15684  30.413  34.861   1.608
47291W        W15685  27.815  17.105   0.657
47292W        W15686   2.740   3.436  11.545
47293W        W15687  25.736  20.314  12.914
47294W        W15688   0.389  33.005   3.118
47295W        W15689  34.632   7.919   2.784
47296W        W15690  44.486  25.193   5.015
47297W        W15691   9.730  10.738   0.165
47298W        W15692  22.564  28.011   1.995
47299W        W15693  35.625  15.620   2.317
47300W        W15694   4.853   0.322  11.218
47301W        W15695  14.728  21.829   3.677
47302W        W15696  41.699  25.171  14.285
47303W        W15697  11.436  27.197   3.574
47304W        W15698  16.537   7.102   2.827
47305W        W15699  38.537  42.195  10.491
47306W        W15700   8.134  22.612  13.346
47307W        W15701  32.400  38.513  11.563
47308W        W15702  28.628   9.582  13.308
47309W        W15703  12.157  37.208  12.090
47310W        W15704   5.839  18.154  11.539
47311W        W15705  16.463  25.271  11.134
47312W        W15706  33.395  42.452  11.587
47313W        W15707   1.057  14.590   0.281
47314W        W15708  42.702  21.994  13.260
47315W        W15709  19.241  34.418  10.691
47316W        W15710  29.158  23.924  12.510
47317W        W15711  30.373  41.430   4.156
47318W        W15712   1.836  14.305   5.093
47319W        W15713  21.298   1.311   2.812
47320W        W15714  39.864  32.975   1.223
47321W        W15715  41.761  35.543   1.334
47322W        W15716   1.932  16.314  11.124
47323W        W15717  22.733   7.815  12.669
47324W        W15718  33.163  36.096   2.367
47325W        W15719  23.448  22.686   4.048
47326W        W15720  31.081  37.280   4.265
47327W        W15721  36.398  34.344   0.914
47328W        W15722  36.719  15.071  12.523
47329W        W15723   3.677  41.452  12.393
47330W        W15724  27.953  22.657  12.493
47331W        W15725  13.263   4.810   4.711
47332W        W15726  24.348  33.135   2.372
47333W        W15727   8.302  37.589   4.988
47334W        W15728  21.545  19.659  13.261
47335W        W15729  24.817   4.935   2.432
47336W        W15730  24.946  42.398   2.341
47337W        W15731  25.166   1.226   0.539
47338W        W15732  16.005   8.665  13.105
47339W        W15733  20.583   6.220   2.418
47340W        W15734  11.620   6.149   4.381
47341W        W15735  17.815  10.550   0.825
47342W        W15736   3.248  17.565   4.072
47343W        W15737  35.949  12.222   2.277
47344W        W15738  22.592  44.235   4.040
47345W        W15739  26.660  30.101   0.023
47346W        W15740  37.247  11.675  12.024
47347W        W15741  26.545  21.375  11.932
47348W        W15742  23.223  35.384  14.452
47349W        W15743  16.040  27.645   3.191
47350W        W15744  16.317  35.505  13.029
47351W        W15745  44.742  30.478   2.803
47352W        W15746  23.445  40.003   1.420
47353W        W15747   7.714  23.147  11.669
47354W        W15748  18.252  30.373  10.424
47355W        W15749  42.464  41.013  14.047
47356W        W15750  27.978  11.374   1.827
47357W        W15751  31.924  30.948  14.363
47358W        W15752  22.491  40.451  13.884
47359W        W15753  38.321  21.283   1.168
47360W        W15754  33.637   9.251  12.908
47361W        W15755  26.761  37.836   2.643
47362W        W15756  43.894  11.971   4.985
47363W        W15757  32.126  27.776   2.015
47364W        W15758  25.609  21.218  13.886
47365W        W15759   9.238  34.391   2.448
47366W        W15760  43.966  23.924   0.930
47367W        W15761   2.765  24.607   3.402
47368W        W15762  43.421  32.227  11.061
47369W        W15763  22.096  36.297   0.496
47370W        W15764  43.280  37.415   3.131
47371W        W15765  37.935  42.789   0.892
47372W        W15766  22.189  33.353   2.437
47373W        W15767  13.212  15.751   0.945
47374W        W15768  38.053  30.094   0.553
47375W        W15769  11.609  39.398   2.504
47376W        W15770  34.479  39.075  11.512
47377W        W15771  40.486  42.891   2.686
47378W        W15772  31.100  31.977  12.919
47379W        W15773   2.958  17.053  13.259
47380W        W15774  20.372  39.649   4.116
47381W        W15775  27.199  16.694   4.762
47382W        W15776   0.435   6.558  12.974
47383W        W15777   0.603   6.780   4.158
47384W        W15778  20.980  41.935  11.219
47385W        W15779  18.015  31.569   1.304
47386W        W15780  39.328   0.721   4.861
47387W        W15781   3.736  40.327  10.816
47388W        W15782  34.120  21.777   2.744
47389W        W15783  34.885  30.819   3.134
47390W        W15784  18.372  33.414   1.705
47391W        W15785  37.095   9.183   0.813
47392W        W15786  15.168  44.926  12.361
47393W        W15787  29.775   9.321   3.598
47394W        W15788  26.960  14.625  13.396
47395W        W15789  38.101  16.823  10.716
47396W        W15790  38.084  32.144   2.740
47397W        W15791  30.195  21.179  12.074
47398W        W15792  28.726  27.154  14.339
47399W        W15793  33.546  20.251   1.401
47400W        W15794  20.315  26.100   0.906
47401W        W15795  36.598  17.411   4.575
47402W        W15796   9.197  21.718   4.747
47403W        W15797  28.236  43.346  10.954
47404W        W15798  21.799  31.682   4.554
47405W        W15799  22.636  43.284   4.502
47406W        W15800  26.179  16.405  11.038
47407W        W15801   5.683  30.980  14.545
47408W        W15802  12.977   1.944   4.724
47409W        W15803   9.340  37.013   1.302
47410W        W15804  18.580  42.730   2.739
47411W        W15805  42.013  31.388   3.592
47412W        W15806  19.162  13.336   1.386
47413W        W15807  39.842   6.639   1.250
47414W        W15808   0.956   6.666  12.887
47415W        W15809   2.439  38.574   1.690
47416W        W15810  20.183  44.433   2.725
47417W        W15811  29.606   2.778  14.183
47418W        W15812  30.451  37.062  14.721
47419W        W15813  23.029   6.702  14.326
47420W        W15814  39.767   8.563  11.568
47421W        W15815  42.354   2.381  13.611
47422W        W15816  12.737  17.686  11.573
47423W        W15817   1.892  17.268  11.152
47424W        W15818  20.382  16.671  10.123
47425W        W15819  39.276  35.511   2.862
47426W        W15820  28.360  11.231   2.797
47427W        W15821   6.651  42.960  11.741
47428W        W15822   4.198   5.767  10.979
47429W        W15823  42.805  12.285  13.799
47430W        W15824  11.246  24.960  13.952
47431W        W15825  13.807   5.800  11.205
47432W        W15826   6.777  40.246  14.777
47433W        W15827  40.834  38.446   2.148
47434W        W15828  26.597  34.625   2.281
47435W        W15829   1.289  17.270   4.472
47436W        W15830  43.469   2.758   3.341
47437W        W15831  32.481  26.603   9.989
47438W        W15832  28.750  22.743   2.076
47439W        W15833  32.512  11.375   2.835
47440W        W15834   8.426  15.893  13.991
47441W        W15835   7.947  10.332   0.266
47442W        W15836  15.272  43.807   2.976
47443W        W15837  25.467  20.347  13.353
47444W        W15838  23.670  39.559   0.786
47445W        W15839  24.565  36.022  13.794
47446W        W15840  17.135  24.032   1.939
47447W        W15841  44.366   5.845  14.836
47448W        W15842  20.085  23.404   4.114
47449W        W15843  21.282  21.022   1.146
47450W        W15844  35.911  26.683  13.997
47451W        W15845   5.386  41.411   3.328
47452W        W15846  29.569  39.035  11.225
47453W        W15847  38.388  29.984  14.268
47454W        W15848  42.420  36.513  12.339
47455W        W15849  10.568  26.740  12.437
47456W        W15850  36.927  21.032   0.979
47457W        W15851  39.680  31.144   0.804
47458W        W15852  32.018   3.631   1.293
47459W        W15853   4.744   1.758   1.284
47460W        W15854  28.229  14.044  11.324
47461W        W15855   1.079  21.442  12.139
47462W        W15856  35.513  27.094  12.452
47463W        W15857  35.287  13.670  13.096
47464W        W15858   8.797  13.178  14.407
47465W        W15859  20.249  22.807  13.924
47466W        W15860   1.258  30.610   4.151
47467W        W15861  21.727  12.124   1.450
47468W        W15862  34.036  11.168   0.516
47469W        W15863  16.484  41.499   1.532
47470W        W15864   9.916  35.060   3.329
47471W        W15865  39.850  37.476  14.847
47472W        W15866   5.680  18.168  12.120
47473W        W15867  34.926   3.483   4.651
47474W        W15868  22.823  40.904  12.088
47475W        W15869  34.995  18.779   0.401
47476W        W15870   9.822  37.020   1.095
47477W        W15871   9.278  15.384  13.956
47478W        W15872  31.988  19.864  12.481
47479W        W15873   2.703  16.786  11.054
47480W        W15874  37.370   4.577  12.493
47481W        W15875  41.599  41.145  14.378
47482W        W15876  12.894  13.803   4.570
47483W        W15877  19.511  17.984  13.894
47484W        W15878  17.431  38.908  11.056
47485W        W15879  41.655  32.723  12.456
47486W        W15880   7.173  28.647   3.861
47487W        W15881  28.351  36.600  12.628
47488W        W15882  36.618  21.014   3.622
47489W        W15883  27.007  33.647   4.099
47490W        W15884  43.047  14.334   1.695
47491W        W15885   9.478   5.646   2.733
47492W        W15886   7.636   5.441   1.919
47493W        W15887   3.223  15.090  11.477
47494W        W15888   9.111  13.179  12.023
47495W        W15889   7.260  24.221   0.312
47496W        W15890  30.666  13.965   3.164
47497W        W15891   1.481  26.165   0.264
47498W        W15892  39.522  39.746  13.942
47499W        W15893   7.516   6.266  14.624
47500W        W15894  39.177  39.507  13.060
47501W        W15895  32.619  34.144  14.983
47502W        W15896  33.292  20.266   0.944
47503W        W15897  32.814  39.136  14.056
47504W        W15898  27.179  37.353   3.869
47505W        W15899  12.830  40.402   0.548
47506W        W15900  16.099  35.650   4.286
47507W        W15901  24.081  20.024   0.724
47508W        W15902  27.644   8.711   3.655
47509W        W15903  20.112  28.684   2.881
47510W        W15904  39.558  11.395  11.585
47511W        W15905  31.201  22.626   4.331
47512W        W15906  13.309  31.920  10.773
47513W        W15907  43.226  21.115  13.870
47514W        W15908  40.328  17.112   2.832
47515W        W15909  22.121  41.214  13.675
47516W        W15910  43.356  27.328  14.846
47517W        W15911  28.575  16.621   0.013
47518W        W15912  34.666  22.220  10.526
47519W        W15913  34.926   5.792   2.477
47520W        W15914  39.952  36.901   0.509
47521W        W15915  11.973  31.943   0.926
47522W        W15916  44.985   3.652   3.010
47523W        W15917  44.380   2.246  14.898
47524W        W15918  25.224  15.321   0.859
47525W        W15919  28.060  35.425   4.125
47526W        W15920  26.524   4.894   0.368
47527W        W15921  19.791   1.457  14.979
47528W        W15922  22.742  39.391   2.791
47529W        W15923  21.813   6.561  12.898
47530W        W15924  42.765  29.209  10.659
47531W        W15925  27.662  21.305  14.046
47532W        W15926  39.781   1.360  12.295
47533W        W15927  20.564  16.360  11.598
47534W        W15928   2.753  28.434   0.454
47535W        W15929  15.045  17.812  14.364
47536W        W15930   5.766   7.760  14.770
47537W        W15931  10.691  30.183  11.096
47538W        W15932  37.165  10.287  12.969
47539W        W15933  37.081  44.985   1.381
47540W        W15934  22.252  26.125   4.266
47541W        W15935   9.614   0.830   2.322
47542W        W15936  22.013  33.120   1.764
47543W        W15937  23.208   2.272  12.431
47544W        W15938  11.727  36.227  13.597
47545W        W15939  23.474  22.725  11.186
47546W        W15940  12.617  28.993  12.903
47547W        W15941  17.888   7.847  10.104
47548W        W15942   3.442   7.791  14.299
47549W        W15943   7.801  17.738   4.778
47550W        W15944  24.284   5.685   2.826
47551W        W15945  10.499  14.974   0.532
47552W        W15946  18.365  34.282   0.194
47553W        W15947  29.365  20.562  14.316
47554W        W15948  39.530  18.853   3.885
47555W        W15949  29.436   5.924   1.396
47556W        W15950  39.331  15.148   1.640
47557W        W15951  25.027  39.957   0.278
47558W        W15952  28.464  20.081   3.654
47559W        W15953  11.805  29.882   4.096
47560W        W15954  27.934  19.196   4.832
47561W        W15955  24.744  43.960   3.716
47562W        W15956  19.675  42.883  13.159
47563W        W15957   7.766  21.708  13.059
47564W        W15958  33.617  30.878  12.214
47565W        W15959  42.393  28.613   1.374
47566W        W15960   9.296  44.064   3.267
47567W        W15961   0.055   1.705  14.466
47568W        W15962  40.543  30.073   0.903
47569W        W15963  41.104  43.399   1.091
47570W        W15964  11.409  41.836   3.198
47571W        W15965  22.125  23.326   4.165
47572W        W15966  38.885   4.486   1.229
47573W        W15967  23.109  41.030  13.333
47574W        W15968  32.363  13.884   4.272
47575W        W15969   6.720  23.084   4.088
47576W        W15970  19.620   3.908   2.418
47577W        W15971  35.043  10.448   0.036
47578W        W15972  38.561  32.173  14.045
47579W        W15973  13.944   7.964   1.277
47580W        W15974  29.634   5.560   3.348
47581W        W15975  41.834  27.149  10.944
47582W        W15976  11.161  20.401  14.379
47583W        W15977  18.191   6.279   4.350
47584W        W15978  20.718  34.339  12.343
47585W        W15979   6.580   8.431  10.684
47586W        W15980  35.918   8.192   1.178
47587W        W15981   2.276  19.132   2.271
47588W        W15982  15.257   3.273  11.234
47589W        W15983  18.157  22.595  11.547
47590W        W15984   1.116  35.897   4.500
47591W        W15985  43.531   8.296   4.336
47592W        W15986   7.918  18.990   0.259
47593W        W15987  19.273  21.528  14.405
47594W        W15988  31.725  41.353  11.601
47595W        W15989   0.431  44.430   1.401
47596W        W15990   5.139  14.694   2.658
47597W        W15991  40.541  14.225  14.788
47598W        W15992  34.490  28.739  12.128
47599W        W15993  29.922  25.447  13.643
47600W        W15994  28.971   5.036   3.727
47601W        W15995  34.882  13.316   2.774
47602W        W15996  20.570   3.741   4.596
47603W        W15997  34.314  19.201  11.225
47604W        W15998  18.686  42.217  11.906
47605W        W15999   3.492  20.306  13.622
47606W        W16000   4.298  21.427  12.805
47607W        W16001  16.387  33.624   2.283
47608W        W16002  31.133   3.120  13.539
47609W        W16003   1.966  29.674   3.870
47610W        W16004  19.058  12.104   0.712
47611W        W16005  41.036  38.821  13.491
47612W        W16006  34.521  12.801  12.871
47613W        W16007   3.014  20.616   4.852
47614W        W16008   5.185   8.380  14.400
47615W        W16009  38.932  33.157   3.165
47616W        W16010  21.899  27.018   2.878
47617W        W16011   6.803  18.167   1.883
47618W        W16012  44.876  42.887   0.393
47619W        W16013  13.811  14.823   1.028
47620W        W16014  31.449  25.127  12.210
47621W        W16015   7.482   1.908  13.404
47622W        W16016  32.257  15.156   3.235
47623W        W16017  12.168  11.256  10.780
47624W        W16018  43.744  42.207   0.411
47625W        W16019   2.283   3.412  14.001
47626W        W16020  11.827  18.774   4.718
47627W        W16021  30.080   6.464   3.849
47628W        W16022  44.884  23.978   3.268
47629W        W16023  31.442   0.223  13.502
47630W        W16024   2.888  23.629  12.606
47631W        W16025  41.829  10.280   4.017
47632W        W16026   4.885  38.553  12.197
47633W        W16027  24.044   2.384  12.005
47634W        W16028  26.971  38.297  13.958
47635W        W16029   5.457  26.101   4.101
47636W        W16030  19.161  35.847   0.462
47637W        W16031  35.805  11.111  11.340
47638W        W16032   4.217  30.137  10.761
47639W        W16033  36.908  35.445  11.144
47640W        W16034  14.677  31.007  10.657
47641W        W16035  33.617  28.648   3.080
47642W        W16036   1.319  14.758   4.088
47643W        W16037  23.578   3.888  14.413
47644W        W16038  23.255   7.319  14.624
47645W        W16039   7.202  27.456   2.675
47646W        W16040  44.506  38.562   5.059
47647W        W16041   2.561   1.049   4.998
47648W        W16042  10.001  40.876   4.069
47649W        W16043  43.281  14.038   3.073
47650W        W16044  17.743  24.387   0.477
47651W        W16045  44.925  33.913   3.881
47652W        W16046  35.253  34.796  11.918
47653W        W16047  37.481  26.938  13.850
47654W        W16048  40.525   6.827   3.756
47655W        W16049   2.742  39.519   0.780
47656W        W16050  19.629  40.132  11.169
47657W        W16051  38.334  10.860  11.944
47658W        W16052  24.925  16.933   2.415
47659W        W16053  26.577  42.017   1.309
47660W        W16054  18.804   0.931  12.700
47661W        W16055  12.781  28.640  13.341
47662W        W16056  44.322  26.171  12.816
47663W        W16057  28.580  29.932  14.838
47664W        W16058   2.852   0.237  12.816
47665W        W16059  24.785  10.692  13.841
47666W        W16060  42.483  11.782   1.316
47667W        W16061   9.846   6.263  14.873
47668W        W16062  20.028  23.975   0.223
47669W        W16063  27.541  11.364   3.159
47670W        W16064  22.004   1.511  13.267
47671W        W16065   7.789   7.843   0.757
47672W        W16066  42.754  21.169  11.106
47673W        W16067  37.220  24.020   1.007
47674W        W16068  38.918   5.695   1.751
47675W        W16069  37.768  37.565  11.619
47676W        W16070  34.001  42.303  13.997
47677W        W16071  44.029  29.731  11.574
47678W        W16072  27.137  15.834   4.194
47679W        W16073   3.237  42.873   1.371
47680W        W16074   3.982   9.706   1.459
47681W        W16075  10.343   4.313  14.502
47682W        W16076   1.507  30.113  11.578
47683W        W16077  17.095  37.383  13.057
47684W        W16078  18.016   6.631  14.762
47685W        W16079  42.049  17.539  12.410
47686W        W16080  37.546   2.868  14.934
47687W        W16081  26.119  34.052   4.088
47688W        W16082  33.663  24.124   1.727
47689W        W16083  21.772   5.770  10.579
47690W        W16084  44.754  25.832   0.436
47691W        W16085  19.184   6.774  11.532
47692W        W16086  20.170   4.759  14.985
47693W        W16087   5.746  25.090  13.375
47694W        W16088  33.335  43.307  13.381
47695W        W16089  13.831  26.208   3.373
47696W        W16090  24.625   9.637   5.802
47697W        W16091  31.486   7.468   4.338
47698W        W16092  16.130  31.231   2.379
47699W        W16093  12.886  39.424  14.426
47700W        W16094   2.245  12.738   2.201
47701W        W16095  39.361  35.073   1.282
47702W        W16096  25.647  22.698   3.695
47703W        W16097  22.551  16.573   4.593
47704W        W16098  21.984  22.180   0.965
47705W        W16099  17.860  14.996   1.234
47706W        W16100   5.232  36.346  12.110
47707W        W16101   6.179  21.042   1.529
47708W        W16102  36.790  20.805  13.437
47709W        W16103  32.293  32.357   3.225
47710W        W16104  21.738  19.671   0.878
47711W        W16105  36.360  12.281  12.384
47712W        W16106  32.703  23.661   3.135
47713W        W16107  24.700  30.315   3.185
47714W        W16108   8.389  19.750   4.780
47715W        W16109  19.254   5.939  11.947
47716W        W16110  23.072  26.586   2.366
47717W        W16111  28.750   1.391   5.025
47718W        W16112  41.343  31.968  11.094
47719W        W16113  41.691   8.300  14.298
47720W        W16114   8.265  37.066   4.087
47721W        W16115  21.713  44.167  12.435
47722W        W16116  39.776   8.216   1.937
47723W        W16117   4.180  20.207  12.205
47724W        W16118  43.962  13.165   0.316
47725W        W16119  26.751   9.269  10.464
47726W        W16120  42.300  31.416   4.680
47727W        W16121  27.654  26.131  13.324
47728W        W16122  38.980  40.706   0.464
47729W        W16123  12.902  23.012  10.982
47730W        W16124  17.223  15.189   1.951
47731W        W16125   7.754  22.315   3.765
47732W        W16126  13.795  38.945  12.888
47733W        W16127  25.145   3.676   0.376
47734W        W16128  43.938  31.595   0.384
47735W        W16129  39.536  22.082  12.974
47736W        W16130  30.710  31.654  10.210
47737W        W16131  22.132   7.964  13.073
47738W        W16132   5.293   1.942   2.626
47739W        W16133  35.373  19.181   3.095
47740W        W16134  30.594  37.921  14.569
47741W        W16135  27.701  44.600   3.726
47742W        W16136  25.958  21.596   4.474
47743W        W16137  33.602  40.950   2.913
47744W        W16138  24.868   2.446   1.876
47745W        W16139  42.346   0.899  14.258
47746W        W16140  36.481  39.357  13.934
47747W        W16141   3.001  28.830  13.833
47748W        W16142  31.047  19.251  12.994
47749W        W16143   9.856   8.543  14.403
47750W        W16144  23.268   8.933  11.055
47751W        W16145  29.499  16.377  11.947
47752W        W16146  28.989   4.841  14.439
47753W        W16147   9.127  40.600   2.665
47754W        W16148  36.052  25.947   1.072
47755W        W16149  22.795  10.736  11.559
47756W        W16150  25.288  10.348   2.779
47757W        W16151  19.223  10.181  11.901
47758W        W16152   6.313  42.531   5.074
47759W        W16153  44.173  15.601  10.778
47760W        W16154  30.976  26.069   3.522
47761W        W16155  21.530  32.505  11.062
47762W        W16156   5.189  39.447   0.377
47763W        W16157  21.875  12.876  12.943
47764W        W16158   4.442  19.104  10.575
47765W        W16159  14.735   5.767  11.002
47766W        W16160  33.289  33.451   1.018
47767W        W16161  31.738  34.026  11.637
47768W        W16162  19.374  15.179  12.653
47769W        W16163  37.352  28.549  13.321
47770W        W16164  31.071  30.721  12.148
47771W        W16165  36.441   6.478  13.897
47772W        W16166  13.697  42.419  14.049
47773W        W16167  16.723  41.740  14.877
47774W        W16168  31.948  23.036  12.766
47775W        W16169  19.533   8.803   3.098
47776W        W16170   5.487  36.337  12.617
47777W        W16171  23.069  27.960   1.835
47778W        W16172  18.282  31.091   4.589
47779W        W16173  16.631  20.832   3.634
47780W        W16174  37.332  40.845   4.628
47781W        W16175  23.524  40.121  13.041
47782W        W16176  28.448  29.096   3.677
47783W        W16177  25.463  36.339   0.608
47784W        W16178   7.147   7.160   4.169
47785W        W16179   0.354  33.478  11.820
47786W        W16180  13.036  39.978   0.291
47787W        W16181  12.788  39.607   2.799
47788W        W16182  20.025  30.642   0.924
47789W        W16183  10.758  43.892   2.713
47790W        W16184  33.733  25.078  10.081
47791W        W16185  10.001  17.281  12.959
47792W        W16186  36.457   7.610   5.111
47793W        W16187  16.580  34.351   1.491
47794W        W16188  20.075  21.228   2.063
47795W        W16189   1.080   9.673  12.320
47796W        W16190  25.518  37.089  13.099
47797W        W16191  18.143  30.550   2.154
47798W        W16192  23.778   8.632   3.554
47799W        W16193  12.268  11.082  14.454
47800W        W16194   9.167   8.087   0.742
47801W        W16195  14.694  33.278  11.985
47802W        W16196   2.393   9.307  13.914
47803W        W16197   5.883  24.143  12.567
47804W        W16198  37.178  32.834  11.113
47805W        W16199  30.965  12.549  13.858
47806W        W16200  14.161  40.024  13.783
47807W        W16201  29.396  28.881  11.138
47808W        W16202  37.848  14.873   0.776
47809W        W16203   2.228   1.927  12.695
47810W        W16204  30.107  29.368   1.304
47811W        W16205  42.419   1.585  11.580
47812W        W16206  39.116   9.401  10.624
47813W        W16207  33.772  16.662  12.457
47814W        W16208   8.010  12.401  13.205
47815W        W16209  21.667   5.859  14.281
47816W        W16210  34.423   9.668  13.995
47817W        W16211  23.035  29.109   3.647
47818W        W16212   9.168   8.304  12.189
47819W        W16213  13.331   2.243  13.334
47820W        W16214   7.739  14.289  12.096
47821W        W16215  42.769   9.834   4.153
47822W        W16216  28.074   3.338   2.794
47823W        W16217  16.877  16.153  11.551
47824W        W16218  12.693  36.567   0.310
47825W        W16219  13.251  44.084  10.977
47826W        W16220  37.598  10.928  11.162
47827W        W16221  17.384  23.956   4.256
47828W        W16222  36.458  32.971   2.828
47829W        W16223  17.084  14.891  11.546
47830W        W16224  39.774   9.315  12.006
47831W        W16225  15.561   1.927  13.034
47832W        W16226   8.756  43.908  13.106
47833W        W16227   9.669  43.477   3.909
47834W        W16228  19.963  43.744   2.202
47835W        W16229  16.781  20.426  12.424
47836W        W16230   1.020  19.287  11.221
47837W        W16231   8.588  40.488  14.561
47838W        W16232  15.273  10.629   0.812
47839W        W16233  15.274  27.062   4.610
47840W        W16234  36.538  20.914  13.001
47841W        W16235   4.022   7.888  14.310
47842W        W16236  10.166  42.941  13.473
47843W        W16237  21.430  21.244  11.158
47844W        W16238  17.629  29.971   4.964
47845W        W16239  28.147  35.875  11.646
47846W        W16240  34.991  22.578   2.274
47847W        W16241  29.510  43.390   1.348
47848W        W16242   9.045  25.301   5.504
47849W        W16243  42.513  36.016  13.945
47850W        W16244  37.266   7.361  13.497
47851W        W16245   3.878  28.036  10.754
47852W        W16246   6.730  44.768   1.142
47853W        W16247   8.507  21.903   1.257
47854W        W16248  30.017  11.325  13.365
47855W        W16249  18.615   0.550   3.663
47856W        W16250  30.917  18.798   1.753
47857W        W16251  13.740  39.728  13.629
47858W        W16252   0.276  10.729   3.305
47859W        W16253  28.933  33.021  13.827
47860W        W16254  28.162  33.670  10.250
47861W        W16255  19.037  37.966  12.522
47862W        W16256  38.352   3.377  10.245
47863W        W16257  26.002  24.695  13.463
47864W        W16258  13.832   5.790   0.764
47865W        W16259  39.911  15.071   0.456
47866W        W16260  40.826  35.881   2.149
47867W        W16261   9.914  42.465  13.446
47868W        W16262  44.332   7.604  11.493
47869W        W16263  31.112   6.738   1.367
47870W        W16264   3.203  21.212  11.641
47871W        W16265  31.704  12.885  12.938
47872W        W16266  29.076   0.840  12.034
47873W        W16267  15.814  40.254   2.824
47874W        W16268  32.999   5.428  14.020
47875W        W16269  42.828  36.376  10.804
47876W        W16270   3.718  37.750   2.757
47877W        W16271  39.880  18.985  14.098
47878W        W16272   1.253   6.383  10.292
47879W        W16273  25.164  35.929   0.522
47880W        W16274  11.781  22.725   0.242
47881W        W16275   7.005  23.589  11.165
47882W        W16276  13.416   2.151  12.462
47883W        W16277  11.403  19.182   3.151
47884W        W16278  42.462  20.239  13.123
47885W        W16279  34.184   3.809   0.460
47886W        W16280  34.406  17.757   2.293
47887W        W16281  29.377  16.730   2.981
47888W        W16282  23.952   5.871   1.857
47889W        W16283   2.271   7.957  12.067
47890W        W16284   5.255  37.015   1.257
47891W        W16285  18.715   3.897  14.438
47892W        W16286  33.382  27.740   2.279
47893W        W16287  41.878   0.973  14.945
47894W        W16288  32.567  14.549  13.934
47895W        W16289   9.946   8.733   4.620
47896W        W16290   3.858   1.369  11.041
47897W        W16291  27.133  12.196   2.422
47898W        W16292  36.637   5.362  12.437
47899W        W16293  18.236  26.499   4.291
47900W        W16294  21.981  12.343  12.551
47901W        W16295  23.157  21.459   0.809
47902W        W16296   7.704  22.005  14.950
47903W        W16297  44.160  28.399   1.703
47904W        W16298  38.852  37.503  10.706
47905W        W16299  22.700  18.273   1.627
47906W        W16300  26.312   5.653  12.019
47907W        W16301  16.222  15.054   3.589
47908W        W16302  10.163  11.550   2.128
47909W        W16303  36.411  15.930  10.142
47910W        W16304  20.780   0.883   0.771
47911W        W16305   1.661  33.546   0.617
47912W        W16306  39.484  30.948   1.260
47913W        W16307  20.984  41.357  11.613
47914W        W16308   2.196  36.018  13.928
47915W        W16309  33.719  38.988   1.314
47916W        W16310   9.558   6.109  11.628
47917W        W16311  18.503  19.446  13.579
47918W        W16312   9.663  11.768  12.396
47919W        W16313  16.613  24.256   2.651
47920W        W16314  13.547  41.903   1.761
47921W        W16315  17.098  42.502   1.271
47922W        W16316  34.341  22.515  14.295
47923W        W16317  44.893  18.156   3.946
47924W        W16318  30.551  39.284  14.411
47925W        W16319  40.689  33.056  14.840
47926W        W16320  18.003  20.561   0.462
47927W        W16321  38.375   2.588   0.853
47928W        W16322  26.709  35.082   4.050
47929W        W16323  31.368  38.878   3.296
47930W        W16324   3.385  43.414  11.827
47931W        W16325  34.127  23.783   3.772
47932W        W16326  22.062  39.545   0.339
47933W        W16327  19.995  39.315   0.322
47934W        W16328  16.725  37.913   2.177
47935W        W16329  26.644  43.695  14.335
47936W        W16330  20.025   6.989  12.133
47937W        W16331  34.925  36.850   1.408
47938W        W16332  17.285   4.419   2.343
47939W        W16333  35.499   4.840   1.247
47940W        W16334  39.439  20.454   2.227
47941W        W16335   5.352  28.555  14.530
47942W        W16336  35.108   9.935  14.884
47943W        W16337   8.327  11.403   3.387
47944W        W16338  19.132  19.650  13.020
47945W        W16339  32.149  28.846  14.410
47946W        W16340  16.132  38.553  13.821
47947W        W16341  33.808  19.605  14.379
47948W        W16342  10.831   3.011   3.214
47949W        W16343  26.647  12.945   2.537
47950W        W16344  14.540   8.827   0.909
47951W        W16345  40.337   7.788   3.719
47952W        W16346  43.548  24.161   0.682
47953W        W16347  43.261  29.692   0.291
47954W        W16348  35.788  11.176  13.857
47955W        W16349  11.650  25.934  13.937
47956W        W16350  13.777  34.789   1.115
47957W        W16351  41.266   1.818   1.450
47958W        W16352  37.050  21.707  12.920
47959W        W16353  22.002   1.728   3.648
47960W        W16354  23.695   0.642  12.877
47961W        W16355  14.327  13.394   0.795
47962W        W16356   0.902  14.701  13.159
47963W        W16357   0.000   5.263  14.370
47964W        W16358  35.577  17.907   1.804
47965W        W16359  39.177   8.566  13.085
47966W        W16360   5.679  29.805  12.528
47967W        W16361  20.678  20.803  14.246
47968W        W16362  41.840  13.189   4.562
47969W        W16363  41.746  24.217  13.375
47970W        W16364  37.692  32.206  12.537
47971W        W16365  34.934  20.862  11.186
47972W        W16366  24.001  18.682  10.384
47973W        W16367  18.781  19.960  11.959
47974W        W16368  22.201  25.639   4.438
47975W        W16369  14.232  19.771   2.300
47976W        W16370   7.763  36.974  14.250
47977W        W16371  29.904  33.124   3.254
47978W        W16372  14.986   9.736  13.048
47979W        W16373  30.774   3.669  14.887
47980W        W16374  34.286  33.538  13.203
47981W        W16375  26.360  26.400   1.791
47982W        W16376  23.588  13.575   3.700
47983W        W16377   8.906   4.829  10.171
47984W        W16378  14.134  28.596  13.072
47985W        W16379  39.603  11.597  10.337
47986W        W16380  43.886  23.488   0.656
47987W        W16381  28.279  37.425   4.904
47988W        W16382   6.528   9.782   4.119
47989W        W16383  26.282  35.852   3.976
47990W        W16384  35.006  38.716   1.384
47991W        W16385   0.327   1.223  13.697
47992W        W16386  44.456  15.010   2.883
47993W        W16387  31.390  41.508   1.866
47994W        W16388  28.204   0.488   3.588
47995W        W16389  19.162  22.245  11.760
47996W        W16390  11.261   5.001   1.759
47997W        W16391  30.398   3.240   3.774
47998W        W16392  39.485  18.237  13.001
47999W        W16393  42.492  18.658   4.077
48000W        W16394  17.388   1.709  12.570
48001W        W16395  34.883  25.648   4.428
48002W        W16396  11.389   0.742   3.154
48003W        W16397  13.142  15.365   2.778
48004W        W16398  43.265   6.667   0.316
48005W        W16399  27.609   0.016   0.150
48006W        W16400   1.239  18.072  11.481
48007W        W16401  35.516   8.380   1.480
48008W        W16402  38.969  37.014  14.391
48009W        W16403  22.732  22.524  10.603
48010W        W16404  33.661  26.152   3.148
48011W        W16405  18.200  27.243   1.948
48012W        W16406  39.697  15.095   1.990
48013W        W16407  40.429   2.457   0.312
48014W        W16408  28.651  33.690  10.510
48015W        W16409  27.940  37.929  12.952
48016W        W16410  15.882  20.669  11.792
48017W        W16411   5.173  36.283   1.869
48018W        W16412  31.185   0.720   4.085
48019W        W16413   5.458  36.144  13.778
48020W        W16414  21.108  24.499   0.487
48021W        W16415  10.596  42.341  12.563
48022W        W16416   6.636  28.636   3.846
48023W        W16417  19.024   4.292  14.357
48024W        W16418  28.536  23.295   0.270
48025W        W16419  25.218  10.635  14.706
48026W        W16420   8.695  17.845   2.193
48027W        W16421  12.049  28.079   3.794
48028W        W16422  19.293  39.010   4.069
48029W        W16423   5.953  20.086  14.726
48030W        W16424  37.084  25.978  12.858
48031W        W16425  30.000  20.454  11.659
48032W        W16426  43.339  12.343  10.596
48033W        W16427  13.002  37.375   3.105
48034W        W16428   0.901  27.958   4.218
48035W        W16429  15.806  32.769   0.932
48036W        W16430  40.789  23.159  13.469
48037W        W16431  39.416  21.348   4.931
48038W        W16432  12.209  14.260   3.937
48039W        W16433   4.326  40.757   0.244
48040W        W16434   4.353  34.809   3.030
48041W        W16435  36.514  27.040   1.212
48042W        W16436  30.712  24.290   5.066
48043W        W16437  42.786   7.899   0.457
48044W        W16438  30.784  27.197  11.910
48045W        W16439  22.086  13.603   2.728
48046W        W16440   6.931  15.385   2.806
48047W        W16441  43.780  30.141  13.368
48048W        W16442  35.109  21.100  12.916
48049W        W16443   3.705  33.952   3.164
48050W        W16444  30.072  36.474   3.485
48051W        W16445  29.865  18.541   2.334
48052W        W16446  27.054  43.104   2.033
48053W        W16447  12.232   5.176  11.296
48054W        W16448  26.229  42.555  12.307
48055W        W16449  37.509  17.182   3.812
48056W        W16450  31.332  36.458  13.575
48057W        W16451  44.781  15.059  11.101
48058W        W16452  38.717   8.001  14.436
48059W        W16453  33.990  11.653   3.884
48060W        W16454  32.639  16.648  13.316
48061W        W16455  18.866  28.824   2.751
48062W        W16456  18.233  24.725  14.874
48063W        W16457   6.910  24.994  13.136
48064W        W16458  34.099  27.401   2.845
48065W        W16459   5.207  36.236   4.714
48066W        W16460  23.660  42.510   2.854
48067W        W16461  41.949  14.837  14.571
48068W        W16462  32.935  29.144   3.985
48069W        W16463  17.570  27.075   0.763
48070W        W16464   8.773  28.807  10.668
48071W        W16465  32.927  32.128   5.096
48072W        W16466  14.063  38.796  12.479
48073W        W16467  23.811  14.774   3.130
48074W        W16468  12.282  33.344   3.440
48075W        W16469   9.658  39.601  12.498
48076W        W16470  21.021  25.518  14.095
48077W        W16471   6.446   9.392  11.457
48078W        W16472  33.583  28.594   1.626
48079W        W16473  19.222  40.018  14.504
48080W        W16474  40.404  41.120  12.559
48081W        W16475   2.284   6.370  13.884
48082W        W16476  15.045  36.964  11.031
48083W        W16477  38.565   3.032   0.513
48084W        W16478  32.316  18.267   0.824
48085W        W16479  20.400  37.413   4.917
48086W        W16480  36.829  38.812   4.699
48087W        W16481  23.978  36.966  10.728
48088W        W16482  14.307  32.999  13.555
48089W        W16483   0.590  19.110   4.110
48090W        W16484  24.502  18.536   2.266
48091W        W16485  21.235  21.385   4.988
48092W        W16486  42.471   6.076  11.455
48093W        W16487  25.933  28.320   0.307
48094W        W16488   0.333  36.036   4.107
48095W        W16489   4.422  30.446   1.212
48096W        W16490  15.760   0.367  10.648
48097W        W16491  29.412  13.400  13.311
48098W        W16492   4.023   2.784   0.842
48099W        W16493  18.408  19.836  11.284
48100W        W16494  30.235  16.050  12.258
48101W        W16495   6.501  27.028   4.109
48102W        W16496   1.909   2.267   2.186
48103W        W16497   2.078  34.860   3.668
48104W        W16498   6.389   1.366   2.819
48105W        W16499  25.844   4.774  10.198
48106W        W16500  33.713  41.305   2.188
48107W        W16501  15.358  19.223  14.301
48108W        W16502  19.579  33.017   1.229
48109W        W16503  43.944  18.771  13.548
48110W        W16504  26.536  17.007  13.073
48111W        W16505  17.274  28.055   4.621
48112W        W16506  26.924  19.615   4.731
48113W        W16507  42.383  22.260   2.193
48114W        W16508  19.472  20.670  12.275
48115W        W16509  14.557  41.329   1.716
48116W        W16510  23.006  18.610  11.562
48117W        W16511  43.843  17.767  12.214
48118W        W16512  15.658  29.613   2.864
48119W        W16513  43.137  32.482   3.360
48120W        W16514  12.824  19.716  10.691
48121W        W16515   8.778  44.948  13.861
48122W        W16516  31.037  33.900   0.748
48123W        W16517   2.176  22.063  14.394
48124W        W16518  17.698  15.628  12.028
48125W        W16519  29.760  41.643  12.499
48126W        W16520  13.261  38.374  12.928
48127W        W16521  36.450   4.710   0.853
48128W        W16522   0.312  13.431   3.587
48129W        W16523   2.967  44.075   0.315
48130W        W16524  20.177  17.433   4.992
48131W        W16525  26.658   9.615  14.804
48132W        W16526  15.527  39.618  14.375
48133W        W16527  24.211  12.129  12.526
48134W        W16528  26.787  24.737   3.841
48135W        W16529  44.839  33.388  11.403
48136W        W16530  34.912  23.837  11.936
48137W        W16531  29.112  18.135   0.855
48138W        W16532   2.637  29.469   3.379
48139W        W16533   6.251  22.567  12.910
48140W        W16534  16.706   4.804   1.269
48141W        W16535  42.536   1.292  11.179
48142W        W16536   0.053  39.279  11.235
48143W        W16537  27.961  42.731  14.037
48144W        W16538  18.094  22.966  11.112
48145W        W16539   7.842  41.866   1.272
48146W        W16540  24.685   5.145   0.285
48147W        W16541  28.637  24.037   0.625
48148W        W16542  40.245  14.575  13.089
48149W        W16543  41.377  15.138   3.650
48150W        W16544   4.320  27.701   3.347
48151W        W16545  23.744  42.891  11.167
48152W        W16546   2.269  39.319   2.184
48153W        W16547  37.670  13.946   4.276
48154W        W16548   8.915  44.037  14.501
48155W        W16549  15.128   9.821  12.550
48156W        W16550  16.301  42.046  14.976
48157W        W16551  15.334   6.895   4.954
48158W        W16552  22.068  14.108  13.806
48159W        W16553  22.355   5.221  10.686
48160W        W16554   2.683   8.812  10.629
48161W        W16555  23.928  14.203  14.916
48162W        W16556  41.843   1.409   1.891
48163W        W16557  37.072  37.768  14.300
48164W        W16558  43.886  31.398   3.202
48165W        W16559   9.638   0.953  11.191
48166W        W16560  25.040   6.860   4.418
48167W        W16561  13.848  36.675  12.665
48168W        W16562   8.270   8.065   0.807
48169W        W16563  40.582   7.916  12.490
48170W        W16564   2.490  24.628   2.511
48171W        W16565  41.716   7.725   1.437
48172W        W16566  33.214  23.871   5.074
48173W        W16567  19.681  37.934   2.109
48174W        W16568  14.812  22.521  11.843
48175W        W16569  17.545  29.458  10.318
48176W        W16570  20.831  24.079  12.050
48177W        W16571   7.062  15.706   4.920
48178W        W16572  38.412   8.107   2.752
48179W        W16573  31.060  40.111  11.166
48180W        W16574   3.266  19.106   4.368
48181W        W16575  27.208  22.120  12.477
48182W        W16576  13.671  13.605   1.831
48183W        W16577  23.357  34.065  12.926
48184W        W16578   3.867  10.280  11.550
48185W        W16579  31.989  13.091  13.677
48186W        W16580  43.517  30.422   2.360
48187W        W16581  16.128  14.079   3.078
48188W        W16582   7.038  39.262  14.900
48189W        W16583  18.526  19.035   1.853
48190W        W16584   0.819  17.754  13.052
48191W        W16585  13.740   7.897  10.423
48192W        W16586  42.746  28.212   3.284
48193W        W16587  16.304  38.739  14.993
48194W        W16588  31.437   3.260   3.647
48195W        W16589  42.402  27.025   2.455
48196W        W16590  10.340  28.105   4.141
48197W        W16591  29.172  12.910   2.822
48198W        W16592   6.965  12.981   1.113
48199W        W16593   1.007   2.698   2.853
48200W        W16594  23.940  37.585   4.173
48201W        W16595  18.193  28.172   1.697
48202W        W16596   9.886  23.674   2.695
48203W        W16597  25.119  33.074  13.534
48204W        W16598   1.798  28.799  13.934
48205W        W16599   5.148  11.889   2.319
48206W        W16600   4.742   0.321   0.927
48207W        W16601  25.050  37.971  11.458
48208W        W16602   2.533  32.483   0.806
48209W        W16603  41.723   9.675   2.657
48210W        W16604  41.162  23.002  11.567
48211W        W16605  27.947   2.741   1.887
48212W        W16606  31.136   2.907   0.472
48213W        W16607   1.351   7.864   0.302
48214W        W16608  23.806  17.563  12.858
48215W        W16609  44.360   8.640   2.734
48216W        W16610  37.428   6.139  10.609
48217W        W16611   9.257  13.811   3.938
48218W        W16612  16.294  37.935  11.585
48219W        W16613  38.451  27.694  10.628
48220W        W16614   5.000   7.095   4.705
48221W        W16615  24.956  27.114   5.049
48222W        W16616  33.091   6.469   4.237
48223W        W16617  30.014  40.306  13.791
48224W        W16618   9.807  37.411   3.330
48225W        W16619  11.803  38.450  11.273
48226W        W16620  40.148  37.090  12.967
48227W        W16621  14.256  10.415  14.056
48228W        W16622  42.451   1.318   1.079
48229W        W16623   2.536   7.824   3.159
48230W        W16624  19.335  14.616   3.231
48231W        W16625   6.839  17.578   3.122
48232W        W16626   4.195  26.535   2.517
48233W        W16627   4.796  40.463   3.608
48234W        W16628  24.610  16.683  10.347
48235W        W16629  28.943  31.625  14.953
48236W        W16630  43.817  17.896  11.719
48237W        W16631  24.351  16.627  13.805
48238W        W16632  24.156  36.062  10.398
48239W        W16633  40.015  37.828  12.546
48240W        W16634   0.282  35.956   2.207
48241W        W16635   7.773  25.610   1.885
48242W        W16636  40.367   8.959  12.428
48243W        W16637  40.479   1.957   4.680
48244W        W16638  31.940  26.486  12.096
48245W        W16639  42.986  44.987  12.558
48246W        W16640  18.955   5.241  10.712
48247W        W16641  16.133  13.104   2.801
48248W        W16642  27.589  31.471   2.846
48249W        W16643   5.147  32.448  11.175
48250W        W16644  42.975   7.446   0.212
48251W        W16645  35.387  21.414  10.763
48252W        W16646  41.508  24.485  10.776
48253W        W16647   9.696  43.997  12.867
48254W        W16648   4.886  41.570   3.211
48255W        W16649   8.479  21.767  12.042
48256W        W16650  41.003   6.417   0.820
48257W        W16651  35.071  33.070  13.600
48258W        W16652   5.849  39.767  14.918
48259W        W16653  29.972  43.301  11.195
48260W        W16654  15.808  10.820   0.169
48261W        W16655   1.522  18.783  13.389
48262W        W16656   2.781  26.478  10.457
48263W        W16657   5.227  30.907   0.260
48264W        W16658  34.510   8.887   2.636
48265W        W16659  13.502  26.376   3.742
48266W        W16660  30.427  31.623  11.058
48267W        W16661  43.099  19.145  10.699
48268W        W16662  42.414  23.854  11.690
48269W        W16663  40.472   8.767  13.796
48270W        W16664  40.607   3.580  14.732
48271W        W16665  23.557  44.224  11.169
48272W        W16666  35.518  24.880  12.314
48273W        W16667   0.821   8.031  14.628
48274W        W16668   7.934   3.947   1.979
48275W        W16669  35.130  31.528  11.193
48276W        W16670   5.914   2.862  13.874
48277W        W16671  32.929  25.659   2.859
48278W        W16672  41.594  10.376  14.346
48279W        W16673  10.665  23.217   3.342
48280W        W16674   7.781   0.830   0.284
48281W        W16675  39.520  37.522  12.316
48282W        W16676   6.367  41.247  11.231
48283W        W16677  29.124  38.572   2.883
48284W        W16678  31.549  30.540  12.078
48285W        W16679  44.826  36.324   2.986
48286W        W16680   3.698  32.341   2.437
48287W        W16681   8.836  24.684  14.763
48288W        W16682  28.446  31.800   2.943
48289W        W16683  35.918  41.616  14.851
48290W        W16684   3.727  41.961  10.767
48291W        W16685  43.172   9.217   1.417
48292W        W16686   8.284  11.185  14.269
48293W        W16687  21.270  21.866  12.576
48294W        W16688   5.803   1.281  14.770
48295W        W16689  34.891  36.015   4.108
48296W        W16690   7.393  34.848  11.635
48297W        W16691  41.381   7.473   2.411
48298W        W16692  24.514   3.288  11.914
48299W        W16693  41.972   1.443   0.865
48300W        W16694   7.816  17.567  14.421
48301W        W16695   8.333  14.576   4.746
48302W        W16696  34.174  43.961   4.236
48303W        W16697  39.569  10.854  11.608
48304W        W16698  37.752   3.339   2.775
48305W        W16699  15.629  27.478  11.207
48306W        W16700  38.438  30.816  13.239
48307W        W16701   7.094  40.022  11.566
48308W        W16702   6.963  29.441   3.279
48309W        W16703  26.461   4.646   4.274
48310W        W16704  14.650  29.659  11.206
48311W        W16705  22.130   3.340  12.614
48312W        W16706  18.231  22.757  14.018
48313W        W16707  21.764   3.401  11.593
48314W        W16708  36.511  28.452   4.641
48315W        W16709   6.814   1.696  11.065
48316W        W16710   2.360  18.036  14.997
48317W        W16711  40.538   9.818  14.025
48318W        W16712  26.145  14.671  11.634
48319W        W16713  31.523  26.050  13.329
48320W        W16714  15.272  11.229  10.749
48321W        W16715  38.189  36.070   4.094
48322W        W16716  44.256   3.041  13.435
48323W        W16717  33.942  19.497  12.486
48324W        W16718  33.545  36.049  10.303
48325W        W16719  10.886  28.394  13.187
48326W        W16720  22.992  24.992  14.231
48327W        W16721  20.763   1.746   0.094
48328W        W16722   6.739   7.950  11.404
48329W        W16723  13.112  26.435  13.411
48330W        W16724  18.466  31.318  14.481
48331W        W16725  13.407  22.528  10.695
48332W        W16726  38.571  15.619  10.194
48333W        W16727  24.855   8.567  11.412
48334W        W16728  26.719  43.797  12.058
48335W        W16729  21.686  18.440  14.978
48336W        W16730  42.299   6.932  11.080
48337W        W16731  31.094  41.237   2.178
48338W        W16732   5.662  44.627   1.870
48339W        W16733  41.793   4.812   1.704
48340W        W16734  33.585   6.438   2.195
48341W        W16735  38.094  27.940   0.338
48342W        W16736  34.102  43.323  12.053
48343W        W16737  32.377  33.097   0.753
48344W        W16738  23.062   7.984  13.100
48345W        W16739  20.372  36.920   1.019
48346W        W16740   8.204  36.796  12.423
48347W        W16741  29.040  34.069   2.646
48348W        W16742  28.975  27.572   3.329
48349W        W16743   0.787   5.740   2.331
48350W        W16744  16.586  31.129   3.140
48351W        W16745  22.630   5.413   0.569
48352W        W16746   0.054  34.381   1.346
48353W        W16747  36.060  15.574   2.627
48354W        W16748  34.873  12.720  12.459
48355W        W16749  14.057  21.248   1.845
48356W        W16750  33.173  35.280   0.542
48357W        W16751  33.149  40.548   4.370
48358W        W16752  29.476  33.495  10.145
48359W        W16753  27.157  32.178  11.046
48360W        W16754  24.096  29.903   0.276
48361W        W16755  44.014  23.926  11.041
48362W        W16756  28.198  19.257   0.520
48363W        W16757  36.576  20.569  12.043
48364W        W16758  13.412  23.436   2.217
48365W        W16759  27.005  36.712   1.204
48366W        W16760  24.018  23.740   4.074
48367W        W16761  14.132   1.463   3.100
48368W        W16762  44.382  34.467   3.315
48369W        W16763   7.915  19.327   3.799
48370W        W16764  33.650  34.402   0.865
48371W        W16765  27.687  15.773  13.545
48372W        W16766  20.506   5.850  12.072
48373W        W16767  43.023  42.543   1.861
48374W        W16768   6.681  15.126   2.420
48375W        W16769   0.577  34.406   1.303
48376W        W16770  34.800  36.049   3.207
48377W        W16771  19.734  31.160  13.297
48378W        W16772  39.764   8.749   4.968
48379W        W16773  34.379   5.292   4.208
48380W        W16774  14.283  40.997  10.830
48381W        W16775  28.161  39.017   0.836
48382W        W16776   7.427  41.047  12.487
48383W        W16777  35.010   5.892  13.028
48384W        W16778  25.488  34.041  10.371
48385W        W16779   4.031  39.708   2.432
48386W        W16780  41.919  18.478  14.748
48387W        W16781  15.851   9.841  11.027
48388W        W16782  41.344  42.784   2.776
48389W        W16783   1.913  13.665   1.405
48390W        W16784   7.210  23.437  14.914
48391W        W16785   0.143  44.498  14.875
48392W        W16786  44.212  38.115   3.109
48393W        W16787  16.757  16.817   3.806
48394W        W16788   4.169  17.811  11.226
48395W        W16789  32.390  20.870  11.706
48396W        W16790  24.006   2.863   2.798
48397W        W16791  21.794   6.481  12.024
48398W        W16792  13.127   9.833  14.522
48399W        W16793  39.219  42.945   4.653
48400W        W16794  41.823  22.790   1.326
48401W        W16795  43.356  37.978   3.793
48402W        W16796  42.440  40.733  12.576
48403W        W16797  21.262  28.430   4.715
48404W        W16798  29.910   9.196  13.458
48405W        W16799  14.181  42.885  13.666
48406W        W16800  31.381  32.894  11.181
48407W        W16801   8.666  14.646  13.809
48408W        W16802  32.998  25.571  13.366
48409W        W16803  25.321  37.991  10.614
48410W        W16804  18.493  41.909   5.008
48411W        W16805  17.566  23.168   1.804
48412W        W16806  44.296  16.388  13.914
48413W        W16807   0.939  25.231   0.524
48414W        W16808  42.376  24.485   0.080
48415W        W16809  28.983  36.922   2.192
48416W        W16810  11.688  31.531  11.217
48417W        W16811  43.206   5.762   3.675
48418W        W16812   2.496  12.269   4.496
48419W        W16813  28.607  11.268   1.437
48420W        W16814   6.883  15.527  13.970
48421W        W16815  33.696   5.772   4.040
48422W        W16816  34.522  37.958  13.373
48423W        W16817  25.213   0.947  11.480
48424W        W16818  31.051  20.010  12.420
48425W        W16819  20.264  43.993   1.847
48426W        W16820  24.734  43.170   5.304
48427W        W16821  19.138  21.259  10.896
48428W        W16822  21.711  41.847  14.418
48429W        W16823   8.265  31.975  11.579
48430W        W16824  16.021  44.393  14.969
48431W        W16825  39.579   5.798  11.200
48432W        W16826  42.246  21.464  13.933
48433W        W16827  30.481  10.233  11.154
48434W        W16828  21.257  32.320  11.741
48435W        W16829  32.819  25.587  14.805
48436W        W16830  20.772  18.418   1.840
48437W        W16831  33.965   3.227   1.685
48438W        W16832  19.687  20.148   4.570
48439W        W16833   3.242  34.531   1.928
48440W        W16834  13.550  23.236   0.510
48441W        W16835   4.158  27.065   0.232
48442W        W16836   3.238  19.189   1.458
48443W        W16837  35.013   8.394   4.469
48444W        W16838  37.272  36.454  13.481
48445W        W16839  39.533  41.906   1.207
48446W        W16840   2.721  10.870   4.296
48447W        W16841   7.730  28.082  10.238
48448W        W16842   7.756  40.182   3.107
48449W        W16843  19.994  23.804  13.923
48450W        W16844  21.136  42.175   4.637
48451W        W16845  30.537  12.165  13.127
48452W        W16846  34.500  20.783  10.639
48453W        W16847  31.283  26.076  13.791
48454W        W16848   5.217  37.179  11.440
48455W        W16849   9.902  24.590   0.310
48456W        W16850  12.390   6.556  13.454
48457W        W16851  41.213  24.567   0.730
48458W        W16852   9.406   7.404  12.862
48459W        W16853   9.167   8.664  11.275
48460W        W16854  19.718  36.345  14.533
48461W        W16855  31.163  24.752  14.501
48462W        W16856   8.401   8.818  12.591
48463W        W16857  37.248  15.411   4.103
48464W        W16858  26.616  20.947   4.094
48465W        W16859  31.827  21.207   1.233
48466W        W16860  44.427  35.946   0.887
48467W        W16861   8.328  31.719   3.756
48468W        W16862  13.687  34.879   3.165
48469W        W16863  28.114  44.746  13.357
48470W        W16864  18.559   2.718  12.524
48471W        W16865  27.339  35.975   1.783
48472W        W16866   8.122  40.366  14.423
48473W        W16867  34.975   8.286   0.012
48474W        W16868  35.373  36.451  14.115
48475W        W16869  15.824   2.923   4.206
48476W        W16870  12.359  28.114   2.921
48477W        W16871  42.039  11.298   4.552
48478W        W16872  18.048  11.621  13.850
48479W        W16873  16.045  15.284  13.056
48480W        W16874   1.829  37.003   3.102
48481W        W16875  17.265  32.952   0.961
48482W        W16876   0.301   5.340  14.838
48483W        W16877  17.411  14.632  12.795
48484W        W16878  19.940  27.877   3.716
48485W        W16879  23.722  12.303  14.813
48486W        W16880  35.469  28.964   1.469
48487W        W16881  10.206  33.411  12.720
48488W        W16882  41.187  11.320   2.249
48489W        W16883  41.354  26.727   4.049
48490W        W16884  28.443  26.015  14.969
48491W        W16885  24.939  38.027   5.516
48492W        W16886   4.626  30.088  12.074
48493W        W16887  34.859  30.435  13.868
48494W        W16888  38.855   8.646   1.273
48495W        W16889  19.619  25.836   1.430
48496W        W16890   3.745  30.492   2.407
48497W        W16891  11.410  19.157  14.465
48498W        W16892  37.111  31.030   4.578
48499W        W16893  17.621  21.148   0.522
48500W        W16894  11.133   1.792  11.714
48501W        W16895  15.633  37.152  12.379
48502W        W16896  35.875  19.751   0.296
48503W        W16897  17.086  38.309   1.569
48504W        W16898  10.629   5.170  10.676
48505W        W16899  24.086   0.754  13.366
48506W        W16900  19.807   2.936   0.882
48507W        W16901  19.228  20.947   0.911
48508W        W16902  30.637  39.559   3.161
48509W        W16903  13.953  34.450   0.767
48510W        W16904  22.765   9.229   3.204
48511W        W16905  29.686  11.067   0.545
48512W        W16906  21.941  10.180   0.473
48513W        W16907   9.561  40.275  14.405
48514W        W16908  19.225  33.875  10.692
48515W        W16909   2.654   3.638  13.177
48516W        W16910  10.640  34.581   3.537
48517W        W16911  38.634  40.953   3.202
48518W        W16912   8.876  13.311   0.666
48519W        W16913  24.975  23.958   1.588
48520W        W16914  42.929  35.480  14.105
48521W        W16915  22.515  21.209   4.728
48522W        W16916  35.697   4.125  11.106
48523W        W16917  18.131  40.042  14.620
48524W        W16918  20.144  30.209   3.609
48525W        W16919  18.732  32.225  12.851
48526W        W16920  18.223  33.861   2.760
48527W        W16921   9.400   0.064   3.299
48528W        W16922  18.364  23.459   2.423
48529W        W16923  43.278  34.902   9.758
48530W        W16924  18.718  18.753   2.878
48531W        W16925   0.008  28.605  13.585
48532W        W16926  32.981  44.028   0.306
48533W        W16927  39.782  22.556   4.432
48534W        W16928   2.417  39.324   1.320
48535W        W16929  30.004  16.452  12.045
48536W        W16930  36.296   0.140   5.016
48537W        W16931  39.936  28.447   0.514
48538W        W16932  42.758  22.991   3.788
48539W        W16933   0.875  32.997   3.869
48540W        W16934  40.270  37.579  11.833
48541W        W16935  31.856  10.378  14.017
48542W        W16936  11.034   6.204   2.130
48543W        W16937  36.598  32.550   3.294
48544W        W16938  25.596  27.952  11.670
48545W        W16939   2.909   9.398  10.797
48546W        W16940   0.543  11.355   4.714
48547W        W16941  38.825  27.752  11.378
48548W        W16942  42.380  41.527  11.006
48549W        W16943   0.762  41.212  13.477
48550W        W16944   5.690  21.948   0.752
48551W        W16945  38.087  22.782  12.151
48552W        W16946   3.432  19.189  11.203
48553W        W16947  36.095  33.650  11.487
48554W        W16948  21.728  19.583   1.715
48555W        W16949   4.767  40.394  14.357
48556W        W16950  28.933  36.979   1.264
48557W        W16951  18.607  17.565   1.380
48558W        W16952   8.216  12.777  11.952
48559W        W16953  28.444  27.116   3.580
48560W        W16954  44.913   2.010   1.755
48561W        W16955  43.326  36.535   2.007
48562W        W16956   3.894  43.218   4.801
48563W        W16957  33.123  24.469   3.849
48564W        W16958  34.841   7.754   3.235
48565W        W16959  41.264  24.076   3.803
48566W        W16960  29.432   9.209  13.787
48567W        W16961  33.314  42.863  14.933
48568W        W16962  37.309  41.384   2.707
48569W        W16963  43.845   2.526  13.945
48570W        W16964  25.198  13.128   0.304
48571W        W16965  30.055  38.442   2.901
48572W        W16966  13.815  33.365  12.002
48573W        W16967  12.331  34.731  13.368
48574W        W16968   3.384  27.980  10.616
48575W        W16969  18.656  32.041  11.838
48576W        W16970   7.134   3.242  11.560
48577W        W16971   7.969  42.391  13.364
48578W        W16972  27.970   4.795   1.247
48579W        W16973   7.174   1.354   4.454
48580W        W16974  22.297  22.690   3.383
48581W        W16975  25.078  29.924   0.287
48582W        W16976  24.216  29.554   3.315
48583W        W16977  43.057  43.582  12.863
48584W        W16978  18.057  29.868  12.424
48585W        W16979  31.440   7.345  13.361
48586W        W16980  11.806   5.976   0.348
48587W        W16981  29.081  44.891   0.361
48588W        W16982   0.016   2.451  14.331
48589W        W16983   8.554  13.944  13.319
48590W        W16984  32.953  29.058  12.147
48591W        W16985   9.830  24.975  11.437
48592W        W16986  37.039  17.574   3.159
48593W        W16987  32.623  11.708  13.855
48594W        W16988  10.935  20.252  12.422
48595W        W16989  16.356  34.020  13.253
48596W        W16990  34.971  29.724   3.997
48597W        W16991  20.104  22.544   3.823
48598W        W16992  14.232  16.352   4.752
48599W        W16993  29.939  14.360   0.162
48600W        W16994  30.576  38.873  12.346
48601W        W16995  26.844  39.773  10.692
48602W        W16996  43.872  40.438   1.179
48603W        W16997  34.025  41.679  11.589
48604W        W16998   0.874  25.126   1.378
48605W        W16999  28.708  28.549  12.894
48606W        W17000  11.168  34.131   0.121
48607W        W17001  22.490  29.966   2.977
48608W        W17002  42.585  15.853  12.912
48609W        W17003  15.568   1.736   2.201
48610W        W17004  22.658  31.665  13.971
48611W        W17005   1.259  26.138   5.082
48612W        W17006  40.155   7.163   3.068
48613W        W17007  13.099   6.372   0.736
48614W        W17008  13.715  14.770  11.857
48615W        W17009   6.129   8.178  10.804
48616W        W17010  16.136  35.884   3.319
48617W        W17011  29.996  11.193  10.172
48618W        W17012   2.515  18.504   1.210
48619W        W17013  26.118  25.301  12.004
48620W        W17014  28.464   9.427   3.222
48621W        W17015   1.950   4.835  14.638
48622W        W17016  29.834  28.021  10.822
48623W        W17017  24.971   7.368   3.328
48624W        W17018  33.042   6.006   2.838
48625W        W17019  28.703  32.932   0.919
48626W        W17020   3.370  28.516  11.267
48627W        W17021   4.170  21.574  14.476
48628W        W17022   0.842  14.770   3.100
48629W        W17023  41.008  16.622   4.541
48630W        W17024  17.920  15.866  10.138
48631W        W17025   3.226  44.748   3.875
48632W        W17026   6.431  38.207  12.642
48633W        W17027  42.073   8.202   1.293
48634W        W17028   0.457  10.649  12.023
48635W        W17029  42.945  38.544   5.428
48636W        W17030  16.544   5.775  13.871
48637W        W17031  41.238  26.565  12.540
48638W        W17032  25.153  24.533   0.236
48639W        W17033  17.659  19.727  13.919
48640W        W17034  10.401  14.088  12.571
48641W        W17035  26.398  26.086   4.887
48642W        W17036   0.231  16.293  14.889
48643W        W17037   4.261  26.020  14.106
48644W        W17038  18.017  37.256  10.333
48645W        W17039   4.546   2.042  13.505
48646W        W17040   5.452  31.899   2.880
48647W        W17041   6.698  34.923   0.497
48648W        W17042  24.778   1.216   1.853
48649W        W17043  32.977  30.107   1.926
48650W        W17044  28.582  36.168  10.660
48651W        W17045  34.125  30.003   4.577
48652W        W17046   6.879  34.421   1.359
48653W        W17047  12.320   9.447  10.938
48654W        W17048  34.925  22.699  14.769
48655W        W17049  39.290   9.932  11.275
48656W        W17050  14.118  11.894  14.005
48657W        W17051   5.851  42.943  10.768
48658W        W17052  43.141  41.752   0.539
48659W        W17053  20.367  16.585   4.024
48660W        W17054  23.638  24.438  12.438
48661W        W17055  16.291  14.128   3.601
48662W        W17056   2.171  12.516   2.763
48663W        W17057  35.566  27.602  13.200
48664W        W17058   6.469   5.476  13.858
48665W        W17059  42.886   8.707   3.208
48666W        W17060  38.025  30.998   1.240
48667W        W17061  12.247  31.582   1.210
48668W        W17062  15.492   5.478   0.356
48669W        W17063  33.472  11.086   4.062
48670W        W17064  41.030   4.750   2.722
48671W        W17065  32.645  36.174   1.454
48672W        W17066  18.108  18.620   1.500
48673W        W17067  10.358   1.916   0.293
48674W        W17068   2.406   7.833   2.649
48675W        W17069  43.985  40.535  11.825
48676W        W17070  34.203  17.003   1.934
48677W        W17071  16.122  26.243   3.283
48678W        W17072  39.918  24.609   0.524
48679W        W17073   0.467  13.989   3.394
48680W        W17074  29.176  42.621  12.904
48681W        W17075  37.363  40.526  11.630
48682W        W17076  34.474  42.774   0.499
48683W        W17077  30.140   3.685   5.100
48684W        W17078  12.128  30.456   2.016
48685W        W17079  44.317   4.662   0.714
48686W        W17080  35.446  11.717  12.819
48687W        W17081  14.860  27.601  13.709
48688W        W17082   0.080  29.701   1.041
48689W        W17083  23.544  19.109  13.205
48690W        W17084  35.923  32.918   2.796
48691W        W17085  38.263  19.107   3.602
48692W        W17086  33.505   2.817  14.906
48693W        W17087   5.873  11.170  11.380
48694W        W17088   5.983  36.628   4.331
48695W        W17089  39.245  16.815  13.855
48696W        W17090  10.282  34.841   5.216
48697W        W17091   2.133  42.717  11.091
48698W        W17092  23.014  34.576   1.882
48699W        W17093  26.465  10.361   0.269
48700W        W17094   7.907  37.395  10.667
48701W        W17095  36.583  19.396   1.970
48702W        W17096  24.031  39.649  13.460
48703W        W17097  35.121  44.940  12.938
48704W        W17098  14.205  13.733  14.751
48705W        W17099  16.017  15.236  12.203
48706W        W17100   1.340   8.375   3.394
48707W        W17101  38.916  21.210   2.354
48708W        W17102  40.063  13.862   1.291
48709W        W17103  24.899   4.102  11.590
48710W        W17104  22.185  34.580   2.644
48711W        W17105   5.726  15.879   3.338
48712W        W17106  11.070  33.567   0.792
48713W        W17107  33.485  10.833   1.262
48714W        W17108  36.163  40.530   1.853
48715W        W17109  28.525  16.349  11.062
48716W        W17110  11.579  17.652   2.899
48717W        W17111   3.587  37.841   1.413
48718W        W17112  20.537   6.211   3.865
48719W        W17113  43.782  20.531   3.047
48720W        W17114  20.596  24.774   3.229
48721W        W17115   3.345   7.847  12.053
48722W        W17116   7.333  30.743   4.961
48723W        W17117   8.889  43.401  14.468
48724W        W17118  12.226  15.695   1.938
48725W        W17119   4.847  16.609   2.249
48726W        W17120  19.540  11.109   3.272
48727W        W17121  42.111  24.219  11.206
48728W        W17122  38.600   0.375  13.358
48729W        W17123  35.914  39.047   4.831
48730W        W17124   4.428  21.282   3.081
48731W        W17125   8.401  42.609   0.717
48732W        W17126  11.819   1.819  10.531
48733W        W17127   3.786  42.978   3.573
48734W        W17128  38.930   6.477   1.315
48735W        W17129   2.807  43.317  13.101
48736W        W17130  15.224  31.046   2.192
48737W        W17131   6.264  42.351  13.738
48738W        W17132  33.942  11.860   1.490
48739W        W17133   6.659   7.333   2.792
48740W        W17134  29.444  17.511  10.995
48741W        W17135  15.514  41.026  12.977
48742W        W17136  21.230  25.569  13.577
48743W        W17137  35.779   1.196   2.285
48744W        W17138  35.517   1.703  13.864
48745W        W17139  38.783   9.790   0.450
48746W        W17140  17.733  43.008  11.323
48747W        W17141  11.841   6.176  10.678
48748W        W17142  33.834   3.854   1.421
48749W        W17143   1.969  38.699  13.519
48750W        W17144  27.081  11.826   2.781
48751W        W17145  32.549  24.789   2.273
48752W        W17146  22.940   4.284   2.232
48753W        W17147  39.374  41.292  11.179
48754W        W17148  35.356  32.438   4.384
48755W        W17149  38.492   5.968  10.638
48756W        W17150  19.021  38.340  13.748
48757W        W17151  21.086  43.438   1.892
48758W        W17152  29.991   3.133  14.331
48759W        W17153  19.821  15.304  11.730
48760W        W17154  11.573  33.452   0.789
48761W        W17155  14.297  13.904   4.767
48762W        W17156  10.239  33.800  12.371
48763W        W17157  25.147  17.816  14.755
48764W        W17158  15.161  23.573  13.588
48765W        W17159  42.266   1.245   1.627
48766W        W17160  35.982  14.958  14.661
48767W        W17161  27.595  31.925  13.097
48768W        W17162  27.141  35.052  11.525
48769W        W17163  42.433  14.627   0.797
48770W        W17164  26.463  13.483   4.052
48771W        W17165   5.299  35.627  14.622
48772W        W17166  35.154   9.254  12.134
48773W        W17167   0.511  37.828   3.746
48774W        W17168  15.578  19.009   3.231
48775W        W17169  34.296  11.538   1.264
48776W        W17170  17.886  30.380  12.932
48777W        W17171  31.085  10.400  13.384
48778W        W17172  39.302  26.006   0.250
48779W        W17173  25.515  22.056   3.807
48780W        W17174  25.359  36.129  11.598
48781W        W17175  37.503  29.984   4.183
48782W        W17176  36.013   7.427   2.827
48783W        W17177  35.975  43.040  14.578
48784W        W17178  12.273  18.840   2.853
48785W        W17179  24.221  10.532  10.839
48786W        W17180  28.129  35.080  13.923
48787W        W17181  21.116  14.245   4.626
48788W        W17182  17.072  14.615  12.400
48789W        W17183  11.155   8.425   4.229
48790W        W17184   6.668  23.288  14.839
48791W        W17185  25.525   3.230   0.062
48792W        W17186  26.739   1.683  14.873
48793W        W17187  10.972  22.200   3.857
48794W        W17188  36.956  38.274  10.953
48795W        W17189  39.871  14.681   2.614
48796W        W17190  27.563  19.786   0.787
48797W        W17191   7.246  29.853  14.411
48798W        W17192  11.169  42.262   1.194
48799W        W17193  17.429  13.626  11.932
48800W        W17194   8.394   7.135   1.520
48801W        W17195  37.651  34.157   2.914
48802W        W17196   9.371  38.419  14.284
48803W        W17197  10.666  37.720   2.434
48804W        W17198  36.442  21.136   1.250
48805W        W17199  14.274  22.615  10.841
48806W        W17200  44.242  40.060  13.937
48807W        W17201  21.737  34.632   1.404
48808W        W17202  17.283   8.275   4.252
48809W        W17203  27.895   5.882   4.766
48810W        W17204  27.928  32.544   3.534
48811W        W17205   5.481  34.041  12.106
48812W        W17206  26.183   0.491   3.702
48813W        W17207  15.100  12.698   4.274
48814W        W17208  22.283  44.834  12.412
48815W        W17209  27.546  43.441   0.836
48816W        W17210  37.045  12.796   4.191
48817W        W17211  15.554  36.910   1.708
48818W        W17212  37.656   1.542   0.597
48819W        W17213  22.141   4.520   0.873
48820W        W17214  19.071  41.043   3.161
48821W        W17215  25.242  20.764   0.213
48822W        W17216  19.283  43.036   5.015
48823W        W17217  42.343  28.897  10.766
48824W        W17218  15.092   9.360   0.260
48825W        W17219   2.467  39.065   0.869
48826W        W17220  38.016  17.609  14.307
48827W        W17221  17.150   4.247  14.492
48828W        W17222  16.643  20.529  11.933
48829W        W17223  29.494  28.976  10.581
48830W        W17224   1.751   1.995   3.703
48831W        W17225  17.126   5.883   4.064
48832W        W17226  42.795  31.007   0.271
48833W        W17227  15.665   1.212  12.402
48834W        W17228  24.490  20.040  14.411
48835W        W17229  16.595   7.355   1.416
48836W        W17230  34.008  15.751   2.856
48837W        W17231   0.657  13.533  13.872
48838W        W17232   8.408  31.756   0.912
48839W        W17233   0.538  37.942  10.848
48840W        W17234  13.399  36.636   0.895
48841W        W17235  11.312  29.077   1.570
48842W        W17236  34.535  33.355   0.269
48843W        W17237  11.060   1.663  12.428
48844W        W17238  40.211  32.027  11.076
48845W        W17239  19.720  44.281   3.491
48846W        W17240  32.810  36.770   4.321
48847W        W17241  27.318  13.022  10.748
48848W        W17242  29.037  23.215   0.157
48849W        W17243  23.025   8.748   4.213
48850W        W17244  35.622   3.207   0.455
48851W        W17245  34.269  40.939   4.113
48852W        W17246   3.511   0.995  10.997
48853W        W17247   3.457   2.407   1.472
48854W        W17248  42.951  22.669   2.876
48855W        W17249  44.602  15.788  13.874
48856W        W17250   9.551  33.426  12.070
48857W        W17251  32.196  32.940  13.789
48858W        W17252  20.663  39.393   0.061
48859W        W17253   3.243  35.182  13.446
48860W        W17254  29.434  24.400  14.940
48861W        W17255  10.521   0.004   1.647
48862W        W17256   2.143  30.112   0.766
48863W        W17257  24.234  13.737   0.251
48864W        W17258  21.757  16.321   1.682
48865W        W17259   7.952  25.435  11.180
48866W        W17260  25.494  24.351   5.025
48867W        W17261  31.787   7.411   1.798
48868W        W17262  23.200   5.166   1.341
48869W        W17263  18.642  14.118  14.462
48870W        W17264  33.633   2.444   3.873
48871W        W17265  34.662  13.155  13.724
48872W        W17266  32.885   9.357  14.398
48873W        W17267  37.310  37.502  13.679
48874W        W17268  43.390   3.192   1.345
48875W        W17269   9.795  13.788   0.070
48876W        W17270   1.772  38.595  10.777
48877W        W17271  38.512  27.934  12.056
48878W        W17272  40.003  31.072  11.101
48879W        W17273  18.075   6.646  14.046
48880W        W17274  25.801  22.087  13.197
48881W        W17275  36.089  24.031   0.574
48882W        W17276  24.566  21.066  14.588
48883W        W17277  32.697  11.244   4.731
48884W        W17278  44.024   6.388  13.332
48885W        W17279  39.822  22.495   0.943
48886W        W17280  10.947  33.694   0.291
48887W        W17281   8.147  36.969   0.559
48888W        W17282  10.266  43.617   0.178
48889W        W17283  15.241  13.764   2.882
48890W        W17284   8.631  38.696   2.316
48891W        W17285   8.711  31.484  14.474
48892W        W17286  19.214  41.026   4.068
48893W        W17287  19.629  41.880  13.223
48894W        W17288  29.204  16.694   0.730
48895W        W17289  35.905  21.571   4.782
48896W        W17290  29.175   9.874   2.697
48897W        W17291  40.428  26.890   0.930
48898W        W17292  28.059  33.408   3.702
48899W        W17293  13.688  34.386  11.894
48900W        W17294  26.400   8.860   4.141
48901W        W17295  40.740  21.229  14.303
48902W        W17296   1.175  17.818  12.643
48903W        W17297   3.283  12.586   4.792
48904W        W17298  11.880  15.799   4.152
48905W        W17299  43.622  29.495   1.296
48906W        W17300  20.129  33.978  10.997
48907W        W17301  17.596  41.909   2.805
48908W        W17302  27.772   4.977   4.083
48909W        W17303  42.019  36.888   4.181
48910W        W17304   7.801  19.189   4.652
48911W        W17305  42.956  23.202  11.545
48912W        W17306  36.778  15.100   2.623
48913W        W17307  24.159   2.355  13.437
48914W        W17308  22.734  44.470   3.217
48915W        W17309  15.147   5.474  12.927
48916W        W17310  17.919  36.310  14.057
48917W        W17311  43.984  25.241   2.229
48918W        W17312  28.623   1.341   0.972
48919W        W17313  43.284  41.710  10.544
48920W        W17314  23.135   4.519  10.732
48921W        W17315  19.603  38.906   0.404
48922W        W17316  11.783   6.174  12.947
48923W        W17317   9.931   3.908   3.241
48924W        W17318   5.358   4.326  12.626
48925W        W17319  40.346  25.194   4.484
48926W        W17320   1.483  24.517   2.869
48927W        W17321  18.469  22.288   3.112
48928W        W17322  36.886  28.116   4.538
48929W        W17323  18.325  28.370  12.831
48930W        W17324  38.719  37.868   4.015
48931W        W17325  25.034  36.403  11.258
48932W        W17326  32.174  23.646   3.186
48933W        W17327   0.388   4.013  12.989
48934W        W17328   7.170  25.198  11.626
48935W        W17329  34.045  31.628  12.134
48936W        W17330  19.492  29.099  12.605
48937W        W17331  22.140  12.189  10.917
48938W        W17332   7.916   0.491   1.671
48939W        W17333   8.824  26.864  12.633
48940W        W17334  40.248   3.867  12.997
48941W        W17335  23.996  21.272   4.692
48942W        W17336  29.431   9.746   3.248
48943W        W17337  26.963   3.296  13.967
48944W        W17338   4.310  44.811   0.372
48945W        W17339  16.080  12.785   3.208
48946W        W17340  40.546  13.806   2.204
48947W        W17341  20.484  20.355   5.216
48948W        W17342   2.226  29.059   2.790
48949W        W17343  18.584  40.432   4.571
48950W        W17344  29.140  11.660  13.842
48951W        W17345  22.179  12.143  13.005
48952W        W17346  31.962   7.727   2.319
48953W        W17347  24.580  27.062  10.437
48954W        W17348   0.475  37.954  14.221
48955W        W17349  41.861  26.388   2.295
48956W        W17350  44.246  40.350  12.638
48957W        W17351  34.597  21.612  12.133
48958W        W17352  23.674  44.706  11.109
48959W        W17353  14.648  44.457   0.062
48960W        W17354  43.273  33.407   2.232
48961W        W17355  23.722  43.032   2.553
48962W        W17356  34.174  33.746   3.049
48963W        W17357  40.036  44.454  10.569
48964W        W17358  35.394  39.614   0.217
48965W        W17359   0.128  16.103  12.000
48966W        W17360  31.014   5.226  14.902
48967W        W17361  16.660  42.183  10.481
48968W        W17362  19.711  38.080   1.127
48969W        W17363  28.919  15.829  12.912
48970W        W17364   3.374  31.103  14.722
48971W        W17365   5.878  15.387   0.004
48972W        W17366  32.885  16.969   3.002
48973W        W17367  21.431  21.761  11.000
48974W        W17368  18.229  29.235  11.092
48975W        W17369   6.729  27.291   9.814
48976W        W17370  10.244  31.454   3.818
48977W        W17371  30.886  34.304   4.551
48978W        W17372   3.018  13.519  11.277
48979W        W17373  40.353  15.014   3.067
48980W        W17374   3.708   9.378  13.935
48981W        W17375   9.174  34.492  13.156
48982W        W17376  39.452  14.585  11.471
48983W        W17377  30.044  29.566   3.161
48984W        W17378  28.002   4.661  12.849
48985W        W17379  22.092  13.841   1.668
48986W        W17380  33.106   5.148   3.864
48987W        W17381  21.491   7.969   4.204
48988W        W17382  24.476  39.483   0.276
48989W        W17383   2.969  15.357   1.735
48990W        W17384  30.242   8.822  12.460
48991W        W17385  26.171  20.277   5.067
48992W        W17386   4.903  18.010   2.832
48993W        W17387   5.830  43.904  14.909
48994W        W17388  10.114   7.250   1.325
48995W        W17389  36.057  42.650  14.185
48996W        W17390  10.714   6.761   1.772
48997W        W17391  27.003  30.165  14.064
48998W        W17392  43.977  27.556  11.954
48999W        W17393  22.598  43.178  11.570
49000W        W17394  20.167  25.123  14.454
49001W        W17395  26.427  28.426   2.770
49002W        W17396  11.655  28.765   1.852
49003W        W17397   6.600  20.124  12.588
49004W        W17398  38.438  10.635   2.376
49005W        W17399   4.157  26.262  11.749
49006W        W17400  33.968  35.451   4.505
49007W        W17401  39.850  32.314  11.331
49008W        W17402   4.783   6.355   0.496
49009W        W17403  21.165  33.650   5.087
49010W        W17404  24.552   0.013  14.305
49011W        W17405  29.120  11.099  11.159
49012W        W17406  34.029  11.163  11.901
49013W        W17407  39.977  34.343  14.889
49014W        W17408  10.677  31.210   3.969
49015W        W17409  22.874  10.623   2.942
49016W        W17410   2.247  16.214   0.222
49017W        W17411   5.462  11.069  12.510
49018W        W17412   6.637   2.920   4.056
49019W        W17413  36.448  28.272   1.203
49020W        W17414  23.923   7.455  12.563
49021W        W17415   2.979  43.992   4.174
49022W        W17416  17.721  18.676   4.098
49023W        W17417  36.101  13.725   0.748
49024W        W17418  24.091  15.206   3.251
49025W        W17419  21.779  25.068   0.431
49026W        W17420  23.600  32.649  12.879
49027W        W17421  28.375  30.474  14.986
49028W        W17422  13.843  11.793   5.021
49029W        W17423  13.020  30.518  12.540
49030W        W17424  40.887  12.757  12.063
49031W        W17425   7.084   8.418   4.481
49032W        W17426  43.706   8.316  13.587
49033W        W17427  36.501  26.810   5.244
49034W        W17428  43.919  38.814   1.083
49035W        W17429  27.676  11.648   3.743
49036W        W17430  14.226  26.984  13.942
49037W        W17431  24.197  41.497   9.914
49038W        W17432  19.045  43.958  10.884
49039W        W17433  16.962  24.915   5.044
49040W        W17434  21.899  43.273  14.481
49041W        W17435  22.984  38.542  11.586
49042W        W17436  43.812  16.316   1.009
49043W        W17437  12.602   0.931  11.629
49044W        W17438  31.953  22.981   2.268
49045W        W17439  13.844  27.026  13.620
49046W        W17440  20.091  33.004   0.934
49047W        W17441  29.506  31.457   4.819
49048W        W17442   2.290  28.077   4.864
49049W        W17443  44.420  21.255   3.013
49050W        W17444  10.729  34.239   2.588
49051W        W17445  23.678  22.784  10.727
49052W        W17446  14.292  22.542   0.253
49053W        W17447   4.724  13.635   0.391
49054W        W17448   6.909  37.618  10.680
49055W        W17449  35.571  42.749  14.367
49056W        W17450  11.741  13.824   4.509
49057W        W17451  27.758  41.684   2.138
49058W        W17452   3.043   0.797  12.075
49059W        W17453   2.806  26.173  12.602
49060W        W17454  35.173  39.499  12.064
49061W        W17455  19.115  20.057   1.751
49062W        W17456  11.672  24.759  12.547
49063W        W17457  41.042   2.195  11.099
49064W        W17458  12.699  26.702   2.875
49065W        W17459  24.539  14.520   2.509
49066W        W17460  11.158  37.334   0.449
49067W        W17461  41.733  14.239  13.100
49068W        W17462  33.644  30.104   0.650
49069W        W17463  12.728   2.359  13.116
49070W        W17464  23.960  28.412   0.417
49071W        W17465  18.712  25.604   4.098
49072W        W17466   1.462   5.317  11.378
49073W        W17467  44.096  43.988  13.325
49074W        W17468  37.934  27.403  12.941
49075W        W17469  39.763  12.690   0.961
49076W        W17470  22.469  38.568  11.627
49077W        W17471   5.316  23.431  10.616
49078W        W17472   2.555  29.451  14.517
49079W        W17473   9.130   4.821  13.432
49080W        W17474  11.571  11.846   4.707
49081W        W17475   3.235  23.094  11.186
49082W        W17476  40.069   8.209   0.382
49083W        W17477  11.238  13.101   4.794
49084W        W17478  44.978  43.561   0.994
49085W        W17479  26.504   1.024  11.120
49086W        W17480   4.730  41.432  11.222
49087W        W17481   0.023  43.973  11.963
49088W        W17482  14.811  21.083  12.182
49089W        W17483  11.884   9.206  14.334
49090W        W17484  24.023  30.131   0.970
49091W        W17485  19.039  43.913  13.413
49092W        W17486  40.673  29.894   1.478
49093W        W17487   8.719  15.025  14.939
49094W        W17488  20.903  15.610  13.349
49095W        W17489  26.098  30.191   0.877
49096W        W17490  41.301   0.491   3.495
49097W        W17491  30.368   2.956   2.458
49098W        W17492  32.971  20.975   2.000
49099W        W17493  13.937  27.389   1.699
49100W        W17494  12.149   9.579  13.330
49101W        W17495  18.667  21.033   0.573
49102W        W17496   9.642  26.752  12.380
49103W        W17497   9.902  18.153   1.910
49104W        W17498   7.565  21.430  11.135
49105W        W17499  44.691  20.668   4.476
49106W        W17500  20.620   1.007   2.410
49107W        W17501  16.696  31.190   1.314
49108W        W17502  27.971  38.855  13.973
49109W        W17503  27.678   8.325  14.682
49110W        W17504   5.714   5.997  11.176
49111W        W17505   9.684  25.982  13.332
49112W        W17506  43.264  35.440   1.489
49113W        W17507  38.995  15.569   0.295
49114W        W17508  39.965  16.659  12.890
49115W        W17509  44.018   8.350   0.500
49116W        W17510  23.256  20.230   0.430
49117W        W17511  22.086  30.094   2.664
49118W        W17512  25.186  11.243   0.659
49119W        W17513  26.231  20.052  14.355
49120W        W17514  18.007  11.697   3.176
49121W        W17515   8.377  28.063  12.393
49122W        W17516  16.270  37.580  14.078
49123W        W17517  35.770  18.801  14.062
49124W        W17518   7.193  31.053   1.969
49125W        W17519  10.872  21.042   4.923
49126W        W17520   4.454  21.722  11.366
49127W        W17521  41.978  35.878   4.545
49128W        W17522   0.963   6.851   1.692
49129W        W17523  13.433  36.345  14.905
49130W        W17524  10.822  41.937   0.260
49131W        W17525  39.831  35.987  11.959
49132W        W17526  23.965  34.377  14.934
49133W        W17527   4.822  30.441   0.902
49134W        W17528   7.160  37.744  11.143
49135W        W17529   2.332  26.309  10.672
49136W        W17530   7.053  19.075  11.359
49137W        W17531  15.133  39.628  12.051
49138W        W17532  16.558  11.861  14.807
49139W        W17533  42.346  36.396   1.912
49140W        W17534  13.289   4.759  14.615
49141W        W17535   6.010  26.859   2.287
49142W        W17536   8.700  16.219  11.092
49143W        W17537  44.445  24.288   3.200
49144W        W17538  28.799   8.384  12.154
49145W        W17539  17.900  33.442   1.994
49146W        W17540  32.106  15.171  13.868
49147W        W17541   8.394  19.736   4.274
49148W        W17542  38.960   0.401   0.547
49149W        W17543  36.452  18.695  12.401
49150W        W17544  15.777   8.270   2.276
49151W        W17545  12.397  23.609  11.029
49152W        W17546   4.800  20.055   2.019
49153W        W17547  10.133  19.143  12.048
49154W        W17548  21.055  39.257  13.813
49155W        W17549  14.403  21.097   0.801
49156W        W17550  40.628  30.042   4.762
49157W        W17551  43.499   7.177   2.479
49158W        W17552  22.191  20.133  14.341
49159W        W17553   7.919  42.734   2.234
49160W        W17554   9.718  17.532  12.578
49161W        W17555  41.110   1.992   3.711
49162W        W17556  32.971   7.221   2.848
49163W        W17557  35.676  35.321  11.685
49164W        W17558   7.884  40.512  10.549
49165W        W17559  24.403  43.933   2.177
49166W        W17560  18.222  29.568  14.344
49167W        W17561  24.022  16.325  10.752
49168W        W17562  40.039  40.844  13.005
49169W        W17563  25.939   4.465   4.225
49170W        W17564  35.129  33.034  10.927
49171W        W17565  11.909  25.683  11.573
49172W        W17566  44.866  23.719   3.777
49173W        W17567  37.085  14.147  12.676
49174W        W17568   0.017  21.464   4.575
49175W        W17569  12.673  27.052   2.284
49176W        W17570  39.413  18.582  14.977
49177W        W17571   1.889   2.226  14.607
49178W        W17572  39.944  35.555  11.680
49179W        W17573  21.791  15.644   4.651
49180W        W17574  15.209  11.370  12.507
49181W        W17575  15.011  29.036  13.424
49182W        W17576  37.422  20.818  11.127
49183W        W17577   7.301  43.345   0.187
49184W        W17578   5.887  27.866   4.688
49185W        W17579  44.459  39.459   1.732
49186W        W17580  13.102  17.150   2.284
49187W        W17581  20.535  44.818  14.044
49188W        W17582  28.205  42.296  14.708
49189W        W17583   7.816   0.406  11.619
49190W        W17584  25.961  39.942   0.351
49191W        W17585  16.205   9.946  10.649
49192W        W17586  23.822  26.340  13.524
49193W        W17587   4.382   4.045   1.431
49194W        W17588  13.676  35.845   1.717
49195W        W17589  41.355  25.080   4.628
49196W        W17590  21.488  44.220   3.924
49197W        W17591   2.711  38.804   3.190
49198W        W17592  19.442  37.121   4.601
49199W        W17593  23.308  24.762   4.076
49200W        W17594  13.704  43.409  13.265
49201W        W17595   0.988  10.546   3.710
49202W        W17596  27.266  15.598  14.563
49203W        W17597  44.931  23.553  13.470
49204W        W17598  16.883  27.933  12.716
49205W        W17599   5.166  38.992  14.786
49206W        W17600   8.883   4.704  13.907
49207W        W17601   8.162  20.570   0.755
49208W        W17602  18.474  12.031  10.604
49209W        W17603  35.061   8.468  10.725
49210W        W17604   4.627  39.905  13.424
49211W        W17605  40.061  34.417  13.360
49212W        W17606  20.041  12.526   1.877
49213W        W17607  34.668   4.307  12.918
49214W        W17608  13.403   6.743   0.522
49215W        W17609   8.654  35.998  11.504
49216W        W17610  23.485  35.464   4.003
49217W        W17611  29.621   7.949   2.242
49218W        W17612  12.201   7.260  12.357
49219W        W17613  13.381  35.619   2.800
49220W        W17614  11.478   9.559   2.786
49221W        W17615  38.079  12.634   1.115
49222W        W17616  18.153   6.750   0.262
49223W        W17617  44.815   0.220   0.474
49224W        W17618  15.456  11.188   2.362
49225W        W17619  32.905  19.710  14.661
49226W        W17620  11.120   5.487   4.161
49227W        W17621  23.678  38.882   4.077
49228W        W17622  27.158   3.171  13.457
49229W        W17623  23.305  15.798  12.964
49230W        W17624  34.828  13.986  10.490
49231W        W17625  43.748  43.477   2.380
49232W        W17626  19.297  10.090  13.349
49233W        W17627  24.684  32.487  10.631
49234W        W17628  30.215  10.815   1.438
49235W        W17629  26.068  27.039   0.850
49236W        W17630  21.398   6.144  11.151
49237W        W17631  25.416  34.076   3.099
49238W        W17632  13.926  29.575   2.729
49239W        W17633   5.071  36.019  11.466
49240W        W17634  24.680   0.542   0.597
49241W        W17635  21.607  28.650   3.779
49242W        W17636   3.463  19.768  12.060
49243W        W17637  13.674  28.925  12.541
49244W        W17638   1.283   7.503  12.439
49245W        W17639  12.366  41.248   3.231
49246W        W17640  18.417  19.155   4.471
49247W        W17641  34.522  23.398  12.714
49248W        W17642  40.312  26.913  14.907
49249W        W17643  30.111  41.722   0.830
49250W        W17644  24.531  15.096   0.444
49251W        W17645  41.420  23.231   1.976
49252W        W17646   1.500  20.627   3.995
49253W        W17647   8.106  35.888  10.640
49254W        W17648  33.922  34.286   1.904
49255W        W17649  11.936   4.763  13.869
49256W        W17650  20.108  10.158  11.472
49257W        W17651  33.338   6.865   2.918
49258W        W17652  36.396  14.843  14.961
49259W        W17653  16.319  28.122   2.084
49260W        W17654  37.751  44.573  14.457
49261W        W17655  42.901  22.577  14.047
49262W        W17656  26.011   8.714  12.164
49263W        W17657   7.817  27.421  13.434
49264W        W17658  12.238  36.303   2.103
49265W        W17659  36.417  30.882  11.544
49266W        W17660  31.670  21.403   1.670
49267W        W17661  15.809  40.836  10.580
49268W        W17662  13.263  20.811   3.123
49269W        W17663  13.339   9.508  13.294
49270W        W17664  16.015   4.249  13.382
49271W        W17665  17.654  37.824   2.789
49272W        W17666   7.312  44.070   3.333
49273W        W17667  32.352  10.843  13.343
49274W        W17668  33.438   3.448   1.388
49275W        W17669  41.674   9.810   4.773
49276W        W17670  23.574   5.494  13.043
49277W        W17671   5.258   1.397   3.452
49278W        W17672  19.204  14.488  12.969
49279W        W17673  34.370   9.774  13.024
49280W        W17674  15.933  40.555  13.211
49281W        W17675   9.883  35.531   3.602
49282W        W17676  33.608  31.248  14.467
49283W        W17677  24.987   6.922   2.199
49284W        W17678  10.168  18.176  10.999
49285W        W17679  11.256   3.219   3.649
49286W        W17680  32.979  27.665   3.231
49287W        W17681   5.204  28.917   2.764
49288W        W17682  27.950  37.597   4.516
49289W        W17683  35.161  39.184   2.345
49290W        W17684  25.276   7.843   1.736
49291W        W17685  26.386  44.336  13.945
49292W        W17686  28.450  11.865  11.991
49293W        W17687   1.164   9.469  14.895
49294W        W17688  42.576  44.951  10.760
49295W        W17689  14.588  44.296  10.841
49296W        W17690  14.180  14.587  11.973
49297W        W17691  20.193  33.526  10.736
49298W        W17692   1.044  44.035  12.073
49299W        W17693  22.946  26.235  12.489
49300W        W17694  16.633  40.922   1.989
49301W        W17695   1.395   7.934   3.694
49302W        W17696  37.172  35.095   3.746
49303W        W17697  37.616   5.508  12.778
49304W        W17698   0.985  31.774  10.644
49305W        W17699  39.045  33.369   0.295
49306W        W17700  30.861  41.006   0.065
49307W        W17701   9.091   6.661  14.063
49308W        W17702  25.967  44.506  12.470
49309W        W17703   6.532  28.786   1.266
49310W        W17704  36.951   6.496   2.716
49311W        W17705   9.111  31.842  11.947
49312W        W17706  29.953  27.602   4.118
49313W        W17707  25.996  30.556  10.466
49314W        W17708  39.872  23.476   0.826
49315W        W17709   0.363  44.941   3.352
49316W        W17710   6.274   1.492  12.913
49317W        W17711  11.344  15.219  11.618
49318W        W17712  30.589  33.669   0.944
49319W        W17713  44.912  20.731  11.405
49320W        W17714   1.974   0.754  13.044
49321W        W17715  16.226  30.596  14.682
49322W        W17716  28.529  18.996   1.864
49323W        W17717  13.691  21.205  14.393
49324W        W17718  41.130  15.606   4.894
49325W        W17719   6.946  25.684   0.212
49326W        W17720  28.151  34.112   0.277
49327W        W17721  23.110  13.411  14.873
49328W        W17722  22.918  44.920  12.793
49329W        W17723  26.578   6.420   1.522
49330W        W17724   2.414  26.031   2.370
49331W        W17725  17.632   9.467  12.596
49332W        W17726  27.199   2.912  11.647
49333W        W17727   7.945  22.790   3.846
49334W        W17728  29.395  38.628  13.003
49335W        W17729  23.562  27.233  13.320
49336W        W17730  34.164  43.029   4.212
49337W        W17731   3.360  26.949   3.600
49338W        W17732  30.767  17.774  12.631
49339W        W17733   9.298   6.260  10.737
49340W        W17734  36.500  12.629   3.420
49341W        W17735  29.862  24.039  13.708
49342W        W17736  37.407  41.964  14.802
49343W        W17737  36.082  39.811  11.737
49344W        W17738  40.567  41.249   1.237
49345W        W17739  34.925   0.829  10.734
49346W        W17740  21.054  25.662  11.223
49347W        W17741  42.318   8.886  10.925
49348W        W17742  38.441  15.465   0.324
49349W        W17743  23.514  11.363   0.338
49350W        W17744  15.613  10.805  11.043
49351W        W17745  42.847  35.267   2.328
49352W        W17746  13.737  25.064  10.769
49353W        W17747  32.630  36.851  13.717
49354W        W17748  19.176  32.259   4.017
49355W        W17749  42.981  35.319   3.242
49356W        W17750   5.230  16.563  11.037
49357W        W17751  20.129   8.482   0.314
49358W        W17752  30.641  10.670  14.848
49359W        W17753  43.586  15.750  12.857
49360W        W17754  15.199   5.185   9.871
49361W        W17755  14.270  26.779  11.882
49362W        W17756   5.408  43.418   2.320
49363W        W17757  32.414  19.503  12.488
49364W        W17758  12.851  38.421   3.728
49365W        W17759  43.065   5.572   2.625
49366W        W17760  44.317   9.236  14.286
49367W        W17761  31.903   6.342   1.352
49368W        W17762  24.020   4.927  11.500
49369W        W17763  22.478  15.671  12.541
49370W        W17764  34.466   8.750  12.820
49371W        W17765   7.900  20.689   1.207
49372W        W17766   2.198  38.003  11.445
49373W        W17767  14.373  37.228  13.413
49374W        W17768   8.063  41.503  11.171
49375W        W17769  32.350  23.562  14.712
49376W        W17770  40.042   3.298   1.441
49377W        W17771  15.854  31.046  13.431
49378W        W17772  19.575   8.450  10.562
49379W        W17773  31.399  27.502  12.569
49380W        W17774  21.550  12.726  14.331
49381W        W17775  20.018   9.799   1.791
49382W        W17776   4.397  20.091   2.324
49383W        W17777  14.259  11.520  10.592
49384W        W17778  20.781  44.487  12.257
49385W        W17779  13.313  19.311  13.851
49386W        W17780  28.310  31.789  11.577
49387W        W17781  18.095  16.090  10.857
49388W        W17782   8.274  11.672   0.723
49389W        W17783  14.106  23.985  12.131
49390W        W17784   6.437  38.240   3.106
49391W        W17785  10.434  42.490  13.496
49392W        W17786  12.825  10.913   4.584
49393W        W17787  23.078  38.601  10.581
49394W        W17788  29.622  44.724   0.833
49395W        W17789  32.863  38.440  12.043
49396W        W17790  12.962  42.356   0.593
49397W        W17791  25.425  42.781  14.800
49398W        W17792  12.243  16.907  14.073
49399W        W17793  15.208  44.078  12.015
49400W        W17794  28.174  38.819   3.778
49401W        W17795   6.262  29.914  10.522
49402W        W17796  13.028   6.876  10.950
49403W        W17797  14.291  22.240  12.439
49404W        W17798  29.765  19.179  12.447
49405W        W17799  39.398   0.377  14.302
49406W        W17800  21.414  23.716   3.201
49407W        W17801   0.274  16.866  12.590
49408W        W17802  13.693  26.691   2.772
49409W        W17803  23.812  10.647   4.909
49410W        W17804   1.358   1.246  13.838
49411W        W17805   2.042  23.126   4.899
49412W        W17806  28.451  32.518   3.381
49413W        W17807   6.875  22.140   1.257
49414W        W17808   5.800   5.937  12.070
49415W        W17809  32.153  11.253  14.494
49416W        W17810  31.558  29.398   3.737
49417W        W17811  24.080   0.208   2.381
49418W        W17812  20.808  29.193  10.745
49419W        W17813  22.253   3.846  12.896
49420W        W17814  27.227  28.622   2.667
49421W        W17815   2.840   1.784   3.140
49422W        W17816   5.864  12.094   0.312
49423W        W17817  32.504   1.839   1.307
49424W        W17818  39.846  44.963   3.107
49425W        W17819  16.108  13.093   0.270
49426W        W17820  30.172  17.049   3.267
49427W        W17821  36.467  31.504  13.427
49428W        W17822  13.665  23.744   1.906
49429W        W17823   7.218  20.714  12.517
49430W        W17824   7.812  11.293  14.036
49431W        W17825  32.721  41.945   1.408
49432W        W17826  31.974   6.675  14.599
49433W        W17827  31.401   1.207  12.501
49434W        W17828  12.502   5.285  10.083
49435W        W17829  20.657  33.004   0.154
49436W        W17830  30.972  29.648  12.824
49437W        W17831   9.910  12.354   4.031
49438W        W17832  38.849  37.578   0.929
49439W        W17833   6.941   6.287   1.717
49440W        W17834  43.475   7.639   2.822
49441W        W17835   6.792  41.017   2.774
49442W        W17836  22.411  42.768  13.397
49443W        W17837  26.071   9.237  11.192
49444W        W17838  42.737  32.093  14.964
49445W        W17839  11.581  23.530   3.599
49446W        W17840   5.193   0.863   2.214
49447W        W17841  36.630  43.025   2.816
49448W        W17842  18.394  22.489   2.118
49449W        W17843  41.402  42.032   2.244
49450W        W17844  17.606   3.458  14.441
49451W        W17845  30.613  11.154   1.346
49452W        W17846  11.374  31.557  12.454
49453W        W17847  22.574  42.694  11.749
49454W        W17848  30.987  26.436   4.029
49455W        W17849  15.762  30.388  14.786
49456W        W17850  27.373   2.584   4.703
49457W        W17851  25.723   2.487  14.424
49458W        W17852  16.691  43.895  11.137
49459W        W17853  42.299   9.274   3.770
49460W        W17854  18.076  15.054  12.576
49461W        W17855  14.412  38.061   4.925
49462W        W17856   7.740   9.209  14.093
49463W        W17857  22.623  32.551   1.832
49464W        W17858  22.822  44.028  13.925
49465W        W17859  38.338  43.535   0.045
49466W        W17860  19.599  26.445  11.617
49467W        W17861  37.896   5.121  12.020
49468W        W17862  11.400  42.036  10.710
49469W        W17863  13.222  35.937  13.490
49470W        W17864  25.634  43.466   0.420
49471W        W17865   5.461   0.373   2.270
49472W        W17866  18.663  23.334   1.980
49473W        W17867  32.587  20.473   2.823
49474W        W17868  20.614   5.123  13.996
49475W        W17869  21.995  15.419  12.559
49476W        W17870  42.673  26.214  12.458
49477W        W17871  24.637  21.552  14.329
49478W        W17872  10.228   7.375  14.901
49479W        W17873  14.699  36.012  10.762
49480W        W17874  15.572  42.425  12.970
49481W        W17875  29.546   5.310  13.578
49482W        W17876   1.882  20.260  11.498
49483W        W17877  22.112   3.950  13.895
49484W        W17878  22.049  14.764   0.774
49485W        W17879  41.487  39.422  11.193
49486W        W17880  38.370  17.637  13.309
49487W        W17881  16.085  40.501  12.703
49488W        W17882  43.434   6.695   4.694
49489W        W17883  43.459  25.035  13.974
49490W        W17884  28.918  13.001   1.906
49491W        W17885   8.770  33.551   4.028
49492W        W17886  36.555  16.148  14.012
49493W        W17887  30.635  40.394  13.473
49494W        W17888  13.283  39.689  10.144
49495W        W17889  29.394   2.020   4.566
49496W        W17890  36.928   7.703   4.865
49497W        W17891  26.530   3.413  11.222
49498W        W17892   0.739  33.899   1.371
49499W        W17893  20.140   8.751   0.893
49500W        W17894  18.078  28.295   0.807
49501W        W17895  14.727  14.663   1.021
49502W        W17896  14.136  15.082  10.698
49503W        W17897  35.840   5.493   0.863
49504W        W17898  24.712   1.919  11.630
49505W        W17899  30.157  17.575   3.256
49506W        W17900   9.760  36.860   1.587
49507W        W17901  21.175   1.411  13.371
49508W        W17902  39.541  31.464   2.000
49509W        W17903  11.137   5.883  14.953
49510W        W17904  28.530  31.459   3.323
49511W        W17905  40.507  25.587   1.893
49512W        W17906   6.224  42.357   3.148
49513W        W17907  37.480  14.649  13.150
49514W        W17908  11.643  37.012   1.751
49515W        W17909  26.262  34.371   3.656
49516W        W17910  40.587   6.973  12.598
49517W        W17911  25.663  42.747   0.264
49518W        W17912   3.895   5.045   1.746
49519W        W17913  34.390  44.844  12.533
49520W        W17914  11.855  22.822  14.735
49521W        W17915  34.459  22.630   4.545
49522W        W17916  43.446  18.887   0.391
49523W        W17917  43.976  16.155   3.924
49524W        W17918   6.562   5.919  13.034
49525W        W17919  40.535   0.217  14.987
49526W        W17920   9.441  27.364  13.001
49527W        W17921  35.441   6.428   5.272
49528W        W17922  19.516  25.137   9.899
49529W        W17923  35.988  32.542   0.196
49530W        W17924  29.052  36.601  12.030
49531W        W17925  13.342   3.741   4.135
49532W        W17926  20.536  38.032   3.275
49533W        W17927  14.201  29.990  11.875
49534W        W17928   0.720  33.556   0.289
49535W        W17929   1.198   4.067   2.688
49536W        W17930  42.807  15.593  12.524
49537W        W17931   4.430  32.918   3.828
49538W        W17932  36.029  24.799  12.989
49539W        W17933  31.503   3.954  11.123
49540W        W17934  38.669  19.728   1.934
49541W        W17935   7.856  43.017  10.332
49542W        W17936  44.379  11.669   1.965
49543W        W17937   4.216  19.006  13.956
49544W        W17938  16.656  18.236   4.332
49545W        W17939  23.621  21.808  12.199
49546W        W17940   6.579  19.047  11.141
49547W        W17941  40.068  43.230  11.991
49548W        W17942   5.500   2.734   1.772
49549W        W17943  20.102  37.872  13.053
49550W        W17944  38.464   2.389  13.579
49551W        W17945  38.557  14.213   3.959
49552W        W17946  30.827  29.147   2.787
49553W        W17947   9.673  36.019   0.199
49554W        W17948   6.286  13.436  14.833
49555W        W17949  44.765  38.906   2.899
49556W        W17950  18.964  26.675   3.689
49557W        W17951  14.207  28.354   3.707
49558W        W17952  34.865  20.079  13.378
49559W        W17953  13.804  17.368  13.266
49560W        W17954  22.272  26.374  14.326
49561W        W17955   9.309  24.966  14.866
49562W        W17956  34.039  26.057   4.647
49563W        W17957   9.265  10.928   3.085
49564W        W17958  44.549   8.721   9.730
49565W        W17959   4.174  41.798  14.410
49566W        W17960  42.027  30.383  12.206
49567W        W17961  24.368  13.300  12.574
49568W        W17962  13.961  17.678   4.328
49569W        W17963   9.714  11.641  14.963
49570W        W17964  37.459   0.889  11.612
49571W        W17965  44.041  34.628   0.344
49572W        W17966   8.060   2.225  14.352
49573W        W17967   4.218  12.857   2.792
49574W        W17968   0.409  22.749  11.578
49575W        W17969  15.214  20.735   3.356
49576W        W17970  26.436  34.423   2.742
49577W        W17971  31.610  38.425   3.388
49578W        W17972  22.947  41.912   4.582
49579W        W17973  44.823  33.621   2.055
49580W        W17974  43.508   6.239   2.261
49581W        W17975  30.121  44.725   4.600
49582W        W17976   7.816   5.866   3.634
49583W        W17977   0.141  44.869   1.436
49584W        W17978  42.849  40.095  10.103
49585W        W17979  37.150  23.715  13.889
49586W        W17980  14.189   4.707  13.553
49587W        W17981  21.608  13.621   3.836
49588W        W17982  28.157  22.996   0.061
49589W        W17983  27.861  33.124   2.266
49590W        W17984   1.223   7.115  14.329
49591W        W17985  38.995  18.737   0.918
49592W        W17986   5.767  29.890   2.311
49593W        W17987  12.153  38.959   3.820
49594W        W17988   2.794  40.134   0.361
49595W        W17989  41.251  29.527   4.141
49596W        W17990   9.681  17.857  11.737
49597W        W17991  16.957   1.456  11.817
49598W        W17992  18.583  18.306  11.159
49599W        W17993  16.698  43.635  13.612
49600W        W17994  21.276  42.091   1.816
49601W        W17995   0.727  31.654   1.737
49602W        W17996  24.531  29.431   4.131
49603W        W17997   1.398  27.521  12.274
49604W        W17998  21.834  32.972   4.757
49605W        W17999  18.810  25.546  12.497
49606W        W18000   4.959  38.127  11.106
49607W        W18001   8.374  32.464  13.027
49608W        W18002   7.237  42.872  11.991
49609W        W18003   3.222  36.060  10.787
49610W        W18004  13.061   6.946   3.612
49611W        W18005  13.779  14.155  12.511
49612W        W18006  18.109  20.069   1.157
49613W        W18007  11.076   1.414   2.885
49614W        W18008  21.517  22.403   1.815
49615W        W18009  17.880  26.870   1.773
49616W        W18010  33.581   2.155  12.788
49617W        W18011  15.070   1.651  12.968
49618W        W18012   6.703  27.465   2.655
49619W        W18013  24.010  36.792  13.865
49620W        W18014  11.738  42.377  12.462
49621W        W18015  20.665  40.949  11.552
49622W        W18016  33.645  26.522  11.990
49623W        W18017  34.611   7.883  11.196
49624W        W18018  28.463  38.987  10.711
49625W        W18019  30.600  15.809   5.082
49626W        W18020  44.904  22.150  13.792
49627W        W18021  11.458  37.944   0.972
49628W        W18022  37.501  19.747   2.581
49629W        W18023  29.690  22.796   0.956
49630W        W18024  26.264  35.624   3.460
49631W        W18025  30.536  37.912  14.032
49632W        W18026  33.491  24.771   0.444
49633W        W18027  14.910  40.386   2.750
49634W        W18028  39.440   7.751   1.375
49635W        W18029  11.146  35.604  12.209
49636W        W18030  35.424   0.477  14.416
49637W        W18031  44.758  21.608  11.885
49638W        W18032  19.097  19.125   2.914
49639W        W18033   1.203  17.073  10.470
49640W        W18034  30.614   3.694   3.814
49641W        W18035  27.686  23.320   2.293
49642W        W18036  14.189  28.702  11.498
49643W        W18037  36.169  24.727   1.388
49644W        W18038  21.880  14.066  12.155
49645W        W18039  31.628  13.569   1.979
49646W        W18040  10.126   4.883  13.229
49647W        W18041  25.753  37.903  13.432
49648W        W18042  23.262  14.711  11.085
49649W        W18043   3.931  37.943   1.034
49650W        W18044  42.509  41.283  13.305
49651W        W18045  44.531   0.211   4.263
49652W        W18046  18.587   9.989  12.163
49653W        W18047  36.067   7.952  14.383
49654W        W18048  23.738   6.373   4.751
49655W        W18049  36.850   7.001  11.477
49656W        W18050   0.408   4.035  14.050
49657W        W18051  41.040   6.465  14.879
49658W        W18052  16.180  19.670   2.105
49659W        W18053   6.599   9.827   0.790
49660W        W18054  22.488   2.516  10.517
49661W        W18055  35.944  13.390  14.775
49662W        W18056  19.866  15.053   1.272
49663W        W18057  19.672   3.998  12.215
49664W        W18058  37.542  25.606   3.732
49665W        W18059  35.132  22.265  12.231
49666W        W18060  22.551  20.783  11.196
49667W        W18061   2.993  10.274   0.239
49668W        W18062  21.036  34.294   2.753
49669W        W18063  44.076  19.172  14.562
49670W        W18064   1.577  36.994  14.402
49671W        W18065   3.768  37.783  14.256
49672W        W18066  10.170  31.130   2.242
49673W        W18067  42.308  43.234  14.591
49674W        W18068   7.544  17.868  14.817
49675W        W18069  36.880  26.510   4.776
49676W        W18070  24.529  21.785   4.032
49677W        W18071  20.676   1.342  10.771
49678W        W18072  42.940   5.389   4.283
49679W        W18073  19.471  34.235  12.066
49680W        W18074  43.764   4.941  11.805
49681W        W18075  36.606  16.766  11.536
49682W        W18076  16.581  10.239  10.835
49683W        W18077  34.884  44.738   2.348
49684W        W18078  23.233   3.437   3.722
49685W        W18079   8.776  24.935  12.983
49686W        W18080  34.024  22.911  14.386
49687W        W18081   3.378  12.416  13.917
49688W        W18082  26.035  34.524   0.883
49689W        W18083   1.055  28.022  10.242
49690W        W18084  42.587   1.324  14.408
49691W        W18085   9.131  30.578   3.623
49692W        W18086   9.284   5.683   4.530
49693W        W18087  15.045  34.437  10.560
49694W        W18088  11.311   6.942   4.061
49695W        W18089  19.847  20.455   2.701
49696W        W18090   3.877  41.955  14.905
49697W        W18091  27.183  15.107  14.421
49698W        W18092  29.892  15.014  14.237
49699W        W18093  21.080  13.426   5.089
49700W        W18094  24.614  31.201  14.608
49701W        W18095  43.776   0.058  14.744
49702W        W18096   1.413  14.813   0.941
49703W        W18097  36.692  14.290   4.536
49704W        W18098  18.729  21.928   2.755
49705W        W18099   7.670  37.519   4.618
49706W        W18100   4.099  22.728  14.894
49707W        W18101   6.364  32.517  13.024
49708W        W18102  32.658  22.231   3.327
49709W        W18103  21.262  41.913   3.031
49710W        W18104  22.097  21.686  10.630
49711W        W18105  37.779   5.738   3.641
49712W        W18106  10.473   7.669  10.942
49713W        W18107  16.434  26.855  10.945
49714W        W18108  25.215  12.738  14.658
49715W        W18109  17.771  10.871  13.156
49716W        W18110  39.443  19.811  13.070
49717W        W18111  36.740  13.213  12.514
49718W        W18112  24.416   2.205   1.766
49719W        W18113  22.654   4.216   0.444
49720W        W18114  15.558   8.514   1.803
49721W        W18115  40.966  23.186  10.744
49722W        W18116   0.646   1.476  11.583
49723W        W18117  28.475   5.344  11.627
49724W        W18118  29.395  23.772   1.848
49725W        W18119  15.245  24.978  11.084
49726W        W18120   4.694   1.062   2.511
49727W        W18121   8.495  26.060  11.652
49728W        W18122  33.868  24.085  11.168
49729W        W18123  35.055  17.146   3.591
49730W        W18124  32.903   2.302   0.240
49731W        W18125  17.248  36.181   3.822
49732W        W18126  28.528  35.981  12.985
49733W        W18127  21.053  44.261   2.353
49734W        W18128  33.462  14.349  14.082
49735W        W18129  10.120  27.978  12.121
49736W        W18130  11.071   4.491   1.792
49737W        W18131  25.461  17.049  14.359
49738W        W18132  17.783  37.400  12.644
49739W        W18133  23.654  40.380  12.515
49740W        W18134  37.252  41.480   1.702
49741W        W18135   8.269   5.030   2.095
49742W        W18136  39.803  11.908   4.533
49743W        W18137  25.750  11.106   3.719
49744W        W18138   3.291   7.171   0.719
49745W        W18139  21.681  21.404  11.583
49746W        W18140   0.092   2.750   0.480
49747W        W18141  21.579  11.925  12.877
49748W        W18142  16.691  19.639   3.219
49749W        W18143   7.305  26.464   1.007
49750W        W18144  30.877  31.560  12.134
49751W        W18145  13.796  18.780  11.131
49752W        W18146   5.461   9.688   4.021
49753W        W18147  17.637  39.309   2.624
49754W        W18148   8.470  13.381   3.211
49755W        W18149  14.758  36.039   2.187
49756W        W18150  32.134  23.662   4.086
49757W        W18151  32.171   7.565   4.809
49758W        W18152  14.825  29.951   3.535
49759W        W18153   9.376  15.033   4.106
49760W        W18154  34.212   9.556  14.475
49761W        W18155  39.287  19.174  10.883
49762W        W18156  26.452  31.640   0.221
49763W        W18157  42.476   2.660  12.483
49764W        W18158  35.882  36.552  14.873
49765W        W18159  30.977  37.157  14.791
49766W        W18160  10.199  39.006   2.201
49767W        W18161   2.909  27.893   4.226
49768W        W18162  18.521  42.467  13.905
49769W        W18163  26.149  34.625  14.973
49770W        W18164  15.902   1.993  11.294
49771W        W18165  22.699  15.203   4.184
49772W        W18166  15.565  25.423   2.216
49773W        W18167   2.873   1.927  10.891
49774W        W18168   2.251  27.475   3.596
49775W        W18169   3.293   0.388  13.060
49776W        W18170  24.659  11.552   0.812
49777W        W18171  16.847  30.369   4.705
49778W        W18172  25.000  20.208   4.552
49779W        W18173  39.058  37.803   3.631
49780W        W18174  17.718   4.535   0.616
49781W        W18175  19.496   4.434  10.394
49782W        W18176  19.666  17.039   1.885
49783W        W18177  35.416  39.967  13.312
49784W        W18178  39.998  38.838   1.729
49785W        W18179  22.549  16.914  13.463
49786W        W18180  43.503  32.834   4.149
49787W        W18181  36.465   5.857   4.677
49788W        W18182   7.493   7.695   3.463
49789W        W18183  16.078  18.094   1.289
49790W        W18184  33.342  13.292  14.780
49791W        W18185  30.702  20.674   4.839
49792W        W18186  44.810  31.474  12.422
49793W        W18187  38.975  11.386   0.801
49794W        W18188  19.087   3.790   2.397
49795W        W18189  18.047   7.937  11.645
49796W        W18190   4.932  27.801   2.813
49797W        W18191   6.009  25.682  10.954
49798W        W18192  18.585  23.097  14.756
49799W        W18193  13.661  10.097   0.860
49800W        W18194  20.965   9.279  11.202
49801W        W18195  27.620  30.183  14.411
49802W        W18196  30.823   9.816  11.905
49803W        W18197  10.634  21.746   4.738
49804W        W18198  26.684  38.383   1.755
49805W        W18199  34.001  24.086  14.450
49806W        W18200  10.188  16.241   1.748
49807W        W18201   9.358  17.695   2.404
49808W        W18202  40.279  24.296   2.107
49809W        W18203  30.177  39.489   2.908
49810W        W18204  43.393  41.007  12.394
49811W        W18205  10.835  14.617   0.746
49812W        W18206   8.200  13.199  13.561
49813W        W18207  20.087  23.544  14.817
49814W        W18208  38.011  27.605  13.411
49815W        W18209  19.834  14.111   4.768
49816W        W18210   9.573  30.071   0.774
49817W        W18211  29.720  10.530  13.461
49818W        W18212  22.062  22.500   1.373
49819W        W18213  14.092  22.782  11.639
49820W        W18214  20.008  31.577  11.692
49821W        W18215  11.780  10.122   4.099
49822W        W18216  32.583  22.553  11.928
49823W        W18217   2.314  21.069  13.094
49824W        W18218  20.540   2.067   1.810
49825W        W18219  36.748  30.482   3.413
49826W        W18220  13.180   1.304  11.172
49827W        W18221  36.284  39.387  10.867
49828W        W18222   6.181  44.472  11.559
49829W        W18223  10.240  30.928   1.190
49830W        W18224   0.716   4.950  10.141
49831W        W18225  38.010  43.400   2.341
49832W        W18226  42.077  24.071  14.854
49833W        W18227  32.966   6.919  11.587
49834W        W18228  17.996  20.123  11.166
49835W        W18229   3.682  33.117  14.839
49836W        W18230   3.260   4.421   1.827
49837W        W18231  25.231  21.597   0.750
49838W        W18232   7.926  21.920  11.175
49839W        W18233   3.580   8.848  10.398
49840W        W18234  22.162  37.394   9.868
49841W        W18235  22.933  23.596  14.670
49842W        W18236  11.366   9.440  12.016
49843W        W18237  14.675  24.607   2.757
49844W        W18238  35.592   0.246  13.942
49845W        W18239  37.610  13.592   3.920
49846W        W18240  12.334  16.692   1.538
49847W        W18241  38.995   4.687   2.624
49848W        W18242  31.538  23.205   3.099
49849W        W18243  30.566  36.392   0.924
49850W        W18244  12.076   2.953  14.321
49851W        W18245   4.331  16.260   5.091
49852W        W18246   0.332  30.587  12.452
49853W        W18247   8.312  28.080   0.261
49854W        W18248  35.618  23.197   0.943
49855W        W18249   0.588  31.972   2.177
49856W        W18250  42.254  28.117   1.348
49857W        W18251  13.925  43.256  14.398
49858W        W18252  16.306  39.447  11.149
49859W        W18253  14.440  31.192   1.432
49860W        W18254  40.401   7.309   4.850
49861W        W18255  32.509  29.662  14.936
49862W        W18256   4.356   0.370   3.121
49863W        W18257  16.624  28.758  12.563
49864W        W18258   7.782  30.726  14.782
49865W        W18259  40.775  37.480   2.767
49866W        W18260   4.422  25.340   5.609
49867W        W18261  36.925  35.752  13.882
49868W        W18262  39.317   6.278  12.566
49869W        W18263  34.225  14.353  14.818
49870W        W18264  15.108  16.292  14.333
49871W        W18265  35.953  22.916  11.181
49872W        W18266  21.539   1.338  13.006
49873W        W18267  10.324  34.700   1.873
49874W        W18268  43.252  14.703  11.765
49875W        W18269  14.805   4.026   2.881
49876W        W18270  33.418   2.438   5.075
49877W        W18271  21.012  27.801  13.455
49878W        W18272  22.252  43.064   2.825
49879W        W18273  10.537  39.245  14.735
49880W        W18274  24.625   9.013   9.946
49881W        W18275  26.007  11.103  12.959
49882W        W18276  14.523  15.200   1.174
49883W        W18277  39.918  22.326  11.200
49884W        W18278  21.621  10.572  11.027
49885W        W18279  19.125  14.729  11.706
49886W        W18280  44.381  15.331   0.415
49887W        W18281   4.104  15.741  10.257
49888W        W18282  19.357  41.870  14.930
49889W        W18283  16.301  24.596   3.695
49890W        W18284  27.631  25.998  11.851
49891W        W18285  40.158   9.038   1.905
49892W        W18286  35.541   2.926   3.649
49893W        W18287   7.213  43.474  11.495
49894W        W18288  39.428  39.649   3.066
49895W        W18289  28.615  44.145  13.859
49896W        W18290  35.131  44.403  11.177
49897W        W18291  29.738  29.421  10.764
49898W        W18292   6.105  39.370  12.400
49899W        W18293   8.350  44.060   1.687
49900W        W18294  40.094   9.580   4.480
49901W        W18295  24.225   4.362  14.533
49902W        W18296  28.662  38.087   0.970
49903W        W18297  17.380  35.417  11.177
49904W        W18298  21.335  36.713   5.249
49905W        W18299   9.965   0.389  13.416
49906W        W18300   4.151   7.977  13.786
49907W        W18301  14.566   4.222   4.718
49908W        W18302  20.346   8.176   2.146
49909W        W18303  41.488  16.838   4.539
49910W        W18304   0.396  30.336   1.692
49911W        W18305   4.203   0.962   3.748
49912W        W18306  30.213  40.365  12.607
49913W        W18307  32.226  26.548   3.625
49914W        W18308   8.950  17.025   2.546
49915W        W18309  40.941  37.818   3.918
49916W        W18310  32.037  33.845  13.326
49917W        W18311   7.966  32.853   3.143
49918W        W18312  31.446   2.946   1.449
49919W        W18313  21.477  14.818   3.352
49920W        W18314  10.440  21.350   5.054
49921W        W18315  35.645   2.695  13.013
49922W        W18316  10.118   1.473  10.641
49923W        W18317  10.163  26.985  12.172
49924W        W18318  25.670  12.057  11.696
49925W        W18319  10.242  20.624   0.281
49926W        W18320  22.029   3.034   1.298
49927W        W18321  16.508   4.294   3.728
49928W        W18322   3.480  29.904   3.724
49929W        W18323  41.112  39.891   1.963
49930W        W18324   6.636   2.638  10.072
49931W        W18325  13.739  23.228   1.875
49932W        W18326   3.727  42.120   3.048
49933W        W18327   9.297  15.493   2.348
49934W        W18328  44.353  42.387   3.700
49935W        W18329   4.734   5.974   0.877
49936W        W18330   3.044  40.840   2.750
49937W        W18331  26.870  12.508   2.070
49938W        W18332  15.056  18.714  11.017
49939W        W18333   2.783  10.088   1.728
49940W        W18334  41.743  14.674   4.180
49941W        W18335  19.594  38.576  12.072
49942W        W18336  41.746  26.050  13.335
49943W        W18337   2.187  27.873   0.381
49944W        W18338  23.382   9.331   2.180
49945W        W18339   1.775  35.925  11.679
49946W        W18340  43.958  30.125  12.893
49947W        W18341   9.309  18.571   2.080
49948W        W18342   5.807   2.303   4.132
49949W        W18343  44.381  21.609  11.536
49950W        W18344  43.791  11.238   1.236
49951W        W18345  15.182  39.131  12.041
49952W        W18346  36.991  32.714  12.959
49953W        W18347  20.370  26.022   4.095
49954W        W18348  34.496  35.883   2.007
49955W        W18349  26.595  10.765   1.942
49956W        W18350  23.581  34.067  14.389
49957W        W18351  16.787   4.345  11.994
49958W        W18352  21.523  35.791  11.682
49959W        W18353   1.961  18.721  13.027
49960W        W18354   1.838  34.439  12.601
49961W        W18355  43.355  16.165   4.566
49962W        W18356  37.447   4.883  13.406
49963W        W18357  13.266  32.127   0.362
49964W        W18358  20.973   4.707   4.107
49965W        W18359  29.666  42.431  14.404
49966W        W18360   9.970  26.659   3.432
49967W        W18361  22.081  40.521   0.832
49968W        W18362  28.478  43.723  11.271
49969W        W18363   7.827   8.213  11.569
49970W        W18364   8.243  28.480  12.659
49971W        W18365  10.728  22.007  12.278
49972W        W18366  34.276  12.547   4.119
49973W        W18367  19.500  38.883   2.307
49974W        W18368  35.096  21.988   4.201
49975W        W18369  38.802  42.922   1.688
49976W        W18370  11.926  34.743  12.036
49977W        W18371  10.236  25.751   1.897
49978W        W18372  16.341   5.688   3.564
49979W        W18373  13.294  17.784  13.939
49980W        W18374  10.746   9.821  14.569
49981W        W18375  33.623  25.995   2.652
49982W        W18376   1.793  18.866  14.038
49983W        W18377   4.368  43.974  11.742
49984W        W18378  36.373  17.260  14.935
49985W        W18379  32.949  41.944   0.952
49986W        W18380  38.406  14.556  13.178
49987W        W18381  35.349   5.302   0.827
49988W        W18382   6.100  29.454   4.533
49989W        W18383  11.286  32.791  13.810
49990W        W18384  10.882   1.925   2.267
49991W        W18385  37.986  34.988   1.320
49992W        W18386  24.017  14.268   0.436
49993W        W18387  24.070  27.352  13.294
49994W        W18388  37.025  29.125   3.883
49995W        W18389  22.861  14.891  12.997
49996W        W18390  40.969  21.072  14.761
49997W        W18391  19.231  40.030   5.016
49998W        W18392  31.699   1.495   0.762
49999W        W18393  23.027  18.144  10.722
50000W        W18394  38.082  39.872  12.495
50001W        W18395  16.753  23.124  14.255
50002W        W18396  18.756  11.535  14.491
50003W        W18397  12.087  44.621  10.926
50004W        W18398  37.491  24.031   1.459
50005W        W18399  34.929  17.067   2.611
50006W        W18400  19.502   1.203  13.087
50007W        W18401   5.759  32.407   1.209
50008W        W18402  25.159  44.928   1.634
50009W        W18403  29.114   0.428  11.234
50010W        W18404  13.375  10.311   0.481
50011W        W18405   8.836  39.026   4.595
50012W        W18406  12.414   1.415   4.171
50013W        W18407  37.889  22.742   3.894
50014W        W18408  30.655   1.358  11.617
50015W        W18409  14.166  31.626   1.318
50016W        W18410   9.877  41.787   1.540
50017W        W18411  20.052  34.443  11.214
50018W        W18412  30.261   0.598   3.679
50019W        W18413   5.890  13.133   2.176
50020W        W18414  34.467  26.595   4.054
50021W        W18415  37.041  24.138   1.714
50022W        W18416  34.121  35.585   4.014
50023W        W18417  31.240  40.545   0.861
50024W        W18418   6.959  24.226  13.980
50025W        W18419  27.427  29.653   0.947
50026W        W18420   3.491  30.503  10.724
50027W        W18421  33.079   5.643   3.213
50028W        W18422  41.471  18.691   2.384
50029W        W18423  19.365  30.692   2.651
50030W        W18424  20.925   9.570  11.624
50031W        W18425   9.109  13.294  14.820
50032W        W18426  20.461  44.549   3.140
50033W        W18427   7.264  22.684  12.031
50034W        W18428  42.121   2.665   0.390
50035W        W18429  33.694  24.023  11.651
50036W        W18430  34.444  33.405   4.237
50037W        W18431  39.486  10.098  12.091
50038W        W18432  24.100  44.126  12.422
50039W        W18433  24.096  36.274  13.767
50040W        W18434  16.348  15.203  11.227
50041W        W18435  21.173  24.181  11.612
50042W        W18436  37.524   5.737   1.835
50043W        W18437  21.992  20.319   2.875
50044W        W18438   1.878  27.923   2.171
50045W        W18439  12.510  44.268  11.699
50046W        W18440  39.271  41.163   3.649
50047W        W18441  17.613  38.190   4.793
50048W        W18442   0.761  17.157  11.663
50049W        W18443  28.525   9.136   4.234
50050W        W18444   1.786  26.507   0.978
50051W        W18445   8.482  27.036   2.965
50052W        W18446  30.450  10.104   4.220
50053W        W18447   5.190  11.076  14.583
50054W        W18448  10.695  40.072   0.224
50055W        W18449  27.273  14.064  12.752
50056W        W18450  20.575  22.260   4.757
50057W        W18451  29.165  39.497  13.114
50058W        W18452  26.047  22.057  11.414
50059W        W18453  23.611  29.465   2.912
50060W        W18454  23.054  44.926   1.124
50061W        W18455  29.672  24.926   2.384
50062W        W18456  44.789  35.853   3.219
50063W        W18457  20.633  36.773   0.028
50064W        W18458   6.707  32.705   2.755
50065W        W18459  30.921  44.125   3.673
50066W        W18460  15.645  35.415   4.093
50067W        W18461  18.338   5.254  14.044
50068W        W18462  24.546  13.246   1.144
50069W        W18463  44.954  43.030  12.509
50070W        W18464  13.318  18.608  11.051
50071W        W18465  44.364  35.238  10.530
50072W        W18466  31.887  30.082   2.836
50073W        W18467   5.674  13.592  13.149
50074W        W18468  44.302  44.848  11.255
50075W        W18469  11.580  14.977   0.522
50076W        W18470   4.505  20.038   3.583
50077W        W18471  35.831  35.538  14.121
50078W        W18472   1.672  31.002  11.083
50079W        W18473  14.084  24.773   3.698
50080W        W18474  13.130  41.985   4.538
50081W        W18475  38.986  23.437  13.386
50082W        W18476  41.501   4.729  12.322
50083W        W18477  35.028   1.800  11.364
50084W        W18478  26.204  19.082   0.454
50085W        W18479   2.501  41.903   0.718
50086W        W18480  28.671  18.259  11.748
50087W        W18481  32.132  36.896  13.492
50088W        W18482  28.136  31.389   0.351
50089W        W18483   0.491  29.492   4.572
50090W        W18484  37.227   6.735   4.439
50091W        W18485  18.998  23.621   2.685
50092W        W18486   0.249  11.605   0.230
50093W        W18487  15.154  43.971   2.457
50094W        W18488  14.299  34.593   3.813
50095W        W18489  25.040  20.242  12.507
50096W        W18490  36.348  20.972  14.457
50097W        W18491   4.413  31.481   0.276
50098W        W18492  21.335  41.841  13.501
50099W        W18493  43.775  35.399  12.103
50100W        W18494  26.108   3.848   3.247
50101W        W18495  15.526   0.276  14.590
50102W        W18496  38.976  14.725   2.174
50103W        W18497  29.685  44.982   3.290
50104W        W18498   3.720  44.787   3.607
50105W        W18499  17.514   1.480  11.964
50106W        W18500  36.081  37.566   4.691
50107W        W18501  28.523  25.798   4.504
50108W        W18502   9.266  33.566   2.757
50109W        W18503  32.033   3.239   2.822
50110W        W18504   4.913  28.437   4.729
50111W        W18505  10.873   7.631   3.448
50112W        W18506   1.657  19.576   0.797
50113W        W18507  42.845   6.686   4.986
50114W        W18508  32.916  42.720   1.897
50115W        W18509   4.361  11.255  12.992
50116W        W18510  34.678   7.802   4.104
50117W        W18511  12.183  39.379  14.046
50118W        W18512  31.406   7.142  12.912
50119W        W18513  36.441  30.920   3.356
50120W        W18514  28.666  36.384   1.757
50121W        W18515  27.068  43.305   0.526
50122W        W18516  39.857  34.030   1.841
50123W        W18517  37.130  33.554  14.256
50124W        W18518  37.841  23.716  14.800
50125W        W18519  42.456  37.805  12.922
50126W        W18520  12.840   2.876   3.774
50127W        W18521  28.194  24.726   1.571
50128W        W18522  16.011  26.829  14.954
50129W        W18523  41.037   6.591  11.433
50130W        W18524  38.521  34.798  14.425
50131W        W18525   7.859  13.012  11.159
50132W        W18526  24.757  44.980  12.061
50133W        W18527  18.827  30.175   3.703
50134W        W18528   5.373  21.461   1.851
50135W        W18529  14.601  24.705   3.622
50136W        W18530  10.544  14.190   0.830
50137W        W18531  23.881  36.491   4.211
50138W        W18532  42.776  43.295  11.584
50139W        W18533  33.600  36.873   4.614
50140W        W18534   5.952  20.082   2.863
50141W        W18535  28.680  38.099   1.862
50142W        W18536  14.815   1.975   3.267
50143W        W18537   8.652  37.171   2.362
50144W        W18538  19.339  41.503   3.176
50145W        W18539  34.355  22.610  12.050
50146W        W18540   1.294  36.005  11.918
50147W        W18541  20.435  20.581   0.770
50148W        W18542  12.863   5.846   2.827
50149W        W18543  17.224  32.277  14.851
50150W        W18544  39.201  36.498   1.216
50151W        W18545  24.986  22.548  11.189
50152W        W18546   1.832  31.151   2.730
50153W        W18547  36.846  30.639  11.725
50154W        W18548  30.736  40.462   0.792
50155W        W18549  33.203  34.628   2.141
50156W        W18550  44.281  35.589  10.929
50157W        W18551  32.343  40.585  13.788
50158W        W18552   6.647   4.217  14.492
50159W        W18553  22.191  40.147  11.051
50160W        W18554  43.694  32.111  12.719
50161W        W18555  37.980   2.239   1.956
50162W        W18556  18.171  19.603   2.628
50163W        W18557   7.724  13.316  13.363
50164W        W18558   9.789  33.184   1.426
50165W        W18559  17.229   9.557  11.988
50166W        W18560   8.299  34.358   2.232
50167W        W18561  23.023   9.667   2.333
50168W        W18562  43.956  33.659   2.804
50169W        W18563  23.020   8.345   2.268
50170W        W18564  26.138  31.844   1.932
50171W        W18565   0.849  18.902  14.776
50172W        W18566   5.176  21.283   2.281
50173W        W18567  16.740  20.031   4.546
50174W        W18568  24.582  42.234   1.756
50175W        W18569   7.873  18.630  12.675
50176W        W18570  33.913  43.985   4.678
50177W        W18571  20.759  24.537  13.309
50178W        W18572  44.483  27.785  11.029
50179W        W18573  39.393  11.665  13.872
50180W        W18574  23.597   2.296   4.886
50181W        W18575  25.419  30.577  14.876
50182W        W18576  16.570   5.144   0.529
50183W        W18577  10.763  25.789   0.388
50184W        W18578  18.850  27.045   4.540
50185W        W18579  17.619  31.925  12.165
50186W        W18580  27.502  33.345  14.045
50187W        W18581  11.361  27.207   1.252
50188W        W18582  35.402  17.660   4.567
50189W        W18583  26.253  25.152  12.489
50190W        W18584   5.331  14.833  13.467
50191W        W18585  40.820  33.082  12.810
50192W        W18586  41.605  15.082  13.364
50193W        W18587  40.806  23.682   1.938
50194W        W18588  23.071  41.748   1.551
50195W        W18589  12.627  40.052   4.574
50196W        W18590  33.357   1.480   1.383
50197W        W18591  17.711   2.925  13.979
50198W        W18592  19.623   8.623   0.835
50199W        W18593   5.277  36.369  11.140
50200W        W18594   3.453  34.952  12.138
50201W        W18595  37.325  12.110  11.787
50202W        W18596  26.079  16.392  11.878
50203W        W18597  26.203  17.326   3.786
50204W        W18598  41.087  17.831   2.597
50205W        W18599  32.588   4.648  14.059
50206W        W18600  14.206   3.186  12.641
50207W        W18601  15.465  20.501   0.163
50208W        W18602  16.266  38.535   3.124
50209W        W18603   0.702   9.021   1.013
50210W        W18604  15.613   5.011   2.149
50211W        W18605  40.465  19.921  11.903
50212W        W18606  33.638  32.533  10.812
50213W        W18607  12.778  26.887   3.752
50214W        W18608  26.212  11.124   4.168
50215W        W18609  10.658   2.232   1.317
50216W        W18610  36.386  12.706  12.664
50217W        W18611  41.426  20.820  14.735
50218W        W18612  29.861  11.121  14.948
50219W        W18613  14.089  30.669  12.617
50220W        W18614  17.656  22.643  13.994
50221W        W18615  22.979   1.419   1.259
50222W        W18616   3.734  34.421   2.826
50223W        W18617  44.733  32.503  11.922
50224W        W18618  43.448  42.821   1.901
50225W        W18619  16.283  44.262   0.402
50226W        W18620   9.769   4.555  14.829
50227W        W18621  18.761  36.060   2.350
50228W        W18622  35.637  40.629  13.982
50229W        W18623  16.197   8.172  14.436
50230W        W18624  14.336   3.205   5.083
50231W        W18625  19.983  11.567   1.623
50232W        W18626  30.029  43.812  11.200
50233W        W18627  12.701  42.148  14.823
50234W        W18628  22.195   2.943   1.888
50235W        W18629   5.165  23.597  11.099
50236W        W18630   1.080  16.063   1.641
50237W        W18631  36.800  26.774   4.257
50238W        W18632  29.763   7.287  12.576
50239W        W18633  30.444  21.062  11.643
50240W        W18634  30.988  11.707   1.977
50241W        W18635   7.197  11.990  12.499
50242W        W18636   9.629  13.656   3.609
50243W        W18637  44.759  23.845  13.069
50244W        W18638  43.853  21.561   1.537
50245W        W18639  43.836  44.552   3.960
50246W        W18640  35.141   6.826   4.587
50247W        W18641  37.567   3.971  10.770
50248W        W18642  27.739  14.145  12.013
50249W        W18643   2.275  34.434  12.282
50250W        W18644   6.438  32.449  11.638
50251W        W18645  29.883   8.707   4.232
50252W        W18646  11.552  33.968   3.419
50253W        W18647   3.279  19.536   3.323
50254W        W18648  23.698  38.778  11.529
50255W        W18649   1.251  44.877   4.057
50256W        W18650  14.167   8.167  14.412
50257W        W18651  30.250  27.129  11.991
50258W        W18652  10.163   5.596   4.942
50259W        W18653  35.138  19.641  11.366
50260W        W18654   3.943   7.676   1.655
50261W        W18655  11.751  16.775   0.716
50262W        W18656   3.447  38.589  11.232
50263W        W18657  43.587  18.196  12.091
50264W        W18658  23.228  40.507  11.643
50265W        W18659  17.489  21.770   0.396
50266W        W18660  12.821   2.437  14.992
50267W        W18661  39.599  28.727   3.871
50268W        W18662  39.005   3.001  13.970
50269W        W18663  33.618  22.632   3.736
50270W        W18664  16.042  39.935  13.545
50271W        W18665  11.599  31.098  12.497
50272W        W18666   3.489  36.057   3.147
50273W        W18667   4.903  36.385   0.969
50274W        W18668  17.498   5.754  12.136
50275W        W18669  30.986  18.232  14.336
50276W        W18670   0.127   2.244   4.239
50277W        W18671   7.897  15.308  11.088
50278W        W18672  29.650  23.755  13.348
50279W        W18673  33.648  22.166  13.098
50280W        W18674  44.237  29.737   4.541
50281W        W18675  14.331  42.545  12.358
50282W        W18676  19.744  23.078  10.892
50283W        W18677  15.257  24.425  12.519
50284W        W18678  43.343  13.092   4.267
50285W        W18679  28.449  27.997  12.682
50286W        W18680  24.333  26.450  13.438
50287W        W18681  39.621   2.269   0.579
50288W        W18682  32.598   3.424  14.285
50289W        W18683  29.127  20.480   4.861
50290W        W18684  12.186  39.041   3.290
50291W        W18685  20.287  24.671   1.872
50292W        W18686  25.129   9.866  11.131
50293W        W18687  15.639  22.286   3.682
50294W        W18688  33.439  42.012   1.908
50295W        W18689   3.985  34.186   4.113
50296W        W18690  36.083   8.763   0.041
50297W        W18691  23.678   8.888  13.244
50298W        W18692  40.021  16.149   1.230
50299W        W18693   2.743   5.355  11.666
50300W        W18694  14.620  18.106   3.457
50301W        W18695  11.679  32.569   2.213
50302W        W18696  14.019  16.949   0.255
50303W        W18697  23.123   4.467  12.176
50304W        W18698  39.949  29.554  11.424
50305W        W18699  25.772  43.273  13.471
50306W        W18700  18.656  38.607   2.250
50307W        W18701   5.835  32.109  10.696
50308W        W18702  23.517   7.734   3.660
50309W        W18703   1.303  32.962   4.537
50310W        W18704  30.762  14.700  11.212
50311W        W18705  16.803  12.980  13.021
50312W        W18706   1.776   5.427   2.696
50313W        W18707  44.457  35.944  13.117
50314W        W18708   3.063  35.558  12.173
50315W        W18709  41.125   8.522  12.883
50316W        W18710  29.887  35.809  11.102
50317W        W18711  35.382   5.804   2.183
50318W        W18712  26.988  31.865   0.329
50319W        W18713  15.687  24.765  11.289
50320W        W18714   8.100  22.359   5.031
50321W        W18715  41.805  10.800   1.346
50322W        W18716   8.155  16.518  13.283
50323W        W18717  10.103  23.689   4.489
50324W        W18718  30.999   4.854  14.532
50325W        W18719   5.484  32.096   3.350
50326W        W18720  28.904  16.293   4.670
50327W        W18721   4.385  42.895  13.479
50328W        W18722  14.512  36.915  11.450
50329W        W18723  33.448   2.054   3.166
50330W        W18724  37.870  31.092   2.629
50331W        W18725  43.904  30.567   1.896
50332W        W18726   8.082   4.918  11.042
50333W        W18727   4.602  38.908   2.137
50334W        W18728  19.763  34.541  12.973
50335W        W18729  19.557  13.647   3.157
50336W        W18730  39.348  40.183   3.080
50337W        W18731  42.354  14.555   2.182
50338W        W18732  23.200   1.655  13.986
50339W        W18733   5.902  21.033   4.859
50340W        W18734   4.814  41.783  12.903
50341W        W18735  41.001   9.313   0.513
50342W        W18736   8.390   9.609  12.058
50343W        W18737   3.001  29.025  13.295
50344W        W18738  11.291  11.791  11.124
50345W        W18739   7.255  43.443   2.665
50346W        W18740  30.227  40.448   0.696
50347W        W18741  32.916  20.927   1.492
50348W        W18742  44.221  26.823   0.087
50349W        W18743  34.441  25.610  12.294
50350W        W18744  24.735   1.486   0.412
50351W        W18745  12.298  10.622   2.248
50352W        W18746  41.604   2.667  11.533
50353W        W18747   4.519  32.051   3.708
50354W        W18748  16.530  15.677  14.332
50355W        W18749  15.333   5.392   1.665
50356W        W18750  33.331  38.550  12.978
50357W        W18751   7.415  33.330   3.282
50358W        W18752  18.681  28.491   0.385
50359W        W18753   5.341   1.747   3.875
50360W        W18754   3.834  36.519   4.346
50361W        W18755   8.963   2.450   9.730
50362W        W18756  22.559  33.859   2.196
50363W        W18757  34.829  20.903  12.526
50364W        W18758  15.593  36.812   3.048
50365W        W18759   0.987  11.618  11.196
50366W        W18760   5.735  37.451   1.300
50367W        W18761  18.199   1.957  13.358
50368W        W18762   3.915  35.036  14.001
50369W        W18763   0.257  12.310  11.489
50370W        W18764  16.153  13.902   2.390
50371W        W18765  44.998  39.059  12.911
50372W        W18766  10.568   8.475  11.675
50373W        W18767  39.942   4.511  11.694
50374W        W18768  42.934  15.305  12.055
50375W        W18769  15.598  36.455   2.655
50376W        W18770   4.093  10.740  11.734
50377W        W18771  28.962   8.744  11.146
50378W        W18772  18.657   7.371   3.933
50379W        W18773   2.472  34.650   0.364
50380W        W18774  39.061   4.232  12.602
50381W        W18775  30.397  14.224   1.405
50382W        W18776  39.367  37.496  10.885
50383W        W18777  13.088   3.202   3.179
50384W        W18778  20.062  44.279  13.368
50385W        W18779  24.098  31.906  12.041
50386W        W18780  14.278   4.393  10.273
50387W        W18781  25.228   9.364  12.471
50388W        W18782  27.374  36.499   0.376
50389W        W18783  26.604   6.543  12.025
50390W        W18784  33.660   6.214  14.888
50391W        W18785  10.928  16.351  13.919
50392W        W18786  30.050  30.059   3.360
50393W        W18787  23.561  42.033   2.157
50394W        W18788  21.696  14.527  11.969
50395W        W18789  24.489   8.356  13.767
50396W        W18790  40.910   8.600   2.332
50397W        W18791  27.736  30.132  12.944
50398W        W18792  42.809   4.700  12.055
50399W        W18793   5.843  41.397  13.773
50400W        W18794  20.407  15.303   1.250
50401W        W18795  39.082   6.483  13.704
50402W        W18796   2.245  26.057   1.486
50403W        W18797  29.096  34.117   3.710
50404W        W18798  10.177  16.530  13.417
50405W        W18799  41.525  23.072  11.973
50406W        W18800  12.463  42.930   0.011
50407W        W18801  35.130  34.638  13.595
50408W        W18802  12.911   1.150   4.193
50409W        W18803  42.899   0.892   0.039
50410W        W18804   4.398  41.673  12.145
50411W        W18805  32.531   0.978  12.588
50412W        W18806  40.275  41.216   0.355
50413W        W18807   1.836  44.547  11.998
50414W        W18808  34.307  23.101  13.082
50415W        W18809  44.683  37.030   2.532
50416W        W18810  43.454  29.691  14.447
50417W        W18811  25.849  42.959   0.695
50418W        W18812  20.426   1.031  11.538
50419W        W18813   3.296  33.441  11.108
50420W        W18814  32.518  14.644   0.438
50421W        W18815  25.675   0.828   3.126
50422W        W18816  29.759  21.590   0.090
50423W        W18817  14.086  14.753   3.294
50424W        W18818  31.646  30.502  14.254
50425W        W18819  16.292  24.006   1.759
50426W        W18820  10.188  35.770  13.318
50427W        W18821  34.028  14.316   4.827
50428W        W18822  21.858   9.323  14.067
50429W        W18823  32.853  15.819  11.629
50430W        W18824  35.086  44.868  11.602
50431W        W18825  33.312  38.421   2.751
50432W        W18826  40.264  13.710   2.657
50433W        W18827  33.912  33.006  11.456
50434W        W18828  38.147  40.354  12.588
50435W        W18829  27.110  43.745   0.845
50436W        W18830   1.924  20.592   3.640
50437W        W18831  42.775  30.924   3.885
50438W        W18832  20.565  21.678  14.265
50439W        W18833   8.310  20.986  12.422
50440W        W18834   5.259  11.078  14.060
50441W        W18835  29.789  31.608  10.735
50442W        W18836  25.766  15.684   2.282
50443W        W18837  29.477  29.904   1.413
50444W        W18838   5.491  30.903   2.319
50445W        W18839  26.038  33.169  11.021
50446W        W18840  34.201  16.570   0.240
50447W        W18841  28.967  38.744   3.342
50448W        W18842  35.368  16.757   4.650
50449W        W18843  11.079   2.755   0.676
50450W        W18844   1.008  33.866   2.830
50451W        W18845   0.143  38.120   5.057
50452W        W18846  18.980  10.985  14.925
50453W        W18847  38.020  30.549  13.812
50454W        W18848  40.715  26.352  10.344
50455W        W18849   4.541  20.221  13.765
50456W        W18850  25.079  19.728  12.425
50457W        W18851   4.737   2.892   0.028
50458W        W18852  39.242  18.070   0.311
50459W        W18853  14.104   1.267   0.213
50460W        W18854  43.988  29.040   4.211
50461W        W18855   6.218  16.643   3.728
50462W        W18856  12.911  13.317  14.809
50463W        W18857  22.145  10.761  14.836
50464W        W18858  10.688  28.652  12.709
50465W        W18859  11.090  22.286  12.585
50466W        W18860  35.013  14.511  12.508
50467W        W18861   4.135  24.992   3.189
50468W        W18862  13.630  41.932  11.202
50469W        W18863  15.104  20.639  14.825
50470W        W18864  26.033   2.423   0.770
50471W        W18865  25.568  21.785   1.355
50472W        W18866  13.066  28.775  11.090
50473W        W18867   5.639  38.914   2.131
50474W        W18868  24.620  17.500   1.042
50475W        W18869  18.560  39.884   4.197
50476W        W18870  11.372  40.904   2.890
50477W        W18871   0.375  26.988   1.278
50478W        W18872   8.663  34.580   4.157
50479W        W18873  24.354  42.880   1.865
50480W        W18874  12.115  26.991   0.833
50481W        W18875  44.687  39.601   4.043
50482W        W18876  14.409  24.692   0.440
50483W        W18877  21.013  23.606  11.983
50484W        W18878   7.220  32.594  12.854
50485W        W18879  34.713  33.431   4.660
50486W        W18880   5.742  33.286   4.527
50487W        W18881  14.794   0.956   4.374
50488W        W18882  25.227  41.764   3.236
50489W        W18883  13.247  35.138  13.792
50490W        W18884  12.814  27.582   0.046
50491W        W18885  21.685   8.388  12.238
50492W        W18886  27.065  20.631   3.131
50493W        W18887  20.583  28.721   3.729
50494W        W18888  25.066   3.378  12.454
50495W        W18889  22.581  44.692   2.461
50496W        W18890  42.531  24.076   2.378
50497W        W18891  32.926  42.398   0.649
50498W        W18892  33.559  17.122  12.506
50499W        W18893  16.669  32.418   1.991
50500W        W18894  32.944  41.280  10.810
50501W        W18895  22.456  36.628   4.139
50502W        W18896  34.860  25.545  10.724
50503W        W18897  12.787   0.016  13.314
50504W        W18898  31.682   7.739   4.742
50505W        W18899  41.874  18.709  11.665
50506W        W18900   2.052  37.989  12.843
50507W        W18901  37.129  38.771   3.218
50508W        W18902  41.487  39.994  11.187
50509W        W18903  42.906  42.577   0.970
50510W        W18904  21.056   9.644   1.346
50511W        W18905   5.647  43.965  12.075
50512W        W18906  15.208  12.187   4.150
50513W        W18907  19.148  30.466   3.454
50514W        W18908   4.727  17.260  10.459
50515W        W18909  44.766  31.540  13.404
50516W        W18910  23.933  20.181  10.592
50517W        W18911  37.254  38.688  11.557
50518W        W18912   7.782  33.832   4.194
50519W        W18913  35.413  13.200   0.995
50520W        W18914  31.342   4.448   2.663
50521W        W18915  30.475  26.096   3.683
50522W        W18916  31.574   0.482   1.353
50523W        W18917  15.337  42.994  14.888
50524W        W18918  18.289   7.143   4.188
50525W        W18919   2.461   6.187   4.575
50526W        W18920   1.889  15.399   3.686
50527W        W18921  44.361   4.057   4.414
50528W        W18922  16.850   2.463  10.600
50529W        W18923  41.310  34.930   0.782
50530W        W18924   3.254  39.130   1.863
50531W        W18925  11.130  30.476   1.642
50532W        W18926  33.108  44.779  12.924
50533W        W18927  32.586  11.269  12.116
50534W        W18928  28.263  32.601   3.949
50535W        W18929  36.898  15.350  12.914
50536W        W18930  15.269  34.428   2.654
50537W        W18931  10.367  30.596  12.167
50538W        W18932   0.645  14.603  13.967
50539W        W18933  31.923  36.049  11.895
50540W        W18934  20.680  37.067  11.190
50541W        W18935  43.817   8.419  11.141
50542W        W18936  22.365  20.819   5.010
50543W        W18937  33.863  17.093   1.415
50544W        W18938  41.307  34.944  13.079
50545W        W18939  11.631  11.717  11.919
50546W        W18940  41.352  17.606   4.059
50547W        W18941  31.155  33.079  11.608
50548W        W18942  23.620  15.483  14.383
50549W        W18943  13.317   1.206   3.060
50550W        W18944  43.573  21.727   2.180
50551W        W18945  19.741  36.326  10.227
50552W        W18946  36.172   2.911  11.484
50553W        W18947  30.797  20.035   2.512
50554W        W18948  35.666  21.063  12.028
50555W        W18949   3.481  27.153   2.334
50556W        W18950   5.636   0.904   0.092
50557W        W18951   0.094  37.416   2.184
50558W        W18952  21.202  30.950   2.668
50559W        W18953  42.347   1.865   4.402
50560W        W18954  38.495  34.855   1.234
50561W        W18955  11.631  15.844  12.018
50562W        W18956  29.722   1.252   1.331
50563W        W18957  22.769  15.739   1.335
50564W        W18958  36.047   0.864   0.485
50565W        W18959  22.746  15.265  14.197
50566W        W18960   5.800   6.064  14.410
50567W        W18961  36.213   3.197   1.101
50568W        W18962  31.405  37.459   4.650
50569W        W18963  20.264  40.631  13.447
50570W        W18964  29.061   0.637  14.316
50571W        W18965  26.072  11.688   1.190
50572W        W18966  32.522  24.981   4.359
50573W        W18967  35.050  32.583  13.855
50574W        W18968  31.983  40.455   1.885
50575W        W18969   4.768   2.782   2.821
50576W        W18970  40.252  32.642   1.367
50577W        W18971   1.976  34.525  10.715
50578W        W18972  25.456  37.101  14.926
50579W        W18973  43.366   9.766  14.341
50580W        W18974  40.521   9.839  12.574
50581W        W18975  29.780  42.833  11.673
50582W        W18976  26.268  28.420  12.118
50583W        W18977  43.894  25.570   3.225
50584W        W18978   1.210  15.846   2.709
50585W        W18979  29.694  14.294  12.020
50586W        W18980   4.383  39.028   0.361
50587W        W18981   6.700  33.302  11.148
50588W        W18982  10.103  27.650  12.524
50589W        W18983   5.612   1.377  10.710
50590W        W18984  41.961  40.016   1.641
50591W        W18985  13.252  39.284   1.291
50592W        W18986  26.147  37.352   3.870
50593W        W18987   4.858   7.636   1.648
50594W        W18988  25.492  37.983  14.879
50595W        W18989  13.979  21.382   2.706
50596W        W18990  27.023  36.924  14.799
50597W        W18991  13.281  38.924  12.880
50598W        W18992  20.281  30.184   0.721
50599W        W18993  37.931  39.899   1.643
50600W        W18994   7.722  27.090  11.562
50601W        W18995  33.131  17.590  14.003
50602W        W18996   1.242  36.898  12.144
50603W        W18997  27.051  33.924  11.147
50604W        W18998  18.110  12.283   3.817
50605W        W18999  31.887   4.295   2.280
50606W        W19000  38.081  13.660   3.719
50607W        W19001  41.893  37.400   4.222
50608W        W19002   2.442  10.105   4.275
50609W        W19003  43.755  37.076   3.579
50610W        W19004   8.961   8.310   3.220
50611W        W19005  41.733  32.337   1.627
50612W        W19006  25.718  43.591  11.227
50613W        W19007  39.477  39.690   4.088
50614W        W19008  13.817  21.492   0.250
50615W        W19009  24.354   6.739   3.629
50616W        W19010  38.058  23.207  10.334
50617W        W19011  36.844  19.603   0.024
50618W        W19012  38.667  38.649   1.407
50619W        W19013  18.272  25.552   1.732
50620W        W19014  42.568  11.964   0.850
50621W        W19015  28.125  30.159  14.629
50622W        W19016  19.886  34.538  12.151
50623W        W19017  44.542  40.825   0.229
50624W        W19018  43.340  41.827  13.492
50625W        W19019  25.207  34.934  14.957
50626W        W19020  42.881  32.510   0.963
50627W        W19021  11.739  15.436   2.834
50628W        W19022  38.576  18.338   3.581
50629W        W19023   6.776  24.087  14.472
50630W        W19024  14.715  33.443  12.891
50631W        W19025  21.615  10.606   3.244
50632W        W19026  40.810   7.816   3.234
50633W        W19027  27.465  19.385   2.694
50634W        W19028  20.986  37.432   0.729
50635W        W19029  25.644  11.030  13.735
50636W        W19030  14.699  20.567   4.567
50637W        W19031   9.819  11.438  12.049
50638W        W19032   8.224   6.204   0.409
50639W        W19033  28.529  11.688  14.288
50640W        W19034  15.830  19.221   3.734
50641W        W19035   7.660  11.246  12.110
50642W        W19036  40.193  36.359  10.195
50643W        W19037  12.425  25.134  14.712
50644W        W19038  37.063  27.737  12.063
50645W        W19039  23.738   9.052   9.795
50646W        W19040  25.436  33.457  13.375
50647W        W19041  30.392  11.148  14.900
50648W        W19042  31.967   3.684  11.138
50649W        W19043  32.625  42.580  11.974
50650W        W19044  24.911   2.890  11.948
50651W        W19045  20.797  16.393   4.245
50652W        W19046  12.642   5.935   1.396
50653W        W19047  13.108  17.029   0.176
50654W        W19048  31.377  16.145   0.942
50655W        W19049  24.700  27.267  12.590
50656W        W19050  37.911  25.517  14.294
50657W        W19051  40.057  26.530   0.241
50658W        W19052  41.375  39.696   4.974
50659W        W19053  33.517  38.539  12.475
50660W        W19054  44.462  42.370   2.757
50661W        W19055  17.563  14.418  14.543
50662W        W19056  32.476  14.356  10.685
50663W        W19057   2.899  34.680  10.960
50664W        W19058  20.952  24.857  12.018
50665W        W19059  39.451  37.643   1.953
50666W        W19060  19.142  10.734  10.625
50667W        W19061   3.505  44.377   4.679
50668W        W19062   5.193  17.161   0.652
50669W        W19063  32.923  32.845   0.041
50670W        W19064   9.188  38.337  11.119
50671W        W19065  38.568   9.279   0.420
50672W        W19066  21.537  34.462  14.960
50673W        W19067  18.081  16.638   4.919
50674W        W19068   1.736  43.230   4.973
50675W        W19069  11.117  43.921   1.800
50676W        W19070  28.048  10.300  13.048
50677W        W19071  34.604  33.503  14.225
50678W        W19072   0.403  12.580  13.525
50679W        W19073  26.038  31.611   4.967
50680W        W19074  17.608   4.955   4.084
50681W        W19075  37.889  16.589  11.977
50682W        W19076  14.826   5.105   5.072
50683W        W19077  44.286  21.243  14.932
50684W        W19078  12.135  26.575   2.698
50685W        W19079  23.801   6.673  13.959
50686W        W19080   5.573  39.307  14.393
50687W        W19081  32.641  29.585  13.520
50688W        W19082  24.714  38.542  14.826
50689W        W19083  26.294  16.874  14.070
50690W        W19084  15.226  36.220  12.377
50691W        W19085  39.135  41.033   3.169
50692W        W19086  38.091  38.087  12.425
50693W        W19087  18.786  26.120   4.081
50694W        W19088   9.152  10.457   2.812
50695W        W19089  41.314  12.394  13.990
50696W        W19090  44.831  11.409  14.915
50697W        W19091  32.560  19.640  11.174
50698W        W19092   8.689   1.455  12.443
50699W        W19093  29.183   9.767  13.143
50700W        W19094   9.700   1.918  13.943
50701W        W19095   6.868  39.567  11.520
50702W        W19096  17.060   3.867  12.847
50703W        W19097  23.255  40.060  14.750
50704W        W19098  43.476   9.886  11.013
50705W        W19099  36.164   9.898   3.402
50706W        W19100  30.313  43.269  13.486
50707W        W19101  28.953  27.660  10.704
50708W        W19102  13.388  27.525   1.703
50709W        W19103  15.391  26.081  11.995
50710W        W19104  13.680  16.039  11.448
50711W        W19105  25.854  11.271  12.515
50712W        W19106  39.869   4.008   0.778
50713W        W19107  44.091  16.758   0.819
50714W        W19108  30.193  20.791  14.735
50715W        W19109  12.159  27.892   2.262
50716W        W19110  40.036  38.338  12.784
50717W        W19111  18.823  41.474   3.320
50718W        W19112  22.828  34.012  13.001
50719W        W19113  12.606  16.426   4.526
50720W        W19114   4.964   4.541  11.469
50721W        W19115  23.420   4.627   1.329
50722W        W19116  42.455   6.814   4.300
50723W        W19117  28.319  11.761   0.851
50724W        W19118  38.984   8.036  13.100
50725W        W19119  18.425   8.080  14.922
50726W        W19120  34.403  24.255   1.171
50727W        W19121  21.453  27.228   4.148
50728W        W19122  44.302  19.635  14.524
50729W        W19123  42.096  38.583  13.883
50730W        W19124  13.471  36.231   4.980
50731W        W19125   7.205  41.739  11.154
50732W        W19126  40.817  30.777   2.451
50733W        W19127  26.158   8.284   3.249
50734W        W19128  16.792  12.583  11.256
50735W        W19129   9.067  25.000   3.646
50736W        W19130  11.118  13.778   3.724
50737W        W19131  25.062  44.849  14.368
50738W        W19132   6.663  43.430  11.527
50739W        W19133  15.691  42.378  11.263
50740W        W19134  14.661  15.709  13.058
50741W        W19135  43.838  36.212   4.057
50742W        W19136  21.145   9.307  10.726
50743W        W19137  23.447  34.959   2.674
50744W        W19138  29.897  29.016   2.363
50745W        W19139  38.960   0.337  10.243
50746W        W19140  26.122  21.680  12.044
50747W        W19141  18.816   1.092  14.015
50748W        W19142  21.404  31.677   2.395
50749W        W19143  10.292  30.133  11.961
50750W        W19144  44.280  27.445   0.863
50751W        W19145  38.519  37.818   4.865
50752W        W19146   0.667   4.353  10.733
50753W        W19147  10.263   8.303   4.580
50754W        W19148  36.392  40.470   1.375
50755W        W19149  36.870  20.958   1.481
50756W        W19150  43.062  19.113   2.189
50757W        W19151  30.344   3.829  12.083
50758W        W19152   1.910  15.440   4.197
50759W        W19153   6.870  10.193   3.878
50760W        W19154  13.800  18.114  10.626
50761W        W19155  25.916  41.934  14.763
50762W        W19156  12.289  32.883  14.851
50763W        W19157  28.218  13.649  14.541
50764W        W19158   6.575  44.407  14.941
50765W        W19159  33.044   5.148   2.449
50766W        W19160  25.862   7.636   3.341
50767W        W19161  17.077  12.259   2.877
50768W        W19162  32.390  25.214  12.020
50769W        W19163  36.612  10.441  11.154
50770W        W19164   6.875   7.621   4.163
50771W        W19165  21.070  23.244  12.649
50772W        W19166  12.422   0.234   1.313
50773W        W19167   8.201  18.030   2.341
50774W        W19168   9.804   7.337   3.187
50775W        W19169   3.982  25.227  13.143
50776W        W19170   9.968  17.570   2.335
50777W        W19171  21.552  31.477   3.394
50778W        W19172  33.495  43.798  12.583
50779W        W19173  13.401  28.173   2.280
50780W        W19174  18.257   6.821  12.439
50781W        W19175  34.536  32.628  13.865
50782W        W19176  33.552  31.644   0.407
50783W        W19177  17.849  34.781  13.178
50784W        W19178  26.641   3.990   1.379
50785W        W19179  18.066  12.491   3.321
50786W        W19180   0.066  21.506   4.064
50787W        W19181  24.125   1.953   0.004
50788W        W19182  22.601  13.195  13.526
50789W        W19183  13.145   3.703  14.444
50790W        W19184   4.846   6.946   2.417
50791W        W19185  26.088   3.619  11.019
50792W        W19186  33.101  39.874  14.269
50793W        W19187  12.465  17.533   1.440
50794W        W19188  31.666  34.571  12.829
50795W        W19189  15.448   3.338   3.118
50796W        W19190   7.920   8.222   1.827
50797W        W19191  10.858  27.598   2.661
50798W        W19192  19.215  28.946   1.241
50799W        W19193  21.771   3.469  13.536
50800W        W19194  14.055  34.339  12.571
50801W        W19195  15.850  41.391  14.586
50802W        W19196  15.669  37.495  13.401
50803W        W19197  28.912  36.464   1.316
50804W        W19198   2.217   0.703  10.672
50805W        W19199  23.930  32.142  13.035
50806W        W19200   7.109  44.870   1.652
50807W        W19201  34.167  24.092   3.044
50808W        W19202  44.875  25.519  10.922
50809W        W19203  41.288  24.013  10.782
50810W        W19204  20.549  11.406   4.206
50811W        W19205  43.365  16.530   4.175
50812W        W19206  28.931   6.925   1.917
50813W        W19207  43.561  30.454   3.281
50814W        W19208  33.001  42.890  12.618
50815W        W19209   5.656  23.140   0.601
50816W        W19210  31.998  23.386   3.591
50817W        W19211  25.553  32.459   2.397
50818W        W19212  36.566  39.527  13.108
50819W        W19213  40.285  22.450   2.224
50820W        W19214  19.074   8.708   2.196
50821W        W19215   8.359   3.159   3.737
50822W        W19216  23.669  21.949   2.403
50823W        W19217   1.810  39.130   2.289
50824W        W19218  36.873  34.876   2.041
50825W        W19219  16.044  33.605   1.264
50826W        W19220  40.831  11.559  13.855
50827W        W19221   4.876   1.371  11.168
50828W        W19222  21.641  23.915  13.613
50829W        W19223   0.940  24.125   4.678
50830W        W19224  18.275  13.879  11.139
50831W        W19225  28.091  22.525   2.622
50832W        W19226  35.550  29.027  14.921
50833W        W19227   9.483   7.711  14.302
50834W        W19228  19.173   7.324  12.227
50835W        W19229  44.926  32.222   1.753
50836W        W19230  23.160  31.349   2.392
50837W        W19231  41.985  31.336  11.100
50838W        W19232  39.467  17.788   4.962
50839W        W19233  16.318  12.058  10.720
50840W        W19234  19.086  39.941  11.382
50841W        W19235   6.651   7.383  12.105
50842W        W19236   0.857  15.294  14.083
50843W        W19237  21.674   4.895   2.955
50844W        W19238   0.123  36.941  10.404
50845W        W19239  21.135  12.619   3.173
50846W        W19240   2.355  33.462  14.777
50847W        W19241  33.548  12.140   1.749
50848W        W19242  31.153  18.794   0.099
50849W        W19243  11.860  44.818  12.378
50850W        W19244  29.612  37.930  10.665
50851W        W19245   1.236  18.673  10.842
50852W        W19246  37.945  27.697  14.337
50853W        W19247  26.966  19.950  13.258
50854W        W19248  35.409  16.268  12.882
50855W        W19249  10.015  30.479  13.480
50856W        W19250  39.746  22.506   2.422
50857W        W19251   2.345  28.040   3.389
50858W        W19252  35.378  23.016  12.942
50859W        W19253  24.449  11.727   4.096
50860W        W19254  26.931  33.064  14.850
50861W        W19255  14.784  28.243   0.415
50862W        W19256  29.117  24.472   3.585
50863W        W19257  14.651  25.263  13.303
50864W        W19258  31.517  13.531   0.425
50865W        W19259  22.467  13.092   1.770
50866W        W19260  39.044   5.138   4.574
50867W        W19261   7.290   8.119  14.944
50868W        W19262  22.519  36.988   2.433
50869W        W19263  31.149  42.277  14.302
50870W        W19264  13.222   5.692  14.497
50871W        W19265  39.250  21.292   1.659
50872W        W19266  26.606  15.573   4.511
50873W        W19267  24.202  29.112   4.386
50874W        W19268  12.105   2.637   3.237
50875W        W19269  17.361  22.724   4.336
50876W        W19270  21.610  16.702   3.297
50877W        W19271   1.533  11.101   2.544
50878W        W19272  23.791  23.240   4.171
50879W        W19273  25.206   1.897  11.473
50880W        W19274  42.448  29.492  11.895
50881W        W19275  10.870  33.579  13.924
50882W        W19276  22.479   6.667   2.402
50883W        W19277  15.967  44.068  12.870
50884W        W19278  23.823  17.980  13.133
50885W        W19279   6.477   5.859   2.406
50886W        W19280  35.158  15.195   0.327
50887W        W19281  27.009  10.589  12.309
50888W        W19282  16.120  22.047  12.841
50889W        W19283  32.460  15.875   4.166
50890W        W19284  39.076  20.095  11.478
50891W        W19285  40.342  34.991  11.086
50892W        W19286  44.059  29.584   2.198
50893W        W19287   5.392   9.705  14.933
50894W        W19288   0.273  31.593  10.669
50895W        W19289   0.288  31.978  14.536
50896W        W19290  30.406   1.714  11.940
50897W        W19291  34.644   0.647  13.051
50898W        W19292   7.589  18.372  14.792
50899W        W19293  40.711  22.222  11.460
50900W        W19294  32.584  34.381   2.611
50901W        W19295  40.787  19.482  13.078
50902W        W19296  16.465  21.148   1.934
50903W        W19297  24.648  10.796   1.307
50904W        W19298  27.912  10.888  14.864
50905W        W19299  19.268  22.117  12.276
50906W        W19300  30.623  19.705   2.146
50907W        W19301  17.093  27.057  11.954
50908W        W19302  29.731   3.296   1.410
50909W        W19303  24.963  18.745   2.371
50910W        W19304  13.838  12.167   1.650
50911W        W19305  21.630   8.178   2.121
50912W        W19306  12.797  43.870  13.458
50913W        W19307  32.654  11.113  14.426
50914W        W19308  24.426  27.208   0.826
50915W        W19309  23.576  20.342   4.373
50916W        W19310   5.927  15.755   3.854
50917W        W19311   1.444  14.869   3.612
50918W        W19312  28.363   1.346  13.532
50919W        W19313  42.024  29.024  14.768
50920W        W19314  25.727  12.761  14.468
50921W        W19315  28.688  23.447   1.318
50922W        W19316   1.805   3.295  12.088
50923W        W19317   7.232  10.865   0.439
50924W        W19318  14.135  16.257   3.671
50925W        W19319  13.204  24.234   1.285
50926W        W19320  44.200  12.838   5.300
50927W        W19321  19.742   7.728  13.810
50928W        W19322  10.647  44.026   0.772
50929W        W19323   4.814  39.882   4.881
50930W        W19324  36.858   8.176   1.763
50931W        W19325  14.792  32.091  11.034
50932W        W19326  29.644  41.546   0.895
50933W        W19327  36.109  27.647  13.945
50934W        W19328  14.797  38.859  13.134
50935W        W19329  10.752  22.105   1.298
50936W        W19330  15.723  38.759  13.064
50937W        W19331  10.458  34.020  13.298
50938W        W19332  23.032  32.623   3.747
50939W        W19333  42.703   6.379   4.176
50940W        W19334  17.663   9.803  10.783
50941W        W19335  11.130  28.827  13.049
50942W        W19336   1.669  39.973  11.537
50943W        W19337   8.780  36.124   2.294
50944W        W19338   3.290   6.064   2.849
50945W        W19339  37.051  11.889   1.641
50946W        W19340  24.939  17.181  11.138
50947W        W19341  23.658   3.513  11.452
50948W        W19342  18.066   8.803  13.038
50949W        W19343  11.882  39.188   0.923
50950W        W19344  41.548  36.650   4.108
50951W        W19345  12.026  39.526   3.173
50952W        W19346  15.204  38.810  11.087
50953W        W19347  12.034  16.595  11.281
50954W        W19348   5.859  28.083   3.706
50955W        W19349  15.915  39.920  10.532
50956W        W19350  38.342  25.902   0.774
50957W        W19351  23.728  25.988   4.112
50958W        W19352   1.586  10.393   3.403
50959W        W19353  10.358  21.884  14.896
50960W        W19354   5.434   4.413   1.371
50961W        W19355  17.539   5.674  14.931
50962W        W19356  35.326  28.552   1.179
50963W        W19357  12.762  33.957  14.255
50964W        W19358  34.751  21.124  12.054
50965W        W19359   5.291  30.732  13.792
50966W        W19360  41.844  14.669  14.066
50967W        W19361  32.469  42.006   4.314
50968W        W19362   6.274  29.656  12.565
50969W        W19363   1.325  32.042   0.394
50970W        W19364  27.575  27.230  11.229
50971W        W19365  38.567  43.054  12.017
50972W        W19366  19.653  13.394  13.914
50973W        W19367  18.684  14.013  10.200
50974W        W19368  42.847  14.431  11.542
50975W        W19369   2.309  37.615   1.864
50976W        W19370  36.374  33.517   0.399
50977W        W19371  43.468  42.819  13.390
50978W        W19372   9.462  12.955   1.186
50979W        W19373  25.603   8.458  11.170
50980W        W19374  14.167  14.302   4.091
50981W        W19375   1.402   8.606  14.285
50982W        W19376  25.643  27.881   0.916
50983W        W19377  39.079  17.925  14.029
50984W        W19378  17.631  13.503   4.535
50985W        W19379  30.445  16.010  13.498
50986W        W19380  33.602   8.211   4.592
50987W        W19381   4.535  22.389  13.031
50988W        W19382  41.884  10.386  13.527
50989W        W19383  16.557  42.362   1.243
50990W        W19384  44.928   2.056   3.799
50991W        W19385   6.402  11.216  13.528
50992W        W19386   7.377  29.878   1.410
50993W        W19387  10.716   2.754   1.355
50994W        W19388  37.042   8.409   1.332
50995W        W19389  39.082   7.379   1.323
50996W        W19390   4.790   3.900   2.716
50997W        W19391   5.753  33.815  13.423
50998W        W19392  16.901   0.428  14.879
50999W        W19393  15.787   8.725  14.988
51000W        W19394  14.690  25.316   0.980
51001W        W19395  10.143  13.347  11.845
51002W        W19396  44.522  15.750   0.990
51003W        W19397  18.583  18.939  13.606
51004W        W19398  43.324  35.473  11.049
51005W        W19399  11.182   2.961  10.731
51006W        W19400   5.021  29.789  11.934
51007W        W19401  39.630  31.541  13.068
51008W        W19402  26.578  20.165   4.770
51009W        W19403   2.214  35.992   2.989
51010W        W19404   2.184  18.725  10.846
51011W        W19405  11.309  14.614  14.860
51012W        W19406  30.462  41.461  12.087
51013W        W19407  30.882  20.105  14.388
51014W        W19408   4.298  16.635  12.038
51015W        W19409  34.461  31.725  13.143
51016W        W19410  15.579  17.301   3.517
51017W        W19411  12.097  43.956  12.086
51018W        W19412  32.456  25.177   3.866
51019W        W19413  10.405   1.207  13.071
51020W        W19414  15.956  10.133  13.327
51021W        W19415   1.891  41.749   2.743
51022W        W19416  30.244  29.204  12.678
51023W        W19417  12.812  19.275   1.256
51024W        W19418  42.066  27.565  11.154
51025W        W19419   0.815   6.859  11.448
51026W        W19420  22.176  20.851   2.879
51027W        W19421  14.434   1.757  14.532
51028W        W19422  24.877  23.905   2.986
51029W        W19423  25.552   4.753  14.951
51030W        W19424  30.137  22.953   3.648
51031W        W19425  44.125   4.740   2.966
51032W        W19426  32.857  32.994   4.588
51033W        W19427   0.999   5.165  11.169
51034W        W19428  41.094  27.449   3.313
51035W        W19429  40.446   0.338   2.911
51036W        W19430   4.797   9.464   1.963
51037W        W19431  35.780  12.443   3.186
51038W        W19432   7.966  28.536   0.988
51039W        W19433  40.144  29.063  11.598
51040W        W19434  17.093  14.400   0.854
51041W        W19435  23.663   6.143   2.637
51042W        W19436  27.950  39.249  14.915
51043W        W19437   4.839  44.574  10.648
51044W        W19438   4.925  24.539  12.652
51045W        W19439  16.719  18.110  11.085
51046W        W19440   2.267   1.442  11.166
51047W        W19441   1.036  18.027   2.249
51048W        W19442  40.957   1.381   3.687
51049W        W19443  35.911  44.562   0.316
51050W        W19444  15.274   3.795   2.933
51051W        W19445   6.706  18.286   0.288
51052W        W19446  21.692   9.223  11.955
51053W        W19447  29.030  43.643  12.786
51054W        W19448  19.361  19.174  14.310
51055W        W19449  22.142  31.019   3.803
51056W        W19450  29.004   6.285  12.159
51057W        W19451   7.923  13.401  12.878
51058W        W19452  38.327  35.942  10.716
51059W        W19453  21.892   8.488   4.671
51060W        W19454  22.791  15.759   2.599
51061W        W19455  20.532   6.185  10.767
51062W        W19456  25.176  39.390  14.052
51063W        W19457  16.194  23.195  14.947
51064W        W19458  12.258   4.694   1.623
51065W        W19459  10.468  32.819   0.294
51066W        W19460  44.676  44.678   0.013
51067W        W19461  38.318   2.870  13.489
51068W        W19462  17.654  38.826   0.222
51069W        W19463  23.147  14.210   5.208
51070W        W19464   3.751  26.452  12.025
51071W        W19465  40.416  38.886   3.168
51072W        W19466  24.733  20.596   2.441
51073W        W19467  35.161  24.387   4.547
51074W        W19468  23.039  12.858   2.306
51075W        W19469   0.929   6.363   1.530
51076W        W19470   1.241  11.376  13.883
51077W        W19471  30.097  33.747   1.760
51078W        W19472  15.641  16.865   4.607
51079W        W19473   3.323  31.233  13.367
51080W        W19474  14.065  32.685  11.668
51081W        W19475  40.095  19.343  11.104
51082W        W19476   0.968  17.363   1.285
51083W        W19477  17.549  23.753   3.649
51084W        W19478   6.141   9.801  11.534
51085W        W19479  32.887   0.981   3.688
51086W        W19480  33.613  34.379   2.330
51087W        W19481  31.114  34.691  13.940
51088W        W19482  10.866  38.125  11.081
51089W        W19483  26.482  12.086  13.062
51090W        W19484  23.504  24.688   1.818
51091W        W19485  23.032  34.155   3.697
51092W        W19486  21.317  31.034  11.450
51093W        W19487   9.857  34.128  14.910
51094W        W19488  10.602   6.306  13.834
51095W        W19489   3.931  33.664   4.111
51096W        W19490  31.008  21.030   5.103
51097W        W19491  22.121  31.389   4.857
51098W        W19492   7.907  23.746   3.689
51099W        W19493   8.825  36.117  11.994
51100W        W19494  12.228  40.173   2.375
51101W        W19495  26.530  26.642   0.172
51102W        W19496  23.064  21.348   3.077
51103W        W19497   6.380  17.794   0.892
51104W        W19498  10.229  24.136   3.705
51105W        W19499  41.921   6.592  11.216
51106W        W19500  38.897  18.941  13.985
51107W        W19501  15.662  27.867   0.090
51108W        W19502   9.491  24.586  11.466
51109W        W19503  28.732  36.901  14.317
51110W        W19504  13.808  17.276  10.806
51111W        W19505  13.532  28.938   0.255
51112W        W19506   9.450  15.063  14.357
51113W        W19507   5.229  30.877  14.303
51114W        W19508  28.745  13.745   2.722
51115W        W19509  27.114  21.092   0.301
51116W        W19510  36.944  37.308   4.512
51117W        W19511  26.866  23.075  12.595
51118W        W19512   7.234   0.703  12.933
51119W        W19513  43.058   3.391  11.602
51120W        W19514  32.093  24.025   1.447
51121W        W19515  13.571  26.801   2.228
51122W        W19516  15.276   3.409   2.257
51123W        W19517   0.322   2.409  10.836
51124W        W19518  10.348  15.803   3.221
51125W        W19519  41.256  31.566  11.950
51126W        W19520   4.248  37.011   4.567
51127W        W19521  20.014   6.941  11.191
51128W        W19522  30.955  27.000  11.367
51129W        W19523  16.501   4.779  12.917
51130W        W19524   5.749  23.799   1.416
51131W        W19525  23.244  21.189  14.531
51132W        W19526  21.229  32.421   0.738
51133W        W19527   7.942  13.984   1.861
51134W        W19528  41.545   8.120  13.051
51135W        W19529  20.963  15.118   5.086
51136W        W19530  17.812   4.357  11.993
51137W        W19531  27.831   4.454   4.228
51138W        W19532  15.208  15.360   0.727
51139W        W19533  28.673  43.800  13.112
51140W        W19534  38.462  21.681  14.469
51141W        W19535  34.882  29.341   1.596
51142W        W19536  18.238  15.736  10.530
51143W        W19537  20.795  22.463   4.331
51144W        W19538  16.996  38.328  12.984
51145W        W19539  32.880  12.736  10.664
51146W        W19540   3.944  16.225  11.107
51147W        W19541  34.962  15.553  14.325
51148W        W19542  38.058   8.045   0.348
51149W        W19543  25.185  21.870  12.540
51150W        W19544   2.517  34.878  10.675
51151W        W19545   9.761  32.100  10.756
51152W        W19546  20.518  42.503  14.324
51153W        W19547  23.502  17.354  11.517
51154W        W19548   7.797  36.091   0.538
51155W        W19549  18.208  43.816   3.681
51156W        W19550  17.307  11.767   4.558
51157W        W19551  32.523  35.960   5.026
51158W        W19552  32.985  22.103  11.699
51159W        W19553  13.772  44.497   0.318
51160W        W19554  16.273  31.855   9.978
51161W        W19555  28.935  20.937  11.581
51162W        W19556  12.837   1.478  14.960
51163W        W19557  22.510   5.748   1.820
51164W        W19558  16.123   3.746  13.359
51165W        W19559   9.815  16.676   0.676
51166W        W19560   8.128   4.922   3.933
51167W        W19561  40.499  36.824   2.673
51168W        W19562  25.915   8.208   3.773
51169W        W19563  14.645  24.136  11.559
51170W        W19564  13.086  38.369   4.197
51171W        W19565  27.841   8.640  12.450
51172W        W19566  40.307  34.824   1.532
51173W        W19567   6.155  41.504   0.888
51174W        W19568  21.793  27.190  10.180
51175W        W19569   1.047   5.177   3.200
51176W        W19570  22.382  12.639  10.684
51177W        W19571  10.165  14.861  12.080
51178W        W19572  40.454  28.320  13.348
51179W        W19573   4.257   2.637   4.867
51180W        W19574  12.132  20.316   3.307
51181W        W19575  42.827   0.408   3.651
51182W        W19576   9.842  30.004  10.732
51183W        W19577  41.767  16.333   4.149
51184W        W19578  15.528   1.717   3.632
51185W        W19579  18.776  13.391  13.912
51186W        W19580   2.348  44.526  12.906
51187W        W19581  26.957   0.815   0.411
51188W        W19582   5.014  38.107   1.632
51189W        W19583  26.487  38.587   2.257
51190W        W19584   4.696  39.977   3.722
51191W        W19585  33.592  44.782   4.658
51192W        W19586  22.292  26.981  12.846
51193W        W19587  25.582   7.344   2.699
51194W        W19588  37.057   0.968  10.798
51195W        W19589  26.503   4.977  11.141
51196W        W19590  15.106  32.285  13.455
51197W        W19591  39.031  25.680  14.967
51198W        W19592  16.359  19.352   1.747
51199W        W19593  40.235  27.374   0.870
51200W        W19594  11.364  39.230  13.109
51201W        W19595  32.728  11.923   0.206
51202W        W19596  21.980  30.553   0.489
51203W        W19597   6.724  20.603  14.309
51204W        W19598  26.405  22.512  11.445
51205W        W19599  19.114  28.159   0.822
51206W        W19600   4.723  33.206  14.804
51207W        W19601  19.286  41.622  10.702
51208W        W19602  25.976  29.640  13.463
51209W        W19603  23.596  33.977   1.336
51210W        W19604  12.333  16.616   3.335
51211W        W19605  23.782   1.508  11.933
51212W        W19606  42.373  28.632   0.536
51213W        W19607   2.363  36.488   3.725
51214W        W19608  32.934  18.470  14.956
51215W        W19609  38.552  22.273  11.058
51216W        W19610  41.569   8.776   1.027
51217W        W19611  25.276  15.279  12.048
51218W        W19612  13.995   6.320   1.082
51219W        W19613  40.061  30.114  12.596
51220W        W19614   0.180  33.868  12.976
51221W        W19615  28.701  27.447   0.892
51222W        W19616  29.632  10.655  11.514
51223W        W19617  42.293  44.527  13.437
51224W        W19618  10.292  26.664  11.252
51225W        W19619  33.077  14.635  14.563
51226W        W19620   6.364  40.361  12.168
51227W        W19621   4.792  29.925   0.951
51228W        W19622  35.975  22.629  13.456
51229W        W19623  17.282  20.329  12.500
51230W        W19624  10.637  36.874  13.810
51231W        W19625   0.078   8.155  12.273
51232W        W19626  36.943  38.433   5.045
51233W        W19627   2.547  18.520  14.962
51234W        W19628  32.533   8.895  11.235
51235W        W19629  43.871  34.003  13.513
51236W        W19630  36.511   8.652   3.351
51237W        W19631   5.742  42.439  11.591
51238W        W19632  10.436  31.544   3.349
51239W        W19633  12.668  12.105   2.916
51240W        W19634   1.859   8.633  11.654
51241W        W19635  44.248  33.333   2.236
51242W        W19636  33.193  30.845  12.492
51243W        W19637  26.508   0.248  14.424
51244W        W19638  14.043  15.169   1.327
51245W        W19639  31.668  41.098  12.313
51246W        W19640  30.649  18.077   2.674
51247W        W19641  42.364  39.943  10.252
51248W        W19642  10.414  38.873   0.684
51249W        W19643  29.022  30.231  14.848
51250W        W19644  10.315  38.797   1.182
51251W        W19645   6.198  40.584  14.251
51252W        W19646  10.673   4.016  13.018
51253W        W19647  35.171   8.109   2.775
51254W        W19648  27.005   4.771  12.921
51255W        W19649  42.477  31.609  13.169
51256W        W19650   1.178  11.783   1.832
51257W        W19651   1.339  24.410  10.621
51258W        W19652  12.688  25.466   5.030
51259W        W19653  19.036   0.023   0.833
51260W        W19654  20.611  24.189  14.410
51261W        W19655   1.258  39.496   4.248
51262W        W19656   2.690  44.924  11.104
51263W        W19657  32.455  29.059  10.766
51264W        W19658  26.079   5.894   4.311
51265W        W19659  42.336  16.534   2.864
51266W        W19660   6.020  23.350   0.327
51267W        W19661  20.554  44.479  13.297
51268W        W19662  42.893  16.163   2.452
51269W        W19663  21.795  24.616  11.501
51270W        W19664  35.925  33.941  10.667
51271W        W19665  44.233  14.826  13.993
51272W        W19666  17.283  23.263  12.430
51273W        W19667  39.892  15.166   4.412
51274W        W19668  22.628  35.052   3.575
51275W        W19669  31.084  28.691  14.326
51276W        W19670  20.030  32.185  12.541
51277W        W19671  43.821  23.953  12.937
51278W        W19672  31.999  41.544   5.019
51279W        W19673  40.358  34.990  11.609
51280W        W19674   4.317   0.388   1.250
51281W        W19675   6.102   5.213   0.355
51282W        W19676  16.058  11.188   3.096
51283W        W19677  44.555  19.566   4.678
51284W        W19678  18.489   6.679  12.935
51285W        W19679  44.479  11.605  13.068
51286W        W19680  28.254   3.731   4.078
51287W        W19681   7.404   7.623   2.260
51288W        W19682   1.521  33.456  11.196
51289W        W19683  37.470   7.417   4.948
51290W        W19684   5.477  42.870   0.794
51291W        W19685  28.454  38.368   4.779
51292W        W19686  25.808  15.622  11.467
51293W        W19687  22.796  19.855   2.226
51294W        W19688   6.496   8.286   1.961
51295W        W19689  41.511  17.056   2.799
51296W        W19690  39.986  40.804   3.233
51297W        W19691   3.727  30.470   1.799
51298W        W19692  22.833  31.643  13.480
51299W        W19693  42.559   8.326   1.190
51300W        W19694   6.108  15.575  12.474
51301W        W19695  37.897  16.683  14.239
51302W        W19696   5.195  38.069   1.152
51303W        W19697  38.219  34.708   3.434
51304W        W19698  40.578   6.188   3.239
51305W        W19699   0.012  17.548  11.320
51306W        W19700   8.718  27.519  11.301
51307W        W19701  25.729  11.931   4.486
51308W        W19702  22.075   8.781  13.541
51309W        W19703  36.574  22.989   1.952
51310W        W19704  23.261  12.746  13.540
51311W        W19705  26.438  39.849  10.996
51312W        W19706  23.026  27.584  11.890
51313W        W19707   1.356  12.345   0.501
51314W        W19708  13.593  32.169   2.455
51315W        W19709  14.575  39.935   2.334
51316W        W19710  20.475  20.034  10.639
51317W        W19711   7.646  36.591   3.355
51318W        W19712  24.073  12.885  13.067
51319W        W19713  12.216  11.226   3.027
51320W        W19714   7.684  29.146  10.320
51321W        W19715  29.277  20.959   2.948
51322W        W19716  43.243   3.697   0.286
51323W        W19717  26.267  32.608   1.664
51324W        W19718  29.827  27.965   1.190
51325W        W19719  27.070  22.947  12.138
51326W        W19720  25.234  13.499   3.396
51327W        W19721   4.841  23.978   5.199
51328W        W19722  10.563  40.209   4.894
51329W        W19723  24.778  22.440   0.886
51330W        W19724  34.113  10.321   1.573
51331W        W19725   1.974   7.159   1.773
51332W        W19726  34.081   9.699  11.655
51333W        W19727  24.041  19.169  14.899
51334W        W19728  13.162  28.597   2.468
51335W        W19729  32.892  10.097   2.416
51336W        W19730  19.631  36.115  11.472
51337W        W19731  41.240  21.341  10.214
51338W        W19732  17.251  16.085  13.788
51339W        W19733  28.276  36.779   3.140
51340W        W19734  15.843  43.044  14.360
51341W        W19735  31.852  24.408  13.163
51342W        W19736  38.949  33.430  10.928
51343W        W19737  16.333  15.306  12.595
51344W        W19738  31.064  33.440   4.188
51345W        W19739  14.898  27.884   2.368
51346W        W19740  43.069  40.460  12.033
51347W        W19741  29.509  15.070  11.578
51348W        W19742  40.494  42.808  11.137
51349W        W19743  14.981   2.134   0.600
51350W        W19744  13.095  11.132   0.744
51351W        W19745   8.291  14.474   0.175
51352W        W19746  13.414  43.254  12.084
51353W        W19747  43.940  42.187   1.883
51354W        W19748  38.871   7.012  14.328
51355W        W19749  35.038   8.569  11.621
51356W        W19750   9.864  16.078   2.143
51357W        W19751  44.082   6.003   0.320
51358W        W19752  17.398   9.321  14.570
51359W        W19753  39.142  12.161  12.033
51360W        W19754   9.792  24.759  14.816
51361W        W19755  33.590  13.158  14.365
51362W        W19756  14.810  41.516   4.968
51363W        W19757  40.272  22.331   4.438
51364W        W19758  39.631   5.770  12.090
51365W        W19759  11.407   6.469  10.621
51366W        W19760  20.782  28.280   1.897
51367W        W19761  31.515  18.288  12.453
51368W        W19762  36.085  26.185   2.968
51369W        W19763   0.499  30.616   3.234
51370W        W19764  26.974   2.522   2.148
51371W        W19765  20.467  39.513   0.511
51372W        W19766  15.128  36.343   1.412
51373W        W19767  21.060  29.730  14.383
51374W        W19768  34.403  43.598  12.989
51375W        W19769  22.096  10.974  14.326
51376W        W19770  33.155  19.265  13.426
51377W        W19771  12.787  36.853   0.729
51378W        W19772  14.725  27.433  13.215
51379W        W19773  12.293  42.211  11.167
51380W        W19774  41.589  41.231  14.893
51381W        W19775  44.699  38.605  12.057
51382W        W19776  20.378  28.899  13.906
51383W        W19777  35.914   3.819  14.016
51384W        W19778  34.381  15.325  13.835
51385W        W19779   0.231  13.803  14.005
51386W        W19780   8.288  13.609   1.909
51387W        W19781   5.327  42.122   4.560
51388W        W19782  24.158  36.897   0.974
51389W        W19783  42.414  16.343   1.508
51390W        W19784   4.200  44.553   3.758
51391W        W19785  13.714  28.468  12.296
51392W        W19786   9.903  29.767   5.069
51393W        W19787  33.300  44.982  12.149
51394W        W19788  16.100  20.093   3.445
51395W        W19789   7.811   5.971  13.122
51396W        W19790  25.526  30.212   0.328
51397W        W19791   5.709  34.851  11.150
51398W        W19792  39.772  33.492   1.369
51399W        W19793  40.408   2.451  11.175
51400W        W19794  40.887  20.329   0.919
51401W        W19795  40.902  32.247  14.798
51402W        W19796   3.926   4.028  10.007
51403W        W19797  11.267  10.278   4.060
51404W        W19798  26.504  39.519  13.881
51405W        W19799  27.877  28.302  11.849
51406W        W19800  41.914   6.705   2.260
51407W        W19801  43.328  12.498  11.648
51408W        W19802  14.656  28.626  14.431
51409W        W19803   2.725  10.815  10.400
51410W        W19804  35.076   8.412  13.504
51411W        W19805  43.116   2.106  13.719
51412W        W19806   1.455  13.193  12.967
51413W        W19807   4.269  30.975  14.340
51414W        W19808  26.145  23.485  11.495
51415W        W19809  43.480   7.145  13.039
51416W        W19810  27.154  16.847   4.269
51417W        W19811  16.428  18.723  10.329
51418W        W19812  11.739  30.314  10.613
51419W        W19813  33.131  24.119  11.662
51420W        W19814  30.122  20.039   3.298
51421W        W19815  35.590  11.921  12.366
51422W        W19816   2.992   8.238   4.854
51423W        W19817  41.613  14.173   0.454
51424W        W19818  14.097  37.755   3.289
51425W        W19819  25.954   3.493  12.657
51426W        W19820  25.640   9.442   4.506
51427W        W19821  29.773   1.027   0.265
51428W        W19822  27.277  34.001   1.813
51429W        W19823   1.902  40.066   0.380
51430W        W19824  16.217  17.158   5.439
51431W        W19825  28.142   8.229  14.366
51432W        W19826  13.249  40.396  14.771
51433W        W19827   7.006  25.085   1.429
51434W        W19828  37.182  40.305   3.034
51435W        W19829  30.305  33.376  13.984
51436W        W19830   5.746  23.292   1.521
51437W        W19831   3.582  37.276   3.775
51438W        W19832   2.081  35.324   2.917
51439W        W19833  13.752  38.756  12.061
51440W        W19834  21.032  19.315   2.736
51441W        W19835  17.097   7.121   3.594
51442W        W19836  10.655  22.932  10.569
51443W        W19837  20.561  40.000  13.807
51444W        W19838   5.336   8.850  14.216
51445W        W19839  40.066  36.849  12.173
51446W        W19840   6.518  31.344   3.745
51447W        W19841   8.916  29.917  11.557
51448W        W19842  39.108  39.276   4.638
51449W        W19843   3.750  38.032  14.700
51450W        W19844  18.948  33.568   0.350
51451W        W19845  27.765  35.759  13.640
51452W        W19846  30.500  24.745   4.637
51453W        W19847  22.931  22.002   4.491
51454W        W19848  17.619   2.091   3.517
51455W        W19849  13.627  21.046   4.764
51456W        W19850  43.469  38.207   2.351
51457W        W19851  17.118  40.000   1.029
51458W        W19852  31.166  35.456  13.497
51459W        W19853  10.883  20.184   0.011
51460W        W19854   2.756  33.391  13.355
51461W        W19855  16.350  16.789   5.107
51462W        W19856  20.224  18.034  12.133
51463W        W19857  26.481  27.500  13.496
51464W        W19858   0.086  31.064  14.870
51465W        W19859  11.945  12.605   2.792
51466W        W19860  10.314  22.704  12.165
51467W        W19861  39.900  38.364   0.847
51468W        W19862  37.553   6.628  14.027
51469W        W19863  29.466  28.407  13.323
51470W        W19864  35.533  15.059  14.960
51471W        W19865  26.324   5.347  13.561
51472W        W19866  24.022  28.585  12.580
51473W        W19867  16.334  24.245  12.650
51474W        W19868  30.855  10.308   1.821
51475W        W19869  32.785  20.550  11.626
51476W        W19870  44.252  35.948  10.545
51477W        W19871  16.261  19.834   4.458
51478W        W19872  20.548  30.305  13.435
51479W        W19873  36.986  20.648  12.968
51480W        W19874  21.892  31.672   2.588
51481W        W19875   7.972   9.811   1.094
51482W        W19876  25.658   4.862  13.960
51483W        W19877  34.803  34.649   1.431
51484W        W19878  43.930  19.597  10.878
51485W        W19879  39.831  27.260   4.162
51486W        W19880  21.593  32.010  12.503
51487W        W19881  29.186  12.360   2.783
51488W        W19882  13.790  14.187   2.237
51489W        W19883  23.564  38.834  11.027
51490W        W19884  16.932  34.632   2.733
51491W        W19885  16.299  13.320   1.204
51492W        W19886  16.617  41.071   3.357
51493W        W19887  12.168  33.907   4.731
51494W        W19888  28.879  33.890   0.755
51495W        W19889  20.385  44.331   4.723
51496W        W19890  15.115  37.772   9.919
51497W        W19891  20.797  26.561   5.411
51498W        W19892  32.076  31.715  11.116
51499W        W19893  36.624  19.989  13.926
51500W        W19894  17.205   4.810   4.960
51501W        W19895  28.456  30.909  11.600
51502W        W19896   8.858  16.003   2.592
51503W        W19897  30.880  32.032  12.446
51504W        W19898  18.887  20.742   2.899
51505W        W19899  24.423  17.129  11.140
51506W        W19900  22.829  42.010   1.153
51507W        W19901  34.319  29.570   0.702
51508W        W19902   7.222  40.261   0.587
51509W        W19903   1.067  12.770  12.704
51510W        W19904   3.386  14.596  11.653
51511W        W19905  35.034  37.970  12.560
51512W        W19906  36.632  19.680   0.984
51513W        W19907   3.503  18.136   1.427
51514W        W19908  34.058   5.933  11.386
51515W        W19909  25.566  34.042   2.613
51516W        W19910  33.548  16.756   2.224
51517W        W19911  29.219   9.873  12.637
51518W        W19912  13.107  16.174  13.484
51519W        W19913  40.766  27.556  12.624
51520W        W19914  36.325  29.975   0.453
51521W        W19915  33.715  20.496  13.893
51522W        W19916   5.623  10.605   4.042
51523W        W19917   9.385   7.379   0.260
51524W        W19918  19.810  34.291   4.245
51525W        W19919  43.404  44.247  14.844
51526W        W19920  23.821  23.353   2.329
51527W        W19921  43.665  27.293   2.032
51528W        W19922  28.612  40.591  10.715
51529W        W19923   9.285   9.987   4.157
51530W        W19924   7.301   9.822  12.514
51531W        W19925  15.369  43.378  10.426
51532W        W19926  43.371  32.423  12.009
51533W        W19927  38.325  27.538   3.806
51534W        W19928  35.271  14.790   4.966
51535W        W19929  43.011  11.511  10.045
51536W        W19930  12.506  17.161  10.783
51537W        W19931  19.726  33.795   1.763
51538W        W19932   4.819  11.866   0.829
51539W        W19933  16.742  35.399   2.389
51540W        W19934  43.388  31.564   3.873
51541W        W19935  44.901   0.468  14.810
51542W        W19936  41.396   3.978   1.931
51543W        W19937  14.389   0.782  14.379
51544W        W19938  26.188  12.232   1.948
51545W        W19939  44.909  10.783   2.703
51546W        W19940  33.410  14.055   2.726
51547W        W19941  13.682  15.967   3.702
51548W        W19942  12.337  22.079   1.762
51549W        W19943  38.940  25.278   4.198
51550W        W19944  21.148  18.563   3.171
51551W        W19945  37.025  11.453   3.196
51552W        W19946  12.645  18.695  14.550
51553W        W19947   3.085   6.557  13.318
51554W        W19948   6.171  39.767   2.950
51555W        W19949  32.826  28.632   0.298
51556W        W19950   5.660  20.162   3.313
51557W        W19951   2.432   7.786  13.868
51558W        W19952  37.595  17.474   4.719
51559W        W19953   4.513  30.032  14.585
51560W        W19954  12.707  10.641   4.158
51561W        W19955   0.643  26.437   4.521
51562W        W19956  10.448  43.683   3.807
51563W        W19957   0.853  42.551   0.303
51564W        W19958  13.727   8.309  12.877
51565W        W19959  32.424  32.993   2.761
51566W        W19960  19.777   1.474   1.496
51567W        W19961  35.526  18.703   3.169
51568W        W19962  14.291  22.100   3.493
51569W        W19963  41.461  31.596  11.436
51570W        W19964  42.541  29.104   3.934
51571W        W19965  42.064  43.642  14.905
51572W        W19966  13.588  42.414  10.997
51573W        W19967  33.269  27.263   1.448
51574W        W19968  32.276  38.413   2.905
51575W        W19969  15.285  34.381   1.635
51576W        W19970  41.776   7.209   2.223
51577W        W19971  16.507   8.427  11.137
51578W        W19972  35.114  23.586   2.310
51579W        W19973  40.384  13.710  10.730
51580W        W19974  27.602   4.296   4.683
51581W        W19975   4.171  33.516   2.636
51582W        W19976  44.899  32.538  14.347
51583W        W19977  25.392  25.491   4.107
51584W        W19978  23.077  32.138   2.862
51585W        W19979  13.114   7.867   4.680
51586W        W19980   8.324  19.257   4.602
51587W        W19981   4.482  33.102   4.886
51588W        W19982  39.312  13.344   1.266
51589W        W19983  23.620  28.314   2.413
51590W        W19984   7.091  39.603  14.087
51591W        W19985  34.174   6.780  11.216
51592W        W19986  11.613   5.359   3.146
51593W        W19987   7.043  13.466   4.483
51594W        W19988  17.094  11.937   0.274
51595W        W19989  15.178  31.174   3.197
51596W        W19990   5.700  40.137  11.853
51597W        W19991  16.028  17.841   2.685
51598W        W19992  39.953  10.183   2.546
51599W        W19993  11.600  34.162  14.812
51600W        W19994  11.167  39.072   4.874
51601W        W19995   2.832  15.584  14.821
51602W        W19996   1.450   8.789   0.621
51603W        W19997  20.093  18.237   0.903
51604W        W19998  41.799   2.953  11.154
51605W        W19999  42.111   0.792   0.358
51606W        W20000  12.078  26.945   4.272
51607W        W20001  11.693  32.914  14.539
51608W        W20002  34.016  26.566   0.411
51609W        W20003  16.522  40.063  13.418
51610W        W20004  23.323  42.570  12.561
51611W        W20005   1.525  38.049   3.049
51612W        W20006  16.550  17.270   0.264
51613W        W20007  26.308  34.994   0.946
51614W        W20008  24.092  27.101   0.190
51615W        W20009  12.250  35.185   4.567
51616W        W20010  18.817  26.057  13.869
51617W        W20011  30.915  12.521   2.177
51618W        W20012  32.002  15.040  13.374
51619W        W20013   4.854  22.236   4.356
51620W        W20014  44.038  39.690  12.161
51621W        W20015  15.503  25.196  13.420
51622W        W20016  22.605  29.114  10.699
51623W        W20017  38.498  27.227   1.272
51624W        W20018  14.700  24.231  13.845
51625W        W20019  22.115  25.896  14.405
51626W        W20020  20.030  27.251   1.742
51627W        W20021  32.512  31.394  11.140
51628W        W20022  42.393   1.542   2.494
51629W        W20023  14.073  44.714  13.385
51630W        W20024  16.327  13.166  12.947
51631W        W20025  22.674  32.111  14.787
51632W        W20026  29.702   5.659   1.784
51633W        W20027  24.954  11.835   3.934
51634W        W20028  39.765  32.946   0.720
51635W        W20029  11.156  35.364  13.085
51636W        W20030  17.517  34.003   4.053
51637W        W20031  32.359  26.496  12.459
51638W        W20032  21.426  22.368  11.426
51639W        W20033  30.088  22.015   1.747
51640W        W20034  11.097  26.442   2.887
51641W        W20035  38.012  41.405   2.757
51642W        W20036   8.139  32.586   1.723
51643W        W20037  31.361  15.178   1.734
51644W        W20038  22.147   2.897  10.425
51645W        W20039  15.871   6.517  14.025
51646W        W20040  17.526  34.407   2.019
51647W        W20041  39.051   6.449   2.145
51648W        W20042  36.822  44.792   1.807
51649W        W20043  32.166   2.865   2.461
51650W        W20044  35.459  29.260  14.447
51651W        W20045  35.617  30.402   3.546
51652W        W20046  12.315  14.639   0.928
51653W        W20047  22.365   9.296   0.388
51654W        W20048   4.212  25.641  12.957
51655W        W20049  34.107  10.367   4.792
51656W        W20050  19.740  17.738   4.090
51657W        W20051  11.852   1.512   3.312
51658W        W20052  13.963  27.213  10.738
51659W        W20053  20.257  32.853   3.312
51660W        W20054  32.192  13.211  12.649
51661W        W20055  27.225  10.215   0.807
51662W        W20056  43.801   1.291  11.775
51663W        W20057  13.942  38.970   3.707
51664W        W20058  40.949  19.697  14.388
51665W        W20059  30.260  32.435  11.936
51666W        W20060   5.215  37.533   1.163
51667W        W20061  18.702  39.952  12.874
51668W        W20062  37.988  19.085  14.979
51669W        W20063  40.483  17.179  11.516
51670W        W20064  40.332  14.253   0.374
51671W        W20065   4.445  44.231   3.156
51672W        W20066   8.654   0.859  14.185
51673W        W20067   6.278  37.013  13.213
51674W        W20068  16.160   1.008   1.692
51675W        W20069  21.750   9.707  11.074
51676W        W20070   4.044   5.485   1.462
51677W        W20071  36.671  15.423   1.313
51678W        W20072  36.399  29.737  14.915
51679W        W20073   5.444  29.598  11.528
51680W        W20074  21.092  35.497   0.807
51681W        W20075  18.319  37.901  11.477
51682W        W20076  14.706  34.387  10.152
51683W        W20077   1.805   4.456   3.204
51684W        W20078  12.245  41.342  14.127
51685W        W20079  35.879  15.868  12.064
51686W        W20080  22.090  33.929   1.903
51687W        W20081  39.769  37.953  12.986
51688W        W20082   4.661   7.293  12.982
51689W        W20083  44.407  18.276   4.242
51690W        W20084  17.553   4.229  11.544
51691W        W20085  30.636   4.746  14.188
51692W        W20086  28.603  24.808  13.296
51693W        W20087  36.551  42.583   3.134
51694W        W20088  31.495   4.297   3.141
51695W        W20089  21.024   5.853  11.889
51696W        W20090  40.801  27.668   0.866
51697W        W20091  33.441  25.361  13.585
51698W        W20092  26.131  23.621   4.897
51699W        W20093   8.317  22.116  13.331
51700W        W20094   0.589  39.085  13.417
51701W        W20095  23.930  34.995   2.862
51702W        W20096  30.890  35.783   3.908
51703W        W20097  22.722  16.219   3.318
51704W        W20098  21.128   8.054   3.842
51705W        W20099  29.424  28.573   0.643
51706W        W20100   8.703  13.833   3.326
51707W        W20101  22.874   8.732   3.266
51708W        W20102   3.934  35.949   0.865
51709W        W20103  30.136  29.738  10.588
51710W        W20104  32.977   9.762  12.994
51711W        W20105  39.983   0.414   2.286
51712W        W20106  41.280  11.894   1.813
51713W        W20107  22.488  34.641  11.170
51714W        W20108   4.766   3.468   4.083
51715W        W20109  44.660  29.988  13.476
51716W        W20110  10.331  38.147  13.815
51717W        W20111  15.009   4.004  14.525
51718W        W20112  43.455  10.375   3.242
51719W        W20113  16.588  22.327  11.971
51720W        W20114  25.186  15.334  11.143
51721W        W20115   0.769  36.392   0.503
51722W        W20116   8.877  42.565  13.432
51723W        W20117   0.177  37.559  12.554
51724W        W20118  33.202   4.846  10.692
51725W        W20119   2.887  43.876  11.697
51726W        W20120  30.291  40.044   0.393
51727W        W20121  25.091  11.652   1.706
51728W        W20122  18.583  31.893  13.526
51729W        W20123  21.594  20.400   0.114
51730W        W20124  35.970  15.934  14.715
51731W        W20125   6.756  40.600  12.918
51732W        W20126   4.375  16.618  13.985
51733W        W20127  41.496  40.995   2.329
51734W        W20128  30.886  28.444  12.514
51735W        W20129  23.012  24.572   1.051
51736W        W20130  27.206  28.047   1.858
51737W        W20131  28.050  30.384   4.027
51738W        W20132  31.072  39.381  11.526
51739W        W20133   8.892   2.004   4.317
51740W        W20134  35.634  36.356   1.395
51741W        W20135  20.997  13.571   2.443
51742W        W20136  27.739   1.182  12.197
51743W        W20137  13.274  34.059  13.014
51744W        W20138  30.142  13.696   1.887
51745W        W20139  19.351   4.557  11.486
51746W        W20140  14.648   7.215   2.124
51747W        W20141   6.217  14.610  11.676
51748W        W20142  21.065  42.804   3.566
51749W        W20143  12.140  44.584  10.419
51750W        W20144  24.392   0.051  14.968
51751W        W20145  27.466  32.010   2.794
51752W        W20146  29.701  29.424  12.072
51753W        W20147   8.206  26.620   4.518
51754W        W20148  42.992  28.239  11.973
51755W        W20149   0.278   5.834  11.043
51756W        W20150  18.713   4.667   1.739
51757W        W20151   8.187   2.713  13.481
51758W        W20152  44.323   3.910   3.917
51759W        W20153  12.822  23.178   2.707
51760W        W20154  23.705   7.615   1.820
51761W        W20155  26.527  39.877   3.787
51762W        W20156  27.591   6.290  11.448
51763W        W20157   8.481  39.172  11.261
51764W        W20158  18.336  14.144  12.600
51765W        W20159  40.930  24.249  13.956
51766W        W20160  10.634  34.305   3.098
51767W        W20161  42.315  35.318  11.881
51768W        W20162  40.097  37.581   1.219
51769W        W20163  42.904  35.459  13.083
51770W        W20164  22.320  18.628   3.558
51771W        W20165  11.278  42.822   1.021
51772W        W20166  12.602   9.257   1.441
51773W        W20167  34.420   0.469  11.638
51774W        W20168  24.746  39.852   4.181
51775W        W20169  39.261  31.604  12.678
51776W        W20170  32.398  42.915   2.858
51777W        W20171  38.467  23.965   1.244
51778W        W20172  40.036  14.726   2.132
51779W        W20173  36.137  43.545  14.865
51780W        W20174  25.828  29.769   2.549
51781W        W20175  11.779   3.368  14.290
51782W        W20176  33.313   2.386  13.720
51783W        W20177  29.800  10.341  11.903
51784W        W20178  20.230  27.838   0.839
51785W        W20179  24.043   6.914  11.352
51786W        W20180  42.521  21.631  12.606
51787W        W20181  20.270  22.400   4.346
51788W        W20182   2.519  36.261   3.305
51789W        W20183  38.530  33.890   2.950
51790W        W20184  18.753  36.258   1.876
51791W        W20185  18.562   0.108   3.232
51792W        W20186  11.788   3.181   3.681
51793W        W20187  10.958  24.454  13.883
51794W        W20188  29.912   0.394  12.063
51795W        W20189  18.647  34.935   3.803
51796W        W20190  19.200  24.019   2.919
51797W        W20191  16.313  31.492   2.796
51798W        W20192  43.621  31.092   4.528
51799W        W20193  42.396  32.867  13.601
51800W        W20194  25.002  27.045  14.192
51801W        W20195  23.110  35.500   4.359
51802W        W20196  34.994   1.367   2.379
51803W        W20197  24.339   7.259  11.543
51804W        W20198  32.145  10.078   0.468
51805W        W20199   3.992  17.681  12.368
51806W        W20200  39.953  43.334   2.184
51807W        W20201   9.687  25.074   0.247
51808W        W20202  20.496  43.307  12.591
51809W        W20203   1.777  26.247   4.430
51810W        W20204  28.653  22.722   3.284
51811W        W20205  37.378  21.003  11.765
51812W        W20206   0.241  12.370   1.377
51813W        W20207  15.375  30.693  14.658
51814W        W20208  27.060   8.038  11.658
51815W        W20209  16.077   5.569   1.023
51816W        W20210   8.471  35.571   2.759
51817W        W20211   4.956  32.126  10.821
51818W        W20212   8.962  14.625   2.934
51819W        W20213  11.502   8.397   0.358
51820W        W20214  14.314  13.641   1.363
51821W        W20215  15.105  22.604  13.730
51822W        W20216  14.295  21.234   1.299
51823W        W20217   4.618  19.984  12.330
51824W        W20218   4.103  26.653   5.138
51825W        W20219  16.114  41.836  12.556
51826W        W20220  40.401   4.698   3.341
51827W        W20221   9.830   9.566  14.386
51828W        W20222  43.164   1.816   4.470
51829W        W20223  20.242  27.342  14.010
51830W        W20224  12.292  12.231   0.232
51831W        W20225  44.700   9.380   2.371
51832W        W20226  32.076  28.749  12.490
51833W        W20227   8.328  38.354   4.529
51834W        W20228   4.467  41.342  13.515
51835W        W20229  29.152   0.425   0.302
51836W        W20230  38.567  22.834   0.523
51837W        W20231  26.210  23.215  14.195
51838W        W20232  39.369   4.275  11.417
51839W        W20233  21.564  20.730  14.216
51840W        W20234   3.250   5.741  14.707
51841W        W20235  24.178  37.591  11.469
51842W        W20236  14.695  11.412  12.096
51843W        W20237  21.717  29.029  13.312
51844W        W20238  43.403   8.075  13.229
51845W        W20239  17.704   6.913   0.463
51846W        W20240  31.557  20.687   1.015
51847W        W20241  38.317  28.587  11.577
51848W        W20242  43.276  31.477  11.690
51849W        W20243  18.360   7.792  11.264
51850W        W20244  41.108  29.561   2.787
51851W        W20245  25.082  23.428   3.550
51852W        W20246  24.331  30.559  11.678
51853W        W20247  38.305  43.659   2.018
51854W        W20248  35.254  21.199   3.609
51855W        W20249   2.893  30.168   3.635
51856W        W20250  42.454  14.311  11.857
51857W        W20251  44.657  26.505  12.147
51858W        W20252  16.245  39.522   2.888
51859W        W20253  40.846  35.213   2.707
51860W        W20254  23.731  33.636   4.030
51861W        W20255   7.881  38.937  12.849
51862W        W20256  19.749  33.649  14.934
51863W        W20257  25.935  34.539   2.766
51864W        W20258  11.230  13.269   4.277
51865W        W20259  36.021   8.898  12.966
51866W        W20260  23.089   3.479   0.970
51867W        W20261  29.913  23.257   4.573
51868W        W20262  15.310  38.034  11.542
51869W        W20263  17.558  11.728   0.379
51870W        W20264  28.085  16.376   4.040
51871W        W20265   4.743   9.449  13.417
51872W        W20266  22.913  26.317  10.706
51873W        W20267   6.078  15.487   3.237
51874W        W20268  17.749  18.765   4.982
51875W        W20269  30.915  32.369  14.881
51876W        W20270  36.073  14.216  10.812
51877W        W20271  41.375  15.787   0.246
51878W        W20272  11.364   5.216  14.494
51879W        W20273  13.312  43.939   1.904
51880W        W20274  27.775  23.388  11.403
51881W        W20275  21.551  40.432  14.979
51882W        W20276  39.386  11.655  12.034
51883W        W20277  13.696  19.664  13.766
51884W        W20278  19.107   8.803  11.044
51885W        W20279  28.978  30.473  12.997
51886W        W20280   4.791   2.465   4.152
51887W        W20281  33.491  37.294   0.733
51888W        W20282   6.901  35.033  11.569
51889W        W20283  27.587   9.920  11.697
51890W        W20284  33.510  23.896  13.360
51891W        W20285  17.596  12.043   3.223
51892W        W20286  24.914  41.328  11.080
51893W        W20287  29.994  24.483   0.681
51894W        W20288  22.967  25.492   3.872
51895W        W20289  34.400  41.793   4.697
51896W        W20290   7.203   2.207   3.857
51897W        W20291  25.331  41.496  13.453
51898W        W20292  21.410  20.238  14.435
51899W        W20293   7.021  22.530   2.757
51900W        W20294  13.217   3.806  11.540
51901W        W20295   3.826  41.205  11.026
51902W        W20296  30.381  19.706   2.636
51903W        W20297  26.712  20.846   2.548
51904W        W20298  21.962  42.316  12.548
51905W        W20299  41.970  42.550  13.499
51906W        W20300  12.290  32.758   3.627
51907W        W20301   0.486  39.287   3.785
51908W        W20302  18.660   1.501  14.314
51909W        W20303  16.574  31.066  14.013
51910W        W20304  25.951  26.707  11.209
51911W        W20305   8.348   0.669  11.426
51912W        W20306   3.371  15.852   2.259
51913W        W20307   4.844  16.565   1.698
51914W        W20308  15.238  26.066  13.011
51915W        W20309  36.069  24.008  13.224
51916W        W20310  42.753  28.225   1.451
51917W        W20311   5.100   9.869  13.326
51918W        W20312   3.168  41.531  13.408
51919W        W20313   1.079  16.735  14.078
51920W        W20314  20.341  18.285   4.598
51921W        W20315  23.676  42.413   4.326
51922W        W20316   4.300   4.884  11.970
51923W        W20317   1.750  11.841   4.287
51924W        W20318  23.570  34.428  12.106
51925W        W20319  42.156  29.302   2.978
51926W        W20320  41.502  44.320  14.738
51927W        W20321  23.551  41.812   3.029
51928W        W20322   8.161  19.760   0.344
51929W        W20323  41.127   4.921  10.857
51930W        W20324  37.711  40.274  12.119
51931W        W20325   2.814  33.893  11.677
51932W        W20326  41.306  42.365  11.173
51933W        W20327  11.688  27.690  12.594
51934W        W20328  44.377  31.817  11.193
51935W        W20329   3.074  30.139   4.110
51936W        W20330  27.463  27.220   4.477
51937W        W20331  42.703  25.587   5.079
51938W        W20332   5.685   4.143   0.368
51939W        W20333  31.502  38.056  10.645
51940W        W20334  29.734  36.594  12.939
51941W        W20335  26.995  36.070   3.839
51942W        W20336  28.033   2.116  14.700
51943W        W20337  22.440  33.165   3.561
51944W        W20338   1.439  15.910  11.917
51945W        W20339   3.432   8.420   4.138
51946W        W20340  16.816  12.081  10.976
51947W        W20341  24.671  40.370   0.225
51948W        W20342  18.763  42.907  13.787
51949W        W20343  34.821   8.963  10.700
51950W        W20344  43.377  28.642  14.448
51951W        W20345   0.155   4.955  11.986
51952W        W20346  14.239  11.662  11.217
51953W        W20347  29.203  44.881   4.174
51954W        W20348  10.705  29.117  12.930
51955W        W20349  19.094  26.253   4.508
51956W        W20350  43.970  30.066   1.970
51957W        W20351  11.156  24.769  12.552
51958W        W20352   8.417  17.107  12.815
51959W        W20353   7.034  30.018  13.388
51960W        W20354  16.739  21.019  11.430
51961W        W20355  44.961  12.219   0.416
51962W        W20356  34.439  20.722  11.150
51963W        W20357  33.844  16.616   1.842
51964W        W20358  40.488  11.817   3.136
51965W        W20359  23.015  26.520  11.178
51966W        W20360  13.854  44.974   2.475
51967W        W20361  31.095  42.090   3.749
51968W        W20362  30.614   2.939  12.513
51969W        W20363  20.467  20.786  12.526
51970W        W20364  17.409  34.464  11.623
51971W        W20365  25.184  40.096  13.787
51972W        W20366  17.137  23.981  11.980
51973W        W20367  11.731   7.304   0.832
51974W        W20368  22.169  38.817   0.362
51975W        W20369  22.212  36.221   2.706
51976W        W20370   7.450   0.254   3.655
51977W        W20371  41.167  13.069  11.309
51978W        W20372  17.555   7.366   1.268
51979W        W20373  23.055  25.998  11.109
51980W        W20374   4.700  43.226  12.852
51981W        W20375  23.142   5.722   4.003
51982W        W20376   9.849  37.385   4.432
51983W        W20377  18.983  16.177  13.857
51984W        W20378   5.055  32.059   3.684
51985W        W20379  12.059   1.859  13.411
51986W        W20380  33.637  28.409  11.659
51987W        W20381  17.216  27.972  12.314
51988W        W20382   3.789  26.595   3.601
51989W        W20383   1.727   9.781   0.370
51990W        W20384  42.972  22.174  13.724
51991W        W20385  41.523   1.306   3.017
51992W        W20386  28.927  43.818   3.231
51993W        W20387  26.884  44.888   2.363
51994W        W20388  11.799  33.953  13.471
51995W        W20389  33.026  30.860   2.104
51996W        W20390   3.506  22.162   0.312
51997W        W20391  41.436   9.403  12.944
51998W        W20392  16.337  19.832  12.569
51999W        W20393  23.148  13.355   3.282
52000W        W20394  37.278   7.917   1.952
52001W        W20395  39.541   4.957  14.882
52002W        W20396   9.465  15.057  13.407
52003W        W20397  42.997  36.112  11.198
52004W        W20398  11.265  20.269   1.377
52005W        W20399  11.279  30.781  13.857
52006W        W20400  27.157  10.062  13.976
52007W        W20401  10.851  44.472  13.023
52008W        W20402  29.529   8.849  13.237
52009W        W20403  34.891   0.275  11.863
52010W        W20404  32.942  16.328  11.620
52011W        W20405  40.353  44.105   4.664
52012W        W20406  36.332  35.445   0.285
52013W        W20407  19.587  13.312   1.748
52014W        W20408  25.409  11.898   3.268
52015W        W20409  19.384  41.258  13.917
52016W        W20410  10.803  23.810  12.372
52017W        W20411  34.430  13.266   2.496
52018W        W20412   8.081  14.558  10.706
52019W        W20413  15.558  17.302  11.387
52020W        W20414  27.111  29.179   2.616
52021W        W20415  10.473  43.342  13.340
52022W        W20416   1.966   4.233  11.201
52023W        W20417  23.044  38.706  12.158
52024W        W20418  14.342  13.789  14.250
52025W        W20419  31.556   8.918   2.733
52026W        W20420  27.230  14.315   1.884
52027W        W20421  10.505  42.976   4.571
52028W        W20422  35.651   9.891  13.251
52029W        W20423  13.509  41.362  11.941
52030W        W20424  26.601  40.565  12.085
52031W        W20425  12.146  17.420  13.971
52032W        W20426  37.226  20.015  14.808
52033W        W20427  19.828  10.682   1.884
52034W        W20428  30.921   6.495   4.947
52035W        W20429  42.710  14.717  11.013
52036W        W20430  35.106  32.459  14.746
52037W        W20431  18.801   3.387  11.213
52038W        W20432  25.238  19.017   2.757
52039W        W20433  44.518  25.286   4.138
52040W        W20434  23.233  24.074  12.390
52041W        W20435   4.214  17.235  10.412
52042W        W20436  14.364   3.223  13.501
52043W        W20437  41.652  17.985  14.134
52044W        W20438  28.186  42.029  13.378
52045W        W20439   2.296  23.977   2.927
52046W        W20440  11.043  10.021  14.937
52047W        W20441  41.300  41.479  10.873
52048W        W20442   1.163   9.779   3.067
52049W        W20443  23.619   3.777  13.485
52050W        W20444  35.005  14.003   4.457
52051W        W20445   3.268  41.455   0.335
52052W        W20446  43.891   6.449   4.739
52053W        W20447  41.363   7.292  11.095
52054W        W20448  40.570  26.639   0.245
52055W        W20449  44.482  42.363  13.570
52056W        W20450   9.397  31.973   2.749
52057W        W20451  18.286   8.406  10.561
52058W        W20452  22.087  16.072   2.656
52059W        W20453   3.908  35.131   0.377
52060W        W20454  13.603  40.094   1.432
52061W        W20455   6.133  32.465  12.042
52062W        W20456   0.435   5.380  10.762
52063W        W20457  38.560  10.730   1.282
52064W        W20458  41.522  18.150   2.735
52065W        W20459  28.154  10.365  14.508
52066W        W20460  36.000   7.439   0.257
52067W        W20461  11.812  43.024   3.339
52068W        W20462  22.459  11.841   1.845
52069W        W20463  43.352   8.496  13.904
52070W        W20464   5.484   0.688   4.796
52071W        W20465  42.830  20.491  12.750
52072W        W20466  34.423  33.827   4.535
52073W        W20467   7.933  19.622   3.365
52074W        W20468   7.265  38.754  13.521
52075W        W20469  41.917   2.224   2.211
52076W        W20470  28.119  43.783   3.946
52077W        W20471   2.308  37.596  12.063
52078W        W20472  18.852  16.284   2.426
52079W        W20473   2.437  27.680  12.399
52080W        W20474  17.628   7.662   0.838
52081W        W20475   9.243  44.519  11.645
52082W        W20476  23.269  12.834   0.477
52083W        W20477  19.515  11.343   1.722
52084W        W20478   3.904  15.312   1.183
52085W        W20479  11.744   9.306  12.991
52086W        W20480  13.996   8.661  11.688
52087W        W20481  18.714  35.423  13.340
52088W        W20482   7.584   2.939  14.902
52089W        W20483  21.009   1.880   4.630
52090W        W20484  16.616   0.486   2.421
52091W        W20485  25.445  16.440  12.157
52092W        W20486  43.755  17.105  14.009
52093W        W20487   3.387  12.450   1.795
52094W        W20488   7.866  27.074   1.175
52095W        W20489   3.413   3.137   4.529
52096W        W20490   8.887  19.746  12.026
52097W        W20491  38.577   1.827  14.304
52098W        W20492  37.009   8.832  11.430
52099W        W20493   4.770  23.729   4.764
52100W        W20494  38.556   2.974  11.482
52101W        W20495  20.820  25.948  10.121
52102W        W20496   2.273  36.751   3.273
52103W        W20497  23.094   5.343   4.857
52104W        W20498   0.997  11.064  11.236
52105W        W20499  16.801   5.556   4.928
52106W        W20500  40.054  34.471   2.808
52107W        W20501  22.756  31.040  11.569
52108W        W20502  21.280  27.907  10.703
52109W        W20503  37.547  19.306   0.229
52110W        W20504   9.427  10.064   1.338
52111W        W20505  26.162  42.988   5.262
52112W        W20506  22.687  20.669   2.758
52113W        W20507  44.923  16.296   3.159
52114W        W20508  34.398   7.106   4.665
52115W        W20509  35.628  36.024  13.960
52116W        W20510  17.017  32.525   0.717
52117W        W20511   0.870  12.348   0.300
52118W        W20512  31.851   1.046  13.590
52119W        W20513  14.117   4.997  13.996
52120W        W20514  12.720   3.920  11.643
52121W        W20515   8.170  26.568  13.376
52122W        W20516  39.054  30.662  13.459
52123W        W20517  12.787  19.216  10.576
52124W        W20518  39.829  20.645   2.830
52125W        W20519   2.002  41.797   0.853
52126W        W20520  22.675   2.280   4.640
52127W        W20521   1.915   9.601   2.800
52128W        W20522  25.700  37.986   4.396
52129W        W20523  11.108  13.921  14.210
52130W        W20524  14.891  31.429   2.350
52131W        W20525  38.100  16.118  12.014
52132W        W20526  40.329  16.615   2.970
52133W        W20527  39.888  32.950   3.761
52134W        W20528  30.383  31.556  12.916
52135W        W20529  25.593   7.960  11.065
52136W        W20530  29.464  22.878  10.620
52137W        W20531  15.478  35.428  12.681
52138W        W20532  40.286   3.163  13.854
52139W        W20533  17.760  29.311  14.237
52140W        W20534  12.858  17.572   4.576
52141W        W20535  27.482  11.323  11.614
52142W        W20536   9.341  30.113  11.958
52143W        W20537   0.141  25.457   3.743
52144W        W20538   1.583  40.356   1.162
52145W        W20539  28.851  28.876  11.164
52146W        W20540  39.506  25.166  13.499
52147W        W20541  31.072   6.814   0.285
52148W        W20542   6.412  27.221  14.828
52149W        W20543   6.337   8.426   3.343
52150W        W20544  41.449  16.697   2.175
52151W        W20545  12.794  16.059   0.832
52152W        W20546  36.853  28.104  11.219
52153W        W20547  33.580   2.246  14.564
52154W        W20548  40.863   0.572   3.757
52155W        W20549  23.431  21.407   1.249
52156W        W20550   1.329  25.979   0.959
52157W        W20551  12.547  36.209  14.970
52158W        W20552  23.727  39.367   2.563
52159W        W20553   5.122   2.214   3.830
52160W        W20554  26.416   7.789  14.515
52161W        W20555  30.077   7.211   2.106
52162W        W20556  19.535  19.478   1.962
52163W        W20557  13.943  15.126  12.176
52164W        W20558   2.695  13.959   3.131
52165W        W20559  18.271  15.604  11.049
52166W        W20560   2.237  36.925   2.778
52167W        W20561  28.613  35.097  10.828
52168W        W20562  15.445  15.881   1.464
52169W        W20563  35.342  27.678   1.743
52170W        W20564   9.304   4.779   0.750
52171W        W20565  14.695  39.887   1.828
52172W        W20566  34.441  24.479  13.154
52173W        W20567  24.006   9.327   3.347
52174W        W20568  11.880  33.723   1.701
52175W        W20569  27.158  44.744  12.043
52176W        W20570  11.899  36.438   4.200
52177W        W20571  28.216  29.363  10.726
52178W        W20572  40.279   8.237   0.877
52179W        W20573  25.206  19.953  13.569
52180W        W20574  30.865   2.793  12.928
52181W        W20575  24.566   8.268   3.039
52182W        W20576  38.702  26.467  10.804
52183W        W20577  36.558  18.150   2.178
52184W        W20578  19.028   9.258  12.419
52185W        W20579  12.250   1.490  12.034
52186W        W20580   6.698  27.509  12.441
52187W        W20581   4.946  35.066   0.689
52188W        W20582  31.058  11.914  13.548
52189W        W20583   0.144   2.850  12.585
52190W        W20584  43.954  37.727  14.567
52191W        W20585  35.563  32.992  14.507
52192W        W20586  19.420  29.190   3.247
52193W        W20587  25.572  15.691   2.748
52194W        W20588  43.356  33.121   1.786
52195W        W20589  36.923  18.002   3.883
52196W        W20590  21.740  29.007   2.394
52197W        W20591  39.541  10.326  11.601
52198W        W20592  22.473  22.923  12.611
52199W        W20593  42.622  37.759  14.051
52200W        W20594  12.165  28.295   1.045
52201W        W20595   3.857  12.123  12.894
52202W        W20596  23.436  36.496   3.321
52203W        W20597   1.950   8.716   0.559
52204W        W20598  39.338   3.988  13.001
52205W        W20599  15.651  41.259  10.266
52206W        W20600  11.088  26.231  10.623
52207W        W20601   9.297  30.424  14.869
52208W        W20602   9.287   2.237   0.693
52209W        W20603   1.181   9.381  14.393
52210W        W20604  23.624   1.881   0.931
52211W        W20605   9.682  23.691   4.174
52212W        W20606  36.668  41.276   0.921
52213W        W20607  29.524  15.313   2.343
52214W        W20608  37.660   5.232   1.820
52215W        W20609  39.946  13.192   4.798
52216W        W20610   8.367  42.035  13.084
52217W        W20611  36.752   9.200  12.157
52218W        W20612   3.291  16.139  14.342
52219W        W20613  28.218   4.017  14.931
52220W        W20614  41.240  11.699   2.705
52221W        W20615  10.903   4.622   3.991
52222W        W20616  18.650  43.988   1.015
52223W        W20617  24.559  18.074  13.256
52224W        W20618  26.962  32.562   2.418
52225W        W20619  19.935   5.146  11.048
52226W        W20620  35.965   0.460   1.849
52227W        W20621  31.457  10.355  10.991
52228W        W20622  42.256  32.227  12.489
52229W        W20623  19.627   0.763   2.703
52230W        W20624   6.391   6.103   0.648
52231W        W20625   8.449   8.445   4.066
52232W        W20626  42.922  17.749   4.353
52233W        W20627  25.961   9.665  14.338
52234W        W20628  44.426   1.878   0.810
52235W        W20629  11.911  11.111  11.195
52236W        W20630   8.789  39.514   1.804
52237W        W20631  38.157  30.092   1.073
52238W        W20632  36.128  14.675  11.070
52239W        W20633  44.429  42.487   4.620
52240W        W20634   9.348  32.147   3.676
52241W        W20635  41.713  21.715   3.655
52242W        W20636  16.749   0.169  13.210
52243W        W20637  19.077  33.109   1.254
52244W        W20638  23.701   7.161   0.900
52245W        W20639   0.729  33.992  12.118
52246W        W20640  11.846  11.749  13.819
52247W        W20641  18.669  12.355   1.740
52248W        W20642  20.733  38.038  14.374
52249W        W20643  13.810  24.604   4.171
52250W        W20644  25.149  24.994  11.705
52251W        W20645   7.967   2.754  11.452
52252W        W20646   4.811  33.690   3.697
52253W        W20647  14.246  35.030   2.938
52254W        W20648  10.967  43.588   0.799
52255W        W20649  39.499   3.484  11.899
52256W        W20650  15.296  10.903  14.818
52257W        W20651   2.935  38.839  11.963
52258W        W20652  40.515  35.926  14.491
52259W        W20653  43.977  17.473  11.497
52260W        W20654  20.046  13.652  13.131
52261W        W20655  26.954  36.537  12.549
52262W        W20656  26.106  18.269   0.791
52263W        W20657  32.498  27.827  12.788
52264W        W20658  37.811  15.706   0.883
52265W        W20659  40.295  14.103  10.396
52266W        W20660   3.476   7.651  10.768
52267W        W20661   0.927  21.534   3.334
52268W        W20662  16.968  17.960  11.523
52269W        W20663  30.416  13.826  11.095
52270W        W20664   5.216  18.815  12.549
52271W        W20665  32.446  29.414   4.171
52272W        W20666   0.290  39.414  10.359
52273W        W20667   9.852  11.641   0.490
52274W        W20668  17.157   5.222   3.685
52275W        W20669  38.987   2.852   0.292
52276W        W20670   9.682  25.445  12.980
52277W        W20671  21.246   8.262   1.758
52278W        W20672   2.995  14.875  13.920
52279W        W20673   4.975  19.611   1.837
52280W        W20674   0.930  20.644   3.274
52281W        W20675  36.923   1.962  12.172
52282W        W20676  40.730  17.910   4.043
52283W        W20677  22.655  32.119   0.669
52284W        W20678  18.590   6.871   0.535
52285W        W20679  39.004  32.477  12.322
52286W        W20680  10.484  37.079  10.990
52287W        W20681  10.862  21.164   0.833
52288W        W20682  43.754  22.882   3.367
52289W        W20683  28.541  26.601  11.051
52290W        W20684  18.328  24.327   1.209
52291W        W20685   2.426   3.201  12.447
52292W        W20686  14.547  33.428  14.702
52293W        W20687  38.149   5.429  13.364
52294W        W20688  37.724  42.481   4.356
52295W        W20689  15.203  34.199  14.562
52296W        W20690  39.432  11.272   3.483
52297W        W20691   8.191  15.055   3.841
52298W        W20692  28.498   8.928   0.955
52299W        W20693  20.135  39.979  13.478
52300W        W20694  14.426  40.394  14.070
52301W        W20695  28.393   2.976   2.646
52302W        W20696  40.273  21.006  14.417
52303W        W20697  20.539   3.418  11.034
52304W        W20698  37.980   3.269   4.194
52305W        W20699  41.260   0.452  12.903
52306W        W20700  17.779  12.589  11.102
52307W        W20701   1.290  40.443  14.764
52308W        W20702  29.082  28.938  12.995
52309W        W20703   4.773  11.200  14.135
52310W        W20704  16.496  27.661   2.306
52311W        W20705  12.929  24.816   1.767
52312W        W20706  19.564  13.552   0.362
52313W        W20707  26.181   6.836   3.588
52314W        W20708  34.214  15.290   2.773
52315W        W20709   7.443  38.289   3.102
52316W        W20710  41.424  19.485  14.440
52317W        W20711  11.888  17.789   2.510
52318W        W20712  28.874  44.042   2.310
52319W        W20713  39.704  11.059   2.418
52320W        W20714   2.221  34.811  11.087
52321W        W20715  11.407  20.563   1.803
52322W        W20716  30.539  14.276   3.612
52323W        W20717  44.911  20.437  14.433
52324W        W20718  44.643  27.151   0.274
52325W        W20719  42.901  33.392   0.420
52326W        W20720  29.738  27.307  12.506
52327W        W20721  42.258  19.161  11.719
52328W        W20722  25.660  16.615   1.271
52329W        W20723  44.503  41.378  11.897
52330W        W20724   2.926  34.692   1.482
52331W        W20725   5.162  19.133   2.653
52332W        W20726  36.587  22.168   3.328
52333W        W20727   9.276  25.107   0.981
52334W        W20728  42.798   5.756   3.341
52335W        W20729  25.330  21.843  10.769
52336W        W20730  34.992  40.431   3.201
52337W        W20731   6.312  34.889   2.788
52338W        W20732  12.916  25.733  12.539
52339W        W20733  26.167  23.569   0.393
52340W        W20734  35.502   2.510  13.519
52341W        W20735  14.075  27.261  11.984
52342W        W20736   9.241  38.146   1.955
52343W        W20737   0.724  26.109  14.763
52344W        W20738  30.416  15.124  12.520
52345W        W20739  42.235  20.004   4.662
52346W        W20740  38.271  42.931  10.290
52347W        W20741  13.855   8.610   2.783
52348W        W20742  34.512  44.961  10.842
52349W        W20743  39.392   9.817  13.470
52350W        W20744   9.095  11.302  13.571
52351W        W20745   7.232  43.985  12.881
52352W        W20746  39.195  31.858   4.565
52353W        W20747  35.003  29.425   2.094
52354W        W20748   8.902  44.358   4.608
52355W        W20749  10.248  36.889  14.916
52356W        W20750  38.957  38.285  10.191
52357W        W20751   7.444  17.271   3.339
52358W        W20752   7.807  28.073   0.181
52359W        W20753  15.341  31.652   3.158
52360W        W20754  19.057  35.988  13.377
52361W        W20755   1.009  31.074   4.118
52362W        W20756  16.367   5.292   3.231
52363W        W20757  23.752  40.957  13.079
52364W        W20758  11.667  17.652   0.942
52365W        W20759  10.656  25.649  13.955
52366W        W20760  30.028  13.298  11.709
52367W        W20761  37.554  38.052   4.548
52368W        W20762  39.007  32.115  12.855
52369W        W20763   0.705  39.562  11.691
52370W        W20764  19.043  29.414   2.185
52371W        W20765  18.008  29.462  13.785
52372W        W20766  43.200  40.376   1.922
52373W        W20767  36.603  12.108   4.098
52374W        W20768  33.120  40.844   2.760
52375W        W20769  36.166  39.996  11.271
52376W        W20770  41.352  17.735   1.677
52377W        W20771  20.949  42.397   1.450
52378W        W20772  39.480  30.094  11.973
52379W        W20773  40.073  22.503   2.811
52380W        W20774  28.492  33.459   0.945
52381W        W20775   4.908   9.097   1.409
52382W        W20776  16.876   6.100   2.774
52383W        W20777  42.304  41.287   3.291
52384W        W20778  13.994   0.152   4.800
52385W        W20779  42.392   8.692   1.522
52386W        W20780  38.855  44.876  10.439
52387W        W20781  43.002   4.781  10.481
52388W        W20782  44.607  32.482  12.420
52389W        W20783  18.410   7.455   4.984
52390W        W20784  41.368  32.097   1.325
52391W        W20785  17.659   7.548  12.012
52392W        W20786  44.797  19.527  11.501
52393W        W20787  39.763  42.599   0.552
52394W        W20788   7.804  19.560   1.829
52395W        W20789  43.206  33.515  12.345
52396W        W20790  12.156   4.959   4.300
52397W        W20791  27.625   0.458   4.649
52398W        W20792  30.131  12.697  11.990
52399W        W20793  38.978   0.277  14.680
52400W        W20794   5.716   2.502   0.914
52401W        W20795  31.457  41.891   0.873
52402W        W20796  29.251   0.212  12.544
52403W        W20797   2.409  19.640  12.886
52404W        W20798  21.033   2.894   3.378
52405W        W20799   7.497   1.923  11.665
52406W        W20800  31.008  32.072   2.312
52407W        W20801  44.188  12.875   2.904
52408W        W20802  26.239  38.577   3.133
52409W        W20803  27.568  44.331   1.448
52410W        W20804  29.614  13.626   1.698
52411W        W20805  16.061  34.043  14.670
52412W        W20806  13.543  26.601  11.646
52413W        W20807   4.647  38.912  10.781
52414W        W20808  26.827  15.320   4.986
52415W        W20809  10.835   8.367   1.738
52416W        W20810  39.834   2.459   2.676
52417W        W20811   8.191  18.275  11.072
52418W        W20812   5.235  43.752  10.784
52419W        W20813  21.459  11.781   1.724
52420W        W20814  31.115   6.420   0.926
52421W        W20815  33.647  35.521  13.406
52422W        W20816   5.825  18.139   2.432
52423W        W20817  37.033  20.819  12.111
52424W        W20818  35.216  13.835  13.943
52425W        W20819  37.520   0.392  13.495
52426W        W20820  31.861   1.295   1.196
52427W        W20821  34.607  44.223  11.207
52428W        W20822  30.191   4.302   3.769
52429W        W20823  13.795   0.806   4.171
52430W        W20824   2.210  10.161  14.428
52431W        W20825   3.296  17.200   5.110
52432W        W20826  13.829   9.772   4.435
52433W        W20827  33.042  43.987   1.843
52434W        W20828  31.083  11.084   3.237
52435W        W20829  25.988   3.459   0.001
52436W        W20830   3.713  21.775  10.628
52437W        W20831  13.655  22.740  12.010
52438W        W20832  38.555  20.297   4.099
52439W        W20833   2.317   8.907  10.288
52440W        W20834  32.782  18.453   0.660
52441W        W20835  21.714  42.488  14.953
52442W        W20836   2.569  34.468  11.878
52443W        W20837  17.755   6.633  12.188
52444W        W20838  26.094  28.452   4.174
52445W        W20839  24.825   4.385   1.899
52446W        W20840  37.961   1.177  14.003
52447W        W20841   0.512   8.793  14.500
52448W        W20842   7.860  10.900  14.396
52449W        W20843  20.759  19.664   0.897
52450W        W20844  18.499  33.989  13.876
52451W        W20845  19.548   6.230  12.285
52452W        W20846  15.557   2.326  11.554
52453W        W20847  43.748  39.438  12.546
52454W        W20848  15.608   4.689  12.971
52455W        W20849  41.975  20.187   0.423
52456W        W20850  27.512  18.030  14.809
52457W        W20851   6.258   9.561   0.266
52458W        W20852  17.115  37.967  12.036
52459W        W20853  38.831  15.195  11.225
52460W        W20854  11.398  33.633  10.296
52461W        W20855   6.971   0.275  13.118
52462W        W20856  25.366  41.391  12.546
52463W        W20857  21.545   0.139   2.356
52464W        W20858  34.456  19.158   0.688
52465W        W20859  28.964  10.630   1.905
52466W        W20860  14.604   0.426  13.483
52467W        W20861  21.414  18.523  12.573
52468W        W20862  14.209  31.689  11.578
52469W        W20863  27.118  42.804  11.649
52470W        W20864  29.675  25.420  10.704
52471W        W20865  33.448  15.472  14.957
52472W        W20866   5.417  32.004   1.063
52473W        W20867  13.038  18.482  10.553
52474W        W20868   6.323   0.506  14.369
52475W        W20869   9.576  29.147  14.315
52476W        W20870  33.113   9.869  11.509
52477W        W20871  42.263  29.477   0.009
52478W        W20872  28.564  35.542   3.977
52479W        W20873   1.422  37.437   0.990
52480W        W20874   1.477  37.107   1.865
52481W        W20875  15.369  23.471   1.426
52482W        W20876  19.699  18.835  14.108
52483W        W20877  34.213  22.043   1.477
52484W        W20878  24.973  20.251  14.489
52485W        W20879   4.925  36.966  13.271
52486W        W20880   8.901  14.338   3.389
52487W        W20881  42.792  14.652  14.459
52488W        W20882   5.433  37.906   3.625
52489W        W20883  34.871  30.674   4.038
52490W        W20884   4.651   5.240  10.726
52491W        W20885  29.883  35.170   4.130
52492W        W20886  29.214  27.500   2.781
52493W        W20887  20.433  17.880   4.888
52494W        W20888   7.581  38.919   3.682
52495W        W20889  37.768  33.793  10.988
52496W        W20890  34.072  37.398  14.762
52497W        W20891  29.043   9.145   4.378
52498W        W20892   7.785  41.484  10.712
52499W        W20893  20.208  19.779  14.915
52500W        W20894  22.696   9.895   0.842
52501W        W20895  22.998   6.210  12.589
52502W        W20896  40.373   2.279   1.736
52503W        W20897  32.481  31.667   2.260
52504W        W20898  23.944  37.753   3.341
52505W        W20899  29.868  25.661  11.114
52506W        W20900  38.071  20.354   4.721
52507W        W20901   6.489  34.626   4.666
52508W        W20902   7.445  23.763   3.927
52509W        W20903   2.945  26.906   3.192
52510W        W20904  11.754  19.663  13.565
52511W        W20905  25.219  11.098  12.094
52512W        W20906  19.113  40.410  14.923
52513W        W20907  15.569  19.514   4.130
52514W        W20908  42.638   7.018   1.926
52515W        W20909   5.088  15.577   2.763
52516W        W20910  35.874  24.438   0.874
52517W        W20911  32.021  29.224   3.596
52518W        W20912  29.209  17.068  13.161
52519W        W20913  21.928   1.879  12.117
52520W        W20914  19.117  33.199  14.523
52521W        W20915   3.509  31.007  11.647
52522W        W20916  29.092  42.919  13.781
52523W        W20917  15.175  20.447   3.814
52524W        W20918  36.789   8.288  13.761
52525W        W20919  16.609  11.491   4.133
52526W        W20920   3.738   2.102  13.184
52527W        W20921   4.366  32.277  14.789
52528W        W20922  39.941  30.039  10.693
52529W        W20923  39.589  43.521   1.356
52530W        W20924   5.174  15.705   0.908
52531W        W20925  10.274  37.914  14.272
52532W        W20926  22.996  29.456  10.653
52533W        W20927  17.131   0.352   0.355
52534W        W20928  32.105  39.931   1.942
52535W        W20929  25.257  27.511   1.808
52536W        W20930  40.198  11.379   0.230
52537W        W20931  42.529  37.676   3.618
52538W        W20932  35.466  32.532   0.256
52539W        W20933  23.231  17.760  13.452
52540W        W20934  37.699  44.374   0.696
52541W        W20935   0.756  24.245  14.744
52542W        W20936   9.708  22.145  13.125
52543W        W20937   0.516   9.353  12.473
52544W        W20938   6.269  24.905   3.745
52545W        W20939  32.106   1.990   2.229
52546W        W20940  43.496  38.129  13.791
52547W        W20941  39.563  25.555   4.759
52548W        W20942  26.280  29.126  12.697
52549W        W20943   4.853  16.777  10.296
52550W        W20944  20.351  13.313  13.379
52551W        W20945  18.170  36.343   0.429
52552W        W20946  28.122  16.780  14.802
52553W        W20947   5.043  20.164   0.253
52554W        W20948   7.498   7.368  12.793
52555W        W20949  21.328  18.233   2.285
52556W        W20950   2.246  35.452   0.809
52557W        W20951  15.952  41.861   4.617
52558W        W20952  19.014  29.960  11.168
52559W        W20953  30.063   4.878   4.595
52560W        W20954   8.219  33.877  10.483
52561W        W20955  30.685  40.083   1.410
52562W        W20956  36.454  39.929   4.951
52563W        W20957  25.123  39.935   3.839
52564W        W20958   6.698  10.144   0.380
52565W        W20959  44.485   1.844   4.089
52566W        W20960  17.369  11.423   2.941
52567W        W20961  23.421  31.896  12.529
52568W        W20962  11.788  25.198  10.744
52569W        W20963  22.651  30.130  11.145
52570W        W20964  28.743  43.019   3.714
52571W        W20965  42.374   6.196  14.771
52572W        W20966  32.889  31.582  12.998
52573W        W20967  43.867  16.727   0.079
52574W        W20968   9.347  22.622   2.287
52575W        W20969  20.157  14.366   2.195
52576W        W20970  17.135  14.358  14.284
52577W        W20971  29.419   0.995  14.481
52578W        W20972  28.862  12.813   3.671
52579W        W20973  44.552  23.776   1.774
52580W        W20974   8.677  20.746  13.380
52581W        W20975   2.437   4.790   0.186
52582W        W20976  28.410  37.035  12.933
52583W        W20977  17.783   4.334   2.357
52584W        W20978  33.028  20.645   0.259
52585W        W20979   5.325  25.981   2.797
52586W        W20980  31.625   9.431   2.755
52587W        W20981   0.485  43.298   0.715
52588W        W20982  23.980  25.005   2.858
52589W        W20983  22.181   1.273   2.663
52590W        W20984   2.968  24.644  14.983
52591W        W20985  30.160  43.701   2.509
52592W        W20986  14.117  34.647  13.216
52593W        W20987  18.202  32.843   1.076
52594W        W20988  27.134  28.228  10.754
52595W        W20989   1.435  16.431   0.761
52596W        W20990  15.304  36.472  13.788
52597W        W20991   0.255  36.948   4.939
52598W        W20992  34.473  20.504   3.195
52599W        W20993  13.320  34.468   2.287
52600W        W20994  23.588  15.266   3.152
52601W        W20995  23.446  17.769   3.869
52602W        W20996  37.585  33.958  12.650
52603W        W20997  31.052  41.489  14.981
52604W        W20998  21.798  27.364   1.737
52605W        W20999   7.973  36.114   1.903
52606W        W21000  20.422  13.058   1.711
52607W        W21001  23.038  34.706   0.714
52608W        W21002   6.602   9.336  10.797
52609W        W21003  37.993   2.283   1.005
52610W        W21004  35.789  43.780  11.908
52611W        W21005  13.600  23.311   1.016
52612W        W21006  29.222  27.476   3.784
52613W        W21007   2.028  27.462   1.198
52614W        W21008  23.708  28.562  12.187
52615W        W21009  25.348  23.721  14.321
52616W        W21010  27.433  23.925  12.622
52617W        W21011  17.837   8.113   0.757
52618W        W21012   7.994   9.708   2.889
52619W        W21013  19.985   5.545   2.613
52620W        W21014  30.548  20.967   3.412
52621W        W21015  40.000   7.281   4.531
52622W        W21016  16.713  24.109  13.015
52623W        W21017  41.957   3.861  12.102
52624W        W21018   8.881   3.064  11.115
52625W        W21019  22.590   2.993  10.740
52626W        W21020  31.517  24.471  10.675
52627W        W21021  39.339  28.105   3.306
52628W        W21022  18.389  14.315  13.482
52629W        W21023  18.166  13.767   3.270
52630W        W21024   7.891  34.478  12.047
52631W        W21025  28.211  41.827  13.891
52632W        W21026  39.089  40.309   1.879
52633W        W21027  29.153  16.239   3.144
52634W        W21028  38.642  26.536   2.918
52635W        W21029  25.549  13.837  13.460
52636W        W21030   6.270   1.256   4.649
52637W        W21031   7.480  25.951  11.945
52638W        W21032  12.098  29.716  13.449
52639W        W21033   5.075  20.228  13.749
52640W        W21034  12.607  12.006   3.418
52641W        W21035  16.200   5.847   2.622
52642W        W21036  11.809  43.952  11.101
52643W        W21037  14.730  19.897   0.313
52644W        W21038  10.745  13.895   3.377
52645W        W21039  39.499  19.925   2.199
52646W        W21040  17.741  23.535  10.759
52647W        W21041  36.626  24.751   1.137
52648W        W21042  27.141   1.456  10.611
52649W        W21043   6.209   6.113   0.169
52650W        W21044  34.409  21.034  13.446
52651W        W21045  24.479  34.973  10.473
52652W        W21046  36.462   4.153   1.746
52653W        W21047  34.560   5.180  12.583
52654W        W21048   9.310  37.620  12.478
52655W        W21049  43.331   9.686   1.225
52656W        W21050   8.825   3.014   1.142
52657W        W21051  10.409  32.028   4.545
52658W        W21052  38.039  26.664  14.824
52659W        W21053  30.252   1.632   4.568
52660W        W21054   1.313  15.592   3.136
52661W        W21055  40.477  43.338   1.756
52662W        W21056  29.160  38.976   3.777
52663W        W21057   3.446  14.130  12.564
52664W        W21058  19.706  39.317   4.693
52665W        W21059  17.223   8.296  11.603
52666W        W21060  39.657  10.282   0.799
52667W        W21061  11.598  33.435  14.437
52668W        W21062  35.919   7.893  10.831
52669W        W21063  14.918  16.439   4.247
52670W        W21064  19.913  23.564   2.672
52671W        W21065  39.355   5.147   0.344
52672W        W21066   1.069  27.224   3.012
52673W        W21067  34.374   2.431  12.434
52674W        W21068  43.385  10.196  10.245
52675W        W21069   5.844   5.119  12.357
52676W        W21070   2.827  20.054   0.688
52677W        W21071  20.536  44.911  12.110
52678W        W21072  38.956   3.758   0.027
52679W        W21073  11.811  37.130  14.250
52680W        W21074  29.540  12.758   2.125
52681W        W21075   2.254  43.293   0.380
52682W        W21076  16.115  15.780   2.008
52683W        W21077  28.998  39.982   3.723
52684W        W21078   3.129  24.573   4.193
52685W        W21079  12.922  19.712   3.677
52686W        W21080  29.569  33.026   4.949
52687W        W21081  18.666   7.653  10.863
52688W        W21082  35.444  43.404   1.300
52689W        W21083  39.033  17.598   0.518
52690W        W21084   4.025  38.884  14.288
52691W        W21085  23.437  19.703  14.467
52692W        W21086  11.478  13.229  10.720
52693W        W21087  33.391   9.333   0.772
52694W        W21088  41.253  22.041   4.871
52695W        W21089  14.899  15.164  13.806
52696W        W21090   6.943  11.341  11.544
52697W        W21091  14.481  18.002   1.413
52698W        W21092  43.470  40.753  14.417
52699W        W21093  20.031  18.650  12.943
52700W        W21094  27.557  30.395   3.822
52701W        W21095  13.285  30.572  13.182
52702W        W21096  40.531  19.257  13.484
52703W        W21097  16.367  16.646  13.967
52704W        W21098  30.181  27.142   4.096
52705W        W21099   4.930  26.710  11.526
52706W        W21100  27.594  40.056   1.482
52707W        W21101  24.127   8.853  14.943
52708W        W21102  37.371  27.677   1.831
52709W        W21103  39.923  25.784  13.956
52710W        W21104  18.046  21.247  14.057
52711W        W21105  36.192  42.580   4.208
52712W        W21106  32.106   3.957   0.565
52713W        W21107  39.016  24.508   4.927
52714W        W21108  44.506  31.869   5.041
52715W        W21109  11.165  33.665   4.170
52716W        W21110  19.197   9.715  11.643
52717W        W21111  23.201   8.423  14.380
52718W        W21112   9.658  13.630  13.858
52719W        W21113   5.381  37.308   1.669
52720W        W21114   2.295   6.305   1.678
52721W        W21115  43.854  10.118  10.004
52722W        W21116   6.375  20.779  12.463
52723W        W21117  22.657  31.330   1.934
52724W        W21118  34.112  18.829   0.478
52725W        W21119   3.388   5.987  13.405
52726W        W21120  24.616  19.173   0.751
52727W        W21121  41.465  18.755  12.074
52728W        W21122  30.454  43.486  11.288
52729W        W21123  10.835  14.213   3.790
52730W        W21124  14.608  26.088  12.451
52731W        W21125  12.612  37.828  12.965
52732W        W21126  34.968  34.937   1.853
52733W        W21127  28.343  23.299  11.370
52734W        W21128  20.488  37.448   0.812
52735W        W21129  34.601  22.162  12.130
52736W        W21130  36.499  41.022  14.387
52737W        W21131  26.916  41.365  14.324
52738W        W21132  36.637  33.056   0.543
52739W        W21133  16.180  38.840   2.168
52740W        W21134  43.348  28.746   0.880
52741W        W21135  27.394  18.533  13.894
52742W        W21136  41.992   3.857  14.574
52743W        W21137  41.333  29.462  11.971
52744W        W21138  33.535  16.300   3.425
52745W        W21139  36.321  40.558  14.516
52746W        W21140   0.619  13.090  10.937
52747W        W21141  11.526  43.133  11.655
52748W        W21142  28.940  39.561   4.037
52749W        W21143  34.338  37.567  11.555
52750W        W21144  26.591  33.622   4.468
52751W        W21145  40.153  16.550  11.044
52752W        W21146  21.960  32.454  14.385
52753W        W21147  39.898  22.484  10.721
52754W        W21148  42.054  25.618  11.674
52755W        W21149  29.232  15.890  12.494
52756W        W21150   2.541   6.659   4.368
52757W        W21151  24.062  23.696  12.712
52758W        W21152  19.075  29.886   4.074
52759W        W21153  41.462   2.495   2.149
52760W        W21154   5.933  25.132  12.012
52761W        W21155   8.260   1.465   1.791
52762W        W21156  17.802  28.354  12.958
52763W        W21157   1.321   4.328  14.070
52764W        W21158  16.443  17.571  13.503
52765W        W21159  21.594  10.332   4.239
52766W        W21160   5.297   3.224  14.968
52767W        W21161   0.012  12.225  13.886
52768W        W21162  30.598  26.198   0.439
52769W        W21163  39.076  17.929  13.020
52770W        W21164  39.122   9.115  13.246
52771W        W21165  24.608  30.231  14.600
52772W        W21166  39.111  10.873   3.576
52773W        W21167  44.777   8.406  14.331
52774W        W21168  12.992  33.665   0.522
52775W        W21169  37.756   6.695  11.718
52776W        W21170   1.757  28.184   0.337
52777W        W21171  43.843  37.878  13.022
52778W        W21172  18.296  32.920   0.588
52779W        W21173   0.784  29.953  14.789
52780W        W21174   2.929  29.892  13.611
52781W        W21175   6.067  31.213  14.816
52782W        W21176  40.566  42.019  10.899
52783W        W21177   2.427  19.293   3.787
52784W        W21178  17.756   3.766   2.794
52785W        W21179  31.171  36.993   0.258
52786W        W21180   1.292   3.672  10.958
52787W        W21181  28.536   7.737   2.229
52788W        W21182  13.757  38.428  13.032
52789W        W21183  14.418  29.219   4.131
52790W        W21184   4.235   4.406   9.739
52791W        W21185  44.438  29.147  11.140
52792W        W21186  18.736  19.430  11.990
52793W        W21187   0.713   4.951   4.833
52794W        W21188  14.646  31.908   2.636
52795W        W21189   9.369  16.857   3.619
52796W        W21190  17.569  44.269   1.074
52797W        W21191  37.602  23.736   2.343
52798W        W21192  18.079  24.497   3.900
52799W        W21193  23.706   9.997  11.969
52800W        W21194  16.079  22.443  11.898
52801W        W21195  34.516  16.532  11.000
52802W        W21196  35.814  30.483   2.993
52803W        W21197  10.849  31.525  11.696
52804W        W21198  40.280  20.189   2.402
52805W        W21199  14.650  11.716   0.362
52806W        W21200  24.529   1.879  12.153
52807W        W21201  37.960  39.311   0.972
52808W        W21202  28.168   0.926  12.473
52809W        W21203  16.287  38.076   2.901
52810W        W21204  40.560  42.285   4.369
52811W        W21205  22.000  34.592  12.124
52812W        W21206  37.990  33.642   1.405
52813W        W21207  20.694  10.613   4.459
52814W        W21208  33.381  31.664   2.285
52815W        W21209  16.290  20.908  11.997
52816W        W21210  38.162   9.836   4.454
52817W        W21211  30.646   1.474  11.109
52818W        W21212   8.213   5.648  12.977
52819W        W21213  25.507  29.002  10.735
52820W        W21214  32.019  42.731   5.052
52821W        W21215   7.752  30.774   0.292
52822W        W21216   5.221  21.271  13.880
52823W        W21217  13.800  42.804   1.912
52824W        W21218  43.536  17.046  12.392
52825W        W21219  15.695   1.683  10.871
52826W        W21220  26.521  15.585  14.078
52827W        W21221   3.475  21.616   1.734
52828W        W21222  24.136  40.804   2.344
52829W        W21223   0.415   2.777  11.173
52830W        W21224  30.754  26.813   1.448
52831W        W21225  27.367  30.595   0.250
52832W        W21226  26.968   0.707   2.768
52833W        W21227  43.749  44.408  14.397
52834W        W21228   2.506  29.896   0.386
52835W        W21229  30.687  25.626   3.827
52836W        W21230  43.854  41.342   1.414
52837W        W21231  15.834  21.278  10.267
52838W        W21232  38.803   2.852   4.057
52839W        W21233  38.542  13.605  13.953
52840W        W21234  24.503   5.414   3.322
52841W        W21235  22.081  31.070   0.290
52842W        W21236  42.505  18.341   1.257
52843W        W21237  28.040   2.721  13.482
52844W        W21238   5.870  40.851   4.778
52845W        W21239  21.532  26.495  10.925
52846W        W21240   3.469  12.906  14.777
52847W        W21241   9.150  42.784   4.881
52848W        W21242   0.519  34.442  10.662
52849W        W21243   1.782  27.315  13.189
52850W        W21244   7.291   5.370   3.680
52851W        W21245  10.277  17.700   0.217
52852W        W21246  27.525  44.803   1.673
52853W        W21247  18.563   5.777   0.772
52854W        W21248  15.669  14.942  13.107
52855W        W21249  13.244   7.003  13.805
52856W        W21250  27.963   9.888  13.543
52857W        W21251  24.346   2.819  11.964
52858W        W21252   8.231  11.187  14.943
52859W        W21253  39.445   5.776   1.449
52860W        W21254   2.794  39.374   3.278
52861W        W21255  36.013  30.856   1.107
52862W        W21256  39.056  35.920   0.760
52863W        W21257  40.273  43.048   1.357
52864W        W21258  13.352  30.609   0.397
52865W        W21259  35.892  39.335  11.571
52866W        W21260  37.884  10.465  12.498
52867W        W21261  16.029  27.660  14.766
52868W        W21262  44.777  22.592   3.280
52869W        W21263  24.456  20.277  13.954
52870W        W21264   4.330  21.236   2.060
52871W        W21265  28.175  26.538   0.457
52872W        W21266  13.505  27.257  11.907
52873W        W21267  37.065  23.456  14.321
52874W        W21268   3.209  25.886   3.783
52875W        W21269   4.261  26.627  12.552
52876W        W21270  15.176  30.106  14.011
52877W        W21271   3.816  41.959   3.537
52878W        W21272  23.249  37.469  14.922
52879W        W21273  36.076  30.471  14.932
52880W        W21274  31.190  32.079  13.871
52881W        W21275   8.331  24.712   1.409
52882W        W21276  28.661  15.677  11.614
52883W        W21277   7.088   3.369   1.428
52884W        W21278  31.880  10.832  11.586
52885W        W21279   4.512  24.149  12.596
52886W        W21280  42.866  19.999  12.624
52887W        W21281  21.010  32.834   0.518
52888W        W21282   4.247   1.460  13.807
52889W        W21283  44.670  16.897   4.845
52890W        W21284  35.145  38.516  11.895
52891W        W21285  26.049  41.225  10.222
52892W        W21286  27.614  16.905  14.697
52893W        W21287  43.543   3.780  11.002
52894W        W21288  18.165  25.738  14.960
52895W        W21289   2.332  10.630  12.580
52896W        W21290  40.464  28.903   3.777
52897W        W21291   4.771  34.016   2.385
52898W        W21292  36.474  32.194   1.766
52899W        W21293  41.540  15.372  13.834
52900W        W21294  23.634  28.797   0.343
52901W        W21295   4.989  22.999  13.806
52902W        W21296  23.715   4.952  12.127
52903W        W21297  28.197  35.022  13.005
52904W        W21298  42.974   3.097   4.069
52905W        W21299   7.714  16.552  13.567
52906W        W21300  26.236  10.241  11.277
52907W        W21301  21.723  42.831   4.284
52908W        W21302   2.810   0.942  14.009
52909W        W21303  13.165  30.971  12.719
52910W        W21304  37.730   4.749   2.005
52911W        W21305  36.843   1.397  13.573
52912W        W21306   0.415  38.513   4.176
52913W        W21307  17.546   7.425   3.583
52914W        W21308  30.659   8.758   2.324
52915W        W21309   5.265  40.287  10.413
52916W        W21310  29.665  37.426  10.330
52917W        W21311   4.647  11.582  14.446
52918W        W21312  39.968  12.235   1.517
52919W        W21313  33.082   4.893   1.657
52920W        W21314  26.779  31.390  14.304
52921W        W21315  41.260  15.318  11.070
52922W        W21316   9.107  29.471  10.238
52923W        W21317  16.730  44.494   0.701
52924W        W21318  23.135  31.861  13.860
52925W        W21319   6.210  13.106  14.409
52926W        W21320  35.521  27.347   3.377
52927W        W21321  17.231  35.212   0.919
52928W        W21322  34.313  14.477   2.959
52929W        W21323  26.642  44.426   2.381
52930W        W21324  15.800  11.409   0.500
52931W        W21325  19.903   1.168  10.751
52932W        W21326  36.650  35.626   1.622
52933W        W21327  37.216  26.323   3.176
52934W        W21328  27.785  37.993   0.397
52935W        W21329  29.281  38.300  12.517
52936W        W21330   6.889  39.992   1.370
52937W        W21331   8.745  13.056   3.511
52938W        W21332  27.455  24.024   1.753
52939W        W21333  33.936  33.387   0.858
52940W        W21334  17.061   5.245   0.372
52941W        W21335  34.486   2.398   2.770
52942W        W21336   0.516  31.929   4.890
52943W        W21337   9.670  15.489  12.525
52944W        W21338   3.368  28.534  14.515
52945W        W21339  36.144   0.916   3.304
52946W        W21340  44.288  26.036   0.284
52947W        W21341   3.497  34.450   2.359
52948W        W21342  18.685  41.995  12.382
52949W        W21343  31.225  32.588   2.293
52950W        W21344  43.779  15.910  11.122
52951W        W21345  32.990  12.556  13.439
52952W        W21346  24.400  15.491   2.320
52953W        W21347   2.708  44.435  12.413
52954W        W21348  21.249  26.941  11.424
52955W        W21349  14.522  32.000   1.203
52956W        W21350  18.613  20.468   4.578
52957W        W21351   9.875  20.360   3.604
52958W        W21352  26.456   1.062   2.786
52959W        W21353   9.216  43.568   1.905
52960W        W21354  40.057  28.894   4.106
52961W        W21355  27.751   6.907  14.035
52962W        W21356  18.082  19.222   0.708
52963W        W21357  16.770   8.021  12.060
52964W        W21358  44.303  31.470   4.799
52965W        W21359   1.030  26.603   0.455
52966W        W21360  26.720  31.489  11.635
52967W        W21361  12.773   5.137   3.281
52968W        W21362  33.192   2.318   2.229
52969W        W21363  29.409  29.925   2.274
52970W        W21364   7.384  13.855  13.963
52971W        W21365  14.643  13.879   3.176
52972W        W21366  18.651   6.584  11.950
52973W        W21367  21.656   2.215   3.272
52974W        W21368  41.438  27.109   1.785
52975W        W21369   8.278  22.418  11.584
52976W        W21370  31.405   0.728  13.542
52977W        W21371   2.030   4.189   1.508
52978W        W21372  32.086  35.117  12.351
52979W        W21373  29.217   8.771   4.736
52980W        W21374  20.768  31.676  13.847
52981W        W21375   3.088  42.126   4.966
52982W        W21376   6.264  40.968  12.917
52983W        W21377  41.441  25.174   3.710
52984W        W21378  22.055  21.681   3.266
52985W        W21379  26.612  12.702   0.084
52986W        W21380   1.929  41.345  11.114
52987W        W21381  32.601  10.848  13.809
52988W        W21382  23.796  11.248   0.783
52989W        W21383  42.440  27.640   1.222
52990W        W21384  33.312  15.530   3.709
52991W        W21385  44.004  39.038  11.560
52992W        W21386  22.544  33.932   4.584
52993W        W21387  42.309  20.196  14.518
52994W        W21388  17.753   0.299   4.179
52995W        W21389  23.002  25.788  10.663
52996W        W21390  12.895  39.789   3.279
52997W        W21391  22.661  20.640   1.302
52998W        W21392  16.121  18.947  10.708
52999W        W21393  37.973  23.230  11.882
53000W        W21394  12.452   0.365   0.512
53001W        W21395  33.013  18.194  11.217
53002W        W21396  35.239  43.754  13.450
53003W        W21397  23.146  29.735   1.394
53004W        W21398  36.138  33.380   2.994
53005W        W21399  24.210  33.405   4.079
53006W        W21400  18.227   8.032  12.976
53007W        W21401  29.375  34.123   0.777
53008W        W21402  21.750  30.491   3.349
53009W        W21403  31.620   4.887   0.354
53010W        W21404   6.870  27.723   4.720
53011W        W21405  32.074  43.118   3.832
53012W        W21406  32.652  28.911   0.730
53013W        W21407   0.924   0.413   3.219
53014W        W21408  32.150  32.537   2.756
53015W        W21409   3.378  39.115  11.094
53016W        W21410  15.141   5.821   2.861
53017W        W21411  40.732  20.214   2.741
53018W        W21412  31.133   6.163  10.601
53019W        W21413   7.873  19.821   4.775
53020W        W21414   0.886   0.281   4.173
53021W        W21415  26.008  32.417  14.112
53022W        W21416  35.905  13.838   3.314
53023W        W21417  40.853  37.400  14.969
53024W        W21418  29.846  39.553  11.180
53025W        W21419  36.345  13.672  12.921
53026W        W21420   1.359  30.247  10.608
53027W        W21421  18.301  22.265   0.001
53028W        W21422  31.721  27.476  14.524
53029W        W21423  13.073   9.049  11.506
53030W        W21424   4.839   6.656   0.056
53031W        W21425  38.593  26.011  11.571
53032W        W21426  16.308  21.100  12.834
53033W        W21427  20.958   0.957  12.396
53034W        W21428  29.677  11.597   2.762
53035W        W21429   6.954  35.999   0.927
53036W        W21430  39.207  27.903   4.124
53037W        W21431  39.510  40.254  13.928
53038W        W21432  44.774  37.840  14.066
53039W        W21433  43.504  11.615   9.935
53040W        W21434  33.674  19.769   1.574
53041W        W21435  31.058  39.456  14.327
53042W        W21436  37.766  11.301  12.717
53043W        W21437  23.432  16.739  14.779
53044W        W21438  38.477  10.166  13.527
53045W        W21439  38.290  18.017  12.126
53046W        W21440  27.167  21.979  14.841
53047W        W21441  38.583  14.800   2.914
53048W        W21442  41.599  13.341  10.675
53049W        W21443  14.480  13.278  12.171
53050W        W21444  27.387  17.987  12.992
53051W        W21445  15.371   9.664  10.873
53052W        W21446  21.568  15.124   3.757
53053W        W21447  44.587   4.201  13.770
53054W        W21448   8.860  20.848   4.996
53055W        W21449  11.913   9.142  13.445
53056W        W21450  35.053  19.298   4.527
53057W        W21451   9.902  12.826  14.500
53058W        W21452  42.275  28.697   3.820
53059W        W21453  44.810  38.079   0.382
53060W        W21454  11.085  37.401  14.564
53061W        W21455  15.703   9.274  13.088
53062W        W21456  18.679  43.460  11.941
53063W        W21457  24.286  24.178   4.933
53064W        W21458  17.817  21.266   2.339
53065W        W21459   9.719   1.963  11.110
53066W        W21460  41.450  30.402   1.750
53067W        W21461  38.412  30.125   3.637
53068W        W21462  30.441  10.724   2.310
53069W        W21463   4.785  11.546  10.730
53070W        W21464  39.472  40.783  12.397
53071W        W21465  40.745  12.243   3.275
53072W        W21466  30.618  18.679   4.595
53073W        W21467  22.599  32.063   2.701
53074W        W21468  39.099   1.914   3.443
53075W        W21469  24.304  39.757  12.387
53076W        W21470  17.580  10.898  14.910
53077W        W21471  23.602  17.882  11.467
53078W        W21472   4.898  23.668   2.918
53079W        W21473  32.670   9.149   3.168
53080W        W21474  11.327  17.367  12.931
53081W        W21475  36.850  43.456   4.079
53082W        W21476  13.275  34.438  12.643
53083W        W21477  43.398  32.380   1.090
53084W        W21478  10.162  14.041  11.680
53085W        W21479  39.020  13.160   4.753
53086W        W21480  36.889   2.265  10.345
53087W        W21481  34.848  16.133  13.374
53088W        W21482  42.534  28.902  14.693
53089W        W21483  10.557   4.426   0.904
53090W        W21484   5.571  39.760  11.226
53091W        W21485  43.480  11.789   0.427
53092W        W21486  32.500   3.677   2.454
53093W        W21487   6.831   6.688   2.118
53094W        W21488  40.162  16.187  13.024
53095W        W21489  22.277  17.592   2.920
53096W        W21490  42.092  33.854   1.938
53097W        W21491  27.384  23.178   0.897
53098W        W21492   1.901   8.606  14.058
53099W        W21493  42.231  29.463  10.892
53100W        W21494  42.929  26.147   2.900
53101W        W21495  12.322  34.833  12.421
53102W        W21496  31.465   5.205  13.849
53103W        W21497  43.470  31.527  13.595
53104W        W21498  19.685  26.586   4.177
53105W        W21499  19.174  41.264   3.619
53106W        W21500  14.530  14.549   9.860
53107W        W21501  24.266  23.062  13.900
53108W        W21502   4.375  38.845   2.640
53109W        W21503   7.410  31.239  12.517
53110W        W21504  24.065  10.653  14.751
53111W        W21505  21.669  22.707  14.996
53112W        W21506   3.091  38.426   3.190
53113W        W21507   2.422  44.428  14.858
53114W        W21508  19.643  39.246   1.316
53115W        W21509  21.980  19.198   0.886
53116W        W21510  39.077  34.374  12.930
53117W        W21511  39.736  42.234  11.135
53118W        W21512  34.881  15.370   4.779
53119W        W21513  27.882  28.152  14.976
53120W        W21514  25.983  25.596   0.777
53121W        W21515  19.558  35.929   3.214
53122W        W21516  31.494  21.379  13.503
53123W        W21517  12.677  13.172   2.693
53124W        W21518  26.085   4.624   0.318
53125W        W21519   8.933  38.054  14.218
53126W        W21520  10.605  37.338  11.643
53127W        W21521  39.801   7.176   2.692
53128W        W21522   3.809  37.020  14.905
53129W        W21523   3.621  37.166  10.824
53130W        W21524  22.654   0.931   1.880
53131W        W21525  29.157  25.763  12.978
53132W        W21526  43.792  26.174  13.427
53133W        W21527  44.021  27.342  12.712
53134W        W21528   6.978  32.846  11.139
53135W        W21529   0.741   3.913  11.575
53136W        W21530  33.198  13.255   1.368
53137W        W21531  35.396  13.916   0.435
53138W        W21532  39.525  43.494   2.920
53139W        W21533  40.504   9.908   1.737
53140W        W21534   8.703  15.284  13.085
53141W        W21535   9.605  32.257   4.122
53142W        W21536   1.769  18.336  13.296
53143W        W21537  26.542  38.958   3.677
53144W        W21538  24.771  17.562   2.411
53145W        W21539  38.506  38.430  11.091
53146W        W21540  41.710   6.248   4.114
53147W        W21541  13.987   7.845   2.323
53148W        W21542  41.230   3.878   2.413
53149W        W21543  12.215  30.388  14.051
53150W        W21544  33.573  32.091  10.507
53151W        W21545  19.785  35.156   0.905
53152W        W21546  20.598  43.474  13.471
53153W        W21547   7.169  33.540   1.301
53154W        W21548  25.927   6.137  13.282
53155W        W21549  19.178   4.464   4.333
53156W        W21550  14.854  15.922   4.224
53157W        W21551   9.169  18.058  11.964
53158W        W21552  33.998  16.256   3.685
53159W        W21553  41.587  23.058   2.936
53160W        W21554  11.676  10.663  11.038
53161W        W21555   5.004   9.696   2.375
53162W        W21556  34.564  36.900  14.412
53163W        W21557  40.434  15.116   3.570
53164W        W21558  11.099  18.730  14.606
53165W        W21559  20.040  35.391  10.659
53166W        W21560  29.038  35.996   3.427
53167W        W21561  35.656  41.290  14.493
53168W        W21562  36.975  31.602   3.939
53169W        W21563  39.179  40.696  11.946
53170W        W21564   9.243  32.569   2.744
53171W        W21565  26.636  19.059  11.639
53172W        W21566  13.192   8.241   5.060
53173W        W21567  10.086  20.144   4.031
53174W        W21568  17.089  14.161  12.065
53175W        W21569  20.112  38.472   3.647
53176W        W21570  40.856  35.348  14.707
53177W        W21571   2.291   9.898   1.714
53178W        W21572  18.326  40.406  12.380
53179W        W21573  43.275  10.218   2.767
53180W        W21574  14.913   4.257   2.176
53181W        W21575   6.507  26.841  11.091
53182W        W21576  43.434  34.798  12.513
53183W        W21577  21.079  35.166   4.894
53184W        W21578  22.737  12.742  12.800
53185W        W21579  15.837  19.466   3.247
53186W        W21580  42.673  42.153   1.760
53187W        W21581  43.953  38.532  12.467
53188W        W21582  27.087  34.441  12.731
53189W        W21583  12.337   7.756   0.329
53190W        W21584  23.511  29.044  10.513
53191W        W21585   1.274  30.706   1.719
53192W        W21586  10.650  29.055  14.418
53193W        W21587   1.956  31.370  11.907
53194W        W21588  25.272  44.165  14.913
53195W        W21589  23.952  29.409   5.104
53196W        W21590  24.006   4.146  13.446
53197W        W21591  25.446  35.367   2.847
53198W        W21592   2.009  35.530  14.114
53199W        W21593   9.216  44.588   3.348
53200W        W21594  16.070  17.018   2.299
53201W        W21595  23.675  19.563  12.789
53202W        W21596  14.598  25.687   2.437
53203W        W21597   3.252  33.934  11.046
53204W        W21598  20.150  12.405   3.660
53205W        W21599  44.100  30.936  12.031
53206W        W21600  40.425  33.080  11.509
53207W        W21601  38.115  23.782   2.372
53208W        W21602  20.028  42.684  10.802
53209W        W21603  37.157   6.984   3.460
53210W        W21604  38.882  37.599   1.898
53211W        W21605  10.748  28.612   3.671
53212W        W21606   6.126  13.589  10.012
53213W        W21607  43.668  30.868  14.395
53214W        W21608  10.655  22.448   2.727
53215W        W21609   0.012  33.215   1.815
53216W        W21610  21.833   8.996   4.768
53217W        W21611  10.411  17.750   3.607
53218W        W21612  19.468  35.547   2.099
53219W        W21613   6.689  29.594  12.239
53220W        W21614  32.906  36.911  11.109
53221W        W21615  21.035  12.025  14.315
53222W        W21616  42.863   4.102  13.465
53223W        W21617  17.690  23.453   1.226
53224W        W21618  44.727  21.598   2.602
53225W        W21619  40.336   9.556  12.168
53226W        W21620   2.119  26.496  11.128
53227W        W21621  42.054  40.351  12.015
53228W        W21622  26.102   4.673   1.164
53229W        W21623  30.881  43.631  13.539
53230W        W21624  14.164  10.316  12.101
53231W        W21625  29.606  42.396  10.615
53232W        W21626   9.915  32.192  14.912
53233W        W21627  22.067   7.432  14.310
53234W        W21628  21.536   4.996  12.701
53235W        W21629  41.723  40.734   0.011
53236W        W21630  34.299  27.878  13.375
53237W        W21631  12.434  37.895   1.037
53238W        W21632  24.687  21.453   2.854
53239W        W21633  34.822  19.873  12.637
53240W        W21634  26.520  12.169  14.257
53241W        W21635  31.497   4.385   4.737
53242W        W21636  25.091  12.764   1.854
53243W        W21637   3.118  25.538  13.714
53244W        W21638   2.886  37.077   4.918
53245W        W21639  14.171  42.822  14.636
53246W        W21640  32.016  34.127  11.218
53247W        W21641   6.197  33.451  11.159
53248W        W21642  40.773  42.395  11.969
53249W        W21643  14.056  34.699   0.336
53250W        W21644  25.649   4.039   4.277
53251W        W21645  12.081  19.763   4.236
53252W        W21646  32.476  42.873  12.773
53253W        W21647   7.366  19.028   1.272
53254W        W21648  26.674  16.760  12.463
53255W        W21649   2.699  24.586   3.919
53256W        W21650  42.650  42.816   2.637
53257W        W21651  21.555  31.445  11.285
53258W        W21652  40.447  23.537  13.436
53259W        W21653  40.439   8.969   1.213
53260W        W21654  18.568  37.237  13.337
53261W        W21655  20.632  14.700   4.092
53262W        W21656   5.807  22.784   1.657
53263W        W21657  43.317  33.694   0.323
53264W        W21658   5.979  43.756  14.426
53265W        W21659  14.251   4.985  11.124
53266W        W21660  43.780   7.591  13.059
53267W        W21661  22.075  22.788   4.049
53268W        W21662  19.308  29.789  14.866
53269W        W21663  17.803  36.806  10.465
53270W        W21664  29.790  26.134   4.909
53271W        W21665   6.837  23.099   5.105
53272W        W21666   9.220  28.220   4.693
53273W        W21667   0.327  29.896  12.981
53274W        W21668  32.923  17.036  13.073
53275W        W21669  18.842  16.356  12.590
53276W        W21670  23.272  19.598   2.219
53277W        W21671  19.545  35.126   1.814
53278W        W21672  43.015  43.905  14.802
53279W        W21673  26.389  16.506  11.493
53280W        W21674  42.800  27.007  10.678
53281W        W21675  13.282  31.591   1.419
53282W        W21676  13.165  15.266  14.425
53283W        W21677  23.045  24.143  11.910
53284W        W21678   2.463   7.345   0.473
53285W        W21679  32.100  43.557  10.819
53286W        W21680   6.535   2.311   2.793
53287W        W21681  25.352   3.214   0.543
53288W        W21682   3.378  31.550   1.059
53289W        W21683  29.412  38.566   2.440
53290W        W21684   7.614  10.146   5.020
53291W        W21685  22.286   5.377  12.511
53292W        W21686  30.747  19.095  13.573
53293W        W21687  28.987  41.005   2.902
53294W        W21688  18.559  26.671  14.029
53295W        W21689  24.533  10.167   4.212
53296W        W21690   7.794  40.912   1.730
53297W        W21691  38.890   4.300  11.133
53298W        W21692  29.161  36.997  10.758
53299W        W21693   0.424  15.535  11.571
53300W        W21694  35.328  17.232   4.866
53301W        W21695   0.613  30.159  12.395
53302W        W21696   6.810   2.865   1.971
53303W        W21697  22.754  19.899   4.130
53304W        W21698  29.225  14.401  13.043
53305W        W21699  33.464  27.613  13.798
53306W        W21700  26.847   1.143  14.800
53307W        W21701  24.907  38.547   4.574
53308W        W21702  42.325  34.529   4.415
53309W        W21703  12.613   8.881  12.091
53310W        W21704   4.038  22.273  12.947
53311W        W21705  20.654  15.206  12.204
53312W        W21706  43.440  23.148  12.171
53313W        W21707  28.987   2.853   4.572
53314W        W21708   5.801  19.257   4.341
53315W        W21709  34.761  25.576  14.125
53316W        W21710  11.757  38.597   4.557
53317W        W21711  43.465  18.351  12.930
53318W        W21712  33.962   8.665   2.778
53319W        W21713  33.848   2.325  11.553
53320W        W21714   1.434   6.151  14.330
53321W        W21715  24.594   3.979  14.019
53322W        W21716  35.348  29.938  12.423
53323W        W21717  35.021  44.781   4.788
53324W        W21718  22.763   8.841  10.177
53325W        W21719  44.175   1.654   1.281
53326W        W21720  22.265  23.131   3.714
53327W        W21721   5.814  36.505   3.382
53328W        W21722  16.809  33.363   1.669
53329W        W21723  26.608   1.212  13.796
53330W        W21724  29.972  43.186   4.259
53331W        W21725  42.129  25.412   3.188
53332W        W21726   6.663  22.181   4.125
53333W        W21727  18.704  37.252  11.886
53334W        W21728   4.560  31.356   4.084
53335W        W21729  23.331   5.314  11.849
53336W        W21730  20.112  25.038   1.372
53337W        W21731  18.550   7.797   2.201
53338W        W21732  21.968  33.029   0.384
53339W        W21733  22.232  28.696   4.568
53340W        W21734  42.344  23.435   4.975
53341W        W21735  26.768   7.646   0.923
53342W        W21736   3.902   5.540   0.947
53343W        W21737  35.178  17.774  13.879
53344W        W21738  38.683   3.018  12.756
53345W        W21739  35.488  42.350  11.936
53346W        W21740  17.219   1.253  12.801
53347W        W21741   1.433  42.349   3.119
53348W        W21742  16.951  31.039  10.684
53349W        W21743   6.873  38.307   2.235
53350W        W21744  24.184  36.826   4.550
53351W        W21745  12.692  26.511  11.123
53352W        W21746  34.593  27.440  13.385
53353W        W21747  29.006  16.529   2.720
53354W        W21748   8.291  21.869  10.778
53355W        W21749   5.962  13.254  11.222
53356W        W21750  13.118  33.082  12.935
53357W        W21751  43.829  35.457   0.613
53358W        W21752  13.022  33.602  12.979
53359W        W21753  40.979  36.984  11.932
53360W        W21754  10.676  40.431  13.308
53361W        W21755  23.131  33.107  13.314
53362W        W21756  42.154   5.124   4.947
53363W        W21757   8.821  38.023   4.596
53364W        W21758   7.631  32.081   2.106
53365W        W21759  44.222  44.770   3.611
53366W        W21760   5.213  29.306  11.879
53367W        W21761  12.563  12.298  13.404
53368W        W21762  38.510  27.746   1.274
53369W        W21763  26.563  38.802  12.455
53370W        W21764  32.382   8.163   1.289
53371W        W21765  11.759   3.163   9.991
53372W        W21766  15.764  29.181   4.583
53373W        W21767  13.287   0.853  11.459
53374W        W21768   3.462  37.145  13.619
53375W        W21769  16.982  10.085   3.334
53376W        W21770  10.379   6.442   0.898
53377W        W21771  21.909  14.875  12.445
53378W        W21772  24.090  36.255  11.193
53379W        W21773  22.016  29.144   4.681
53380W        W21774  43.706   4.459   4.810
53381W        W21775   8.676   0.734  10.640
53382W        W21776  29.367  13.348   4.241
53383W        W21777   4.142  31.455   2.187
53384W        W21778  22.156   7.474  13.252
53385W        W21779  14.864   4.802   1.245
53386W        W21780  22.307   2.957   4.230
53387W        W21781  14.205  42.252  13.922
53388W        W21782  10.851  44.012   3.900
53389W        W21783  32.445  15.147   0.744
53390W        W21784  42.873   9.302  12.578
53391W        W21785  22.153  20.634   4.201
53392W        W21786  37.911  13.123  12.659
53393W        W21787  13.588   0.584  14.411
53394W        W21788  43.726   0.015  11.876
53395W        W21789  34.159  42.845  13.411
53396W        W21790  41.279  24.531   2.437
53397W        W21791  33.327  28.474   0.396
53398W        W21792  35.148  18.860  12.654
53399W        W21793  35.497   7.814   4.864
53400W        W21794  42.934  40.682  11.583
53401W        W21795  11.279  11.566  14.771
53402W        W21796  35.279  36.588   1.752
53403W        W21797  17.319  14.335   0.383
53404W        W21798  17.779   6.389   3.498
53405W        W21799  35.897  22.621   1.978
53406W        W21800  22.307  16.086  14.373
53407W        W21801  28.291   1.943   4.416
53408W        W21802  34.113  29.958   2.778
53409W        W21803  12.097  35.959   4.003
53410W        W21804   6.656   6.917  13.846
53411W        W21805   0.854  44.773   0.417
53412W        W21806  40.449  41.297   3.776
53413W        W21807  43.882  10.936   4.633
53414W        W21808  42.839   7.835  11.594
53415W        W21809  40.257  40.074  10.122
53416W        W21810   4.815  15.941  10.723
53417W        W21811  25.551  19.612  12.188
53418W        W21812  35.052  39.516  14.806
53419W        W21813  20.572  18.789  14.046
53420W        W21814   1.211  22.673  14.901
53421W        W21815   5.234   8.656   3.849
53422W        W21816  29.595  12.612   0.188
53423W        W21817  28.471   6.288  12.133
53424W        W21818  26.134   5.123  14.019
53425W        W21819  33.115  40.931   0.661
53426W        W21820  13.716  28.417  12.803
53427W        W21821  19.931   9.150   3.099
53428W        W21822   3.926  37.554   1.754
53429W        W21823   0.928  17.442   4.122
53430W        W21824  21.820  37.172  14.462
53431W        W21825   0.191  18.709   3.916
53432W        W21826  16.949   8.931   1.159
53433W        W21827  26.129  26.739  14.336
53434W        W21828  17.721   7.356  10.278
53435W        W21829  18.558  35.648   3.303
53436W        W21830  22.204  27.381   1.325
53437W        W21831  34.378  38.961  13.355
53438W        W21832  22.086  30.604   2.706
53439W        W21833  17.364   0.512   4.984
53440W        W21834  29.154  40.354   2.297
53441W        W21835  28.503  43.418   0.403
53442W        W21836  42.940  16.204  10.932
53443W        W21837  44.420  28.665   1.266
53444W        W21838  30.473  23.773  11.554
53445W        W21839  44.638   2.346   4.136
53446W        W21840  12.624  18.746  10.723
53447W        W21841  15.736  34.885  13.522
53448W        W21842  12.221  39.593  10.430
53449W        W21843  43.481  15.661  11.466
53450W        W21844   3.752  33.422   0.920
53451W        W21845   0.244  34.910   0.721
53452W        W21846  17.852  34.557   1.030
53453W        W21847   0.244  14.791   0.448
53454W        W21848  30.143  25.017  13.409
53455W        W21849  38.906  12.707  11.212
53456W        W21850  20.931  44.194   3.821
53457W        W21851  20.939   8.572   4.751
53458W        W21852  22.955  25.653   4.851
53459W        W21853   1.913  43.416   4.515
53460W        W21854  20.023  13.944  11.500
53461W        W21855  25.115   3.514   4.070
53462W        W21856  37.899  11.821   2.190
53463W        W21857  10.044   9.901  13.656
53464W        W21858  40.309   5.725   0.954
53465W        W21859  11.432  40.547   1.785
53466W        W21860   0.522  40.013   4.123
53467W        W21861  33.448  31.981   9.997
53468W        W21862  15.615  39.352   0.879
53469W        W21863  37.092  20.527  14.805
53470W        W21864  34.100  20.761  12.100
53471W        W21865  16.657   7.913   3.646
53472W        W21866   5.421  38.527  11.544
53473W        W21867  41.424  39.347   2.451
53474W        W21868  14.465  24.464  14.986
53475W        W21869  17.722  42.480   4.248
53476W        W21870  37.091  24.107   4.784
53477W        W21871   7.910  35.008  10.528
53478W        W21872   9.194   3.760   1.328
53479W        W21873  22.076  36.408   3.857
53480W        W21874  37.599  25.564  11.410
53481W        W21875   4.895  26.096  11.135
53482W        W21876  15.609   1.923   0.727
53483W        W21877   5.918  24.391  11.489
53484W        W21878  15.722  25.304   3.585
53485W        W21879  10.207  16.057   1.274
53486W        W21880  37.475   4.012  13.113
53487W        W21881   2.813  39.422  12.342
53488W        W21882  13.109  18.388   1.588
53489W        W21883  30.376  29.090   2.546
53490W        W21884  39.767  12.898  11.883
53491W        W21885  17.336   9.889   0.364
53492W        W21886  17.591   5.284   0.394
53493W        W21887  33.143  27.041   4.709
53494W        W21888  14.614  12.845   0.089
53495W        W21889  36.366  40.305   3.665
53496W        W21890  37.518  35.293  10.769
53497W        W21891  38.002  15.330  10.671
53498W        W21892  27.162  22.491  11.944
53499W        W21893  42.457  34.836  13.457
53500W        W21894  25.412  43.586  12.151
53501W        W21895  36.142  24.407   1.785
53502W        W21896  42.457   5.035   0.261
53503W        W21897   6.223  33.208   3.297
53504W        W21898  23.078  25.908  12.951
53505W        W21899  40.517  21.191  11.969
53506W        W21900  26.471  12.882   1.092
53507W        W21901  23.775   2.514   4.089
53508W        W21902  32.045  24.830  13.367
53509W        W21903   3.280  39.894   4.753
53510W        W21904  42.601  40.770   4.177
53511W        W21905  28.091  12.238  12.118
53512W        W21906  14.239  40.072  11.003
53513W        W21907  36.231  16.364  14.873
53514W        W21908  36.970  43.284   3.147
53515W        W21909  23.562  20.044   0.813
53516W        W21910   1.742  33.869   1.721
53517W        W21911  41.454  22.260   1.893
53518W        W21912  35.731  34.914   2.767
53519W        W21913  40.752  41.526   0.366
53520W        W21914  28.430   9.694  10.883
53521W        W21915  42.413  43.759   3.626
53522W        W21916   6.943  10.529   0.145
53523W        W21917  37.400  20.766   2.095
53524W        W21918  21.071  18.209   0.898
53525W        W21919  21.069  12.756  12.551
53526W        W21920  33.361  35.116  13.634
53527W        W21921   6.111  25.510  11.507
53528W        W21922   7.838  40.542   1.352
53529W        W21923  41.282  33.857   1.257
53530W        W21924  12.871   5.273  11.898
53531W        W21925   5.847  37.352   1.910
53532W        W21926  22.103  28.787   3.767
53533W        W21927  29.675   8.480   2.282
53534W        W21928  27.526  11.143   4.858
53535W        W21929  31.355  43.309   0.770
53536W        W21930  44.449  31.167  12.653
53537W        W21931  17.749   6.145  12.432
53538W        W21932  17.678  24.975   2.319
53539W        W21933   7.306   3.916  11.874
53540W        W21934  17.557  12.719   4.023
53541W        W21935  35.444  38.893  14.485
53542W        W21936  31.685  12.810   1.504
53543W        W21937   2.588   9.873   5.173
53544W        W21938  38.022  24.177  12.057
53545W        W21939  25.332  12.971   3.437
53546W        W21940   3.885  37.463  13.306
53547W        W21941  44.863  39.877  12.616
53548W        W21942  17.549  37.937  14.007
53549W        W21943  29.002   0.814  10.927
53550W        W21944   7.134  17.129   0.430
53551W        W21945   3.174  21.218   1.894
53552W        W21946  16.093  30.193  14.346
53553W        W21947  15.158  28.661   2.371
53554W        W21948  37.964  23.173  10.858
53555W        W21949  31.080  15.542   4.528
53556W        W21950  28.995  28.555  14.790
53557W        W21951  20.564  19.574  11.879
53558W        W21952  14.916  41.913   4.626
53559W        W21953  26.025  29.534  14.426
53560W        W21954  36.998  20.209   1.606
53561W        W21955  33.531  20.386   4.834
53562W        W21956  10.707  26.954  11.111
53563W        W21957  35.113  17.078  13.457
53564W        W21958  18.001  33.895   0.299
53565W        W21959  30.532  41.443  13.520
53566W        W21960  17.288  36.500   3.076
53567W        W21961  41.861  42.449   4.589
53568W        W21962   5.130  24.580   4.019
53569W        W21963  32.878  20.475   1.235
53570W        W21964  34.650   2.988  13.534
53571W        W21965  24.516  22.335   1.741
53572W        W21966  40.807  33.699  12.025
53573W        W21967  38.600   1.954   0.393
53574W        W21968  40.105  43.750  11.993
53575W        W21969  23.565  24.148  11.994
53576W        W21970   9.600  37.365  14.022
53577W        W21971  18.152  24.521  10.355
53578W        W21972  41.802  18.639   0.228
53579W        W21973   2.738  23.588   1.797
53580W        W21974  17.582   8.715   9.981
53581W        W21975  23.412   2.256  12.934
53582W        W21976  32.652   0.004  13.398
53583W        W21977  33.961  21.615   3.726
53584W        W21978   5.618  15.057  10.932
53585W        W21979  34.392  18.128   0.452
53586W        W21980   0.548  38.420  11.077
53587W        W21981  44.489  27.912  13.948
53588W        W21982  33.951  30.560   2.366
53589W        W21983   2.674   5.176  14.270
53590W        W21984  35.445   6.651   0.379
53591W        W21985  14.068  11.860   1.998
53592W        W21986  43.801  22.741  14.065
53593W        W21987   9.171  26.268   3.558
53594W        W21988  14.101  39.823   4.782
53595W        W21989   8.255  12.882  12.465
53596W        W21990  32.425  19.766   1.900
53597W        W21991  32.900  15.230   2.201
53598W        W21992   3.126  42.343  12.521
53599W        W21993   4.346  25.850   5.622
53600W        W21994  39.566  24.499  13.943
53601W        W21995  27.699  26.204   3.433
53602W        W21996  18.283  21.767   1.706
53603W        W21997   9.340  13.721  12.857
53604W        W21998   3.666  23.476  12.955
53605W        W21999  18.691   5.930   2.601
53606W        W22000   1.212  36.889   2.775
53607W        W22001  25.128   0.286   3.801
53608W        W22002   0.972  38.755  13.051
53609W        W22003  10.410  24.525   1.254
53610W        W22004  21.115   1.617   3.747
53611W        W22005   6.831  24.058   4.049
53612W        W22006  14.434   0.499  11.914
53613W        W22007  18.808   7.616  11.467
53614W        W22008  14.709  21.065  14.388
53615W        W22009  35.976  11.576  11.451
53616W        W22010  10.960  43.972   4.454
53617W        W22011  40.019  21.325  13.541
53618W        W22012  16.988   4.065  12.393
53619W        W22013  33.815   8.669  14.445
53620W        W22014  39.945  24.490   2.729
53621W        W22015   9.112  11.739   2.636
53622W        W22016  30.121  14.142   0.990
53623W        W22017   1.875  10.874   2.201
53624W        W22018  36.565  44.412   4.529
53625W        W22019  12.119  44.262   1.337
53626W        W22020  11.926  37.279   2.116
53627W        W22021  26.378   4.261   1.734
53628W        W22022  21.190  27.494   2.133
53629W        W22023   3.993  36.087   3.311
53630W        W22024  22.904  35.887   1.169
53631W        W22025  24.458   0.796   1.703
53632W        W22026   9.393  12.993  11.521
53633W        W22027  13.591  34.174  12.349
53634W        W22028  35.535  40.585   0.509
53635W        W22029  12.372  12.418   1.569
53636W        W22030   3.038   1.345  14.707
53637W        W22031  42.025  20.495   0.833
53638W        W22032   8.558  30.903  13.527
53639W        W22033  26.459  42.201   4.947
53640W        W22034   3.136  23.176   1.779
53641W        W22035  18.823  42.287   1.811
53642W        W22036  44.937  39.537   4.542
53643W        W22037  17.541  26.988  13.290
53644W        W22038   6.553  17.385   1.879
53645W        W22039  18.705  35.052  14.457
53646W        W22040  33.655  15.182  12.009
53647W        W22041  26.419   7.892  12.213
53648W        W22042  39.501  28.971   4.313
53649W        W22043  19.999  17.512  13.252
53650W        W22044  27.572  36.527  11.558
53651W        W22045  34.916  24.485  11.157
53652W        W22046  40.273   9.963   1.253
53653W        W22047  43.958   2.514  11.178
53654W        W22048  36.065   9.103   0.935
53655W        W22049  25.620   5.689  11.518
53656W        W22050  28.063   8.206  11.528
53657W        W22051  31.560   8.928   1.842
53658W        W22052  43.747  43.944   0.280
53659W        W22053  13.634  11.353  12.934
53660W        W22054   7.623  15.247  11.521
53661W        W22055  13.097   2.783  14.584
53662W        W22056  36.563  36.816   0.862
53663W        W22057   7.261  35.097  12.987
53664W        W22058  32.619  38.050  10.894
53665W        W22059  44.718  13.295   1.367
53666W        W22060  20.674  16.766  10.682
53667W        W22061  27.422  41.463  14.370
53668W        W22062  11.388   2.760  13.037
53669W        W22063   0.320   3.123   0.216
53670W        W22064  30.751  17.445   1.665
53671W        W22065   6.192   7.499  11.861
53672W        W22066  13.774  18.085   2.790
53673W        W22067  27.868  11.427   2.727
53674W        W22068  25.416  28.086  10.803
53675W        W22069  32.978  38.520   2.332
53676W        W22070   0.558  26.097   2.138
53677W        W22071   2.387  24.266  13.982
53678W        W22072  23.014  38.476  13.876
53679W        W22073  11.028  28.707   1.325
53680W        W22074   5.132  33.685   2.260
53681W        W22075  31.596  40.986  14.407
53682W        W22076  34.988  21.735  14.813
53683W        W22077  37.957   2.312   3.797
53684W        W22078  37.517  44.792   3.786
53685W        W22079  15.754  28.478   0.964
53686W        W22080  38.393  42.394  11.050
53687W        W22081  14.736  26.139   4.722
53688W        W22082  35.560  11.751  13.779
53689W        W22083  17.575  31.860  13.041
53690W        W22084  34.161  37.930   1.128
53691W        W22085  37.843  14.499   1.194
53692W        W22086  22.573  22.278   0.884
53693W        W22087   4.878   6.297  12.500
53694W        W22088  38.955  38.279   3.763
53695W        W22089  30.510  40.005   0.904
53696W        W22090  26.480  26.589  12.065
53697W        W22091  41.320  15.835   3.139
53698W        W22092  27.961  26.632  11.928
53699W        W22093  26.020  13.568  10.652
53700W        W22094  12.732   4.812  10.190
53701W        W22095  44.653  16.402   4.645
53702W        W22096  28.033  39.335  12.934
53703W        W22097  32.001   7.872  13.854
53704W        W22098  10.570  23.050   4.251
53705W        W22099   5.971   3.515   3.629
53706W        W22100  19.623  38.357   3.647
53707W        W22101  25.263  35.535   1.374
53708W        W22102   6.778  10.153  13.319
53709W        W22103  22.852   7.408  11.892
53710W        W22104  26.509  12.604   1.536
53711W        W22105   3.882  22.783   3.273
53712W        W22106   9.004   0.289  13.437
53713W        W22107  35.869  26.418  14.443
53714W        W22108  29.583  25.650   1.052
53715W        W22109  23.498  29.661   3.731
53716W        W22110  13.220  42.996   4.768
53717W        W22111  41.938  13.405  11.556
53718W        W22112  38.874  33.299   1.407
53719W        W22113  12.162  23.126   1.406
53720W        W22114   2.303  42.551  12.411
53721W        W22115  38.383  26.205  14.464
53722W        W22116   2.836  16.058   1.363
53723W        W22117  25.639  42.990   2.175
53724W        W22118  12.188  35.931   1.748
53725W        W22119  24.726   3.784   4.460
53726W        W22120  25.819   7.331  10.337
53727W        W22121  37.695   0.474  13.009
53728W        W22122   3.610   4.333   0.501
53729W        W22123   6.162  22.106  14.078
53730W        W22124  28.404  10.038  13.273
53731W        W22125  11.187   9.499  13.768
53732W        W22126  26.118  26.619   2.208
53733W        W22127  29.102  33.587  12.090
53734W        W22128   6.707  19.977   4.529
53735W        W22129   2.920  32.051  12.519
53736W        W22130  17.373  35.732   2.404
53737W        W22131   4.624   9.335   2.849
53738W        W22132  12.190  15.194   1.785
53739W        W22133   3.457  43.387   2.745
53740W        W22134  34.414  37.325  13.164
53741W        W22135  25.919   1.515  14.478
53742W        W22136  19.201  38.160  10.302
53743W        W22137   9.921  20.677  14.296
53744W        W22138   7.101  17.942   0.995
53745W        W22139  41.293  44.330  13.477
53746W        W22140   0.279   0.463   0.404
53747W        W22141  15.802  24.261  12.591
53748W        W22142  38.881  42.510   1.974
53749W        W22143   5.297  18.231  14.522
53750W        W22144  27.737  25.560  13.058
53751W        W22145  26.410  44.803  10.951
53752W        W22146  31.985  17.100  11.970
53753W        W22147  12.353  35.088   0.863
53754W        W22148  31.319  38.927  11.492
53755W        W22149   8.479  35.057   1.659
53756W        W22150  20.998  17.569  14.219
53757W        W22151  18.819  12.342  13.873
53758W        W22152  13.144  13.169   0.286
53759W        W22153  26.561  36.498   1.422
53760W        W22154  39.421  25.195   4.002
53761W        W22155  15.779   1.480  12.866
53762W        W22156  10.922  17.614  11.942
53763W        W22157  15.158  34.677  14.787
53764W        W22158   5.255  33.284  10.381
53765W        W22159  10.802   8.637   4.573
53766W        W22160  28.552  17.361  14.459
53767W        W22161   8.911  10.092   3.118
53768W        W22162   6.379  17.581   3.866
53769W        W22163  40.220  27.879  14.732
53770W        W22164  19.975  22.474  11.398
53771W        W22165   5.592  27.100  10.691
53772W        W22166  34.239   7.610  12.152
53773W        W22167  36.391   7.366  11.581
53774W        W22168   2.509  17.506   2.134
53775W        W22169  11.850  20.703   4.622
53776W        W22170   3.794   9.252  10.708
53777W        W22171   8.069  16.239  11.745
53778W        W22172   6.190  25.242  12.455
53779W        W22173  33.592  42.860   0.522
53780W        W22174  21.919  15.201  11.192
53781W        W22175   0.802  43.925   4.863
53782W        W22176   7.622   5.706   0.920
53783W        W22177  40.749  37.099  12.954
53784W        W22178  26.585   2.609  14.913
53785W        W22179  13.746  22.237   4.436
53786W        W22180  15.240  37.509  14.758
53787W        W22181  16.933  24.642   4.607
53788W        W22182  31.161   9.882   1.796
53789W        W22183  28.870  10.623   3.225
53790W        W22184   6.444   6.586   3.269
53791W        W22185   0.279   9.951   2.912
53792W        W22186  26.534   3.678   4.544
53793W        W22187  31.618   9.964  14.247
53794W        W22188  16.706  14.257  14.532
53795W        W22189  28.375  16.004   2.588
53796W        W22190  25.348  27.936  14.276
53797W        W22191  13.233  13.028   4.539
53798W        W22192  11.181  33.046   1.690
53799W        W22193  11.141  11.333  14.316
53800W        W22194  10.221  22.974   0.509
53801W        W22195  37.910  26.188  11.999
53802W        W22196  15.559  26.474   2.327
53803W        W22197  12.628  41.580  12.962
53804W        W22198   8.437  36.362   1.359
53805W        W22199   4.615  12.186  11.548
53806W        W22200  31.171   2.359  14.038
53807W        W22201   6.306   9.456   3.418
53808W        W22202  28.454  41.526   3.798
53809W        W22203   9.977  32.770   1.844
53810W        W22204  22.294  24.456  11.570
53811W        W22205  36.643  32.851   0.020
53812W        W22206  21.653  13.281  10.563
53813W        W22207   1.042  34.384   2.886
53814W        W22208  11.724  23.518  14.179
53815W        W22209  33.660  15.737   5.076
53816W        W22210  38.312   8.489   0.911
53817W        W22211  37.527  22.129   3.689
53818W        W22212   0.480  30.374   2.308
53819W        W22213   9.308   5.587  12.365
53820W        W22214  20.222  32.690  11.088
53821W        W22215  20.476   2.284   4.964
53822W        W22216  14.799  29.894  10.765
53823W        W22217  39.463  30.190   0.807
53824W        W22218  42.835  13.230   1.345
53825W        W22219  39.547  10.807   0.915
53826W        W22220  35.467  33.343   0.227
53827W        W22221   4.658   6.366  11.027
53828W        W22222  17.515   0.718  11.545
53829W        W22223  33.862  36.749  12.429
53830W        W22224  37.882  35.821  11.962
53831W        W22225  18.171  14.772  12.169
53832W        W22226  16.408  44.138  11.511
53833W        W22227   1.012  15.337   1.383
53834W        W22228  23.297  15.205  14.865
53835W        W22229  42.863  15.582  13.428
53836W        W22230  37.068  18.342  12.015
53837W        W22231   9.391  25.408   3.827
53838W        W22232  32.672  12.774  12.069
53839W        W22233  33.890   7.622   0.403
53840W        W22234  11.229  16.437   2.281
53841W        W22235  12.082  28.093   4.393
53842W        W22236   1.240   4.170   4.525
53843W        W22237  19.399  34.275   0.916
53844W        W22238  25.151  44.441   3.517
53845W        W22239   4.901  32.920   4.102
53846W        W22240  20.473  15.746   4.849
53847W        W22241  41.381  17.727   2.187
53848W        W22242  40.107  31.976   5.096
53849W        W22243  17.533   0.775   2.943
53850W        W22244  34.504  29.044   1.429
53851W        W22245  13.283  32.524  13.036
53852W        W22246  39.306  33.682   2.265
53853W        W22247  25.095  15.889  12.942
53854W        W22248  31.147  11.856  12.489
53855W        W22249  36.042  28.057   5.056
53856W        W22250  41.437  29.997   4.108
53857W        W22251  31.091   2.745  12.458
53858W        W22252  37.835  23.166  11.367
53859W        W22253  10.149  25.083   2.420
53860W        W22254  33.826   6.425  11.418
53861W        W22255  36.932  28.373  10.772
53862W        W22256  30.855  37.538  11.691
53863W        W22257  25.573  14.724  14.839
53864W        W22258  28.440   5.697  14.409
53865W        W22259   6.406   7.085   3.201
53866W        W22260  35.380  25.394   3.735
53867W        W22261  26.370  21.757   0.308
53868W        W22262  40.316  12.661   0.848
53869W        W22263   1.406   0.975  11.151
53870W        W22264  23.402  37.969   0.553
53871W        W22265  26.640  10.256  12.893
53872W        W22266  26.211  25.925   1.767
53873W        W22267  34.467   0.288   1.714
53874W        W22268  17.325  39.732  10.338
53875W        W22269  26.023  30.924   0.553
53876W        W22270  18.356  10.292   3.661
53877W        W22271  18.023  36.387   4.516
53878W        W22272  42.561  24.225   1.841
53879W        W22273  44.431  21.793  12.933
53880W        W22274  22.975  25.038   0.825
53881W        W22275  42.305   5.454   1.207
53882W        W22276  29.007   4.671   2.697
53883W        W22277  10.471   8.154  12.971
53884W        W22278  28.581  28.047  10.194
53885W        W22279  42.397   3.698  10.531
53886W        W22280  28.620  36.077  11.955
53887W        W22281  43.363   6.671   2.640
53888W        W22282  10.999  12.957   3.825
53889W        W22283  22.194  35.833  14.419
53890W        W22284  35.874  35.372   0.055
53891W        W22285   2.828  28.540  10.621
53892W        W22286  21.007  38.481   4.509
53893W        W22287  15.668   4.158  12.985
53894W        W22288   7.455  22.162   9.819
53895W        W22289  32.119   8.213   3.235
53896W        W22290  22.631  37.566   0.450
53897W        W22291  43.597  43.374  13.039
53898W        W22292  22.708  19.830  11.096
53899W        W22293   5.482  40.013   1.102
53900W        W22294  22.644  10.572   4.284
53901W        W22295  12.272  32.016   2.568
53902W        W22296  38.338  16.348  13.536
53903W        W22297  18.757  26.706  12.052
53904W        W22298  27.698  40.202  13.338
53905W        W22299   2.372  43.783   1.412
53906W        W22300  27.445  13.279   4.194
53907W        W22301  17.056  15.197  14.472
53908W        W22302  36.560  43.602   3.203
53909W        W22303  10.789  41.892   1.139
53910W        W22304  30.680  27.976  12.430
53911W        W22305  39.798  20.666   3.685
53912W        W22306  43.253   7.143   0.530
53913W        W22307  40.061  13.785   4.118
53914W        W22308   5.295  28.643  13.346
53915W        W22309  17.859  33.071   4.147
53916W        W22310  20.107  17.517   0.264
53917W        W22311  16.632  10.152  14.217
53918W        W22312  36.903   5.999   4.036
53919W        W22313  33.416  21.559   1.932
53920W        W22314  36.308   3.249   2.758
53921W        W22315  20.572   2.258   3.942
53922W        W22316  38.584  26.214  12.977
53923W        W22317  26.186  24.404   2.379
53924W        W22318  20.426   1.871  12.524
53925W        W22319  12.922  36.028  12.091
53926W        W22320  16.208   9.353  11.836
53927W        W22321  41.209  27.860  14.941
53928W        W22322  21.505  19.637   3.475
53929W        W22323  44.444  30.537   0.396
53930W        W22324  43.021  37.506   0.051
53931W        W22325  26.016  13.106  12.043
53932W        W22326  15.779   9.588   5.458
53933W        W22327   2.699  13.761  12.754
53934W        W22328   1.150  15.617   1.899
53935W        W22329  41.004  14.127  13.823
53936W        W22330  23.969   6.293   0.368
53937W        W22331  38.810   8.310   1.770
53938W        W22332  17.123   0.899  14.975
53939W        W22333  41.269  31.805   2.979
53940W        W22334  39.005  16.291  12.139
53941W        W22335  32.866  16.274  12.443
53942W        W22336  11.947   2.876  11.225
53943W        W22337  23.261  22.136   4.079
53944W        W22338  32.075   1.800  12.587
53945W        W22339  19.564  14.300  14.961
53946W        W22340  41.444  13.237  12.547
53947W        W22341   4.877  12.800   1.395
53948W        W22342   4.742  17.074  14.493
53949W        W22343  39.788   4.023  11.706
53950W        W22344  43.926  20.170  14.264
53951W        W22345   3.491  20.718   1.800
53952W        W22346  35.898  21.961   0.896
53953W        W22347  37.171  18.149  14.576
53954W        W22348  33.388  15.822   3.294
53955W        W22349  23.146   4.218  11.170
53956W        W22350  19.000  35.975   1.488
53957W        W22351  10.244  23.583  13.480
53958W        W22352   1.887  37.264   2.635
53959W        W22353  20.965  21.576  11.948
53960W        W22354   4.470  14.191  14.897
53961W        W22355   2.743  23.273   0.800
53962W        W22356  40.599  20.783   0.927
53963W        W22357  43.876   2.835   4.538
53964W        W22358  10.252  20.446  11.918
53965W        W22359  15.708  43.766  12.524
53966W        W22360   7.797   6.487  12.942
53967W        W22361   7.334  30.089   3.725
53968W        W22362  15.050   2.794  10.421
53969W        W22363  25.070  36.519  12.607
53970W        W22364   5.285  42.721   0.299
53971W        W22365  38.656  26.520   1.720
53972W        W22366  42.353  33.151   2.636
53973W        W22367  40.227  18.853   3.119
53974W        W22368  33.919  33.964  14.601
53975W        W22369  29.802  19.540  14.848
53976W        W22370  44.963  13.535  12.142
53977W        W22371   7.964  15.940   3.706
53978W        W22372   5.958  37.388  14.412
53979W        W22373  33.259  41.079  13.853
53980W        W22374  14.799  27.754   4.705
53981W        W22375  38.592  12.300  13.049
53982W        W22376  10.640   7.530  11.663
53983W        W22377  28.800  30.416   4.510
53984W        W22378  30.077  28.674  14.022
53985W        W22379  17.870  22.694   4.242
53986W        W22380  37.486  33.557   1.271
53987W        W22381   0.024  30.700  12.058
53988W        W22382  44.011   6.272  14.869
53989W        W22383  37.163  44.839   4.160
53990W        W22384  30.133  44.953  12.371
53991W        W22385  38.333  28.528  13.396
53992W        W22386  42.442  17.044   2.838
53993W        W22387  24.458  25.136   5.016
53994W        W22388  43.003  28.395   0.222
53995W        W22389  32.932  25.574   3.403
53996W        W22390  39.743  37.395  14.334
53997W        W22391   8.834  21.933   2.801
53998W        W22392  17.184  23.458  13.342
53999W        W22393  20.025  12.661   4.582
54000W        W22394  14.814  12.151   4.490
54001W        W22395   6.420   4.991   5.332
54002W        W22396  20.653  20.057  14.944
54003W        W22397  44.284  16.803  13.025
54004W        W22398  12.483  32.498   1.946
54005W        W22399  44.599  24.516   4.734
54006W        W22400   0.245  13.983  12.878
54007W        W22401   5.943   8.874   1.917
54008W        W22402  17.579  44.430  12.514
54009W        W22403  19.589  16.864  12.499
54010W        W22404   1.954   5.110   2.324
54011W        W22405  30.156   6.661   4.382
54012W        W22406  10.707  26.227  12.420
54013W        W22407  40.349   9.469   1.400
54014W        W22408  11.256  36.941   2.606
54015W        W22409  33.084  26.704  14.267
54016W        W22410  23.894  15.662   9.996
54017W        W22411  15.756  34.443   1.873
54018W        W22412  34.777  12.235  12.288
54019W        W22413  39.141  19.570  14.519
54020W        W22414  21.578  43.463  14.854
54021W        W22415   9.321  28.830   2.996
54022W        W22416  33.890  27.759   4.574
54023W        W22417  30.048   8.950  11.998
54024W        W22418  22.022  10.296   3.161
54025W        W22419  17.254  11.382  10.692
54026W        W22420  29.232  11.145   0.296
54027W        W22421   6.547  25.725  10.751
54028W        W22422   2.005   1.004   4.633
54029W        W22423  25.922  15.336   0.477
54030W        W22424  34.887   9.318   3.233
54031W        W22425  38.443  41.075   2.753
54032W        W22426  33.049  21.603   4.692
54033W        W22427   5.239  23.412   0.717
54034W        W22428  21.626  10.741  14.842
54035W        W22429  30.801   2.875   3.945
54036W        W22430  26.455  18.316   2.859
54037W        W22431  39.995  16.172   2.445
54038W        W22432   7.171  24.538  11.993
54039W        W22433   0.292  39.957  11.002
54040W        W22434  28.437  20.576  12.546
54041W        W22435  20.965  42.267  10.796
54042W        W22436  10.388   3.354  12.487
54043W        W22437  40.037  33.924   3.993
54044W        W22438  34.891  38.307   0.489
54045W        W22439   9.565  40.559   0.460
54046W        W22440  26.529  43.434  11.260
54047W        W22441  14.609  29.927  13.020
54048W        W22442  32.387  17.558   3.346
54049W        W22443  19.174  28.349   0.316
54050W        W22444  19.607  16.352  14.872
54051W        W22445   2.769  22.114   1.884
54052W        W22446  25.575  38.855   4.584
54053W        W22447   6.985   3.772  12.840
54054W        W22448  42.018  22.612   4.446
54055W        W22449  42.469  42.029   2.229
54056W        W22450  35.732   9.628  12.088
54057W        W22451  41.529  31.159  11.721
54058W        W22452  33.470  42.050  14.004
54059W        W22453  29.607  18.667   3.689
54060W        W22454   7.378  40.623   4.656
54061W        W22455   2.383  33.489   1.915
54062W        W22456  36.366  28.045   3.623
54063W        W22457  29.747   1.504   3.815
54064W        W22458  36.004  21.513   4.257
54065W        W22459  38.991  24.182   0.435
54066W        W22460   4.896  10.733  11.904
54067W        W22461  24.694   1.549  10.584
54068W        W22462   4.930  14.655  12.889
54069W        W22463  37.445   5.458  11.398
54070W        W22464  29.673  11.523   0.342
54071W        W22465  36.243  36.698   3.267
54072W        W22466  31.249  38.795  14.562
54073W        W22467   2.064  23.319   1.238
54074W        W22468  26.182  42.971   2.149
54075W        W22469  23.189  26.161   1.372
54076W        W22470  19.654  36.514  14.027
54077W        W22471   1.985  35.827   4.226
54078W        W22472  33.553  36.459  13.615
54079W        W22473   0.423   7.439  13.757
54080W        W22474   8.136  39.530  13.074
54081W        W22475  21.531  13.711  12.839
54082W        W22476  21.543  16.237  12.462
54083W        W22477   0.505  11.442  11.127
54084W        W22478  25.626  11.573  12.888
54085W        W22479  33.488  35.829  11.130
54086W        W22480   2.725  11.816   4.847
54087W        W22481  30.562   7.204  12.177
54088W        W22482   3.907  37.053  12.452
54089W        W22483  43.355   5.609  11.184
54090W        W22484   1.087  38.020  10.222
54091W        W22485   9.830  27.188   0.472
54092W        W22486  22.523  23.461  12.587
54093W        W22487  41.358  33.570   4.064
54094W        W22488  35.545   1.221   2.820
54095W        W22489  36.959  32.020   1.782
54096W        W22490  37.905   6.252   3.640
54097W        W22491  28.928  37.296   3.205
54098W        W22492  24.784  42.959   2.158
54099W        W22493  33.130  22.973  13.035
54100W        W22494  43.764  43.525   3.710
54101W        W22495  34.041  38.016  10.717
54102W        W22496  14.559  38.329  12.559
54103W        W22497  43.829  12.373  14.826
54104W        W22498   5.748  29.530   4.918
54105W        W22499  34.828  42.020   1.800
54106W        W22500  33.164   4.412   1.025
54107W        W22501  10.387  41.077   2.142
54108W        W22502  37.449  39.369   1.339
54109W        W22503  12.161  20.158  11.156
54110W        W22504   7.366  10.350  12.482
54111W        W22505  19.484   6.835  11.096
54112W        W22506  16.106  41.531   4.988
54113W        W22507  35.849  22.173  11.537
54114W        W22508  38.345  33.502  13.555
54115W        W22509  16.059  32.945  12.146
54116W        W22510  13.138  27.010   0.772
54117W        W22511  32.059   5.028  12.442
54118W        W22512  10.643  40.824   4.073
54119W        W22513   2.964  22.191  12.886
54120W        W22514  41.200  39.395   4.571
54121W        W22515   6.836  40.287   0.939
54122W        W22516  42.983   6.248   1.079
54123W        W22517  34.633  20.312  14.838
54124W        W22518  19.264  19.787  14.909
54125W        W22519  10.601  12.260  12.634
54126W        W22520  35.417  42.336  13.600
54127W        W22521  40.454   3.280  10.767
54128W        W22522  18.516  29.961  14.677
54129W        W22523  20.037  10.443  14.977
54130W        W22524  42.821   8.228  11.206
54131W        W22525  44.142   8.379   1.437
54132W        W22526  40.479  18.730   4.577
54133W        W22527   9.948  41.056  12.009
54134W        W22528  20.609   9.472   2.377
54135W        W22529   2.320  35.455  12.817
54136W        W22530   2.398   7.105   4.617
54137W        W22531  34.487  44.240   0.228
54138W        W22532  10.457   0.323   9.872
54139W        W22533   7.336  43.318  14.677
54140W        W22534  19.332  22.468  12.955
54141W        W22535  36.674  24.193  14.946
54142W        W22536   5.450  33.830  14.483
54143W        W22537  11.346  10.232   2.329
54144W        W22538  12.596  19.128  13.012
54145W        W22539  10.400  22.551   0.300
54146W        W22540  22.021   9.765   3.249
54147W        W22541  35.280  36.288   3.134
54148W        W22542  33.918  43.669  12.848
54149W        W22543   0.270  20.269   3.846
54150W        W22544  43.231  30.289  11.178
54151W        W22545  11.163  42.244  13.039
54152W        W22546  22.217  25.734  10.198
54153W        W22547   9.856  32.150   2.598
54154W        W22548  43.026  28.998  11.457
54155W        W22549   2.979  41.354   4.209
54156W        W22550  33.140  13.342  11.414
54157W        W22551  11.482  30.476   1.234
54158W        W22552  44.268  44.450   1.215
54159W        W22553  25.976  35.501   4.247
54160W        W22554  19.665  31.448  10.664
54161W        W22555   8.425  13.056   5.000
54162W        W22556  28.196  26.423  13.451
54163W        W22557  13.287  27.842   3.685
54164W        W22558  14.125   1.619  12.397
54165W        W22559  17.580  38.367  14.312
54166W        W22560   0.872  21.983  14.833
54167W        W22561  32.695  25.074  12.447
54168W        W22562   1.510  29.455   3.817
54169W        W22563  44.059  44.339   0.258
54170W        W22564  10.267  13.004   3.279
54171W        W22565  32.807  41.023  12.952
54172W        W22566  33.463   9.741   3.610
54173W        W22567   3.829   8.931  14.902
54174W        W22568  28.636  14.370  12.074
54175W        W22569  12.471  19.527   0.443
54176W        W22570  22.193   7.329   4.597
54177W        W22571  10.445  38.927  12.196
54178W        W22572  44.708  19.749   1.728
54179W        W22573  22.467   9.367   1.191
54180W        W22574  34.357  17.781  11.611
54181W        W22575   4.236   5.908   3.310
54182W        W22576   3.944  37.452   4.578
54183W        W22577  11.161  14.674   0.347
54184W        W22578  34.158  18.270   4.811
54185W        W22579  44.548  41.306  10.745
54186W        W22580   4.258  19.697  14.383
54187W        W22581  22.373  20.550  11.597
54188W        W22582   5.909  20.135   0.253
54189W        W22583  37.421  44.870   2.728
54190W        W22584  39.919  14.875  10.647
54191W        W22585  26.233   9.180  10.715
54192W        W22586   2.284  40.016  10.692
54193W        W22587  11.254  39.182   3.546
54194W        W22588  40.306  13.356   3.954
54195W        W22589   4.558  27.933   0.529
54196W        W22590  19.120  40.684  10.780
54197W        W22591  12.719  38.333   3.227
54198W        W22592  31.956  21.809  12.639
54199W        W22593  21.513  24.561  13.840
54200W        W22594  15.794   9.174  11.579
54201W        W22595  36.306   0.224  10.262
54202W        W22596  12.914  11.594  11.639
54203W        W22597  38.564   6.771   4.109
54204W        W22598  20.518  21.001  10.889
54205W        W22599   1.523  43.078   0.824
54206W        W22600  34.148  41.037   3.595
54207W        W22601   5.319  34.786   0.999
54208W        W22602   8.798  43.284   1.121
54209W        W22603  41.794  26.228   1.382
54210W        W22604  24.043   5.356  13.770
54211W        W22605  35.188  20.102   2.103
54212W        W22606  22.020   8.979  13.048
54213W        W22607  36.755   5.022   1.766
54214W        W22608  44.551  13.233  10.740
54215W        W22609  10.291  19.621   1.996
54216W        W22610  26.088  41.532  12.246
54217W        W22611  14.269  22.106   0.602
54218W        W22612  12.638  42.397   1.862
54219W        W22613   4.459  28.952  12.157
54220W        W22614  36.029  10.690  13.091
54221W        W22615  31.488  26.755  10.955
54222W        W22616  29.966  43.395  13.101
54223W        W22617  29.031  19.772   0.974
54224W        W22618  39.934  11.749  13.992
54225W        W22619  10.643  42.244  13.924
54226W        W22620   6.615  22.848   2.645
54227W        W22621  33.608  28.730   4.102
54228W        W22622  28.445  16.691  13.150
54229W        W22623  12.405  24.881   1.805
54230W        W22624   8.306  36.337   2.253
54231W        W22625  30.608  36.525  12.965
54232W        W22626   1.297   4.831  13.938
54233W        W22627   9.194   4.763  11.912
54234W        W22628  20.129  26.051   3.108
54235W        W22629  21.085  20.020  12.472
54236W        W22630  32.670   6.966   4.294
54237W        W22631  26.451   6.379  13.013
54238W        W22632  35.377  19.683   2.403
54239W        W22633  37.619   8.989   5.133
54240W        W22634  17.187  11.954  13.531
54241W        W22635   3.516  29.458  10.741
54242W        W22636  44.982  27.944  14.811
54243W        W22637  13.639  12.629   1.835
54244W        W22638  19.186  16.762   3.702
54245W        W22639   4.470  29.531  14.413
54246W        W22640   6.507  11.335  14.879
54247W        W22641  24.120  40.522  14.933
54248W        W22642  18.128  13.067   1.844
54249W        W22643  44.484  11.948   2.827
54250W        W22644  31.616  32.001  12.989
54251W        W22645  38.968  35.870   4.583
54252W        W22646  14.223  30.424   4.682
54253W        W22647   0.895  25.731  14.021
54254W        W22648  23.083  25.484  14.341
54255W        W22649   7.758  17.338   0.873
54256W        W22650  32.620   5.524  11.828
54257W        W22651  26.376  32.850  10.796
54258W        W22652  27.599  28.727   0.573
54259W        W22653   9.890   5.334   2.826
54260W        W22654  44.860  15.061  12.125
54261W        W22655   0.276  34.391  12.305
54262W        W22656  22.197   1.344   4.512
54263W        W22657  30.472   0.212  14.227
54264W        W22658  22.010  15.982  12.489
54265W        W22659   4.264  44.459  11.896
54266W        W22660  38.335  39.127  12.973
54267W        W22661  18.976  24.430   4.156
54268W        W22662   1.241   2.058  12.091
54269W        W22663  19.610  37.640  11.990
54270W        W22664  27.564  28.544  10.670
54271W        W22665  18.724  44.725  12.177
54272W        W22666  18.496  16.205  14.050
54273W        W22667  15.920  32.472  11.525
54274W        W22668  17.314  36.928  13.038
54275W        W22669  15.058  29.339   1.698
54276W        W22670  35.608  38.438  13.325
54277W        W22671   6.503  25.176  12.879
54278W        W22672   5.674   4.952  12.814
54279W        W22673   8.728   9.144   4.629
54280W        W22674   2.414  21.518   0.814
54281W        W22675  36.715  16.089   0.343
54282W        W22676  21.297  19.329  13.550
54283W        W22677  19.739  33.519  12.607
54284W        W22678   7.886  42.065  12.913
54285W        W22679  33.364  20.581  14.880
54286W        W22680  21.154   4.966   3.167
54287W        W22681  17.142  22.971   2.705
54288W        W22682  19.005  31.586  11.400
54289W        W22683  33.976  11.446  10.652
54290W        W22684  24.207  25.816  10.645
54291W        W22685  32.692   6.304   0.861
54292W        W22686  13.840  31.909  14.675
54293W        W22687  26.206  39.961   4.575
54294W        W22688  36.520   9.637   4.580
54295W        W22689  27.005   8.797  12.020
54296W        W22690  39.328  24.724  10.737
54297W        W22691  39.062  38.656   0.212
54298W        W22692   7.906  30.971  10.461
54299W        W22693  13.326  23.009  14.509
54300W        W22694   0.360  20.424  10.807
54301W        W22695   0.669  24.429   2.201
54302W        W22696  14.674   5.137   9.776
54303W        W22697  17.155  37.083   3.558
54304W        W22698   4.336   2.649   4.367
54305W        W22699   9.266  38.906  11.024
54306W        W22700  15.461  39.019   1.292
54307W        W22701  26.660  27.064   3.281
54308W        W22702   5.916  41.606   0.420
54309W        W22703  17.109   2.365   3.615
54310W        W22704  14.482  28.121   1.357
54311W        W22705   8.338  25.550   1.936
54312W        W22706  13.216  39.860   2.606
54313W        W22707  25.288   2.356  12.580
54314W        W22708  18.278  16.878   0.091
54315W        W22709   2.279   9.259  12.045
54316W        W22710  16.043  22.785  10.643
54317W        W22711   7.752   1.456   3.330
54318W        W22712  27.392  10.186   3.242
54319W        W22713  28.163  21.473  14.046
54320W        W22714  37.910  38.725  10.310
54321W        W22715   7.810  32.585   2.187
54322W        W22716   0.485  38.525  12.496
54323W        W22717  42.068  17.636   3.611
54324W        W22718   0.273  13.110  11.688
54325W        W22719   6.195  26.489  14.329
54326W        W22720  40.029  16.274  10.623
54327W        W22721   2.285  30.600   4.223
54328W        W22722  15.426  15.404   1.228
54329W        W22723   6.760   0.048   3.814
54330W        W22724  10.684   9.117  13.917
54331W        W22725  34.861  18.112   1.469
54332W        W22726  37.599  32.582  10.419
54333W        W22727   8.205  31.006   0.384
54334W        W22728  20.884  21.799  11.056
54335W        W22729  30.764   0.627   3.767
54336W        W22730  44.552   3.796   0.764
54337W        W22731   0.976  17.366   0.032
54338W        W22732   8.732  39.552  14.302
54339W        W22733  14.708  30.335   0.241
54340W        W22734  37.358   9.039  12.969
54341W        W22735  21.240   2.966  12.970
54342W        W22736  40.386   0.249  12.630
54343W        W22737  27.199   0.291  12.055
54344W        W22738  34.824   5.920  13.519
54345W        W22739  29.852   7.223  10.751
54346W        W22740  10.396  40.407  12.896
54347W        W22741  30.331  33.089  11.094
54348W        W22742  41.076  38.699  11.721
54349W        W22743  43.887  17.726   2.286
54350W        W22744  21.976  42.308  10.644
54351W        W22745  35.592  19.436   1.679
54352W        W22746  19.352  40.670   0.304
54353W        W22747  26.168  44.971  13.686
54354W        W22748  17.802   5.915  10.982
54355W        W22749  44.397  17.663   3.397
54356W        W22750  32.717  30.693  12.920
54357W        W22751  14.565  13.343  10.817
54358W        W22752   5.809  41.712   4.732
54359W        W22753  40.661   8.575  14.243
54360W        W22754  11.047  26.722   0.357
54361W        W22755  28.195  10.410   0.106
54362W        W22756  12.092  26.571   0.240
54363W        W22757  14.337   8.390   3.244
54364W        W22758  15.555  44.239   1.334
54365W        W22759  36.777  20.185   4.581
54366W        W22760   0.187  27.047   3.338
54367W        W22761  28.709  25.123   2.805
54368W        W22762   5.657  35.894   2.689
54369W        W22763  34.110  33.047   1.320
54370W        W22764  38.009  37.466   3.129
54371W        W22765  40.421  36.841  11.206
54372W        W22766  16.200  41.730  11.692
54373W        W22767   8.665  43.885   1.298
54374W        W22768  31.993  13.575   4.084
54375W        W22769  26.908  26.500  12.938
54376W        W22770  11.677  33.615  11.637
54377W        W22771  38.049  32.897  10.889
54378W        W22772   0.402  16.076   3.089
54379W        W22773   3.896  12.617  11.315
54380W        W22774  13.429  28.024  10.653
54381W        W22775  42.068  12.792   4.186
54382W        W22776  22.861  43.235   2.157
54383W        W22777  24.904  18.696   0.804
54384W        W22778  39.084  21.803   2.174
54385W        W22779   2.119  39.436   4.339
54386W        W22780  14.697  22.834   0.428
54387W        W22781   3.216   5.761   1.827
54388W        W22782  36.344  17.121   3.126
54389W        W22783  33.458  13.281   3.417
54390W        W22784  32.015  21.551   3.329
54391W        W22785  12.521  16.195   1.290
54392W        W22786   6.735   8.421   4.868
54393W        W22787  35.494  41.919  12.834
54394W        W22788  20.541  12.010  12.540
54395W        W22789  13.025  16.124   1.304
54396W        W22790  32.601  21.377   3.785
54397W        W22791  21.738  31.112  13.046
54398W        W22792  22.248  35.517   1.242
54399W        W22793  25.124  30.585   3.090
54400W        W22794  23.961  26.407   0.786
54401W        W22795  34.910   4.859   3.459
54402W        W22796  11.837  34.914   1.008
54403W        W22797  11.853  24.283  10.802
54404W        W22798  17.291  21.160  12.963
54405W        W22799  30.985   2.817   2.194
54406W        W22800   3.873  32.653   1.392
54407W        W22801  28.699  27.162   3.135
54408W        W22802  10.955   0.545  12.531
54409W        W22803  23.456  35.828  10.615
54410W        W22804  28.437  27.535  11.441
54411W        W22805   9.914  44.341   4.325
54412W        W22806  43.510  34.213  11.449
54413W        W22807   7.849  25.742   0.813
54414W        W22808  28.265  31.476   1.617
54415W        W22809  10.687  22.472  10.119
54416W        W22810   7.839   3.372  14.961
54417W        W22811  34.715  30.293   2.218
54418W        W22812  25.513  12.376   4.629
54419W        W22813  28.410   5.954   2.658
54420W        W22814  28.971  30.763  13.999
54421W        W22815  24.998   0.320  10.321
54422W        W22816  26.361  19.235   1.736
54423W        W22817  19.795   8.699  12.532
54424W        W22818  40.814  28.247  14.969
54425W        W22819  38.958   8.827   1.807
54426W        W22820  41.428  12.182  12.608
54427W        W22821  20.149  19.271  14.967
54428W        W22822  15.883  43.814  11.642
54429W        W22823   5.952  41.688  11.081
54430W        W22824   3.240   3.417  11.619
54431W        W22825  31.022  24.514  14.940
54432W        W22826  19.524  20.688   3.693
54433W        W22827  16.320  18.379  12.859
54434W        W22828  15.217  18.873  13.401
54435W        W22829   5.220  16.583  14.723
54436W        W22830  12.665  23.500   3.359
54437W        W22831  18.077  11.377  13.380
54438W        W22832  35.982   4.475   0.910
54439W        W22833   0.209  24.252   4.169
54440W        W22834  40.112   2.674  12.841
54441W        W22835   5.978  44.315   3.577
54442W        W22836  22.193  28.963  14.423
54443W        W22837  30.910   3.135  12.141
54444W        W22838  25.981  38.518  13.006
54445W        W22839   0.894  40.121   3.773
54446W        W22840  25.528  17.160  12.377
54447W        W22841  29.185  27.172  10.720
54448W        W22842  23.518  14.484   4.533
54449W        W22843  24.042  19.375  13.087
54450W        W22844  38.563  41.493   0.590
54451W        W22845  21.799  11.648   1.191
54452W        W22846  10.684   5.954   3.512
54453W        W22847  10.617  37.804  10.767
54454W        W22848  19.329  37.442   2.935
54455W        W22849  42.521  41.846   0.895
54456W        W22850  40.451  35.123   3.855
54457W        W22851   0.276  34.859   1.230
54458W        W22852  43.898  30.637   4.549
54459W        W22853   5.281  22.039  13.405
54460W        W22854  37.598  15.037   2.335
54461W        W22855  37.827  42.326  14.913
54462W        W22856  24.964  40.797   0.351
54463W        W22857  42.467  36.093  11.083
54464W        W22858   3.794   4.692  14.362
54465W        W22859  24.706  36.196  10.616
54466W        W22860  38.319  16.400   4.601
54467W        W22861  14.233  40.280   4.601
54468W        W22862   9.427  11.757  11.927
54469W        W22863  40.326   0.842   4.621
54470W        W22864   7.120  43.356   3.704
54471W        W22865  42.270   7.903   0.390
54472W        W22866  25.571  17.171  14.887
54473W        W22867  38.111  19.687  11.158
54474W        W22868  24.449  26.021   4.840
54475W        W22869  35.332   4.291   0.529
54476W        W22870  20.676   6.137  11.604
54477W        W22871  14.993   9.727  11.628
54478W        W22872  21.236  30.828  11.910
54479W        W22873  18.249  14.213   0.752
54480W        W22874  18.305   4.140   3.253
54481W        W22875   4.951  44.277   3.085
54482W        W22876   2.705  41.797   3.180
54483W        W22877  41.876  22.048  12.165
54484W        W22878  24.322  31.972  13.355
54485W        W22879   4.942  29.964  13.988
54486W        W22880  20.629  14.746  11.935
54487W        W22881  24.806  43.686  11.218
54488W        W22882  19.657   9.440  10.712
54489W        W22883   8.567  39.004   2.758
54490W        W22884  25.741  31.924   3.217
54491W        W22885  22.329  14.572  12.360
54492W        W22886  11.128  34.217   3.207
54493W        W22887  28.542   6.893   1.594
54494W        W22888   6.678  13.548  13.865
54495W        W22889  12.258  22.664   0.020
54496W        W22890   4.753  33.884  11.151
54497W        W22891   9.821   5.331  14.294
54498W        W22892  21.526  38.523  11.443
54499W        W22893   0.350  10.010  11.144
54500W        W22894  30.288  13.074  11.312
54501W        W22895  11.192  25.300  12.638
54502W        W22896  30.835  24.432  11.027
54503W        W22897  39.563  14.808   1.270
54504W        W22898  38.355  37.926   4.375
54505W        W22899  23.216  26.698  11.625
54506W        W22900  27.009  26.658  12.016
54507W        W22901  15.158   9.314  13.297
54508W        W22902  31.432  40.572  13.923
54509W        W22903  12.904  29.422  13.026
54510W        W22904  35.309  15.199  13.552
54511W        W22905  37.070  40.049  13.384
54512W        W22906  32.059   6.233   4.182
54513W        W22907  27.069  43.443  14.483
54514W        W22908  17.593  13.101   0.937
54515W        W22909  27.461  37.937   3.253
54516W        W22910  22.418  41.050   4.643
54517W        W22911  29.709  24.176  11.723
54518W        W22912   4.945  17.994   0.518
54519W        W22913   3.426   3.956   2.867
54520W        W22914  22.110  17.587   3.409
54521W        W22915  40.017   7.807   0.716
54522W        W22916  25.888   2.918  13.341
54523W        W22917  19.307  34.837   0.913
54524W        W22918  23.872  32.982   2.280
54525W        W22919  43.215   5.599  10.700
54526W        W22920   7.222  44.245  12.258
54527W        W22921  38.981  32.121  13.724
54528W        W22922  29.146  31.611  14.472
54529W        W22923  23.220  42.372  11.198
54530W        W22924   1.244   3.143  11.028
54531W        W22925  15.075   3.225   1.307
54532W        W22926  26.792  17.871  11.128
54533W        W22927  23.265  28.478   1.823
54534W        W22928   9.036  35.099  11.631
54535W        W22929  15.088  40.056   2.368
54536W        W22930  43.099  21.624  14.003
54537W        W22931  42.632  13.355   2.571
54538W        W22932  15.261  28.690  12.640
54539W        W22933  10.250  13.638   4.202
54540W        W22934  31.603  33.576   0.195
54541W        W22935  41.388  21.265   0.764
54542W        W22936  39.494   5.995  14.860
54543W        W22937   0.943   5.513  10.764
54544W        W22938  43.848  28.480  10.570
54545W        W22939  18.073  28.603  13.853
54546W        W22940   6.737   4.218  11.263
54547W        W22941  38.793   4.337   3.443
54548W        W22942  23.784  15.813  12.769
54549W        W22943  42.584  36.443  11.433
54550W        W22944  10.370  38.434   0.386
54551W        W22945  36.545   2.775  11.856
54552W        W22946   4.169  16.445   2.474
54553W        W22947   7.135  42.012  11.616
54554W        W22948  27.311  29.954  11.363
54555W        W22949  13.462  32.748  12.500
54556W        W22950  19.365   3.531   4.363
54557W        W22951   7.603  26.168   4.944
54558W        W22952  10.407  44.483   0.915
54559W        W22953   9.678  16.099   3.163
54560W        W22954   3.507   2.735  12.601
54561W        W22955   3.107  33.412   3.649
54562W        W22956   0.722  14.560   2.630
54563W        W22957  29.712   0.916   3.030
54564W        W22958   6.695  25.271   3.670
54565W        W22959  44.426  40.339   0.411
54566W        W22960  36.868  39.318  14.332
54567W        W22961  36.396  43.032  14.980
54568W        W22962  13.917   1.561   2.382
54569W        W22963   9.082  19.170  12.011
54570W        W22964   0.493  36.025  11.159
54571W        W22965  29.527  19.810   2.194
54572W        W22966   9.894  37.354   4.977
54573W        W22967  36.124  12.035   3.763
54574W        W22968   3.667  24.183  13.843
54575W        W22969  14.910  23.736   2.450
54576W        W22970   4.057  29.849   1.225
54577W        W22971  40.702  25.209   0.893
54578W        W22972  12.449  28.207   1.453
54579W        W22973  10.818  13.321   2.506
54580W        W22974  12.749  32.951   4.935
54581W        W22975  40.740  17.257  14.379
54582W        W22976   4.449  38.251   3.225
54583W        W22977  12.324  40.813   0.256
54584W        W22978  35.144   2.164  10.570
54585W        W22979  42.667   4.464  14.914
54586W        W22980  30.805  16.115  11.208
54587W        W22981  34.425  41.499   0.991
54588W        W22982  10.434   9.936  13.292
54589W        W22983   9.072  27.081  10.093
54590W        W22984   5.219  29.016   1.872
54591W        W22985  35.561  31.204   1.146
54592W        W22986  41.016   3.428  10.683
54593W        W22987   8.414  25.524  13.456
54594W        W22988  20.521  34.964   1.728
54595W        W22989  26.630  27.519  11.954
54596W        W22990  28.938   2.572   0.415
54597W        W22991  29.591  26.153   3.913
54598W        W22992  41.537  17.506  12.632
54599W        W22993  26.995  10.600  14.822
54600W        W22994  19.904  21.690   2.259
54601W        W22995   5.089  21.291   4.578
54602W        W22996  26.156  18.281   0.211
54603W        W22997   7.188   6.597   0.481
54604W        W22998  36.058  25.086  10.596
54605W        W22999  36.109  35.028   2.405
54606W        W23000  19.090  32.704  14.396
54607W        W23001   3.694   3.778  14.773
54608W        W23002  21.278  32.841  10.037
54609W        W23003  33.338  18.771  14.781
54610W        W23004  31.830  26.480  12.596
54611W        W23005  33.049   2.135  11.137
54612W        W23006  36.458   7.213   4.784
54613W        W23007  32.044  14.657   3.312
54614W        W23008   9.343  23.692  11.530
54615W        W23009  30.071   3.384  11.962
54616W        W23010   7.183   1.967  12.936
54617W        W23011  13.282  43.529   0.986
54618W        W23012  44.247  41.729   2.739
54619W        W23013  28.220  26.200  12.083
54620W        W23014  22.918  33.016   0.273
54621W        W23015  33.872  11.113  13.812
54622W        W23016   1.617   2.613  14.867
54623W        W23017   6.965  34.925   3.414
54624W        W23018  34.355  21.532   0.939
54625W        W23019  43.255  27.750  10.539
54626W        W23020   2.152  24.080   1.128
54627W        W23021  25.119  40.371   0.551
54628W        W23022  43.768  38.564   2.111
54629W        W23023  35.041  29.957   2.956
54630W        W23024  10.796  29.135   0.380
54631W        W23025  39.561  15.156  12.109
54632W        W23026  30.116  29.883   0.643
54633W        W23027  18.768  34.167  10.728
54634W        W23028  30.128  14.316  14.697
54635W        W23029  24.163  14.695  12.510
54636W        W23030  18.735  24.993  10.321
54637W        W23031  35.996  15.911   2.112
54638W        W23032  15.286   4.389   4.671
54639W        W23033  34.034   2.986   0.789
54640W        W23034  21.241   8.401  13.445
54641W        W23035  29.100  15.073  14.404
54642W        W23036  44.303  16.612  10.673
54643W        W23037  19.308  32.959   2.227
54644W        W23038   3.781  16.602  13.173
54645W        W23039  30.095  43.994  12.092
54646W        W23040   0.184  30.729  13.404
54647W        W23041  12.199  26.056  14.140
54648W        W23042  32.794   8.845  14.443
54649W        W23043  17.927  28.412   1.297
54650W        W23044   5.853  35.888  13.517
54651W        W23045  31.588  22.222  10.666
54652W        W23046  15.613  31.873  12.109
54653W        W23047   2.144  12.874  14.643
54654W        W23048   1.859  26.809  14.381
54655W        W23049  44.018  35.523   4.089
54656W        W23050  38.098  11.254   3.642
54657W        W23051  41.787  13.245  12.093
54658W        W23052  41.909  13.281   4.063
54659W        W23053  44.827  17.634  13.036
54660W        W23054  13.599  25.468   3.670
54661W        W23055  34.945  14.529  10.603
54662W        W23056   4.201  27.172  11.863
54663W        W23057  19.128  17.738  12.457
54664W        W23058  17.252   5.007  12.444
54665W        W23059   5.701  15.385   3.581
54666W        W23060   7.014   0.539   3.779
54667W        W23061   6.081  14.158  11.482
54668W        W23062  31.901  40.780   3.219
54669W        W23063  41.818   6.644   0.389
54670W        W23064  27.635  20.184   0.424
54671W        W23065  34.305  12.015  13.504
54672W        W23066  20.885  11.774   4.818
54673W        W23067  21.537  23.698   1.605
54674W        W23068  36.417  38.018   4.052
54675W        W23069  12.693  22.289  12.074
54676W        W23070  28.112  23.140  12.614
54677W        W23071  17.320  18.431   1.314
54678W        W23072  20.718  14.102  13.616
54679W        W23073  10.169  20.738  13.394
54680W        W23074   9.893  17.348  14.999
54681W        W23075  30.580  19.745   3.120
54682W        W23076  13.277  10.721   2.633
54683W        W23077  43.196   8.740   1.678
54684W        W23078   0.901  12.091   0.748
54685W        W23079  16.011   2.701   0.033
54686W        W23080   5.202  36.969   4.141
54687W        W23081   3.230  23.909  12.327
54688W        W23082  43.440  41.506  11.550
54689W        W23083  16.804  27.883  13.773
54690W        W23084   5.815  40.265  14.405
54691W        W23085  26.700  13.295  14.448
54692W        W23086  39.021  22.984  11.957
54693W        W23087  21.222   1.181  13.827
54694W        W23088  22.969  36.558  13.117
54695W        W23089  37.494  16.611  13.306
54696W        W23090  35.887  44.969  12.370
54697W        W23091  36.923  28.716   0.614
54698W        W23092  16.056  21.289   4.167
54699W        W23093   5.254  29.543  12.336
54700W        W23094   4.150  30.671   1.572
54701W        W23095  12.156  16.216  10.961
54702W        W23096   3.465  21.120   1.458
54703W        W23097   1.171  40.789  11.289
54704W        W23098  19.514  22.543   3.317
54705W        W23099  44.412  32.382   1.395
54706W        W23100   3.057  17.096  14.705
54707W        W23101  37.363  15.855  14.738
54708W        W23102   7.194  19.518   0.402
54709W        W23103  24.499  19.895   2.822
54710W        W23104  20.078  39.641  10.665
54711W        W23105  26.197  11.217   0.319
54712W        W23106   1.251  13.851   3.717
54713W        W23107   9.942   8.838   3.423
54714W        W23108  41.515  20.057   0.281
54715W        W23109  10.589  43.948   1.731
54716W        W23110  36.425  31.659  11.116
54717W        W23111  26.856  28.084  14.845
54718W        W23112  28.600  42.627   5.121
54719W        W23113  19.582   8.346   0.403
54720W        W23114  27.237  40.030  13.145
54721W        W23115   6.103   6.469   2.395
54722W        W23116  21.349  35.624  13.460
54723W        W23117  42.038   4.296  13.684
54724W        W23118   5.685   0.904   0.620
54725W        W23119  23.635   4.382   0.216
54726W        W23120  43.857   5.773  14.878
54727W        W23121   0.388  41.369   3.336
54728W        W23122   7.833   7.904  14.845
54729W        W23123  34.756  17.663  11.932
54730W        W23124  21.178   0.894  14.262
54731W        W23125  40.549  14.290  11.670
54732W        W23126   5.644   5.798   2.714
54733W        W23127   6.221  37.324  11.196
54734W        W23128  30.715  15.223  13.909
54735W        W23129   1.368  23.431  10.492
54736W        W23130  23.157   9.661   1.817
54737W        W23131  44.013  21.529   4.128
54738W        W23132  23.452  19.790   3.137
54739W        W23133  11.365   4.999  14.968
54740W        W23134  24.975  19.787  11.562
54741W        W23135  31.203  30.486   4.215
54742W        W23136  31.119  34.458   2.072
54743W        W23137  29.098  28.031   2.743
54744W        W23138  11.788  24.054  12.063
54745W        W23139   2.058  14.700   0.472
54746W        W23140   1.920   5.447  11.637
54747W        W23141  36.392  26.447   3.299
54748W        W23142   5.172  28.041  10.572
54749W        W23143  23.737   7.919   4.596
54750W        W23144  38.138  11.682  14.840
54751W        W23145  11.723  38.882  13.048
54752W        W23146  36.691  16.054  12.553
54753W        W23147  24.696  29.325   1.754
54754W        W23148   2.855  21.620  11.649
54755W        W23149  15.060   7.363   2.844
54756W        W23150  30.652  43.247   3.643
54757W        W23151  12.439   7.903  11.230
54758W        W23152  14.325  11.885  14.942
54759W        W23153  22.582  30.926   1.614
54760W        W23154  10.889  31.763   4.580
54761W        W23155  16.545  34.056  14.530
54762W        W23156  17.100   6.290   3.220
54763W        W23157  13.008  39.985   0.820
54764W        W23158  40.506   2.898   3.518
54765W        W23159  31.533   9.904  12.370
54766W        W23160  17.299  14.338  13.438
54767W        W23161   7.098  32.470  14.982
54768W        W23162  18.565  27.535   0.231
54769W        W23163  22.275   5.697   2.726
54770W        W23164   2.276  26.597  13.463
54771W        W23165  29.985  39.812  13.991
54772W        W23166  34.062  19.869  11.956
54773W        W23167  40.988  43.254  12.008
54774W        W23168  16.324  17.267   3.121
54775W        W23169   9.269  26.558  12.669
54776W        W23170  43.861  16.506  12.906
54777W        W23171  19.803   8.351  14.911
54778W        W23172  18.851  38.922  12.061
54779W        W23173  42.850  21.656   1.706
54780W        W23174  44.972  13.069   0.955
54781W        W23175  32.524   2.460   3.406
54782W        W23176   6.465  14.657   2.348
54783W        W23177  38.369   9.067  12.373
54784W        W23178  29.094  20.576  13.022
54785W        W23179  20.249  32.020   1.905
54786W        W23180  32.246  15.542   4.475
54787W        W23181  44.913   3.702  11.996
54788W        W23182  43.785  15.603   3.994
54789W        W23183   2.366  23.676  10.772
54790W        W23184  27.987   1.647   4.125
54791W        W23185  40.893  28.670   0.253
54792W        W23186  20.495  34.770  13.223
54793W        W23187   1.292  28.460  13.858
54794W        W23188  31.280   4.756  10.674
54795W        W23189   8.933  12.648  10.735
54796W        W23190  29.531   3.705  14.975
54797W        W23191  13.716   5.333   0.211
54798W        W23192  10.788   1.807   4.118
54799W        W23193  27.190  36.974  12.429
54800W        W23194  18.661  21.531   2.388
54801W        W23195  13.956  31.102   1.243
54802W        W23196  13.488  19.402  14.780
54803W        W23197  30.013   5.928   0.320
54804W        W23198  24.761  43.365  13.464
54805W        W23199   3.376  34.444   1.419
54806W        W23200  26.585  43.011  10.971
54807W        W23201  36.773  26.161   3.498
54808W        W23202  24.023  24.488  11.150
54809W        W23203  26.686   3.889   2.816
54810W        W23204  33.354   6.297   3.818
54811W        W23205  23.493  44.369   0.507
54812W        W23206  18.335  43.956  13.020
54813W        W23207  43.232  19.124  13.596
54814W        W23208  32.525   1.027   3.347
54815W        W23209  24.513   9.702  14.255
54816W        W23210   3.930   8.148  12.124
54817W        W23211   1.650   2.279   1.722
54818W        W23212  38.063  13.697  11.450
54819W        W23213  10.721  35.545  11.201
54820W        W23214  39.531  44.865  14.382
54821W        W23215  31.435  10.677  14.105
54822W        W23216   0.381   3.374   1.526
54823W        W23217   6.636  28.970  13.329
54824W        W23218  26.085  11.800  11.505
54825W        W23219  10.532  25.270   4.716
54826W        W23220  38.248  17.579   4.111
54827W        W23221  35.324  42.406   3.847
54828W        W23222  13.701  10.639  14.042
54829W        W23223   9.446  40.776  14.519
54830W        W23224  33.442  23.194  10.816
54831W        W23225  34.461  16.849  11.388
54832W        W23226  22.040  29.798  14.386
54833W        W23227  42.466   5.237   4.041
54834W        W23228  13.886  25.046  12.127
54835W        W23229   1.343  38.587   1.726
54836W        W23230  41.922  27.772   5.066
54837W        W23231  22.149  25.377  13.252
54838W        W23232  29.735   8.642  10.751
54839W        W23233  35.837  28.436   2.852
54840W        W23234  39.415  15.080  13.075
54841W        W23235  30.348  16.076   0.798
54842W        W23236  35.042   3.458  12.530
54843W        W23237  38.165  23.690   3.322
54844W        W23238   4.470   4.410  12.127
54845W        W23239  19.315   8.919   4.080
54846W        W23240  42.870   0.301  13.313
54847W        W23241   9.166  17.250   0.353
54848W        W23242  34.515   1.169  12.925
54849W        W23243  16.768  25.953  13.889
54850W        W23244  31.051  28.477   1.694
54851W        W23245  23.271  40.359   0.284
54852W        W23246  44.582  42.993   5.098
54853W        W23247   8.163  42.562  14.826
54854W        W23248  38.163  30.551  10.633
54855W        W23249  44.990  13.546   1.763
54856W        W23250  28.953  17.680  11.072
54857W        W23251   2.010  12.083  12.139
54858W        W23252  22.211  17.880  11.651
54859W        W23253  34.085  24.088  13.176
54860W        W23254  35.050  22.039   3.673
54861W        W23255  10.809   4.435   2.261
54862W        W23256   1.434  42.339  13.875
54863W        W23257  10.269   3.953   2.743
54864W        W23258  37.341  37.153  12.963
54865W        W23259  28.575  22.792   0.369
54866W        W23260  25.132  29.256   1.492
54867W        W23261  30.869  28.515  11.183
54868W        W23262   0.239  15.137  13.390
54869W        W23263  27.703   0.912  12.662
54870W        W23264  23.994  33.036  10.640
54871W        W23265  30.003  39.505   1.549
54872W        W23266   5.708  16.583  12.994
54873W        W23267  19.718  22.322  12.455
54874W        W23268  38.930  10.173  10.961
54875W        W23269  15.804  22.237   2.209
54876W        W23270  43.856  20.212  13.378
54877W        W23271  30.563  11.633  11.553
54878W        W23272   7.122   9.235   1.229
54879W        W23273  30.355  23.157  13.470
54880W        W23274  35.618   3.507   2.255
54881W        W23275  22.330  11.946  12.543
54882W        W23276   7.550  13.904   0.421
54883W        W23277   1.415  22.520  10.791
54884W        W23278  38.553  16.214   1.385
54885W        W23279   8.735  21.103   1.900
54886W        W23280  41.368  18.320   3.202
54887W        W23281  26.717  26.411  10.805
54888W        W23282  44.893  28.955   3.722
54889W        W23283  42.076   7.416  14.607
54890W        W23284  25.243  28.893   3.688
54891W        W23285  34.948  40.252   1.237
54892W        W23286  29.254  17.773  11.502
54893W        W23287   2.432  18.767   3.717
54894W        W23288  40.131   2.521  14.435
54895W        W23289   6.787  13.890   2.797
54896W        W23290  17.018   9.579  11.484
54897W        W23291  19.823  26.115  11.103
54898W        W23292  10.884  18.750  11.875
54899W        W23293  42.509   4.239   2.720
54900W        W23294  19.577  13.851  12.961
54901W        W23295   9.917  15.955  12.333
54902W        W23296  37.722  31.945  13.914
54903W        W23297  17.363  24.939  13.133
54904W        W23298  43.439  34.091  10.930
54905W        W23299   2.353  10.300   0.904
54906W        W23300   4.555  43.868  12.977
54907W        W23301   5.684  42.404   1.672
54908W        W23302   5.412  29.386  12.800
54909W        W23303  39.095   8.830  14.387
54910W        W23304  19.297  23.133  12.447
54911W        W23305  31.571  11.269  13.434
54912W        W23306  28.427   2.704   2.214
54913W        W23307  40.339  41.885  13.335
54914W        W23308   6.232  21.036   4.055
54915W        W23309  28.025  43.380   0.637
54916W        W23310   8.412  16.807   0.492
54917W        W23311  21.180  12.313  12.980
54918W        W23312  12.837  40.621   3.707
54919W        W23313  16.792  41.927   1.127
54920W        W23314   9.375  16.732  12.043
54921W        W23315  42.072  12.909  11.612
54922W        W23316  15.277  25.430  12.416
54923W        W23317  23.312  44.670   3.216
54924W        W23318  30.870  11.117  13.939
54925W        W23319  42.879   7.144   3.578
54926W        W23320  27.506  13.641  12.006
54927W        W23321  44.531   3.019   1.871
54928W        W23322  22.551  15.009   4.649
54929W        W23323   6.065  40.813   3.323
54930W        W23324  14.783  16.881  11.656
54931W        W23325  41.010  21.651   0.963
54932W        W23326  37.698   5.680  14.091
54933W        W23327  16.108  16.060   4.538
54934W        W23328   3.528   8.652   0.893
54935W        W23329  20.214   6.041   0.394
54936W        W23330  24.994  28.759   2.375
54937W        W23331   5.433  26.204  11.158
54938W        W23332  16.613   1.889  13.019
54939W        W23333   2.434   2.507   0.380
54940W        W23334   4.956  12.704  13.861
54941W        W23335  23.554   7.837  13.911
54942W        W23336  38.826   0.932  12.037
54943W        W23337  22.406  15.051  12.600
54944W        W23338   8.674  18.681  10.671
54945W        W23339  10.199  34.826   3.717
54946W        W23340  11.556  30.965  11.825
54947W        W23341  34.336  17.231  12.145
54948W        W23342  31.479  40.370   0.193
54949W        W23343  18.040  24.227   2.742
54950W        W23344  33.155  18.522  12.024
54951W        W23345  23.303  21.288   1.751
54952W        W23346  27.545  12.530  10.716
54953W        W23347  22.103  13.740   3.780
54954W        W23348   3.397   4.384  14.490
54955W        W23349  34.578  12.635  14.096
54956W        W23350   1.877   1.721   0.468
54957W        W23351  43.385  24.637   3.791
54958W        W23352  22.979  43.816  14.827
54959W        W23353   8.748  26.972   0.288
54960W        W23354  42.744  36.023   1.929
54961W        W23355  35.451  29.706   4.712
54962W        W23356  16.765   9.785  13.551
54963W        W23357  18.696  36.453  10.573
54964W        W23358  21.944  38.561  12.927
54965W        W23359  13.145   8.555  11.580
54966W        W23360  27.179  35.101   0.934
54967W        W23361  38.079  14.618   1.683
54968W        W23362  10.311   2.443   2.697
54969W        W23363  17.217  19.297  14.387
54970W        W23364  44.459  11.518   4.184
54971W        W23365   4.802  36.485  13.427
54972W        W23366  12.903  22.086   3.549
54973W        W23367  38.100  31.711   1.792
54974W        W23368  43.759  11.336   0.635
54975W        W23369  33.156  33.445   3.735
54976W        W23370   8.341  40.771  10.681
54977W        W23371   4.265  27.422   2.365
54978W        W23372  19.302  20.297  14.840
54979W        W23373   7.749  36.659  14.864
54980W        W23374   7.862  18.267   0.936
54981W        W23375  42.541  14.308   2.590
54982W        W23376  16.353  22.020  13.487
54983W        W23377  24.166  37.268   3.300
54984W        W23378   6.117   5.952   1.095
54985W        W23379  26.978   6.846   2.203
54986W        W23380  35.331  16.161   4.501
54987W        W23381  31.213   7.796  13.419
54988W        W23382   8.174   0.240  14.672
54989W        W23383   4.434  39.170   4.757
54990W        W23384  17.093  35.617  12.070
54991W        W23385  19.723  42.874   4.102
54992W        W23386  31.416  33.331  11.992
54993W        W23387   9.116  30.901   3.206
54994W        W23388  38.772  15.086  11.727
54995W        W23389   6.799   2.299  12.990
54996W        W23390   3.442  26.624  11.145
54997W        W23391  20.601  17.243   2.839
54998W        W23392  11.467  11.331  11.357
54999W        W23393   0.343  41.266   1.015
55000W        W23394  35.772  31.533   4.602
55001W        W23395   1.355  13.738   1.938
55002W        W23396  35.838  36.511  13.872
55003W        W23397  19.743  15.305   1.992
55004W        W23398  39.576  43.778  13.342
55005W        W23399  39.372   4.313   1.243
55006W        W23400   4.216  15.313   0.763
55007W        W23401  28.431  10.129  10.565
55008W        W23402  13.326  40.956   0.486
55009W        W23403  20.457  41.128  13.337
55010W        W23404  11.451  28.962   3.792
55011W        W23405  29.699  40.492   0.559
55012W        W23406  12.684  21.699   1.755
55013W        W23407  29.432  27.639   0.467
55014W        W23408  10.828   4.520   3.238
55015W        W23409  15.149  43.306  13.777
55016W        W23410  37.037  26.292   0.871
55017W        W23411   5.785  22.334   3.727
55018W        W23412  16.161  38.032  13.848
55019W        W23413  13.632   3.309   3.245
55020W        W23414  18.770  40.291  12.104
55021W        W23415  17.069  26.555  13.052
55022W        W23416   1.415   7.710  11.000
55023W        W23417  42.124  12.665   0.628
55024W        W23418  20.314   2.960   1.781
55025W        W23419   8.803  14.045   3.816
55026W        W23420  40.163  32.876  11.132
55027W        W23421  20.217  35.436  12.168
55028W        W23422  12.884  43.190   2.837
55029W        W23423   6.361  36.029  10.766
55030W        W23424   3.785  20.014   4.116
55031W        W23425   9.269  44.252  12.089
55032W        W23426  26.052  39.536  14.595
55033W        W23427  25.055   9.623  10.214
55034W        W23428  20.987  32.518  13.350
55035W        W23429   4.808   0.389  14.963
55036W        W23430   0.832  10.184  11.210
55037W        W23431  37.395  31.741   3.649
55038W        W23432  38.978  41.521  14.296
55039W        W23433  37.744  24.232   2.364
55040W        W23434  33.871  17.220  14.048
55041W        W23435   7.540   7.324  11.517
55042W        W23436  14.400  32.556   0.213
55043W        W23437   0.309  40.848  11.878
55044W        W23438  27.993  25.556  14.395
55045W        W23439  40.326  21.907   4.735
55046W        W23440   4.694  22.508   1.338
55047W        W23441   7.533  27.100   4.141
55048W        W23442  21.889  31.002   0.771
55049W        W23443   9.216   1.721   1.799
55050W        W23444   7.873  27.065   1.695
55051W        W23445  16.255  44.719   4.835
55052W        W23446  27.618   2.258   3.320
55053W        W23447  31.964  36.150  14.053
55054W        W23448  33.736  17.901  12.151
55055W        W23449  15.963  15.637   0.254
55056W        W23450  17.567   2.720  11.355
55057W        W23451  35.394   0.272  13.377
55058W        W23452  14.306   3.806   4.227
55059W        W23453  44.514  11.363   0.333
55060W        W23454  18.221  16.870   1.380
55061W        W23455  31.446  39.935  12.795
55062W        W23456  35.956   5.805   4.645
55063W        W23457  13.898  37.195  14.808
55064W        W23458   2.482  23.036   1.177
55065W        W23459  14.026  34.105   1.940
55066W        W23460  23.330  25.496   1.851
55067W        W23461  40.137  17.582   2.674
55068W        W23462   8.262  40.777  11.662
55069W        W23463  44.691  19.048  11.709
55070W        W23464  35.550   9.288  12.449
55071W        W23465   1.523  44.292  14.364
55072W        W23466  30.147   3.204  11.478
55073W        W23467  30.737   8.299   0.298
55074W        W23468  31.057  41.971  11.114
55075W        W23469   1.989   0.953   1.775
55076W        W23470   6.462  21.643   3.640
55077W        W23471  38.648  40.045  14.884
55078W        W23472  25.541  39.476   2.745
55079W        W23473   9.807  29.015  12.474
55080W        W23474   1.472  31.732   2.152
55081W        W23475  19.027  41.458  14.879
55082W        W23476   2.926   2.290  12.985
55083W        W23477  24.987  17.714   4.748
55084W        W23478  22.610  18.529   3.966
55085W        W23479  44.371  21.515  10.082
55086W        W23480  42.247  11.823   4.490
55087W        W23481  43.222   7.125  10.266
55088W        W23482  32.030   8.704   2.626
55089W        W23483   3.986  24.608  14.985
55090W        W23484  10.792  18.156  14.322
55091W        W23485   4.136   3.419  10.690
55092W        W23486   9.303  30.943  12.824
55093W        W23487  18.734  24.251   1.995
55094W        W23488  43.587   3.452  14.927
55095W        W23489  32.569  23.150  11.115
55096W        W23490  10.875  41.812   3.229
55097W        W23491  16.593  23.304  11.969
55098W        W23492  23.940  41.947  14.723
55099W        W23493  41.014  38.465  10.774
55100W        W23494  15.608  35.445   2.685
55101W        W23495  17.210  35.985   3.339
55102W        W23496   9.227  31.679  10.663
55103W        W23497  11.627  12.168  13.535
55104W        W23498  36.877   8.293  13.255
55105W        W23499  28.658   4.596   3.750
55106W        W23500  39.449  12.143  14.781
55107W        W23501  37.393   5.257  11.866
55108W        W23502  12.623   7.212   2.857
55109W        W23503  28.080  32.126   3.205
55110W        W23504  27.507  31.371   0.965
55111W        W23505   5.255  29.016  14.808
55112W        W23506  15.188  33.220  10.451
55113W        W23507  25.756  19.333   5.006
55114W        W23508   9.613  28.864  12.005
55115W        W23509  15.168  10.625   4.083
55116W        W23510   9.941  18.697   1.305
55117W        W23511  13.235  38.336  13.944
55118W        W23512  33.285  24.115  10.307
55119W        W23513   5.505   2.193   9.799
55120W        W23514  16.259  16.570  11.403
55121W        W23515  20.957  39.759  10.780
55122W        W23516  28.261  36.054   1.767
55123W        W23517  27.862  19.985  12.525
55124W        W23518   6.413  39.879  10.896
55125W        W23519   3.821   1.549   2.281
55126W        W23520  38.778  34.454  10.624
55127W        W23521  11.914   0.241  13.543
55128W        W23522  29.846  16.103   0.929
55129W        W23523  41.535  14.138   1.026
55130W        W23524  41.583  12.196  11.104
55131W        W23525  29.658  27.500   4.663
55132W        W23526  28.656   9.237   1.591
55133W        W23527  41.262  17.885  13.556
55134W        W23528  18.284  32.795   4.153
55135W        W23529  13.585   7.833  14.950
55136W        W23530  35.341  10.921   2.641
55137W        W23531   9.842  22.552  12.814
55138W        W23532  29.596  32.375   0.279
55139W        W23533  38.599  12.658   1.311
55140W        W23534  32.792  12.099  13.192
55141W        W23535   4.231  30.095   4.688
55142W        W23536  27.010  43.363  12.127
55143W        W23537  16.504  36.942   5.135
55144W        W23538  44.988  35.258   1.387
55145W        W23539   2.261  38.664  14.921
55146W        W23540   6.176  19.562   3.600
55147W        W23541  33.851  24.035  12.133
55148W        W23542  26.537   8.510   1.965
55149W        W23543  22.146  39.194  13.577
55150W        W23544  26.600  43.528   2.325
55151W        W23545  12.257  34.148   0.980
55152W        W23546   7.713  30.963  14.036
55153W        W23547   4.609   8.819   4.398
55154W        W23548  37.342  41.753  11.083
55155W        W23549  36.035  26.527   3.646
55156W        W23550  11.058   9.823   2.602
55157W        W23551  13.314  29.055   2.227
55158W        W23552  44.252   9.793  10.490
55159W        W23553  32.561  27.593  14.125
55160W        W23554  21.166   1.562  14.796
55161W        W23555   9.802   8.898  10.542
55162W        W23556   3.653  34.040  14.840
55163W        W23557   0.266  35.185  11.293
55164W        W23558  27.159  27.997   4.283
55165W        W23559  27.500   2.485   9.718
55166W        W23560   4.399  35.786   1.640
55167W        W23561  38.837  15.662  11.047
55168W        W23562   4.372   1.736  12.532
55169W        W23563  27.142   7.698   3.056
55170W        W23564  20.917  32.640  14.268
55171W        W23565   0.427  12.026   0.538
55172W        W23566  41.228  23.590   4.054
55173W        W23567  17.147  20.053  12.075
55174W        W23568  34.906  16.805  13.872
55175W        W23569   1.286  16.701   3.595
55176W        W23570  42.305  36.900  11.473
55177W        W23571  21.536   2.863   1.261
55178W        W23572  21.777  30.940   1.793
55179W        W23573  26.797   5.457  11.989
55180W        W23574  37.188  19.477   1.329
55181W        W23575  24.706  17.079  13.573
55182W        W23576  11.679   4.854  13.425
55183W        W23577  37.331  43.806  12.277
55184W        W23578  15.472   2.831  12.267
55185W        W23579  44.447  23.600   4.050
55186W        W23580  18.741   9.338  11.137
55187W        W23581  35.963  24.156   3.379
55188W        W23582  20.065  12.144   2.805
55189W        W23583  11.725  21.699   3.892
55190W        W23584   4.705  16.089  12.435
55191W        W23585  43.604  40.600  13.601
55192W        W23586  32.485  38.446   4.134
55193W        W23587  10.930  35.301   3.191
55194W        W23588   2.280  41.483  13.419
55195W        W23589  18.727  11.777  12.460
55196W        W23590  39.855   5.364  11.155
55197W        W23591  20.727  21.224   3.781
55198W        W23592  11.020  12.816   4.388
55199W        W23593  29.461  37.445  13.346
55200W        W23594  19.278  30.853   0.309
55201W        W23595  31.529  44.969  10.614
55202W        W23596  38.374   7.238   1.027
55203W        W23597  26.118  10.777  11.327
55204W        W23598  41.919  26.907   2.325
55205W        W23599  23.796  33.564  11.635
55206W        W23600  34.239   1.804   4.438
55207W        W23601   2.810  19.541  11.096
55208W        W23602  29.780  36.731   0.080
55209W        W23603  17.992   7.769  13.380
55210W        W23604  25.163  19.753   2.863
55211W        W23605  11.583   9.662  14.296
55212W        W23606   4.303  34.786   1.778
55213W        W23607  19.303  43.558   4.259
55214W        W23608  11.063  31.187  12.639
55215W        W23609  41.850   4.165  13.160
55216W        W23610  26.990  40.620   3.781
55217W        W23611   6.385   2.994   1.670
55218W        W23612  44.772  10.166  11.132
55219W        W23613   8.747  11.695  12.569
55220W        W23614  42.430  23.287  13.111
55221W        W23615  29.859   8.717   1.043
55222W        W23616  30.096  30.809   4.841
55223W        W23617  43.821   9.755   4.307
55224W        W23618  43.774  17.217   0.838
55225W        W23619   5.720  11.142   2.393
55226W        W23620  43.891  10.917  12.931
55227W        W23621  40.072   6.190   3.136
55228W        W23622  16.306  23.469  13.414
55229W        W23623   0.798  23.616   1.019
55230W        W23624  19.044   5.119   2.603
55231W        W23625  15.692  27.060  10.349
55232W        W23626  17.411  34.248  10.453
55233W        W23627  18.679  14.196  12.982
55234W        W23628  16.075  35.896   1.972
55235W        W23629  22.262  10.231   0.877
55236W        W23630  40.944   8.298  12.437
55237W        W23631  33.375  10.776  13.360
55238W        W23632   3.214  42.382   1.623
55239W        W23633  25.232  12.737  11.073
55240W        W23634  10.701   0.275   2.944
55241W        W23635   9.090  28.699  12.806
55242W        W23636   1.218  14.365   0.734
55243W        W23637  44.492  22.982  13.354
55244W        W23638  42.964  12.280   0.789
55245W        W23639  42.325  24.166   1.331
55246W        W23640  18.283  41.047  13.921
55247W        W23641   4.527  25.680   0.396
55248W        W23642  33.371  14.037  14.489
55249W        W23643  26.075  20.256   4.110
55250W        W23644   3.567  10.498  10.647
55251W        W23645  36.067  35.598   4.579
55252W        W23646  43.727  25.704   1.314
55253W        W23647  21.772  30.585  10.656
55254W        W23648  29.740   5.853   4.182
55255W        W23649  31.104  14.335   3.716
55256W        W23650  42.503  22.053  11.959
55257W        W23651   2.823  36.524   1.428
55258W        W23652  25.353  15.711   9.825
55259W        W23653  18.721  42.813   1.784
55260W        W23654   3.785  38.459  13.521
55261W        W23655  20.485  10.253   0.805
55262W        W23656   6.754   4.487  13.121
55263W        W23657  24.511  15.873   4.059
55264W        W23658  37.505  29.093   4.132
55265W        W23659  15.792  16.327  11.606
55266W        W23660  17.528   8.313   3.196
55267W        W23661   5.067  40.925  13.625
55268W        W23662  16.227  20.847  14.341
55269W        W23663  33.456  23.766  14.448
55270W        W23664  35.471   1.260   0.033
55271W        W23665  37.910  36.904   0.509
55272W        W23666  42.327  21.286   3.288
55273W        W23667  35.588  28.431   2.415
55274W        W23668  20.728  30.523  12.989
55275W        W23669  38.323  20.633   2.366
55276W        W23670   4.882  36.236  14.330
55277W        W23671  37.942  33.859  14.451
55278W        W23672  12.340  24.467  12.785
55279W        W23673  10.412  35.482   0.325
55280W        W23674  19.237  23.270   4.743
55281W        W23675   0.803   5.783  12.400
55282W        W23676   0.564  25.110  11.526
55283W        W23677  21.301  42.489   4.189
55284W        W23678  11.813  44.810   3.113
55285W        W23679  41.217  21.546   2.310
55286W        W23680  15.512  37.136   1.239
55287W        W23681  22.410  44.899   3.283
55288W        W23682  34.448  25.637   4.124
55289W        W23683   4.413   2.453   2.585
55290W        W23684  42.463  19.749   0.761
55291W        W23685  10.679  24.722  13.506
55292W        W23686  22.204  41.716  13.581
55293W        W23687  30.577  12.875  14.878
55294W        W23688   6.584  21.326   1.756
55295W        W23689  35.359  27.743  11.066
55296W        W23690  28.961  15.453   2.182
55297W        W23691  21.451  22.363  12.516
55298W        W23692  22.820  11.567   3.185
55299W        W23693  26.787  27.565   0.437
55300W        W23694  10.915  17.088   3.833
55301W        W23695  32.852  23.519   5.061
55302W        W23696  19.111  34.147  11.113
55303W        W23697  29.978  10.695   3.707
55304W        W23698  43.176   1.354  10.689
55305W        W23699  44.695  25.975  14.918
55306W        W23700   4.904   8.362   4.127
55307W        W23701  26.007  44.311   0.932
55308W        W23702  34.262  35.953   2.874
55309W        W23703  17.224  19.754  11.664
55310W        W23704   8.849  33.416  11.175
55311W        W23705  13.775   9.618  13.981
55312W        W23706  35.397  44.869   0.810
55313W        W23707   5.180  25.532   1.847
55314W        W23708  38.371  21.542  13.463
55315W        W23709  37.952   3.760   4.033
55316W        W23710  30.131  25.564   4.776
55317W        W23711  21.751   4.152  12.844
55318W        W23712  24.173  24.251   4.026
55319W        W23713  42.417   7.550  11.692
55320W        W23714   4.892  23.136  10.543
55321W        W23715  30.685   4.927  11.893
55322W        W23716  12.761   0.005   1.669
55323W        W23717   0.269  17.702  12.775
55324W        W23718   5.441  14.543  12.506
55325W        W23719  29.534  19.793  10.282
55326W        W23720  21.067  12.594  14.282
55327W        W23721   0.030   4.353  14.602
55328W        W23722  12.361   4.360  12.341
55329W        W23723   3.502   4.101   3.349
55330W        W23724  15.108   9.133   1.848
55331W        W23725  34.903  10.001  12.581
55332W        W23726  31.212  20.601  10.678
55333W        W23727  34.195   3.239   0.329
55334W        W23728  31.905  42.494  13.417
55335W        W23729   8.356   4.523   0.647
55336W        W23730  31.522   6.926  14.737
55337W        W23731  10.214   5.937   2.321
55338W        W23732  16.584  12.502  10.787
55339W        W23733  43.747   5.269   2.382
55340W        W23734  15.043   9.652   0.971
55341W        W23735  23.492   9.685   4.092
55342W        W23736  33.790  29.893   1.294
55343W        W23737  42.948  30.147  10.758
55344W        W23738  14.060  43.709  12.477
55345W        W23739  37.072  40.943   0.980
55346W        W23740  39.768  39.466   9.779
55347W        W23741  39.116  16.120  14.426
55348W        W23742  42.462  24.164   0.482
55349W        W23743   7.370  20.096  13.134
55350W        W23744  37.799  16.541   4.533
55351W        W23745  24.209  15.836  13.112
55352W        W23746   3.639  22.700   4.186
55353W        W23747  42.500   1.013   3.204
55354W        W23748  35.805  41.866   4.601
55355W        W23749   3.252   9.293   3.626
55356W        W23750  35.117   6.803  12.550
55357W        W23751   7.801   9.513  11.787
55358W        W23752  30.863  11.699  14.376
55359W        W23753  33.829   7.697   1.303
55360W        W23754  43.496  23.732   0.970
55361W        W23755  15.352  28.181  14.788
55362W        W23756  25.187  12.371  12.829
55363W        W23757  41.666  30.801  12.088
55364W        W23758  43.683  23.273   3.701
55365W        W23759  40.413  26.130   0.291
55366W        W23760  27.630  37.617  12.116
55367W        W23761  17.616  32.586  10.991
55368W        W23762  26.533  26.853   1.892
55369W        W23763   1.439  24.048  13.392
55370W        W23764   3.715  33.013  12.204
55371W        W23765  44.358  38.855   0.134
55372W        W23766  24.258  35.353  11.195
55373W        W23767  41.409   6.376   1.706
55374W        W23768   6.296  24.080   4.137
55375W        W23769   6.779   8.733   1.272
55376W        W23770  29.637   9.957   1.679
55377W        W23771   2.807  10.312  10.240
55378W        W23772  34.455  12.154   3.188
55379W        W23773   7.137   7.740   0.286
55380W        W23774   3.451  29.400   3.857
55381W        W23775  42.547  13.339   0.397
55382W        W23776   8.458  39.098  12.161
55383W        W23777   7.916  37.969   4.770
55384W        W23778  37.322  32.497   4.931
55385W        W23779  20.261   7.668  13.912
55386W        W23780  37.428  34.370  10.847
55387W        W23781  37.560  34.990   2.343
55388W        W23782   4.894  43.087   3.148
55389W        W23783  40.695  11.097   2.185
55390W        W23784   9.903  38.279  14.124
55391W        W23785  28.223  15.023   1.857
55392W        W23786  14.982   1.974   4.594
55393W        W23787  35.557  31.568   3.259
55394W        W23788  32.828  38.985  10.775
55395W        W23789  33.524  22.083  14.805
55396W        W23790  26.655  40.911   2.819
55397W        W23791  22.045   2.168   0.299
55398W        W23792  24.716  19.032  13.821
55399W        W23793  15.677  38.342  14.975
55400W        W23794  21.009  36.368   2.182
55401W        W23795   0.170  15.199   1.049
55402W        W23796  37.559  32.094  10.588
55403W        W23797  18.263  42.294   2.746
55404W        W23798  26.559  41.699  14.462
55405W        W23799  30.226  42.716   0.221
55406W        W23800  31.943   5.532   4.781
55407W        W23801  38.903  44.131   4.072
55408W        W23802  12.645   9.157   4.706
55409W        W23803  15.800  18.314  12.963
55410W        W23804  10.967  35.020  12.249
55411W        W23805  26.514   1.572   1.855
55412W        W23806  39.048  31.517   3.899
55413W        W23807  42.800  44.883  12.080
55414W        W23808  26.122   5.933  11.528
55415W        W23809  26.075  14.990  13.618
55416W        W23810  39.742  29.921   2.852
55417W        W23811  18.483  19.337  10.771
55418W        W23812  15.157   6.454   0.667
55419W        W23813  12.564  16.333  11.902
55420W        W23814   0.528  41.037  12.556
55421W        W23815  36.630  23.554  14.030
55422W        W23816   0.717  31.370  10.853
55423W        W23817  13.878   7.484  12.527
55424W        W23818  11.751   4.511   3.713
55425W        W23819  30.061  24.501   2.679
55426W        W23820  27.719  30.166   3.360
55427W        W23821  39.766   3.670  13.018
55428W        W23822  24.986  41.994   1.491
55429W        W23823  43.243  13.876   2.566
55430W        W23824   8.880  19.616   4.091
55431W        W23825   4.334  34.844   3.981
55432W        W23826  26.139  40.751  11.830
55433W        W23827  16.306  37.819   0.053
55434W        W23828  12.435  29.399  12.018
55435W        W23829  17.630  39.855   2.642
55436W        W23830  24.983  24.172   4.378
55437W        W23831  12.053  15.286   2.255
55438W        W23832  44.311  24.641  14.033
55439W        W23833  36.083  40.637   3.218
55440W        W23834  44.483  20.578   0.306
55441W        W23835  16.776  29.213   0.217
55442W        W23836  44.208  16.304  12.005
55443W        W23837  34.424  33.938  14.477
55444W        W23838   6.261  27.604   2.462
55445W        W23839  43.481  19.786   4.538
55446W        W23840  34.951  44.298   4.996
55447W        W23841   0.898  21.179  13.726
55448W        W23842  14.223  38.781  14.352
55449W        W23843   7.939  24.486  14.888
55450W        W23844  13.696  31.548   1.124
55451W        W23845  38.314  26.131   2.879
55452W        W23846   0.603  41.820   3.192
55453W        W23847   3.167  43.011  13.803
55454W        W23848   2.375  26.552   1.707
55455W        W23849  21.790  21.934   2.385
55456W        W23850  14.140   3.744  11.674
55457W        W23851  42.385  36.628  11.012
55458W        W23852  23.873  37.339   1.127
55459W        W23853  42.531  26.538  14.261
55460W        W23854  37.375  33.048  12.934
55461W        W23855  32.364  16.997   1.880
55462W        W23856   2.030  30.193  13.508
55463W        W23857  16.663  15.830  10.663
55464W        W23858  20.839  23.762  14.247
55465W        W23859  42.458  33.532  13.210
55466W        W23860  41.629  39.158   4.285
55467W        W23861  35.896  34.625   3.247
55468W        W23862   2.424  18.586   2.211
55469W        W23863  26.227  36.399  14.007
55470W        W23864  21.255  30.570  12.929
55471W        W23865   6.888  28.746   1.690
55472W        W23866  21.271  16.681  13.742
55473W        W23867  19.682  27.969   0.115
55474W        W23868   5.336  25.314   3.563
55475W        W23869  12.353  39.439  11.563
55476W        W23870  38.922   9.376   4.012
55477W        W23871  19.538   1.252  13.609
55478W        W23872   7.878  39.841  14.457
55479W        W23873  43.337   3.363  12.577
55480W        W23874  14.696  11.270  11.114
55481W        W23875   9.700   1.440  11.021
55482W        W23876   9.587  43.856   0.502
55483W        W23877  10.510   0.329  13.484
55484W        W23878  42.827  24.083  10.777
55485W        W23879  20.511   7.401   0.938
55486W        W23880   2.719   7.274   2.670
55487W        W23881  28.156  13.729   1.474
55488W        W23882  15.228  21.487  12.423
55489W        W23883  17.394   6.266  12.061
55490W        W23884   5.334  23.526  12.488
55491W        W23885  26.320   7.426   5.029
55492W        W23886   0.993  13.194   4.214
55493W        W23887  40.091  32.938   4.263
55494W        W23888  43.222  28.137  11.176
55495W        W23889  38.271   6.265   2.777
55496W        W23890  36.376  17.224   1.745
55497W        W23891   6.389  22.292  12.022
55498W        W23892   9.207  26.038   5.154
55499W        W23893  28.490  34.140   3.282
55500W        W23894   1.367  30.937  13.406
55501W        W23895  27.444  16.413  14.565
55502W        W23896  10.268  23.796   1.769
55503W        W23897  36.622   2.056   0.397
55504W        W23898  43.552  24.968  11.178
55505W        W23899  18.766  11.894  14.110
55506W        W23900  16.222  11.673  12.863
55507W        W23901  20.785   5.982   1.668
55508W        W23902  19.825  23.216  11.831
55509W        W23903  16.569   1.317  13.887
55510W        W23904  23.293  40.591  14.808
55511W        W23905  40.988  23.255   0.776
55512W        W23906  30.130   8.727   2.373
55513W        W23907  42.995   6.356  10.715
55514W        W23908  16.382  28.745  13.441
55515W        W23909  17.429  42.498   3.109
55516W        W23910  15.695  41.154   3.200
55517W        W23911  27.776  40.375   4.634
55518W        W23912  31.167  17.934  12.355
55519W        W23913  25.132  16.131  11.898
55520W        W23914  29.494  42.417   4.743
55521W        W23915   7.287   0.920  10.972
55522W        W23916  11.842  35.844   0.391
55523W        W23917  14.768  29.567  11.697
55524W        W23918   4.047   4.789   3.710
55525W        W23919  11.313  26.716   3.282
55526W        W23920   4.928  25.474  11.296
55527W        W23921  21.501   3.791  14.734
55528W        W23922  19.115   2.758   4.162
55529W        W23923   9.177  35.756   4.621
55530W        W23924  10.415  29.366   4.100
55531W        W23925  18.565   3.405   2.830
55532W        W23926  19.901  36.396   4.368
55533W        W23927  43.952  44.871   1.437
55534W        W23928  40.343  43.530   2.981
55535W        W23929  21.052  13.698  12.394
55536W        W23930  33.475   1.497   3.156
55537W        W23931   9.627  12.777  12.521
55538W        W23932   3.698  34.945  13.386
55539W        W23933   2.848  22.560   3.731
55540W        W23934   7.127  41.864   4.448
55541W        W23935  13.105  24.552  12.330
55542W        W23936  26.405  19.674   4.742
55543W        W23937  26.554   0.554   9.884
55544W        W23938   9.175  23.812   0.266
55545W        W23939  18.577  19.231   4.961
55546W        W23940  32.939  44.885  10.933
55547W        W23941  37.545   1.403  12.316
55548W        W23942  24.240  28.264  13.998
55549W        W23943  43.155  35.155  11.452
55550W        W23944   6.291  42.361   1.732
55551W        W23945  42.061  27.973  12.345
55552W        W23946  40.450  27.630   0.457
55553W        W23947  44.926  12.604  13.280
55554W        W23948  38.953  34.620   3.326
55555W        W23949   7.459   6.315  12.389
55556W        W23950  23.758  13.127   4.072
55557W        W23951  18.155   0.972   2.226
55558W        W23952  34.275   5.257   2.873
55559W        W23953   8.786   5.421  10.813
55560W        W23954  39.334  43.303  10.961
55561W        W23955  34.002  16.483  11.122
55562W        W23956  34.068  27.440  14.515
55563W        W23957  13.833  31.915  10.596
55564W        W23958  25.722  40.869   4.150
55565W        W23959  44.816  37.547  14.511
55566W        W23960   7.775  35.514  11.839
55567W        W23961  40.518  30.424   3.343
55568W        W23962  19.438  26.648  14.925
55569W        W23963  17.116  37.997  14.330
55570W        W23964   1.748  18.758  11.574
55571W        W23965   6.634  23.416  10.826
55572W        W23966   1.974   4.747  11.183
55573W        W23967   8.218  10.640   4.372
55574W        W23968  23.660  42.757  12.166
55575W        W23969  19.663  40.827   5.385
55576W        W23970   4.010  21.510   2.822
55577W        W23971  39.585  24.976  12.825
55578W        W23972   2.840  34.570  14.411
55579W        W23973  26.791  38.534  14.404
55580W        W23974  10.871  29.162  12.460
55581W        W23975  36.859  22.059   2.914
55582W        W23976  34.525   9.988  14.388
55583W        W23977  42.819  22.264   0.424
55584W        W23978  22.914  36.021  13.143
55585W        W23979  42.894  29.631   3.369
55586W        W23980   7.627  17.228   0.380
55587W        W23981  23.886  19.991   1.204
55588W        W23982  31.184   1.312   2.624
55589W        W23983  43.803  31.930  14.808
55590W        W23984  35.520  41.967   0.073
55591W        W23985   4.480  39.466   1.858
55592W        W23986  42.531  34.531   3.021
55593W        W23987  44.515   2.545  14.325
55594W        W23988  24.063  21.019   4.201
55595W        W23989  14.370  27.685  13.481
55596W        W23990  12.165  14.796   3.872
55597W        W23991  44.358  34.051  10.439
55598W        W23992   3.509  33.953  12.931
55599W        W23993  10.738  43.741   0.342
55600W        W23994  38.052   1.865   2.330
55601W        W23995  28.616  22.691   3.797
55602W        W23996   3.334   5.290   2.651
55603W        W23997   0.739  42.232   4.810
55604W        W23998  17.488   7.244   4.386
55605W        W23999   0.874  11.864   1.425
55606W        W24000  16.626  17.643   0.903
55607W        W24001  16.152  31.114   1.486
55608W        W24002  15.381  12.920   4.663
55609W        W24003  40.984  30.414   1.485
55610W        W24004  41.451  31.354   0.900
55611W        W24005  38.641   1.632  12.990
55612W        W24006  38.088  15.984  12.499
55613W        W24007  22.599  26.123  10.114
55614W        W24008  36.991   6.643   4.945
55615W        W24009  19.069   3.717   0.289
55616W        W24010   5.291  29.168   0.894
55617W        W24011   2.619  29.680   2.199
55618W        W24012   9.918   9.442   0.551
55619W        W24013  22.994  32.453   3.269
55620W        W24014  12.848   4.447  13.427
55621W        W24015   9.380  19.270  10.711
55622W        W24016  32.304   3.739  10.733
55623W        W24017  26.297  10.646  13.049
55624W        W24018  18.161   5.987   1.701
55625W        W24019  29.136  44.277  10.932
55626W        W24020  44.198   1.264   4.924
55627W        W24021  12.451   9.800  10.598
55628W        W24022  32.958  18.611  11.544
55629W        W24023  21.244  24.454   4.211
55630W        W24024  26.549  43.111   1.184
55631W        W24025   0.067  38.924   1.930
55632W        W24026  12.104  44.394  12.531
55633W        W24027  20.643   5.835   3.084
55634W        W24028  26.929   2.810  12.133
55635W        W24029  37.220  32.101  10.991
55636W        W24030   9.815  30.138  13.982
55637W        W24031  10.381  44.468   1.656
55638W        W24032   9.739   6.386   1.785
55639W        W24033   6.131  23.573   4.953
55640W        W24034   0.140  37.149   9.855
55641W        W24035   2.872  10.595   1.773
55642W        W24036  24.639  38.695  12.961
55643W        W24037  23.496  38.023   3.435
55644W        W24038   5.393  35.802  12.405
55645W        W24039  15.848  37.866  14.228
55646W        W24040  13.961  40.205   2.776
55647W        W24041  18.553  44.974  12.976
55648W        W24042  19.226  37.206  12.041
55649W        W24043   8.548  21.118  11.162
55650W        W24044   0.767  38.017  11.312
55651W        W24045  24.622  37.979   4.581
55652W        W24046  40.268  21.941  11.599
55653W        W24047   5.304  12.550  14.918
55654W        W24048  17.634  11.555   4.889
55655W        W24049  26.511  11.113  13.009
55656W        W24050   8.114   3.036  13.089
55657W        W24051  13.407  43.951   1.276
55658W        W24052  43.346  14.262   4.809
55659W        W24053  40.023  10.574  11.554
55660W        W24054   9.720  15.318  11.113
55661W        W24055   6.693   8.221   2.436
55662W        W24056  32.698  27.233   3.298
55663W        W24057  36.907   9.863  11.680
55664W        W24058  38.432  44.193  11.479
55665W        W24059  18.735   0.213   0.430
55666W        W24060  37.753  23.700  12.799
55667W        W24061  18.030  15.202   0.744
55668W        W24062  30.036  44.204  11.606
55669W        W24063  41.492  33.134  11.580
55670W        W24064   3.848  34.995   3.782
55671W        W24065  23.060  41.947   3.114
55672W        W24066  10.080   3.513   5.211
55673W        W24067  29.800  14.703   4.533
55674W        W24068   9.327  36.449   3.264
55675W        W24069  36.862  43.786   1.739
55676W        W24070  25.470  28.981  11.659
55677W        W24071  39.302   6.876   2.267
55678W        W24072   6.660  27.409   0.762
55679W        W24073  38.061  18.605   3.753
55680W        W24074  14.232  39.498  11.944
55681W        W24075   6.191   2.258  10.676
55682W        W24076   5.630   9.525  13.389
55683W        W24077  29.860   7.333  11.258
55684W        W24078   7.072   9.667  11.156
55685W        W24079  41.739  38.789   3.468
55686W        W24080  12.504   3.456  11.688
55687W        W24081  33.915  43.905  14.099
55688W        W24082  44.608   8.309   1.675
55689W        W24083  22.001  16.421  11.437
55690W        W24084   2.427  33.019  12.038
55691W        W24085  42.989  10.467   1.657
55692W        W24086  31.212  17.481   0.289
55693W        W24087  28.621  12.943  10.966
55694W        W24088   2.435  21.247  12.134
55695W        W24089   4.782  27.457   0.700
55696W        W24090  12.792  33.448  14.308
55697W        W24091  28.017  44.768   1.541
55698W        W24092  16.382  21.812  14.499
55699W        W24093   2.931  40.549  12.992
55700W        W24094  33.176  37.556  14.237
55701W        W24095  22.508  27.633   2.356
55702W        W24096   9.109  20.613  11.448
55703W        W24097   1.536   9.095  14.139
55704W        W24098   8.379  19.054  14.326
55705W        W24099  38.054  11.770  11.559
55706W        W24100  29.745  30.158  12.992
55707W        W24101   0.320  43.053  13.086
55708W        W24102  32.463  31.126   3.032
55709W        W24103  15.606  18.519   0.734
55710W        W24104  10.259  17.256  11.104
55711W        W24105  41.288  22.429  10.837
55712W        W24106  29.868  39.260   3.235
55713W        W24107  23.270  42.842   2.717
55714W        W24108  10.362  24.300  13.032
55715W        W24109   1.806   6.167   1.498
55716W        W24110  31.124   5.654   4.192
55717W        W24111  41.035  29.367  13.020
55718W        W24112  12.290   8.410   0.942
55719W        W24113   1.836  32.189   1.534
55720W        W24114  10.701  38.266  12.881
55721W        W24115   0.667  32.960  13.133
55722W        W24116   1.981  20.967  12.169
55723W        W24117  41.111  15.657  13.836
55724W        W24118  16.740   4.383  11.145
55725W        W24119   7.327   1.751   1.625
55726W        W24120  26.654   2.849  10.812
55727W        W24121   8.397   3.398  10.090
55728W        W24122  26.678  23.500   4.139
55729W        W24123   4.196  21.921  12.541
55730W        W24124  24.337   2.385   2.971
55731W        W24125   8.365  19.250  11.410
55732W        W24126   8.853  16.649  10.842
55733W        W24127  22.272   2.782  14.455
55734W        W24128   0.742  28.499   3.767
55735W        W24129   5.321  37.673   2.035
55736W        W24130  36.525  17.648  11.753
55737W        W24131   5.650  10.362  11.904
55738W        W24132  44.277  22.608   2.357
55739W        W24133  30.123  34.662   3.281
55740W        W24134  39.746  26.456  10.661
55741W        W24135  41.558  13.075  11.660
55742W        W24136  14.816  16.305   1.896
55743W        W24137  21.771  17.735  10.705
55744W        W24138  11.275  13.617   4.644
55745W        W24139  12.169  44.821  12.809
55746W        W24140   2.610  44.015   2.800
55747W        W24141  11.092  33.480  14.402
55748W        W24142  14.289  14.154   1.364
55749W        W24143  25.652  44.485   3.373
55750W        W24144  23.149   0.662  14.968
55751W        W24145  33.989  17.809   4.146
55752W        W24146  30.439  13.074   4.227
55753W        W24147   4.468  30.960  12.800
55754W        W24148   8.767   0.516   2.191
55755W        W24149  20.088  19.496  12.087
55756W        W24150  23.582  22.059  13.161
55757W        W24151  34.401  17.214  13.972
55758W        W24152  16.264   3.015  13.890
55759W        W24153  38.403   4.423   1.058
55760W        W24154  39.046  11.602  13.440
55761W        W24155  29.960  37.772   1.834
55762W        W24156  20.253   1.415  10.439
55763W        W24157  11.063  20.998  12.918
55764W        W24158  18.070   7.157  14.075
55765W        W24159   1.000  43.722  11.075
55766W        W24160  27.462   0.486  13.467
55767W        W24161  41.375   9.957  12.884
55768W        W24162  26.361  39.003  11.231
55769W        W24163  38.929  42.047  12.847
55770W        W24164  24.853   2.399   2.837
55771W        W24165   6.725  44.629  14.309
55772W        W24166  33.045  43.194  14.255
55773W        W24167  12.259   7.413  11.857
55774W        W24168   9.788  34.325   1.651
55775W        W24169  16.865  31.093  11.922
55776W        W24170  37.881  20.956  14.415
55777W        W24171   3.731  13.114  11.503
55778W        W24172  10.247   0.322  13.935
55779W        W24173   0.349  10.689   0.953
55780W        W24174  15.836  24.827   3.753
55781W        W24175   6.659  32.578  14.261
55782W        W24176  33.824  38.797  10.757
55783W        W24177  21.116  43.777   0.228
55784W        W24178  16.473   7.868  10.446
55785W        W24179   4.912  28.857   1.073
55786W        W24180   3.475   0.501   3.668
55787W        W24181   1.841  15.420   1.627
55788W        W24182  32.992   6.427  13.928
55789W        W24183  17.332   0.980  12.005
55790W        W24184  16.055  43.793   0.256
55791W        W24185  13.458  43.774   3.065
55792W        W24186   0.186  22.129   2.488
55793W        W24187  29.978  42.956   3.236
55794W        W24188  29.993  25.054  14.565
55795W        W24189  44.705  30.071   0.335
55796W        W24190  14.353  32.859  12.542
55797W        W24191   9.744   9.187   2.769
55798W        W24192  28.873  35.041   0.875
55799W        W24193  16.806  15.778   2.178
55800W        W24194  24.590  16.061  11.201
55801W        W24195  41.017  25.496   0.458
55802W        W24196  13.840  11.108  10.522
55803W        W24197  41.425  35.461  10.526
55804W        W24198  41.003   5.292   0.458
55805W        W24199  38.493  24.498  11.070
55806W        W24200   5.372  29.433  14.459
55807W        W24201  18.877  25.320   1.065
55808W        W24202  37.354   5.761   4.168
55809W        W24203  20.055  42.200  11.617
55810W        W24204  33.386  30.754  14.486
55811W        W24205  39.287   2.834  12.644
55812W        W24206  29.305  12.692   4.935
55813W        W24207  28.067  30.458   0.982
55814W        W24208   5.496   5.434  14.931
55815W        W24209  41.202  35.955  12.093
55816W        W24210  24.272   2.996   2.363
55817W        W24211  30.513  18.264  11.634
55818W        W24212  22.163  17.375   4.036
55819W        W24213  22.510  32.345   3.154
55820W        W24214   9.727  40.825   1.374
55821W        W24215  20.055  16.522   1.710
55822W        W24216  40.349   0.536  14.447
55823W        W24217  41.296  19.657  13.061
55824W        W24218  42.621   6.268   2.316
55825W        W24219  28.114   2.590   4.152
55826W        W24220  30.966  43.827   3.142
55827W        W24221  32.636  41.311  12.099
55828W        W24222  21.990  13.376   3.241
55829W        W24223  25.711  36.068  11.975
55830W        W24224   8.421  23.786   4.888
55831W        W24225  41.377  33.732   2.676
55832W        W24226  34.030   2.547  14.569
55833W        W24227   4.989  36.819  10.994
55834W        W24228  42.554  23.687   1.433
55835W        W24229   3.495  21.587   2.855
55836W        W24230  16.818  42.414  11.454
55837W        W24231  40.028  38.312   1.737
55838W        W24232  31.489  13.270  11.980
55839W        W24233  41.629  42.927  13.464
55840W        W24234  22.246  15.890   4.618
55841W        W24235  16.088  39.969   0.435
55842W        W24236   7.252  10.842   2.436
55843W        W24237  11.343  35.700  12.699
55844W        W24238  16.155  30.823   3.280
55845W        W24239   3.152   1.033   3.746
55846W        W24240  13.123   4.594   9.919
55847W        W24241  25.902  35.934  13.968
55848W        W24242  34.963   0.108   1.729
55849W        W24243   4.666   4.016   4.054
55850W        W24244  43.202  23.999  13.987
55851W        W24245  11.410  39.285  10.997
55852W        W24246  40.059  27.503  11.558
55853W        W24247   8.241  32.072   4.147
55854W        W24248  28.751  25.568   0.120
55855W        W24249   7.308  14.065  12.954
55856W        W24250   9.676  43.922  11.927
55857W        W24251  33.397   3.323  13.585
55858W        W24252   1.288  35.167   4.119
55859W        W24253  22.607  44.385   4.984
55860W        W24254  27.951  19.194   3.765
55861W        W24255   1.320  29.416   0.810
55862W        W24256  28.070   6.464  13.954
55863W        W24257   1.453  10.851  14.443
55864W        W24258  34.997  26.979   2.246
55865W        W24259  44.590  29.995   0.876
55866W        W24260  44.957  38.534   4.779
55867W        W24261  39.336   0.761   0.451
55868W        W24262  23.509   4.683   2.755
55869W        W24263  30.363  23.016   2.792
55870W        W24264  26.447  43.431  10.713
55871W        W24265   1.153  33.067   3.060
55872W        W24266  44.185  39.007  12.461
55873W        W24267  27.677   1.989  10.709
55874W        W24268   1.961  38.340  13.966
55875W        W24269   8.248  36.428  14.883
55876W        W24270  16.825  14.817  14.759
55877W        W24271  15.860  26.673   1.932
55878W        W24272   9.776  26.242  13.776
55879W        W24273  10.579  40.824  14.978
55880W        W24274  31.116  18.454   1.393
55881W        W24275  14.164  24.335  11.533
55882W        W24276  21.229  33.323  10.655
55883W        W24277   2.938   4.218  10.928
55884W        W24278  20.061  20.448   1.133
55885W        W24279   2.822  43.972  14.309
55886W        W24280  28.947  35.978  13.352
55887W        W24281   5.191  41.945   1.117
55888W        W24282  25.828   3.482  13.173
55889W        W24283  43.549  35.698   1.886
55890W        W24284   2.192  26.401   5.080
55891W        W24285   5.006   5.040  11.554
55892W        W24286  27.485  26.474  12.025
55893W        W24287  16.627  13.126  13.938
55894W        W24288  29.964  24.113  10.805
55895W        W24289  30.279   2.566  12.590
55896W        W24290   3.926   2.934   4.603
55897W        W24291  38.352  35.830  14.521
55898W        W24292   3.402   7.481  13.292
55899W        W24293  20.242  33.638   3.678
55900W        W24294  35.532  11.857  11.463
55901W        W24295  43.782  39.085   1.948
55902W        W24296   9.292  13.987  11.543
55903W        W24297   8.755   9.308   0.722
55904W        W24298  27.807  12.760   4.680
55905W        W24299  13.628  13.364  13.999
55906W        W24300   0.482  20.445  13.498
55907W        W24301  17.339  30.211   1.871
55908W        W24302  29.128  15.849  11.618
55909W        W24303  36.544  19.297   4.265
55910W        W24304  14.246   2.778  14.869
55911W        W24305  25.045  21.748  14.719
55912W        W24306  38.733  31.010  11.144
55913W        W24307  11.449  17.117  12.498
55914W        W24308  35.346  22.673  13.335
55915W        W24309  40.540   5.634  13.388
55916W        W24310  37.852   2.435  10.999
55917W        W24311   8.793  19.469   4.576
55918W        W24312   6.216  14.436   0.274
55919W        W24313  36.984  12.566  13.898
55920W        W24314  36.556  25.649  14.837
55921W        W24315   6.211   8.603  14.243
55922W        W24316  34.988  43.299  10.401
55923W        W24317   9.599  14.601   3.949
55924W        W24318   9.074  15.761  13.094
55925W        W24319  27.077  16.408  13.339
55926W        W24320  33.332  29.111   4.304
55927W        W24321  31.695   4.704   2.061
55928W        W24322  39.985   6.248  12.947
55929W        W24323  21.812  26.032  12.170
55930W        W24324  24.075  43.209  11.540
55931W        W24325   4.193  13.818   0.841
55932W        W24326  25.180   7.857   3.535
55933W        W24327  20.005  15.141  13.906
55934W        W24328  31.641  16.797  10.642
55935W        W24329  17.561  38.882  14.351
55936W        W24330  20.609  16.748   2.286
55937W        W24331  28.546  37.562  11.197
55938W        W24332  32.779   5.575   2.724
55939W        W24333  21.515  42.961   1.407
55940W        W24334   8.081  37.636  12.029
55941W        W24335  42.146   5.288  13.873
55942W        W24336  35.534   0.474   4.544
55943W        W24337  33.507  27.678  12.379
55944W        W24338  19.723  21.780  14.508
55945W        W24339   8.895  24.805   2.148
55946W        W24340  35.417   3.298  14.485
55947W        W24341  42.763   1.951  11.378
55948W        W24342  15.637  21.180  13.895
55949W        W24343  43.150  44.918  14.223
55950W        W24344  38.132  13.429  10.465
55951W        W24345  18.596  23.343   2.892
55952W        W24346  19.932  10.866  13.028
55953W        W24347  18.178  32.566   4.610
55954W        W24348  14.165  19.045   3.018
55955W        W24349   4.792  11.676   0.345
55956W        W24350  27.240  37.533  10.701
55957W        W24351   4.908  12.326   0.212
55958W        W24352  32.174  34.866  14.499
55959W        W24353   1.939   8.772   3.333
55960W        W24354  18.904  44.513  12.620
55961W        W24355  27.178  36.965  13.346
55962W        W24356  42.875  18.638   2.307
55963W        W24357   1.327  18.261  14.188
55964W        W24358  43.942  21.564   0.498
55965W        W24359  34.664  24.719   3.853
55966W        W24360  24.693  30.052  13.597
55967W        W24361  38.772  18.597  13.544
55968W        W24362  10.933   8.588   3.317
55969W        W24363  44.445   1.946   3.550
55970W        W24364  17.565  11.064   3.232
55971W        W24365  44.694   2.512   1.812
55972W        W24366   5.166  17.344  10.727
55973W        W24367  42.192  38.078  14.086
55974W        W24368   4.398   5.513   2.418
55975W        W24369  44.265  30.284  13.320
55976W        W24370  27.299   9.488   1.447
55977W        W24371   1.826  20.290   1.745
55978W        W24372  27.056  37.883   2.212
55979W        W24373  18.191  26.200  11.033
55980W        W24374  29.467  34.778  11.716
55981W        W24375   0.013   3.849   3.711
55982W        W24376  26.903  23.891  13.416
55983W        W24377   0.440   3.478  11.515
55984W        W24378  32.128  42.774   0.862
55985W        W24379  30.587  14.293  12.952
55986W        W24380   7.884   6.463   2.776
55987W        W24381  38.017  15.188   4.523
55988W        W24382  11.428   1.912   4.717
55989W        W24383  29.427  10.280   0.359
55990W        W24384  22.754  23.174   1.667
55991W        W24385  17.566  18.840  14.192
55992W        W24386   9.184  37.652   4.538
55993W        W24387  39.976  19.505   4.994
55994W        W24388   0.962  22.848  12.379
55995W        W24389  43.063  32.942   2.300
55996W        W24390  44.626  21.191   2.264
55997W        W24391  11.237   0.420   4.718
55998W        W24392   0.597   4.862  13.257
55999W        W24393  30.116   2.917  14.812
56000W        W24394  17.036   4.844   3.315
56001W        W24395  24.413  10.646  12.470
56002W        W24396  28.960   7.425   2.710
56003W        W24397  41.535  28.613   2.709
56004W        W24398  33.888  29.004  11.901
56005W        W24399  12.851  36.638   1.657
56006W        W24400  18.584   3.379  10.728
56007W        W24401  10.851  16.017   4.222
56008W        W24402  17.661  35.400   4.687
56009W        W24403   2.382  23.696   4.285
56010W        W24404  39.889   9.400  14.842
56011W        W24405   9.888  31.651   0.810
56012W        W24406  18.325  28.989   2.769
56013W        W24407  25.231  44.588   1.140
56014W        W24408  26.448  28.392  12.590
56015W        W24409   2.456  38.649  12.769
56016W        W24410  42.035  38.742   4.890
56017W        W24411  17.629  30.683   1.356
56018W        W24412  10.637  22.042  12.765
56019W        W24413  30.275  31.984  14.807
56020W        W24414  37.874  29.542   1.697
56021W        W24415  37.844  36.848   2.702
56022W        W24416  11.817   6.755   3.775
56023W        W24417  28.706  14.226   0.783
56024W        W24418  30.176  29.497  11.407
56025W        W24419  10.319  42.511  14.401
56026W        W24420  23.322  24.595  11.628
56027W        W24421   5.476  27.940  12.347
56028W        W24422  11.120  30.247  12.428
56029W        W24423  15.249  27.729   2.758
56030W        W24424  31.486   2.199   4.185
56031W        W24425  37.122  11.512   3.729
56032W        W24426   7.172  27.385  14.785
56033W        W24427  37.655  38.465   1.212
56034W        W24428  39.455  29.505   1.860
56035W        W24429  43.714  23.814  14.806
56036W        W24430  15.171   7.004  12.989
56037W        W24431  32.178  18.916  13.924
56038W        W24432  23.084  26.973  14.563
56039W        W24433  22.828   5.373  11.671
56040W        W24434  32.035  14.224   2.388
56041W        W24435  10.158   7.881   2.170
56042W        W24436  11.643   8.285  14.868
56043W        W24437   6.410  14.903  12.043
56044W        W24438  22.214  15.435   4.908
56045W        W24439  25.454  26.998   3.824
56046W        W24440  23.037  38.715  14.596
56047W        W24441  21.042   2.988  11.295
56048W        W24442   9.172  11.683  14.888
56049W        W24443  43.987  30.047  10.730
56050W        W24444  10.015  14.666  10.609
56051W        W24445  18.759  37.983  11.130
56052W        W24446  32.841   1.770  12.126
56053W        W24447  33.343  42.433  13.332
56054W        W24448  32.449  21.183   3.336
56055W        W24449   1.230  41.002   3.039
56056W        W24450  27.231   1.738   4.553
56057W        W24451   4.443  19.746   4.214
56058W        W24452   0.989  34.610  10.503
56059W        W24453   9.839  22.198  14.068
56060W        W24454  44.755   4.146   4.062
56061W        W24455  15.175  23.000   0.269
56062W        W24456  40.780  18.133   0.427
56063W        W24457  23.263  14.334   1.379
56064W        W24458  44.025  42.486   3.245
56065W        W24459  37.864   2.949  11.048
56066W        W24460  21.219  20.735   4.311
56067W        W24461   5.241  29.675   0.913
56068W        W24462   2.953  16.678   4.568
56069W        W24463  40.361  11.188   0.868
56070W        W24464   9.926  27.322  14.284
56071W        W24465  17.399  26.255   0.302
56072W        W24466   4.880   1.333   4.835
56073W        W24467   0.417   5.885   3.438
56074W        W24468   8.385   0.298  10.618
56075W        W24469  17.195  37.965   2.419
56076W        W24470   8.829  36.449  14.943
56077W        W24471  16.847   8.753  13.616
56078W        W24472  26.269  18.082  11.628
56079W        W24473  18.250  33.857  12.595
56080W        W24474  15.921   0.492   1.854
56081W        W24475  40.496  32.889   1.889
56082W        W24476  25.261  15.188  13.403
56083W        W24477  20.067  29.689   9.859
56084W        W24478  11.746  30.140  12.888
56085W        W24479   5.465  36.828  11.162
56086W        W24480   4.882  17.748  12.055
56087W        W24481  14.829  24.047   1.599
56088W        W24482  34.667  12.859   0.556
56089W        W24483   2.521  32.986   2.044
56090W        W24484  42.059   1.599   3.654
56091W        W24485  44.777  27.469   4.549
56092W        W24486  44.181  41.307   3.856
56093W        W24487  39.850  31.432   3.671
56094W        W24488   0.363   9.686   2.477
56095W        W24489  13.246   3.507   0.352
56096W        W24490  38.260  20.157  11.395
56097W        W24491  44.789  44.828  12.604
56098W        W24492  20.559   2.402   0.526
56099W        W24493  43.852  20.489  13.829
56100W        W24494  16.234   6.971   1.304
56101W        W24495  43.947  27.671   4.791
56102W        W24496  38.904   6.037  13.550
56103W        W24497  16.620  40.784   4.910
56104W        W24498  36.041  16.725   4.332
56105W        W24499  10.256  20.930   9.951
56106W        W24500  41.435  37.932  14.299
56107W        W24501  15.153  11.083  14.332
56108W        W24502  18.211  42.573  10.216
56109W        W24503  43.846  36.781  14.417
56110W        W24504   6.798  27.208   3.663
56111W        W24505  42.458  27.347  10.887
56112W        W24506  22.084  27.168   3.370
56113W        W24507   5.228   2.782   2.609
56114W        W24508  27.397  42.895  11.192
56115W        W24509   0.457  11.155  11.958
56116W        W24510  42.433  43.560   4.335
56117W        W24511  21.148  27.614   4.286
56118W        W24512  11.144  44.708   0.422
56119W        W24513  30.644  20.285   0.559
56120W        W24514  21.259  37.870   3.774
56121W        W24515  22.659  44.258  10.899
56122W        W24516  38.787  14.843  13.820
56123W        W24517  30.882  31.563  12.659
56124W        W24518  10.173  10.183  14.960
56125W        W24519  24.751  36.450   1.384
56126W        W24520   0.008  27.014  14.782
56127W        W24521   9.418   2.198   1.729
56128W        W24522  41.711  37.161  10.842
56129W        W24523  14.888   5.188   3.142
56130W        W24524   3.840  38.489   4.514
56131W        W24525   5.414  25.133  12.044
56132W        W24526  34.533  16.972   0.286
56133W        W24527  43.572   2.016   4.721
56134W        W24528   4.407  13.201   1.689
56135W        W24529  31.430   6.265   4.560
56136W        W24530  42.250  31.954  13.511
56137W        W24531   6.190  44.941   3.166
56138W        W24532  29.026   6.937   2.853
56139W        W24533   9.170  18.798  10.710
56140W        W24534   6.635  39.415  11.056
56141W        W24535  20.742   2.192  13.586
56142W        W24536   6.165   6.499  10.491
56143W        W24537  15.643   7.753  14.712
56144W        W24538  12.259  27.230   4.723
56145W        W24539  12.870   5.623  12.696
56146W        W24540   7.025  32.131   1.488
56147W        W24541  27.086   4.889   2.039
56148W        W24542  23.523  12.681  12.166
56149W        W24543  38.377  42.923  14.418
56150W        W24544  31.502   4.846   1.215
56151W        W24545  25.130  34.088  12.589
56152W        W24546  13.912  35.193   0.366
56153W        W24547  25.058  29.214   2.153
56154W        W24548  17.164  18.649  12.879
56155W        W24549  42.421   0.486  14.545
56156W        W24550  27.876  36.864   0.002
56157W        W24551  34.281   7.422   0.823
56158W        W24552   3.198   8.713  10.712
56159W        W24553  12.157  12.301  12.467
56160W        W24554  10.620  22.518   1.772
56161W        W24555  23.052  24.676  14.630
56162W        W24556   9.382  22.780  10.306
56163W        W24557   0.672  10.602  13.753
56164W        W24558   0.380   0.853   4.676
56165W        W24559   1.574  16.722  14.250
56166W        W24560  40.857   2.669  11.250
56167W        W24561  43.831  30.983   1.094
56168W        W24562  29.784  39.768  10.713
56169W        W24563  35.874  40.037  12.146
56170W        W24564  42.604  30.653   3.312
56171W        W24565  19.249  13.905   2.202
56172W        W24566  16.684   1.773   1.692
56173W        W24567  27.518  24.035  11.492
56174W        W24568  36.437  16.121   3.241
56175W        W24569  25.709  31.519  12.491
56176W        W24570  26.298  31.129  13.315
56177W        W24571   4.693  14.988   3.687
56178W        W24572  29.556  19.315   4.281
56179W        W24573   6.199  30.413  13.408
56180W        W24574   7.860   5.194   2.343
56181W        W24575  20.812  24.719  10.933
56182W        W24576  25.670  14.090  12.996
56183W        W24577  39.017  36.258  10.972
56184W        W24578  40.131   6.901  12.374
56185W        W24579   0.447  36.120  12.408
56186W        W24580   1.210  34.743  12.560
56187W        W24581   3.474  24.709  14.890
56188W        W24582  15.569   0.089   0.401
56189W        W24583  13.356  21.400  12.078
56190W        W24584  18.754   4.267   4.112
56191W        W24585  29.026  16.490   0.275
56192W        W24586  16.333  19.630   0.869
56193W        W24587  36.873  41.111   2.492
56194W        W24588  18.440  17.521  10.747
56195W        W24589   1.740  27.657  11.925
56196W        W24590  32.931  31.947   0.580
56197W        W24591  29.505  41.803  12.927
56198W        W24592  23.653  36.731   3.806
56199W        W24593   3.341   8.815   0.041
56200W        W24594  38.858   6.371   3.961
56201W        W24595   9.066  23.205   4.154
56202W        W24596  31.946  41.024   5.087
56203W        W24597  19.039  24.827   0.792
56204W        W24598  25.209   6.979  11.149
56205W        W24599  20.556  12.841  13.413
56206W        W24600  35.351   6.191   2.882
56207W        W24601  16.764  17.288  13.824
56208W        W24602  33.047   7.385  10.442
56209W        W24603  23.109  37.790   0.986
56210W        W24604  34.886  33.922   2.912
56211W        W24605  13.105  18.570  12.223
56212W        W24606  17.656  30.902   4.498
56213W        W24607  19.107  25.674   3.673
56214W        W24608   5.342   8.879  13.714
56215W        W24609  41.841  31.718  13.326
56216W        W24610  17.183   0.021   4.879
56217W        W24611  34.775   0.219  11.366
56218W        W24612  28.542   6.968   2.655
56219W        W24613  41.968   5.168   0.455
56220W        W24614  43.491   2.469  13.574
56221W        W24615  30.195  28.009  12.290
56222W        W24616   7.889  12.880   1.414
56223W        W24617  44.852  30.645   1.920
56224W        W24618  34.186   9.774   4.074
56225W        W24619  11.103  25.199  14.973
56226W        W24620   1.405   9.398  12.624
56227W        W24621  14.055  14.193  11.109
56228W        W24622   3.878   4.118  10.509
56229W        W24623   3.951  17.320  13.589
56230W        W24624   4.806  32.474   3.862
56231W        W24625  13.967   7.946   4.882
56232W        W24626   0.425  38.076   0.813
56233W        W24627   5.426   3.725   3.573
56234W        W24628  39.267  41.951  11.666
56235W        W24629  13.305  17.861   2.793
56236W        W24630  43.341  44.259   3.350
56237W        W24631  29.061   3.106   0.545
56238W        W24632  24.159  32.434  13.560
56239W        W24633  12.029  38.024  11.523
56240W        W24634  42.926   7.117   3.068
56241W        W24635  23.079  35.616  11.798
56242W        W24636  12.356  15.230   3.624
56243W        W24637   9.283  41.531   1.021
56244W        W24638  21.921  43.218   1.224
56245W        W24639  36.378  35.039  11.603
56246W        W24640  24.090  13.758  14.685
56247W        W24641  31.546   3.382  10.435
56248W        W24642  40.090   0.501  14.894
56249W        W24643  18.765   4.181   4.630
56250W        W24644  33.952   9.889   4.541
56251W        W24645  33.489  36.545   3.005
56252W        W24646  29.512  36.052  10.409
56253W        W24647  37.858  24.671  12.182
56254W        W24648  30.437  33.405   5.014
56255W        W24649  31.622  12.639   2.953
56256W        W24650  18.727  21.535   1.870
56257W        W24651  26.076  29.915  11.072
56258W        W24652  40.769  16.876   2.679
56259W        W24653  24.224  22.276   2.658
56260W        W24654  30.078  40.112  14.906
56261W        W24655  14.325  11.977  11.615
56262W        W24656  12.859   1.390   3.293
56263W        W24657  26.198   2.260  12.919
56264W        W24658  21.201  12.249   0.846
56265W        W24659   0.551  12.233  10.518
56266W        W24660   0.330  34.656   1.707
56267W        W24661  36.238   3.149   5.145
56268W        W24662   5.349  22.034  14.372
56269W        W24663   0.045  44.327   3.898
56270W        W24664  29.632  25.440   0.037
56271W        W24665  10.312  36.596  12.960
56272W        W24666  15.615  24.015   3.353
56273W        W24667  20.741  34.917   3.352
56274W        W24668  19.677   5.835  10.777
56275W        W24669  43.658  16.308   1.490
56276W        W24670   9.172  17.146  14.435
56277W        W24671  15.109   3.257  10.204
56278W        W24672  20.832  44.889  12.589
56279W        W24673  16.296  10.031   0.459
56280W        W24674  41.896   8.474   4.108
56281W        W24675  39.687   3.293   3.858
56282W        W24676  24.306  17.653  13.055
56283W        W24677  10.445  18.605  11.025
56284W        W24678  22.544  43.316   4.002
56285W        W24679   7.862  31.901  12.447
56286W        W24680  20.643  16.709   4.646
56287W        W24681  13.813  10.613   0.864
56288W        W24682  26.117  32.019  11.832
56289W        W24683  15.941  36.418  12.733
56290W        W24684   6.325  28.054  10.175
56291W        W24685  13.124  40.686   2.205
56292W        W24686   6.895  37.973  12.557
56293W        W24687  43.627  30.436   4.149
56294W        W24688  34.063  16.821  10.733
56295W        W24689   7.634  14.191   2.263
56296W        W24690  26.967   7.376   1.331
56297W        W24691  18.021   1.587   4.155
56298W        W24692  14.587   0.466  12.399
56299W        W24693  41.278   5.715   0.299
56300W        W24694  32.438  21.225  12.093
56301W        W24695  33.511  39.811  13.528
56302W        W24696  41.822  29.136  13.423
56303W        W24697  43.242   9.222  14.995
56304W        W24698  11.300  10.605  13.098
56305W        W24699  13.304  19.786  12.318
56306W        W24700  11.369   0.948  10.168
56307W        W24701  23.702  40.056  14.479
56308W        W24702   9.354  34.780   4.571
56309W        W24703  20.191   7.695  11.645
56310W        W24704  17.821   8.039  12.090
56311W        W24705  27.507  10.919   1.010
56312W        W24706  34.138  20.165   2.303
56313W        W24707  31.008  20.317  13.931
56314W        W24708  10.670   5.828   2.126
56315W        W24709  38.100   3.689  11.589
56316W        W24710  11.211  32.899   1.201
56317W        W24711   7.875  37.497  13.461
56318W        W24712   4.697  39.602  13.023
56319W        W24713  13.209  39.043  14.261
56320W        W24714   2.899  31.744   4.947
56321W        W24715  39.177  20.038   2.561
56322W        W24716  26.109  19.750   3.120
56323W        W24717  14.658   5.998  13.629
56324W        W24718  16.920  11.629   0.715
56325W        W24719  19.532  14.652  11.404
56326W        W24720  19.282  31.089   4.664
56327W        W24721   0.511  26.494   1.379
56328W        W24722   6.810  30.507  12.617
56329W        W24723   4.233  18.343   0.301
56330W        W24724  32.127  18.764   2.390
56331W        W24725  39.137  38.160   0.343
56332W        W24726  44.494  43.038  11.038
56333W        W24727  30.514  33.884   0.042
56334W        W24728  21.967   0.235  12.472
56335W        W24729  41.957  36.613   2.212
56336W        W24730  15.339  13.110   2.266
56337W        W24731  15.153  27.693   3.288
56338W        W24732  35.674   9.877  11.613
56339W        W24733  29.490  31.719  12.818
56340W        W24734  43.314   6.759  12.712
56341W        W24735   8.777  22.687   4.540
56342W        W24736  14.096  15.718   1.777
56343W        W24737  21.093  10.781   4.760
56344W        W24738  20.986  12.980  10.762
56345W        W24739  33.978  31.175   4.025
56346W        W24740  40.296  40.301  13.047
56347W        W24741  40.014   6.342  13.928
56348W        W24742  36.646  43.481   0.010
56349W        W24743  10.630  33.399   2.214
56350W        W24744  31.896   4.185   3.438
56351W        W24745  44.061  30.351  13.803
56352W        W24746  25.265  17.767  11.076
56353W        W24747  18.801  17.121  12.141
56354W        W24748  42.099  40.025  13.241
56355W        W24749  27.089  23.677   2.395
56356W        W24750  29.420  24.750   4.597
56357W        W24751   7.218   0.906   4.682
56358W        W24752  23.404  34.049   2.666
56359W        W24753  33.390  25.528   2.669
56360W        W24754  21.000  17.165   3.235
56361W        W24755   4.301  23.337   2.737
56362W        W24756  30.317  44.859   2.697
56363W        W24757  20.039  40.336   0.834
56364W        W24758  40.969  32.404  13.062
56365W        W24759  13.989  42.503  11.961
56366W        W24760   8.483   7.024  13.077
56367W        W24761  25.323  36.000  11.113
56368W        W24762  30.550  13.754   1.180
56369W        W24763  13.855  19.715  11.498
56370W        W24764  44.021   9.600  14.919
56371W        W24765  38.827   2.830  13.501
56372W        W24766  16.052  30.006   0.815
56373W        W24767  28.383  21.703  14.494
56374W        W24768   7.936  42.972   3.096
56375W        W24769  42.341   3.821   0.722
56376W        W24770  44.891  35.456  14.028
56377W        W24771  33.553  36.440   4.263
56378W        W24772  10.304  24.316  11.650
56379W        W24773   2.504   1.458   1.492
56380W        W24774   0.426   3.890  11.159
56381W        W24775  43.771  22.572   0.596
56382W        W24776  16.160   3.641   2.592
56383W        W24777   6.208  33.742  13.680
56384W        W24778  10.890  40.367   4.079
56385W        W24779  26.939  40.488  14.452
56386W        W24780  41.173  22.498  11.378
56387W        W24781   9.605  13.464  14.719
56388W        W24782   6.253  40.475  13.140
56389W        W24783  42.275  12.699  12.580
56390W        W24784  16.124   6.463  13.029
56391W        W24785  38.002  31.470  14.038
56392W        W24786  15.650  13.579   0.680
56393W        W24787  13.062  23.600   2.551
56394W        W24788  11.687  28.002  10.223
56395W        W24789  13.551  30.497  12.518
56396W        W24790  35.079  10.241   0.508
56397W        W24791  10.052  33.393  12.102
56398W        W24792   4.769  22.696   2.899
56399W        W24793  29.543  20.187  11.515
56400W        W24794  44.681  26.390   2.327
56401W        W24795   2.777   8.235   1.458
56402W        W24796   4.805   4.241  14.421
56403W        W24797  29.932   8.570   9.861
56404W        W24798   2.382  26.565   2.301
56405W        W24799  26.144  18.746  12.064
56406W        W24800  44.031   1.246   3.081
56407W        W24801  20.344  33.136   3.714
56408W        W24802   1.253  29.666   0.347
56409W        W24803  14.656  36.851   1.733
56410W        W24804   1.371  37.381  11.412
56411W        W24805  23.473  10.679  14.049
56412W        W24806  17.771   8.842  13.949
56413W        W24807  32.413  15.359   2.385
56414W        W24808  43.751  32.858  14.712
56415W        W24809   3.138  22.638  13.083
56416W        W24810  10.136  28.011  11.049
56417W        W24811  42.809  32.490   2.350
56418W        W24812  15.088  31.772  12.107
56419W        W24813  22.690  22.160  12.732
56420W        W24814  13.229   3.506  12.187
56421W        W24815  13.450  42.267   1.385
56422W        W24816  10.922  32.620   4.006
56423W        W24817  33.646  21.165   3.667
56424W        W24818  15.637  38.424  14.459
56425W        W24819  29.057  33.375  10.442
56426W        W24820  25.155  41.413   0.739
56427W        W24821  25.963   1.295   3.903
56428W        W24822   3.832   1.818  10.763
56429W        W24823  16.151  27.945  10.164
56430W        W24824  34.364   0.898   4.490
56431W        W24825   4.812  36.228  12.971
56432W        W24826  35.058  38.094   3.401
56433W        W24827  11.818   6.147  12.018
56434W        W24828   7.643  41.985  11.531
56435W        W24829  30.865  17.028  11.201
56436W        W24830  30.031  28.229  12.997
56437W        W24831   1.782  11.541   2.731
56438W        W24832   5.381  42.931  13.455
56439W        W24833  20.354  12.214  14.987
56440W        W24834   3.639  18.052   5.176
56441W        W24835   1.345   2.374   0.244
56442W        W24836  43.249  19.609  14.495
56443W        W24837  29.644  20.328   3.148
56444W        W24838  10.853   9.717   0.846
56445W        W24839  25.064  13.874   3.721
56446W        W24840  44.728  36.778   3.870
56447W        W24841  32.316  11.716   9.851
56448W        W24842  40.255  12.911   3.628
56449W        W24843  23.645  40.557   2.327
56450W        W24844   3.941  44.792  13.446
56451W        W24845   3.706  32.974   3.298
56452W        W24846  29.472  15.705   3.780
56453W        W24847  32.397  24.993   1.798
56454W        W24848   7.906  43.945  14.909
56455W        W24849  44.265  30.917  11.179
56456W        W24850   0.530  39.565  13.558
56457W        W24851  40.053  43.311   0.002
56458W        W24852   9.763  36.859   4.408
56459W        W24853   4.354  31.625   3.120
56460W        W24854  27.971  24.407  10.575
56461W        W24855  13.271  26.580   1.846
56462W        W24856  38.260  39.255  14.377
56463W        W24857  35.005   1.178   4.713
56464W        W24858  10.654  35.061   3.734
56465W        W24859  34.188  16.709   1.498
56466W        W24860  13.838  13.406  10.886
56467W        W24861  24.715  14.902   3.321
56468W        W24862  42.209   0.839   3.629
56469W        W24863  16.312  35.010   1.770
56470W        W24864   2.279  21.112  14.085
56471W        W24865  27.656  30.513   0.661
56472W        W24866   2.750   7.429   0.039
56473W        W24867  38.931  29.252  11.097
56474W        W24868  24.530  21.701   1.352
56475W        W24869  28.921   5.758   2.258
56476W        W24870  20.453  24.695  14.228
56477W        W24871   2.794  26.204   0.895
56478W        W24872  43.383  11.829  14.504
56479W        W24873   6.995  18.126  11.038
56480W        W24874  28.383   6.630   0.191
56481W        W24875   3.240  42.079  13.381
56482W        W24876  29.743  20.483  12.498
56483W        W24877   9.619  24.456  12.626
56484W        W24878  22.062  41.420  10.569
56485W        W24879   9.417  27.435  14.312
56486W        W24880  19.890   6.459  11.084
56487W        W24881  31.537  30.288   0.233
56488W        W24882   9.140  20.850   2.242
56489W        W24883   8.886  28.675  14.778
56490W        W24884  21.246  14.833  11.060
56491W        W24885  20.023  36.072   0.321
56492W        W24886  30.683  14.171   1.834
56493W        W24887  38.122  44.878   3.277
56494W        W24888  18.713  41.515   4.741
56495W        W24889  12.691  29.517   1.292
56496W        W24890  19.483   1.580  12.704
56497W        W24891  20.868  20.204  14.438
56498W        W24892  42.487  19.665  11.807
56499W        W24893  38.762  16.695   4.602
56500W        W24894  29.824   9.840  12.054
56501W        W24895  42.847  31.802   1.716
56502W        W24896  17.961  21.551   0.423
56503W        W24897  43.355  41.674  11.065
56504W        W24898  41.316  39.392   1.960
56505W        W24899   2.458  35.673   0.343
56506W        W24900  40.319  34.982   1.023
56507W        W24901  42.454  31.054  11.145
56508W        W24902   9.278  26.061  12.498
56509W        W24903  22.495   1.373   0.051
56510W        W24904   0.507  41.868   2.302
56511W        W24905  40.454  30.121   3.756
56512W        W24906   1.423   6.543   1.703
56513W        W24907  14.480  20.460   2.134
56514W        W24908  28.054   5.363  11.288
56515W        W24909   9.937  37.316   0.021
56516W        W24910  43.516   6.238  13.486
56517W        W24911  33.809  33.832   0.091
56518W        W24912  31.136  38.117  12.824
56519W        W24913  20.268  23.616   3.638
56520W        W24914   7.695  29.404  11.987
56521W        W24915   1.978  11.372  13.470
56522W        W24916  29.884  44.372  14.298
56523W        W24917   3.699  21.724  14.299
56524W        W24918  23.342  28.342  11.900
56525W        W24919   9.736  16.718  10.723
56526W        W24920  29.974   6.810  12.623
56527W        W24921  27.714   0.551   3.750
56528W        W24922  19.337  28.255  14.830
56529W        W24923  11.719   0.337  11.726
56530W        W24924  36.359  14.543  14.512
56531W        W24925  14.199   0.733  13.395
56532W        W24926  29.755  22.766   1.819
56533W        W24927  18.388  17.951  11.966
56534W        W24928   6.970   6.805  14.246
56535W        W24929  43.404  12.613  14.089
56536W        W24930   4.408  41.471  10.413
56537W        W24931  42.890  27.253  11.185
56538W        W24932  19.226  15.688  11.500
56539W        W24933  15.919   5.442  13.291
56540W        W24934   8.815  16.523   2.562
56541W        W24935  44.709  28.460  12.582
56542W        W24936  15.126   9.989  11.187
56543W        W24937  11.973  20.623  13.262
56544W        W24938  38.918  32.390  11.031
56545W        W24939  19.601  37.644   0.857
56546W        W24940  16.711  15.231   0.045
56547W        W24941  14.477  25.636  12.793
56548W        W24942   0.974   7.837   3.413
56549W        W24943  29.370   4.644  11.342
56550W        W24944   8.740  19.148   1.666
56551W        W24945  16.733  13.489  13.014
56552W        W24946   2.920   8.113   2.423
56553W        W24947   3.935   4.858   4.210
56554W        W24948  25.293  30.488  13.462
56555W        W24949  37.834   5.589  14.594
56556W        W24950  40.942  42.259   2.292
56557W        W24951  25.914   5.643  13.415
56558W        W24952  22.914   2.788  11.091
56559W        W24953  17.501   6.349   2.215
56560W        W24954  43.423  26.353  10.983
56561W        W24955   5.366  22.574  14.424
56562W        W24956  32.537  18.464  13.803
56563W        W24957  39.492   1.984   4.255
56564W        W24958  24.866  11.596  14.851
56565W        W24959  14.374  43.369   3.683
56566W        W24960   3.849  29.376  14.938
56567W        W24961  41.716  11.617  13.060
56568W        W24962  37.642  16.654  12.413
56569W        W24963  31.922  18.624  14.788
56570W        W24964  36.825  35.632   0.219
56571W        W24965  35.598  44.981   0.350
56572W        W24966   9.195  13.173   2.289
56573W        W24967  35.383   4.617   1.716
56574W        W24968  16.602  12.221   1.150
56575W        W24969  15.136  12.783   2.841
56576W        W24970  41.817  20.469   1.744
56577W        W24971  12.589  36.137  11.270
56578W        W24972   9.728  38.220   5.011
56579W        W24973  13.743   1.309  11.058
56580W        W24974  30.029   7.815  13.868
56581W        W24975  29.159  12.852  10.457
56582W        W24976   6.898  30.843   2.336
56583W        W24977   0.415  32.053   1.678
56584W        W24978  11.891  11.208   4.148
56585W        W24979  26.133  42.951  13.281
56586W        W24980   3.730  11.736  10.473
56587W        W24981   2.311   8.261   1.259
56588W        W24982  26.658  23.651  12.997
56589W        W24983   4.672  17.730  11.126
56590W        W24984   0.779  23.622   3.688
56591W        W24985  22.313  18.676   1.745
56592W        W24986  29.636   5.043  14.445
56593W        W24987  33.304  25.524   1.789
56594W        W24988   8.879  21.592  12.328
56595W        W24989  22.583  24.984  14.538
56596W        W24990  38.577  14.165  13.949
56597W        W24991  42.248  32.398  11.538
56598W        W24992  22.150  33.937   1.004
56599W        W24993  41.018  12.402  12.846
56600W        W24994   9.699  27.475   4.906
56601W        W24995  21.636  15.034  12.005
56602W        W24996   2.309   8.367   3.883
56603W        W24997  16.006  35.328  13.426
56604W        W24998  39.502  33.835  13.787
56605W        W24999  23.040  14.198   2.265
56606W        W25000   3.177  21.952   0.814
56607W        W25001   9.238  42.702   1.461
56608W        W25002   1.620  43.373   4.081
56609W        W25003  42.073  42.340   0.375
56610W        W25004  42.312  17.234  12.741
56611W        W25005  31.051  21.489   2.446
56612W        W25006  26.664  19.835   2.435
56613W        W25007  37.914   0.926   4.413
56614W        W25008  20.911  23.774  11.045
56615W        W25009   3.442  29.377   0.363
56616W        W25010   7.864  38.104   3.343
56617W        W25011  17.629  31.562   1.716
56618W        W25012   7.798  28.500   1.473
56619W        W25013  15.413  43.382  12.694
56620W        W25014  35.120  33.440  14.262
56621W        W25015  37.853  37.180   1.309
56622W        W25016  28.461  11.348  13.395
56623W        W25017  40.958  15.194   0.749
56624W        W25018   1.509  20.144  11.166
56625W        W25019  36.894  22.086   0.142
56626W        W25020  13.505  11.721  14.568
56627W        W25021   6.772  32.227  14.620
56628W        W25022  35.334  36.790   3.273
56629W        W25023  16.603  22.460   2.245
56630W        W25024  37.073  15.105  11.704
56631W        W25025  28.086  36.816   2.426
56632W        W25026  19.166  34.706   2.663
56633W        W25027  17.179  21.233  11.599
56634W        W25028   6.682  21.801   3.203
56635W        W25029   5.324  43.849   2.843
56636W        W25030  19.812  31.589  14.846
56637W        W25031  27.902   3.335  10.676
56638W        W25032  38.377   4.475  12.104
56639W        W25033  38.412  24.585  11.572
56640W        W25034  13.699  19.213  12.457
56641W        W25035  17.209  33.589   2.604
56642W        W25036  38.006  24.660  11.196
56643W        W25037  28.982  16.321  10.777
56644W        W25038  33.539  26.339  10.707
56645W        W25039  31.073  19.667  10.182
56646W        W25040  28.227  18.326   0.888
56647W        W25041   0.810  32.765   3.388
56648W        W25042  44.470  12.276   4.595
56649W        W25043   6.328  17.097  13.829
56650W        W25044   8.273  13.060  11.534
56651W        W25045  25.120   8.359   1.740
56652W        W25046   9.989   8.379  13.909
56653W        W25047  19.766  21.296  14.367
56654W        W25048   8.891   9.667  13.480
56655W        W25049  43.874  30.902   4.078
56656W        W25050  31.449  29.417   1.828
56657W        W25051   0.457  37.836   2.183
56658W        W25052  43.863   2.969   1.242
56659W        W25053  35.522  19.619  13.183
56660W        W25054  11.255  14.100   4.827
56661W        W25055  34.520  19.155   4.484
56662W        W25056  13.631  10.794  14.527
56663W        W25057  27.855  14.408   2.638
56664W        W25058   7.224  31.174   4.329
56665W        W25059  16.390  37.078  13.374
56666W        W25060  28.879  12.139   4.109
56667W        W25061  17.145  26.512   5.168
56668W        W25062  38.980  32.946   3.623
56669W        W25063   5.489  13.728  14.480
56670W        W25064  29.894   3.015   2.239
56671W        W25065  25.522  37.873  11.786
56672W        W25066   8.902   0.269  10.673
56673W        W25067  16.197   9.641  10.222
56674W        W25068   8.329  32.135  13.984
56675W        W25069  44.766  12.426   1.104
56676W        W25070  44.776   4.772  14.415
56677W        W25071  30.157  22.691   0.341
56678W        W25072  27.326  26.834  13.823
56679W        W25073  21.063  34.508   3.594
56680W        W25074  43.024  36.334   1.308
56681W        W25075  14.188  13.552  10.511
56682W        W25076   7.612  11.628   2.693
56683W        W25077  31.514  15.379  13.061
56684W        W25078  41.018  31.531   1.768
56685W        W25079  13.268   2.500  14.186
56686W        W25080  24.138  38.245   4.747
56687W        W25081  31.145   1.343  14.924
56688W        W25082  41.275  30.618  14.416
56689W        W25083  38.531  23.478  14.015
56690W        W25084  37.515   0.308   3.697
56691W        W25085  37.599  13.839   2.037
56692W        W25086   5.474  17.588   4.067
56693W        W25087  11.838  33.068   3.284
56694W        W25088  19.311  39.324   2.591
56695W        W25089  25.188  34.678  14.493
56696W        W25090  22.905   4.200  13.627
56697W        W25091   2.488  18.074   4.670
56698W        W25092  10.199   8.261   4.053
56699W        W25093  16.249   9.129  10.249
56700W        W25094  22.991  31.548  11.586
56701W        W25095   8.207  22.745   3.027
56702W        W25096   4.454  23.001   4.464
56703W        W25097  31.944  27.780   0.921
56704W        W25098   3.932  18.585  14.878
56705W        W25099   1.500  21.537   2.672
56706W        W25100  43.190  40.325  14.430
56707W        W25101  27.562  12.257   2.158
56708W        W25102  22.213  30.622   0.027
56709W        W25103  25.661  14.894   2.251
56710W        W25104  31.773  28.106   1.759
56711W        W25105  38.563  22.405  10.538
56712W        W25106  24.941  43.461  14.395
56713W        W25107  10.143   7.252  10.840
56714W        W25108  28.059  25.224  10.208
56715W        W25109  44.476  18.277  11.140
56716W        W25110  27.139  34.327   0.477
56717W        W25111   9.315  16.296  14.952
56718W        W25112  36.423  25.689  13.096
56719W        W25113  17.414  34.809   2.343
56720W        W25114  25.589  13.578  13.008
56721W        W25115  41.443   2.747  12.808
56722W        W25116  31.136  26.050  11.223
56723W        W25117  35.653  16.024   4.127
56724W        W25118   5.181  18.643  13.028
56725W        W25119  34.544   8.669  13.923
56726W        W25120   3.373  26.091  13.964
56727W        W25121  26.268   4.815  13.609
56728W        W25122  15.027  20.868  11.748
56729W        W25123  34.163  38.130   4.360
56730W        W25124  37.827  23.682   1.009
56731W        W25125  40.875  20.237  12.511
56732W        W25126   5.844  25.188   1.401
56733W        W25127   3.972  18.514  13.943
56734W        W25128  18.686  11.910   2.013
56735W        W25129  23.520  20.041   2.693
56736W        W25130  32.389  33.979   3.659
56737W        W25131   4.024  33.637  13.874
56738W        W25132  17.493  18.047  14.921
56739W        W25133  32.506  40.949   4.402
56740W        W25134   0.501  36.994  11.543
56741W        W25135  43.387  29.985   1.276
56742W        W25136  43.187   5.283  14.816
56743W        W25137  42.477  15.853   1.705
56744W        W25138  29.600  25.090  11.562
56745W        W25139  37.626  27.064   4.847
56746W        W25140  27.465   6.167   1.932
56747W        W25141  37.090  41.829   4.315
56748W        W25142   4.975  26.744   0.031
56749W        W25143  17.690  44.710   2.333
56750W        W25144  35.510  43.839   1.626
56751W        W25145  35.793  30.023   3.841
56752W        W25146  43.308  44.326  13.503
56753W        W25147   9.411  18.608   3.115
56754W        W25148   0.296  22.405   0.859
56755W        W25149  43.734   0.794  14.375
56756W        W25150   0.534  42.812  12.661
56757W        W25151   9.667   5.516  12.982
56758W        W25152   0.328  21.656  11.144
56759W        W25153  23.215  21.784   1.840
56760W        W25154  27.769  35.852   4.292
56761W        W25155  17.634   5.827   4.154
56762W        W25156  13.264  21.077  13.984
56763W        W25157  31.881   8.897  10.097
56764W        W25158  19.595  22.738  14.481
56765W        W25159  17.163  36.637  13.672
56766W        W25160  43.661  23.175  14.370
56767W        W25161   6.255  36.379   3.145
56768W        W25162   5.334  34.554  10.423
56769W        W25163  10.345  22.182  12.032
56770W        W25164  39.964   2.814   1.324
56771W        W25165  36.877  18.688   1.289
56772W        W25166   8.211   6.838  10.702
56773W        W25167  34.996  17.767  10.485
56774W        W25168  38.257   8.816  13.280
56775W        W25169   2.426   3.568   4.078
56776W        W25170   5.951   3.389   3.085
56777W        W25171   7.651  23.438   1.221
56778W        W25172  21.763   2.416   3.746
56779W        W25173  17.212  14.920   2.807
56780W        W25174  28.457  10.589   1.743
56781W        W25175  44.585  14.123   2.907
56782W        W25176   9.441  24.107  12.963
56783W        W25177   8.920  17.465   4.885
56784W        W25178  26.621  21.843  12.144
56785W        W25179  19.801  21.601   4.789
56786W        W25180  17.046  35.531  10.736
56787W        W25181  39.602  13.212   1.751
56788W        W25182  44.059  36.793   3.232
56789W        W25183  23.673  12.079  13.914
56790W        W25184  29.065   3.537   0.246
56791W        W25185  10.894  30.900  11.126
56792W        W25186  31.888   0.046   2.526
56793W        W25187   6.631  42.525  11.453
56794W        W25188  44.857   3.559  11.438
56795W        W25189  30.961  11.562  12.880
56796W        W25190  36.791  39.044  11.558
56797W        W25191  18.030   4.287  10.652
56798W        W25192  38.028  21.154  13.553
56799W        W25193  42.019  19.803  13.346
56800W        W25194  21.513  37.631  11.833
56801W        W25195  36.104   7.214  12.792
56802W        W25196   0.852  28.550  10.692
56803W        W25197  36.953   0.456  14.836
56804W        W25198  24.927  42.511   0.557
56805W        W25199  23.246  36.559  14.793
56806W        W25200  21.866   1.387  10.635
56807W        W25201  41.498  11.231   3.607
56808W        W25202  34.915  33.884  13.053
56809W        W25203  38.083  41.084   2.369
56810W        W25204   5.902  20.499  11.927
56811W        W25205  39.400   4.977  12.934
56812W        W25206  30.598  21.341   0.493
56813W        W25207  32.852  43.054  11.962
56814W        W25208   3.477   0.066  12.349
56815W        W25209   7.346  14.768   4.552
56816W        W25210   1.406  23.412   1.153
56817W        W25211  43.482  13.701  10.987
56818W        W25212  32.588  18.169  14.700
56819W        W25213  10.145  11.183   3.344
56820W        W25214  33.868  31.436   2.224
56821W        W25215  12.301  40.519  12.500
56822W        W25216  15.326  20.728   1.960
56823W        W25217  42.130  23.703  11.131
56824W        W25218  23.069  40.505   4.260
56825W        W25219  11.561   1.696  13.396
56826W        W25220  35.447  15.962  14.881
56827W        W25221   3.646   2.223   1.053
56828W        W25222  23.679  22.522  12.943
56829W        W25223  39.804  17.299   4.597
56830W        W25224   6.383  37.934   4.818
56831W        W25225  42.789   2.949  14.798
56832W        W25226  28.078  27.930   0.419
56833W        W25227  17.527  16.181   2.583
56834W        W25228  26.038  23.064  11.969
56835W        W25229  32.901   6.502   1.293
56836W        W25230  42.791   2.857  13.953
56837W        W25231  19.883  21.885  13.616
56838W        W25232  16.786   7.082  14.974
56839W        W25233  32.621  36.678   1.298
56840W        W25234  28.542   5.705   0.356
56841W        W25235   7.915  16.768  11.282
56842W        W25236  21.295  31.496  13.930
56843W        W25237  20.636  36.016   4.640
56844W        W25238  26.720  41.264  13.825
56845W        W25239  20.200  13.135  11.476
56846W        W25240   1.638  24.293  11.123
56847W        W25241   5.303  24.589   2.708
56848W        W25242  42.304   0.872   0.853
56849W        W25243  29.889  26.921   0.351
56850W        W25244  15.530  37.525   0.436
56851W        W25245  11.379  29.927  10.575
56852W        W25246   0.258  40.299  12.659
56853W        W25247  24.943  37.355  13.856
56854W        W25248   5.470   0.217  13.335
56855W        W25249  29.243  31.652  13.293
56856W        W25250  19.789  44.918  14.753
56857W        W25251  27.069  24.652   1.018
56858W        W25252   1.637  14.575   1.366
56859W        W25253  38.370   5.403  11.467
56860W        W25254   0.827  11.201  12.858
56861W        W25255  33.103  40.484   4.904
56862W        W25256  37.672  13.917   2.555
56863W        W25257  40.833  35.881  13.308
56864W        W25258  20.165   2.994  11.913
56865W        W25259  32.601   8.919   0.823
56866W        W25260  28.124  15.242  11.694
56867W        W25261  17.863  33.497   1.497
56868W        W25262   9.768  25.968   2.054
56869W        W25263  11.118  13.789  14.721
56870W        W25264   2.919   2.884   3.725
56871W        W25265  35.563  25.814   0.255
56872W        W25266  33.960  13.802  13.410
56873W        W25267  42.390  35.088  10.154
56874W        W25268  14.897  24.004  13.420
56875W        W25269  40.754  32.173  11.654
56876W        W25270  35.913  43.441  11.166
56877W        W25271  31.480   2.296  14.756
56878W        W25272   4.424   2.333  12.850
56879W        W25273  34.194  21.166  11.399
56880W        W25274  25.498  17.313  11.083
56881W        W25275  42.404  25.889  12.776
56882W        W25276  36.837  17.740  10.581
56883W        W25277   3.933  36.471  13.309
56884W        W25278  38.546  43.841  13.505
56885W        W25279  38.855  19.506  11.601
56886W        W25280  36.091  40.714   3.925
56887W        W25281  29.194  27.279   4.632
56888W        W25282  37.029  17.646  14.368
56889W        W25283  32.858  29.655   1.693
56890W        W25284  18.535  34.390   4.440
56891W        W25285   0.207  39.609   0.832
56892W        W25286  26.924   2.428  10.753
56893W        W25287   6.792   4.768   3.007
56894W        W25288  37.342   1.360  13.833
56895W        W25289  32.513  25.206  13.994
56896W        W25290   4.817  32.519  14.943
56897W        W25291  16.262   1.489  13.015
56898W        W25292   8.802  23.739   4.538
56899W        W25293  32.129   9.248   5.098
56900W        W25294  40.673  44.475  12.865
56901W        W25295   6.309   2.189   0.393
56902W        W25296  37.941  41.285  14.796
56903W        W25297  19.716  17.834  12.350
56904W        W25298  17.260  29.170  14.431
56905W        W25299  14.597  37.133   4.524
56906W        W25300  28.516  21.242  11.494
56907W        W25301  26.748  11.556  12.428
56908W        W25302  35.814  34.352  14.324
56909W        W25303  16.808   2.091  13.467
56910W        W25304  32.958  10.889   4.189
56911W        W25305  21.035  27.866   3.596
56912W        W25306  19.805  29.998   0.823
56913W        W25307  37.295  21.433   4.223
56914W        W25308  19.837  16.108   3.272
56915W        W25309  28.599   0.460  14.905
56916W        W25310   5.812  41.909   1.435
56917W        W25311  32.998  31.040   3.617
56918W        W25312  14.834   9.637  13.545
56919W        W25313   8.753  12.520   2.307
56920W        W25314   5.753   5.493   2.260
56921W        W25315  44.532  37.950  14.671
56922W        W25316  41.318   4.402  13.080
56923W        W25317   4.985   2.320  11.147
56924W        W25318  28.281   6.642  11.328
56925W        W25319  17.258   8.679   0.253
56926W        W25320  31.007  35.069  11.641
56927W        W25321  41.778   1.073  10.724
56928W        W25322  35.014  43.706   4.020
56929W        W25323  12.610  18.218  10.661
56930W        W25324  40.993  34.036   3.628
56931W        W25325   8.400  43.453   4.847
56932W        W25326  26.220  35.871   0.720
56933W        W25327   0.263  44.259  12.434
56934W        W25328  20.537  38.350  12.479
56935W        W25329   8.260   2.619   4.592
56936W        W25330   4.661  28.046   1.718
56937W        W25331  40.802  11.803  13.399
56938W        W25332  33.156  23.327  12.177
56939W        W25333  34.518  21.597   0.404
56940W        W25334  13.592  43.357   4.649
56941W        W25335  38.589  31.882  14.506
56942W        W25336  43.966  40.286  10.312
56943W        W25337   0.924  41.032   3.876
56944W        W25338  19.719   8.483   2.740
56945W        W25339  28.903   3.957  11.212
56946W        W25340  17.646  21.432  11.577
56947W        W25341  35.092  19.526   2.825
56948W        W25342  31.614   6.114  13.849
56949W        W25343  42.096  44.848   2.625
56950W        W25344  31.980  26.695   4.047
56951W        W25345  33.150  28.596   3.316
56952W        W25346  40.046   9.524   1.842
56953W        W25347  37.217  36.366   3.332
56954W        W25348   1.918  27.760   3.327
56955W        W25349   3.857  43.366  11.573
56956W        W25350   2.356  27.519   4.208
56957W        W25351  13.203  32.372   0.811
56958W        W25352  41.390  43.835   1.009
56959W        W25353   8.668   4.151   2.209
56960W        W25354   5.356  22.651  13.009
56961W        W25355  40.063   4.769  12.122
56962W        W25356   6.318  27.190   0.386
56963W        W25357  28.003   8.608  12.939
56964W        W25358   6.696  12.072   0.898
56965W        W25359   9.727   9.648   4.840
56966W        W25360  42.218  39.279  12.928
56967W        W25361  16.238  29.533  11.617
56968W        W25362  30.216  19.726  11.933
56969W        W25363   0.950   4.663  14.291
56970W        W25364   9.549  32.632  11.625
56971W        W25365  33.520  30.614  13.607
56972W        W25366  38.307  38.819  13.428
56973W        W25367   9.175  39.027   4.174
56974W        W25368   7.189  41.620  13.349
56975W        W25369   0.543   4.548   3.973
56976W        W25370  23.740  10.059  10.068
56977W        W25371  16.651  10.597   4.502
56978W        W25372  18.611  25.196   1.513
56979W        W25373  24.472  21.668  13.337
56980W        W25374  31.362  11.729  14.628
56981W        W25375  18.314  30.132  11.276
56982W        W25376  42.618   6.273   1.458
56983W        W25377  26.317  37.782   2.925
56984W        W25378  30.699   8.369  13.920
56985W        W25379   9.099  27.509  10.435
56986W        W25380  44.802  37.875  13.482
56987W        W25381   1.469  37.973   4.061
56988W        W25382  25.404   7.484  11.172
56989W        W25383  23.702  17.218   3.952
56990W        W25384  31.207  22.630  10.085
56991W        W25385  12.637  11.730   2.238
56992W        W25386  25.522  21.141  10.502
56993W        W25387  19.936  24.925   2.766
56994W        W25388   0.667  13.963  14.933
56995W        W25389  42.406  18.243  11.505
56996W        W25390  15.775   3.170   3.463
56997W        W25391  18.645  11.464   2.505
56998W        W25392  14.657  41.634   1.308
56999W        W25393  10.118   3.692  11.879
57000W        W25394  13.851  27.969   0.389
57001W        W25395  32.938   7.128  12.409
57002W        W25396  10.098   6.348   2.700
57003W        W25397  43.809  19.078   0.787
57004W        W25398   0.013  17.240   4.416
57005W        W25399  42.006  19.537  14.888
57006W        W25400   3.874  15.670   3.561
57007W        W25401  21.557  42.928   3.365
57008W        W25402  13.217  10.089  12.458
57009W        W25403  12.323  31.516  11.597
57010W        W25404  28.056  38.759   2.839
57011W        W25405  33.326   4.706   3.701
57012W        W25406  26.253   8.145   1.727
57013W        W25407  32.562  19.785  12.897
57014W        W25408  33.561  20.652   1.761
57015W        W25409  24.482  32.996  11.511
57016W        W25410  24.755   2.359  12.546
57017W        W25411  13.986  26.997   3.109
57018W        W25412  29.463  30.462   1.733
57019W        W25413   1.734  15.651   4.996
57020W        W25414  11.355  18.481   0.005
57021W        W25415  11.709  33.836   2.652
57022W        W25416   9.687  31.069   2.417
57023W        W25417  39.963   0.467   4.285
57024W        W25418   5.325  16.272   4.887
57025W        W25419  30.638   1.226   4.543
57026W        W25420  17.165  39.590  12.175
57027W        W25421  21.558   4.793   1.182
57028W        W25422   9.262  43.386  13.945
57029W        W25423   9.279  29.879   3.019
57030W        W25424   3.287  43.192  12.312
57031W        W25425  30.513  16.345   3.351
57032W        W25426  15.348  10.279   0.370
57033W        W25427  16.587  13.335   2.006
57034W        W25428  21.142   6.939  14.509
57035W        W25429  43.970  37.288   3.151
57036W        W25430   1.675  24.794   0.811
57037W        W25431   9.608  16.395  13.975
57038W        W25432  35.617  30.217   4.537
57039W        W25433  11.124   5.488   3.189
57040W        W25434   8.873   6.107  11.572
57041W        W25435  28.643  12.847  11.644
57042W        W25436  32.260  39.509   3.596
57043W        W25437  24.558  19.557   0.318
57044W        W25438  33.943  38.364  14.768
57045W        W25439   5.279  36.597  13.567
57046W        W25440  29.994  35.409  10.713
57047W        W25441  18.114   8.686   4.247
57048W        W25442  24.219  22.087  10.638
57049W        W25443  29.061  27.219   1.430
57050W        W25444  36.487  42.857  14.000
57051W        W25445  11.847  42.934   2.837
57052W        W25446  14.303  41.334   4.797
57053W        W25447   0.670  25.539   0.862
57054W        W25448   8.164  23.962  12.498
57055W        W25449  22.955  14.540   0.773
57056W        W25450  24.203  16.315   1.901
57057W        W25451  44.856  29.640  14.616
57058W        W25452  23.419  13.541   1.878
57059W        W25453   4.867  17.741   2.323
57060W        W25454  19.621  35.696   0.269
57061W        W25455   9.787  23.512  10.689
57062W        W25456  27.500   9.417  12.941
57063W        W25457  31.176   9.222   2.910
57064W        W25458  35.259  15.495  14.917
57065W        W25459   7.083   2.338  12.543
57066W        W25460   5.462   5.856   1.229
57067W        W25461   5.700   4.619  12.372
57068W        W25462  28.659  44.102  10.956
57069W        W25463  19.246  34.011  12.485
57070W        W25464   9.335  18.593  13.718
57071W        W25465  15.019  25.990   2.479
57072W        W25466  19.270  36.151  11.104
57073W        W25467  21.977  27.594   3.101
57074W        W25468  23.207  24.728   2.412
57075W        W25469   6.922  44.584   0.265
57076W        W25470  23.043  20.041  10.757
57077W        W25471  30.372  22.285  13.463
57078W        W25472  24.466   1.071   3.635
57079W        W25473  10.701  11.836  12.349
57080W        W25474   4.808  25.581   5.391
57081W        W25475  30.458  39.580  13.991
57082W        W25476  33.002  11.778  14.770
57083W        W25477  34.516  17.858   1.802
57084W        W25478  30.170   8.473  11.876
57085W        W25479   5.083  15.795   4.972
57086W        W25480  32.968  23.666  14.703
57087W        W25481  15.714  30.918   2.314
57088W        W25482   0.760  42.087  11.936
57089W        W25483  26.646  31.001   4.530
57090W        W25484  10.740  13.711   1.075
57091W        W25485  17.239  17.501  13.868
57092W        W25486  44.628   9.292  11.122
57093W        W25487  38.878  41.102  11.184
57094W        W25488  12.037  11.838  14.722
57095W        W25489  18.122   7.761   4.641
57096W        W25490  41.497  36.062   2.782
57097W        W25491   2.475   9.586   4.312
57098W        W25492  17.750  32.566   0.973
57099W        W25493  17.193  17.506   3.637
57100W        W25494  44.625  20.320   4.090
57101W        W25495  29.744   9.812  14.478
57102W        W25496   9.226   6.724   1.283
57103W        W25497  39.608   4.208   0.365
57104W        W25498  18.521   6.468  13.559
57105W        W25499  42.575  15.312   0.565
57106W        W25500  35.030   6.244   2.237
57107W        W25501   2.745  22.257   0.844
57108W        W25502  36.912  10.659   1.200
57109W        W25503  28.456  28.561  12.437
57110W        W25504  17.489  15.317   2.620
57111W        W25505  44.993  29.892  11.649
57112W        W25506  21.219  25.717   3.623
57113W        W25507  43.042  29.651  13.381
57114W        W25508  38.850   4.377   0.308
57115W        W25509  17.205   7.417  10.324
57116W        W25510  43.834  12.396   0.760
57117W        W25511  25.505  36.799  12.394
57118W        W25512  15.596  29.366  11.430
57119W        W25513  26.960   8.717  11.105
57120W        W25514   2.541  22.461  14.431
57121W        W25515  13.681  35.825  11.639
57122W        W25516  22.815  43.912  10.555
57123W        W25517  36.085  26.999   1.479
57124W        W25518   0.299  21.179   2.889
57125W        W25519  39.294   2.517   2.748
57126W        W25520  42.250   4.583   0.208
57127W        W25521  31.993  42.587   3.770
57128W        W25522  44.914  43.753   4.330
57129W        W25523  19.592  25.608   3.822
57130W        W25524  23.789  20.343   0.431
57131W        W25525  36.691  17.889   3.419
57132W        W25526  27.521  39.097   0.213
57133W        W25527  40.424  20.288  12.260
57134W        W25528  36.024  12.589  11.695
57135W        W25529  38.365  13.392   2.102
57136W        W25530  38.558  23.377   3.165
57137W        W25531   2.417  20.142  12.440
57138W        W25532  41.403  44.440  11.959
57139W        W25533  29.629  27.547   0.942
57140W        W25534  34.400  25.888  14.389
57141W        W25535   0.795  43.230  12.909
57142W        W25536  21.074  38.121   1.835
57143W        W25537   1.067  21.949  12.024
57144W        W25538   1.486  43.050  14.929
57145W        W25539  10.900  41.338  13.902
57146W        W25540   6.396  18.017  13.947
57147W        W25541   1.919  33.846   3.886
57148W        W25542  43.928   0.208  11.165
57149W        W25543  44.266  34.219  11.393
57150W        W25544   3.744  18.124  14.662
57151W        W25545  19.595  29.420  13.061
57152W        W25546  41.428  36.443   2.342
57153W        W25547  36.329  23.421   4.642
57154W        W25548  22.478  40.968  13.940
57155W        W25549  20.633  25.196   1.399
57156W        W25550  16.317  38.929  13.483
57157W        W25551  26.052  23.476  12.848
57158W        W25552  41.797   9.913   2.185
57159W        W25553  20.061  43.607   3.156
57160W        W25554  32.430  41.401   2.039
57161W        W25555  44.779  20.079  11.575
57162W        W25556  39.961  39.698   0.371
57163W        W25557  35.393  25.040   0.317
57164W        W25558  20.718   7.147   3.425
57165W        W25559   7.626   9.156   1.332
57166W        W25560   2.200  20.172  13.008
57167W        W25561   4.811  13.155  13.030
57168W        W25562   3.277  28.409  12.589
57169W        W25563  24.272   3.520  10.231
57170W        W25564  29.705  34.809   2.427
57171W        W25565  18.556  37.636  14.784
57172W        W25566   2.233  15.610   0.658
57173W        W25567  25.812  44.528  14.818
57174W        W25568   9.418  22.591  13.135
57175W        W25569   0.338  16.363  11.180
57176W        W25570  24.536  24.000  14.893
57177W        W25571  12.401  13.321   3.729
57178W        W25572  30.591  28.586  14.133
57179W        W25573  44.747   5.370   0.897
57180W        W25574  23.995   0.334   4.380
57181W        W25575  16.956  35.612  13.390
57182W        W25576  18.841   4.853  13.322
57183W        W25577  44.568  26.516  13.123
57184W        W25578  23.403   5.777  12.129
57185W        W25579  24.650  42.676  11.180
57186W        W25580   1.418  34.037   0.560
57187W        W25581  17.211  35.096  12.106
57188W        W25582  42.831  25.629   2.760
57189W        W25583   5.144  42.490   3.286
57190W        W25584  28.678  42.616  11.907
57191W        W25585  23.955   2.659   3.269
57192W        W25586  41.493  30.048   0.335
57193W        W25587   0.523  37.392   5.356
57194W        W25588  24.109   2.436   2.151
57195W        W25589  26.586  13.611  14.031
57196W        W25590  35.368  38.154   0.681
57197W        W25591  14.286  40.631  11.188
57198W        W25592  42.994  10.735  11.391
57199W        W25593  23.095  36.435   0.927
57200W        W25594  43.999  23.743   3.768
57201W        W25595  42.941  35.104   1.838
57202W        W25596  12.514  25.658  14.053
57203W        W25597  20.979  41.850   2.172
57204W        W25598  14.652   5.228  10.278
57205W        W25599  22.457   4.151   4.726
57206W        W25600  42.802  40.265   4.105
57207W        W25601  35.358   6.743  10.442
57208W        W25602  42.301  20.144  11.958
57209W        W25603   7.891  35.961   2.899
57210W        W25604  43.267   7.614  14.810
57211W        W25605   3.198  17.161   0.205
57212W        W25606  25.585   6.442   0.494
57213W        W25607   7.885  28.170  12.429
57214W        W25608  43.565  26.701   2.798
57215W        W25609  32.956   2.249   3.230
57216W        W25610  10.282  24.519  14.882
57217W        W25611   0.969  44.038   0.042
57218W        W25612  18.623  33.402  12.044
57219W        W25613  21.955   5.912   3.646
57220W        W25614  14.587  31.504   1.033
57221W        W25615  38.111  40.500   4.710
57222W        W25616  33.886   5.523  13.026
57223W        W25617  32.383  44.608  10.704
57224W        W25618  26.661  36.967  12.505
57225W        W25619  31.594   1.497   2.374
57226W        W25620  12.354   7.431  13.884
57227W        W25621  31.653  42.509  12.078
57228W        W25622  19.002   3.899  14.001
57229W        W25623  38.276  43.198  11.607
57230W        W25624  14.153  34.155  10.690
57231W        W25625  15.376  35.940  11.925
57232W        W25626  19.099  20.518  12.601
57233W        W25627  26.637   8.839  14.297
57234W        W25628  39.098   2.718   2.289
57235W        W25629  17.722  33.043  14.744
57236W        W25630  24.835  26.538  13.370
57237W        W25631  24.153  13.828   4.532
57238W        W25632  30.261  26.494  11.640
57239W        W25633  34.846   8.188  13.087
57240W        W25634  39.905  34.860  12.395
57241W        W25635  29.385   6.227   4.092
57242W        W25636  14.767  26.906  11.749
57243W        W25637  36.338  32.653  11.022
57244W        W25638  10.638  16.103   2.007
57245W        W25639  44.748  13.727   2.622
57246W        W25640  35.012  17.875  12.520
57247W        W25641  43.882   5.554   3.259
57248W        W25642  24.768  19.076  14.390
57249W        W25643  12.229  26.104  14.655
57250W        W25644  10.641  36.611   3.807
57251W        W25645   6.716  31.580  11.777
57252W        W25646  18.396  27.467  13.817
57253W        W25647  21.586  23.206   0.743
57254W        W25648   4.636  28.071   3.125
57255W        W25649  18.924  30.444   1.485
57256W        W25650  16.734  13.123   0.833
57257W        W25651  21.317  11.146  14.783
57258W        W25652   1.719   0.963   2.220
57259W        W25653   5.846   9.831  10.639
57260W        W25654  17.037  26.988   9.817
57261W        W25655  19.227   9.081   1.356
57262W        W25656   6.414  44.231   3.882
57263W        W25657  14.883   7.677   1.214
57264W        W25658  44.083  18.289   1.451
57265W        W25659  15.627  39.947   4.374
57266W        W25660  32.045  36.397  13.169
57267W        W25661  37.048  39.923   1.719
57268W        W25662   4.630   9.904   4.629
57269W        W25663  18.095  24.574  13.618
57270W        W25664  36.715   0.940  12.086
57271W        W25665  12.536   6.192  11.446
57272W        W25666   4.842  29.964   1.852
57273W        W25667  35.663  35.131  10.431
57274W        W25668   2.349  39.806   2.326
57275W        W25669  29.895  30.629  13.551
57276W        W25670   8.839  31.983   3.694
57277W        W25671  36.921  43.817   4.460
57278W        W25672  39.591  25.013   0.438
57279W        W25673  25.626  34.380  13.826
57280W        W25674  41.768  14.606  13.495
57281W        W25675  36.446   8.859   1.946
57282W        W25676   0.697  19.629  11.417
57283W        W25677  22.528  43.272  13.255
57284W        W25678  25.386  31.472   2.205
57285W        W25679  36.283  14.257  13.538
57286W        W25680   4.716  35.174   3.741
57287W        W25681  24.698  33.599  12.918
57288W        W25682  41.396   9.675  14.788
57289W        W25683  32.074  38.480   1.694
57290W        W25684   3.917  10.113   0.504
57291W        W25685  40.985  30.886   4.425
57292W        W25686  24.054  25.426  14.476
57293W        W25687   8.343  28.012  14.284
57294W        W25688   0.866  20.417  12.946
57295W        W25689  14.697   1.456  14.894
57296W        W25690  26.763  34.499   4.598
57297W        W25691  25.751  26.430  11.607
57298W        W25692  30.129   1.504  12.937
57299W        W25693  33.377  29.617   1.688
57300W        W25694  22.260   5.237   3.607
57301W        W25695  43.397  26.591   1.431
57302W        W25696  15.744  18.722  11.589
57303W        W25697  41.484  16.308   4.598
57304W        W25698   4.807  40.190  12.085
57305W        W25699  40.854  36.022  13.811
57306W        W25700   0.030  20.157  12.045
57307W        W25701  32.036  12.051   3.185
57308W        W25702  21.977  11.789  10.199
57309W        W25703  42.489  24.851  11.897
57310W        W25704  27.990   3.551  12.466
57311W        W25705  17.751  44.300   1.554
57312W        W25706  42.561  42.991  13.731
57313W        W25707  13.275  37.865  10.590
57314W        W25708   4.625   4.087  12.535
57315W        W25709  29.394  21.970  11.042
57316W        W25710  39.343  21.116  14.738
57317W        W25711   0.410  15.820  12.855
57318W        W25712  35.799   4.724  13.520
57319W        W25713  36.969  26.441   3.886
57320W        W25714  30.651   5.974   4.173
57321W        W25715  19.162   2.235  12.080
57322W        W25716  38.953  16.953   4.196
57323W        W25717   4.867  39.876   0.294
57324W        W25718   8.967  31.885  13.054
57325W        W25719  20.031  41.318  14.823
57326W        W25720  27.441  14.757   1.695
57327W        W25721  32.314  11.811  12.451
57328W        W25722   2.665  41.778   2.340
57329W        W25723   6.063  43.435  10.727
57330W        W25724   2.921  36.417  11.648
57331W        W25725  36.469  31.399  11.577
57332W        W25726   1.800  34.300   3.123
57333W        W25727   3.364   3.223  12.585
57334W        W25728  40.331  16.179   1.656
57335W        W25729  43.423  23.999  11.657
57336W        W25730  42.450  11.417  14.366
57337W        W25731  42.531   3.391   2.337
57338W        W25732  15.525  38.854   4.237
57339W        W25733  36.319  20.192   4.332
57340W        W25734   0.853  37.350  12.994
57341W        W25735  18.928  15.353  13.479
57342W        W25736  16.821  23.756   0.259
57343W        W25737  33.593  22.966   4.749
57344W        W25738  25.528  15.564   4.187
57345W        W25739   9.138  28.969  14.082
57346W        W25740   2.818   9.079   0.794
57347W        W25741  26.687  26.919  11.673
57348W        W25742  29.827  31.560   2.378
57349W        W25743  21.682  37.450  13.450
57350W        W25744   3.302  11.913  10.237
57351W        W25745  14.609  17.476   0.407
57352W        W25746   4.977  38.117   2.708
57353W        W25747  22.791   1.974  14.892
57354W        W25748  43.515   3.976   0.756
57355W        W25749  29.174  23.533  13.376
57356W        W25750  30.550  40.544   1.647
57357W        W25751   6.787  19.631  11.953
57358W        W25752   7.814   0.776  14.750
57359W        W25753  10.279   6.408   4.540
57360W        W25754   2.778  39.401  10.931
57361W        W25755  20.543  17.758   0.421
57362W        W25756  27.942   8.804   5.123
57363W        W25757  31.155   2.757  14.938
57364W        W25758  34.120  15.813   0.891
57365W        W25759  25.335  21.351   1.193
57366W        W25760   7.094  12.293   1.160
57367W        W25761  23.098  29.845  11.976
57368W        W25762  35.548  20.140   3.286
57369W        W25763  42.510   8.186  13.342
57370W        W25764   0.486  11.844  12.913
57371W        W25765  35.728  28.304   4.277
57372W        W25766  13.241   9.284   3.211
57373W        W25767  40.967  12.382   1.448
57374W        W25768  43.735  19.260  13.560
57375W        W25769  32.057  39.560   0.983
57376W        W25770  43.490   0.551  13.882
57377W        W25771  34.517  34.849   0.362
57378W        W25772  36.601  27.069   2.186
57379W        W25773  35.380   2.479   2.373
57380W        W25774  41.036  22.141   1.134
57381W        W25775  37.514  42.079   4.103
57382W        W25776  15.147  23.516  12.580
57383W        W25777  44.968   4.409  11.432
57384W        W25778  26.006  31.481  14.996
57385W        W25779  38.871   1.209  12.466
57386W        W25780  23.252  34.440   1.418
57387W        W25781  35.965   8.715   0.550
57388W        W25782   8.158  37.337   4.534
57389W        W25783  26.029   7.411   4.175
57390W        W25784  33.325   1.068  13.649
57391W        W25785  38.383  35.245  12.790
57392W        W25786  17.093  12.725   5.402
57393W        W25787  18.214  38.584   4.173
57394W        W25788  32.487  40.463   4.172
57395W        W25789  14.217  38.378  11.603
57396W        W25790  12.602  43.840  12.021
57397W        W25791  22.991   6.231   3.797
57398W        W25792   8.164  19.018   2.143
57399W        W25793  16.668  37.764   4.206
57400W        W25794  42.719  16.570  14.271
57401W        W25795  18.464  33.691   3.200
57402W        W25796   9.855   2.285   1.434
57403W        W25797  43.905  34.487   4.618
57404W        W25798   0.256  42.892   4.171
57405W        W25799  11.814  29.125   0.719
57406W        W25800   8.885  16.024  14.197
57407W        W25801   8.386  15.776   0.345
57408W        W25802  22.033  20.096   0.870
57409W        W25803  12.368  36.423   3.949
57410W        W25804  44.815  44.869   3.280
57411W        W25805   6.101   3.388   4.622
57412W        W25806  40.334  39.166   5.079
57413W        W25807  28.042  10.764  10.892
57414W        W25808  35.240  37.289   1.320
57415W        W25809   5.397  30.032   4.190
57416W        W25810  27.334  44.897   2.128
57417W        W25811   8.269   2.481  13.936
57418W        W25812  29.457  24.935  12.032
57419W        W25813  14.309  17.657   3.925
57420W        W25814  35.006  11.851   0.813
57421W        W25815  22.015  32.559   0.160
57422W        W25816  10.290  26.601   2.222
57423W        W25817   2.800  20.788  10.768
57424W        W25818   7.234  36.981   3.339
57425W        W25819  19.752  41.398  14.295
57426W        W25820  23.417  28.179  10.946
57427W        W25821   1.031  11.296   1.827
57428W        W25822  18.501  25.583  12.917
57429W        W25823  12.605  38.067   2.559
57430W        W25824  22.533  41.791   0.769
57431W        W25825  31.876  13.851   4.511
57432W        W25826  34.429  42.841   2.468
57433W        W25827  26.963  15.180  14.919
57434W        W25828  40.834  14.163   0.298
57435W        W25829   6.781  39.812   4.227
57436W        W25830  24.932  18.124  14.101
57437W        W25831   2.701  24.969  10.579
57438W        W25832  44.754  41.453  13.491
57439W        W25833  32.697  12.869   0.198
57440W        W25834   4.892   1.262   1.136
57441W        W25835  27.200  30.011  11.977
57442W        W25836   3.768  15.317   4.045
57443W        W25837  27.422  44.993  14.656
57444W        W25838   8.337  36.923  11.069
57445W        W25839  39.919   1.723  14.419
57446W        W25840  22.232  11.182   2.733
57447W        W25841  32.173  20.702   4.491
57448W        W25842  20.636  13.649   0.468
57449W        W25843  15.633  34.534  10.186
57450W        W25844  23.336  28.681   3.752
57451W        W25845   2.387  12.084  14.731
57452W        W25846  34.733  37.312   1.260
57453W        W25847  39.074  15.769   4.512
57454W        W25848  30.355  31.041  13.095
57455W        W25849  34.538  21.471  12.662
57456W        W25850  16.838  39.449  10.988
57457W        W25851  37.478  30.836   2.388
57458W        W25852  40.073  24.510  13.996
57459W        W25853   3.345  28.575   3.343
57460W        W25854   6.269   6.945   5.271
57461W        W25855  21.267  38.366   2.251
57462W        W25856   0.453  43.262  14.040
57463W        W25857  40.974  30.494   3.719
57464W        W25858  32.983  27.035  11.977
57465W        W25859  11.901  24.062   2.013
57466W        W25860  34.953  37.571  14.536
57467W        W25861  15.749  20.808  14.833
57468W        W25862  12.791  41.141   2.701
57469W        W25863  34.907   9.627   0.296
57470W        W25864  28.664  39.930  14.324
57471W        W25865  15.249  10.932  13.442
57472W        W25866  27.016   7.844  10.792
57473W        W25867  10.642   7.036   1.330
57474W        W25868  15.618  33.059  12.901
57475W        W25869   3.262  15.766   1.300
57476W        W25870  15.454  38.845   2.162
57477W        W25871  25.812  24.297   2.766
57478W        W25872  13.668  19.162  12.966
57479W        W25873  35.986  20.018   0.827
57480W        W25874  23.554  39.790  13.566
57481W        W25875  17.264  18.842   3.404
57482W        W25876  38.857  10.886   0.862
57483W        W25877  19.308   8.274   1.976
57484W        W25878  14.059  39.469   2.364
57485W        W25879  20.766   0.364   1.858
57486W        W25880   6.446  15.009  11.161
57487W        W25881   6.630  41.483  10.437
57488W        W25882   2.296   9.101   0.806
57489W        W25883  30.967  23.729  11.722
57490W        W25884  42.927  41.493  13.523
57491W        W25885  41.229  21.030  14.290
57492W        W25886  22.691  17.305   3.453
57493W        W25887  23.319  25.053  11.895
57494W        W25888  40.477   1.795  13.540
57495W        W25889   8.769  42.556   3.609
57496W        W25890  29.175  10.274  12.935
57497W        W25891  43.376  13.699  12.396
57498W        W25892  31.612  17.772  11.570
57499W        W25893  32.466  28.395  14.987
57500W        W25894  38.419  43.255  12.461
57501W        W25895  17.266  41.377   4.477
57502W        W25896   2.876   8.057  13.745
57503W        W25897  32.940  11.253  14.921
57504W        W25898  11.007  15.100  12.018
57505W        W25899   2.958   5.696  13.372
57506W        W25900  29.947  40.677   2.258
57507W        W25901   8.941   7.970  10.789
57508W        W25902   8.217  31.531   4.235
57509W        W25903  25.477  21.444  14.360
57510W        W25904  13.217   7.467   1.234
57511W        W25905  18.653  15.987   0.053
57512W        W25906  20.542  42.088   1.331
57513W        W25907   2.344  24.991   1.276
57514W        W25908  24.949  30.695   1.182
57515W        W25909  32.422  41.911  12.994
57516W        W25910  27.514  23.169   4.750
57517W        W25911   9.416   0.540  11.435
57518W        W25912  28.172  28.024   4.031
57519W        W25913  14.674  39.584  14.451
57520W        W25914  27.195  40.958  14.477
57521W        W25915   6.773  37.854   0.779
57522W        W25916  23.265  22.454  11.567
57523W        W25917  11.713   0.348   4.513
57524W        W25918  31.970   6.648  11.597
57525W        W25919  20.093  23.749  10.845
57526W        W25920  25.106  19.542   1.930
57527W        W25921  35.002  17.684   4.881
57528W        W25922  27.026  19.379  14.088
57529W        W25923   4.413  37.046  13.105
57530W        W25924  12.107  35.356   0.435
57531W        W25925  17.611   1.745  10.691
57532W        W25926  25.168   7.388   2.319
57533W        W25927  27.224  15.224   0.918
57534W        W25928   5.936  12.680   4.567
57535W        W25929  28.967   0.909  11.529
57536W        W25930  44.685  26.975  14.318
57537W        W25931  16.659  10.354  14.690
57538W        W25932  31.555  18.048  14.920
57539W        W25933  40.114  21.679   1.236
57540W        W25934  29.558   4.609   3.327
57541W        W25935  25.154   2.317  11.208
57542W        W25936  17.695  22.245  11.236
57543W        W25937  40.055  14.145  14.931
57544W        W25938   5.222  13.727   2.640
57545W        W25939   5.398  10.870   0.467
57546W        W25940  37.357  40.626  12.250
57547W        W25941  39.777  30.485  14.521
57548W        W25942  20.781   6.023  10.284
57549W        W25943  10.268   4.264   0.514
57550W        W25944   8.106   4.992   0.677
57551W        W25945  41.427  32.718   1.817
57552W        W25946  27.641  27.985   4.071
57553W        W25947  35.831  40.437  14.441
57554W        W25948  36.184  30.007  14.416
57555W        W25949  15.184  13.150  12.937
57556W        W25950  21.694  27.657  14.961
57557W        W25951  11.722  37.335   3.694
57558W        W25952  16.332  42.453   2.571
57559W        W25953  29.852  26.205  14.971
57560W        W25954  18.822  44.341   2.596
57561W        W25955  25.661  31.216   0.262
57562W        W25956  20.751   9.740   3.325
57563W        W25957  30.702  38.477   4.577
57564W        W25958   2.918   2.393   2.314
57565W        W25959  13.738  39.341  14.527
57566W        W25960   7.444  43.986   2.342
57567W        W25961  33.125  15.139  12.032
57568W        W25962  41.386  20.073   4.989
57569W        W25963  25.508  11.132  14.237
57570W        W25964  29.931  14.937   0.831
57571W        W25965  19.588  41.812   1.248
57572W        W25966  12.718  35.117   2.863
57573W        W25967  25.067  13.721  12.145
57574W        W25968  37.050  41.109  14.341
57575W        W25969   3.394  33.026  11.678
57576W        W25970  39.380  35.406   1.881
57577W        W25971  16.211  16.298   2.025
57578W        W25972   4.388   7.804   3.451
57579W        W25973   8.701  28.155   4.749
57580W        W25974  21.691  32.252  11.480
57581W        W25975  44.918  40.057  11.640
57582W        W25976  10.658  20.784   1.122
57583W        W25977  26.442  17.804   3.727
57584W        W25978   9.987   0.600  11.048
57585W        W25979   5.102  11.687  11.145
57586W        W25980  20.071  22.749  12.368
57587W        W25981  14.222  16.295   3.139
57588W        W25982   5.537  31.792   4.298
57589W        W25983  40.514  36.662  13.063
57590W        W25984  41.503   0.802   0.319
57591W        W25985  15.038  37.505   2.255
57592W        W25986  20.735  24.222   4.612
57593W        W25987  31.913  37.344   0.315
57594W        W25988   9.323  27.108   4.097
57595W        W25989  37.916  21.532  13.156
57596W        W25990  36.167  32.635  14.728
57597W        W25991  38.519  13.047  14.764
57598W        W25992   1.320  13.660  11.181
57599W        W25993   6.156  20.935   2.350
57600W        W25994  22.866   1.214  10.177
57601W        W25995  32.098  43.359   1.251
57602W        W25996  42.898   9.049   4.745
57603W        W25997  29.777  40.138   4.172
57604W        W25998  35.305   5.369  11.050
57605W        W25999  41.721  26.554  13.426
57606W        W26000   4.644   1.253  10.304
57607W        W26001  34.454   3.956  11.978
57608W        W26002  39.604  41.015  14.316
57609W        W26003   0.748  35.282   2.932
57610W        W26004  27.695  16.747   1.019
57611W        W26005  39.846  24.793  14.373
57612W        W26006  26.192   9.098  13.477
57613W        W26007  43.343  30.222   3.751
57614W        W26008  38.698  33.926  13.639
57615W        W26009  40.498  38.586  10.767
57616W        W26010  18.437  25.524   0.829
57617W        W26011   1.681  20.009   2.753
57618W        W26012  25.112  19.700   3.879
57619W        W26013  35.413  19.218  12.367
57620W        W26014  28.362  30.215  11.115
57621W        W26015  32.089  27.224   4.581
57622W        W26016  13.087  35.538  12.158
57623W        W26017  44.280  10.135   2.836
57624W        W26018  12.752   6.286   1.798
57625W        W26019  20.338  21.112  14.809
57626W        W26020  25.738   8.366   2.884
57627W        W26021   5.984  13.696   2.391
57628W        W26022  39.955  24.144   1.296
57629W        W26023  26.242  15.131  11.883
57630W        W26024  17.772  28.536  12.068
57631W        W26025  10.672  10.152   2.683
57632W        W26026  35.124  25.562   2.400
57633W        W26027  22.032  31.479   0.614
57634W        W26028  18.104   6.974  11.517
57635W        W26029  32.630  14.375   2.176
57636W        W26030  39.510  33.867  10.621
57637W        W26031  14.082  15.365  13.440
57638W        W26032   8.705   9.885  12.608
57639W        W26033  41.759  27.728  11.521
57640W        W26034  44.465  30.546  14.864
57641W        W26035  16.550  43.118   4.176
57642W        W26036   9.385  33.661  13.332
57643W        W26037  35.312  30.524   3.141
57644W        W26038  25.968   7.283  12.795
57645W        W26039  19.015  18.080  13.865
57646W        W26040  38.224  37.386   4.999
57647W        W26041  36.778  18.085  14.219
57648W        W26042  17.565  44.764   1.256
57649W        W26043  23.940   8.713   1.737
57650W        W26044  22.278   9.129   3.971
57651W        W26045  43.812   8.828  12.104
57652W        W26046  32.118  44.749   2.883
57653W        W26047   4.861   4.288  14.936
57654W        W26048  11.415  27.544  11.176
57655W        W26049  23.295  12.218  12.352
57656W        W26050  44.891  28.242  13.935
57657W        W26051  43.478   5.381  14.413
57658W        W26052  12.383   9.906  12.948
57659W        W26053  31.065   7.386   4.629
57660W        W26054  26.656  37.581  12.012
57661W        W26055  24.037  21.822   1.214
57662W        W26056  13.641   0.942   3.432
57663W        W26057  10.264  11.122  14.571
57664W        W26058   8.747  13.439   2.711
57665W        W26059  18.789   2.926  11.003
57666W        W26060  18.805  26.428   1.857
57667W        W26061  19.169  25.167  12.644
57668W        W26062  19.504  39.303  11.629
57669W        W26063  27.033   4.534   0.479
57670W        W26064  27.040  28.385  13.956
57671W        W26065   8.879   5.254   4.250
57672W        W26066  26.832  10.730  13.072
57673W        W26067  17.698  18.550  12.114
57674W        W26068  34.648   6.770   4.357
57675W        W26069   5.960   4.513   1.462
57676W        W26070  13.182  14.300  14.514
57677W        W26071  10.805  40.968  12.583
57678W        W26072  30.439   5.700   3.769
57679W        W26073  44.527  28.842  14.510
57680W        W26074  44.060  30.256   0.557
57681W        W26075  32.545  18.134   2.639
57682W        W26076  35.949  11.707   0.214
57683W        W26077  31.551  39.597   1.701
57684W        W26078  27.455  42.013  14.423
57685W        W26079  15.461   7.682  12.581
57686W        W26080  11.890  39.682   1.045
57687W        W26081   7.214  23.590  12.195
57688W        W26082  20.128  22.069   0.921
57689W        W26083  20.659  42.310   0.858
57690W        W26084  39.281  33.199  13.491
57691W        W26085  18.104   5.462  10.951
57692W        W26086  27.748  22.160  12.522
57693W        W26087  15.277  34.386   2.138
57694W        W26088  41.717  36.602   3.364
57695W        W26089  16.086  37.426  10.300
57696W        W26090  42.942  30.864  13.806
57697W        W26091  28.222  21.667  11.589
57698W        W26092   4.248  27.869   1.357
57699W        W26093  36.151  33.396   3.625
57700W        W26094  25.144  28.722  13.999
57701W        W26095  17.392  36.945   5.381
57702W        W26096  10.460  44.037   4.272
57703W        W26097  43.799   1.328   4.581
57704W        W26098  41.852  36.433   2.658
57705W        W26099  28.175  32.488  14.639
57706W        W26100  32.501  25.495  11.577
57707W        W26101  22.561  17.323  14.809
57708W        W26102  24.016  30.543   3.675
57709W        W26103  37.736  15.274  13.952
57710W        W26104   1.283  20.278   4.588
57711W        W26105  32.845  40.542   0.935
57712W        W26106  42.746   9.297  14.943
57713W        W26107  26.099  33.700   1.212
57714W        W26108  43.573  36.205   0.261
57715W        W26109  36.903   1.994  14.958
57716W        W26110  15.568   6.404   2.358
57717W        W26111  37.900  27.129  13.598
57718W        W26112  30.708   4.196   3.788
57719W        W26113   4.637  32.985  11.932
57720W        W26114   4.314  21.242  13.887
57721W        W26115  14.419  16.867  12.661
57722W        W26116  20.714  15.187   4.221
57723W        W26117  16.281  12.919   2.333
57724W        W26118   5.825  41.936  11.532
57725W        W26119  40.219  29.402  10.708
57726W        W26120  31.340  26.230   0.194
57727W        W26121  25.008   2.274  14.098
57728W        W26122  44.767  20.247  12.492
57729W        W26123  37.537  30.885   0.520
57730W        W26124  10.853  43.096  11.385
57731W        W26125  20.317  42.356   1.721
57732W        W26126  23.726  18.406   1.909
57733W        W26127  26.313  10.610  14.591
57734W        W26128   8.408  23.079  13.416
57735W        W26129   6.420  33.340  10.719
57736W        W26130  10.200   3.020  10.678
57737W        W26131  18.442  32.991  12.259
57738W        W26132  16.730   5.258  12.113
57739W        W26133   8.328  42.126   4.439
57740W        W26134  12.892   9.718  10.317
57741W        W26135   2.365  40.809   1.531
57742W        W26136  25.982  43.284   3.075
57743W        W26137   8.821   1.850  10.348
57744W        W26138  43.018  43.261  11.143
57745W        W26139  30.930  44.529   1.805
57746W        W26140  16.315  23.666   0.356
57747W        W26141  37.980  15.091  12.160
57748W        W26142  22.422  35.860  12.946
57749W        W26143  30.160  23.742  12.049
57750W        W26144  34.978  37.529   4.899
57751W        W26145  39.907  38.378  11.476
57752W        W26146  21.449  19.858   4.329
57753W        W26147   8.373  38.599  12.920
57754W        W26148  11.216  31.894   3.305
57755W        W26149  18.683  22.476   1.352
57756W        W26150  14.192  39.768  10.556
57757W        W26151   4.185  39.126   1.140
57758W        W26152  43.659   6.779  14.377
57759W        W26153  44.308  23.305   1.760
57760W        W26154  42.432  41.368   0.736
57761W        W26155   3.547  31.457  12.794
57762W        W26156  21.456  24.849  10.285
57763W        W26157  15.577  42.977   3.189
57764W        W26158  22.818  24.893  11.983
57765W        W26159  19.462  18.336   0.628
57766W        W26160  32.882  42.494  11.550
57767W        W26161   1.802  28.727   0.426
57768W        W26162   4.152   4.784   2.700
57769W        W26163   6.769  41.107  13.072
57770W        W26164  25.156  30.690  12.930
57771W        W26165  42.376  22.202  12.916
57772W        W26166  16.794  29.388   4.722
57773W        W26167   4.693  13.617   1.800
57774W        W26168  44.032  41.448  12.141
57775W        W26169  36.402  14.080   3.234
57776W        W26170   2.110   3.408   2.745
57777W        W26171  38.105  32.704  13.355
57778W        W26172  24.662  19.971   1.137
57779W        W26173   9.758  25.108   1.735
57780W        W26174  18.678  37.565  12.881
57781W        W26175   2.842  28.994   4.641
57782W        W26176   9.719   1.256   0.078
57783W        W26177  20.135  29.242  12.006
57784W        W26178  38.470  44.054  12.951
57785W        W26179  26.493  17.705   2.140
57786W        W26180  22.157  11.265  13.875
57787W        W26181  44.550  14.764   4.717
57788W        W26182  30.062   3.773   2.634
57789W        W26183  12.175  25.580   3.649
57790W        W26184   9.838  26.492   1.295
57791W        W26185   5.394   4.816   1.848
57792W        W26186  18.695  23.356  14.280
57793W        W26187   4.507  43.606   0.013
57794W        W26188  13.565  31.744   4.236
57795W        W26189  36.402  16.785   0.197
57796W        W26190   5.640  44.554   0.274
57797W        W26191  14.921  44.452   3.810
57798W        W26192  44.390  30.372   1.856
57799W        W26193  33.582  27.159  11.087
57800W        W26194  38.905  12.185   1.266
57801W        W26195  17.753  24.691   4.847
57802W        W26196  14.807   5.902   2.427
57803W        W26197  16.806  37.308  13.800
57804W        W26198  29.226   4.198  12.508
57805W        W26199  16.894   0.217   2.764
57806W        W26200  35.462  16.802  13.910
57807W        W26201   8.722   6.082  12.791
57808W        W26202  11.460  16.339   4.094
57809W        W26203   8.291  21.828   2.637
57810W        W26204  19.459  14.530  14.466
57811W        W26205   2.988   0.262  10.780
57812W        W26206  11.604  14.347   4.556
57813W        W26207  32.802  17.518  14.851
57814W        W26208  40.914  34.575  12.681
57815W        W26209  22.800   6.197  13.873
57816W        W26210  37.812  38.958   1.315
57817W        W26211  19.664   5.622   1.360
57818W        W26212  25.601  32.123   1.184
57819W        W26213  21.940  34.115   1.450
57820W        W26214  36.983   3.515  13.927
57821W        W26215  32.238  27.729  14.535
57822W        W26216  17.418  31.845   2.950
57823W        W26217  26.449  14.793   2.451
57824W        W26218   6.863   0.438   0.489
57825W        W26219   0.155  14.941  11.457
57826W        W26220   3.623  33.596  11.681
57827W        W26221  10.414  19.192   0.652
57828W        W26222   4.905  19.007  12.175
57829W        W26223  24.141  15.325   2.758
57830W        W26224  11.739   8.043   3.158
57831W        W26225   7.158  26.333   9.590
57832W        W26226  39.135  32.741   2.250
57833W        W26227   6.392  19.835   1.905
57834W        W26228  42.473  39.847   4.207
57835W        W26229  43.763   1.937  10.423
57836W        W26230  40.053  42.829   2.368
57837W        W26231  13.786  21.516   1.226
57838W        W26232  12.893  17.028   1.816
57839W        W26233  14.064  33.640  12.950
57840W        W26234   7.722  39.467  13.426
57841W        W26235  44.989  35.650  12.021
57842W        W26236  20.608   1.379   4.559
57843W        W26237   0.583   4.346  13.360
57844W        W26238  19.394  14.496  13.481
57845W        W26239  17.256  24.786   3.220
57846W        W26240  17.307  21.492   1.836
57847W        W26241  36.800  35.155   0.010
57848W        W26242  29.910   2.670   4.225
57849W        W26243  43.372  27.686   4.623
57850W        W26244  28.423   4.204  13.528
57851W        W26245  15.892  17.146   4.232
57852W        W26246  34.914   8.796   4.174
57853W        W26247   5.955  28.403  14.437
57854W        W26248  41.974   7.160   3.696
57855W        W26249  26.521  35.629  10.794
57856W        W26250  44.090   6.033   3.351
57857W        W26251  20.734  11.641   1.244
57858W        W26252  43.054  19.036  12.359
57859W        W26253  31.504   0.989  13.978
57860W        W26254  42.651  40.257  10.562
57861W        W26255  10.830  41.813  13.739
57862W        W26256  30.668  38.336   1.302
57863W        W26257  13.918  38.949  13.771
57864W        W26258  40.336  11.365   1.892
57865W        W26259  39.338  21.311  11.724
57866W        W26260  32.203  26.291  12.926
57867W        W26261  32.143  40.968   1.928
57868W        W26262   0.792  37.395  12.073
57869W        W26263  32.802  21.809  13.402
57870W        W26264  14.717  20.620   4.061
57871W        W26265  29.443   9.274   4.019
57872W        W26266  39.790   4.952  14.389
57873W        W26267  20.728  42.198  11.948
57874W        W26268   0.313   8.261  14.312
57875W        W26269  14.539  17.042   1.232
57876W        W26270   3.973   9.909   0.973
57877W        W26271  31.480  22.610  14.561
57878W        W26272  28.252   3.006  12.549
57879W        W26273  15.452   0.467   1.670
57880W        W26274  14.104   7.195   2.806
57881W        W26275  16.233  22.453  13.245
57882W        W26276   5.220  21.005  11.702
57883W        W26277  17.818   0.748   3.921
57884W        W26278  39.397   8.370   4.916
57885W        W26279   4.513   1.486  14.742
57886W        W26280  36.294   2.807   0.745
57887W        W26281  35.739  22.788  11.648
57888W        W26282  18.066  27.670   0.254
57889W        W26283  32.166  16.649   3.255
57890W        W26284  14.881  25.490  11.595
57891W        W26285  39.343  11.893  14.329
57892W        W26286  29.633  26.166  14.338
57893W        W26287   6.637  12.592   0.982
57894W        W26288  38.857   1.008  12.981
57895W        W26289  11.020  32.043  14.959
57896W        W26290  20.872  11.241   2.348
57897W        W26291   4.930   8.894   2.876
57898W        W26292  23.198  24.562  12.137
57899W        W26293  36.809  36.992   0.408
57900W        W26294  13.077  26.634   2.358
57901W        W26295   2.348  10.790   2.834
57902W        W26296  16.313  26.087   4.671
57903W        W26297  30.655   7.957   1.833
57904W        W26298  32.881  21.582  10.552
57905W        W26299  34.894   3.569   5.149
57906W        W26300  34.483  32.325   4.855
57907W        W26301  43.534  44.368  13.030
57908W        W26302  39.334  41.329  14.611
57909W        W26303  14.307  44.311   0.434
57910W        W26304  33.094  19.963  12.018
57911W        W26305  27.915  27.714   1.249
57912W        W26306  35.053   6.389   3.246
57913W        W26307  42.468  29.424   3.560
57914W        W26308  14.219  43.899   0.742
57915W        W26309  17.051  31.408   0.420
57916W        W26310  26.543   7.250  12.948
57917W        W26311  41.552  11.304  11.117
57918W        W26312  19.665  21.942   2.731
57919W        W26313  32.147   3.729   4.039
57920W        W26314   0.812   8.418  14.291
57921W        W26315  21.990  44.859  10.541
57922W        W26316  36.495  30.222  14.771
57923W        W26317   0.431  31.087  12.388
57924W        W26318   8.718   3.329   2.903
57925W        W26319  32.026  21.059   0.780
57926W        W26320  24.687   7.897   1.802
57927W        W26321  24.592  37.634  13.066
57928W        W26322  33.533  40.903  11.962
57929W        W26323  20.771  16.268   3.234
57930W        W26324  33.924   6.228   2.664
57931W        W26325  24.123   7.279   3.801
57932W        W26326  40.866  38.926   3.736
57933W        W26327   7.148  10.207  12.023
57934W        W26328   7.768  14.375   0.447
57935W        W26329  12.314  21.713   3.076
57936W        W26330  11.771  15.739  14.827
57937W        W26331  38.456  12.784   0.216
57938W        W26332  18.720  28.925  11.681
57939W        W26333  39.795   2.037   1.985
57940W        W26334   4.732  34.713   2.639
57941W        W26335   2.094  14.038   0.776
57942W        W26336   4.732  19.163   2.359
57943W        W26337  10.421  27.592   2.358
57944W        W26338   2.804  13.298   1.785
57945W        W26339   8.186  13.819   3.221
57946W        W26340  40.780  34.861  11.368
57947W        W26341  18.457  12.600   4.640
57948W        W26342  31.024  11.608   4.602
57949W        W26343   5.593  21.341  13.462
57950W        W26344   5.191   3.907  14.761
57951W        W26345  37.124   2.995   1.296
57952W        W26346   1.322  34.812  12.057
57953W        W26347   1.474  44.888   1.187
57954W        W26348  32.479   0.203  14.951
57955W        W26349  28.642   5.884  12.924
57956W        W26350  31.229  10.759  12.522
57957W        W26351  38.499  40.789  14.273
57958W        W26352  20.453  23.563  11.179
57959W        W26353  39.873   1.900   2.900
57960W        W26354  15.756  19.704   2.757
57961W        W26355  14.402  11.220   1.196
57962W        W26356   6.926  37.980   4.195
57963W        W26357   6.826  19.506  11.153
57964W        W26358  25.117  34.910   2.682
57965W        W26359  29.943  27.140  13.940
57966W        W26360   3.416  31.277   4.107
57967W        W26361  34.465  35.389   4.690
57968W        W26362  24.241   1.622  13.956
57969W        W26363  26.219   7.228  11.123
57970W        W26364   8.261   0.088   3.202
57971W        W26365  24.708  13.329   0.307
57972W        W26366   4.664   4.178  13.071
57973W        W26367  35.880  24.732   4.168
57974W        W26368  23.485  20.296   1.825
57975W        W26369  22.166  27.947  14.342
57976W        W26370  26.215  31.586  12.562
57977W        W26371  16.573   0.318  12.343
57978W        W26372  44.999   6.120   1.475
57979W        W26373  15.204   3.660  10.512
57980W        W26374  39.795   6.904   0.240
57981W        W26375   1.636   1.430  13.393
57982W        W26376  30.231  10.671   2.787
57983W        W26377  25.196  20.013  12.020
57984W        W26378   9.659   7.185   4.050
57985W        W26379  22.765   1.235   3.386
57986W        W26380   0.065  30.113   0.734
57987W        W26381  37.572  14.430   4.191
57988W        W26382   2.957  17.739   2.174
57989W        W26383  15.422  24.542   0.218
57990W        W26384   5.661  35.609   3.860
57991W        W26385  10.969  22.000  14.293
57992W        W26386   2.848  14.632   0.888
57993W        W26387  16.318   6.244   4.202
57994W        W26388  17.525   5.667  14.026
57995W        W26389  15.236  10.213  11.646
57996W        W26390  19.766  27.125   2.215
57997W        W26391  16.126  30.395   1.782
57998W        W26392  12.276  20.623  11.438
57999W        W26393  29.301   6.819  11.492
58000W        W26394  24.816  12.770  14.307
58001W        W26395  10.719  26.159   4.062
58002W        W26396  40.876  41.808   3.239
58003W        W26397  18.866  14.293  11.823
58004W        W26398  19.235  24.435  13.908
58005W        W26399  23.895   7.768   0.300
58006W        W26400   1.460  14.193   2.169
58007W        W26401  36.538  25.908  12.007
58008W        W26402   6.186  32.620  12.539
58009W        W26403  13.702  23.132  11.602
58010W        W26404  19.871  18.084  14.717
58011W        W26405  28.713  23.085  11.682
58012W        W26406  18.529  18.618   0.207
58013W        W26407  23.630  30.698   4.664
58014W        W26408  37.500  12.821   1.861
58015W        W26409  25.449   0.114  12.500
58016W        W26410  24.260   3.316   2.777
58017W        W26411  31.536  12.140   3.050
58018W        W26412  24.663   9.601   5.275
58019W        W26413  25.680  23.580   1.489
58020W        W26414   1.982  10.243   0.442
58021W        W26415   8.729  41.771   2.298
58022W        W26416  22.212  10.602   0.337
58023W        W26417  37.343  38.048  10.029
58024W        W26418  44.421  22.190   3.168
58025W        W26419   8.930   8.802  10.495
58026W        W26420  42.094  23.758  13.472
58027W        W26421   6.881   9.244   3.376
58028W        W26422  32.384   1.174   3.825
58029W        W26423  40.474  30.520   4.589
58030W        W26424  41.532  10.074  11.609
58031W        W26425  24.442  17.169   1.459
58032W        W26426   2.546  26.450  12.962
58033W        W26427   5.772  18.761  14.135
58034W        W26428  34.153  32.463   2.048
58035W        W26429  30.021  35.536   3.677
58036W        W26430  37.031   8.421   3.236
58037W        W26431  36.482  36.078   2.424
58038W        W26432   1.841  22.530   3.813
58039W        W26433  19.490   6.212   3.807
58040W        W26434   8.175  13.676   1.040
58041W        W26435  16.250  21.653  11.488
58042W        W26436  37.334  17.582  10.576
58043W        W26437  30.210  26.989  10.734
58044W        W26438  15.789  11.343  13.732
58045W        W26439   3.920   2.702  11.854
58046W        W26440  28.559  25.986   3.173
58047W        W26441  13.703  37.587   1.159
58048W        W26442   1.809   8.577   1.912
58049W        W26443  32.922  43.286  10.598
58050W        W26444   4.427  37.181   2.214
58051W        W26445  44.519   5.138   2.761
58052W        W26446  34.087  21.817   0.594
58053W        W26447   3.219  20.946   5.183
58054W        W26448   3.298   5.494   4.651
58055W        W26449  32.677   4.662  11.548
58056W        W26450  37.918  13.176   3.935
58057W        W26451  16.801  33.871   3.737
58058W        W26452  24.953  39.556  10.617
58059W        W26453  35.066  28.327   3.639
58060W        W26454  30.609   6.378   4.516
58061W        W26455   6.815   6.562   5.256
58062W        W26456  25.425  35.850  14.818
58063W        W26457  24.731  36.846  11.218
58064W        W26458  25.630  39.617   2.213
58065W        W26459  44.430  13.825   0.536
58066W        W26460  15.840  29.110   0.937
58067W        W26461  14.787   4.927  10.744
58068W        W26462  32.567  36.940  14.229
58069W        W26463   9.177  19.153   0.446
58070W        W26464  17.737  24.766   3.629
58071W        W26465  26.450   2.128  14.801
58072W        W26466  17.302  40.038  12.002
58073W        W26467  42.679   6.872  13.468
58074W        W26468   7.763  16.990  14.950
58075W        W26469  39.071  16.192   0.370
58076W        W26470  18.317   2.334  13.025
58077W        W26471  17.215  22.219   0.540
58078W        W26472  14.643  40.995   2.113
58079W        W26473   1.870  28.921  12.430
58080W        W26474  16.099  25.109   0.461
58081W        W26475  25.520  37.457  13.546
58082W        W26476  31.894  11.769   4.085
58083W        W26477  25.635   2.891  10.805
58084W        W26478  30.563  20.209  13.227
58085W        W26479  35.422   6.269   1.276
58086W        W26480   1.166  21.634  13.453
58087W        W26481   7.898   0.071   1.386
58088W        W26482  12.318  23.202  14.113
58089W        W26483  25.587   7.906  11.572
58090W        W26484  14.097   9.189  10.714
58091W        W26485  29.322  39.871   1.743
58092W        W26486  19.204  21.795  11.486
58093W        W26487  24.774  15.149  12.046
58094W        W26488  25.281  32.425   0.898
58095W        W26489  14.573   4.954  11.533
58096W        W26490  26.918   6.089  13.038
58097W        W26491   5.317  32.593  14.062
58098W        W26492  33.460   0.506   1.505
58099W        W26493  18.002   3.773   2.338
58100W        W26494   6.117  43.008   4.426
58101W        W26495  29.658  10.706   0.186
58102W        W26496   0.318  25.470   4.625
58103W        W26497  24.291  29.505   4.715
58104W        W26498  15.367  32.108   0.272
58105W        W26499  22.249  34.902   2.255
58106W        W26500  13.596  18.569  12.077
58107W        W26501  22.880  28.956   4.156
58108W        W26502  37.006  13.121  13.913
58109W        W26503  40.912   5.809   3.425
58110W        W26504  33.377   7.576  13.258
58111W        W26505  41.083   4.052   3.780
58112W        W26506   0.873  13.613   4.562
58113W        W26507  42.883   6.114  14.038
58114W        W26508  36.798  21.501   4.335
58115W        W26509  20.976  15.897   4.546
58116W        W26510   1.018   1.898  13.821
58117W        W26511  16.679  33.209  11.763
58118W        W26512  21.480  38.896  13.948
58119W        W26513  28.472  37.088   0.822
58120W        W26514   8.023   5.669   2.270
58121W        W26515   6.287  21.265   4.518
58122W        W26516  37.764  20.077  11.599
58123W        W26517  29.479  35.859  13.355
58124W        W26518  22.013  15.886  11.579
58125W        W26519   1.084  36.563   4.133
58126W        W26520  24.273  40.947  13.096
58127W        W26521  23.494   4.301  13.418
58128W        W26522  14.343   5.274   4.927
58129W        W26523  11.742   4.522  11.642
58130W        W26524  25.443  32.301  14.401
58131W        W26525  32.466   2.887  14.097
58132W        W26526  37.379  31.921   1.463
58133W        W26527  14.049  25.780   4.681
58134W        W26528   8.487   1.046  13.748
58135W        W26529  40.354  25.664   2.394
58136W        W26530  22.544  26.580   2.507
58137W        W26531  18.287  42.423  14.391
58138W        W26532  27.965  37.373   0.153
58139W        W26533  26.511   0.711   0.979
58140W        W26534  29.626  19.995   3.546
58141W        W26535  15.092  26.246   0.743
58142W        W26536   2.908  36.487   4.816
58143W        W26537  39.702   0.319  11.485
58144W        W26538  34.519   7.172  10.701
58145W        W26539  44.790  34.563   4.137
58146W        W26540  17.687  42.278   0.764
58147W        W26541  44.806  10.137  14.948
58148W        W26542  18.448  10.209   4.930
58149W        W26543  44.918   6.585   3.161
58150W        W26544  19.828  30.124   2.325
58151W        W26545  27.939  30.421  10.411
58152W        W26546   0.941  10.115   1.941
58153W        W26547   7.861   2.862   1.214
58154W        W26548  36.373  21.298   2.752
58155W        W26549   1.278  34.463   4.610
58156W        W26550  43.108  27.020   1.293
58157W        W26551  24.049  22.024  13.474
58158W        W26552  37.920  12.654  10.919
58159W        W26553   9.378  24.281  13.868
58160W        W26554  32.325  24.561  11.209
58161W        W26555  40.531  16.196  13.554
58162W        W26556  13.727  25.052   3.934
58163W        W26557   7.609  12.978  14.793
58164W        W26558  41.071  38.300   4.571
58165W        W26559   4.849  41.006   0.901
58166W        W26560  18.735  32.982   0.872
58167W        W26561  35.900  34.843  11.750
58168W        W26562  33.357  27.225  10.627
58169W        W26563  33.515  34.803  11.253
58170W        W26564   3.913  31.980   0.575
58171W        W26565  38.793  35.296  11.174
58172W        W26566  43.998  43.309   2.798
58173W        W26567  30.052  13.244   3.185
58174W        W26568  14.216  44.812  12.415
58175W        W26569   9.770  10.503  13.094
58176W        W26570  12.672  38.565  14.955
58177W        W26571  27.132  30.158   2.677
58178W        W26572  18.044  11.757  10.782
58179W        W26573   3.731  19.885   4.623
58180W        W26574   7.303   4.744  14.865
58181W        W26575   8.896  15.740  11.274
58182W        W26576  26.541  11.741   1.421
58183W        W26577  40.360  42.520   3.328
58184W        W26578   6.623  25.035  11.585
58185W        W26579  44.759   2.704  11.587
58186W        W26580  18.524  14.390  12.186
58187W        W26581  38.546   3.277  13.712
58188W        W26582  37.791   8.449   0.843
58189W        W26583  23.526   8.385   2.270
58190W        W26584  36.382  44.049   0.942
58191W        W26585   8.827   6.877   1.675
58192W        W26586  19.385  42.038   3.211
58193W        W26587  38.060   7.225   3.384
58194W        W26588   6.708   8.376  13.278
58195W        W26589   3.073  31.689   1.975
58196W        W26590   5.269  38.566   0.033
58197W        W26591   2.437   3.967  12.831
58198W        W26592  19.549  36.822  14.463
58199W        W26593  24.519   1.474   2.697
58200W        W26594  38.364  20.723   3.863
58201W        W26595   2.896  16.208   3.287
58202W        W26596   2.249  39.565  12.596
58203W        W26597  36.209  17.198   0.882
58204W        W26598  15.035   7.491   0.734
58205W        W26599   1.390  31.441  12.088
58206W        W26600   2.348  36.970  12.051
58207W        W26601  23.366  37.535   1.766
58208W        W26602  27.509  37.436  14.467
58209W        W26603  43.385  28.905  13.992
58210W        W26604   2.857   8.795  14.806
58211W        W26605   6.526  16.356   4.602
58212W        W26606  28.891  14.691   5.040
58213W        W26607  37.042  27.022   2.459
58214W        W26608  26.651  14.367  10.596
58215W        W26609  14.251   0.364  12.770
58216W        W26610  21.624  17.560   4.196
58217W        W26611   7.928  15.302   4.218
58218W        W26612  22.678  34.984  13.929
58219W        W26613  33.658  16.014  11.857
58220W        W26614   7.874  27.735   2.652
58221W        W26615  35.637  40.491   4.153
58222W        W26616  14.556  43.324  12.968
58223W        W26617  23.017  35.390   2.444
58224W        W26618  41.020  16.034  11.528
58225W        W26619  22.571  40.472  13.065
58226W        W26620  10.435  17.742  12.008
58227W        W26621   3.397  22.471   0.876
58228W        W26622  16.186  28.847   4.520
58229W        W26623  40.610   5.005  10.718
58230W        W26624  37.447   6.899   4.869
58231W        W26625  40.865  36.892  10.929
58232W        W26626  13.680  42.919  13.453
58233W        W26627   3.845  15.003  14.229
58234W        W26628  44.882  25.682   1.922
58235W        W26629  25.844  29.877   3.081
58236W        W26630  44.218  44.323   4.929
58237W        W26631  35.183  34.277  14.803
58238W        W26632   2.651  17.244   4.334
58239W        W26633  44.311  40.443   4.533
58240W        W26634  11.946  26.393  10.143
58241W        W26635   3.409  37.095   1.724
58242W        W26636  19.061  20.650  11.969
58243W        W26637  18.386   1.864  11.625
58244W        W26638  18.198  41.770   5.409
58245W        W26639  26.193   2.799  12.898
58246W        W26640  16.066  41.827  13.392
58247W        W26641  16.677  23.168   4.450
58248W        W26642  35.343  30.932   3.956
58249W        W26643  36.956  38.047  13.880
58250W        W26644  33.396   4.089  12.905
58251W        W26645  41.297  36.017   5.115
58252W        W26646  19.076  23.570  11.707
58253W        W26647  36.280   1.268   2.327
58254W        W26648  13.782  36.011   2.758
58255W        W26649  36.363  11.848   2.429
58256W        W26650  27.874   8.381  10.422
58257W        W26651  39.148  17.573   2.375
58258W        W26652  28.186  36.368  13.075
58259W        W26653  20.709  13.353   3.815
58260W        W26654  18.309  20.777  13.062
58261W        W26655  43.437  14.246  12.536
58262W        W26656  26.588  12.699  14.459
58263W        W26657   9.576  28.437   2.745
58264W        W26658   2.387  31.560  13.008
58265W        W26659  40.749  27.470   3.708
58266W        W26660  26.002  23.049   1.814
58267W        W26661   7.870   7.242   2.210
58268W        W26662   0.041  39.007  10.623
58269W        W26663  16.251   4.433  14.033
58270W        W26664  25.193   5.988  11.454
58271W        W26665   7.116  12.315  11.550
58272W        W26666  33.801   9.152  13.419
58273W        W26667   6.923  42.306   2.259
58274W        W26668   5.740  44.700   3.325
58275W        W26669  17.205  35.433   0.320
58276W        W26670  17.219  28.402  12.675
58277W        W26671  29.473  22.984  12.046
58278W        W26672   8.421  26.591   2.269
58279W        W26673  21.347  18.062   3.146
58280W        W26674  17.180  11.790  14.014
58281W        W26675  20.969   2.191  10.709
58282W        W26676   1.389   9.365   1.624
58283W        W26677  29.228   2.777   3.570
58284W        W26678  41.233  23.022  12.981
58285W        W26679  14.737  11.457   3.087
58286W        W26680  32.649  15.848  14.542
58287W        W26681  38.986  33.820   0.525
58288W        W26682  23.322  13.150   3.746
58289W        W26683  41.032  32.697   0.886
58290W        W26684  12.321  22.932  12.515
58291W        W26685   3.777  16.425  11.539
58292W        W26686   5.874   2.024   1.023
58293W        W26687  40.028  25.235   2.414
58294W        W26688  31.552  41.894  10.926
58295W        W26689  39.443  29.394   2.365
58296W        W26690  25.933   4.081   3.836
58297W        W26691  42.772  13.165  11.132
58298W        W26692   4.307   1.772   4.324
58299W        W26693  36.287  26.652   4.254
58300W        W26694  36.115  21.516  14.954
58301W        W26695   4.334  20.703  14.970
58302W        W26696  41.993  43.395  12.023
58303W        W26697   0.308   7.534  12.751
58304W        W26698  34.067  30.412  12.852
58305W        W26699  40.615   3.383  12.107
58306W        W26700  44.811   9.951   1.669
58307W        W26701  29.116  10.183  14.849
58308W        W26702  34.144  42.307  12.930
58309W        W26703  17.586  27.421   4.377
58310W        W26704   5.240   6.652   2.572
58311W        W26705  34.038  11.608   2.478
58312W        W26706  28.671  31.391  11.663
58313W        W26707   7.312  19.760   0.833
58314W        W26708   0.512  15.845  14.873
58315W        W26709  10.637  19.176  12.049
58316W        W26710  40.938  26.675   2.856
58317W        W26711   9.063   3.664  14.425
58318W        W26712   2.247   0.717  11.608
58319W        W26713  43.090  23.920   0.684
58320W        W26714  23.262  11.199   0.858
58321W        W26715   6.647   2.385  11.762
58322W        W26716  16.668   9.429  11.099
58323W        W26717  26.917  32.350  11.490
58324W        W26718  12.416   4.295  11.055
58325W        W26719  32.649  26.078   2.809
58326W        W26720  23.927  15.344  10.418
58327W        W26721   7.216  37.386  13.848
58328W        W26722  28.026  10.621   2.899
58329W        W26723   1.575  10.749  12.828
58330W        W26724  39.076  15.213  13.583
58331W        W26725  22.982   7.336  10.525
58332W        W26726  20.149  31.868  12.929
58333W        W26727  30.414   2.979  11.927
58334W        W26728  19.007  30.464   2.333
58335W        W26729  32.420  43.927  13.637
58336W        W26730  14.840  40.899   1.622
58337W        W26731  38.363  23.322   1.807
58338W        W26732  27.295   5.254   1.747
58339W        W26733   3.465  27.001  13.426
58340W        W26734  27.006   5.980   4.625
58341W        W26735  28.172  14.755   2.877
58342W        W26736  15.522  24.638   4.172
58343W        W26737  44.337   5.620  13.330
58344W        W26738  23.947   8.334  12.381
58345W        W26739   0.726  40.517   4.074
58346W        W26740  30.940  24.776   2.718
58347W        W26741  10.101   8.277  11.592
58348W        W26742  15.779  14.349  11.507
58349W        W26743  40.975  34.352  14.021
58350W        W26744   7.895   4.612   0.963
58351W        W26745   1.961  34.991  14.737
58352W        W26746   4.902  27.179  12.628
58353W        W26747  39.390  17.574   3.380
58354W        W26748  10.124  23.365   2.055
58355W        W26749  19.991  37.582  14.295
58356W        W26750  36.458   6.478   1.925
58357W        W26751  33.881  33.828  13.301
58358W        W26752   1.033  24.616  12.273
58359W        W26753  29.736  31.990  14.846
58360W        W26754  43.235  43.506  14.517
58361W        W26755  25.706  36.538  11.652
58362W        W26756  37.011  42.822  12.978
58363W        W26757  27.904  39.867  13.830
58364W        W26758  27.763  15.407   2.829
58365W        W26759   7.211   7.471  10.413
58366W        W26760  30.516  44.952   2.220
58367W        W26761   4.839  31.592   3.717
58368W        W26762  11.400  35.387   3.721
58369W        W26763  37.262  14.820   0.609
58370W        W26764  17.787  10.606   3.204
58371W        W26765   7.366   4.280  12.503
58372W        W26766  14.450   4.998   3.635
58373W        W26767   8.699   9.167   0.241
58374W        W26768   0.928  34.582  14.359
58375W        W26769   8.969   4.284  11.782
58376W        W26770  13.777  40.038  10.732
58377W        W26771  30.070  41.910  13.791
58378W        W26772  39.331  24.557   4.515
58379W        W26773  31.115  42.877  11.233
58380W        W26774  27.627   9.378  10.959
58381W        W26775  22.611  42.499   1.302
58382W        W26776  22.606  26.476   3.003
58383W        W26777  34.952  18.471   3.912
58384W        W26778  38.086  16.297  14.579
58385W        W26779  44.683  38.654  12.945
58386W        W26780  23.198  19.652   4.103
58387W        W26781  41.507  16.184   3.699
58388W        W26782  35.597  24.048  13.440
58389W        W26783   9.921   2.275  11.754
58390W        W26784  28.672  29.842   1.028
58391W        W26785   9.172  31.445   4.220
58392W        W26786  29.047  22.261   1.241
58393W        W26787  30.712  16.448   0.773
58394W        W26788   0.012  37.330   4.629
58395W        W26789  44.454   5.676   4.528
58396W        W26790  23.048  40.273  13.852
58397W        W26791  25.355  42.802   0.684
58398W        W26792  39.300   4.698   3.818
58399W        W26793  14.272  43.649  14.341
58400W        W26794  36.769  10.127   3.719
58401W        W26795  17.196  33.580   0.252
58402W        W26796  25.507  32.356   3.425
58403W        W26797  24.463   9.564   3.241
58404W        W26798  18.080  44.348  11.492
58405W        W26799   6.208   1.233   3.759
58406W        W26800  16.624   4.452   3.248
58407W        W26801   9.460  32.506  13.784
58408W        W26802  28.103  11.277   0.696
58409W        W26803   0.717  24.687  13.916
58410W        W26804  25.275  21.779  11.629
58411W        W26805   4.790  17.254   0.005
58412W        W26806   3.443  11.656   1.225
58413W        W26807   1.413  32.556  12.716
58414W        W26808  36.456   6.280  12.490
58415W        W26809   6.841  16.745   4.493
58416W        W26810  42.081  10.642   2.623
58417W        W26811  14.674  31.425   0.514
58418W        W26812  12.112  32.947  11.167
58419W        W26813  35.617  31.093   4.879
58420W        W26814  44.540  30.974  11.678
58421W        W26815  21.745  25.407  13.587
58422W        W26816  15.785  26.615   0.962
58423W        W26817  12.280  17.261  11.493
58424W        W26818  35.150  15.431   2.173
58425W        W26819  15.579  19.693  13.187
58426W        W26820  44.966  11.056   3.595
58427W        W26821   0.358  15.395   1.855
58428W        W26822  31.879   4.458   2.793
58429W        W26823  44.768  21.105  12.697
58430W        W26824   0.793  37.785  13.840
58431W        W26825  43.878   3.156   0.238
58432W        W26826  31.048   8.195  14.899
58433W        W26827  36.403  32.208  11.995
58434W        W26828  33.500   4.931   4.141
58435W        W26829   9.696  24.074  11.408
58436W        W26830  33.874   6.456  10.921
58437W        W26831   1.416  21.240   0.425
58438W        W26832  16.337  34.947  10.613
58439W        W26833  43.996  13.655  14.407
58440W        W26834  32.945   3.228   1.445
58441W        W26835  33.662  20.469   3.615
58442W        W26836   9.488  32.657  14.284
58443W        W26837  28.939   5.363  12.986
58444W        W26838  30.923  22.107   4.630
58445W        W26839  19.091  37.564  11.118
58446W        W26840  42.532  24.533   3.199
58447W        W26841  15.021  23.640   1.945
58448W        W26842  32.222   3.342  14.898
58449W        W26843  16.566  19.318   2.245
58450W        W26844   7.758   8.373   3.198
58451W        W26845  14.345  18.322   4.594
58452W        W26846  43.010  17.747   0.973
58453W        W26847  11.096  35.430   0.590
58454W        W26848  27.760  42.431  14.387
58455W        W26849  44.407   3.055  14.377
58456W        W26850  44.574  26.570   2.872
58457W        W26851  37.548   1.470   4.183
58458W        W26852  15.341  18.474   4.101
58459W        W26853  39.317  20.232  13.808
58460W        W26854   4.997   5.393   3.064
58461W        W26855  15.257  36.607   0.320
58462W        W26856  21.586   0.487   1.532
58463W        W26857  23.455  43.020  13.459
58464W        W26858   9.944  29.043  11.617
58465W        W26859  26.903  21.036  10.290
58466W        W26860  32.573  17.277  12.762
58467W        W26861  38.646  35.809   4.195
58468W        W26862  21.665  31.569  11.994
58469W        W26863  32.775   7.492   1.061
58470W        W26864  36.139   7.005  12.330
58471W        W26865  19.721   4.431   2.261
58472W        W26866  20.407   7.787   1.279
58473W        W26867   1.203  40.687   1.222
58474W        W26868   2.515  22.126   0.249
58475W        W26869  20.123  28.560  13.032
58476W        W26870  39.795  42.005   3.678
58477W        W26871  13.214  30.069  12.354
58478W        W26872   7.875  14.389   4.972
58479W        W26873  28.107  39.963  14.488
58480W        W26874   7.363  42.081   2.670
58481W        W26875  26.578  42.551   3.238
58482W        W26876  22.600  22.816   5.152
58483W        W26877  10.519   3.241   2.879
58484W        W26878   9.157   7.276  14.791
58485W        W26879  29.488  13.514  11.027
58486W        W26880  28.564  14.304   4.391
58487W        W26881   3.016  21.464   0.644
58488W        W26882  20.492  31.050   4.378
58489W        W26883  21.039  35.841   2.288
58490W        W26884   4.747  22.059  11.647
58491W        W26885   7.871  19.816  12.064
58492W        W26886  44.637  31.913   1.444
58493W        W26887  42.643  35.665   9.449
58494W        W26888  16.653  18.938  10.765
58495W        W26889  11.973   2.123  12.538
58496W        W26890  34.863  13.834   0.409
58497W        W26891  28.555  39.790  11.133
58498W        W26892   4.306  25.793   4.226
58499W        W26893  15.153  35.340   4.174
58500W        W26894  36.787   1.154   4.398
58501W        W26895  20.823  29.656  13.905
58502W        W26896   2.669  25.404   3.090
58503W        W26897  12.658  26.173  13.298
58504W        W26898   0.551  21.229  10.987
58505W        W26899  12.862  34.700  12.462
58506W        W26900  40.577  32.804   4.163
58507W        W26901  42.974  26.140   4.401
58508W        W26902  33.625   3.459  10.784
58509W        W26903  29.146  42.377   3.027
58510W        W26904  35.633  10.651  11.192
58511W        W26905  21.073  24.884   3.967
58512W        W26906  28.701  44.901   4.103
58513W        W26907  36.874  36.497  11.542
58514W        W26908  20.645  43.225  13.903
58515W        W26909  10.773  44.958  10.841
58516W        W26910  39.944  28.254   1.852
58517W        W26911  29.574  32.137   0.750
58518W        W26912  38.449   7.744   0.248
58519W        W26913  18.536  13.653   0.312
58520W        W26914  26.499  35.265  12.574
58521W        W26915  33.001  23.428   1.364
58522W        W26916  33.922  12.768  14.370
58523W        W26917  37.144   0.638  11.199
58524W        W26918  21.059  28.706   3.116
58525W        W26919  15.520   3.873  14.533
58526W        W26920   8.951  29.281   5.042
58527W        W26921   9.008   4.963  11.005
58528W        W26922  28.033  36.332   3.144
58529W        W26923  15.360  17.181   5.378
58530W        W26924  10.600  26.147  13.291
58531W        W26925  35.763  36.488   1.900
58532W        W26926  37.291   1.194   3.731
58533W        W26927   6.523  14.447   4.892
58534W        W26928  14.318  40.778   3.311
58535W        W26929  27.177  39.017  11.563
58536W        W26930  15.811  44.781   4.481
58537W        W26931  32.858  19.320   0.364
58538W        W26932  22.529  42.565   0.345
58539W        W26933  31.864  33.653   4.096
58540W        W26934  17.628   1.910  13.003
58541W        W26935  14.534  15.671   4.597
58542W        W26936  34.863   1.721  14.590
58543W        W26937  32.709   0.925   0.453
58544W        W26938  19.328  13.744  10.703
58545W        W26939  41.763  14.389   4.633
58546W        W26940   7.180  15.595  12.209
58547W        W26941  32.962  42.407   1.192
58548W        W26942  21.464  19.568   0.241
58549W        W26943  42.739  23.568  14.698
58550W        W26944  16.540   2.953   1.303
58551W        W26945  14.693  20.042  12.159
58552W        W26946  30.384   2.903  13.086
58553W        W26947  23.475   9.199   2.671
58554W        W26948   8.366  19.561  12.659
58555W        W26949   8.542  42.045   1.892
58556W        W26950  32.305  44.052   0.291
58557W        W26951  21.105  29.062   1.786
58558W        W26952  10.427  33.821   2.428
58559W        W26953  12.742  29.117   4.084
58560W        W26954   8.232   2.737   2.329
58561W        W26955  30.443  15.132   0.986
58562W        W26956  27.271  22.729   4.583
58563W        W26957  35.261  19.552  14.501
58564W        W26958  12.767  22.000   2.167
58565W        W26959  35.581  16.580   1.531
58566W        W26960  37.557  15.186  10.393
58567W        W26961   6.659   0.868  14.004
58568W        W26962  29.419  13.142  11.402
58569W        W26963  30.585  43.898   4.206
58570W        W26964  10.402  36.878  11.480
58571W        W26965  17.967  41.992   2.457
58572W        W26966  31.145  30.198  12.111
58573W        W26967  34.958  29.780   4.531
58574W        W26968  12.229  34.079   1.770
58575W        W26969  37.891   7.881  14.040
58576W        W26970   8.267  43.938  12.975
58577W        W26971   3.113  26.935  13.791
58578W        W26972  24.398  31.528   2.712
58579W        W26973  24.581  42.697   3.257
58580W        W26974   3.979  39.848  11.134
58581W        W26975   1.766  23.323   0.789
58582W        W26976  37.065  22.064   2.448
58583W        W26977  29.024  19.059  11.937
58584W        W26978  18.526  11.213  13.154
58585W        W26979  22.656  16.961  11.152
58586W        W26980  27.195   0.360  14.355
58587W        W26981  19.183  35.628  13.731
58588W        W26982   2.957   2.319   4.538
58589W        W26983  37.420  33.954  14.373
58590W        W26984   0.889  21.980   1.249
58591W        W26985   6.105  28.920  14.391
58592W        W26986   7.450  26.101   2.907
58593W        W26987  13.781  40.488   4.770
58594W        W26988  33.515   4.973   5.063
58595W        W26989  38.303   9.254   2.796
58596W        W26990  35.872  25.592   3.665
58597W        W26991   7.746   2.692  10.445
58598W        W26992   5.879  36.029   0.967
58599W        W26993   8.653  42.186  14.006
58600W        W26994   8.960  10.342  12.665
58601W        W26995  43.814  24.250   2.879
58602W        W26996   0.887  11.087   3.661
58603W        W26997   8.185   8.278  11.922
58604W        W26998  17.557  16.794   1.758
58605W        W26999   3.912  43.847   4.053
58606W        W27000  42.824   4.545   3.675
58607W        W27001  17.318  10.655   0.868
58608W        W27002  34.418   6.451   2.485
58609W        W27003  22.017  40.717  13.847
58610W        W27004  13.655  25.007   4.440
58611W        W27005  30.014  13.360   0.521
58612W        W27006  29.197   7.758  13.353
58613W        W27007  14.700  39.009  10.279
58614W        W27008   1.716  33.624  13.299
58615W        W27009  43.617  12.224   1.725
58616W        W27010   6.946  21.497   3.835
58617W        W27011  25.627  37.588   2.175
58618W        W27012  17.820  17.086  11.994
58619W        W27013  31.148   4.238   4.417
58620W        W27014   3.763  43.283   1.917
58621W        W27015   8.783   1.208  13.312
58622W        W27016   2.840  26.528   4.516
58623W        W27017  42.348  34.824   3.551
58624W        W27018  43.984  42.739   3.693
58625W        W27019  27.188  11.317   2.194
58626W        W27020   2.805  18.625  10.620
58627W        W27021   2.938  41.938   1.907
58628W        W27022  10.345  44.198   3.790
58629W        W27023  19.185  24.245  13.440
58630W        W27024  25.892   8.527  14.829
58631W        W27025  35.462   6.710  10.939
58632W        W27026  28.477  17.139  14.976
58633W        W27027  41.892   5.761  13.963
58634W        W27028  20.288  35.810  12.580
58635W        W27029   2.096  39.447   2.653
58636W        W27030  17.341   3.304  14.031
58637W        W27031   6.006  17.750  12.396
58638W        W27032   0.297  14.295   4.829
58639W        W27033  21.784  38.391   2.226
58640W        W27034  44.361   3.901  14.770
58641W        W27035  36.339  38.655   1.694
58642W        W27036  37.365   7.972   4.153
58643W        W27037  17.668   7.042  14.873
58644W        W27038   9.716  16.938  14.728
58645W        W27039  15.743  25.246   1.749
58646W        W27040   3.424  19.777   1.884
58647W        W27041   9.396  18.476  11.117
58648W        W27042  16.793  21.038  11.934
58649W        W27043  40.054  33.533  11.589
58650W        W27044  26.395  39.531  10.571
58651W        W27045  32.057  32.845   1.754
58652W        W27046  42.540  27.005  13.492
58653W        W27047  24.998  11.452  11.733
58654W        W27048  12.177  21.228  13.914
58655W        W27049  23.698  26.593  10.758
58656W        W27050   5.908  10.855   2.790
58657W        W27051  25.255   3.896   3.145
58658W        W27052  34.976  18.754  12.173
58659W        W27053   2.374   8.139  10.535
58660W        W27054  14.218  27.783  11.924
58661W        W27055  20.061  40.137  10.770
58662W        W27056   8.950  10.572   3.251
58663W        W27057  36.804  14.722   2.195
58664W        W27058  42.491   7.801   0.887
58665W        W27059  44.763  28.724  14.048
58666W        W27060  13.119  16.577  12.494
58667W        W27061  16.705  32.704  11.945
58668W        W27062  25.455  23.580   3.189
58669W        W27063  18.119   3.821   1.186
58670W        W27064  44.983  19.034   0.047
58671W        W27065  20.629  19.203   0.211
58672W        W27066   2.186  24.167   4.439
58673W        W27067  31.971  10.133  12.158
58674W        W27068   7.931   9.146   0.318
58675W        W27069  29.548   6.860  12.340
58676W        W27070   7.195   5.817   2.919
58677W        W27071   7.672  20.698  13.388
58678W        W27072  44.336   1.138  12.153
58679W        W27073  36.290   8.747   4.370
58680W        W27074  15.696  42.597   0.269
58681W        W27075  40.100  37.308   1.669
58682W        W27076  43.345  29.500   4.624
58683W        W27077  42.743  44.931   3.830
58684W        W27078  31.940  19.529   1.839
58685W        W27079  16.401  10.477  10.086
58686W        W27080  44.542   6.324  11.200
58687W        W27081  35.256  12.339   1.042
58688W        W27082   3.932  44.794  11.569
58689W        W27083  38.254  14.109   3.521
58690W        W27084   4.720  31.051   3.676
58691W        W27085  13.667   3.290  11.972
58692W        W27086  20.238  13.361   5.152
58693W        W27087  24.894  17.485   1.512
58694W        W27088  33.198  13.583  10.867
58695W        W27089  41.615  22.949  13.733
58696W        W27090  10.452  42.321   0.275
58697W        W27091   8.182  32.637  14.931
58698W        W27092  42.925  29.524   5.321
58699W        W27093  26.744  39.382   4.533
58700W        W27094  19.606  28.001   3.241
58701W        W27095  33.150   9.098   3.348
58702W        W27096  13.283  25.574   0.681
58703W        W27097  34.154  30.069  12.031
58704W        W27098  26.221  40.746   2.552
58705W        W27099  42.545  32.692  12.348
58706W        W27100  28.544  38.897   4.118
58707W        W27101  24.302   0.988  11.273
58708W        W27102  13.813  26.269   0.890
58709W        W27103  10.874  10.113   2.197
58710W        W27104  14.769  41.817   1.787
58711W        W27105  13.291  28.544  13.066
58712W        W27106  27.126  40.509   4.562
58713W        W27107  39.772  22.640  11.579
58714W        W27108  19.306   0.887  14.937
58715W        W27109  11.577   9.364  12.499
58716W        W27110  26.969  21.569  13.523
58717W        W27111  43.018  23.525  11.138
58718W        W27112  40.525  33.224   4.459
58719W        W27113  29.922   7.192  13.608
58720W        W27114  21.629  14.316  14.032
58721W        W27115   4.667   9.733  11.074
58722W        W27116  34.075  14.662  10.738
58723W        W27117  37.006   3.147   2.304
58724W        W27118  29.119  23.602  12.055
58725W        W27119  42.089  26.484  12.076
58726W        W27120   3.755  32.911   0.935
58727W        W27121  14.250  29.996   0.683
58728W        W27122   0.764  27.742  12.050
58729W        W27123  43.037  19.971   4.139
58730W        W27124  26.174  40.744  10.443
58731W        W27125  44.962  38.310   4.307
58732W        W27126  27.042   8.433   2.175
58733W        W27127   9.633   9.478   1.847
58734W        W27128  38.525  14.236  11.475
58735W        W27129  11.821  41.328   4.489
58736W        W27130  25.047  39.933  11.574
58737W        W27131  34.100  23.198  11.168
58738W        W27132  15.381   9.694  11.947
58739W        W27133  43.975   5.361  11.071
58740W        W27134  30.186  39.916   1.309
58741W        W27135  40.476  12.515  11.835
58742W        W27136  14.806  34.067   3.395
58743W        W27137   9.825  16.248  13.109
58744W        W27138  22.734   5.823  14.242
58745W        W27139  32.732  12.782   5.128
58746W        W27140  31.141  21.922  13.011
58747W        W27141  29.616   1.922   2.135
58748W        W27142  13.882   6.931   0.323
58749W        W27143  24.903   4.688   1.478
58750W        W27144  27.620  26.924  11.646
58751W        W27145  14.593  17.667  13.182
58752W        W27146   7.023  37.469   1.208
58753W        W27147  16.869  10.148  12.282
58754W        W27148  26.193  22.257   0.816
58755W        W27149  13.931  23.771  10.894
58756W        W27150   8.864   2.776   0.327
58757W        W27151  37.573  34.888  12.562
58758W        W27152  21.100  16.386  11.535
58759W        W27153  19.592  35.890  10.501
58760W        W27154  44.922  22.015   0.811
58761W        W27155  40.583  24.711   1.867
58762W        W27156   4.976  31.003   4.116
58763W        W27157  17.146   2.707  12.918
58764W        W27158  16.762  18.525   0.276
58765W        W27159   9.360  25.108  11.332
58766W        W27160  15.140  40.126   4.518
58767W        W27161  43.693   3.268  12.227
58768W        W27162  12.504  35.341  14.929
58769W        W27163   5.180  25.517   0.901
58770W        W27164  22.231  31.373   2.247
58771W        W27165   8.125  30.177   0.808
58772W        W27166  40.259   1.100   2.971
58773W        W27167  40.778   8.835  11.633
58774W        W27168  25.558  21.018  12.476
58775W        W27169  36.654  11.230  13.578
58776W        W27170  29.027   9.221  13.032
58777W        W27171  21.782  14.550   1.403
58778W        W27172  35.548  29.992   1.715
58779W        W27173  31.971   7.634  10.790
58780W        W27174   1.357  25.896  10.619
58781W        W27175  37.668  31.576  10.551
58782W        W27176   2.161  16.638  12.425
58783W        W27177  33.980  12.508  11.472
58784W        W27178  42.418  44.461   0.268
58785W        W27179   3.713  43.021  13.047
58786W        W27180  16.165  43.790   2.224
58787W        W27181  12.656   9.397  12.189
58788W        W27182  31.803  17.981  14.048
58789W        W27183  35.202   9.592   4.124
58790W        W27184  43.043  30.039  11.594
58791W        W27185  41.229  31.469   0.089
58792W        W27186  35.554  29.560   3.877
58793W        W27187  23.137  32.113   1.947
58794W        W27188  13.850  20.544   4.926
58795W        W27189   3.582  14.059  11.651
58796W        W27190  38.937  38.422   1.010
58797W        W27191  34.460  39.606  14.029
58798W        W27192   9.562  40.351   2.856
58799W        W27193  22.671  41.993  12.941
58800W        W27194  40.684  12.077  13.008
58801W        W27195   5.460  28.553   1.919
58802W        W27196  19.726   6.812  13.367
58803W        W27197   8.760  13.001   2.990
58804W        W27198  17.152  19.182  10.814
58805W        W27199  27.894  33.536   4.182
58806W        W27200  33.565  39.851   1.841
58807W        W27201   7.117  16.393  14.786
58808W        W27202  25.173  21.503  13.810
58809W        W27203  26.450  13.764  14.523
58810W        W27204  15.852  32.911   2.817
58811W        W27205   7.200  11.660  12.890
58812W        W27206  10.739  21.213  13.858
58813W        W27207  33.653   2.445   1.340
58814W        W27208   8.420  34.397   3.290
58815W        W27209  19.270  27.984  11.275
58816W        W27210  27.328  16.583   0.050
58817W        W27211  21.829  39.981  12.846
58818W        W27212  22.676   5.770  12.569
58819W        W27213  17.992  36.871   1.705
58820W        W27214  26.451  23.998   4.122
58821W        W27215  22.502  14.492   4.486
58822W        W27216   7.813   6.245  10.234
58823W        W27217  16.752  43.353   1.108
58824W        W27218   1.752  18.330   3.338
58825W        W27219  42.812  30.635  11.054
58826W        W27220   6.633  31.384  13.158
58827W        W27221   1.473   0.441  12.995
58828W        W27222  38.485  29.690  10.689
58829W        W27223   4.678  18.913  11.624
58830W        W27224  13.120  40.295   1.270
58831W        W27225  28.146   8.745   2.790
58832W        W27226   6.855  42.572   0.343
58833W        W27227   8.366  25.240  14.008
58834W        W27228  39.610  22.472   0.216
58835W        W27229  32.147  19.558   3.300
58836W        W27230  30.937  16.213   3.010
58837W        W27231   8.830  10.028  13.106
58838W        W27232  14.808  30.602  10.368
58839W        W27233  14.074   5.062   2.831
58840W        W27234   9.780  35.968  12.218
58841W        W27235   6.904  14.753  14.536
58842W        W27236   0.269  43.989  14.828
58843W        W27237   3.679  31.113   3.707
58844W        W27238  42.827  39.347   3.938
58845W        W27239   7.821  18.144  11.391
58846W        W27240  23.351  23.772  10.730
58847W        W27241   7.330   1.456   2.111
58848W        W27242  18.310   4.804  11.513
58849W        W27243  37.527  39.611   1.795
58850W        W27244  17.008   3.785   2.321
58851W        W27245  14.821  26.598  10.596
58852W        W27246  15.743   9.352  11.099
58853W        W27247  38.335  16.885  12.030
58854W        W27248  25.024   3.830   0.864
58855W        W27249  13.398  21.324  14.977
58856W        W27250  28.120  42.825   2.940
58857W        W27251  43.371  16.417   2.340
58858W        W27252   9.171  22.038   4.300
58859W        W27253  16.942  40.246   4.959
58860W        W27254   0.784   7.164  13.505
58861W        W27255   8.174  34.589  14.403
58862W        W27256   3.743  22.164  12.524
58863W        W27257  38.941  24.916   4.603
58864W        W27258  16.671  28.918   1.179
58865W        W27259  35.140  36.111   0.178
58866W        W27260  29.928  13.822  12.471
58867W        W27261   3.329   5.611  11.621
58868W        W27262  21.595  10.798  10.561
58869W        W27263   7.266  41.850   0.282
58870W        W27264  12.632  26.947   0.848
58871W        W27265   0.722   2.325  12.963
58872W        W27266  28.529   7.256   0.773
58873W        W27267  40.627   2.872   2.599
58874W        W27268  24.457  10.992  14.923
58875W        W27269   9.503   4.803   4.997
58876W        W27270  28.946  30.558   0.821
58877W        W27271  18.924   4.006  12.330
58878W        W27272  42.828  44.026  12.623
58879W        W27273   0.236  29.551   3.267
58880W        W27274  44.859   5.495   2.979
58881W        W27275  17.638  28.311  14.484
58882W        W27276  26.559  32.171   1.701
58883W        W27277  25.073   3.424   3.122
58884W        W27278  20.071  37.426  13.808
58885W        W27279  27.394  42.377  11.512
58886W        W27280  21.795  35.873   2.687
58887W        W27281   9.829  20.908   1.921
58888W        W27282  19.833  25.901  13.027
58889W        W27283  33.912  42.187  10.690
58890W        W27284  16.747  42.348  10.963
58891W        W27285  41.058  13.183  14.279
58892W        W27286  12.667   2.496   3.426
58893W        W27287  23.027  33.465  12.127
58894W        W27288  39.572  42.341   4.624
58895W        W27289   1.258  23.574   0.685
58896W        W27290  26.590   6.952  12.381
58897W        W27291  16.323  17.022   3.985
58898W        W27292   4.800   6.875   4.286
58899W        W27293  31.430  34.583  11.443
58900W        W27294   4.850  12.341  10.380
58901W        W27295  10.906   5.284  13.520
58902W        W27296  19.633  42.778  11.155
58903W        W27297   1.536  36.479  12.020
58904W        W27298  11.623   1.791   1.235
58905W        W27299  23.866  13.462  11.703
58906W        W27300  19.983   0.940  13.669
58907W        W27301  38.588  31.122  11.623
58908W        W27302  41.315  25.691   2.274
58909W        W27303  10.243  27.921   1.417
58910W        W27304  30.119  27.587   1.391
58911W        W27305  28.436  20.197  13.341
58912W        W27306  32.136  31.800   1.839
58913W        W27307   3.757   9.207  11.214
58914W        W27308   0.210  24.548   4.619
58915W        W27309  44.293  26.016   4.643
58916W        W27310  30.879  42.379  13.886
58917W        W27311  44.825  15.461  14.239
58918W        W27312  33.355  41.821   4.585
58919W        W27313  12.275  38.380  14.021
58920W        W27314  37.656  12.285   2.202
58921W        W27315   6.344  21.436   9.872
58922W        W27316   7.605  41.959   4.608
58923W        W27317  11.344  14.436  10.957
58924W        W27318  10.459   5.989   2.779
58925W        W27319  34.577  24.010  13.385
58926W        W27320  34.508   8.663   4.470
58927W        W27321   7.212  29.586   1.892
58928W        W27322  38.294  40.744   2.055
58929W        W27323  24.543   2.847   1.464
58930W        W27324  29.014   1.801  10.600
58931W        W27325  43.932  34.457  11.711
58932W        W27326  31.050  19.101   2.870
58933W        W27327  13.953  15.268  11.162
58934W        W27328  39.051  44.226  14.912
58935W        W27329  16.223  16.067   0.077
58936W        W27330  21.105  36.093  12.599
58937W        W27331   6.834  33.629   4.314
58938W        W27332  33.957  10.996   3.311
58939W        W27333  18.753  40.875  11.527
58940W        W27334   0.435  31.419   4.818
58941W        W27335  37.442  16.794   2.241
58942W        W27336  29.793  23.728  14.537
58943W        W27337   1.055  24.915  11.411
58944W        W27338  14.245  12.636   4.173
58945W        W27339  39.091  19.066  10.425
58946W        W27340  28.338  38.371  11.523
58947W        W27341  16.009  11.678  10.534
58948W        W27342  44.193  13.016   1.620
58949W        W27343   5.844   9.611   3.637
58950W        W27344   9.708  43.444   1.734
58951W        W27345   0.177  27.511   2.156
58952W        W27346  17.990   3.625  14.135
58953W        W27347  42.877  29.114   2.637
58954W        W27348   3.670  24.104  12.105
58955W        W27349  32.120  19.977   4.123
58956W        W27350  41.339  30.067   3.587
58957W        W27351  14.406  19.987  14.883
58958W        W27352  39.345  22.301   2.698
58959W        W27353   7.274  35.880   4.708
58960W        W27354  18.767   7.688  14.891
58961W        W27355  21.089   6.525  14.219
58962W        W27356  11.901  38.429   3.592
58963W        W27357  13.570  15.047  11.455
58964W        W27358  20.516  21.140   1.808
58965W        W27359   0.801   8.617   0.355
58966W        W27360  16.005  42.803   4.853
58967W        W27361  34.314  19.434  12.019
58968W        W27362   6.712  42.772   4.129
58969W        W27363  13.149  15.330  11.560
58970W        W27364   4.191   3.109  11.625
58971W        W27365  26.747   3.454  12.074
58972W        W27366  17.755  44.292  10.616
58973W        W27367   3.955  37.509  11.592
58974W        W27368  44.703  23.067  14.344
58975W        W27369  17.837  18.300  14.656
58976W        W27370  44.205  25.973   1.430
58977W        W27371  33.872  19.936   1.117
58978W        W27372  27.548  28.787  12.005
58979W        W27373   6.359  28.604   3.320
58980W        W27374  14.632   3.791  11.480
58981W        W27375  15.400   7.941   5.071
58982W        W27376   7.969  37.456  14.389
58983W        W27377   5.974  32.889  14.513
58984W        W27378  11.101  42.445  12.567
58985W        W27379  34.535  17.304  11.165
58986W        W27380  33.659  43.734  11.398
58987W        W27381  12.454  38.570  14.480
58988W        W27382  11.030  42.879   4.623
58989W        W27383  27.327  28.919  13.276
58990W        W27384  27.066  25.142   3.660
58991W        W27385  30.045  14.641   3.121
58992W        W27386   9.213  29.998  12.537
58993W        W27387  33.083   8.324   3.764
58994W        W27388   2.452  29.046  13.204
58995W        W27389   3.783  28.387  11.552
58996W        W27390  30.915  30.464   4.639
58997W        W27391   0.757  15.061   0.969
58998W        W27392  31.954  34.113  13.869
58999W        W27393   0.412   4.882   3.141
59000W        W27394  12.200  14.257  12.997
59001W        W27395  32.874  40.368   1.430
59002W        W27396  22.187  17.786   2.221
59003W        W27397   0.305  39.832  12.860
59004W        W27398  12.727  31.849  11.644
59005W        W27399  22.020  25.213   1.796
59006W        W27400   8.826  34.801   4.591
59007W        W27401  17.654  40.621   2.026
59008W        W27402  31.222  23.450  14.477
59009W        W27403  34.911  40.368  11.652
59010W        W27404  32.522  18.317   0.229
59011W        W27405  33.622  19.611  12.069
59012W        W27406   4.727   1.876  11.121
59013W        W27407   4.711  37.332   1.257
59014W        W27408  26.544  29.932  14.541
59015W        W27409  27.891  38.447  13.073
59016W        W27410  13.612  25.492   4.633
59017W        W27411  20.158  26.771  12.197
59018W        W27412  16.463  13.781   1.414
59019W        W27413   2.167  11.878  12.615
59020W        W27414   7.056  17.751  11.377
59021W        W27415   2.217  44.327  14.377
59022W        W27416  42.884  36.625  14.755
59023W        W27417  23.272  41.349   2.399
59024W        W27418  16.679   8.260  11.601
59025W        W27419  24.280  21.646  11.616
59026W        W27420   3.227  27.029  11.950
59027W        W27421  39.883   0.908  10.835
59028W        W27422   5.920   6.975  14.376
59029W        W27423  23.758  21.094  11.155
59030W        W27424   8.938  34.790   1.653
59031W        W27425  28.197  36.072   0.401
59032W        W27426  33.665  34.949  14.583
59033W        W27427  26.583   6.165  14.961
59034W        W27428   6.194  31.198  12.436
59035W        W27429  21.116  36.310   1.302
59036W        W27430  11.598  39.846   1.783
59037W        W27431  26.606  19.014  14.342
59038W        W27432  12.022  34.787   2.332
59039W        W27433  40.488  18.069  12.992
59040W        W27434  37.171   3.365   4.501
59041W        W27435   2.747  21.833  12.571
59042W        W27436  40.329  19.257  13.966
59043W        W27437   5.832  40.780   0.733
59044W        W27438  23.965  35.086   1.358
59045W        W27439  27.002  38.739  10.133
59046W        W27440  24.187  43.317   1.635
59047W        W27441  20.062  26.226  13.365
59048W        W27442   8.352  31.681  12.546
59049W        W27443  28.628  34.331  12.098
59050W        W27444  21.598  43.952  13.751
59051W        W27445  29.512  42.511   0.534
59052W        W27446  21.197   5.700  10.931
59053W        W27447  29.929  18.162  14.116
59054W        W27448  32.945  44.573   1.228
59055W        W27449  24.810  44.779  14.846
59056W        W27450   5.702  13.338  10.770
59057W        W27451  34.716   6.659   4.866
59058W        W27452  24.174  43.358   9.858
59059W        W27453  18.611  36.654   0.514
59060W        W27454  32.943  27.999  12.001
59061W        W27455  39.839  10.848   4.719
59062W        W27456  33.989   5.836  14.702
59063W        W27457  25.298  26.186   3.596
59064W        W27458  26.120   5.712  13.923
59065W        W27459   3.336  22.498   2.353
59066W        W27460  14.850  18.611  13.117
59067W        W27461  27.215  23.727   3.221
59068W        W27462  19.015  38.732   3.219
59069W        W27463  22.690  23.452  12.066
59070W        W27464  41.507   6.263  10.740
59071W        W27465   8.810  43.700   0.801
59072W        W27466  24.237  36.900   3.656
59073W        W27467   2.711  44.847  14.106
59074W        W27468  39.086  11.958   3.750
59075W        W27469  17.114  24.648   1.815
59076W        W27470   3.358  15.822  12.624
59077W        W27471  44.198  42.226  11.492
59078W        W27472  29.001  31.127  12.082
59079W        W27473  12.708  20.128   0.180
59080W        W27474  25.073  27.999   4.717
59081W        W27475   5.805   6.847   5.060
59082W        W27476   2.020   7.212   4.238
59083W        W27477  36.558  42.488   2.154
59084W        W27478   7.769  40.918   2.741
59085W        W27479   8.131  19.082  12.685
59086W        W27480  26.044  12.074  12.790
59087W        W27481  22.243  44.088  11.173
59088W        W27482   2.329  14.546  11.380
59089W        W27483  18.669   7.366  12.049
59090W        W27484  19.948  28.880  14.714
59091W        W27485   5.239  30.848   3.704
59092W        W27486  41.476  12.673  11.211
59093W        W27487  39.952  36.635   2.709
59094W        W27488  21.918  28.228   3.666
59095W        W27489   8.771   9.184  13.871
59096W        W27490  40.029   9.312  14.348
59097W        W27491  35.391  16.286   3.319
59098W        W27492  29.971   3.253   0.941
59099W        W27493  29.490  17.311   3.647
59100W        W27494  14.088  34.825  12.735
59101W        W27495  41.097  15.298  12.539
59102W        W27496  36.894  23.105  13.173
59103W        W27497  44.498  25.388   2.151
59104W        W27498  28.104  31.936  11.046
59105W        W27499  36.348  28.792   1.187
59106W        W27500   7.684   6.309   9.695
59107W        W27501  21.791  15.075  13.487
59108W        W27502  33.059   9.215   2.798
59109W        W27503  35.440  35.647  14.872
59110W        W27504  43.538  16.742   0.868
59111W        W27505  33.033   7.659  12.287
59112W        W27506  26.705   9.228   4.499
59113W        W27507  44.777   7.107   0.506
59114W        W27508  44.914  16.897  10.637
59115W        W27509   4.251  22.089  13.389
59116W        W27510  28.912  31.007   0.437
59117W        W27511  15.176  36.700  12.202
59118W        W27512  35.145  25.225  14.371
59119W        W27513  34.923  41.291  10.747
59120W        W27514  34.839  28.749   1.095
59121W        W27515  33.028   8.672   2.900
59122W        W27516  37.311  41.990   0.745
59123W        W27517  16.316  43.921  14.263
59124W        W27518  15.824  20.000   4.149
59125W        W27519  19.425  22.710   4.548
59126W        W27520   3.488  12.177   4.544
59127W        W27521   6.795  15.082  14.944
59128W        W27522  17.855  33.572  11.574
59129W        W27523  13.748  29.928   4.257
59130W        W27524  30.402  36.502  13.436
59131W        W27525   6.473  24.593  14.807
59132W        W27526  18.579  16.127  10.606
59133W        W27527  36.129  34.562   1.448
59134W        W27528  10.311  14.211   3.732
59135W        W27529   2.720  42.406   1.816
59136W        W27530   4.875   7.379   3.464
59137W        W27531  40.113   5.959  13.343
59138W        W27532  21.034  44.900   2.738
59139W        W27533  12.782  38.520   1.781
59140W        W27534  21.813  22.801  14.514
59141W        W27535   0.689  34.817  13.931
59142W        W27536  28.643  25.140  10.747
59143W        W27537  21.441  29.631   0.723
59144W        W27538  32.933  39.059   1.858
59145W        W27539   5.858   2.718  14.447
59146W        W27540  14.573  10.774   0.397
59147W        W27541  34.879  10.267  13.058
59148W        W27542  33.183  41.426  11.244
59149W        W27543   8.547  21.229   3.651
59150W        W27544  15.904  24.526   1.307
59151W        W27545  23.772  44.437  13.779
59152W        W27546  38.459  15.575  13.042
59153W        W27547  35.837  39.312   0.236
59154W        W27548  40.446  21.745   3.182
59155W        W27549  13.757  19.520   1.463
59156W        W27550  41.199  15.700  14.764
59157W        W27551  12.715  38.089   1.480
59158W        W27552  17.105  22.153   2.442
59159W        W27553  13.174  36.427   4.602
59160W        W27554  34.947   4.729  13.007
59161W        W27555  13.217  41.591   3.317
59162W        W27556  44.336  26.127   2.670
59163W        W27557   9.398  20.543  14.272
59164W        W27558  40.470  33.989  11.103
59165W        W27559  22.306  18.127   4.649
59166W        W27560  29.688  11.914   1.778
59167W        W27561  28.233   3.798   2.643
59168W        W27562  29.435  29.499   0.178
59169W        W27563   8.776  17.295   3.915
59170W        W27564  38.477   0.009   0.950
59171W        W27565  16.335  29.969   2.774
59172W        W27566  26.198   1.402   3.101
59173W        W27567  41.786  40.718  12.938
59174W        W27568  16.742  34.021   3.251
59175W        W27569  37.554  44.266   3.805
59176W        W27570  19.657  22.209  11.950
59177W        W27571  24.211  24.937   1.889
59178W        W27572  41.536  11.800   2.297
59179W        W27573  36.840   4.373   0.470
59180W        W27574  16.317  38.560   2.605
59181W        W27575   4.189  28.869   2.708
59182W        W27576  22.021  19.202  12.112
59183W        W27577  18.340  36.366  14.934
59184W        W27578  29.990  37.569  10.716
59185W        W27579   2.725  26.141  12.081
59186W        W27580  36.606   1.798  11.470
59187W        W27581  11.817  30.409   4.053
59188W        W27582   2.009  21.570   2.766
59189W        W27583  31.390  20.608  11.625
59190W        W27584  43.927  36.721   2.292
59191W        W27585  40.878  26.770  12.216
59192W        W27586  39.975   4.786   3.059
59193W        W27587  22.249   6.730  12.164
59194W        W27588  25.483  10.202   2.301
59195W        W27589  19.279  41.039  13.000
59196W        W27590  15.491  30.114   2.958
59197W        W27591  32.483   5.436  11.317
59198W        W27592  34.484   3.291   1.798
59199W        W27593  28.132  43.309   4.153
59200W        W27594  14.553  39.148   5.137
59201W        W27595  24.267  21.573   3.628
59202W        W27596  29.497  13.144   2.479
59203W        W27597  31.304  40.062  13.887
59204W        W27598   9.354  29.212   4.641
59205W        W27599  17.292   2.415   1.353
59206W        W27600  44.686  22.613   0.565
59207W        W27601  40.939  13.951   3.417
59208W        W27602  27.489  11.742  10.988
59209W        W27603   6.272  42.019   4.408
59210W        W27604  43.924  39.529  10.458
59211W        W27605  41.028  21.088   3.626
59212W        W27606  18.620  16.260   4.635
59213W        W27607  18.826  31.600  13.965
59214W        W27608  37.907  34.261  13.569
59215W        W27609  11.296  21.726  10.529
59216W        W27610  23.099   6.179  13.454
59217W        W27611   1.766   6.197  13.601
59218W        W27612   0.205  19.189   3.758
59219W        W27613  39.768  12.299  11.228
59220W        W27614  17.785   4.414  11.101
59221W        W27615  23.505  16.219  13.978
59222W        W27616  34.576   3.550   2.300
59223W        W27617   0.752  44.310   2.679
59224W        W27618  10.797   0.683  12.051
59225W        W27619   1.127   0.661   0.725
59226W        W27620  35.395  23.046  14.498
59227W        W27621  15.134  40.730   1.226
59228W        W27622  39.783  10.832   1.948
59229W        W27623  23.300  17.315   3.631
59230W        W27624  18.009  35.448   0.937
59231W        W27625  42.071  30.551   2.416
59232W        W27626  36.497  30.181   1.861
59233W        W27627  26.352  33.428  12.550
59234W        W27628   3.909  26.575   4.106
59235W        W27629  25.294  21.587   3.788
59236W        W27630  33.790   6.739  10.498
59237W        W27631  12.241   1.500  14.362
59238W        W27632  35.526  37.904  12.514
59239W        W27633   1.087  40.323   4.584
59240W        W27634   9.611  11.803   1.526
59241W        W27635  33.691  26.595   0.004
59242W        W27636  12.542  37.327  13.074
59243W        W27637  22.032  21.157   3.296
59244W        W27638   3.870  13.558   2.765
59245W        W27639  40.497  44.281  14.670
59246W        W27640  20.096  23.163   4.618
59247W        W27641  18.170  15.496   1.685
59248W        W27642  29.680  18.648  14.894
59249W        W27643  32.151  33.135  11.957
59250W        W27644  20.321  33.930   0.699
59251W        W27645  30.448   6.253  11.922
59252W        W27646   6.667  39.035  10.693
59253W        W27647  32.967  11.819  10.680
59254W        W27648   7.827   3.968  14.094
59255W        W27649  18.962   8.553   1.704
59256W        W27650  23.954  15.457   0.930
59257W        W27651  43.688  44.113   4.301
59258W        W27652  21.112   8.423  14.378
59259W        W27653  31.199  31.158   0.320
59260W        W27654  27.023  39.782  14.078
59261W        W27655  43.218  28.870  13.123
59262W        W27656  44.638  36.265  11.318
59263W        W27657  33.105  28.669  12.474
59264W        W27658  13.559  41.776  13.470
59265W        W27659  21.801   5.405  14.471
59266W        W27660  39.133  37.076  10.682
59267W        W27661  38.497   8.421   3.219
59268W        W27662  38.208  35.455   0.848
59269W        W27663  16.832  22.285   3.737
59270W        W27664   1.419  17.924   3.209
59271W        W27665  30.539  13.243   3.703
59272W        W27666  20.748   3.054   2.698
59273W        W27667  22.781  15.688  11.173
59274W        W27668  29.816   4.714  11.613
59275W        W27669  40.072  25.791   3.246
59276W        W27670  32.884  30.439  12.499
59277W        W27671  22.083   4.068   1.122
59278W        W27672  19.577  29.684   3.245
59279W        W27673  28.381   4.721  13.213
59280W        W27674  24.537  11.695  13.380
59281W        W27675  29.522  40.871  14.792
59282W        W27676  32.361  18.376  10.726
59283W        W27677  14.372   6.719  13.408
59284W        W27678  14.833   2.939   3.085
59285W        W27679  40.104  18.864  10.982
59286W        W27680  32.220  21.244   0.293
59287W        W27681  34.929  12.427   3.394
59288W        W27682  22.391  33.053  11.510
59289W        W27683   9.285  34.852  14.966
59290W        W27684  37.575  28.524   0.418
59291W        W27685  30.180   3.485  13.982
59292W        W27686  12.411   0.890   3.760
59293W        W27687  12.017   6.881  14.850
59294W        W27688  29.055   3.353   4.339
59295W        W27689   0.821  37.555  11.088
59296W        W27690  14.797  38.372   4.779
59297W        W27691   9.174  42.207  12.963
59298W        W27692  44.444  14.331  14.726
59299W        W27693  37.116   9.895  14.949
59300W        W27694  15.610  24.766  12.646
59301W        W27695  33.997  43.780  12.359
59302W        W27696  31.440   6.118   3.689
59303W        W27697   6.458  28.240   4.156
59304W        W27698  14.209  41.267   3.306
59305W        W27699  23.078  12.333   2.176
59306W        W27700  26.219  15.266   3.672
59307W        W27701  43.121  40.455   5.298
59308W        W27702  12.137  21.943   1.303
59309W        W27703  23.713  27.496  14.016
59310W        W27704  35.509  43.275  14.420
59311W        W27705  24.137  41.911  13.086
59312W        W27706  11.288  40.375   0.923
59313W        W27707  37.105  21.079   4.562
59314W        W27708  39.930   6.431   0.387
59315W        W27709  11.927  30.154   1.286
59316W        W27710  42.875  34.864   5.255
59317W        W27711  33.856   8.107  10.920
59318W        W27712  31.638  44.644  14.079
59319W        W27713  44.381  14.217  11.242
59320W        W27714  36.600  27.420  12.070
59321W        W27715   6.921  17.290   0.008
59322W        W27716  41.336  15.579   0.803
59323W        W27717  32.213   8.212   2.692
59324W        W27718   8.886  15.221   1.271
59325W        W27719  35.579  15.133   2.159
59326W        W27720  24.510  38.152  13.993
59327W        W27721  23.565   8.185   3.429
59328W        W27722  10.828  26.602  13.260
59329W        W27723  22.467  10.729   2.644
59330W        W27724   2.443  27.023   3.442
59331W        W27725  29.098   6.070   0.692
59332W        W27726   7.939  28.982   3.536
59333W        W27727  19.870  16.642  10.249
59334W        W27728  19.444  40.479  14.351
59335W        W27729  17.581  35.459  12.057
59336W        W27730  40.128  13.770  13.479
59337W        W27731  37.826  42.889  14.367
59338W        W27732  42.647  36.512  13.885
59339W        W27733  37.553  14.790  12.172
59340W        W27734  37.996   3.350   3.655
59341W        W27735  34.277  32.572  14.309
59342W        W27736  44.229   0.794  14.490
59343W        W27737  14.621  35.558  12.432
59344W        W27738   3.418   7.111   1.900
59345W        W27739  27.369   4.226   4.228
59346W        W27740  43.836  12.767   2.555
59347W        W27741  42.412   4.622   3.046
59348W        W27742  29.968  21.230   4.082
59349W        W27743  37.764  27.390   2.065
59350W        W27744  11.161  20.768  12.396
59351W        W27745  21.805   4.388  14.478
59352W        W27746  27.553   9.140  10.504
59353W        W27747  16.741  20.099   1.282
59354W        W27748  11.703  36.981   0.771
59355W        W27749  14.699  39.305  12.861
59356W        W27750  12.117  39.033   0.472
59357W        W27751   5.705  16.299   1.455
59358W        W27752  40.003  22.247  13.940
59359W        W27753  38.101  14.826   2.707
59360W        W27754   2.382  29.865   2.993
59361W        W27755  19.293   8.325   2.494
59362W        W27756  30.182  37.017  11.585
59363W        W27757  36.975  33.597  10.595
59364W        W27758  38.552  34.394  13.392
59365W        W27759  31.051  20.621  14.341
59366W        W27760  39.424  30.606  12.705
59367W        W27761  18.080  25.400  10.601
59368W        W27762  34.650  35.517   1.651
59369W        W27763  15.808   0.751   1.413
59370W        W27764   5.353   1.011  13.592
59371W        W27765  25.703  28.837  14.012
59372W        W27766  20.654  14.312  12.221
59373W        W27767   2.366   9.032   1.378
59374W        W27768  25.996  28.167  12.497
59375W        W27769  39.042  34.442   1.826
59376W        W27770  32.171  33.996  14.743
59377W        W27771  18.138  20.651   4.743
59378W        W27772  33.653  21.022  14.855
59379W        W27773  12.516  10.593   0.456
59380W        W27774  12.853  35.124   3.366
59381W        W27775  25.221  26.130  11.999
59382W        W27776  23.962  13.734  10.763
59383W        W27777  24.788  12.631   0.982
59384W        W27778   6.348  43.014   2.357
59385W        W27779  18.543  11.346  11.089
59386W        W27780  25.768   8.383  11.666
59387W        W27781  33.601  22.992  13.578
59388W        W27782   6.465  34.151   2.259
59389W        W27783   8.005  44.371  13.098
59390W        W27784  39.331  29.685  13.024
59391W        W27785  36.892   0.445   3.171
59392W        W27786  40.847  36.358   4.441
59393W        W27787  16.232  37.932   0.557
59394W        W27788  28.274  24.347   2.522
59395W        W27789   5.963  26.116  13.493
59396W        W27790  38.623   8.386   3.760
59397W        W27791  15.284   4.861   0.773
59398W        W27792  19.615  38.302  14.559
59399W        W27793  10.049  21.283  11.938
59400W        W27794  28.390  22.191  14.302
59401W        W27795  39.335  21.835  11.595
59402W        W27796  33.432   4.409   4.222
59403W        W27797   1.984   2.286   4.384
59404W        W27798  24.978  39.672   1.249
59405W        W27799  22.978  38.257  14.358
59406W        W27800  32.128  26.696  14.731
59407W        W27801  28.490   6.377  13.072
59408W        W27802  31.841  42.904   2.909
59409W        W27803  11.369  20.881  14.278
59410W        W27804  19.534  28.056   5.553
59411W        W27805  14.921  35.553   3.322
59412W        W27806  21.795  14.157  12.988
59413W        W27807  42.994  18.650   0.581
59414W        W27808  31.172  22.022   3.298
59415W        W27809  28.364  18.181   2.338
59416W        W27810  12.950  30.421   1.072
59417W        W27811  17.648  26.544  13.585
59418W        W27812  11.275  15.605  12.451
59419W        W27813   9.613  38.055  12.003
59420W        W27814   6.338   8.050  13.068
59421W        W27815   1.607   6.742   3.099
59422W        W27816  38.307  12.775   2.755
59423W        W27817  38.283   8.862  14.746
59424W        W27818  24.853  25.016  13.042
59425W        W27819  29.552  21.578   4.061
59426W        W27820   0.961  21.220  13.194
59427W        W27821  34.597   9.764   0.919
59428W        W27822  17.316   9.002   3.865
59429W        W27823  42.870   2.005   1.719
59430W        W27824   3.500   4.560  13.587
59431W        W27825   5.478  30.505   1.485
59432W        W27826   8.643   4.972  13.561
59433W        W27827  42.929  21.206   3.773
59434W        W27828  30.449  38.040   1.732
59435W        W27829  18.673  15.337   0.889
59436W        W27830  12.861  35.919   0.974
59437W        W27831   3.636  20.315  13.131
59438W        W27832  30.027   0.018   0.908
59439W        W27833   9.109  27.006  12.087
59440W        W27834  32.638  43.004   4.228
59441W        W27835  10.679  18.136  12.957
59442W        W27836  27.956  11.845   2.285
59443W        W27837  25.261  43.350  11.324
59444W        W27838  16.817   2.806   0.866
59445W        W27839  38.940  19.132  11.251
59446W        W27840  39.413   9.255   4.811
59447W        W27841  10.816  44.513   3.826
59448W        W27842  43.867  36.952  13.432
59449W        W27843   4.353  32.592  11.584
59450W        W27844  37.019  33.437  12.963
59451W        W27845  13.534  24.003   4.809
59452W        W27846  35.962   2.620   3.272
59453W        W27847  13.238  14.535   3.774
59454W        W27848  10.696  23.945  10.745
59455W        W27849  22.876  43.460  11.904
59456W        W27850  20.192   2.589  14.741
59457W        W27851   3.343  27.532  14.927
59458W        W27852  12.771  29.090   0.918
59459W        W27853  12.196  43.252  14.337
59460W        W27854   4.897  15.116   2.840
59461W        W27855  17.975  18.039   3.820
59462W        W27856  31.364  31.513  12.892
59463W        W27857  27.114  33.616  13.065
59464W        W27858  26.025  31.007   4.985
59465W        W27859  31.873  35.567  10.582
59466W        W27860  32.387  12.580  14.280
59467W        W27861  31.895  31.417   3.085
59468W        W27862  43.448  27.662   1.278
59469W        W27863   8.135  35.589   3.198
59470W        W27864  38.371  14.065  12.997
59471W        W27865   2.356  39.590  12.080
59472W        W27866  39.184  16.323   1.976
59473W        W27867   1.234  42.479  12.776
59474W        W27868   8.222  23.467  12.497
59475W        W27869  18.304  19.623  14.756
59476W        W27870  12.139   3.111  11.653
59477W        W27871  11.836  33.544  13.938
59478W        W27872  13.800  22.029   1.404
59479W        W27873  26.362   8.849   5.000
59480W        W27874  42.987  31.462  12.957
59481W        W27875  30.838  12.606  14.370
59482W        W27876  44.220   7.248   3.744
59483W        W27877   6.397  15.776   3.620
59484W        W27878  36.127  30.153   4.625
59485W        W27879  32.925  44.833  11.489
59486W        W27880  39.480  32.624   1.358
59487W        W27881  20.288  42.077   0.375
59488W        W27882  12.251  22.769   1.787
59489W        W27883  42.325  40.043   3.759
59490W        W27884   1.535  40.737  12.607
59491W        W27885  21.241  31.432   1.028
59492W        W27886   7.810  18.832   3.781
59493W        W27887   4.190  43.188  12.441
59494W        W27888  19.216  38.067   3.740
59495W        W27889  41.533  33.888   4.481
59496W        W27890  21.068  29.370   1.360
59497W        W27891  44.098  33.611  12.101
59498W        W27892  39.058  43.315   3.595
59499W        W27893  25.717  14.240   2.701
59500W        W27894   1.945   7.012  14.854
59501W        W27895  35.816  41.730  12.451
59502W        W27896  34.070  17.059   0.065
59503W        W27897  13.375  36.687  13.903
59504W        W27898  11.129  35.321   2.323
59505W        W27899  10.279  37.555   4.670
59506W        W27900  28.946  14.053   3.088
59507W        W27901  19.669  27.969  14.570
59508W        W27902  17.781  32.130  12.613
59509W        W27903  43.553  36.123   3.624
59510W        W27904   4.420  13.434   2.180
59511W        W27905  12.453  26.667  11.560
59512W        W27906  12.224   6.902  11.913
59513W        W27907  43.318  25.695   3.687
59514W        W27908  37.942  30.088   4.432
59515W        W27909  38.081   5.333  12.448
59516W        W27910  12.958   4.354   3.646
59517W        W27911  13.107  28.146   0.857
59518W        W27912  39.116  12.111  13.917
59519W        W27913  40.463  20.054  11.401
59520W        W27914  10.356  22.524  13.601
59521W        W27915  20.844  14.345  11.723
59522W        W27916  33.125  31.119  12.060
59523W        W27917   6.789   1.629  14.865
59524W        W27918  32.455  38.468   1.370
59525W        W27919  42.438   6.434   3.718
59526W        W27920   0.914   7.362  13.964
59527W        W27921   7.440  31.683  13.778
59528W        W27922  30.693   3.272  13.306
59529W        W27923   0.055   8.111   1.475
59530W        W27924  14.282   2.187   1.873
59531W        W27925  31.540   1.710  12.524
59532W        W27926   1.057  17.595  11.612
59533W        W27927   4.719  26.358  13.407
59534W        W27928  13.557   2.785  12.046
59535W        W27929  33.599  41.992  13.434
59536W        W27930  22.697  13.994   3.050
59537W        W27931  22.265  36.987  11.202
59538W        W27932  23.433  35.685  13.140
59539W        W27933  44.413  27.849  10.525
59540W        W27934  43.476  15.645  11.985
59541W        W27935  13.236  13.097   2.867
59542W        W27936  27.507  39.948   2.854
59543W        W27937   1.329  29.618  11.639
59544W        W27938  28.516  41.093   3.114
59545W        W27939  35.009  20.197   4.551
59546W        W27940  18.999  28.683   0.770
59547W        W27941  27.499  10.882  13.972
59548W        W27942  28.696  17.157   1.854
59549W        W27943  33.417  10.255  13.532
59550W        W27944   7.478  14.062  10.253
59551W        W27945  10.742  15.782  13.761
59552W        W27946  10.294   8.100  10.651
59553W        W27947  11.731  24.908  11.195
59554W        W27948  19.209  38.193   5.441
59555W        W27949  12.289   3.085  12.657
59556W        W27950  30.624   8.304  12.996
59557W        W27951   5.970   2.361   2.796
59558W        W27952   1.370  28.505  14.880
59559W        W27953  38.313  29.109   0.986
59560W        W27954  11.214  40.793  11.812
59561W        W27955   9.818  11.724   2.477
59562W        W27956  27.014  20.621   4.059
59563W        W27957  11.541   4.491   3.243
59564W        W27958  32.677  42.531   2.531
59565W        W27959   6.335   1.652   2.389
59566W        W27960  13.071  29.293   2.764
59567W        W27961  28.175  28.430   3.680
59568W        W27962  25.006   1.015  12.531
59569W        W27963  39.323  22.437   2.134
59570W        W27964  28.048  32.086   1.519
59571W        W27965  35.576  15.726  12.464
59572W        W27966   3.370  26.940   1.813
59573W        W27967  16.249  16.125  10.730
59574W        W27968  30.818   1.847  13.036
59575W        W27969  42.759  21.969   0.872
59576W        W27970   4.038   6.937   3.257
59577W        W27971  15.869  37.799   2.799
59578W        W27972  24.514  43.307  10.258
59579W        W27973  38.800  42.114  10.921
59580W        W27974  36.305  23.566   1.787
59581W        W27975   4.174   4.470  11.206
59582W        W27976  27.533  17.621   1.988
59583W        W27977  34.396  39.480  10.520
59584W        W27978  18.633   1.208  13.550
59585W        W27979   8.545  42.306  11.645
59586W        W27980   6.752  21.513   4.864
59587W        W27981  33.646  16.777  14.278
59588W        W27982   0.516  28.888  10.407
59589W        W27983  23.477   2.545  10.692
59590W        W27984  13.128  21.486   3.649
59591W        W27985   3.400  35.954  14.348
59592W        W27986  26.895  17.761   0.721
59593W        W27987  12.181  19.234   0.744
59594W        W27988  42.061  24.678   1.326
59595W        W27989  24.226  36.784  11.146
59596W        W27990  31.504  23.505   2.686
59597W        W27991  21.073   4.428  11.070
59598W        W27992   7.342  18.816  14.853
59599W        W27993  34.178  23.140   3.307
59600W        W27994  42.285   2.851  13.877
59601W        W27995  32.012  23.775  12.528
59602W        W27996  29.906  38.625  13.074
59603W        W27997  12.228  24.683  13.277
59604W        W27998   7.109  28.562  11.377
59605W        W27999   9.738  36.575  12.947
59606W        W28000  22.063   7.592   2.591
59607W        W28001  36.766  42.512  11.798
59608W        W28002  19.669   3.890  11.017
59609W        W28003  20.688  41.893  10.515
59610W        W28004   3.777  34.541  14.018
59611W        W28005  14.971  26.961   2.802
59612W        W28006  34.942  27.949  14.863
59613W        W28007  39.261  24.795   2.190
59614W        W28008   5.558  43.356  10.814
59615W        W28009  10.473  28.210   0.228
59616W        W28010  40.954  18.605   3.328
59617W        W28011  39.466  44.006   1.435
59618W        W28012  42.251  30.928  14.409
59619W        W28013  37.346  15.653  10.608
59620W        W28014  44.766  38.887  11.097
59621W        W28015   3.879  16.203  10.209
59622W        W28016  10.505  11.227   3.755
59623W        W28017  21.997  11.031   0.502
59624W        W28018   1.804  22.015  14.748
59625W        W28019  15.792  34.415  14.389
59626W        W28020  31.991  39.019  12.154
59627W        W28021  26.651  33.927  12.835
59628W        W28022   1.319  29.933  13.640
59629W        W28023  37.405  13.417   0.771
59630W        W28024  39.619  17.193  14.830
59631W        W28025   5.421   3.404   3.169
59632W        W28026  32.070  21.213   3.703
59633W        W28027  27.578  10.369  13.959
59634W        W28028  22.090   4.499  14.882
59635W        W28029  23.873  39.562   2.116
59636W        W28030  21.169  35.617   1.821
59637W        W28031   0.537   0.971  11.599
59638W        W28032   1.942   7.593   2.576
59639W        W28033  38.298  16.915   4.685
59640W        W28034  18.593  21.778   3.233
59641W        W28035  26.862  16.632  12.925
59642W        W28036  12.682  29.058  13.952
59643W        W28037  17.815  21.130  13.045
59644W        W28038  38.938  16.598  14.308
59645W        W28039   0.858  35.025   4.395
59646W        W28040  40.079  27.077  10.659
59647W        W28041  32.600  12.908   3.883
59648W        W28042   2.218   4.720  13.482
59649W        W28043  13.617  22.761  12.907
59650W        W28044  21.947  13.571  11.359
59651W        W28045   4.210  25.265  10.788
59652W        W28046  36.033  38.598  13.091
59653W        W28047  43.601  31.377  14.083
59654W        W28048   1.038  42.945   0.786
59655W        W28049  24.464  12.953   0.724
59656W        W28050  32.054  31.675   3.970
59657W        W28051  10.825  43.097   0.836
59658W        W28052  40.278  27.053  13.639
59659W        W28053  31.223   0.515  11.998
59660W        W28054   1.762  41.347  13.332
59661W        W28055  14.296  42.995   2.797
59662W        W28056  34.151  31.446   2.682
59663W        W28057  41.007  14.032  14.820
59664W        W28058  19.265  40.408  12.120
59665W        W28059  42.621  43.971   1.798
59666W        W28060  29.212  22.660   4.380
59667W        W28061   5.639  13.347  11.611
59668W        W28062   8.170  43.041   4.637
59669W        W28063  18.268   1.761   1.788
59670W        W28064   2.149   1.473   5.126
59671W        W28065  42.464  39.807   3.089
59672W        W28066  41.026  29.122  12.483
59673W        W28067  20.445  33.596  11.175
59674W        W28068  33.815  38.769  12.076
59675W        W28069  20.566   1.793   4.860
59676W        W28070  20.283  42.099  13.362
59677W        W28071  23.645  26.007   2.672
59678W        W28072  21.512   7.315   0.046
59679W        W28073  24.550  35.509  14.914
59680W        W28074  42.235  11.328   1.413
59681W        W28075  38.279  17.322   3.272
59682W        W28076  21.732  16.549  12.859
59683W        W28077  19.404  31.102   3.364
59684W        W28078  40.352  26.178  11.147
59685W        W28079  17.388  27.892  10.190
59686W        W28080  29.209  29.119  12.503
59687W        W28081  37.500  33.160   2.210
59688W        W28082  38.818  21.241   1.343
59689W        W28083  27.864   2.441   4.617
59690W        W28084  39.512  34.857  11.545
59691W        W28085  41.009   7.618   2.070
59692W        W28086  29.678  12.594   4.065
59693W        W28087  11.106   7.528   2.237
59694W        W28088   9.779  27.193   3.378
59695W        W28089  22.773  10.893   1.597
59696W        W28090  10.494  11.246  11.522
59697W        W28091  30.114  19.682   1.160
59698W        W28092  14.312  42.654   1.877
59699W        W28093  23.719  25.481   2.775
59700W        W28094  30.208  24.196  11.777
59701W        W28095   5.815   1.496   4.629
59702W        W28096  35.065  15.790   1.733
59703W        W28097  42.418  11.678  12.539
59704W        W28098  22.020   0.376   2.385
59705W        W28099  39.881  25.566  10.735
59706W        W28100  36.602  15.922   1.468
59707W        W28101  44.351  31.825  13.557
59708W        W28102  28.897   9.425   2.549
59709W        W28103  43.278  10.997   2.064
59710W        W28104  40.937  38.269   3.634
59711W        W28105  14.172   5.718  12.473
59712W        W28106   2.012  34.438  11.665
59713W        W28107  13.882  24.140  12.563
59714W        W28108  44.244  37.470   0.904
59715W        W28109  38.598  26.653   0.400
59716W        W28110  29.126  44.217   1.734
59717W        W28111  14.229  38.500  12.101
59718W        W28112  15.884  27.489   0.679
59719W        W28113   8.182  25.621  11.742
59720W        W28114  18.633   6.619   0.985
59721W        W28115   1.471  42.572   0.835
59722W        W28116  42.961  18.238  12.936
59723W        W28117  18.087  39.650   4.143
59724W        W28118  43.277  40.996   0.740
59725W        W28119  38.800  38.250   4.643
59726W        W28120  42.010  27.745  13.009
59727W        W28121  29.587  30.715  14.431
59728W        W28122   8.647  42.876   2.914
59729W        W28123  22.696  21.700   0.064
59730W        W28124  27.561   0.772  11.273
59731W        W28125  43.378  42.562   3.641
59732W        W28126  10.292  29.104   0.256
59733W        W28127  16.503  41.682   0.776
59734W        W28128  31.943  31.891   4.449
59735W        W28129  14.467   7.954   4.711
59736W        W28130  13.660  39.589   1.407
59737W        W28131  37.067  34.991  12.422
59738W        W28132  28.856   4.700   0.645
59739W        W28133  29.527  14.165   3.827
59740W        W28134  23.774  37.022  12.965
59741W        W28135   6.943  37.855  14.888
59742W        W28136  39.298  30.708   2.766
59743W        W28137  30.104   4.617   1.335
59744W        W28138   7.981  38.359  12.648
59745W        W28139  33.968  19.769  12.950
59746W        W28140  16.321  34.055   3.673
59747W        W28141  42.008  34.443  11.630
59748W        W28142  29.767  15.436   0.931
59749W        W28143   5.755  44.946  14.941
59750W        W28144  38.797  11.780  12.032
59751W        W28145  44.228  38.967  13.428
59752W        W28146  25.526  18.173  13.917
59753W        W28147  36.595   4.599   4.101
59754W        W28148  32.984   3.746   2.252
59755W        W28149  24.520   2.769   4.720
59756W        W28150  21.133  39.734  11.270
59757W        W28151  33.828  22.426  14.377
59758W        W28152  38.891   4.673   0.747
59759W        W28153   9.920  26.760  13.786
59760W        W28154  30.093  40.259  14.314
59761W        W28155  34.841  24.206  12.972
59762W        W28156  37.835  28.410  10.695
59763W        W28157   1.286  27.143  11.237
59764W        W28158  11.923  19.122  11.651
59765W        W28159  30.097   3.152  10.795
59766W        W28160  16.327  17.249   0.736
59767W        W28161  43.128   6.524  13.762
59768W        W28162  33.372  29.019  13.873
59769W        W28163  43.139  39.176   1.426
59770W        W28164  29.654  23.715   4.648
59771W        W28165  23.528   8.260  12.058
59772W        W28166  40.317   1.683   4.263
59773W        W28167  28.225  30.616   2.181
59774W        W28168  26.058  13.872   4.903
59775W        W28169  37.593  36.946   4.475
59776W        W28170   6.191  10.113  11.084
59777W        W28171  26.670  12.237   1.185
59778W        W28172  12.178  31.553   2.355
59779W        W28173  32.906   7.785   3.627
59780W        W28174  34.480  11.633   3.112
59781W        W28175  31.024  36.118   0.877
59782W        W28176  34.175  30.498   1.912
59783W        W28177  24.520  12.135   5.520
59784W        W28178  10.351  23.964   2.763
59785W        W28179  22.642  33.650  14.791
59786W        W28180   2.715  11.111  13.965
59787W        W28181   4.883  27.267   4.970
59788W        W28182  18.818  37.304   3.629
59789W        W28183  44.458  21.679   2.170
59790W        W28184  30.668  27.726   1.658
59791W        W28185  17.641  37.349  11.647
59792W        W28186   1.324  44.489  12.083
59793W        W28187  14.606   2.681  11.175
59794W        W28188   0.656  24.766   0.461
59795W        W28189  43.748   7.253   0.701
59796W        W28190  16.676  43.575  12.106
59797W        W28191  20.681  16.096   2.387
59798W        W28192  11.137  41.528   0.315
59799W        W28193  37.831  40.894   0.714
59800W        W28194  12.722  33.053   3.454
59801W        W28195  15.615  26.336   0.547
59802W        W28196  26.109   7.881  11.608
59803W        W28197   8.866   7.726  13.451
59804W        W28198  24.001  39.112   3.733
59805W        W28199  24.094  35.848   0.002
59806W        W28200  10.320  10.724  12.844
59807W        W28201  42.962   2.531  12.348
59808W        W28202  25.873   8.713   4.090
59809W        W28203  28.851  22.101  10.640
59810W        W28204  10.633  29.645   0.385
59811W        W28205  32.527  33.525   9.809
59812W        W28206  16.063  40.127   4.606
59813W        W28207   5.201  35.506  11.523
59814W        W28208  24.426  41.868   4.883
59815W        W28209   0.024  30.009   3.202
59816W        W28210   0.652  17.645  11.958
59817W        W28211  35.892  19.128  10.682
59818W        W28212   0.224  12.841  12.181
59819W        W28213  22.717  22.931  12.158
59820W        W28214   7.405  19.073  13.292
59821W        W28215  20.501  10.875   2.444
59822W        W28216  42.951  11.827  14.792
59823W        W28217  14.245  20.298  12.095
59824W        W28218   0.310  30.566   0.773
59825W        W28219  14.146   1.842  12.884
59826W        W28220   5.214  14.677  14.360
59827W        W28221  12.722  12.853  13.110
59828W        W28222   4.173  41.513   1.649
59829W        W28223  10.626  24.003  13.352
59830W        W28224   8.769  23.362  10.700
59831W        W28225   7.439  31.069  14.963
59832W        W28226  10.269  44.870   4.921
59833W        W28227  19.539  26.926   0.400
59834W        W28228   7.519  29.438   3.313
59835W        W28229  44.251  44.276   3.773
59836W        W28230   4.410  16.086  11.011
59837W        W28231  34.891  23.791  12.648
59838W        W28232  21.453  40.083  13.220
59839W        W28233   7.542  22.883  11.039
59840W        W28234  20.483   7.090  11.015
59841W        W28235  17.157  32.745  13.388
59842W        W28236  20.506   9.316  11.459
59843W        W28237  33.688  12.736   4.707
59844W        W28238  31.468   4.961  14.336
59845W        W28239  25.974  28.881   0.232
59846W        W28240  33.880  41.943   4.572
59847W        W28241  33.719  19.543   4.557
59848W        W28242  16.260  11.352  12.434
59849W        W28243  39.994  26.608   1.724
59850W        W28244  43.407  14.152   0.737
59851W        W28245  14.093  27.188   4.793
59852W        W28246  32.428   9.374   1.066
59853W        W28247  13.865   6.628   1.999
59854W        W28248   1.323  41.059  12.972
59855W        W28249  35.040  30.553  10.813
59856W        W28250  27.236  32.516   1.460
59857W        W28251   7.690  39.492  11.143
59858W        W28252  19.653  42.920  12.106
59859W        W28253  40.824   2.894  12.162
59860W        W28254  24.091  11.457   4.418
59861W        W28255  29.395  37.288  12.848
59862W        W28256   2.498  24.760  13.980
59863W        W28257   1.554   6.936  13.359
59864W        W28258  19.694  37.058  11.901
59865W        W28259   5.770  31.869  13.517
59866W        W28260  44.988  40.895   0.844
59867W        W28261   9.239   4.212  10.619
59868W        W28262  21.054  36.615  12.590
59869W        W28263  36.950  18.279   4.990
59870W        W28264   8.272  40.142   4.311
59871W        W28265  16.746  22.009  11.515
59872W        W28266  43.535  23.427   1.382
59873W        W28267   7.643  35.147   0.295
59874W        W28268  10.940  38.027   0.947
59875W        W28269  39.462   8.079  12.914
59876W        W28270  20.735  32.735  13.782
59877W        W28271  35.025   2.243  11.073
59878W        W28272  28.969  29.213   4.409
59879W        W28273  44.868  14.587   0.742
59880W        W28274  26.209   7.451  10.651
59881W        W28275   0.618  11.952   0.054
59882W        W28276   9.754  26.385   2.375
59883W        W28277  17.087  34.141  13.883
59884W        W28278  37.963  40.013   4.581
59885W        W28279  34.109   6.627   3.705
59886W        W28280   2.019  35.869  13.463
59887W        W28281  12.816  34.526   2.389
59888W        W28282  25.225  42.461   2.798
59889W        W28283   9.664   4.314   3.740
59890W        W28284  15.371  18.141  10.638
59891W        W28285   7.902  32.214   3.788
59892W        W28286  42.326  27.352   2.888
59893W        W28287  24.228  28.352  12.143
59894W        W28288  40.789   9.019  14.863
59895W        W28289   3.274   2.771   4.056
59896W        W28290  39.296  14.888  13.936
59897W        W28291  31.885  15.440   1.318
59898W        W28292  29.609   5.141   1.829
59899W        W28293   0.383   5.857  14.857
59900W        W28294  41.920  17.087   1.366
59901W        W28295  11.713   6.863   1.817
59902W        W28296  44.788  23.480   0.071
59903W        W28297  26.949  34.626  10.628
59904W        W28298  40.032   9.124   0.341
59905W        W28299  35.697  43.306  12.891
59906W        W28300  15.495   4.111  12.089
59907W        W28301  42.399  28.214  11.598
59908W        W28302   9.821  40.453  13.979
59909W        W28303  42.023  15.603  13.840
59910W        W28304  10.181  10.697  14.878
59911W        W28305  11.829  15.601  14.270
59912W        W28306   2.233  22.720  10.678
59913W        W28307  11.641  33.669  12.924
59914W        W28308  23.875  31.515   0.146
59915W        W28309  33.020  20.319  13.339
59916W        W28310  35.164   7.141   0.473
59917W        W28311  42.154  19.707   9.848
59918W        W28312  41.817  33.464   3.784
59919W        W28313  12.704  38.312  12.762
59920W        W28314  22.943   7.616   1.896
59921W        W28315   8.891  11.470  12.119
59922W        W28316  18.174   0.306   1.184
59923W        W28317  19.287   8.167  12.060
59924W        W28318   9.157  36.118   0.278
59925W        W28319   0.370   6.667  11.259
59926W        W28320  22.026  40.195  13.975
59927W        W28321   7.599   6.737   0.222
59928W        W28322  35.985  38.611  13.647
59929W        W28323  35.020  42.131  11.940
59930W        W28324  22.050  28.686   1.751
59931W        W28325   3.637  34.506   0.958
59932W        W28326  23.643  34.827  10.806
59933W        W28327   0.681  21.304   2.063
59934W        W28328  18.467  26.822  13.461
59935W        W28329  21.661  15.254   1.669
59936W        W28330  23.254  31.113  11.639
59937W        W28331  34.623  27.146  12.574
59938W        W28332   8.765  22.633  12.383
59939W        W28333  16.232  20.307  14.328
59940W        W28334  35.390  42.347  14.101
59941W        W28335  22.943  16.660   0.780
59942W        W28336   6.598  32.177   4.499
59943W        W28337   7.295  41.100   2.776
59944W        W28338  33.621  32.014  12.887
59945W        W28339   3.887  20.901  11.496
59946W        W28340  43.504   0.183   1.509
59947W        W28341  42.939   4.757  12.922
59948W        W28342  17.658  35.850  12.408
59949W        W28343  22.770  13.632   0.729
59950W        W28344   7.302   9.914  13.858
59951W        W28345   7.150  25.717  11.589
59952W        W28346   8.001  33.764   4.660
59953W        W28347  14.490  25.670   3.368
59954W        W28348  33.911  11.364  12.344
59955W        W28349  21.998   6.829   3.294
59956W        W28350  27.171  19.991  14.115
59957W        W28351  23.745  41.964   1.148
59958W        W28352  32.670  35.012   0.488
59959W        W28353  10.058  27.079  14.782
59960W        W28354  36.583  39.239   0.734
59961W        W28355  13.929  26.190  13.256
59962W        W28356  34.083   8.781   0.953
59963W        W28357   3.402  19.363  12.387
59964W        W28358  10.361  29.534  14.962
59965W        W28359  19.743  10.325   2.912
59966W        W28360  23.394  29.466   1.005
59967W        W28361  31.665  36.894   0.304
59968W        W28362  28.695   6.873  12.145
59969W        W28363   6.899  14.031  13.922
59970W        W28364  32.447  14.312  14.401
59971W        W28365  33.504   3.734  14.430
59972W        W28366  12.327  10.838   2.717
59973W        W28367  26.483  11.724  14.497
59974W        W28368  12.030  41.584  14.535
59975W        W28369  33.388   2.879  13.883
59976W        W28370  35.444  41.448   3.864
59977W        W28371  41.167  28.927  11.552
59978W        W28372  38.242  37.456   4.104
59979W        W28373  30.873  29.116  10.693
59980W        W28374  10.875  18.339  11.496
59981W        W28375  25.025  44.290  12.571
59982W        W28376  39.491   3.204  13.376
59983W        W28377  20.758  11.578  10.907
59984W        W28378  34.782  10.900   1.762
59985W        W28379   6.869  14.936   1.958
59986W        W28380  11.226   0.386   2.192
59987W        W28381  42.191  21.251  11.123
59988W        W28382  26.545  11.289   0.731
59989W        W28383  37.166  18.668   2.690
59990W        W28384  17.252  44.467   0.311
59991W        W28385  14.605  28.889   1.173
59992W        W28386  26.607  24.080   0.079
59993W        W28387   1.214  14.179   1.221
59994W        W28388  33.077  33.071   1.342
59995W        W28389  20.838   8.603  11.937
59996W        W28390  27.058  37.253  12.002
59997W        W28391  24.551  26.444   2.109
59998W        W28392  40.968  29.243   2.377
59999W        W28393  40.023   9.347   3.166
60000W        W28394  41.399  36.625   2.844
60001W        W28395   2.723  33.633   2.368
60002W        W28396  37.119  35.312  11.991
60003W        W28397  13.229  40.586   5.313
60004W        W28398   3.151  25.398   2.841
60005W        W28399  13.211  17.348   2.756
60006W        W28400  38.743  40.074   2.246
60007W        W28401  16.639  13.078   4.564
60008W        W28402  21.522  36.067   2.258
60009W        W28403  41.014  28.559  11.980
60010W        W28404   0.440  33.373  14.841
60011W        W28405  13.059  12.645  12.354
60012W        W28406   0.858  28.110  13.837
60013W        W28407  37.556   5.987   2.299
60014W        W28408  27.183  18.799  14.978
60015W        W28409  44.489   1.592  14.309
60016W        W28410  25.792  21.618  10.737
60017W        W28411  20.145  43.257   2.768
60018W        W28412  16.215  11.145  13.420
60019W        W28413  28.361  36.793   1.234
60020W        W28414  42.283  13.604  12.998
60021W        W28415  39.891  35.153   4.695
60022W        W28416  38.465  20.713   1.864
60023W        W28417   8.627  22.264   0.908
60024W        W28418  20.187  21.558  14.585
60025W        W28419  22.611  37.901  13.301
60026W        W28420   7.078  40.243  12.053
60027W        W28421  24.592  10.674   4.120
60028W        W28422   6.159  18.977  11.580
60029W        W28423  15.381  33.925   0.442
60030W        W28424   6.950  27.580  10.655
60031W        W28425   4.888  18.350   1.482
60032W        W28426  27.085  34.732  14.038
60033W        W28427  12.353  13.910  11.986
60034W        W28428  34.473  15.707   0.540
60035W        W28429   5.774   2.434   3.278
60036W        W28430   8.779  13.693  14.719
60037W        W28431  21.539   8.674   0.258
60038W        W28432  24.862  23.050  11.226
60039W        W28433  12.907  32.458  11.239
60040W        W28434  34.413  34.429   1.742
60041W        W28435  42.935   6.772   4.491
60042W        W28436  21.185   3.723   1.312
60043W        W28437   2.247  30.233   1.270
60044W        W28438  22.051   8.829  14.100
60045W        W28439  14.861  37.318   0.043
60046W        W28440   4.377   7.711   1.951
60047W        W28441   6.331  28.926  11.417
60048W        W28442   6.952  14.797  11.164
60049W        W28443  28.986  16.179  13.519
60050W        W28444  37.366  21.615  12.437
60051W        W28445  35.928  36.039   1.697
60052W        W28446  26.457  17.477   0.727
60053W        W28447   2.414  43.962  13.648
60054W        W28448   8.608  37.487  12.674
60055W        W28449   5.333  22.628  11.242
60056W        W28450  17.802  38.878   1.133
60057W        W28451  15.787  20.123   0.327
60058W        W28452   1.524  29.535   4.801
60059W        W28453  43.877  12.626  14.376
60060W        W28454  17.528   3.979  13.439
60061W        W28455  37.017  36.001   0.950
60062W        W28456  38.398  13.330  11.328
60063W        W28457   8.820  37.793   1.733
60064W        W28458   3.258  26.783   1.288
60065W        W28459  20.432  15.248  12.643
60066W        W28460  19.052   0.413  14.951
60067W        W28461  33.528  21.418  14.327
60068W        W28462  32.542   9.767  13.278
60069W        W28463  21.819  44.005   0.768
60070W        W28464  44.112  38.573  14.291
60071W        W28465  41.147  22.818  13.528
60072W        W28466  41.581   3.897   3.716
60073W        W28467  44.665  43.735  13.993
60074W        W28468  44.898   2.346   3.378
60075W        W28469  41.394  14.121   3.930
60076W        W28470   9.275  42.838   0.584
60077W        W28471  38.073   4.859   1.624
60078W        W28472  13.768   4.861  13.298
60079W        W28473  43.895  32.427  11.394
60080W        W28474  41.931   2.734   2.245
60081W        W28475  32.044  42.884   1.417
60082W        W28476  32.131   6.846  12.042
60083W        W28477  27.181  25.588   2.433
60084W        W28478  19.075  44.042  12.498
60085W        W28479  10.302  15.236  10.403
60086W        W28480  35.561  18.532  14.456
60087W        W28481  21.669  30.170  12.452
60088W        W28482  22.502  27.605   0.957
60089W        W28483   0.168   4.870  14.076
60090W        W28484  17.316   7.828   3.121
60091W        W28485  24.599   4.652   2.844
60092W        W28486  19.462  13.377  11.977
60093W        W28487  28.572  12.224   1.940
60094W        W28488   0.026   8.318   1.989
60095W        W28489  25.128  23.630   4.462
60096W        W28490  42.816  43.877   2.318
60097W        W28491  42.543   7.363   2.761
60098W        W28492  39.315  19.809  10.680
60099W        W28493   8.623   7.821  13.913
60100W        W28494  18.256  42.312  12.574
60101W        W28495   2.906  15.654   2.173
60102W        W28496  18.178  13.231   2.367
60103W        W28497  31.009  37.796  14.219
60104W        W28498  12.771  35.344  11.814
60105W        W28499  15.287  40.873  12.533
60106W        W28500   6.292  34.511   1.788
60107W        W28501  33.884  39.796   4.171
60108W        W28502  30.167  26.433  13.388
60109W        W28503  38.572   9.508   3.147
60110W        W28504  30.195  14.690   2.637
60111W        W28505  23.443   7.985   0.382
60112W        W28506  32.885  26.626  12.380
60113W        W28507  22.011  15.593  14.227
60114W        W28508   6.818  33.623   2.691
60115W        W28509  20.144  16.593   1.210
60116W        W28510   1.413  32.596   3.860
60117W        W28511  39.982  37.854   0.222
60118W        W28512   9.760  36.971  13.279
60119W        W28513  28.231  24.445   3.724
60120W        W28514  23.803   1.923  14.122
60121W        W28515  37.333  43.037  10.586
60122W        W28516   7.360  15.841   0.628
60123W        W28517  23.357  44.811  13.074
60124W        W28518   9.942  11.987  12.017
60125W        W28519  14.982  20.072  14.138
60126W        W28520  14.806   4.652   3.895
60127W        W28521  44.034  20.052  10.659
60128W        W28522  26.174   6.250   2.763
60129W        W28523   1.747  31.396   0.791
60130W        W28524  35.418  28.911  13.436
60131W        W28525  26.048  31.448  12.081
60132W        W28526  22.270  36.548  12.059
60133W        W28527  33.081  19.968  12.911
60134W        W28528  24.239   3.852  12.797
60135W        W28529  43.786   7.670  10.670
60136W        W28530  22.464  10.158  13.166
60137W        W28531   3.459  28.857   0.373
60138W        W28532  20.559  26.503  11.354
60139W        W28533  12.077   0.065  10.650
60140W        W28534   7.226  30.390  14.571
60141W        W28535  16.124   4.390   3.054
60142W        W28536  23.265  34.677  13.954
60143W        W28537  12.408  31.075   4.305
60144W        W28538  29.205  34.605  12.882
60145W        W28539  25.987  19.143  13.299
60146W        W28540   6.302  19.820  14.971
60147W        W28541  36.089  18.339  12.297
60148W        W28542  27.374   9.215   3.214
60149W        W28543  29.298  18.986   1.389
60150W        W28544  42.306  28.441   3.373
60151W        W28545  10.853  25.726  13.495
60152W        W28546  28.158  30.914   4.765
60153W        W28547   0.808   4.321  12.902
60154W        W28548  15.438  33.574  13.077
60155W        W28549  16.069  41.324   0.089
60156W        W28550  15.981  34.682   2.365
60157W        W28551  11.704  25.271  12.532
60158W        W28552   0.500  26.558  12.026
60159W        W28553  18.020  20.695  13.491
60160W        W28554  22.510  38.865  14.926
60161W        W28555  24.954  18.582   4.575
60162W        W28556  27.954   5.051   0.708
60163W        W28557  20.058  44.256   2.260
60164W        W28558  33.231  40.302  13.398
60165W        W28559  18.674   3.032  14.200
60166W        W28560  38.472  33.440   2.692
60167W        W28561  20.059  14.948   4.843
60168W        W28562  17.601  14.047  12.152
60169W        W28563  22.759  16.046   3.868
60170W        W28564  14.802  36.541   4.306
60171W        W28565   8.403  22.654  14.319
60172W        W28566  38.401  31.081   0.369
60173W        W28567   9.202  19.056  13.833
60174W        W28568  40.856   8.215   4.555
60175W        W28569   6.855  11.623   3.096
60176W        W28570  37.334  42.801   4.543
60177W        W28571   3.229  33.270   5.039
60178W        W28572  40.659  33.975  14.287
60179W        W28573   4.764  12.660  12.870
60180W        W28574  22.644   4.671   0.716
60181W        W28575  28.540  36.897   2.693
60182W        W28576  33.059  38.538   1.720
60183W        W28577  16.138  17.033  11.170
60184W        W28578  18.279  24.584   4.764
60185W        W28579  17.707   5.203  12.583
60186W        W28580  38.966  38.857   0.687
60187W        W28581  19.594   1.105  11.493
60188W        W28582  28.170   2.500  12.824
60189W        W28583  42.942  20.291   1.262
60190W        W28584  25.267  18.953   0.062
60191W        W28585  39.837  35.691  14.822
60192W        W28586  17.565  42.311   2.239
60193W        W28587  22.364  41.005  11.836
60194W        W28588  18.489  26.748   3.891
60195W        W28589  36.011  34.810  14.577
60196W        W28590  42.422  21.228   0.788
60197W        W28591  36.094   4.585   2.783
60198W        W28592  43.499  25.179  14.807
60199W        W28593  12.256  39.563  12.088
60200W        W28594  23.795   2.851   2.184
60201W        W28595  28.142  37.831   1.236
60202W        W28596  24.485  37.898  14.932
60203W        W28597  28.691  41.264   0.877
60204W        W28598   3.376  22.640  11.393
60205W        W28599  30.227   5.226  12.035
60206W        W28600  28.087  34.529  12.922
60207W        W28601  20.118  34.993   4.900
60208W        W28602  19.740  36.421   5.102
60209W        W28603  23.428  44.273  10.198
60210W        W28604  16.312  33.627  14.338
60211W        W28605   4.881  31.247   4.549
60212W        W28606  11.008   2.848  13.494
60213W        W28607  30.407  33.363  12.044
60214W        W28608  10.669  15.634   2.240
60215W        W28609   3.911  31.899  13.610
60216W        W28610  39.238  37.447  14.258
60217W        W28611  18.740  35.632  11.796
60218W        W28612  27.183  25.605   3.426
60219W        W28613   4.340  33.886   3.838
60220W        W28614  38.060  15.602   1.791
60221W        W28615  18.235  25.905  10.594
60222W        W28616  21.276  30.793  13.473
60223W        W28617  33.981  32.832  12.736
60224W        W28618  42.239  16.068  12.115
60225W        W28619  22.998  28.509  10.995
60226W        W28620  18.624  42.529   2.261
60227W        W28621  22.968   2.371   4.205
60228W        W28622  38.217  19.537   4.257
60229W        W28623  27.360  29.191   0.678
60230W        W28624  31.828  37.848   4.645
60231W        W28625  40.935  19.136  10.653
60232W        W28626   6.198  11.917  10.766
60233W        W28627  10.271  12.596   2.346
60234W        W28628  40.336  33.458  12.457
60235W        W28629  30.685  12.132  10.677
60236W        W28630   3.207  40.985   1.237
60237W        W28631   6.194  38.153  12.203
60238W        W28632  25.423  15.178  11.562
60239W        W28633  10.572  28.669   0.419
60240W        W28634  17.243  32.838  10.724
60241W        W28635   8.451  38.091   4.969
60242W        W28636  35.607   4.292   4.538
60243W        W28637  27.784  13.387  13.376
60244W        W28638   0.904   0.770  12.283
60245W        W28639  27.716  37.053  11.544
60246W        W28640   1.311  36.632  14.938
60247W        W28641  29.452  26.635  12.962
60248W        W28642   9.133  32.148  13.469
60249W        W28643  27.641  37.255  13.398
60250W        W28644   7.987  28.506  14.407
60251W        W28645  11.040   7.236   5.001
60252W        W28646  12.218  43.318   3.365
60253W        W28647   6.451  38.605   2.261
60254W        W28648  44.287  36.355   3.780
60255W        W28649  18.392  16.324   4.175
60256W        W28650  38.612   2.483   0.422
60257W        W28651  43.298  27.085  13.060
60258W        W28652  41.286   7.311  11.605
60259W        W28653  28.986  10.668   4.563
60260W        W28654   9.186  26.200   0.437
60261W        W28655   8.789  23.984  14.251
60262W        W28656  22.041  37.215   2.689
60263W        W28657   4.030  28.181   0.850
60264W        W28658  10.428  25.936  14.598
60265W        W28659  27.444   5.121   3.682
60266W        W28660   0.556  44.545  11.337
60267W        W28661   3.727  18.565  11.536
60268W        W28662  30.537  38.381   3.618
60269W        W28663  23.098  31.542   4.595
60270W        W28664   7.612   3.975   2.834
60271W        W28665   1.876  37.724   2.845
60272W        W28666   0.842  30.610  13.608
60273W        W28667   8.977  31.579   1.754
60274W        W28668  28.819  30.688   4.046
60275W        W28669  39.775  17.581  13.370
60276W        W28670   0.514  24.724   3.284
60277W        W28671  28.937   1.832   4.374
60278W        W28672   4.615   0.444   4.557
60279W        W28673   4.986   0.413  14.454
60280W        W28674  18.170   3.858  14.556
60281W        W28675   3.612  18.988  14.711
60282W        W28676  33.344  27.218   2.292
60283W        W28677  39.008  33.453   2.742
60284W        W28678  33.096  30.871  11.573
60285W        W28679  41.818  23.529   1.737
60286W        W28680  21.460  41.885   1.369
60287W        W28681  13.305   3.973   2.754
60288W        W28682  41.194  30.506   2.721
60289W        W28683  11.818  12.590   3.797
60290W        W28684  23.618  23.576   0.415
60291W        W28685   1.874  40.972  12.234
60292W        W28686  21.991  39.387   3.847
60293W        W28687   3.829  34.089  11.627
60294W        W28688  18.521  19.824  12.827
60295W        W28689   7.556  44.474   4.159
60296W        W28690  23.819   0.959  13.767
60297W        W28691  35.287  32.363   4.896
60298W        W28692  33.966   8.305   2.361
60299W        W28693  17.266  22.083  13.059
60300W        W28694   1.678  15.585   2.770
60301W        W28695  38.579  42.424   2.400
60302W        W28696  10.700   3.628   1.951
60303W        W28697  42.577  13.848   0.373
60304W        W28698   0.052  38.166  12.138
60305W        W28699  31.419  12.698   3.933
60306W        W28700   8.876   1.758   0.380
60307W        W28701   0.437   7.480  13.249
60308W        W28702  38.807   9.396  11.952
60309W        W28703  20.527  33.106  11.069
60310W        W28704  19.337   5.927   4.207
60311W        W28705  43.753  13.292  12.031
60312W        W28706   2.485  33.432  13.813
60313W        W28707  31.991  44.983   3.465
60314W        W28708  34.664  17.772  13.973
60315W        W28709  30.816  24.498  11.969
60316W        W28710  20.165  27.677  12.103
60317W        W28711  30.027   8.333   3.894
60318W        W28712   3.844  42.822  10.228
60319W        W28713  39.919  10.612  12.424
60320W        W28714   2.722   3.846  13.700
60321W        W28715   2.946  26.794  12.910
60322W        W28716  36.917  29.070  12.383
60323W        W28717  27.938  30.437  10.919
60324W        W28718  44.560  21.738   3.361
60325W        W28719  12.115   1.981  14.226
60326W        W28720  36.888   2.111  14.090
60327W        W28721  25.120  12.472   4.269
60328W        W28722  26.934  17.294  14.489
60329W        W28723  33.848  25.087   3.697
60330W        W28724   5.694  27.971  11.264
60331W        W28725  24.468  35.832   3.579
60332W        W28726   3.816  22.756  10.423
60333W        W28727   3.217  35.488   2.280
60334W        W28728  28.142   1.909   1.633
60335W        W28729  40.936   4.198   1.775
60336W        W28730  10.755  35.990  13.387
60337W        W28731   3.456  37.767  13.771
60338W        W28732  33.085  29.428   2.115
60339W        W28733  39.893   1.937  13.501
60340W        W28734  32.491  17.849  10.701
60341W        W28735  38.426  22.307   3.188
60342W        W28736  10.652  18.267   0.209
60343W        W28737  16.349   1.801  12.585
60344W        W28738  32.452  41.319   3.597
60345W        W28739  43.094  23.151   1.421
60346W        W28740   3.451  43.021   3.956
60347W        W28741   3.584  38.934   4.724
60348W        W28742  19.100  35.952  14.449
60349W        W28743   0.198  13.717  14.875
60350W        W28744  12.808  41.026  10.044
60351W        W28745   8.331   2.744  12.176
60352W        W28746  32.538  34.292  11.428
60353W        W28747  41.250  29.434   4.968
60354W        W28748  32.406   7.111   3.886
60355W        W28749  12.746  41.964   0.303
60356W        W28750  28.676  29.066  12.583
60357W        W28751  20.179  26.234  12.867
60358W        W28752  15.871   9.304   0.782
60359W        W28753  41.649  39.640   4.523
60360W        W28754  10.282  11.332  12.920
60361W        W28755  34.637  36.479   4.063
60362W        W28756  17.782  26.434  14.976
60363W        W28757  26.420  18.143   4.201
60364W        W28758  16.611  32.238   0.568
60365W        W28759  42.019   6.258  10.790
60366W        W28760  40.980  17.930  12.914
60367W        W28761  38.296   7.930  14.765
60368W        W28762  11.526  44.969   1.743
60369W        W28763   5.156  18.685  14.340
60370W        W28764  25.266  15.871  14.308
60371W        W28765  10.212  42.764   3.569
60372W        W28766   7.930  34.216   3.219
60373W        W28767  37.148  32.190  14.608
60374W        W28768   4.231  19.967  12.666
60375W        W28769   3.381   2.631   4.538
60376W        W28770  26.886   3.342   1.893
60377W        W28771   7.158  41.594   2.730
60378W        W28772  24.372   9.245   0.338
60379W        W28773  20.574  21.264  13.294
60380W        W28774  36.066  25.283  13.145
60381W        W28775  27.040  12.000  12.349
60382W        W28776  10.928  39.114  12.159
60383W        W28777  39.683  34.769  11.052
60384W        W28778  10.251  40.574  12.028
60385W        W28779  36.151  14.254  11.571
60386W        W28780  29.068  30.224   4.111
60387W        W28781  13.255  44.596  11.078
60388W        W28782   2.928  23.398   2.246
60389W        W28783  19.564  28.842   4.472
60390W        W28784  16.030   7.845  13.485
60391W        W28785  29.840  29.151  11.205
60392W        W28786  39.753  21.574  13.054
60393W        W28787  27.227  20.603   2.629
60394W        W28788   0.944  36.851  10.190
60395W        W28789  26.213  22.331  11.018
60396W        W28790   2.252  30.900  12.420
60397W        W28791  20.177  18.872  11.137
60398W        W28792  26.173  42.970  10.630
60399W        W28793  36.329  23.707  14.456
60400W        W28794  16.360  13.101  14.820
60401W        W28795  22.041  13.531   0.292
60402W        W28796  26.973   0.644  14.858
60403W        W28797  11.503  33.040   3.710
60404W        W28798  20.602  40.503   1.498
60405W        W28799  14.241  42.399  14.952
60406W        W28800   4.051  24.599   4.949
60407W        W28801  21.092   6.159  10.688
60408W        W28802  31.429  40.319   1.279
60409W        W28803  20.150  29.911   5.105
60410W        W28804   9.050  21.030   3.596
60411W        W28805   1.476  30.144   0.179
60412W        W28806  19.280  20.202  12.142
60413W        W28807  27.039  13.855  13.944
60414W        W28808   3.848  22.247  10.415
60415W        W28809  22.915  30.183  13.268
60416W        W28810  25.223  27.105  13.303
60417W        W28811   2.373   4.757  14.352
60418W        W28812   1.159  32.527   2.673
60419W        W28813  18.103  25.454   0.401
60420W        W28814  35.582   0.677  11.195
60421W        W28815   7.754   6.722   9.978
60422W        W28816  32.247  13.002  11.155
60423W        W28817   5.264  30.079  12.333
60424W        W28818   5.228  27.666   3.212
60425W        W28819  30.357   3.940   3.441
60426W        W28820  24.404   1.006  14.530
60427W        W28821  19.581  16.598  11.251
60428W        W28822  23.550  13.824  13.877
60429W        W28823  19.528  30.205  13.469
60430W        W28824   2.311   3.210   2.311
60431W        W28825  13.449  43.274   2.846
60432W        W28826  11.174  17.615  11.451
60433W        W28827  37.460  31.688  14.754
60434W        W28828  13.137   8.848  12.001
60435W        W28829  44.439  24.029  14.687
60436W        W28830   8.084  38.497   1.667
60437W        W28831  23.222  25.422  12.658
60438W        W28832  13.292   2.127  13.852
60439W        W28833  27.179  14.866   0.335
60440W        W28834  24.223  31.468  13.384
60441W        W28835  28.768  37.320  13.938
60442W        W28836  34.878   1.983   1.614
60443W        W28837   5.394  35.382   0.618
60444W        W28838  24.130  33.842   0.789
60445W        W28839   2.690   6.024  10.094
60446W        W28840  28.173  32.402   1.932
60447W        W28841  38.040   4.678   2.459
60448W        W28842  11.683  29.112   0.191
60449W        W28843  19.262  10.146  11.393
60450W        W28844  23.002  36.095  14.964
60451W        W28845  41.464   9.927   3.370
60452W        W28846  43.662  29.470  11.899
60453W        W28847  19.946  42.499  13.493
60454W        W28848   6.231  33.924  12.407
60455W        W28849   8.774   5.851  10.304
60456W        W28850   6.281  34.970  10.659
60457W        W28851  26.562  21.268   0.394
60458W        W28852   4.237  28.515  11.379
60459W        W28853  11.244   8.011  10.676
60460W        W28854  15.200  36.625   4.635
60461W        W28855  26.116  26.224  13.168
60462W        W28856  26.424  31.899  14.314
60463W        W28857  43.608  41.455  12.563
60464W        W28858  35.380  34.125  13.033
60465W        W28859  38.440  38.482  12.461
60466W        W28860   6.124  28.610   3.784
60467W        W28861  10.057  22.108  13.512
60468W        W28862   3.394  39.024   0.974
60469W        W28863  10.535   2.384  13.725
60470W        W28864  11.663   5.429  12.682
60471W        W28865  31.035  26.531   0.475
60472W        W28866  33.972  33.863  10.363
60473W        W28867   4.121  12.553   2.379
60474W        W28868  44.980  44.878  10.625
60475W        W28869  32.465   0.889   4.290
60476W        W28870  15.154  44.528   1.481
60477W        W28871  17.936  42.411   3.239
60478W        W28872  26.963  37.954  10.699
60479W        W28873  43.545  10.538   0.843
60480W        W28874  31.687  21.727  11.322
60481W        W28875  28.234  40.350   0.714
60482W        W28876   9.315   8.722   1.259
60483W        W28877  27.587  28.143   0.504
60484W        W28878  40.782   7.707  12.972
60485W        W28879   1.288  32.618   0.401
60486W        W28880  14.415  18.149   0.897
60487W        W28881  33.598  24.431   0.836
60488W        W28882  16.920   9.139  14.714
60489W        W28883   5.341  16.181   3.539
60490W        W28884  27.719   1.204   1.231
60491W        W28885  38.961  29.695   0.108
60492W        W28886  31.156   1.245   1.368
60493W        W28887  32.368  13.606   1.299
60494W        W28888   7.762  41.472  13.796
60495W        W28889  14.268  17.600   2.401
60496W        W28890   0.303  27.229   1.739
60497W        W28891  12.792   4.735   1.790
60498W        W28892  41.509  44.012   2.956
60499W        W28893   6.354   4.286  12.522
60500W        W28894  14.761  20.296  11.672
60501W        W28895  37.744  20.775   4.842
60502W        W28896  17.708  29.044   4.799
60503W        W28897  23.076   2.163  11.130
60504W        W28898   0.391   2.034   2.038
60505W        W28899  32.034  36.547  11.708
60506W        W28900  32.037  19.657   0.110
60507W        W28901  41.774  40.470   4.145
60508W        W28902  27.131   8.605   3.634
60509W        W28903  28.367  12.929  13.973
60510W        W28904  28.949  14.501  12.527
60511W        W28905  38.972  15.272  14.112
60512W        W28906  26.414  29.051   1.460
60513W        W28907  25.578  43.976   2.642
60514W        W28908  31.670  26.010   4.272
60515W        W28909   0.143   5.939   3.855
60516W        W28910  37.876  14.545  10.954
60517W        W28911  33.456  17.066   3.653
60518W        W28912  14.002  43.192   3.214
60519W        W28913   8.622   5.731   1.763
60520W        W28914  25.215  17.842   2.295
60521W        W28915  24.156  15.840   2.649
60522W        W28916  20.574  40.407  14.121
60523W        W28917  33.447  14.330   2.277
60524W        W28918  32.934   5.683  14.487
60525W        W28919   1.452  26.458   3.251
60526W        W28920  11.373   5.194   1.275
60527W        W28921   1.697  21.691  14.312
60528W        W28922  24.671   8.749  10.958
60529W        W28923  13.957  32.390   2.061
60530W        W28924  18.801  44.075  14.742
60531W        W28925  13.736  39.372  14.002
60532W        W28926   3.780  42.346   3.885
60533W        W28927  12.727  28.204  11.082
60534W        W28928  11.584  30.503   3.611
60535W        W28929   3.512  25.653  11.093
60536W        W28930  43.424  10.832  10.509
60537W        W28931  15.635  16.766  10.661
60538W        W28932   5.933  23.606  11.257
60539W        W28933  37.044  14.367  13.133
60540W        W28934  34.425  41.184   0.573
60541W        W28935  36.576  13.361  13.781
60542W        W28936  31.598  24.228  13.564
60543W        W28937  36.894  30.661   4.237
60544W        W28938  32.521  42.771  11.013
60545W        W28939  18.438  20.123  14.603
60546W        W28940  18.558   1.059   3.746
60547W        W28941  10.591  30.589   1.400
60548W        W28942  21.746  40.588   3.155
60549W        W28943  39.535  28.047   2.303
60550W        W28944  23.780  29.128   2.516
60551W        W28945  44.798   5.290  13.322
60552W        W28946  37.983   9.667   3.387
60553W        W28947  44.947  44.908  12.037
60554W        W28948  41.248  40.778   0.229
60555W        W28949  34.859  30.720  13.418
60556W        W28950  32.965  21.490  11.434
60557W        W28951  33.803  44.182  11.586
60558W        W28952  29.410  30.932   0.338
60559W        W28953  20.555  26.445  10.844
60560W        W28954   8.350  43.740  11.511
60561W        W28955  40.696   8.205  12.901
60562W        W28956  16.064  27.517  11.485
60563W        W28957  14.537  12.718  12.385
60564W        W28958   8.302   2.399  13.056
60565W        W28959  25.142  36.442   2.801
60566W        W28960  30.134   9.896  13.490
60567W        W28961   8.373   6.048  11.556
60568W        W28962  27.498  30.471   2.906
60569W        W28963  13.734   9.811  10.922
60570W        W28964   4.026  41.427  11.892
60571W        W28965  43.967  21.047   1.733
60572W        W28966   3.401   1.045   1.842
60573W        W28967  43.037   2.742  11.698
60574W        W28968  42.554  25.685  11.640
60575W        W28969  39.397  40.515  14.364
60576W        W28970   0.274  16.596   4.198
60577W        W28971  39.444  15.606  11.876
60578W        W28972  11.722  25.679   0.821
60579W        W28973   9.182   6.511  11.668
60580W        W28974  21.045  35.942   0.488
60581W        W28975   9.489   8.568   2.333
60582W        W28976  10.630  32.353   2.997
60583W        W28977   5.790   2.198  13.865
60584W        W28978   1.452  17.330  10.876
60585W        W28979  25.507  38.428   0.554
60586W        W28980  10.404   7.276   0.397
60587W        W28981  23.580  38.492   0.658
60588W        W28982  41.762  30.065  13.029
60589W        W28983  14.595  43.768  10.868
60590W        W28984   0.081  40.960   4.098
60591W        W28985  14.875  23.007   1.320
60592W        W28986   2.507   0.881   4.511
60593W        W28987  15.675  20.295  12.147
60594W        W28988  35.184  19.697  13.572
60595W        W28989  22.757  30.763   4.487
60596W        W28990  42.237  20.649  14.284
60597W        W28991  38.022  14.348   4.470
60598W        W28992  16.156  39.420   3.894
60599W        W28993  42.203  14.099  13.233
60600W        W28994  19.683  15.284  13.065
60601W        W28995  41.850  14.172   4.182
60602W        W28996  40.296  25.099  14.082
60603W        W28997  27.401   3.935   2.364
60604W        W28998  21.994  13.680  10.562
60605W        W28999  16.624   9.141   1.906
60606W        W29000  15.714  15.375  11.817
60607W        W29001  24.299  23.605   2.293
60608W        W29002  18.423  31.580   4.392
60609W        W29003  28.014  32.067  10.136
60610W        W29004   4.853  44.554  13.416
60611W        W29005   5.250  31.579  11.480
60612W        W29006  38.660  41.765   1.842
60613W        W29007  34.095   5.418  13.487
60614W        W29008   3.401  27.492   2.752
60615W        W29009  15.324  35.401   0.338
60616W        W29010  35.399   5.205  14.904
60617W        W29011  27.076  33.676  14.144
60618W        W29012  33.344  44.717   2.349
60619W        W29013  35.416   1.834  14.358
60620W        W29014  34.743  40.387  12.541
60621W        W29015   9.322  36.700  13.394
60622W        W29016  14.539  34.090  12.117
60623W        W29017  31.027  22.114   0.676
60624W        W29018  25.734  30.748  11.258
60625W        W29019  35.145   2.561   4.725
60626W        W29020  39.519   1.767   3.790
60627W        W29021  19.669   1.028   2.265
60628W        W29022  19.635  10.881   2.753
60629W        W29023  25.615  26.592   2.704
60630W        W29024  13.314   4.932  13.963
60631W        W29025   1.290  30.659  13.844
60632W        W29026   5.355  33.477   2.682
60633W        W29027  34.898  43.748   2.320
60634W        W29028  18.465  38.521  12.932
60635W        W29029  12.891  43.363  13.587
60636W        W29030  41.046   6.845   4.371
60637W        W29031  16.326   1.897  13.470
60638W        W29032  34.499  23.960   4.271
60639W        W29033  40.977   0.212  13.293
60640W        W29034  18.114  16.719  12.699
60641W        W29035  41.412  20.618  11.366
60642W        W29036  43.037  39.465  14.761
60643W        W29037  42.839  11.834   1.674
60644W        W29038   7.292  26.997   0.239
60645W        W29039  22.023   0.956   0.683
60646W        W29040  10.676  20.345  14.565
60647W        W29041  17.591  39.415   3.602
60648W        W29042  20.167   4.849  13.008
60649W        W29043  32.650  29.491  11.448
60650W        W29044  38.337   6.485  12.815
60651W        W29045   5.200  40.451  10.911
60652W        W29046  11.989   7.453  11.444
60653W        W29047  22.209  13.834  11.012
60654W        W29048  31.410  32.019   0.729
60655W        W29049  35.624  39.451   3.173
60656W        W29050   8.145  37.078  11.514
60657W        W29051  21.683  32.321  13.941
60658W        W29052  19.811   2.857   1.771
60659W        W29053   7.601  26.206  11.480
60660W        W29054  21.674  41.122  13.969
60661W        W29055  20.972   7.190   2.961
60662W        W29056  28.925  35.155   1.378
60663W        W29057  13.738  11.155  11.893
60664W        W29058   2.738  13.376  14.338
60665W        W29059   8.334  43.481  12.371
60666W        W29060  20.134  43.410   3.677
60667W        W29061  29.838  28.443   0.384
60668W        W29062  33.668  10.458  11.696
60669W        W29063  17.782  15.660   4.167
60670W        W29064   4.980  32.110   1.301
60671W        W29065  30.633  32.687  14.285
60672W        W29066  34.302  16.732  12.372
60673W        W29067  15.281  14.044  13.159
60674W        W29068  26.020  39.454  14.104
60675W        W29069  13.093  25.948  12.112
60676W        W29070  42.354  39.006   2.800
60677W        W29071  34.469  36.345   4.540
60678W        W29072  25.748  35.603  14.487
60679W        W29073  41.100  13.272   3.576
60680W        W29074  39.370   8.222  12.010
60681W        W29075  31.437  32.722   4.071
60682W        W29076  29.165  13.302   4.729
60683W        W29077  21.521  35.645   0.560
60684W        W29078  19.962   8.378  14.376
60685W        W29079  30.921  40.375  11.596
60686W        W29080  19.720  26.457  13.027
60687W        W29081  38.596  16.251  14.518
60688W        W29082  37.460  21.273   0.232
60689W        W29083  10.349   6.816  11.061
60690W        W29084  16.703  35.801  13.806
60691W        W29085   3.332  34.593  14.283
60692W        W29086  35.925   0.380  14.303
60693W        W29087  29.021   8.706   2.260
60694W        W29088  20.210  30.479   4.235
60695W        W29089  22.590   7.906   3.256
60696W        W29090  37.601  36.878   5.009
60697W        W29091  38.800  36.519  11.430
60698W        W29092  19.293  30.060   1.399
60699W        W29093   9.015   4.642   5.009
60700W        W29094  11.666  41.242   2.637
60701W        W29095   6.356  23.742   9.536
60702W        W29096  33.974   4.759  11.956
60703W        W29097  18.046  12.267   4.625
60704W        W29098  22.391  28.152   0.531
60705W        W29099  41.223  10.921  11.138
60706W        W29100  27.128  12.711   2.507
60707W        W29101  35.395  10.319  12.489
60708W        W29102   6.888  17.069   0.883
60709W        W29103  12.271   4.526  11.864
60710W        W29104  17.485  28.589   4.684
60711W        W29105  36.657  42.761  11.115
60712W        W29106   9.211  35.310  11.162
60713W        W29107  38.824  44.269   3.581
60714W        W29108  41.286  42.824   4.552
60715W        W29109  30.027  29.971   2.844
60716W        W29110   2.656  21.319  13.470
60717W        W29111  17.701  27.573  12.592
60718W        W29112   0.504  13.031   3.238
60719W        W29113   2.273  36.638  12.429
60720W        W29114  28.476   9.243   0.549
60721W        W29115   9.277  32.312  12.917
60722W        W29116  36.209  24.211  11.294
60723W        W29117  25.062  33.400  14.297
60724W        W29118  11.719  32.997   0.437
60725W        W29119  34.379  34.592  14.888
60726W        W29120  42.024  31.287   4.109
60727W        W29121  21.409   9.711  11.522
60728W        W29122  11.840  15.257  13.849
60729W        W29123  41.374  35.500  14.871
60730W        W29124  40.896   3.241   1.848
60731W        W29125  18.301   3.499  13.555
60732W        W29126  36.624  44.169  12.837
60733W        W29127   6.415   3.663   0.308
60734W        W29128  40.621  14.236  12.917
60735W        W29129  21.187  40.025   4.610
60736W        W29130  14.297  12.346   3.767
60737W        W29131  27.738  14.727   1.230
60738W        W29132   6.634   1.939  12.042
60739W        W29133  13.430  25.899   3.406
60740W        W29134  28.939  23.691  12.932
60741W        W29135  23.436  30.813  11.263
60742W        W29136  33.951  16.077   1.616
60743W        W29137  40.566  36.981   4.234
60744W        W29138   9.608   6.735  14.129
60745W        W29139  32.942  32.367   0.251
60746W        W29140  26.947   7.689  11.298
60747W        W29141   6.382  26.405  11.337
60748W        W29142  12.256  13.283   2.366
60749W        W29143  20.791  39.803   4.357
60750W        W29144  24.499  15.913   3.186
60751W        W29145  16.098  33.053  13.141
60752W        W29146  23.602  32.761   5.007
60753W        W29147  40.829  29.126  13.428
60754W        W29148  28.183   0.236   1.712
60755W        W29149   4.164  11.798  12.374
60756W        W29150   0.481  16.048  11.610
60757W        W29151   0.377   1.957  12.532
60758W        W29152  35.637  18.411   1.744
60759W        W29153  31.957   1.733  14.004
60760W        W29154  24.321  31.905   3.058
60761W        W29155  20.445  28.677   4.241
60762W        W29156  24.202  34.559   2.718
60763W        W29157  29.932   6.456   3.351
60764W        W29158  21.511  18.955   3.154
60765W        W29159  42.305  27.824  13.429
60766W        W29160   6.817   0.891   2.984
60767W        W29161  25.164   1.004  13.764
60768W        W29162  33.036  27.270  11.516
60769W        W29163  31.358  25.262  12.717
60770W        W29164  28.200  38.405  12.079
60771W        W29165  24.226  27.398   4.703
60772W        W29166  27.928  42.420   1.803
60773W        W29167  12.854   8.421  11.973
60774W        W29168  41.032  43.632  12.373
60775W        W29169   2.591  44.354   5.109
60776W        W29170  24.188   9.432   4.644
60777W        W29171   9.507   3.188   0.027
60778W        W29172  27.695  18.053   4.556
60779W        W29173   7.873  35.103   0.757
60780W        W29174  18.736   6.793  10.454
60781W        W29175  13.624  38.828  13.351
60782W        W29176  43.328  44.230   1.347
60783W        W29177  42.594  29.145   4.442
60784W        W29178  26.083  28.661   3.695
60785W        W29179   0.299  42.502   4.839
60786W        W29180  20.801  38.665   2.255
60787W        W29181  23.637  34.029   0.828
60788W        W29182  24.052  30.031  13.378
60789W        W29183  40.062  14.681   1.619
60790W        W29184  31.640  41.466   0.622
60791W        W29185  16.099  42.363   4.538
60792W        W29186  28.618   2.171   0.370
60793W        W29187  11.463  27.072  10.657
60794W        W29188  29.705  28.373  14.216
60795W        W29189   2.792  24.807  13.505
60796W        W29190   9.870   5.961   3.630
60797W        W29191  29.711   4.674   1.663
60798W        W29192  40.956  11.367  11.878
60799W        W29193  29.444  21.620  10.646
60800W        W29194  11.167  40.741   3.791
60801W        W29195  29.333  18.356   2.281
60802W        W29196   9.084   2.705   0.812
60803W        W29197  28.615  20.805   4.144
60804W        W29198  38.088  10.888  11.465
60805W        W29199  43.793  32.227  12.222
60806W        W29200   9.952  21.043   0.435
60807W        W29201  24.571  38.171  12.946
60808W        W29202  31.615  29.619  14.346
60809W        W29203  16.822  24.543   3.355
60810W        W29204   4.882  29.179   0.161
60811W        W29205   7.708  29.856  10.787
60812W        W29206   5.596   6.336   2.381
60813W        W29207  12.751  14.078   2.154
60814W        W29208  18.621   2.862   4.126
60815W        W29209   9.756  26.569  11.907
60816W        W29210  13.360  21.654  13.839
60817W        W29211  19.738  39.759  10.260
60818W        W29212  13.714  35.391   1.924
60819W        W29213  20.541  36.900   4.429
60820W        W29214  21.646  31.218   3.830
60821W        W29215  31.626  20.600  12.122
60822W        W29216  30.279  13.319   2.207
60823W        W29217   0.244  24.504  13.812
60824W        W29218  12.866  28.331   0.294
60825W        W29219  17.779   2.925   4.465
60826W        W29220  25.055  28.154  12.372
60827W        W29221  40.066  22.909   2.271
60828W        W29222  20.158   4.405   1.990
60829W        W29223  39.668   8.849   1.035
60830W        W29224  17.508  16.160   0.760
60831W        W29225  30.403  18.433  10.570
60832W        W29226  32.412  36.078   2.789
60833W        W29227  20.191   3.519   2.195
60834W        W29228  42.416  10.380   2.907
60835W        W29229  17.133  36.150  14.627
60836W        W29230  27.037  20.672  12.400
60837W        W29231  11.023   7.203  11.625
60838W        W29232  13.124  41.044   3.642
60839W        W29233  40.449  37.533  12.843
60840W        W29234  27.960  19.184  11.973
60841W        W29235  44.435  37.068  10.937
60842W        W29236  35.389  22.369  11.632
60843W        W29237   0.293  38.281   0.354
60844W        W29238  29.403  28.519  10.291
60845W        W29239  32.360  22.062  11.079
60846W        W29240  39.086  32.283   1.213
60847W        W29241  38.022  38.034  11.600
60848W        W29242  29.117  40.909  11.907
60849W        W29243  26.017  43.584  13.827
60850W        W29244   6.835  23.890  10.764
60851W        W29245  14.120  39.352   1.369
60852W        W29246  12.384  38.111  13.364
60853W        W29247  37.833  10.578  10.554
60854W        W29248   1.496   6.685  12.893
60855W        W29249   4.285  27.808  14.806
60856W        W29250  41.515   3.262  11.440
60857W        W29251  23.380  24.966  12.978
60858W        W29252  29.430  17.840  14.558
60859W        W29253  19.123  37.039   2.713
60860W        W29254  16.545   8.725   2.186
60861W        W29255   2.809  34.390  13.422
60862W        W29256  34.176   1.384   1.733
60863W        W29257  14.753  22.338   3.597
60864W        W29258  21.072  24.106  12.551
60865W        W29259  26.910  24.538   1.882
60866W        W29260   3.959  14.096  13.846
60867W        W29261  18.224  30.466  14.740
60868W        W29262  18.502  43.439   0.814
60869W        W29263   2.816  39.292  14.882
60870W        W29264  17.475  10.859  11.552
60871W        W29265  40.825  27.717  12.158
60872W        W29266   1.276  43.003  11.703
60873W        W29267  25.675  10.842   1.971
60874W        W29268   8.166  14.474   0.777
60875W        W29269  44.916  18.278  13.777
60876W        W29270  28.131  33.133   2.710
60877W        W29271   4.936  34.568  10.775
60878W        W29272  28.344  32.658   0.607
60879W        W29273  42.609  12.313   1.845
60880W        W29274  36.045  34.902  10.696
60881W        W29275   0.888  39.838  14.510
60882W        W29276   7.254  29.506   0.343
60883W        W29277  24.958   1.756  13.533
60884W        W29278  33.696  39.937  11.108
60885W        W29279  24.463  19.245   4.129
60886W        W29280  41.963  10.758   3.823
60887W        W29281  24.771  11.527   2.123
60888W        W29282   7.270  16.897  14.808
60889W        W29283  35.465  44.931   4.571
60890W        W29284  26.162  19.500  10.617
60891W        W29285  39.964  15.697  11.235
60892W        W29286  36.065   2.242  14.510
60893W        W29287   7.464  43.355  11.919
60894W        W29288  39.964  23.457  12.888
60895W        W29289  21.972  16.662   0.036
60896W        W29290  20.982  26.043  14.057
60897W        W29291  25.355  26.604  13.499
60898W        W29292  25.003  30.920  13.468
60899W        W29293  38.296  13.678  14.430
60900W        W29294   3.209  11.499   4.001
60901W        W29295  39.382  12.786  13.021
60902W        W29296  27.032  36.835   1.709
60903W        W29297  24.570  17.961  13.791
60904W        W29298   2.241  32.399   0.344
60905W        W29299  37.611  43.697  11.091
60906W        W29300  15.052  42.963   3.200
60907W        W29301  36.007  25.111  14.091
60908W        W29302  35.962  23.738   4.491
60909W        W29303  31.071   2.410  12.076
60910W        W29304  40.211  21.156   5.221
60911W        W29305  40.571   1.230  13.446
60912W        W29306   3.262  26.715   4.771
60913W        W29307  23.156   9.832   0.474
60914W        W29308  23.952  20.886  12.478
60915W        W29309  28.422  21.057  12.361
60916W        W29310   7.858  20.365  12.135
60917W        W29311   1.910  10.859  13.589
60918W        W29312  32.137  17.296   4.742
60919W        W29313  15.363  38.152  10.167
60920W        W29314  44.635  26.099   1.744
60921W        W29315  42.292  28.973   3.376
60922W        W29316   6.750  19.633   0.745
60923W        W29317  23.659  44.962  13.490
60924W        W29318   3.929  33.601  14.818
60925W        W29319  33.807  11.836  10.321
60926W        W29320  23.355  27.789   0.531
60927W        W29321   6.279  12.722  11.803
60928W        W29322  40.400  21.262  13.884
60929W        W29323  26.666   9.829   2.937
60930W        W29324  20.663   3.468   2.420
60931W        W29325  20.041   3.614   9.858
60932W        W29326  37.219   2.498  13.944
60933W        W29327  33.816  12.631   2.023
60934W        W29328  29.364   9.186  11.569
60935W        W29329  15.523  29.670   4.636
60936W        W29330  25.684  40.799  11.587
60937W        W29331  34.905  10.080   3.700
60938W        W29332  36.241  22.907  14.963
60939W        W29333  32.494  39.293   0.801
60940W        W29334   6.257  23.573   2.221
60941W        W29335  43.479  37.503  14.816
60942W        W29336  25.229  31.590   1.717
60943W        W29337  14.612  37.889  12.868
60944W        W29338   1.914  21.574   3.768
60945W        W29339  37.429  17.625   0.878
60946W        W29340  42.279  26.010  13.271
60947W        W29341  10.913  42.751   3.264
60948W        W29342  35.476  33.636   4.132
60949W        W29343  37.378   3.931   1.550
60950W        W29344  32.568  34.503  13.885
60951W        W29345   5.788  15.556  10.881
60952W        W29346  18.621  43.950   4.869
60953W        W29347  18.205  15.833   1.283
60954W        W29348  43.382  38.976  13.975
60955W        W29349  17.362  37.082   2.280
60956W        W29350  32.037   2.501   2.094
60957W        W29351  11.313  33.157  14.802
60958W        W29352   4.385  44.784  10.617
60959W        W29353  36.596  40.118  14.431
60960W        W29354  41.326   1.821   3.262
60961W        W29355  32.140   3.361  13.040
60962W        W29356   6.618  26.708   3.684
60963W        W29357  39.522  41.830  12.092
60964W        W29358  43.203  10.251  13.567
60965W        W29359   2.811  37.405   3.294
60966W        W29360  26.992  16.109  13.737
60967W        W29361  19.686   0.715  12.896
60968W        W29362   9.401  11.911   4.672
60969W        W29363  12.645   7.346   1.934
60970W        W29364  34.902   5.987  10.330
60971W        W29365   4.429  18.150   1.639
60972W        W29366  15.250  31.883  11.115
60973W        W29367  39.427  26.906   3.854
60974W        W29368  35.710   2.498   3.832
60975W        W29369   1.768  10.778  11.879
60976W        W29370  33.907  10.091   3.705
60977W        W29371  26.198  13.631  14.987
60978W        W29372   0.888   4.158  14.306
60979W        W29373  31.153  33.670   2.878
60980W        W29374  14.717   4.104  12.847
60981W        W29375  25.082   0.911   2.290
60982W        W29376  16.731  23.817  11.132
60983W        W29377   7.256  31.627   2.565
60984W        W29378  17.575  39.124   2.117
60985W        W29379  14.854  32.167  14.317
60986W        W29380  22.578  14.613   0.373
60987W        W29381  34.605   1.346  10.692
60988W        W29382  43.281  13.647  13.973
60989W        W29383   1.530  44.692  14.806
60990W        W29384  33.425  36.187  14.975
60991W        W29385  28.682  24.153   3.678
60992W        W29386   9.395  13.210  12.997
60993W        W29387  18.572  27.866  13.537
60994W        W29388  16.878  19.901  12.483
60995W        W29389  36.724  36.058   1.946
60996W        W29390   2.818  43.381  12.546
60997W        W29391   1.348  32.096  10.844
60998W        W29392   7.226   8.933  11.561
60999W        W29393  19.205  39.760  13.811
61000W        W29394  14.697  36.139  11.244
61001W        W29395  44.452  22.207   3.681
61002W        W29396  27.283  43.337  12.560
61003W        W29397  23.717  28.477  14.928
61004W        W29398  33.528  40.479  12.244
61005W        W29399  19.745   8.334   4.894
61006W        W29400  35.532  23.261  11.503
61007W        W29401   3.456  30.890   3.289
61008W        W29402   8.338   0.326   0.165
61009W        W29403   6.737  37.000  13.459
61010W        W29404  44.206  27.531  11.502
61011W        W29405  27.962  20.046  14.049
61012W        W29406   1.202  14.853   1.413
61013W        W29407  41.697  30.876   4.178
61014W        W29408   9.551  13.131  13.772
61015W        W29409  44.422  42.218  14.897
61016W        W29410  38.130  21.331  11.154
61017W        W29411  22.139  15.251   0.913
61018W        W29412   8.681   7.760  12.142
61019W        W29413  44.091  23.678   4.803
61020W        W29414  19.440  29.497   4.965
61021W        W29415  19.756  24.624   1.010
61022W        W29416   4.700  29.486  11.618
61023W        W29417  12.075  37.585  14.382
61024W        W29418  36.057  35.581  12.392
61025W        W29419  10.891  35.775  12.944
61026W        W29420  17.553  30.097  14.472
61027W        W29421  20.332  19.985  13.259
61028W        W29422  27.298  12.764   4.547
61029W        W29423  26.588  30.405  13.131
61030W        W29424   2.305  28.261  14.524
61031W        W29425  33.566  34.589   2.823
61032W        W29426  30.136  41.448  14.766
61033W        W29427  40.790  25.994  14.521
61034W        W29428  28.545   9.303  12.878
61035W        W29429  40.502  10.683   0.808
61036W        W29430   1.771  19.224   2.453
61037W        W29431  17.162  38.856   2.295
61038W        W29432  23.667  24.690   3.140
61039W        W29433  12.837   0.445  14.651
61040W        W29434  41.982  32.812   1.631
61041W        W29435  44.803  34.987  10.628
61042W        W29436  35.430   7.869  10.654
61043W        W29437  27.117  29.041  11.778
61044W        W29438  35.806  22.760   3.382
61045W        W29439   2.202  37.626   3.608
61046W        W29440  26.974  28.434  12.569
61047W        W29441  15.911  38.339   0.823
61048W        W29442   0.828   4.269   0.668
61049W        W29443  36.574   2.297   2.704
61050W        W29444  25.751  13.256  11.639
61051W        W29445   4.793  41.358   2.173
61052W        W29446  34.842   7.668  13.018
61053W        W29447  33.519   9.117  10.001
61054W        W29448  22.491  40.798   4.114
61055W        W29449  36.274   1.897   2.879
61056W        W29450  24.713  32.609   0.099
61057W        W29451  31.295  43.400  13.332
61058W        W29452  42.447  17.686   4.514
61059W        W29453  39.802  24.033  10.666
61060W        W29454  20.225   1.835   3.930
61061W        W29455  42.636  33.348  13.661
61062W        W29456  29.954  19.137   3.201
61063W        W29457   9.306  20.302   4.514
61064W        W29458   4.986  33.047   1.325
61065W        W29459  14.684  39.456   3.247
61066W        W29460  30.875  34.968   1.819
61067W        W29461  44.993  30.560  14.922
61068W        W29462  11.375   1.446   4.444
61069W        W29463  19.191  16.367  14.288
61070W        W29464  24.613  16.584  11.194
61071W        W29465  40.718  23.621   4.005
61072W        W29466  38.049  30.019  14.652
61073W        W29467  41.003  22.600   0.864
61074W        W29468  16.671  16.662  13.440
61075W        W29469  29.536  18.151  14.980
61076W        W29470   2.794  17.200  11.357
61077W        W29471   8.365  34.490  13.904
61078W        W29472  33.540  15.670  12.242
61079W        W29473  24.790   9.759  12.032
61080W        W29474  17.110  35.457  14.800
61081W        W29475  30.574  35.467   1.877
61082W        W29476  12.731  15.604  12.908
61083W        W29477   1.606  28.039  11.095
61084W        W29478   7.302   8.729   1.380
61085W        W29479  40.924   7.591  13.448
61086W        W29480   1.908  12.789   3.306
61087W        W29481  32.566  13.418   3.879
61088W        W29482  13.901  30.494   3.254
61089W        W29483  10.663  27.073   4.105
61090W        W29484  33.601  15.860  13.663
61091W        W29485  25.850   5.141  13.565
61092W        W29486  12.720  41.981   2.195
61093W        W29487  37.890   1.661  12.604
61094W        W29488  34.969  29.954  12.954
61095W        W29489   1.869  15.932   1.484
61096W        W29490  38.558  32.461  13.589
61097W        W29491  20.802  18.048  14.443
61098W        W29492   5.403  16.774  14.273
61099W        W29493   9.282  44.939  10.712
61100W        W29494  27.693  25.144  13.381
61101W        W29495   4.288  15.678   4.556
61102W        W29496  28.853   5.695   3.848
61103W        W29497  12.077  36.819  13.803
61104W        W29498  42.911  27.426   4.389
61105W        W29499  20.552  34.039  13.794
61106W        W29500  13.332  40.377   2.672
61107W        W29501  41.977   7.974  13.361
61108W        W29502  17.175   0.562   3.213
61109W        W29503  20.688  14.189  10.870
61110W        W29504   1.764  13.167   1.423
61111W        W29505   7.347  34.171  14.063
61112W        W29506  43.180  35.650   2.833
61113W        W29507  11.277  30.450   0.323
61114W        W29508  27.510  27.696  11.436
61115W        W29509  17.979  25.784  14.049
61116W        W29510   8.392   2.144  10.551
61117W        W29511  12.072   8.393   4.054
61118W        W29512   3.987  35.448  10.552
61119W        W29513  30.548  32.151   1.051
61120W        W29514  17.083   1.065   1.481
61121W        W29515  12.721  22.778  11.758
61122W        W29516  21.546  32.112   2.637
61123W        W29517   4.601  22.659  14.801
61124W        W29518   6.666  22.544  11.129
61125W        W29519  42.366   6.895  13.977
61126W        W29520  28.147  15.074  14.455
61127W        W29521  17.052  40.792  14.418
61128W        W29522  16.322  44.256   0.920
61129W        W29523  27.590  18.542   2.992
61130W        W29524  34.202   6.018  11.890
61131W        W29525  19.361  38.095  12.134
61132W        W29526  42.359  14.150  13.972
61133W        W29527  21.601  25.206  10.639
61134W        W29528  43.050  32.520   1.463
61135W        W29529  41.056   4.465   4.134
61136W        W29530  28.430   2.470  11.659
61137W        W29531  41.574  25.547   4.560
61138W        W29532  14.840  18.638   2.131
61139W        W29533  42.499  11.948  10.699
61140W        W29534   0.484  30.374   3.687
61141W        W29535   1.691  40.317  12.357
61142W        W29536   4.282   8.692   3.576
61143W        W29537  11.247   4.462  14.871
61144W        W29538  12.750   2.297  12.016
61145W        W29539   4.617  34.856  13.450
61146W        W29540  19.825  39.038  11.928
61147W        W29541  33.164  32.286  12.573
61148W        W29542  28.857   9.577  14.602
61149W        W29543  19.621   9.117  13.752
61150W        W29544  31.514  25.685  11.067
61151W        W29545   7.763  24.743   2.314
61152W        W29546  31.568   8.235   3.242
61153W        W29547  10.905  28.422  14.974
61154W        W29548   8.400  36.823  12.991
61155W        W29549  44.339   6.065  10.254
61156W        W29550  14.140   4.444   0.742
61157W        W29551  40.799  15.522  11.580
61158W        W29552  40.224  26.635  11.895
61159W        W29553  31.761   4.929   4.168
61160W        W29554  26.575  25.547   2.783
61161W        W29555  32.197   1.464  13.644
61162W        W29556  21.473  12.066   5.044
61163W        W29557  33.645  15.907   3.758
61164W        W29558  25.665  23.680  13.915
61165W        W29559  20.486   0.796   1.952
61166W        W29560  25.165  13.822   2.725
61167W        W29561  24.676  20.670  11.879
61168W        W29562  31.515  41.706   4.991
61169W        W29563   3.199  24.122  13.661
61170W        W29564  36.430   6.864  11.704
61171W        W29565  43.878  19.154   4.288
61172W        W29566  14.502   4.431   2.959
61173W        W29567  42.996   0.438  14.210
61174W        W29568   7.297  35.240   2.751
61175W        W29569   7.922   5.790  11.619
61176W        W29570  11.636  23.964  14.479
61177W        W29571  42.701  20.209   2.208
61178W        W29572  31.678  26.968   1.457
61179W        W29573  29.143  21.992   1.735
61180W        W29574  15.310   0.179  13.780
61181W        W29575  23.566  29.057  13.397
61182W        W29576  22.509  11.614   2.762
61183W        W29577  20.864  40.087   2.205
61184W        W29578   3.784  27.953   4.619
61185W        W29579   4.525  27.977   4.214
61186W        W29580  14.086  35.875   4.213
61187W        W29581  32.405  23.227   3.883
61188W        W29582  25.082  23.033   1.848
61189W        W29583  38.878   8.185  12.226
61190W        W29584   3.982  36.963   2.393
61191W        W29585  43.834  31.786  14.322
61192W        W29586  35.509  31.802   2.679
61193W        W29587  42.262  17.734  11.414
61194W        W29588  26.025  34.029  13.905
61195W        W29589   5.378  31.037  10.728
61196W        W29590   7.797  32.155  11.996
61197W        W29591   4.205  27.652   4.453
61198W        W29592  21.282  36.168  11.405
61199W        W29593  35.359  42.954   5.020
61200W        W29594   8.768  40.930   0.324
61201W        W29595  43.807  26.667   5.095
61202W        W29596  33.328   5.277  11.342
61203W        W29597  12.782  40.538   4.651
61204W        W29598  35.828  18.101  14.651
61205W        W29599  26.647  12.586  13.072
61206W        W29600  15.334  28.655   2.861
61207W        W29601   0.359  40.746  13.396
61208W        W29602   0.377   0.887  11.112
61209W        W29603  13.523  36.483   2.669
61210W        W29604  30.045  43.984  14.892
61211W        W29605  44.787  24.079  11.672
61212W        W29606  34.901   7.501  10.548
61213W        W29607   3.054  22.304  14.452
61214W        W29608  20.180  10.440   4.184
61215W        W29609  33.498   4.619  13.039
61216W        W29610  40.501   0.127   1.088
61217W        W29611   1.457  17.217   0.167
61218W        W29612  14.502  14.170  11.987
61219W        W29613  42.727  20.709  11.965
61220W        W29614   0.806  15.995   0.258
61221W        W29615  25.417  11.183  11.612
61222W        W29616  41.000   1.298   4.759
61223W        W29617  34.108  38.791   2.895
61224W        W29618  18.482  36.859   1.523
61225W        W29619  21.766  31.167  11.678
61226W        W29620  12.322  28.583  14.089
61227W        W29621  34.046  39.532   4.602
61228W        W29622  31.235  15.224  13.972
61229W        W29623  12.722  34.838  13.807
61230W        W29624  12.899  38.408   2.279
61231W        W29625   9.301  21.804  13.856
61232W        W29626  34.030  17.766   4.698
61233W        W29627  39.815  39.339  11.422
61234W        W29628   6.098  15.159   0.994
61235W        W29629  16.788   1.242   3.619
61236W        W29630  12.114  43.458  13.825
61237W        W29631  22.706  32.199  10.650
61238W        W29632   6.300   6.141  13.411
61239W        W29633  16.540  16.901  12.973
61240W        W29634  40.274  34.315  10.756
61241W        W29635  23.134  25.980   0.188
61242W        W29636  35.067  12.802  10.717
61243W        W29637  23.147  43.106  11.652
61244W        W29638   9.592  18.153   2.347
61245W        W29639   6.591  20.749   0.944
61246W        W29640  42.241  24.937   3.297
61247W        W29641  25.649   1.359   0.410
61248W        W29642  42.470  30.956  11.656
61249W        W29643  31.089  23.029   3.252
61250W        W29644   7.434  36.112  11.960
61251W        W29645  23.136  39.995  13.359
61252W        W29646  38.389  15.372  11.971
61253W        W29647  13.596  24.637  12.493
61254W        W29648  10.239  10.857  10.693
61255W        W29649  28.598  32.675  13.083
61256W        W29650  36.974  16.644  14.775
61257W        W29651  19.576  43.082  11.619
61258W        W29652  11.246  37.953  12.747
61259W        W29653   4.379  16.752  10.508
61260W        W29654  35.566  42.284  11.103
61261W        W29655  34.522  29.638  13.894
61262W        W29656  36.323  35.773  11.919
61263W        W29657  14.542  13.737   2.231
61264W        W29658   0.873  26.008   4.294
61265W        W29659  36.682  44.934  13.452
61266W        W29660  14.962   4.717   9.872
61267W        W29661  26.754  10.260   5.297
61268W        W29662  32.030  41.241   2.370
61269W        W29663  22.725   9.571  13.930
61270W        W29664  33.936  41.064   0.407
61271W        W29665  11.585  39.859  14.599
61272W        W29666  39.087  20.555   1.813
61273W        W29667   0.025  14.104  11.307
61274W        W29668  39.413  33.985  12.940
61275W        W29669  41.960   0.155   3.739
61276W        W29670  34.919  27.727   0.340
61277W        W29671  19.045  30.608  14.702
61278W        W29672  19.231  15.019  13.142
61279W        W29673  28.629  25.708  12.988
61280W        W29674   7.102   5.352   1.822
61281W        W29675  28.345  40.770   4.074
61282W        W29676  36.630  42.356  12.408
61283W        W29677  28.964   4.957   4.583
61284W        W29678  38.284  36.547   0.502
61285W        W29679  25.949  15.342  12.808
61286W        W29680   1.378  44.853  14.331
61287W        W29681  35.993   7.549   4.134
61288W        W29682  22.617  25.993   2.765
61289W        W29683   6.295  27.607   1.930
61290W        W29684  11.600   7.809   2.052
61291W        W29685   9.899   9.851   1.201
61292W        W29686  24.118   0.235  13.407
61293W        W29687  29.176  32.076  13.926
61294W        W29688  12.667  41.902   1.687
61295W        W29689  33.636  11.050   5.079
61296W        W29690  39.329  30.727   0.776
61297W        W29691   8.512   5.475   2.216
61298W        W29692  25.243  37.336   4.034
61299W        W29693   3.365  43.227   2.246
61300W        W29694  14.095   2.770  13.513
61301W        W29695  38.583  16.185  12.495
61302W        W29696   9.851  39.482   0.738
61303W        W29697  15.975  21.762   1.242
61304W        W29698   4.412  12.029  14.310
61305W        W29699  33.435  41.031  12.468
61306W        W29700  31.929  40.565  14.428
61307W        W29701  27.905  17.143   3.068
61308W        W29702  44.324  16.316   4.268
61309W        W29703   0.300   5.584   2.356
61310W        W29704  38.210  11.138   1.282
61311W        W29705  12.183  26.345  11.182
61312W        W29706  44.456  26.119   0.773
61313W        W29707   4.410  25.093   2.737
61314W        W29708  42.503  20.618   1.313
61315W        W29709  25.629  17.627  14.640
61316W        W29710  14.330   7.596  12.985
61317W        W29711  34.905  19.300   0.442
61318W        W29712   3.491  21.141   4.091
61319W        W29713  12.636  10.891   0.882
61320W        W29714  28.995  36.512  11.514
61321W        W29715   6.215   3.165  14.503
61322W        W29716   4.691  23.973   0.253
61323W        W29717  23.427  30.313   4.345
61324W        W29718  43.037   2.264   4.702
61325W        W29719  14.742  43.445  14.961
61326W        W29720   1.739  25.596   0.410
61327W        W29721  14.145  44.852  14.743
61328W        W29722  29.593  35.259  11.663
61329W        W29723  11.868   7.557   0.369
61330W        W29724  10.846   0.170  13.839
61331W        W29725  17.032   4.391  13.350
61332W        W29726  22.883  44.903  10.825
61333W        W29727  27.452  11.723   0.328
61334W        W29728   7.431   9.785  14.722
61335W        W29729   9.702  37.407   1.430
61336W        W29730   1.437  20.023   0.574
61337W        W29731  15.785   2.410  14.375
61338W        W29732  19.060  36.551   2.875
61339W        W29733  43.530  43.377  13.559
61340W        W29734   9.486  41.014   1.823
61341W        W29735  20.271  30.650  14.348
61342W        W29736  25.717  17.491   3.191
61343W        W29737  12.653  24.118  11.816
61344W        W29738  15.800   2.774  11.847
61345W        W29739  12.052   8.667  12.070
61346W        W29740  23.960  21.313   1.226
61347W        W29741  17.847  23.131  14.000
61348W        W29742  23.524  31.045   5.083
61349W        W29743   8.994  29.533   3.290
61350W        W29744  20.519  12.391  12.191
61351W        W29745  22.891  37.645   1.592
61352W        W29746  10.919  40.565   1.822
61353W        W29747  40.921   2.978   4.565
61354W        W29748   0.071  36.761  14.765
61355W        W29749  27.916  23.870   4.458
61356W        W29750  28.194  14.769   0.227
61357W        W29751   9.991  18.691   0.431
61358W        W29752  39.855  37.384   0.371
61359W        W29753  22.270  35.560  11.000
61360W        W29754  17.133  30.541  10.732
61361W        W29755  25.972  21.146  10.745
61362W        W29756  23.215  22.667  10.553
61363W        W29757  34.440  24.703   2.449
61364W        W29758   2.382  44.305   1.497
61365W        W29759  28.717  43.821   2.752
61366W        W29760  17.823  28.948  13.288
61367W        W29761  21.198  12.309  11.924
61368W        W29762  44.726  38.877  14.217
61369W        W29763  31.150  34.499   3.076
61370W        W29764  38.276  38.377  13.795
61371W        W29765  17.518  36.957   1.346
61372W        W29766   9.682   0.451   1.910
61373W        W29767  28.565  27.089  11.224
61374W        W29768  12.205  16.178   3.610
61375W        W29769  27.968  11.605  13.278
61376W        W29770  27.560  37.778  12.604
61377W        W29771  34.888  43.716  13.087
61378W        W29772  17.056  29.638   0.735
61379W        W29773  42.750  29.419  12.354
61380W        W29774  31.833  28.946  13.945
61381W        W29775  16.797  26.601   2.011
61382W        W29776   1.247  38.083  13.867
61383W        W29777   7.561  26.171   0.675
61384W        W29778  35.126  23.778  13.954
61385W        W29779  19.532  32.308  14.411
61386W        W29780  14.988   3.203   0.782
61387W        W29781  20.976   5.247  10.740
61388W        W29782   3.546   5.192   4.992
61389W        W29783  19.262  19.498  13.871
61390W        W29784  22.101  43.483  14.919
61391W        W29785   0.056  20.595   0.816
61392W        W29786  33.462  16.634   4.408
61393W        W29787  18.416  44.226  14.388
61394W        W29788  22.179  30.126   0.717
61395W        W29789  39.063  39.794   2.695
61396W        W29790   3.040  28.496   4.701
61397W        W29791  24.751  30.558   0.717
61398W        W29792   6.836  23.032   9.665
61399W        W29793  34.486  18.741  13.800
61400W        W29794  33.935  22.706  12.367
61401W        W29795  33.613  39.334   1.793
61402W        W29796  12.770  25.950  14.781
61403W        W29797  14.583  42.514   0.341
61404W        W29798  29.987  44.886   3.717
61405W        W29799  37.032   7.854  13.529
61406W        W29800   5.805  34.793  14.327
61407W        W29801  22.725  26.621  14.444
61408W        W29802  17.146   9.913   5.172
61409W        W29803  32.556  25.339   1.403
61410W        W29804  21.302   4.234  14.535
61411W        W29805  26.243   4.866  12.317
61412W        W29806  28.498  38.520   0.686
61413W        W29807  38.484  28.502   2.796
61414W        W29808  22.175   5.432   0.884
61415W        W29809  36.357  26.055   1.582
61416W        W29810  35.415   2.793   4.153
61417W        W29811  20.780  26.530   0.442
61418W        W29812  16.053  10.580  11.540
61419W        W29813  27.379  27.113   2.717
61420W        W29814  26.434  36.935   3.605
61421W        W29815  24.677   3.757   1.477
61422W        W29816   4.446  18.674  12.047
61423W        W29817  16.314  37.646  13.035
61424W        W29818  29.365  23.199   4.599
61425W        W29819  39.357   6.769  13.368
61426W        W29820  43.566  19.380   0.392
61427W        W29821   6.586  36.338  13.916
61428W        W29822  40.881  28.881   2.018
61429W        W29823  37.952  17.827   1.398
61430W        W29824  44.803  10.256  14.089
61431W        W29825   4.349  13.815   4.046
61432W        W29826   9.169  33.814   2.299
61433W        W29827  12.419  21.232   2.475
61434W        W29828  13.066   4.479  10.425
61435W        W29829  19.602  11.739  13.483
61436W        W29830  12.393  37.993  11.005
61437W        W29831   5.171  16.240   4.011
61438W        W29832  17.324  36.582  14.882
61439W        W29833  17.811  21.260   4.119
61440W        W29834   6.341  16.799  10.440
61441W        W29835  17.898  16.873   0.445
61442W        W29836  22.110  24.920   3.190
61443W        W29837  14.132  18.414  11.341
61444W        W29838   7.907  33.978   3.692
61445W        W29839  37.977  37.006   3.681
61446W        W29840  27.091  10.700  10.897
61447W        W29841  30.688  19.565  14.766
61448W        W29842  29.086   5.441  11.183
61449W        W29843  44.592  36.014  12.163
61450W        W29844   8.153   6.819   4.967
61451W        W29845  13.363  35.163  11.852
61452W        W29846  18.512  31.643   0.378
61453W        W29847  36.970  16.540   4.898
61454W        W29848  19.605   0.733   4.581
61455W        W29849  30.845  42.675  14.385
61456W        W29850  26.357  31.914  10.738
61457W        W29851  12.765  31.872  10.781
61458W        W29852  24.568   9.161  11.256
61459W        W29853  22.206  21.666  13.368
61460W        W29854   2.716  30.404  13.524
61461W        W29855  28.679  16.364   2.377
61462W        W29856  23.474   8.748  11.499
61463W        W29857  25.360   4.240   0.892
61464W        W29858  32.144  12.388   0.318
61465W        W29859  44.412  21.729   0.826
61466W        W29860  11.673   5.704  13.793
61467W        W29861  16.001  26.079   2.293
61468W        W29862  13.263  28.583  14.070
61469W        W29863  15.136  36.367  10.482
61470W        W29864  18.043  29.752   3.331
61471W        W29865   5.488  35.048   1.991
61472W        W29866   3.400  19.036  12.010
61473W        W29867  26.928  14.738   1.691
61474W        W29868  17.787   2.874   2.777
61475W        W29869  15.054  15.036   1.162
61476W        W29870  34.104   8.314   4.567
61477W        W29871  25.547   9.464  11.225
61478W        W29872  18.251   5.307   4.441
61479W        W29873  16.763  33.059   4.666
61480W        W29874  32.505  38.127   4.543
61481W        W29875   8.418   5.045   4.370
61482W        W29876  31.930   3.770  14.844
61483W        W29877  25.913  34.370   1.818
61484W        W29878   8.298   1.687  10.356
61485W        W29879  30.403  12.738   0.369
61486W        W29880  29.609  21.207   1.918
61487W        W29881  16.552   3.853   0.457
61488W        W29882  15.885  35.973  11.874
61489W        W29883   7.852  22.687   1.652
61490W        W29884  11.657  38.458  14.838
61491W        W29885  36.252  43.814   2.344
61492W        W29886  30.880  39.968  13.591
61493W        W29887  21.462  12.304  12.554
61494W        W29888  33.448  39.210  12.850
61495W        W29889  39.829  15.788  13.178
61496W        W29890  18.594  29.986   5.102
61497W        W29891  11.895  42.524   3.166
61498W        W29892  21.247  36.895   3.371
61499W        W29893  19.470  25.410   0.495
61500W        W29894  26.502   8.374  10.480
61501W        W29895  31.420  15.888  12.922
61502W        W29896  28.971  34.092  14.868
61503W        W29897  31.567  25.990  14.209
61504W        W29898  38.785  27.582  12.348
61505W        W29899  19.539   7.813  11.081
61506W        W29900  21.547  34.345   4.799
61507W        W29901  44.608  24.715   1.644
61508W        W29902  39.949  21.168   3.357
61509W        W29903   1.715   9.753  10.878
61510W        W29904  19.564  14.572   0.411
61511W        W29905  23.436  21.052  12.360
61512W        W29906  22.184   6.073   0.201
61513W        W29907  12.389  27.766   4.619
61514W        W29908   7.982  24.499   4.122
61515W        W29909  39.228  15.312   2.900
61516W        W29910  36.771  18.956  10.720
61517W        W29911   7.788  35.128   2.370
61518W        W29912  28.419  27.582   4.225
61519W        W29913  29.604  27.515  14.053
61520W        W29914  32.324  44.739   2.392
61521W        W29915  20.404  21.645   0.780
61522W        W29916  20.502   3.976   1.306
61523W        W29917  41.749  23.215  10.925
61524W        W29918  35.108   7.883  11.304
61525W        W29919   5.598  26.664  10.973
61526W        W29920  28.446  19.251  12.843
61527W        W29921  28.642  32.184  13.910
61528W        W29922  21.859  25.455  14.486
61529W        W29923  10.843  30.819   4.255
61530W        W29924   0.190  43.730   0.548
61531W        W29925  13.708  41.210   2.731
61532W        W29926   1.224  37.882   0.451
61533W        W29927  39.799  22.087   0.501
61534W        W29928   2.659  24.643   1.701
61535W        W29929   0.194  19.763   3.263
61536W        W29930   7.806  29.979   4.168
61537W        W29931  17.125  28.259   2.821
61538W        W29932  16.002   1.533   3.187
61539W        W29933   8.839  38.807  13.625
61540W        W29934  24.560  28.209   0.266
61541W        W29935  33.940  27.929  10.495
61542W        W29936  34.806  29.320  11.150
61543W        W29937  34.457  38.716   3.757
61544W        W29938  22.129  34.033   0.462
61545W        W29939  33.483  27.052  12.934
61546W        W29940  30.977  42.048  12.959
61547W        W29941  39.034  33.631   9.889
61548W        W29942  26.645  34.524  13.890
61549W        W29943  32.875   5.092   2.929
61550W        W29944   7.484  44.370  13.145
61551W        W29945  18.710  23.150   0.275
61552W        W29946  29.947  18.185   2.692
61553W        W29947  41.839   1.729   3.192
61554W        W29948  34.609   4.687   0.892
61555W        W29949  26.220  42.848  14.352
61556W        W29950  22.320  24.440   2.637
61557W        W29951  28.930  12.676   1.404
61558W        W29952  25.711  20.709  10.777
61559W        W29953  15.637  31.052   1.387
61560W        W29954  17.208  19.291   1.658
61561W        W29955  39.016  29.728  14.270
61562W        W29956  38.325  37.719  10.030
61563W        W29957  28.728   6.909   4.308
61564W        W29958  22.455  41.324  12.212
61565W        W29959  39.488  29.599  11.756
61566W        W29960  15.758  43.125   0.179
61567W        W29961   2.988  11.372   2.286
61568W        W29962  12.108  34.955  11.597
61569W        W29963  33.292  38.732  12.074
61570W        W29964  29.371  13.275  13.821
61571W        W29965  27.069  35.151   2.683
61572W        W29966  13.282  27.502   0.324
61573W        W29967   6.877  13.084  13.589
61574W        W29968  25.126  34.864  10.746
61575W        W29969  26.658  40.853  12.510
61576W        W29970  44.284  23.392  10.221
61577W        W29971  42.391  34.574  14.094
61578W        W29972  36.985  31.414  13.540
61579W        W29973  17.592   5.707  12.666
61580W        W29974  27.983  38.473  11.160
61581W        W29975  22.057  34.901  11.719
61582W        W29976  37.855  27.880  13.823
61583W        W29977   4.758   5.951   3.298
61584W        W29978  16.060  38.396   0.326
61585W        W29979  14.300  13.687  11.920
61586W        W29980  20.119  15.696  14.774
61587W        W29981   2.044  39.803   3.228
61588W        W29982  31.325  14.169  12.461
61589W        W29983  43.393  12.960   2.354
61590W        W29984  26.118  21.079   1.836
61591W        W29985  37.111  14.768  10.317
61592W        W29986   1.395  21.700  14.822
61593W        W29987  33.468  37.833  11.850
61594W        W29988   3.835  16.315   2.870
61595W        W29989  17.160  21.347  12.477
61596W        W29990  30.424   9.432  10.722
61597W        W29991  22.641  33.110  14.819
61598W        W29992  32.276   1.932   4.892
61599W        W29993  16.621   8.937   4.467
61600W        W29994   8.511   1.670   4.528
61601W        W29995  36.086  26.989   3.909
61602W        W29996  22.129   0.385   1.501
61603W        W29997  36.411  41.754   0.937
61604W        W29998  30.055  10.242  10.854
61605W        W29999  38.759  31.634  12.825
61606W        W30000  16.782  42.366   0.753
61607W        W30001  15.849  34.008  13.776
61608W        W30002  42.956  19.166   0.382
61609W        W30003  16.161  34.064   1.742
61610W        W30004  16.214  17.108   9.673
61611W        W30005  19.013  26.066   9.856
61612W        W30006   1.991   1.401   1.463
61613W        W30007  39.587   0.341   4.631
61614W        W30008  30.454  38.508   0.828
61615W        W30009  33.777   0.272  14.346
61616W        W30010  44.359  19.774  11.654
61617W        W30011   4.218  40.158   3.789
61618W        W30012  25.174  36.915   3.167
61619W        W30013  17.577   5.732   4.650
61620W        W30014  10.301  26.065  10.138
61621W        W30015  12.741  36.723  14.355
61622W        W30016  26.194  36.928  10.779
61623W        W30017  18.072  22.061   4.024
61624W        W30018  16.402  32.316  11.517
61625W        W30019  37.912  22.665   1.315
61626W        W30020  12.704  31.536  14.884
61627W        W30021  15.156  23.139   1.792
61628W        W30022  42.012  33.222  14.848
61629W        W30023  38.783  20.235  13.906
61630W        W30024  13.325  28.138  12.279
61631W        W30025  39.645   7.365   4.147
61632W        W30026  29.145  44.431  11.427
61633W        W30027  36.660  24.495   3.927
61634W        W30028   2.740  11.224  14.832
61635W        W30029   5.872  38.996  12.142
61636W        W30030  21.955  22.782  12.355
61637W        W30031  10.870  11.547   0.529
61638W        W30032  19.221  24.061  11.865
61639W        W30033  44.013  26.101   3.319
61640W        W30034  41.940  11.677   5.470
61641W        W30035  10.676  15.958  14.260
61642W        W30036   0.325  19.250   3.230
61643W        W30037   5.156  20.485   2.637
61644W        W30038  31.190  27.975  12.537
61645W        W30039   1.560  33.971  10.891
61646W        W30040  29.360  33.539   3.157
61647W        W30041  27.486  11.178  10.722
61648W        W30042  36.915  44.506  13.500
61649W        W30043  22.766  28.246   4.952
61650W        W30044   1.819  40.462   0.717
61651W        W30045  24.976  44.097  11.494
61652W        W30046  26.023   3.482  10.085
61653W        W30047  41.984  32.977   2.946
61654W        W30048   4.702  36.888   3.229
61655W        W30049  11.585  14.227   3.109
61656W        W30050  23.453  37.430   4.115
61657W        W30051   9.009   8.453   2.392
61658W        W30052   1.073   3.567  13.508
61659W        W30053  43.263  11.308   0.492
61660W        W30054  28.478  34.555  13.446
61661W        W30055   2.263  13.596  12.972
61662W        W30056  11.166  29.417  13.929
61663W        W30057  17.487  26.687   3.727
61664W        W30058  31.993  27.250  11.527
61665W        W30059  26.688  36.071  12.983
61666W        W30060  30.877  35.880  13.614
61667W        W30061  13.295   5.904   4.527
61668W        W30062   4.272  19.276  11.535
61669W        W30063   9.573  11.784  12.883
61670W        W30064  34.916  23.468   0.415
61671W        W30065  39.024  41.519   4.998
61672W        W30066   5.847  15.115  13.140
61673W        W30067  31.411  43.681   4.857
61674W        W30068  29.221   9.206   2.204
61675W        W30069  40.597  17.220  13.251
61676W        W30070  29.976  23.711   4.156
61677W        W30071  28.260  17.568  13.037
61678W        W30072  29.730  16.649   1.275
61679W        W30073  11.114   6.201   1.205
61680W        W30074  40.786  42.239  14.094
61681W        W30075  29.415  36.955  12.112
61682W        W30076  13.219  19.093   4.168
61683W        W30077  41.999   8.676   2.395
61684W        W30078  16.741  31.935   2.159
61685W        W30079  39.477  25.523  13.843
61686W        W30080   3.262  38.053   2.750
61687W        W30081  17.619  18.091   2.400
61688W        W30082  37.008  24.215  12.962
61689W        W30083  39.307   7.861  13.474
61690W        W30084  21.105  29.433   3.846
61691W        W30085  30.450  28.907  11.876
61692W        W30086  16.992  33.643  13.724
61693W        W30087   9.543  25.811   9.811
61694W        W30088  17.199   8.706   4.645
61695W        W30089  31.689   3.753   0.853
61696W        W30090  36.673  33.080  12.803
61697W        W30091  25.404  40.442  12.908
61698W        W30092  12.352  18.582  11.176
61699W        W30093  17.042  26.099  12.391
61700W        W30094  16.606  42.055   4.187
61701W        W30095  16.367  19.103   3.824
61702W        W30096  39.918  33.792  14.962
61703W        W30097  11.828  14.016   1.426
61704W        W30098   7.870  35.671  13.571
61705W        W30099  10.396  19.287  14.344
61706W        W30100  34.883  25.482  12.632
61707W        W30101  22.027  16.944  11.469
61708W        W30102   2.079  15.863   3.726
61709W        W30103  23.839  13.907  13.422
61710W        W30104  19.101  29.198  13.425
61711W        W30105   5.974  33.575  14.930
61712W        W30106  20.144   0.445  13.764
61713W        W30107  18.182  39.057  11.625
61714W        W30108  13.474   4.811   0.962
61715W        W30109  44.281  43.748   2.839
61716W        W30110  37.873  24.149  12.538
61717W        W30111  22.793   8.249  13.476
61718W        W30112  41.414  15.716  11.372
61719W        W30113   4.702  34.079  14.762
61720W        W30114   4.292  14.771   2.168
61721W        W30115  10.723  41.635   4.707
61722W        W30116  21.267  28.961   4.023
61723W        W30117  26.626  27.592  13.981
61724W        W30118  37.786  38.575  11.546
61725W        W30119  24.188  23.966   3.538
61726W        W30120   3.180   5.174   1.289
61727W        W30121  40.317  17.511   4.085
61728W        W30122  16.693  34.893   3.637
61729W        W30123  12.359  29.445   0.895
61730W        W30124  27.085  27.004   1.796
61731W        W30125  12.174   6.464   3.061
61732W        W30126  23.721  13.963   2.792
61733W        W30127  39.623   0.401  13.823
61734W        W30128  34.315   1.272  11.140
61735W        W30129   2.817  34.221   3.180
61736W        W30130  32.916  20.252  12.448
61737W        W30131   8.756  31.147  11.003
61738W        W30132   9.231  14.313  12.667
61739W        W30133   7.447  37.387  11.369
61740W        W30134  28.265  32.482  12.739
61741W        W30135   8.216  33.571  14.337
61742W        W30136   7.792  16.713   2.174
61743W        W30137  29.099   7.569  14.210
61744W        W30138  16.189  11.142  14.790
61745W        W30139  26.242  22.099  14.955
61746W        W30140  26.246   7.286   3.317
61747W        W30141  10.298   3.928   1.777
61748W        W30142  31.272  19.580   5.016
61749W        W30143  12.751  44.716  11.114
61750W        W30144  33.363  34.425   1.283
61751W        W30145  12.643  23.661   2.855
61752W        W30146  30.094  42.469  13.032
61753W        W30147  15.604  24.962   1.329
61754W        W30148  10.407  44.002  14.337
61755W        W30149   6.212  43.977  13.776
61756W        W30150  33.530  41.989  14.535
61757W        W30151  38.130  26.489   4.183
61758W        W30152  38.564   1.892   4.945
61759W        W30153  10.686  24.903  11.973
61760W        W30154  20.213  17.665  11.779
61761W        W30155  11.218  10.182   1.208
61762W        W30156   1.460  12.396  11.330
61763W        W30157  39.670  29.704   0.869
61764W        W30158   5.679  13.310   0.218
61765W        W30159  24.069  19.349   1.658
61766W        W30160  28.592  10.641   0.344
61767W        W30161  32.177  42.420   4.665
61768W        W30162  12.669  32.861  13.868
61769W        W30163  11.314  39.737  13.001
61770W        W30164  20.822  37.074   4.847
61771W        W30165   1.805   9.171  12.318
61772W        W30166  10.886  39.409   4.564
61773W        W30167  23.830  36.176  13.326
61774W        W30168  37.285  35.651   0.472
61775W        W30169  15.616   9.361   0.325
61776W        W30170  23.299  13.823   4.135
61777W        W30171   5.341  41.798   4.114
61778W        W30172  41.087  30.980  13.851
61779W        W30173  23.995   9.837   3.182
61780W        W30174  19.778  26.587  14.048
61781W        W30175  14.815  34.951  10.570
61782W        W30176  24.155  21.559   1.687
61783W        W30177  37.421  43.598  11.830
61784W        W30178   7.203  23.522   2.491
61785W        W30179  38.001  32.411  10.709
61786W        W30180  43.384   7.783   1.822
61787W        W30181  12.445   0.921   1.759
61788W        W30182  29.563  30.174  14.944
61789W        W30183   0.279  28.587  14.084
61790W        W30184  26.988  44.126  11.485
61791W        W30185   6.878  41.583   1.380
61792W        W30186  34.933  33.091   2.915
61793W        W30187  25.280   0.875  10.964
61794W        W30188  43.798  38.311  13.381
61795W        W30189   7.145  18.642  13.398
61796W        W30190  40.292  11.414   3.379
61797W        W30191  25.893  22.779  11.067
61798W        W30192   1.421  33.537   0.122
61799W        W30193   7.479  14.245  11.634
61800W        W30194  32.048   0.816   2.138
61801W        W30195  27.074  12.720  13.345
61802W        W30196  31.502  31.327  10.452
61803W        W30197  10.806  40.993   2.801
61804W        W30198  27.990  30.062  12.424
61805W        W30199   1.958  43.363   0.797
61806W        W30200  12.143  25.651   1.696
61807W        W30201   0.969   5.237  12.069
61808W        W30202  30.572  13.197   5.062
61809W        W30203  17.264  17.312   3.149
61810W        W30204  25.005  33.413   0.672
61811W        W30205   7.933  14.926  12.439
61812W        W30206   4.233  31.776   4.089
61813W        W30207  34.530  43.294   3.925
61814W        W30208  25.231  11.223  13.389
61815W        W30209  13.533  18.697  13.948
61816W        W30210  18.661  33.380   2.159
61817W        W30211   5.346  28.720   4.818
61818W        W30212  35.951   4.795  12.004
61819W        W30213  14.036  44.394   2.871
61820W        W30214  10.665  28.279   1.378
61821W        W30215   8.831  27.898  11.672
61822W        W30216  16.969   7.140  10.713
61823W        W30217  19.310  42.477   1.855
61824W        W30218  18.089   5.361   4.932
61825W        W30219  23.235   0.322   3.412
61826W        W30220  40.543   1.516  13.032
61827W        W30221  24.907   4.580  11.823
61828W        W30222  40.379  15.111   4.605
61829W        W30223  22.053  26.590  13.915
61830W        W30224  35.628  35.603  12.129
61831W        W30225  24.969  40.910  13.730
61832W        W30226   8.175  41.291   1.879
61833W        W30227  13.900  16.188   4.133
61834W        W30228  34.872  10.726   4.227
61835W        W30229  32.987  27.940  12.934
61836W        W30230  25.141  10.127  12.018
61837W        W30231  34.172   1.804   0.424
61838W        W30232  24.631  26.116  10.632
61839W        W30233  12.125  22.511  11.452
61840W        W30234  25.927   0.807   5.010
61841W        W30235   6.169  28.376   1.412
61842W        W30236  24.565  12.258   1.276
61843W        W30237   0.160  37.074   1.660
61844W        W30238  42.610   1.985  13.812
61845W        W30239   7.747   8.712   1.714
61846W        W30240  13.427   0.304   3.283
61847W        W30241  32.033  19.178  12.477
61848W        W30242  20.113   6.006  11.015
61849W        W30243   9.305  38.349   0.486
61850W        W30244   2.718  38.016  11.470
61851W        W30245  33.441  15.123  13.383
61852W        W30246   1.478  39.841  11.080
61853W        W30247   1.376  13.599   4.193
61854W        W30248   7.243  12.490   4.048
61855W        W30249  10.462   9.697  10.730
61856W        W30250   2.381   3.194  13.306
61857W        W30251   4.236   4.084   4.398
61858W        W30252  13.972  11.298   4.098
61859W        W30253  19.598  33.635   2.824
61860W        W30254  21.132  44.109  13.966
61861W        W30255   9.282  34.490  14.141
61862W        W30256  17.742  12.647   0.720
61863W        W30257  14.679  41.134   0.392
61864W        W30258  24.121  14.312   4.626
61865W        W30259  15.616   1.949   2.803
61866W        W30260  36.819  32.446  11.067
61867W        W30261   9.589   3.949  12.449
61868W        W30262  28.020  14.803  10.994
61869W        W30263  16.686   9.455  10.192
61870W        W30264   8.577  38.523   1.812
61871W        W30265  34.322  42.134   1.755
61872W        W30266  38.909   7.225  14.848
61873W        W30267   7.105   0.997   2.178
61874W        W30268  14.774  43.487  13.441
61875W        W30269  24.081  16.649  12.496
61876W        W30270   9.859   8.396   1.668
61877W        W30271  40.969  41.302  13.005
61878W        W30272  35.839  25.009   3.712
61879W        W30273  28.621  14.102  12.536
61880W        W30274  39.171  18.663   1.429
61881W        W30275  20.170  12.287  11.844
61882W        W30276  36.410  44.787   0.263
61883W        W30277  38.347  25.393   0.861
61884W        W30278  38.446   3.252  14.199
61885W        W30279  19.036   0.193  12.944
61886W        W30280   0.790  18.310  12.489
61887W        W30281   8.284  38.104   4.042
61888W        W30282  36.160   9.383  13.617
61889W        W30283  40.983   5.848   4.970
61890W        W30284  16.058  10.330   3.640
61891W        W30285  44.988   7.722  10.943
61892W        W30286  22.010  40.125   2.663
61893W        W30287  33.418  24.345  13.776
61894W        W30288  13.703  39.818  13.129
61895W        W30289  27.861   5.971  12.519
61896W        W30290   4.512  43.353   1.188
61897W        W30291  21.148   1.728   2.472
61898W        W30292  32.135  35.146  11.826
61899W        W30293  32.523  21.703   3.386
61900W        W30294  42.568  41.506   4.367
61901W        W30295  32.188  31.329   0.296
61902W        W30296   4.023   0.882  12.508
61903W        W30297  14.865  18.740  12.049
61904W        W30298  19.163  11.705  11.670
61905W        W30299  40.247  18.112   0.393
61906W        W30300   5.229  34.075  10.641
61907W        W30301  14.741  42.263   2.902
61908W        W30302   1.294   5.779   2.322
61909W        W30303  29.298  22.952   3.159
61910W        W30304  25.426  38.571   3.722
61911W        W30305  44.963  40.799  14.893
61912W        W30306  25.523   6.731   4.265
61913W        W30307  26.547  28.549   2.238
61914W        W30308   5.905  37.865   4.575
61915W        W30309   6.731  12.596   4.081
61916W        W30310   9.141  22.948  10.771
61917W        W30311  19.925  18.992  12.062
61918W        W30312  11.294   2.671   3.640
61919W        W30313  40.875  28.299   2.792
61920W        W30314  29.933  41.561  11.541
61921W        W30315   1.672  14.254  14.780
61922W        W30316  26.122  34.832   2.357
61923W        W30317  29.958  27.012   3.652
61924W        W30318  38.906  24.656  10.469
61925W        W30319   0.830  36.548  12.893
61926W        W30320  37.473   4.286  11.163
61927W        W30321  35.451  38.621   1.661
61928W        W30322  25.002  27.999   1.695
61929W        W30323  24.535  28.940   2.163
61930W        W30324   5.681   4.087  14.641
61931W        W30325  27.288  36.462   1.974
61932W        W30326   1.293   1.965  12.595
61933W        W30327  33.596   0.394  12.386
61934W        W30328  41.665  29.479   2.832
61935W        W30329  36.580  37.563   3.292
61936W        W30330   1.498  12.213  14.487
61937W        W30331   9.066  23.638  10.305
61938W        W30332  12.057  35.313   2.312
61939W        W30333   1.496  22.107   0.172
61940W        W30334   1.010  18.818   4.155
61941W        W30335  31.200  23.055  10.438
61942W        W30336  16.180  35.321  12.112
61943W        W30337  27.351  38.512  13.071
61944W        W30338  35.977   3.947  11.500
61945W        W30339  43.491  28.577   4.536
61946W        W30340  41.359  39.330  14.040
61947W        W30341  14.664   5.499   3.542
61948W        W30342  11.830   0.452   0.473
61949W        W30343   9.221  43.996  11.591
61950W        W30344  28.457  38.878   3.191
61951W        W30345  35.621  44.957   3.286
61952W        W30346  28.252  30.247  12.840
61953W        W30347  18.164   5.453   1.870
61954W        W30348  23.961  19.772  14.451
61955W        W30349  43.305  18.057  12.514
61956W        W30350  31.701  10.211  12.774
61957W        W30351  17.964  24.947  14.493
61958W        W30352  26.213   1.226  11.939
61959W        W30353  22.980  25.335  13.776
61960W        W30354  22.114  44.424  12.686
61961W        W30355   5.604  27.086  12.123
61962W        W30356  27.327   9.760  12.101
61963W        W30357  16.167  26.107  12.163
61964W        W30358  37.965  38.401  13.363
61965W        W30359  30.450  19.499  12.876
61966W        W30360   1.218   8.342   0.430
61967W        W30361   7.212  15.133  12.599
61968W        W30362  35.690   0.263   3.713
61969W        W30363  25.760   6.736  13.815
61970W        W30364  42.853  43.161  14.586
61971W        W30365  33.900  27.555   0.533
61972W        W30366   1.615   2.662   2.359
61973W        W30367   0.952   8.129   4.307
61974W        W30368   8.209   2.451  14.828
61975W        W30369   1.066  34.432  13.864
61976W        W30370  28.293  14.684  13.019
61977W        W30371  33.426  12.394  11.661
61978W        W30372   6.029  36.935   3.738
61979W        W30373  13.657  42.045   4.505
61980W        W30374  27.489  38.428   4.549
61981W        W30375  29.634  28.029   2.767
61982W        W30376  18.678  14.184   0.416
61983W        W30377   8.818  41.827   0.937
61984W        W30378  14.229  39.000  12.013
61985W        W30379  27.360  14.344   0.506
61986W        W30380   1.096  35.519   2.620
61987W        W30381  28.553   9.624  12.473
61988W        W30382  37.415   6.494   3.442
61989W        W30383   7.103  28.674  13.327
61990W        W30384  13.683   8.304  12.379
61991W        W30385  34.162  28.350   0.724
61992W        W30386  42.604  14.244  13.525
61993W        W30387  10.976  37.969  13.186
61994W        W30388  35.875   9.592   3.756
61995W        W30389   3.197   2.373   1.896
61996W        W30390  15.295  27.873   4.651
61997W        W30391  25.554   3.666   2.479
61998W        W30392  11.119  24.160  13.311
61999W        W30393   9.373  37.346  14.960
62000W        W30394  12.938   3.266   1.316
62001W        W30395  35.903   8.405   4.404
62002W        W30396  31.340   2.967  12.870
62003W        W30397  13.723  11.286   0.429
62004W        W30398  23.677   9.141  12.687
62005W        W30399  16.875  28.047  10.198
62006W        W30400  17.917  12.945   3.051
62007W        W30401   4.025  31.351  12.975
62008W        W30402  18.640  32.454   2.155
62009W        W30403  18.154  16.696  14.633
62010W        W30404   5.383   8.722   2.202
62011W        W30405  18.590  40.903  12.406
62012W        W30406  39.977  40.025   2.766
62013W        W30407  26.531   2.461   1.203
62014W        W30408   5.915   4.376   2.316
62015W        W30409  18.671  35.526  10.748
62016W        W30410  15.164   8.127   1.160
62017W        W30411  16.362  37.785   1.397
62018W        W30412  38.547   3.468  10.710
62019W        W30413  15.008  34.536  12.385
62020W        W30414  12.638   9.252  11.692
62021W        W30415  14.263  12.781  11.952
62022W        W30416  15.655  29.863  14.162
62023W        W30417  27.562  24.039  10.632
62024W        W30418  43.929  22.357   3.569
62025W        W30419  17.560   5.971   3.233
62026W        W30420  30.727   3.873   0.388
62027W        W30421   4.869   1.171   3.756
62028W        W30422   0.708  23.547   2.403
62029W        W30423  16.733   4.786   3.748
62030W        W30424   4.904   1.747  10.280
62031W        W30425  25.949  30.907   4.169
62032W        W30426  16.487  35.756  14.280
62033W        W30427  40.737  35.704  11.129
62034W        W30428  34.976  26.928   1.722
62035W        W30429  16.068  33.011  12.644
62036W        W30430  29.187   2.437  13.299
62037W        W30431   2.488  20.080   4.282
62038W        W30432  44.141  27.920  13.582
62039W        W30433  26.305   0.580   5.304
62040W        W30434  21.077  15.537   0.825
62041W        W30435  20.137  30.785   4.691
62042W        W30436   6.428  42.504  14.272
62043W        W30437  13.575   8.298   4.697
62044W        W30438   6.445  40.439   1.248
62045W        W30439  20.576  19.759   1.383
62046W        W30440  23.310   1.026  11.553
62047W        W30441  35.072  11.048   4.589
62048W        W30442  20.283   9.778   0.873
62049W        W30443   5.191  12.738   0.996
62050W        W30444  28.474   0.961   3.587
62051W        W30445  32.389   6.380  14.591
62052W        W30446   5.676  30.903   4.124
62053W        W30447   0.001  21.054  13.141
62054W        W30448   1.293   4.035   3.767
62055W        W30449  22.562  27.220  11.883
62056W        W30450  20.987   2.888   3.879
62057W        W30451   8.509  33.031   3.721
62058W        W30452  29.564  13.139   0.256
62059W        W30453  44.880   2.883   3.412
62060W        W30454  33.245  42.378  14.752
62061W        W30455  37.297  28.274  12.525
62062W        W30456   9.958  23.563   1.289
62063W        W30457  27.213  43.750   2.774
62064W        W30458  35.200  38.328  11.314
62065W        W30459  34.683   5.873  12.017
62066W        W30460  26.548  42.825  13.927
62067W        W30461  30.956  28.151   2.504
62068W        W30462  20.597   4.390   4.249
62069W        W30463  33.317  23.256   4.362
62070W        W30464  39.949  15.692   2.653
62071W        W30465  12.692  37.531  13.870
62072W        W30466   9.572  34.513  14.696
62073W        W30467   8.395  38.591   1.237
62074W        W30468  23.140  19.281  11.532
62075W        W30469  22.447  43.784   4.217
62076W        W30470  12.605  13.605  13.465
62077W        W30471  24.628  21.577   0.377
62078W        W30472  12.445  36.436   0.753
62079W        W30473  15.749  10.001   2.379
62080W        W30474  20.678  37.511  10.875
62081W        W30475  42.472  36.069   4.572
62082W        W30476  32.085   9.194   2.806
62083W        W30477  44.981  11.991   0.922
62084W        W30478   1.243   0.965   1.168
62085W        W30479  18.157   1.130  13.057
62086W        W30480  43.170  16.039   3.697
62087W        W30481  34.660  43.062   5.030
62088W        W30482   1.858   8.771  14.546
62089W        W30483  34.088  28.620   2.862
62090W        W30484   4.817  22.852  11.876
62091W        W30485  33.513  16.407  12.842
62092W        W30486  37.963  28.902  13.809
62093W        W30487  29.476  23.413  13.765
62094W        W30488  15.156  40.417  11.630
62095W        W30489  37.164  28.278   4.103
62096W        W30490  21.700  36.360   1.579
62097W        W30491   3.450  33.634  12.507
62098W        W30492  28.954  16.483   3.830
62099W        W30493  10.070   1.122  11.934
62100W        W30494  21.012  21.672  14.799
62101W        W30495  11.650  23.228   1.458
62102W        W30496   1.764  18.728   4.381
62103W        W30497  29.491  41.299   1.868
62104W        W30498  39.936   0.456   2.917
62105W        W30499   8.199  30.430   1.255
62106W        W30500  16.256  16.131  13.192
62107W        W30501  22.479  40.089  14.542
62108W        W30502  19.797   0.733   0.870
62109W        W30503  23.607  12.319   3.354
62110W        W30504   9.762  39.916  11.627
62111W        W30505  39.750  14.757   4.130
62112W        W30506  38.443  34.833  13.112
62113W        W30507  10.296  35.450   3.013
62114W        W30508  30.564  26.579  10.744
62115W        W30509  31.649  14.450   0.342
62116W        W30510   2.379  35.881  14.826
62117W        W30511   1.933  18.539   2.888
62118W        W30512  17.174  16.227   0.351
62119W        W30513  26.015  43.487   1.277
62120W        W30514  41.944  20.694   3.411
62121W        W30515  22.552  18.796   1.295
62122W        W30516  19.118  37.374   1.547
62123W        W30517  33.374  37.957  14.525
62124W        W30518  39.990   8.613  12.479
62125W        W30519  15.768  27.911   0.993
62126W        W30520  40.231  29.074  13.068
62127W        W30521  27.531  43.922   0.616
62128W        W30522  30.868  24.082  10.642
62129W        W30523  38.665  18.732   4.377
62130W        W30524   3.337  24.159   3.863
62131W        W30525  20.013   9.784  12.002
62132W        W30526  35.875  42.906   1.036
62133W        W30527  18.476  15.666  13.059
62134W        W30528  18.777  35.311  13.852
62135W        W30529  16.554  34.654  11.593
62136W        W30530  30.087  26.519   5.103
62137W        W30531  41.764  44.644   0.843
62138W        W30532  14.157  36.048  11.015
62139W        W30533  39.486  26.018   3.994
62140W        W30534  40.950  42.290  12.961
62141W        W30535  39.906  12.119   2.029
62142W        W30536  20.323   7.852  14.718
62143W        W30537  10.927  39.403  10.749
62144W        W30538  12.659   2.683  13.539
62145W        W30539  14.907  21.048   0.838
62146W        W30540  43.097  35.360   0.086
62147W        W30541  12.081  23.004   0.563
62148W        W30542  16.661  34.519   0.078
62149W        W30543  41.533  44.370   1.237
62150W        W30544  39.805   1.971  12.886
62151W        W30545  43.396  37.297  12.094
62152W        W30546  24.178  24.475   0.343
62153W        W30547  10.725   6.239   4.353
62154W        W30548  12.928   0.125   0.442
62155W        W30549  24.064  28.059   1.735
62156W        W30550  28.594  12.364  12.101
62157W        W30551  17.920   1.327   1.692
62158W        W30552  42.449   6.010   0.250
62159W        W30553  29.077  15.044   3.330
62160W        W30554   6.238   4.208   1.137
62161W        W30555   0.809  18.946   3.248
62162W        W30556   5.692  28.992  12.981
62163W        W30557  30.450   6.777   4.811
62164W        W30558   3.818   2.843  11.371
62165W        W30559  25.220  43.025   0.245
62166W        W30560  35.807  26.639   2.609
62167W        W30561  35.140   2.959  12.382
62168W        W30562   8.454  27.598   3.209
62169W        W30563   4.880   5.516   4.049
62170W        W30564   6.889  35.393   4.105
62171W        W30565   3.021  20.576  14.431
62172W        W30566  17.190   6.431  11.599
62173W        W30567  23.122  22.631   2.081
62174W        W30568  13.804  11.170   4.569
62175W        W30569  40.048   4.638   4.182
62176W        W30570   9.554  35.178  11.540
62177W        W30571  31.051  23.587  10.827
62178W        W30572  26.046  24.931   4.182
62179W        W30573   6.966  11.774   1.292
62180W        W30574  35.102  30.038   2.418
62181W        W30575   9.087  11.888  12.874
62182W        W30576  27.728  19.699  11.154
62183W        W30577  20.788   8.107  14.692
62184W        W30578  29.499   9.631  14.064
62185W        W30579  21.707  30.993   1.268
62186W        W30580  20.323   7.459  14.384
62187W        W30581  19.514  17.749   1.348
62188W        W30582  42.897  14.666   1.290
62189W        W30583  19.736   3.722   4.993
62190W        W30584   9.637  13.520  12.459
62191W        W30585  13.896   5.546  10.752
62192W        W30586  41.553   2.980   3.728
62193W        W30587   5.359  34.419   3.225
62194W        W30588   0.387  37.277  13.739
62195W        W30589  42.047  31.949  12.077
62196W        W30590  11.753  41.042  13.101
62197W        W30591  12.238  21.733  13.157
62198W        W30592  11.721   3.745  11.165
62199W        W30593  28.339   8.362  11.927
62200W        W30594  41.907  13.688  10.453
62201W        W30595  14.043  36.478   2.729
62202W        W30596   8.681   4.296  11.359
62203W        W30597  43.887  33.126   1.355
62204W        W30598  25.016  29.527   2.977
62205W        W30599  13.895  15.675   4.071
62206W        W30600  23.551  29.004   1.187
62207W        W30601  14.567  31.286   1.954
62208W        W30602  30.881  31.489   3.213
62209W        W30603  27.111  11.281   5.127
62210W        W30604   2.457  17.211   9.959
62211W        W30605  19.089   7.562  13.056
62212W        W30606   9.657   8.363   0.679
62213W        W30607   5.396   2.939  13.900
62214W        W30608  14.086  44.180  13.444
62215W        W30609  11.936  28.507   2.218
62216W        W30610  30.539  14.649   1.676
62217W        W30611  34.372  13.933   2.206
62218W        W30612  11.706  34.117  11.630
62219W        W30613  22.526  28.715  11.010
62220W        W30614  32.885   2.748   1.608
62221W        W30615   0.373  30.903  12.907
62222W        W30616  22.897  39.987  10.495
62223W        W30617  27.342   1.413  13.419
62224W        W30618  40.454  19.559   1.090
62225W        W30619  23.086   4.834   0.961
62226W        W30620  36.469  24.030   3.298
62227W        W30621  36.575  35.113  12.566
62228W        W30622  17.722  28.481  13.491
62229W        W30623  18.555   8.581   4.529
62230W        W30624  22.166  28.055   2.647
62231W        W30625   3.005  40.763  10.445
62232W        W30626  38.934  13.319  13.016
62233W        W30627  29.981  27.907   4.605
62234W        W30628   3.971  26.908  13.504
62235W        W30629  40.012  42.994   2.878
62236W        W30630  15.056  28.534  14.102
62237W        W30631   4.935  41.509  12.095
62238W        W30632  40.461  37.389   5.476
62239W        W30633  35.948  14.079   0.302
62240W        W30634  21.984  37.939  12.471
62241W        W30635  26.701  33.772  13.331
62242W        W30636  36.911  30.578   4.750
62243W        W30637  42.996   2.181   0.844
62244W        W30638   2.200  39.586  13.111
62245W        W30639  33.885  29.615  10.461
62246W        W30640   9.760  18.318   2.814
62247W        W30641  22.058  24.698   4.576
62248W        W30642  42.093  11.381  13.354
62249W        W30643   7.394  41.944   3.615
62250W        W30644  18.139  37.338  13.049
62251W        W30645  39.031  29.012  10.639
62252W        W30646   9.494   4.300  11.555
62253W        W30647  39.464  17.570  10.738
62254W        W30648   7.979  40.056   2.237
62255W        W30649  14.292  25.738   1.656
62256W        W30650  23.034  39.040   3.545
62257W        W30651   1.030  26.517  13.136
62258W        W30652  16.406  14.695  14.482
62259W        W30653   7.464   6.269   1.604
62260W        W30654  27.498  15.629  14.100
62261W        W30655  11.785  42.545   1.498
62262W        W30656  39.554  16.512  13.568
62263W        W30657  10.726   6.148  14.735
62264W        W30658  44.508  40.756  12.400
62265W        W30659  19.501  34.020  13.886
62266W        W30660  32.599   9.871   0.210
62267W        W30661  34.936  25.134   1.641
62268W        W30662   4.598  26.168   3.676
62269W        W30663  40.764  42.969   0.474
62270W        W30664  27.458  26.389   4.142
62271W        W30665  15.085   5.232   4.200
62272W        W30666  26.174   5.279   0.341
62273W        W30667  37.645  18.073   3.192
62274W        W30668  42.812  17.358  13.931
62275W        W30669  32.717  10.042  10.687
62276W        W30670  42.702  38.841   3.171
62277W        W30671  34.381   3.679   1.375
62278W        W30672  30.392   7.906  11.164
62279W        W30673   1.073  32.950  13.490
62280W        W30674  40.593  29.602   2.737
62281W        W30675  21.301  14.304   1.454
62282W        W30676  22.989   3.471   0.441
62283W        W30677   6.302  10.246  13.464
62284W        W30678  19.822  28.449  11.651
62285W        W30679  15.922   8.583   4.916
62286W        W30680   6.317  33.382   2.592
62287W        W30681  10.633  21.537   2.905
62288W        W30682   7.118  31.821  11.966
62289W        W30683   3.261  32.080   5.143
62290W        W30684  41.854  15.336   4.649
62291W        W30685  18.011  15.846  12.792
62292W        W30686  21.302  40.370  14.518
62293W        W30687  25.141  41.033  14.342
62294W        W30688  14.025  35.948   0.370
62295W        W30689  36.138  26.001  14.685
62296W        W30690  36.789  13.230   1.178
62297W        W30691   3.643  36.546  14.753
62298W        W30692   7.804  20.117  11.673
62299W        W30693  25.027  20.677   4.283
62300W        W30694  22.702  32.208   2.210
62301W        W30695  23.237   1.754   2.632
62302W        W30696  18.181  26.704  10.860
62303W        W30697  22.131  33.416   1.026
62304W        W30698  33.115  36.612   1.101
62305W        W30699   3.828   0.471   1.387
62306W        W30700  11.556   1.204   2.929
62307W        W30701   0.807  15.262  11.966
62308W        W30702  14.262  30.978  11.879
62309W        W30703   0.239  27.182  12.586
62310W        W30704  28.596  44.921   1.660
62311W        W30705  20.893  39.629  10.168
62312W        W30706  10.522  15.186  12.222
62313W        W30707   6.084   8.641  11.056
62314W        W30708  24.718  36.884  13.454
62315W        W30709  34.894  23.439  12.279
62316W        W30710  15.717  10.842   4.211
62317W        W30711   9.291   0.829   3.759
62318W        W30712  19.224   2.766  12.061
62319W        W30713  38.194  37.826  11.155
62320W        W30714   8.735  27.681  14.103
62321W        W30715  40.095   1.695  11.426
62322W        W30716   7.904  20.205  14.515
62323W        W30717  15.010  12.669  12.827
62324W        W30718   9.809  35.299  10.631
62325W        W30719  34.111  23.145  14.952
62326W        W30720  24.104  14.928  13.028
62327W        W30721  38.970   4.335  10.620
62328W        W30722  37.441   9.712   2.686
62329W        W30723  26.687  21.470   4.169
62330W        W30724  43.292  17.874  13.106
62331W        W30725  33.085  14.240   0.457
62332W        W30726  32.107  23.558  11.006
62333W        W30727  34.407  15.128   4.810
62334W        W30728  30.197  14.311  13.892
62335W        W30729   6.230  18.464   0.378
62336W        W30730  29.357  14.923  13.952
62337W        W30731  30.858  18.494   4.104
62338W        W30732  17.487  21.984   1.181
62339W        W30733   3.807  40.123   0.403
62340W        W30734  41.828  17.499   3.166
62341W        W30735  38.508   4.852   1.322
62342W        W30736  44.808   3.890   1.734
62343W        W30737  22.676  38.638   3.404
62344W        W30738   8.943  44.213   0.795
62345W        W30739  30.190  21.479   2.615
62346W        W30740   5.283   4.813  13.117
62347W        W30741   5.489  40.092  13.163
62348W        W30742   5.829  21.714   4.397
62349W        W30743  29.096  43.830   4.570
62350W        W30744  21.277  42.607  13.894
62351W        W30745   1.168  25.339  13.784
62352W        W30746  19.152   7.355   0.041
62353W        W30747  24.739   3.842   3.961
62354W        W30748  17.796  34.383  13.467
62355W        W30749   8.194   3.549  11.482
62356W        W30750  13.035  25.922  12.986
62357W        W30751  38.027  40.980  14.386
62358W        W30752   7.449  33.412  14.874
62359W        W30753  38.692   3.409   5.299
62360W        W30754  24.407  35.094   1.967
62361W        W30755  37.379   7.491  14.340
62362W        W30756   8.757  10.227   3.596
62363W        W30757  12.236  31.982  13.009
62364W        W30758  14.503  31.400  10.926
62365W        W30759  18.026  26.091  14.481
62366W        W30760   5.345   9.446   3.587
62367W        W30761  40.736  28.713  12.425
62368W        W30762   6.504  15.177  13.375
62369W        W30763  40.865  40.804   1.026
62370W        W30764  21.091  14.371  14.800
62371W        W30765  19.510  34.885  13.836
62372W        W30766  13.548  12.622  12.539
62373W        W30767  38.554  20.105  13.439
62374W        W30768   2.935  12.227  14.083
62375W        W30769  34.908  42.989   1.720
62376W        W30770   8.539  16.438   4.109
62377W        W30771  15.189  29.466   4.139
62378W        W30772  37.686  26.561   2.625
62379W        W30773   0.761   6.672  13.385
62380W        W30774  16.011  35.452  12.595
62381W        W30775   6.322  17.558  14.274
62382W        W30776  40.326  33.885  12.757
62383W        W30777  41.909  42.007  13.476
62384W        W30778   8.223  32.806  13.572
62385W        W30779  14.255  17.594  11.976
62386W        W30780   5.859   8.011  13.443
62387W        W30781  33.503  35.113  12.179
62388W        W30782   3.463   3.858  12.968
62389W        W30783  27.728  31.533  12.498
62390W        W30784  30.386  40.834   3.685
62391W        W30785  33.918   5.605  11.741
62392W        W30786   9.453  22.471  14.410
62393W        W30787  27.933  39.352  13.894
62394W        W30788  24.415  11.363  11.172
62395W        W30789  39.460  21.176  13.233
62396W        W30790   4.249  23.473   1.807
62397W        W30791  26.195  42.606   0.813
62398W        W30792  43.302  43.807   4.134
62399W        W30793   0.545  44.382   3.716
62400W        W30794  16.731  37.895   0.692
62401W        W30795   0.387   0.436  12.186
62402W        W30796   3.326  16.692  14.440
62403W        W30797  19.631   7.891   4.604
62404W        W30798  12.122   5.217  12.777
62405W        W30799  18.968   0.962   3.468
62406W        W30800  33.919  36.595   3.283
62407W        W30801  26.252   8.365   4.143
62408W        W30802  33.146   1.848  12.579
62409W        W30803  31.881   5.338   0.366
62410W        W30804  41.835  15.479  12.628
62411W        W30805   9.842  39.014  12.117
62412W        W30806  15.882  14.628   0.378
62413W        W30807  11.240  36.138   3.371
62414W        W30808  12.651  20.725   3.558
62415W        W30809  36.960  18.428   3.589
62416W        W30810  31.322   2.852  13.970
62417W        W30811  17.855  30.615  14.385
62418W        W30812  10.851  14.272  11.132
62419W        W30813  27.790  17.686   3.260
62420W        W30814  33.420  38.925   0.437
62421W        W30815  35.139  25.578   0.431
62422W        W30816  34.504  19.309  10.747
62423W        W30817   8.830  36.487  11.625
62424W        W30818  18.303   4.417  12.978
62425W        W30819   2.163  14.146  12.172
62426W        W30820  20.679  25.484  14.904
62427W        W30821   5.269   3.045   1.413
62428W        W30822   5.028   5.600   3.549
62429W        W30823  35.817   8.503  13.275
62430W        W30824  19.736  40.281   1.287
62431W        W30825  28.887  30.689   2.708
62432W        W30826  43.967  31.260  12.421
62433W        W30827  40.049  43.704  11.165
62434W        W30828  38.549  10.099   2.299
62435W        W30829   6.667  15.399   1.844
62436W        W30830  41.946  19.250   3.716
62437W        W30831   3.040  21.132   3.585
62438W        W30832  29.042  33.486  10.959
62439W        W30833  35.452  28.932  12.507
62440W        W30834  21.314   0.486  13.040
62441W        W30835  22.526  25.518   3.624
62442W        W30836  24.370   1.405   2.162
62443W        W30837  40.418   1.676  10.202
62444W        W30838  14.655  36.471   3.286
62445W        W30839   7.763   9.670   4.890
62446W        W30840  43.989  27.606  11.054
62447W        W30841  32.478  17.174  10.147
62448W        W30842   8.544  18.686   1.494
62449W        W30843   1.150  20.520  14.878
62450W        W30844  29.964  39.897   2.611
62451W        W30845  37.107  43.089   2.656
62452W        W30846   3.357  22.697   3.754
62453W        W30847  14.268  41.022  14.760
62454W        W30848  21.741  38.293   3.064
62455W        W30849  35.819  37.229   0.486
62456W        W30850  36.013  19.697  13.008
62457W        W30851  44.402  29.268   4.460
62458W        W30852  39.707  32.875  13.486
62459W        W30853  22.306  20.543   0.933
62460W        W30854  16.775   8.633  14.638
62461W        W30855  43.859  16.174   3.196
62462W        W30856  41.414   8.683   3.285
62463W        W30857  20.099  11.172  13.426
62464W        W30858  11.669  22.177   2.456
62465W        W30859  26.430  20.974  12.591
62466W        W30860  25.605  20.273   3.815
62467W        W30861  28.603   0.615  11.286
62468W        W30862  16.159   6.372  12.189
62469W        W30863  22.781  41.928   2.667
62470W        W30864  24.474  24.166  13.458
62471W        W30865  26.762  19.996  14.440
62472W        W30866  38.451   4.615  13.502
62473W        W30867  42.856   1.246  12.055
62474W        W30868  23.155   3.543  11.803
62475W        W30869  30.363  31.610   2.355
62476W        W30870  39.914  43.854   3.310
62477W        W30871  26.083   0.839   4.066
62478W        W30872  25.945  12.701   1.812
62479W        W30873  26.645   9.848   0.294
62480W        W30874  22.798   9.402  11.573
62481W        W30875   2.358  17.201   4.750
62482W        W30876  30.075  33.069   1.329
62483W        W30877  17.087  36.421   0.336
62484W        W30878   4.018  18.278   4.547
62485W        W30879  30.609  35.099   0.290
62486W        W30880  32.520  25.832   1.271
62487W        W30881  15.563  25.053  12.199
62488W        W30882  23.810   5.350  10.692
62489W        W30883  10.080  41.007  14.902
62490W        W30884  10.699   1.428   3.711
62491W        W30885  23.133  41.755   2.084
62492W        W30886  34.351  39.519   2.436
62493W        W30887  24.977  23.716  12.879
62494W        W30888  38.375  39.119   2.714
62495W        W30889   1.763  19.309   0.360
62496W        W30890  14.571   4.335   1.736
62497W        W30891  31.096   0.240   1.429
62498W        W30892   8.237   9.850  11.029
62499W        W30893  31.134  28.126   0.870
62500W        W30894  33.033  36.108   0.347
62501W        W30895  20.637  44.543  11.761
62502W        W30896  19.731  10.148   4.206
62503W        W30897   4.886  25.424  12.376
62504W        W30898  16.832   9.118   2.385
62505W        W30899  33.559  11.571   4.176
62506W        W30900   2.634  35.462  11.914
62507W        W30901   2.327  19.079   3.290
62508W        W30902   2.793   7.113   0.798
62509W        W30903  43.471  16.361  13.455
62510W        W30904  44.989  39.559   2.306
62511W        W30905  26.396  24.167  10.733
62512W        W30906  10.142   1.190   2.388
62513W        W30907  38.558  29.419  13.470
62514W        W30908   1.009  30.109   4.151
62515W        W30909  29.995  17.573   2.256
62516W        W30910  15.497  36.294   3.152
62517W        W30911  26.874  43.008   3.291
62518W        W30912  28.237  39.324   3.454
62519W        W30913  37.370  19.351   1.820
62520W        W30914  40.829  38.820  10.396
62521W        W30915   8.078  11.241   0.453
62522W        W30916  15.470   6.962  10.442
62523W        W30917  14.544   0.738  13.004
62524W        W30918  34.529   5.703   2.914
62525W        W30919  22.821  42.905   1.772
62526W        W30920  41.550  34.160  12.301
62527W        W30921  30.396  22.499   3.659
62528W        W30922   6.456  39.959   0.538
62529W        W30923  42.803  40.945   3.618
62530W        W30924   2.601  40.429  10.401
62531W        W30925  31.939  22.992   3.920
62532W        W30926   1.340  26.793   2.830
62533W        W30927  26.939  40.879  14.952
62534W        W30928  13.206  30.875  14.562
62535W        W30929  21.008  30.132  10.595
62536W        W30930  32.162  43.835  11.580
62537W        W30931  22.101  10.404   4.107
62538W        W30932  32.922   0.192   3.198
62539W        W30933  34.602  16.728   1.188
62540W        W30934  17.892  41.976  13.702
62541W        W30935  20.085  17.599  14.711
62542W        W30936  14.171   3.942  14.009
62543W        W30937  23.477  11.711   1.819
62544W        W30938  19.273  44.312  12.102
62545W        W30939  39.350  38.479   0.688
62546W        W30940  13.479   4.342   0.119
62547W        W30941  26.081  26.178  10.533
62548W        W30942  30.165  14.138   3.271
62549W        W30943  38.013  14.965   1.287
62550W        W30944  28.575  44.786   0.388
62551W        W30945  21.550   9.141   0.020
62552W        W30946   9.257  10.046  13.508
62553W        W30947   2.080  29.621  14.320
62554W        W30948  42.210   8.767   0.010
62555W        W30949  20.073  30.262  11.264
62556W        W30950  44.443   8.434   4.171
62557W        W30951  40.300  31.646  14.469
62558W        W30952  16.386  35.018   0.808
62559W        W30953  43.270  22.958   3.758
62560W        W30954   3.821   2.182   2.947
62561W        W30955  20.809  24.524  12.381
62562W        W30956  21.180  41.267  13.842
62563W        W30957   6.407   7.327  14.052
62564W        W30958  20.004  14.810  11.226
62565W        W30959  20.274  38.586   2.251
62566W        W30960  23.239  12.996   0.987
62567W        W30961  44.816  24.364   1.955
62568W        W30962  30.849  43.875  11.522
62569W        W30963  39.461  11.226  14.823
62570W        W30964  24.365  38.502  12.097
62571W        W30965  16.640  16.072  12.006
62572W        W30966   6.261  16.562   4.219
62573W        W30967   9.813  23.109  13.798
62574W        W30968  33.935  18.982   1.435
62575W        W30969  42.978  11.116   2.887
62576W        W30970  26.556  32.931  12.642
62577W        W30971   6.441   5.172   9.843
62578W        W30972  20.231   0.118  10.319
62579W        W30973  40.001   8.689   3.896
62580W        W30974   4.312   9.777   2.836
62581W        W30975  29.941  17.191  12.013
62582W        W30976   6.287  40.880  10.366
62583W        W30977  27.898  31.706  11.899
62584W        W30978  34.385  20.908   4.929
62585W        W30979  39.544  39.887  12.937
62586W        W30980  15.832  22.699   1.473
62587W        W30981  25.158   8.225  11.665
62588W        W30982  22.182  19.753  10.953
62589W        W30983  33.581   5.922   2.173
62590W        W30984  12.102  15.185  11.840
62591W        W30985  16.624  15.161   0.766
62592W        W30986  11.004  13.769  13.367
62593W        W30987  38.567   9.554  14.100
62594W        W30988   0.938  42.713   2.120
62595W        W30989   8.855  15.675   3.741
62596W        W30990  41.035  30.866  12.889
62597W        W30991   8.551   2.721  10.257
62598W        W30992   1.352  10.902  11.582
62599W        W30993  33.991   3.966  11.040
62600W        W30994   7.791   5.274  12.327
62601W        W30995  38.419  29.894   3.160
62602W        W30996   7.826  39.024   1.443
62603W        W30997  10.136  27.902   0.898
62604W        W30998  41.260  16.778   3.659
62605W        W30999  41.278   0.267   0.465
62606W        W31000   7.683   8.603   2.239
62607W        W31001   5.811  14.166   0.517
62608W        W31002  17.195  27.515  14.404
62609W        W31003   4.039   6.779  12.374
62610W        W31004  40.753  29.555   4.099
62611W        W31005   6.140  17.205  10.694
62612W        W31006  37.804   1.754   3.333
62613W        W31007  34.144  24.444  12.052
62614W        W31008  22.588  21.710  12.998
62615W        W31009  44.006  24.235  14.896
62616W        W31010  40.912  42.778  13.210
62617W        W31011  15.140  30.850  11.959
62618W        W31012   3.595  43.911  10.105
62619W        W31013  17.155  11.428  13.647
62620W        W31014  43.822  44.352   1.450
62621W        W31015  31.620  11.009   4.275
62622W        W31016  20.682  38.930   3.821
62623W        W31017  43.322  15.516  12.478
62624W        W31018  20.687  39.013  14.332
62625W        W31019  37.234  28.857   0.174
62626W        W31020  43.345  21.091  14.381
62627W        W31021  16.463   9.321  13.310
62628W        W31022  17.598  22.240   4.291
62629W        W31023   1.449  21.934  13.856
62630W        W31024  18.280   0.797  12.625
62631W        W31025  35.663  44.236   4.264
62632W        W31026  30.225  11.252  12.902
62633W        W31027  27.193  10.394  14.362
62634W        W31028  44.083  13.991  11.962
62635W        W31029   7.108  18.637  14.222
62636W        W31030  12.314  21.260  12.957
62637W        W31031   1.881   2.663   4.048
62638W        W31032  24.068  11.106   0.325
62639W        W31033  44.328  15.852   0.502
62640W        W31034  14.878   2.275   1.074
62641W        W31035  34.827  17.206   1.127
62642W        W31036  20.015  38.974   3.186
62643W        W31037  30.608  15.176   3.764
62644W        W31038  27.669  33.494  12.004
62645W        W31039   7.934   7.399   1.535
62646W        W31040  30.430  15.431   3.306
62647W        W31041  14.531  37.923   1.665
62648W        W31042  40.449  34.067  13.233
62649W        W31043  19.053  21.671  13.947
62650W        W31044  21.627  18.636  13.641
62651W        W31045  37.979  19.618   2.849
62652W        W31046  41.989  34.904  11.416
62653W        W31047   8.532   3.385   4.287
62654W        W31048   0.449   6.701  12.480
62655W        W31049   9.368  41.721  12.982
62656W        W31050   4.424   8.600  13.407
62657W        W31051   3.662  19.910  11.566
62658W        W31052  27.309  39.799  10.887
62659W        W31053  13.319  42.787  13.867
62660W        W31054   4.480  17.864   1.180
62661W        W31055  20.390  43.878   0.967
62662W        W31056  40.726  11.338   0.264
62663W        W31057  30.420  34.219   2.386
62664W        W31058  36.062  35.901   2.712
62665W        W31059  31.603  10.630  14.958
62666W        W31060  15.733  36.375   1.737
62667W        W31061  33.006  16.348   2.651
62668W        W31062   0.494  34.548   9.943
62669W        W31063  16.212  11.889  11.532
62670W        W31064  29.594  34.694   1.209
62671W        W31065  34.466  34.874  11.188
62672W        W31066   5.137  44.478   0.392
62673W        W31067  23.082  44.041   2.187
62674W        W31068   4.951  28.632  12.664
62675W        W31069  16.080  33.529  13.867
62676W        W31070  14.959  38.519   3.143
62677W        W31071   2.686   9.840  11.520
62678W        W31072   8.413  11.874  10.972
62679W        W31073  19.738   3.894   4.462
62680W        W31074  23.249   5.143  12.839
62681W        W31075  29.882  39.548  12.096
62682W        W31076  33.990  24.980   2.325
62683W        W31077   6.618   0.873   0.309
62684W        W31078  36.231  26.989   0.727
62685W        W31079   9.127  15.523   3.212
62686W        W31080  25.661  16.367   1.838
62687W        W31081  13.813  16.254  10.634
62688W        W31082  21.037  36.653  11.429
62689W        W31083  19.328  15.818   3.176
62690W        W31084  22.561  27.739   4.425
62691W        W31085  13.081  10.981  12.912
62692W        W31086  11.162  34.438  11.579
62693W        W31087  44.898  31.228  10.634
62694W        W31088   5.723  20.842  13.413
62695W        W31089   8.146  17.792  11.581
62696W        W31090  35.094  28.627   3.227
62697W        W31091  11.582  15.442   4.391
62698W        W31092  19.512  23.526   3.139
62699W        W31093   6.686  21.449   1.256
62700W        W31094  10.597  35.358  13.015
62701W        W31095  11.098  43.340  14.455
62702W        W31096  18.853  17.016  13.012
62703W        W31097  38.267  28.042  13.539
62704W        W31098   0.813  14.127   3.790
62705W        W31099  33.000  43.854  14.806
62706W        W31100  27.880  12.103   3.928
62707W        W31101  10.195  28.619   0.012
62708W        W31102  26.036  38.862   3.629
62709W        W31103  35.223  16.351  13.975
62710W        W31104  25.140  30.006  10.979
62711W        W31105  21.783  20.117   3.321
62712W        W31106   5.310  39.462   4.052
62713W        W31107   4.164  12.094   5.063
62714W        W31108   2.707  19.609   0.986
62715W        W31109  27.995  13.676   4.833
62716W        W31110   0.244  33.576  14.382
62717W        W31111  36.738  31.224  14.610
62718W        W31112  25.530   0.833   0.516
62719W        W31113  37.385   2.188  12.078
62720W        W31114  26.800  16.646   1.338
62721W        W31115   2.656  36.301  12.523
62722W        W31116   7.373  35.458  13.553
62723W        W31117  13.876   4.526  10.618
62724W        W31118  30.123  37.263   5.042
62725W        W31119  22.926  29.099   3.131
62726W        W31120  10.058   7.479   0.783
62727W        W31121  32.316  24.529   4.551
62728W        W31122  27.570   0.897  13.147
62729W        W31123   1.714  21.071   4.174
62730W        W31124   8.203   4.492  11.405
62731W        W31125   3.825  31.486  12.276
62732W        W31126   4.969  21.717  12.920
62733W        W31127  43.077  36.109   0.343
62734W        W31128  34.569  25.954   4.704
62735W        W31129   2.781  12.163  11.195
62736W        W31130  39.352   4.269  13.474
62737W        W31131  38.728  11.699   1.936
62738W        W31132  34.411  21.126   1.887
62739W        W31133  31.716  38.362   4.715
62740W        W31134  18.408   3.956  12.360
62741W        W31135  19.634  29.027   0.952
62742W        W31136  15.130   3.551   5.076
62743W        W31137  43.330  43.345   3.924
62744W        W31138  26.379  12.808   3.487
62745W        W31139  42.937  11.311   3.370
62746W        W31140  34.417  13.748   4.580
62747W        W31141  41.117  11.679   1.031
62748W        W31142  29.097  40.043   4.240
62749W        W31143  39.061  33.103   9.960
62750W        W31144  22.062   9.241  12.333
62751W        W31145  42.896  30.435  14.093
62752W        W31146   2.069  31.438   1.973
62753W        W31147  13.652  22.584   2.266
62754W        W31148  18.487  39.785  13.317
62755W        W31149  38.993   1.812  13.404
62756W        W31150  31.609  25.539   0.793
62757W        W31151  37.598  28.570  12.862
62758W        W31152   2.929  24.138  12.694
62759W        W31153  28.216   1.380   3.752
62760W        W31154  43.181  14.569  11.169
62761W        W31155  14.227  31.047   2.313
62762W        W31156  16.291  20.255   0.247
62763W        W31157  23.438  21.994  11.727
62764W        W31158  30.876  19.605   3.602
62765W        W31159  23.691  34.638   0.491
62766W        W31160   8.895  24.660   3.082
62767W        W31161   3.275  25.147   1.436
62768W        W31162  40.740  15.697   1.975
62769W        W31163  32.908  19.717  12.492
62770W        W31164  10.232  34.910   1.012
62771W        W31165  15.147   7.332  13.411
62772W        W31166  44.073   6.221  11.440
62773W        W31167   0.965   8.226   3.767
62774W        W31168   3.163  36.965  10.710
62775W        W31169  18.054  31.116   0.963
62776W        W31170  30.723  36.951   2.899
62777W        W31171   7.663  24.554  12.143
62778W        W31172  18.302  40.095   0.417
62779W        W31173  27.097  39.448   0.220
62780W        W31174  33.333  17.741   3.077
62781W        W31175  34.562  18.653   3.599
62782W        W31176   1.974  36.315   0.726
62783W        W31177  20.351   6.326  11.944
62784W        W31178  16.293   3.783   1.761
62785W        W31179  36.799  34.110   0.677
62786W        W31180   9.416  20.197   2.764
62787W        W31181  26.993  25.054  11.979
62788W        W31182  11.805   7.666  11.991
62789W        W31183  40.811  44.389   4.567
62790W        W31184  19.507  18.670  13.154
62791W        W31185  17.255  37.579  12.573
62792W        W31186  28.602   4.971  13.985
62793W        W31187  44.484  15.852   4.097
62794W        W31188   8.747  10.175  14.046
62795W        W31189   1.483  28.528   3.262
62796W        W31190  13.141  18.747   4.578
62797W        W31191  35.659   3.973  13.121
62798W        W31192   2.248  27.154   4.687
62799W        W31193  12.130  13.864  10.587
62800W        W31194   2.235   6.530   0.792
62801W        W31195   6.848  31.593   4.119
62802W        W31196  41.961   3.251   2.304
62803W        W31197   9.791  18.207   3.324
62804W        W31198  43.484  43.875  12.883
62805W        W31199  32.393  40.895   0.109
62806W        W31200  36.454   4.167  12.681
62807W        W31201   7.253   6.700  14.833
62808W        W31202  34.244   4.247  13.230
62809W        W31203  44.973  40.573   3.745
62810W        W31204  29.498  22.519   1.344
62811W        W31205   0.930  19.614  12.396
62812W        W31206  42.211  37.446   3.269
62813W        W31207  34.907   7.449  11.065
62814W        W31208  44.298   1.372   4.398
62815W        W31209  34.609  27.933  14.429
62816W        W31210   4.251  39.170   3.593
62817W        W31211  23.091  33.968   0.018
62818W        W31212  10.507  15.661  10.080
62819W        W31213  30.740  10.700   2.754
62820W        W31214  15.806  14.289   2.308
62821W        W31215   4.523   8.335  13.856
62822W        W31216  19.631  32.654  13.566
62823W        W31217  27.027   4.154  11.088
62824W        W31218  31.281   2.251  12.548
62825W        W31219   4.653  23.922  12.139
62826W        W31220  21.470  23.131  14.787
62827W        W31221  32.004   2.933  14.434
62828W        W31222  44.839  22.040  12.440
62829W        W31223   0.353  18.716   1.394
62830W        W31224   5.021  39.998  12.995
62831W        W31225  35.422  42.981  10.448
62832W        W31226  24.178   6.599  10.951
62833W        W31227  11.559  19.346   1.471
62834W        W31228  40.019  33.857  13.405
62835W        W31229  10.865  40.025   2.721
62836W        W31230  35.172  10.124  11.200
62837W        W31231  31.303  39.481   1.229
62838W        W31232   4.519   8.733   2.085
62839W        W31233  30.062  26.645  11.160
62840W        W31234  20.645  10.488   1.638
62841W        W31235  16.023  36.581  10.482
62842W        W31236  35.663   3.457  13.261
62843W        W31237  14.193   5.768  11.587
62844W        W31238  31.730  26.553   3.559
62845W        W31239   2.436  29.455   1.760
62846W        W31240   1.160  38.403  14.316
62847W        W31241  11.171  24.769  11.129
62848W        W31242  35.570  35.511  11.229
62849W        W31243   3.426  37.544   3.203
62850W        W31244  39.935  40.105   1.336
62851W        W31245  23.043  15.363  10.400
62852W        W31246  13.496  22.031  10.542
62853W        W31247  40.340   9.598   3.486
62854W        W31248  41.270  17.207   0.961
62855W        W31249  21.406  36.565  11.080
62856W        W31250  38.640  36.807   3.091
62857W        W31251  38.620  25.585  13.578
62858W        W31252  27.316  37.146   1.346
62859W        W31253  44.377  24.967   2.414
62860W        W31254  27.118   6.350   2.262
62861W        W31255  11.234  26.249  14.378
62862W        W31256   8.687  40.873   1.264
62863W        W31257   6.876  31.175   1.434
62864W        W31258  43.346  33.635  14.404
62865W        W31259  24.461  22.490  14.992
62866W        W31260  20.585  23.765  10.652
62867W        W31261  28.212  17.984   3.273
62868W        W31262  32.466  30.550  14.833
62869W        W31263  27.661   5.477   3.992
62870W        W31264  33.526   6.323   5.241
62871W        W31265  24.914  19.064  11.950
62872W        W31266  13.143   8.831   0.230
62873W        W31267   1.045  17.724   0.396
62874W        W31268  38.334  15.785   0.939
62875W        W31269  13.569  36.310  13.582
62876W        W31270   3.768  19.041   2.652
62877W        W31271  13.679   1.428   4.837
62878W        W31272  11.146  20.804   2.405
62879W        W31273  18.649  27.814  14.421
62880W        W31274  41.787  36.074  14.891
62881W        W31275   5.670  15.315   2.273
62882W        W31276  10.154  16.171   2.936
62883W        W31277   3.021  31.556   0.239
62884W        W31278  34.847  13.693  12.848
62885W        W31279   4.352  11.753   1.149
62886W        W31280  40.094  27.699   1.835
62887W        W31281   5.013  34.991   2.264
62888W        W31282   7.981   6.613  12.064
62889W        W31283  19.156   2.494  12.514
62890W        W31284   6.344  13.699  12.015
62891W        W31285  41.613  44.787  12.480
62892W        W31286  14.895  44.029   3.320
62893W        W31287  18.518  18.945  12.231
62894W        W31288  25.113   9.798   0.355
62895W        W31289  41.870  37.791   0.401
62896W        W31290   0.503  42.556   2.690
62897W        W31291  11.167   2.789  12.541
62898W        W31292  41.459   5.345   3.828
62899W        W31293   7.797   1.505   1.491
62900W        W31294  34.195  12.346  14.336
62901W        W31295   8.600  40.542   2.681
62902W        W31296  10.897   6.402  13.415
62903W        W31297  16.750   4.678   0.401
62904W        W31298  17.349  20.780   5.246
62905W        W31299   6.592  30.829   3.824
62906W        W31300   8.816  14.819  12.870
62907W        W31301  12.378  44.867  12.355
62908W        W31302  38.454  30.158   2.717
62909W        W31303   2.959  17.083  11.858
62910W        W31304  38.596   0.867   2.189
62911W        W31305  27.010  20.475  11.099
62912W        W31306  21.903  17.029   3.569
62913W        W31307  27.264  16.552   3.856
62914W        W31308  19.017  34.327   1.740
62915W        W31309  18.877   9.879   4.021
62916W        W31310   1.917   3.085  14.902
62917W        W31311  24.661  15.320  14.916
62918W        W31312   2.485  23.020   0.332
62919W        W31313  23.196  10.057   4.418
62920W        W31314  20.782   4.277  14.606
62921W        W31315   7.412  36.770   2.607
62922W        W31316   3.800  24.976   5.178
62923W        W31317  26.367   1.060   3.632
62924W        W31318  13.594  20.160   0.197
62925W        W31319  37.856  18.598   0.169
62926W        W31320   6.574  17.227   4.920
62927W        W31321  23.834  35.889   4.868
62928W        W31322  27.210  43.365   3.113
62929W        W31323  44.311   1.451  13.314
62930W        W31324  43.200  21.476  11.077
62931W        W31325  24.229  29.031   3.369
62932W        W31326  21.504  37.602  14.413
62933W        W31327   7.392  24.367   3.120
62934W        W31328   6.173   3.700   1.227
62935W        W31329  41.972  15.415   2.253
62936W        W31330  27.677   1.229   3.226
62937W        W31331  41.328  33.435   3.088
62938W        W31332  21.750  25.003  13.970
62939W        W31333  42.386   8.658   3.246
62940W        W31334  43.208   2.440   1.875
62941W        W31335  23.573  22.568   0.372
62942W        W31336  11.663  17.482   1.891
62943W        W31337   7.692  12.139  11.489
62944W        W31338  12.908  30.166   2.761
62945W        W31339  28.509  15.169   0.348
62946W        W31340  36.587  40.760   3.674
62947W        W31341  14.578  19.556  12.011
62948W        W31342  21.115  40.351   1.440
62949W        W31343  35.406  17.137  12.345
62950W        W31344  22.613  26.590  12.986
62951W        W31345  27.002   6.861  10.499
62952W        W31346   2.371  29.645   0.843
62953W        W31347  25.939  37.484  12.466
62954W        W31348   8.089  29.875  13.474
62955W        W31349   8.492  25.154   1.193
62956W        W31350  16.781  11.407  14.064
62957W        W31351  12.168  37.150  14.664
62958W        W31352  42.938  13.271   3.956
62959W        W31353  30.001  29.452   2.646
62960W        W31354  26.910  40.206   1.738
62961W        W31355   2.861  39.443   4.729
62962W        W31356  21.077  35.595   3.008
62963W        W31357  24.497  22.305   0.478
62964W        W31358  44.947  24.485   3.215
62965W        W31359   6.853  10.162  11.204
62966W        W31360  10.302   5.005   2.812
62967W        W31361  16.130  31.166  12.992
62968W        W31362  27.497   1.741   4.127
62969W        W31363   6.925   4.457   2.489
62970W        W31364   1.487  29.407  12.506
62971W        W31365  19.599  32.169   0.754
62972W        W31366   5.470  13.084  11.172
62973W        W31367  28.617  31.170  11.190
62974W        W31368   4.353  41.853  12.634
62975W        W31369  35.432  36.366  12.559
62976W        W31370  20.295  14.234  14.326
62977W        W31371  17.656  25.112  10.448
62978W        W31372  22.537  27.711  12.049
62979W        W31373   7.352  31.552   3.958
62980W        W31374  36.891   1.246  12.930
62981W        W31375  24.020  18.644   0.476
62982W        W31376   8.344   7.393  11.974
62983W        W31377  22.634   7.739   5.310
62984W        W31378  10.671  25.539   1.737
62985W        W31379  22.497  11.251   1.304
62986W        W31380  19.684   7.510   2.592
62987W        W31381  30.910   2.924   4.450
62988W        W31382  13.273  38.506   4.674
62989W        W31383  10.609  33.680  14.370
62990W        W31384  41.353   8.271   1.831
62991W        W31385  39.480   1.435   1.503
62992W        W31386  19.723  21.527   3.275
62993W        W31387  15.852  28.470  11.506
62994W        W31388  34.431  22.071   0.911
62995W        W31389   7.932  16.122  12.644
62996W        W31390  30.239  29.164   0.400
62997W        W31391  39.629  26.528   2.722
62998W        W31392  25.633  39.346  13.337
62999W        W31393  20.770  32.459   4.096
63000W        W31394   8.209  37.325  12.416
63001W        W31395  37.980  31.607   2.646
63002W        W31396  30.939  28.176  14.295
63003W        W31397   3.384  11.388  10.298
63004W        W31398  20.304   5.407  14.323
63005W        W31399   5.321  10.177   4.038
63006W        W31400  43.988   9.866   2.477
63007W        W31401  10.801  42.548   1.843
63008W        W31402   0.878  29.013  14.367
63009W        W31403  41.680   8.675  14.988
63010W        W31404   0.299  38.992  14.803
63011W        W31405  17.081  20.840   1.434
63012W        W31406   4.282  22.278  13.869
63013W        W31407  39.424   9.319  11.615
63014W        W31408  39.573   4.366   1.717
63015W        W31409  30.052  38.188  13.437
63016W        W31410  26.408  10.481  11.681
63017W        W31411  33.089   0.950  14.567
63018W        W31412  25.705  42.314  13.533
63019W        W31413  21.046  15.724  11.006
63020W        W31414  16.268  37.429   5.069
63021W        W31415   2.611  31.180   4.514
63022W        W31416   3.733  33.363   2.367
63023W        W31417  16.587  32.822  13.324
63024W        W31418  43.294   1.849   3.265
63025W        W31419  30.348   1.809  14.850
63026W        W31420  44.871   2.955  14.548
63027W        W31421  20.684  41.184  14.551
63028W        W31422  24.016  31.061   4.551
63029W        W31423  11.143  20.484  12.844
63030W        W31424   3.599  13.425  13.193
63031W        W31425   3.423  30.980   0.245
63032W        W31426  11.601  13.410  11.629
63033W        W31427  33.101  30.869   0.288
63034W        W31428  41.755  27.207   0.457
63035W        W31429  12.416  30.847   2.961
63036W        W31430  38.161  39.681   0.645
63037W        W31431  42.593  18.149   4.314
63038W        W31432  25.580   3.101   1.055
63039W        W31433  21.259  34.154  12.468
63040W        W31434  22.239   9.774  12.378
63041W        W31435  41.324  32.049  13.331
63042W        W31436  39.376   9.852  12.550
63043W        W31437  40.903  14.999  14.358
63044W        W31438  13.603  27.746  14.986
63045W        W31439  15.147  20.951   3.843
63046W        W31440  10.964  39.420   0.870
63047W        W31441  32.116  33.393  13.999
63048W        W31442   5.272  33.422  12.697
63049W        W31443  31.447  20.958   0.604
63050W        W31444  36.105   5.675   1.933
63051W        W31445  25.269   5.597   0.239
63052W        W31446   0.149  11.756  12.531
63053W        W31447  34.205  25.067  11.036
63054W        W31448   2.874  41.842   4.073
63055W        W31449  40.999  29.407  11.585
63056W        W31450  28.940  27.672   2.371
63057W        W31451  30.400  37.507   1.757
63058W        W31452  13.733   6.417   0.245
63059W        W31453  16.590  16.023   4.735
63060W        W31454  13.045  23.113   0.324
63061W        W31455  27.104  25.598   1.932
63062W        W31456   3.255  35.572  10.941
63063W        W31457   7.818  27.642   0.485
63064W        W31458   0.442  22.425   3.773
63065W        W31459  41.737  42.355   3.739
63066W        W31460  44.852  25.068  10.671
63067W        W31461   3.480   1.749   0.888
63068W        W31462  40.569  44.783  12.441
63069W        W31463  39.926  15.215   3.396
63070W        W31464  28.732   4.972  14.874
63071W        W31465  25.949  31.014   1.860
63072W        W31466   2.384  21.176  11.203
63073W        W31467  10.114  19.403  12.877
63074W        W31468  44.249  30.133  11.157
63075W        W31469  44.486  39.907   3.172
63076W        W31470   5.431  34.078   0.266
63077W        W31471  16.913   6.016   1.324
63078W        W31472   1.954  13.626  13.827
63079W        W31473  30.456   9.425   4.040
63080W        W31474   9.235  34.500  10.804
63081W        W31475  36.295   8.193  12.236
63082W        W31476  38.344  35.069  11.057
63083W        W31477  12.764  10.660  14.055
63084W        W31478  41.727  26.240  11.038
63085W        W31479  13.890  18.333   2.330
63086W        W31480   5.854  35.536  10.375
63087W        W31481  11.907  38.897  11.043
63088W        W31482  21.112  22.722  12.904
63089W        W31483   7.169  18.546   1.173
63090W        W31484  33.079  28.113   2.116
63091W        W31485  17.887  44.470   2.751
63092W        W31486  26.237  29.854   3.508
63093W        W31487  26.235   5.415  13.048
63094W        W31488  18.069  35.956  12.869
63095W        W31489  33.600  42.886   1.034
63096W        W31490  26.092  24.181   3.674
63097W        W31491  28.491  32.760  10.716
63098W        W31492  30.884  21.630  10.987
63099W        W31493  32.980   5.349  10.605
63100W        W31494   6.884  33.937  13.994
63101W        W31495  13.376   2.182  11.472
63102W        W31496  30.900  28.612   1.178
63103W        W31497  35.183  43.229  12.972
63104W        W31498   8.169   9.315   2.346
63105W        W31499  40.267  33.979   2.879
63106W        W31500   0.285  32.016   0.057
63107W        W31501   3.243  20.307   2.732
63108W        W31502  17.320  35.910  11.067
63109W        W31503  18.881  26.001   2.617
63110W        W31504  31.165  36.914  12.487
63111W        W31505  32.865  30.753   5.003
63112W        W31506   3.915  23.165   0.636
63113W        W31507  19.813  25.580   4.273
63114W        W31508  41.388  23.487  10.662
63115W        W31509   5.677   0.362  12.423
63116W        W31510  42.417  13.184   3.183
63117W        W31511   9.055  36.550  14.434
63118W        W31512  17.190  25.691   1.393
63119W        W31513  26.991  34.523   1.860
63120W        W31514  42.756  17.257   1.901
63121W        W31515  33.161  11.875  11.143
63122W        W31516  26.018  27.448  10.663
63123W        W31517  44.256  11.175   2.133
63124W        W31518   7.209  26.537   0.486
63125W        W31519  29.362  23.152  11.166
63126W        W31520   9.859  14.390  14.480
63127W        W31521  39.478  15.776   2.871
63128W        W31522  10.887  32.704   0.607
63129W        W31523  36.907   6.830  10.959
63130W        W31524  42.855  33.077   2.767
63131W        W31525  31.117  33.064   2.096
63132W        W31526  41.924  18.351   1.900
63133W        W31527  38.843  42.037   2.213
63134W        W31528  28.641   8.574  13.450
63135W        W31529  13.438   3.308   1.400
63136W        W31530  22.800  12.820   4.283
63137W        W31531  29.121  40.032  14.111
63138W        W31532  19.043  28.855   3.227
63139W        W31533  39.412  43.320   4.979
63140W        W31534   0.590  37.398   9.705
63141W        W31535   9.602  38.140   0.119
63142W        W31536  29.803   4.993   5.010
63143W        W31537   5.403  39.124   2.552
63144W        W31538  41.268   3.953  12.803
63145W        W31539  15.304  25.009   3.493
63146W        W31540  12.341  20.231   4.223
63147W        W31541   6.913  41.989   2.947
63148W        W31542  44.879  37.501   2.652
63149W        W31543  40.032  41.557  13.735
63150W        W31544  36.102   2.488  12.466
63151W        W31545  31.352  13.802  14.456
63152W        W31546  44.791  41.785  10.765
63153W        W31547  34.473  16.178  13.003
63154W        W31548   0.967  35.590  12.031
63155W        W31549  43.083  42.818  12.441
63156W        W31550  40.502  38.052  10.774
63157W        W31551  27.593  14.310  13.446
63158W        W31552  37.415  22.146   0.257
63159W        W31553  27.648  33.351  14.859
63160W        W31554  32.371   0.415   0.435
63161W        W31555  37.562  27.505  11.053
63162W        W31556   3.467   5.420   3.147
63163W        W31557  28.571  13.069   1.324
63164W        W31558  41.084  41.256  14.995
63165W        W31559  25.179  44.028  11.979
63166W        W31560   5.938  15.823   1.328
63167W        W31561   7.401  39.608  11.549
63168W        W31562  17.692   1.920   2.900
63169W        W31563  43.981  14.087   1.087
63170W        W31564  31.364  12.186  13.925
63171W        W31565  42.899   5.646   1.925
63172W        W31566  27.495  36.110   3.649
63173W        W31567  34.614  22.276  14.666
63174W        W31568  30.964  10.107   1.361
63175W        W31569   7.648  12.179  10.630
63176W        W31570  32.033  40.960   4.587
63177W        W31571  32.137  39.223  11.229
63178W        W31572   9.849  11.488  13.197
63179W        W31573  11.418  14.584   2.158
63180W        W31574  30.015  42.498  13.991
63181W        W31575   2.292  37.289   2.317
63182W        W31576   8.745  33.624   2.670
63183W        W31577  25.304  20.227   3.057
63184W        W31578  22.028  28.052  10.183
63185W        W31579   5.277   5.349  12.485
63186W        W31580   2.990  39.255  13.950
63187W        W31581  18.846  32.879   3.382
63188W        W31582   3.180   5.908  12.057
63189W        W31583  29.925  20.759   0.187
63190W        W31584  32.432  34.030   1.897
63191W        W31585  33.578  29.228  11.098
63192W        W31586  27.492  39.345  13.621
63193W        W31587  33.531  36.977   2.679
63194W        W31588  18.115   6.258   1.187
63195W        W31589  18.168  39.492  12.388
63196W        W31590  15.231   3.690   1.443
63197W        W31591  18.277  36.518  12.264
63198W        W31592  10.105   6.607  13.222
63199W        W31593   8.763  42.762  11.501
63200W        W31594  18.242   3.357   1.469
63201W        W31595  23.451  13.859   2.302
63202W        W31596  13.940   8.833   1.352
63203W        W31597  22.718  42.844  12.968
63204W        W31598  41.042   0.708   1.234
63205W        W31599  18.703   8.926  12.975
63206W        W31600  30.102  44.042  13.909
63207W        W31601  22.108  18.663   4.101
63208W        W31602  43.773  14.661   2.389
63209W        W31603   9.308  22.217  12.797
63210W        W31604  43.825   6.692   1.734
63211W        W31605   7.457  42.741  11.104
63212W        W31606   2.450  14.324  14.943
63213W        W31607  22.191  24.675  12.527
63214W        W31608   2.294  28.543   3.160
63215W        W31609  16.002  23.514  11.537
63216W        W31610   7.639  19.305  14.036
63217W        W31611  13.877   4.044  10.412
63218W        W31612  21.733  14.106  10.698
63219W        W31613   0.245   2.125   2.605
63220W        W31614   3.019  44.972  13.275
63221W        W31615  34.449   4.967  12.061
63222W        W31616  16.798   3.403  12.915
63223W        W31617   8.921  39.971   0.829
63224W        W31618   6.552   2.245  12.531
63225W        W31619  15.198  10.895   3.634
63226W        W31620  11.618   5.243   3.838
63227W        W31621  12.673  24.265   4.659
63228W        W31622  13.189  24.003  11.874
63229W        W31623  23.507  32.208  13.842
63230W        W31624  44.253   4.861  14.467
63231W        W31625  15.681  26.525  13.531
63232W        W31626  20.588  36.063  13.134
63233W        W31627  16.774   4.201   0.156
63234W        W31628  43.741   0.794  11.577
63235W        W31629  21.484  21.645   3.670
63236W        W31630  44.029  39.579  13.050
63237W        W31631   5.938   2.709   3.697
63238W        W31632  23.715   3.294   3.587
63239W        W31633  26.666  40.512   1.343
63240W        W31634  30.069  32.416   2.504
63241W        W31635  20.619  17.581   1.411
63242W        W31636  30.528   2.410  13.059
63243W        W31637  31.158  13.640  12.102
63244W        W31638   5.168  41.519   1.846
63245W        W31639  44.991  10.463  12.472
63246W        W31640  24.553  23.496   2.836
63247W        W31641  14.591   7.283   2.638
63248W        W31642  11.692   4.892   0.377
63249W        W31643  32.092  22.568  11.633
63250W        W31644  13.762  14.853  14.989
63251W        W31645  28.719  27.494   4.719
63252W        W31646  17.229  43.158   4.920
63253W        W31647   3.524  10.001  11.266
63254W        W31648   6.750   2.386   4.070
63255W        W31649  30.819  26.966  13.851
63256W        W31650  36.169  19.695   3.686
63257W        W31651  18.751  42.198  14.282
63258W        W31652   2.972  44.826   1.962
63259W        W31653  24.936  36.394   0.486
63260W        W31654   8.255  38.601  11.191
63261W        W31655  13.756  41.995   2.249
63262W        W31656  39.331  33.955   1.827
63263W        W31657  12.650   3.467  14.922
63264W        W31658   3.000  25.700  11.974
63265W        W31659  32.698   6.873  12.001
63266W        W31660   5.119   8.475   1.835
63267W        W31661  33.374   1.798  13.079
63268W        W31662  43.267  18.301   2.274
63269W        W31663  29.738  38.466  10.733
63270W        W31664  13.691  18.800  11.633
63271W        W31665  36.522  25.682  11.029
63272W        W31666  43.839  32.619  11.892
63273W        W31667  37.641   5.343  13.271
63274W        W31668  31.421  19.602  13.097
63275W        W31669  21.281  31.039   1.797
63276W        W31670  44.251  43.396   2.300
63277W        W31671  44.210   6.790   1.335
63278W        W31672  32.866   1.699  12.998
63279W        W31673   6.950   1.531   0.813
63280W        W31674  25.815  24.716   3.601
63281W        W31675  34.366  16.612   3.658
63282W        W31676   3.969  17.810   1.772
63283W        W31677  25.271  15.323  14.266
63284W        W31678  24.171   9.077   2.126
63285W        W31679   2.334   5.031  13.891
63286W        W31680  22.158  10.633   3.638
63287W        W31681  44.541  41.747   2.204
63288W        W31682  11.094  39.932  14.407
63289W        W31683  11.647  23.655  13.687
63290W        W31684   9.156  21.013  13.403
63291W        W31685  36.821  11.614  12.983
63292W        W31686  43.286  29.388  13.834
63293W        W31687  44.494  32.456   1.928
63294W        W31688   6.893  29.051   0.391
63295W        W31689  29.615  39.459  14.536
63296W        W31690  29.585  26.281  10.354
63297W        W31691   4.505   5.948  11.397
63298W        W31692   3.315   7.299  14.402
63299W        W31693  16.858   3.374   1.285
63300W        W31694  22.781   0.532   0.332
63301W        W31695   2.410  22.178  12.190
63302W        W31696  18.140  22.760   3.369
63303W        W31697  21.536  38.494   4.508
63304W        W31698  34.017  41.798   3.273
63305W        W31699   4.348   7.720  12.969
63306W        W31700   6.216  22.769  12.045
63307W        W31701  10.816  18.005   3.859
63308W        W31702  37.580   6.901  11.071
63309W        W31703  23.153  27.071   2.205
63310W        W31704  39.043  11.834   4.701
63311W        W31705  25.399  39.484  12.819
63312W        W31706   8.460  24.650  11.710
63313W        W31707   8.847  43.717  12.653
63314W        W31708  40.867   7.741   4.300
63315W        W31709  43.460  11.879   3.633
63316W        W31710   9.451   8.812   4.856
63317W        W31711   8.645  24.151  12.488
63318W        W31712  27.955   9.652   2.596
63319W        W31713   1.445  24.202   4.613
63320W        W31714   3.307  10.115  14.439
63321W        W31715  21.462  32.409  12.202
63322W        W31716  29.140  24.282   4.512
63323W        W31717  37.003   5.687  14.898
63324W        W31718  39.106  34.641  11.965
63325W        W31719   6.944  10.843  14.729
63326W        W31720   4.373   5.145  12.973
63327W        W31721  19.846  25.139   0.905
63328W        W31722   2.341  17.146  12.433
63329W        W31723   2.824  34.193  11.189
63330W        W31724  35.272  11.088  13.641
63331W        W31725  24.537  32.428  11.519
63332W        W31726  44.237  10.231  12.033
63333W        W31727   7.583  33.998   1.123
63334W        W31728  38.249  17.780   2.155
63335W        W31729  13.016  35.757  14.342
63336W        W31730  11.199  23.071   3.348
63337W        W31731  28.202  17.048   1.765
63338W        W31732  18.114  36.049   4.150
63339W        W31733  26.190   1.324  10.561
63340W        W31734  27.783  38.956  14.476
63341W        W31735  40.882  19.702   1.409
63342W        W31736  34.171   1.912  11.616
63343W        W31737  10.133  30.011  12.448
63344W        W31738  38.010   0.474   2.470
63345W        W31739  44.280   7.949   4.217
63346W        W31740  30.288   8.628  10.703
63347W        W31741  26.678   6.698   0.703
63348W        W31742  12.351  23.159  13.584
63349W        W31743  22.216  15.823  13.813
63350W        W31744  43.490  28.559  10.968
63351W        W31745  32.464   1.175   4.719
63352W        W31746  37.526  23.362   0.032
63353W        W31747  33.585  36.846   1.932
63354W        W31748  13.703  26.026   1.374
63355W        W31749  26.517   5.960   2.251
63356W        W31750   8.205   6.984  13.745
63357W        W31751  15.838  42.498  14.345
63358W        W31752  21.693  17.478   3.696
63359W        W31753  30.727  22.070   2.338
63360W        W31754  25.254  39.757   3.134
63361W        W31755   6.781  20.660  13.275
63362W        W31756  17.072  26.560  12.143
63363W        W31757  11.642  42.252   1.955
63364W        W31758  41.727  24.874   3.323
63365W        W31759  16.023  10.136  10.205
63366W        W31760   0.939  23.760  14.310
63367W        W31761   3.278  42.306   0.623
63368W        W31762   4.195   3.307  13.045
63369W        W31763  13.690  32.239   4.302
63370W        W31764  41.472  42.322  10.679
63371W        W31765  20.154  38.986   3.687
63372W        W31766  19.111   5.840  10.552
63373W        W31767  22.599  42.373   2.463
63374W        W31768  41.002  23.077  12.045
63375W        W31769   1.374  41.256   2.373
63376W        W31770  10.494  13.238  10.573
63377W        W31771  10.290  35.112   1.499
63378W        W31772  35.908  18.187   3.800
63379W        W31773  17.155  28.266   4.144
63380W        W31774  29.266   4.660  10.833
63381W        W31775  12.629   5.177  12.892
63382W        W31776  11.117  16.734  11.377
63383W        W31777   0.812  44.680   2.315
63384W        W31778  44.078   1.773   0.343
63385W        W31779   2.976  20.074   4.999
63386W        W31780   3.743  37.686  12.027
63387W        W31781  35.324   3.368   2.926
63388W        W31782  35.449  25.249  11.917
63389W        W31783   1.283  22.256   3.118
63390W        W31784  25.612   8.703  10.727
63391W        W31785  23.769  19.644   1.941
63392W        W31786   3.712  25.003   1.250
63393W        W31787  40.406  25.528  10.834
63394W        W31788   3.354  12.149  13.434
63395W        W31789  19.035   5.744  12.850
63396W        W31790  19.475  30.686  12.436
63397W        W31791  11.216   3.455   4.124
63398W        W31792  11.118  12.214  13.442
63399W        W31793  15.375  17.296  12.637
63400W        W31794  33.712  21.892  10.149
63401W        W31795  19.402  16.073  10.621
63402W        W31796  36.889  35.079   0.961
63403W        W31797  20.532  29.458   0.243
63404W        W31798  30.700  12.144   1.882
63405W        W31799  12.618   0.439   3.567
63406W        W31800  13.044  19.574  13.125
63407W        W31801  32.520  33.058  14.211
63408W        W31802  17.722  38.590  14.759
63409W        W31803  27.065   0.971  13.374
63410W        W31804  36.535  20.736  11.547
63411W        W31805  29.453  43.008   3.167
63412W        W31806  12.094  42.011   0.974
63413W        W31807  44.765  10.660  13.729
63414W        W31808  25.630   2.314   0.458
63415W        W31809  12.314  31.731   3.794
63416W        W31810   4.307  22.030  10.552
63417W        W31811  31.825   4.680  12.843
63418W        W31812  18.110  23.503  11.135
63419W        W31813  10.099  24.745   2.026
63420W        W31814  38.098  11.830  12.525
63421W        W31815   5.375   5.340  13.026
63422W        W31816  11.680  22.222  12.119
63423W        W31817   2.834   9.608   3.662
63424W        W31818  12.725  34.218  14.708
63425W        W31819   7.339  12.378   3.153
63426W        W31820  16.222  31.441  13.430
63427W        W31821  23.200  13.108   1.492
63428W        W31822   9.332  13.058  14.373
63429W        W31823  29.316  15.415  14.746
63430W        W31824  21.676   3.333  14.951
63431W        W31825  39.704  38.554  14.712
63432W        W31826  40.223  26.445   4.043
63433W        W31827   5.175  10.708   3.212
63434W        W31828  18.676  24.187  12.879
63435W        W31829  43.480   4.701   1.224
63436W        W31830  10.201  14.597  12.570
63437W        W31831  13.732  12.331  10.605
63438W        W31832  32.248  33.901  11.615
63439W        W31833  30.158  31.015   4.386
63440W        W31834  13.170  21.429  12.923
63441W        W31835  43.907  21.032  10.976
63442W        W31836   1.051  12.324  10.606
63443W        W31837   7.619  21.139   0.080
63444W        W31838  23.429   2.815  13.534
63445W        W31839  32.438  34.531   1.737
63446W        W31840  13.789   4.543  14.725
63447W        W31841  32.422  17.315   4.288
63448W        W31842  37.233  22.102  13.234
63449W        W31843  33.341  26.253   0.485
63450W        W31844  28.651  34.645  12.935
63451W        W31845  34.505   3.256   4.874
63452W        W31846   1.584   6.907  10.523
63453W        W31847   5.422  35.950   3.162
63454W        W31848  39.910  20.174   2.067
63455W        W31849  39.550  13.774   0.388
63456W        W31850   5.692  24.758  13.794
63457W        W31851  21.521  13.272  11.932
63458W        W31852  29.474  10.148  11.534
63459W        W31853   7.929  16.851   1.128
63460W        W31854  31.572  41.493  10.612
63461W        W31855  30.099  38.957   2.833
63462W        W31856  27.908  31.535  11.283
63463W        W31857  27.466  26.003  13.839
63464W        W31858   2.513  33.125   2.914
63465W        W31859  41.024  36.838  12.426
63466W        W31860   6.203  42.267  11.432
63467W        W31861  12.049  24.470  11.268
63468W        W31862  11.832  11.420   4.601
63469W        W31863  40.509   8.260   1.393
63470W        W31864   8.758  33.098  10.564
63471W        W31865  34.981  42.862  10.681
63472W        W31866  20.965  34.438   4.092
63473W        W31867  16.345  35.937   4.673
63474W        W31868  35.615   8.887   2.284
63475W        W31869  41.355  35.078   2.864
63476W        W31870  39.763   6.857  12.778
63477W        W31871  15.124   1.453   1.387
63478W        W31872  40.476   5.994  12.133
63479W        W31873  14.622  40.539   1.300
63480W        W31874  21.741   9.353  14.584
63481W        W31875   3.145  35.954  11.761
63482W        W31876  17.054  32.557   1.231
63483W        W31877   2.408  19.778   2.911
63484W        W31878  23.039  42.809   4.682
63485W        W31879  12.862  28.242  14.399
63486W        W31880  35.036   1.272  11.590
63487W        W31881  13.334  20.969   3.636
63488W        W31882   2.225  17.942  14.194
63489W        W31883  29.888   8.230  14.232
63490W        W31884  30.385  38.786   1.267
63491W        W31885  37.581  25.839  13.777
63492W        W31886  40.149  14.040  13.014
63493W        W31887   0.771  42.881   4.166
63494W        W31888  10.854  31.184  13.502
63495W        W31889  18.292  21.055   4.112
63496W        W31890  22.893  17.680  13.845
63497W        W31891  26.116   9.701   0.357
63498W        W31892  41.046  35.627   3.362
63499W        W31893  42.753  10.211   3.665
63500W        W31894   4.875  44.938  14.690
63501W        W31895  13.248  37.378   1.380
63502W        W31896   4.889  24.021  13.866
63503W        W31897  21.485  38.109  10.607
63504W        W31898  16.724   4.452  14.262
63505W        W31899  17.760  14.162  11.225
63506W        W31900  42.976  26.566   0.501
63507W        W31901  12.330   9.178  10.492
63508W        W31902   9.145   1.087  14.247
63509W        W31903  31.411  30.248  13.501
63510W        W31904  18.193  27.877   2.111
63511W        W31905  25.605  21.182   2.012
63512W        W31906  24.292  15.823  12.553
63513W        W31907  13.118   2.925   0.961
63514W        W31908  15.510   7.747  13.476
63515W        W31909  21.576  16.572  14.484
63516W        W31910  31.156   3.332   0.847
63517W        W31911  38.747  29.970  13.869
63518W        W31912   3.433   8.391   4.633
63519W        W31913  28.084  13.883   0.145
63520W        W31914   2.713  34.643   4.141
63521W        W31915  43.848  21.560   2.863
63522W        W31916  34.374  44.852  14.962
63523W        W31917  13.744  34.574   3.593
63524W        W31918   4.681  41.920  14.410
63525W        W31919  42.447  40.847  14.552
63526W        W31920   0.418  27.486   3.167
63527W        W31921   0.341  11.762  14.231
63528W        W31922   5.649  27.506  10.990
63529W        W31923  44.496  19.858   4.249
63530W        W31924   7.186   1.787   4.182
63531W        W31925  35.161  36.017  10.550
63532W        W31926  25.282  11.839   0.043
63533W        W31927  35.394  42.612  11.463
63534W        W31928   4.765   3.243   1.260
63535W        W31929  12.533   2.751  11.824
63536W        W31930  43.923   9.348  10.632
63537W        W31931  12.309  15.787  14.029
63538W        W31932  36.496   1.290  13.944
63539W        W31933  11.698   6.254   0.761
63540W        W31934  12.661  36.339  10.785
63541W        W31935   5.698   2.792  11.522
63542W        W31936  17.964   4.906   0.304
63543W        W31937   4.230   5.813   4.529
63544W        W31938  41.829  10.634  13.966
63545W        W31939  29.444  42.908  12.099
63546W        W31940  11.632   4.305  13.905
63547W        W31941  21.431  44.982  12.901
63548W        W31942  43.800  29.115   2.884
63549W        W31943  34.074  18.570   3.757
63550W        W31944  36.216  32.392  13.313
63551W        W31945  11.012   5.893   1.683
63552W        W31946  33.073  32.416   0.767
63553W        W31947  37.115  19.191  11.650
63554W        W31948  28.238   3.439  14.253
63555W        W31949   8.822  24.079  11.144
63556W        W31950  29.463   1.987   3.745
63557W        W31951  13.872  34.990  14.602
63558W        W31952  13.600  13.723   4.933
63559W        W31953  25.061  38.099   3.706
63560W        W31954  32.128  38.385   3.388
63561W        W31955  16.555  29.636   0.428
63562W        W31956  13.112  27.086   1.778
63563W        W31957   6.848  10.392   2.907
63564W        W31958   4.282   7.804  11.144
63565W        W31959   7.520   2.455   4.978
63566W        W31960   5.198  36.355   0.492
63567W        W31961  24.165  32.359   4.038
63568W        W31962  11.900  43.252  13.376
63569W        W31963   4.742  21.794   4.053
63570W        W31964  24.788  31.703  13.484
63571W        W31965   5.993  40.018   0.342
63572W        W31966  22.138  30.439  11.658
63573W        W31967  19.882  36.725   3.160
63574W        W31968  21.685  44.029  11.536
63575W        W31969   7.263  19.869  11.014
63576W        W31970  12.740   6.094  12.482
63577W        W31971  24.083  11.820  12.101
63578W        W31972  21.910   0.830   1.728
63579W        W31973   7.852  34.434   1.890
63580W        W31974   5.747  44.063   0.392
63581W        W31975  37.950   7.671   4.596
63582W        W31976  20.814   0.409   4.145
63583W        W31977  20.822  30.550   2.622
63584W        W31978  29.400  22.431   2.166
63585W        W31979   8.736  32.403  14.394
63586W        W31980   4.442  17.105  10.884
63587W        W31981  44.063  19.795   4.537
63588W        W31982  21.742  40.048  11.815
63589W        W31983   0.218  28.868   0.145
63590W        W31984  12.342  21.087  11.983
63591W        W31985  21.166  38.958   4.165
63592W        W31986  23.275   2.853   2.201
63593W        W31987  28.070   2.948  13.026
63594W        W31988  14.659  27.443   4.320
63595W        W31989  38.313  13.651   3.245
63596W        W31990  44.015   1.822   3.833
63597W        W31991  18.885  12.124   3.244
63598W        W31992  34.519  44.079   1.076
63599W        W31993  31.674  26.068  11.383
63600W        W31994  42.024  16.047  11.471
63601W        W31995  33.955  16.278  13.095
63602W        W31996  33.418   6.209  11.672
63603W        W31997  22.258   4.365  10.661
63604W        W31998  32.467  20.666   1.474
63605W        W31999  10.611  19.526   1.017
63606W        W32000  44.391   2.053  12.427
63607W        W32001   5.598  41.279   4.932
63608W        W32002   0.684  31.189   2.010
63609W        W32003   4.191  20.610   0.484
63610W        W32004  24.868  44.950   3.486
63611W        W32005  17.724   4.696  12.461
63612W        W32006  44.576  43.607   3.249
63613W        W32007  38.582  21.584   2.275
63614W        W32008  14.308  12.210  14.528
63615W        W32009   4.233   7.266   0.358
63616W        W32010   1.986  15.779   4.583
63617W        W32011   8.986   6.807  13.048
63618W        W32012  33.335  21.028  12.056
63619W        W32013  36.426  20.950   1.750
63620W        W32014  32.042  33.792   1.280
63621W        W32015  12.053  30.150   3.673
63622W        W32016  10.440  17.769   2.276
63623W        W32017  12.245  43.241   4.350
63624W        W32018  19.841  33.704   3.351
63625W        W32019  12.152  40.940  12.789
63626W        W32020  19.574  28.117  12.621
63627W        W32021  42.692   5.313   1.521
63628W        W32022  21.744  28.582  11.516
63629W        W32023  34.451   1.467   3.670
63630W        W32024  44.289   2.205  13.917
63631W        W32025  28.655  27.956  12.103
63632W        W32026  39.608   1.513  11.436
63633W        W32027  34.091  43.969  14.974
63634W        W32028  20.085  14.981   5.443
63635W        W32029  44.710  30.820   3.685
63636W        W32030   9.414   9.337   0.538
63637W        W32031  30.701   4.808  14.994
63638W        W32032  33.420  15.329   1.003
63639W        W32033  24.545  27.595  13.502
63640W        W32034   0.708  21.195   0.050
63641W        W32035  16.334  32.996   1.589
63642W        W32036  32.033  38.750   4.142
63643W        W32037  38.635  14.097  10.632
63644W        W32038   0.113  21.449  13.437
63645W        W32039  12.149  20.800   0.741
63646W        W32040  37.497  44.886   0.850
63647W        W32041  27.333  29.627  12.453
63648W        W32042  41.249  44.732   0.828
63649W        W32043   5.914  39.955   1.394
63650W        W32044  37.778   9.908  11.541
63651W        W32045   3.560  40.924   4.821
63652W        W32046  26.577  44.679  13.205
63653W        W32047  30.342  16.254   4.921
63654W        W32048  14.547   4.731   4.874
63655W        W32049  11.881  33.483  12.500
63656W        W32050  42.117   8.951   1.963
63657W        W32051  20.472   7.951  13.540
63658W        W32052  18.395  20.176   3.267
63659W        W32053  19.199  12.281   4.903
63660W        W32054  31.656  41.174   1.553
63661W        W32055  37.415  23.442   4.123
63662W        W32056  38.048  44.410  10.732
63663W        W32057   2.402  34.357  14.228
63664W        W32058  29.018   0.947  13.021
63665W        W32059  37.784  29.102  14.323
63666W        W32060  18.677   0.957  11.866
63667W        W32061  21.483  14.106  11.139
63668W        W32062  30.901  34.110   2.741
63669W        W32063  28.981   8.866   1.764
63670W        W32064  32.731  42.299  14.697
63671W        W32065  33.993   4.766   2.091
63672W        W32066  21.690  13.240   2.284
63673W        W32067  40.174  23.083   2.754
63674W        W32068  14.586  34.795  14.025
63675W        W32069   2.306   0.551   3.247
63676W        W32070  26.047   6.198   3.269
63677W        W32071  38.435  39.256  14.872
63678W        W32072  28.928  15.542  11.181
63679W        W32073   5.566  36.118   2.245
63680W        W32074  15.649  11.786   1.376
63681W        W32075  32.231  36.939   1.784
63682W        W32076  14.184  27.363   3.434
63683W        W32077  41.819   3.016  10.646
63684W        W32078  35.114  22.549  13.829
63685W        W32079  17.763  37.784   1.929
63686W        W32080  14.335  31.078  12.402
63687W        W32081  36.547   0.226  14.467
63688W        W32082   7.411  29.637  14.850
63689W        W32083   2.153  25.666   0.837
63690W        W32084  25.343   5.007   2.418
63691W        W32085  32.910   5.671   3.723
63692W        W32086  18.283  21.064   2.262
63693W        W32087   7.270  32.839   1.836
63694W        W32088  23.565  29.831   4.210
63695W        W32089   1.626   9.880  11.540
63696W        W32090  41.713  20.228  13.488
63697W        W32091  41.015   1.487  14.944
63698W        W32092  29.226  29.494  13.979
63699W        W32093  37.661  24.219  14.763
63700W        W32094  23.951  32.880   4.645
63701W        W32095  25.719  14.657  13.874
63702W        W32096   0.747  22.199  10.626
63703W        W32097  35.025  23.575  14.871
63704W        W32098  16.371  10.771  10.944
63705W        W32099  17.259  18.654   4.394
63706W        W32100  25.994  23.567   3.904
63707W        W32101   3.200  13.328   5.881
63708W        W32102  22.214  24.281  13.416
63709W        W32103  14.741  26.068  12.952
63710W        W32104  35.933  43.973  13.720
63711W        W32105  24.224  22.747   2.844
63712W        W32106  25.570  24.542  10.587
63713W        W32107  31.028   8.163   2.579
63714W        W32108   2.410  22.689   0.777
63715W        W32109   3.832  29.126   4.763
63716W        W32110   2.005   4.467   4.290
63717W        W32111  31.402  28.057   2.151
63718W        W32112  18.812   5.556   1.213
63719W        W32113   7.393   4.626   2.299
63720W        W32114  27.249  37.730   1.682
63721W        W32115  39.860  36.114  12.942
63722W        W32116  24.435   2.273  14.728
63723W        W32117   0.751  35.396   4.796
63724W        W32118  22.138   1.584  12.479
63725W        W32119   9.060   4.184   3.484
63726W        W32120  31.887   6.922   3.668
63727W        W32121  30.247  22.038  13.025
63728W        W32122   6.711  16.091   0.001
63729W        W32123  32.070  41.777  13.427
63730W        W32124   2.895  40.354  11.255
63731W        W32125  12.916  19.284  11.502
63732W        W32126  22.945  19.701   3.125
63733W        W32127  21.120   0.821   1.158
63734W        W32128   8.180  23.622   4.096
63735W        W32129   9.161   9.192  12.025
63736W        W32130  22.369  41.396  14.485
63737W        W32131  36.012  34.123   4.726
63738W        W32132   8.858  42.196  12.531
63739W        W32133   9.000  29.598  14.809
63740W        W32134  24.467  10.620   2.781
63741W        W32135  26.513  31.217  12.021
63742W        W32136   4.757  22.726  10.876
63743W        W32137   0.759   9.792   0.512
63744W        W32138  12.817  24.972   0.823
63745W        W32139  38.004  38.467  14.342
63746W        W32140  16.812   8.288   2.233
63747W        W32141   6.782  20.619  13.786
63748W        W32142   6.836  16.722   2.285
63749W        W32143  34.462  13.563   4.095
63750W        W32144  22.565  37.008  13.376
63751W        W32145  40.920  44.110  10.703
63752W        W32146   3.955  18.610   1.354
63753W        W32147  17.752  24.756  12.579
63754W        W32148  16.201  26.591  13.560
63755W        W32149  25.627  29.376   9.873
63756W        W32150  43.455  17.006  14.438
63757W        W32151  27.451   2.912   1.141
63758W        W32152  11.493  41.340   3.150
63759W        W32153  10.670   8.549   3.807
63760W        W32154   7.619  20.344  12.610
63761W        W32155  29.443  35.131   1.463
63762W        W32156  38.591  21.692   4.920
63763W        W32157   8.796  15.845  11.770
63764W        W32158  12.565   0.885  13.903
63765W        W32159  14.593  13.777   0.105
63766W        W32160  41.131   3.327  12.159
63767W        W32161  25.970  36.484  12.681
63768W        W32162  13.858  15.723   2.259
63769W        W32163  38.558   3.798   4.694
63770W        W32164  31.019  10.776   3.648
63771W        W32165  24.559   3.736   2.814
63772W        W32166  23.629   5.386  14.438
63773W        W32167  14.610  10.130  14.309
63774W        W32168  30.894  36.811  11.160
63775W        W32169  29.932  25.582   3.296
63776W        W32170  16.518  25.106  14.319
63777W        W32171  16.639  29.220  12.359
63778W        W32172  18.297   5.361   0.914
63779W        W32173  36.907  23.961   2.895
63780W        W32174  30.589   2.858   3.459
63781W        W32175  32.421  40.229   2.534
63782W        W32176  26.251  39.414  11.508
63783W        W32177  42.598   3.786   4.663
63784W        W32178  32.961   9.151  14.856
63785W        W32179  23.086   0.282   4.917
63786W        W32180   5.403  32.187   1.550
63787W        W32181   9.810   2.858   2.194
63788W        W32182   4.791  26.389  10.695
63789W        W32183  18.680  42.561  14.786
63790W        W32184   9.709   7.757   3.935
63791W        W32185   0.174  43.520   3.933
63792W        W32186  38.403  25.386  14.017
63793W        W32187  28.209   5.344  13.934
63794W        W32188  11.751  44.885   4.739
63795W        W32189   3.846  38.907  11.169
63796W        W32190   6.233  15.146  11.611
63797W        W32191  34.438  13.652   3.197
63798W        W32192   6.875  33.046   4.024
63799W        W32193  42.486  27.112   0.954
63800W        W32194   4.861  35.485   2.431
63801W        W32195  31.334   1.863   0.793
63802W        W32196  38.741  14.235   2.173
63803W        W32197  37.162   0.344  13.104
63804W        W32198  26.558  28.459   3.654
63805W        W32199   3.326  30.802  14.311
63806W        W32200  33.137  21.001   4.591
63807W        W32201  33.065  30.114  11.966
63808W        W32202  42.537  34.116   1.746
63809W        W32203  14.217  23.296  11.617
63810W        W32204   3.064  40.866   4.062
63811W        W32205  14.734  11.087  14.606
63812W        W32206   1.016  11.171  14.347
63813W        W32207  36.352  42.585  10.727
63814W        W32208   6.448   3.958  14.051
63815W        W32209  44.292  43.367  13.864
63816W        W32210  24.889  37.820  14.078
63817W        W32211  24.790  34.140   4.316
63818W        W32212  24.362  32.524  14.719
63819W        W32213  36.291  25.969  12.453
63820W        W32214  15.496  27.968  11.030
63821W        W32215  21.005  37.759   1.469
63822W        W32216  38.078  13.546  10.969
63823W        W32217  25.937  24.987   1.683
63824W        W32218   3.932  11.220   2.704
63825W        W32219  10.159  29.257   2.691
63826W        W32220   7.481  33.652   4.657
63827W        W32221  22.591  42.340   2.978
63828W        W32222  39.624  37.088  10.611
63829W        W32223  17.593  33.086  10.422
63830W        W32224  19.562  25.473  12.936
63831W        W32225  35.029  42.747  14.304
63832W        W32226  20.729   7.498  13.695
63833W        W32227  22.495  25.742  14.016
63834W        W32228  11.347  13.418  14.391
63835W        W32229  22.832  15.093  13.483
63836W        W32230   1.350   0.459  11.050
63837W        W32231   7.413   7.238   3.223
63838W        W32232  44.076  14.894  11.075
63839W        W32233  32.971   4.603   3.196
63840W        W32234  10.580  36.399   0.318
63841W        W32235  36.899  34.068  10.383
63842W        W32236  16.180   1.576  11.011
63843W        W32237  35.475  26.379   2.934
63844W        W32238  37.035  12.680   4.708
63845W        W32239  22.115  22.126  13.604
63846W        W32240  42.041  31.197   1.519
63847W        W32241  25.028  15.576  14.670
63848W        W32242   9.590  14.017   0.864
63849W        W32243  24.455  32.194  14.326
63850W        W32244  14.441  13.514   5.063
63851W        W32245  11.960  31.265  14.304
63852W        W32246  22.274  31.115  14.812
63853W        W32247  27.699  24.654  12.021
63854W        W32248   7.834  30.636  11.340
63855W        W32249  13.238  37.111  14.800
63856W        W32250  26.920   0.428  12.513
63857W        W32251  34.932  42.467  13.811
63858W        W32252  20.126  42.386  14.942
63859W        W32253  14.297  33.892  12.561
63860W        W32254   8.777  29.181   1.334
63861W        W32255  17.965  10.285   0.143
63862W        W32256  37.395  36.609  12.990
63863W        W32257  14.101  30.073   2.714
63864W        W32258   0.829  14.981  13.602
63865W        W32259  44.911  18.768   1.142
63866W        W32260  23.804  13.353  13.879
63867W        W32261  33.497  32.680   4.119
63868W        W32262  38.799  37.733   2.751
63869W        W32263  24.183  37.338  12.888
63870W        W32264   4.539  36.010   2.170
63871W        W32265  34.199  44.794   2.715
63872W        W32266  15.049  24.617  13.882
63873W        W32267  21.220  18.189  11.470
63874W        W32268  15.814  14.195  13.505
63875W        W32269  19.994   0.895   1.368
63876W        W32270  23.295  38.311  14.792
63877W        W32271  16.202  39.167  12.531
63878W        W32272  24.955  25.388  11.408
63879W        W32273   4.989   0.836  10.342
63880W        W32274  11.855  27.406   2.331
63881W        W32275  22.128   2.937  10.943
63882W        W32276  13.267  24.178  14.589
63883W        W32277  35.613  37.557  12.117
63884W        W32278   6.189  12.213   4.638
63885W        W32279  13.739  16.550   1.263
63886W        W32280  13.217  11.318  13.272
63887W        W32281   8.879  36.056  10.175
63888W        W32282  29.918  21.202   1.406
63889W        W32283  23.539  22.601   1.735
63890W        W32284  42.448   9.805   3.750
63891W        W32285   2.399  44.251   3.876
63892W        W32286  20.995   8.732   4.258
63893W        W32287  25.213  39.977   4.391
63894W        W32288  26.031  11.104   3.223
63895W        W32289  38.696   8.235   0.001
63896W        W32290  41.770  13.881   4.709
63897W        W32291  33.897  30.572  11.906
63898W        W32292  24.865  28.002   2.923
63899W        W32293  12.648  18.651   0.545
63900W        W32294  43.906  12.158  13.466
63901W        W32295  30.023  41.022   4.500
63902W        W32296  42.888  11.299   4.890
63903W        W32297  21.472   3.861   0.323
63904W        W32298  24.619  38.546   2.237
63905W        W32299  35.409  41.458  12.611
63906W        W32300  40.991  41.896   0.977
63907W        W32301   8.910  40.872  14.409
63908W        W32302  35.116  17.632   0.218
63909W        W32303  40.112   1.488  13.408
63910W        W32304  16.261  19.966   3.918
63911W        W32305  37.431   9.203   2.533
63912W        W32306  28.956  31.647   3.537
63913W        W32307  26.322  42.489  11.729
63914W        W32308  43.679  34.831  13.871
63915W        W32309  14.291   3.175  10.823
63916W        W32310  42.947  41.277  14.038
63917W        W32311   6.213  34.029  11.011
63918W        W32312   8.433  16.110  12.573
63919W        W32313  28.456  27.236   2.676
63920W        W32314   2.056  19.095  12.689
63921W        W32315  25.432  40.264  14.455
63922W        W32316   9.765  12.380   2.250
63923W        W32317  10.899  15.239  12.583
63924W        W32318   5.499   4.718   3.874
63925W        W32319   5.710  27.532  12.917
63926W        W32320  29.293  37.430  12.363
63927W        W32321  14.334  20.087  13.491
63928W        W32322   9.122  33.878  11.252
63929W        W32323  12.628  39.272  12.370
63930W        W32324  29.473  43.743   0.773
63931W        W32325  26.779  23.242   2.382
63932W        W32326  43.321  21.226   0.418
63933W        W32327  27.059  36.549  11.590
63934W        W32328   8.758   4.461  13.469
63935W        W32329   8.642  14.354   4.328
63936W        W32330  27.067  28.705  14.386
63937W        W32331  33.152  31.485  14.358
63938W        W32332  11.143   3.353  13.364
63939W        W32333  21.651  24.271   2.900
63940W        W32334  35.122  25.084  10.736
63941W        W32335  36.932  28.921   1.975
63942W        W32336  15.495  37.240   2.100
63943W        W32337  12.744  21.265   4.820
63944W        W32338  30.987  23.424  13.961
63945W        W32339  35.853  16.171   1.691
63946W        W32340  31.448  25.969   4.735
63947W        W32341  36.039  24.237   4.218
63948W        W32342  18.069  44.801   3.789
63949W        W32343  34.835   2.013   2.914
63950W        W32344  33.976  25.552  13.014
63951W        W32345   1.905  24.259  13.285
63952W        W32346   0.239  26.801  10.990
63953W        W32347   0.607  32.870   2.242
63954W        W32348  15.118  39.369   1.135
63955W        W32349  26.471  14.964  14.940
63956W        W32350  26.809  22.714   2.224
63957W        W32351   0.356  13.902   1.702
63958W        W32352  12.206  22.077   0.418
63959W        W32353  18.734   6.244   5.034
63960W        W32354  21.726  12.392  10.684
63961W        W32355  33.220  35.160   5.006
63962W        W32356  41.371  40.340  14.951
63963W        W32357  17.079  26.999   0.859
63964W        W32358   9.853  24.990  10.618
63965W        W32359  13.007  18.964  11.902
63966W        W32360  18.044  26.183  12.597
63967W        W32361  35.535  13.703  13.539
63968W        W32362  41.765  30.785  14.402
63969W        W32363   9.146  30.693   0.306
63970W        W32364  42.573  32.749   1.362
63971W        W32365   3.376  19.177   0.590
63972W        W32366  43.382   8.142  14.824
63973W        W32367   0.312  13.428  13.028
63974W        W32368   3.442   5.457  12.101
63975W        W32369  41.081  19.147   2.188
63976W        W32370  30.735   1.606  14.271
63977W        W32371  17.873  28.669  14.846
63978W        W32372   3.943  42.471  13.941
63979W        W32373  12.955  32.369   3.183
63980W        W32374  44.708  11.582  10.809
63981W        W32375  26.941  38.731  11.990
63982W        W32376   4.836   7.782   1.149
63983W        W32377  11.908  25.679  14.327
63984W        W32378  20.027  31.653   0.310
63985W        W32379  11.147  23.403  12.992
63986W        W32380  11.241  15.748   3.591
63987W        W32381   2.781   6.238  11.419
63988W        W32382  29.676  38.272   3.721
63989W        W32383  15.675  14.329   3.875
63990W        W32384  11.944  11.892  12.790
63991W        W32385  33.968  24.452   2.258
63992W        W32386  39.747  26.135  12.480
63993W        W32387   4.352   2.817  13.006
63994W        W32388  32.454   3.047   0.802
63995W        W32389  35.386  18.447   0.342
63996W        W32390   4.920  35.604   4.519
63997W        W32391   2.724  31.945   1.691
63998W        W32392   8.821   5.603  14.054
63999W        W32393   1.184  32.190  14.480
64000W        W32394  21.654  18.715  11.407
64001W        W32395  18.106  19.101  13.729
64002W        W32396   7.751  12.158   3.413
64003W        W32397  43.773  30.309   2.827
64004W        W32398  30.697  34.338  13.913
64005W        W32399   4.283  13.739  13.545
64006W        W32400  12.259  15.181  11.361
64007W        W32401  38.706  17.078   0.016
64008W        W32402  17.107  23.742  14.811
64009W        W32403   8.828  10.490  14.501
64010W        W32404  20.398  33.125  14.705
64011W        W32405  41.812   6.748  10.732
64012W        W32406   3.320  40.018   2.132
64013W        W32407  22.464   9.939  10.637
64014W        W32408  37.866  39.561  14.312
64015W        W32409   1.004  21.716   4.333
64016W        W32410  28.712  12.183   0.952
64017W        W32411  43.873  44.404   3.440
64018W        W32412  16.242  10.162  12.887
64019W        W32413  42.260  35.760   3.697
64020W        W32414  10.917  14.192   0.435
64021W        W32415  38.996  28.036   4.654
64022W        W32416   4.713  22.656  12.361
64023W        W32417  39.338  24.286  13.507
64024W        W32418  29.145   5.867  14.682
64025W        W32419  26.641   2.228  12.642
64026W        W32420  44.534   0.677   4.002
64027W        W32421  31.991  37.635   2.324
64028W        W32422  27.501  26.636   1.874
64029W        W32423  37.327   9.386   1.672
64030W        W32424  29.958   3.409  14.959
64031W        W32425   8.650  39.536  12.930
64032W        W32426  15.494  38.300   4.213
64033W        W32427  21.526  17.862  14.829
64034W        W32428  28.372   6.872  13.152
64035W        W32429   3.981  12.170  10.720
64036W        W32430   8.498  24.248  12.964
64037W        W32431   9.969   5.438   0.755
64038W        W32432   2.417  17.094   3.152
64039W        W32433  36.442  11.450  11.170
64040W        W32434  15.787   4.263   4.438
64041W        W32435  18.998  31.090  13.951
64042W        W32436  26.156  15.367  11.134
64043W        W32437  12.180   9.254  11.394
64044W        W32438  32.675  12.638  13.853
64045W        W32439  30.703   7.496  12.568
64046W        W32440  23.145  28.526  11.476
64047W        W32441  13.608  37.906  11.453
64048W        W32442  19.531  22.567  11.150
64049W        W32443   2.818  42.995  14.597
64050W        W32444  38.795   8.286   0.886
64051W        W32445  37.282  31.475   1.721
64052W        W32446  40.508   6.705  11.435
64053W        W32447  25.271  17.733   1.791
64054W        W32448   5.791  18.685   0.469
64055W        W32449  29.636  31.835   3.726
64056W        W32450  36.765  17.600  14.821
64057W        W32451  23.293  10.634  12.730
64058W        W32452   9.382   2.953   3.334
64059W        W32453   2.886  22.111   1.339
64060W        W32454  43.057  11.388   1.820
64061W        W32455  41.904  21.608   3.192
64062W        W32456  26.759  42.334   5.394
64063W        W32457   5.711  36.372   2.880
64064W        W32458  40.038  33.510   2.668
64065W        W32459  12.610  17.795  14.677
64066W        W32460   5.429   7.124  13.683
64067W        W32461   2.957  15.778   2.672
64068W        W32462  42.255   5.142  10.423
64069W        W32463  35.537  33.810   1.496
64070W        W32464  12.678  37.560   2.667
64071W        W32465  38.486  14.283   2.636
64072W        W32466  42.936  27.407   0.480
64073W        W32467  22.942  33.622   4.412
64074W        W32468   6.935   5.455  12.929
64075W        W32469  38.195   3.994  12.109
64076W        W32470  11.374   4.997  12.961
64077W        W32471  12.586  40.707  11.099
64078W        W32472   6.226  18.056   3.712
64079W        W32473   7.261   6.731   3.896
64080W        W32474  22.724   6.866  11.161
64081W        W32475   2.706   5.891  11.830
64082W        W32476  41.644  14.737  12.082
64083W        W32477  23.730  26.482   5.073
64084W        W32478  12.914  30.954   2.306
64085W        W32479  36.374  28.703  14.808
64086W        W32480  11.704  31.763   3.288
64087W        W32481  19.745  20.023  14.950
64088W        W32482  39.643   8.059  10.607
64089W        W32483   8.811   6.314   2.326
64090W        W32484   4.188  42.105   2.295
64091W        W32485  14.998  35.682  11.095
64092W        W32486   8.775  19.066  11.065
64093W        W32487   6.845  29.954   3.879
64094W        W32488  41.446  26.425   4.717
64095W        W32489  21.299  30.604  12.379
64096W        W32490  40.945  40.547  14.413
64097W        W32491  24.035  11.008  13.406
64098W        W32492  10.938  32.766   4.506
64099W        W32493   6.731  36.941   3.207
64100W        W32494  25.930  24.413   0.919
64101W        W32495  41.527  41.343  13.388
64102W        W32496   2.142  15.092  14.363
64103W        W32497  22.267  13.183  13.916
64104W        W32498  18.459  34.163  12.963
64105W        W32499   2.054  32.906  13.111
64106W        W32500  26.859  44.658   2.828
64107W        W32501  26.240  20.626   1.635
64108W        W32502  42.390  16.213   4.779
64109W        W32503  34.726  23.624  14.257
64110W        W32504  25.540  32.503  11.977
64111W        W32505  21.758  13.621   4.340
64112W        W32506  28.114  40.339  14.845
64113W        W32507   5.000  24.538   3.139
64114W        W32508   8.226  27.528  14.104
64115W        W32509  37.888  28.223   3.330
64116W        W32510  43.933   0.226   0.715
64117W        W32511   8.075  41.354   0.967
64118W        W32512  39.666   6.785  13.777
64119W        W32513  25.166  37.437  14.332
64120W        W32514   8.192  25.991  13.429
64121W        W32515   9.788  39.175   2.771
64122W        W32516   4.905  33.202   2.765
64123W        W32517  18.011  22.716   1.827
64124W        W32518   1.476   8.656   0.111
64125W        W32519  44.986  17.033  11.232
64126W        W32520  30.345   0.120  11.235
64127W        W32521  39.864  19.612   4.321
64128W        W32522  31.487   4.891  11.972
64129W        W32523  15.583   5.251  10.323
64130W        W32524  44.746  16.526   0.307
64131W        W32525   2.250  38.041  12.366
64132W        W32526  25.154   2.349   1.403
64133W        W32527  31.392  10.598  11.467
64134W        W32528  23.590  24.342   0.859
64135W        W32529  34.003   0.177  11.679
64136W        W32530  43.816  16.115   4.844
64137W        W32531   5.123  12.638   4.165
64138W        W32532  38.302  28.202  10.735
64139W        W32533  22.879  23.546  10.749
64140W        W32534  42.007  33.401   0.340
64141W        W32535   9.871  30.468  12.093
64142W        W32536   1.399   8.842   2.115
64143W        W32537  43.308   8.409   3.280
64144W        W32538   6.773   1.797  10.109
64145W        W32539  36.524  33.577  12.685
64146W        W32540  16.762   0.254   3.265
64147W        W32541  21.156  28.983   0.387
64148W        W32542  26.580  41.965  14.035
64149W        W32543   8.374   2.771   1.270
64150W        W32544  23.214  41.041  11.666
64151W        W32545  30.604   6.190  14.060
64152W        W32546   2.209  21.158  12.595
64153W        W32547  31.214   1.464  14.423
64154W        W32548  42.785  35.174  12.644
64155W        W32549  44.359   3.376   3.832
64156W        W32550  36.941   7.753   0.124
64157W        W32551  37.427  35.537   3.794
64158W        W32552  12.403  24.664  14.980
64159W        W32553  23.773  19.705  11.256
64160W        W32554  23.260  14.059  14.267
64161W        W32555  19.520  44.940   4.228
64162W        W32556  25.173  12.912  10.239
64163W        W32557  16.051  33.949  11.955
64164W        W32558  34.859  34.837  13.995
64165W        W32559  18.311  18.907  10.492
64166W        W32560   8.384  40.430   1.327
64167W        W32561   0.755  25.337  12.923
64168W        W32562  12.383  43.382   0.811
64169W        W32563  34.344  23.612   1.721
64170W        W32564  41.996  12.696  11.147
64171W        W32565  11.640  26.531   1.194
64172W        W32566  30.141  17.594  11.756
64173W        W32567  23.439  26.782  12.150
64174W        W32568  14.577  28.736  13.431
64175W        W32569  36.998  16.537   0.281
64176W        W32570   5.188  10.850  11.501
64177W        W32571  22.257  36.028  12.038
64178W        W32572   4.359   1.060   1.870
64179W        W32573   0.043  26.702  13.045
64180W        W32574   9.347  24.459  14.829
64181W        W32575  13.255  28.508  13.573
64182W        W32576  26.190  20.557  13.058
64183W        W32577  17.797   5.804   0.361
64184W        W32578  28.031  12.838   1.187
64185W        W32579  31.538  16.379   2.200
64186W        W32580  17.657  37.613  13.606
64187W        W32581  16.379  17.743   3.590
64188W        W32582  41.499   1.112  13.852
64189W        W32583  20.198  20.689   0.069
64190W        W32584   0.742   6.745   1.188
64191W        W32585   5.398   5.350   1.272
64192W        W32586   5.361  23.932  10.723
64193W        W32587   9.951  29.232  12.912
64194W        W32588   3.474  31.501   0.017
64195W        W32589   5.300  20.531  13.390
64196W        W32590   4.365   0.454  14.025
64197W        W32591   8.129   9.651   4.177
64198W        W32592  11.910  35.290   3.736
64199W        W32593  15.600  41.315  11.778
64200W        W32594  43.499  34.340   3.711
64201W        W32595  23.112  44.368  14.556
64202W        W32596  20.642  26.133   3.045
64203W        W32597  20.202  41.386  11.086
64204W        W32598  23.145  14.384  13.887
64205W        W32599  10.786   2.947   2.272
64206W        W32600  22.860  16.475  13.505
64207W        W32601  22.192  30.105   0.180
64208W        W32602  12.409  36.129  11.995
64209W        W32603  24.124  40.002  14.788
64210W        W32604  20.600  32.060   0.932
64211W        W32605   4.928   8.501  10.812
64212W        W32606  41.906  25.613   2.756
64213W        W32607  16.595  37.434   0.296
64214W        W32608   8.351  40.762  12.165
64215W        W32609   2.686  44.495   2.628
64216W        W32610  21.645  40.401  12.554
64217W        W32611  16.149  43.429   3.962
64218W        W32612  30.129   4.602   3.285
64219W        W32613  18.100  42.019   1.950
64220W        W32614  19.451  25.332   4.513
64221W        W32615  12.575  13.311   0.683
64222W        W32616  43.729  27.985  13.264
64223W        W32617   5.693  22.246   4.240
64224W        W32618  20.603   3.401   1.903
64225W        W32619  28.053  39.856   0.011
64226W        W32620  25.752  14.597  12.931
64227W        W32621  14.282  40.283  11.537
64228W        W32622  17.583   6.856  14.117
64229W        W32623  41.980  17.165  10.628
64230W        W32624  14.861  34.889  14.437
64231W        W32625  41.807  27.706  14.097
64232W        W32626  12.247  20.067   5.002
64233W        W32627  21.496   3.975  12.398
64234W        W32628  26.928  36.990   2.713
64235W        W32629  38.848   8.363  14.101
64236W        W32630  31.810  13.319  11.135
64237W        W32631  22.681  20.462  13.187
64238W        W32632   9.581  44.772   3.679
64239W        W32633  21.300   0.383   1.944
64240W        W32634  36.634  39.897  10.553
64241W        W32635  44.324  19.289   0.826
64242W        W32636   1.285  18.161   0.245
64243W        W32637  43.269   7.900   0.270
64244W        W32638  12.795   7.724   2.864
64245W        W32639   9.357  21.724  12.945
64246W        W32640  39.104  25.318   2.287
64247W        W32641  11.740  25.716  10.627
64248W        W32642  27.493  28.613  14.090
64249W        W32643  41.918   9.669  14.965
64250W        W32644  35.355  14.825  10.700
64251W        W32645  12.159  13.390   3.267
64252W        W32646  35.522   6.404  12.571
64253W        W32647  12.989  43.828   2.852
64254W        W32648  20.571  43.963  13.312
64255W        W32649  40.502   7.239  10.335
64256W        W32650   0.694  14.918  12.734
64257W        W32651  27.235  28.550   1.835
64258W        W32652  27.246  29.429  10.539
64259W        W32653  33.087  20.286   2.866
64260W        W32654  38.917  43.382   4.760
64261W        W32655  22.504  34.436  12.946
64262W        W32656  29.914  38.973  10.839
64263W        W32657  19.230   0.246  11.663
64264W        W32658   1.886  30.004   3.082
64265W        W32659  16.591  31.113  12.774
64266W        W32660  40.010   7.303  11.220
64267W        W32661  33.031  43.492   0.297
64268W        W32662  38.547   9.689   4.155
64269W        W32663   2.471   8.617   0.681
64270W        W32664  22.107  41.817   1.504
64271W        W32665  20.114   5.824   0.899
64272W        W32666   5.816  16.944   3.846
64273W        W32667  19.636  24.253  14.167
64274W        W32668  41.475   0.408  13.374
64275W        W32669  31.053   5.917   1.683
64276W        W32670  33.187  25.263  12.397
64277W        W32671  15.078  25.014   1.353
64278W        W32672  32.694   5.399  13.593
64279W        W32673  20.616   3.589   0.484
64280W        W32674  37.920  27.143  12.096
64281W        W32675  13.218   0.445   2.414
64282W        W32676  17.212  28.049  14.266
64283W        W32677   5.629   3.947   2.227
64284W        W32678  34.261  11.229  11.466
64285W        W32679  13.135  37.521  11.779
64286W        W32680  38.042  36.847  11.162
64287W        W32681  13.745  28.089   3.697
64288W        W32682  11.175  30.475   4.474
64289W        W32683   2.148  37.420  10.142
64290W        W32684  10.256  14.712  14.884
64291W        W32685  27.796  13.106   3.787
64292W        W32686  11.415   2.979   4.070
64293W        W32687   1.847  28.370  14.767
64294W        W32688  10.390   9.906   1.007
64295W        W32689   0.430  26.732   2.688
64296W        W32690  15.050   0.986   3.405
64297W        W32691   9.910   1.390   4.087
64298W        W32692   8.396  31.038   3.995
64299W        W32693  20.095  29.676   0.492
64300W        W32694  44.337   0.475   0.420
64301W        W32695  35.928  25.230  11.630
64302W        W32696   6.857  13.752  11.221
64303W        W32697  23.689  36.020   2.843
64304W        W32698  39.489  36.273  11.653
64305W        W32699  40.849  25.210   4.647
64306W        W32700  10.219  41.912   0.493
64307W        W32701  10.140  12.085  11.108
64308W        W32702  34.629  24.657  12.723
64309W        W32703  12.235  20.269  14.340
64310W        W32704  43.652  31.238   2.776
64311W        W32705   9.658   2.179  10.345
64312W        W32706   9.310  20.106  14.612
64313W        W32707  33.789  32.521  14.492
64314W        W32708  22.224  38.077  14.421
64315W        W32709  25.875  16.305   3.564
64316W        W32710  36.676  32.430  14.691
64317W        W32711  14.708  13.667   3.631
64318W        W32712  35.947  28.396  10.498
64319W        W32713   5.675  19.452   2.301
64320W        W32714  31.078  19.547   0.435
64321W        W32715   8.950  29.419  13.428
64322W        W32716  23.246  12.225   1.675
64323W        W32717  39.473  38.292   1.153
64324W        W32718  36.482  27.470  13.632
64325W        W32719  41.747  27.579  12.411
64326W        W32720  10.087  44.279   1.279
64327W        W32721  16.823  16.568   3.319
64328W        W32722  41.712  22.557  12.055
64329W        W32723  12.677  15.909   1.696
64330W        W32724   9.339   6.138  12.548
64331W        W32725  30.700  16.763  12.918
64332W        W32726  11.563   2.673  14.908
64333W        W32727  44.999  36.045   1.758
64334W        W32728  20.025  32.415  10.706
64335W        W32729  33.896   9.238   0.811
64336W        W32730   2.825   2.845  13.772
64337W        W32731  39.766  37.885   4.766
64338W        W32732  13.297   3.319   3.652
64339W        W32733  16.799  18.837   3.619
64340W        W32734  21.162  28.872   1.296
64341W        W32735  44.700   1.501  12.953
64342W        W32736  34.663  26.005   2.717
64343W        W32737  23.238   8.950  11.942
64344W        W32738   6.237  41.629  12.629
64345W        W32739  14.985  35.071   0.538
64346W        W32740  40.080   0.063   0.171
64347W        W32741  38.576  12.686  13.430
64348W        W32742   2.413  38.107   3.596
64349W        W32743  11.010  37.990   2.747
64350W        W32744  38.940  23.690   3.891
64351W        W32745   4.719  32.525   4.377
64352W        W32746  19.126  12.553   1.896
64353W        W32747  28.941  17.090   1.384
64354W        W32748  20.706   9.354  10.460
64355W        W32749  16.783   6.650   4.278
64356W        W32750  38.730  31.963  13.279
64357W        W32751  41.120  28.744  13.862
64358W        W32752  12.173   8.590  10.093
64359W        W32753  38.926  12.734   3.177
64360W        W32754  16.572  17.679  12.098
64361W        W32755  29.578  33.600   2.062
64362W        W32756  17.733   0.342   3.148
64363W        W32757   1.990  10.597   3.749
64364W        W32758   3.507   0.993   2.759
64365W        W32759  31.110  43.772  13.989
64366W        W32760  18.981  29.820  12.496
64367W        W32761  21.677   9.793  13.926
64368W        W32762  24.162  41.778   4.179
64369W        W32763  35.606  37.698   4.490
64370W        W32764  37.670  18.264   3.674
64371W        W32765   5.704  39.578   3.114
64372W        W32766  22.707  39.384   3.329
64373W        W32767  43.505   8.160   2.877
64374W        W32768  27.809  33.685   3.338
64375W        W32769  10.762  38.973   3.479
64376W        W32770   6.632   7.132   4.116
64377W        W32771  16.007  37.430   1.313
64378W        W32772  18.215  22.714   1.338
64379W        W32773  28.393  31.656   5.120
64380W        W32774  36.070  31.226  14.433
64381W        W32775  10.391   1.724  14.470
64382W        W32776  34.165  41.410  12.005
64383W        W32777  36.521  20.143   2.353
64384W        W32778  28.367  19.128  10.693
64385W        W32779  39.629  42.380  13.347
64386W        W32780  11.575  43.060   0.218
64387W        W32781  41.420  26.445   1.660
64388W        W32782  25.516  19.138   4.609
64389W        W32783  22.216  16.898   4.257
64390W        W32784  41.365  24.123   0.986
64391W        W32785   7.222  41.434  13.897
64392W        W32786  15.760  11.095   4.678
64393W        W32787  26.181   0.597  11.186
64394W        W32788  44.707  35.597   1.125
64395W        W32789  37.884  12.157   1.216
64396W        W32790   4.502  35.558  10.611
64397W        W32791  37.939  11.578  10.769
64398W        W32792  18.806  26.154   3.117
64399W        W32793  27.625  24.268   3.596
64400W        W32794  31.364  16.061  14.733
64401W        W32795   5.277  14.261  12.097
64402W        W32796  37.575   0.898  12.406
64403W        W32797  17.311   9.951   3.701
64404W        W32798   7.219  36.837   4.747
64405W        W32799  19.551  38.065   4.569
64406W        W32800  28.061  31.898  13.335
64407W        W32801  39.374   9.840  10.787
64408W        W32802  44.367  32.735   4.467
64409W        W32803   0.472  15.705  12.046
64410W        W32804  43.810  10.086   0.782
64411W        W32805  28.109  34.870  11.576
64412W        W32806  15.284  40.900   3.352
64413W        W32807  39.572  26.624  11.116
64414W        W32808  20.965  36.781  10.896
64415W        W32809  23.116   7.910   3.912
64416W        W32810  24.550   6.787  11.507
64417W        W32811   3.263  10.104  13.522
64418W        W32812  36.150   5.274  12.581
64419W        W32813  15.342  26.636  13.913
64420W        W32814  43.255  36.451   2.506
64421W        W32815   4.950  27.603   0.229
64422W        W32816  23.228  43.426  14.214
64423W        W32817  18.601  16.133  12.177
64424W        W32818  25.685  38.066   4.930
64425W        W32819  44.315  42.833  12.155
64426W        W32820  15.823  33.598   3.194
64427W        W32821  27.360  28.448   4.120
64428W        W32822  39.980  40.297  11.589
64429W        W32823  37.133   6.661   1.170
64430W        W32824   6.313   4.772  11.716
64431W        W32825  35.329   9.195  11.154
64432W        W32826  34.150  35.626   0.196
64433W        W32827  42.844  14.576  12.600
64434W        W32828  38.024   2.198   3.130
64435W        W32829  15.542  41.786  11.489
64436W        W32830  30.119  25.691   3.802
64437W        W32831  25.842  42.887   3.441
64438W        W32832  17.288  18.267  14.499
64439W        W32833  14.893  17.264  12.478
64440W        W32834   9.421  26.631  13.859
64441W        W32835  24.468   8.765  14.091
64442W        W32836  41.299  40.811  14.716
64443W        W32837  29.912  10.385   1.572
64444W        W32838  22.347  37.043  11.933
64445W        W32839  37.886   7.380  14.187
64446W        W32840  40.249  31.543   2.629
64447W        W32841  42.977  10.642   3.831
64448W        W32842  30.918  10.746  14.330
64449W        W32843  38.951  23.396   0.552
64450W        W32844  36.124  12.890   1.618
64451W        W32845   6.177  14.206  13.396
64452W        W32846   1.438  13.179   4.596
64453W        W32847  40.297   2.932   0.208
64454W        W32848  19.140  36.103  10.620
64455W        W32849  42.307   8.788  11.506
64456W        W32850   9.126  12.781  13.846
64457W        W32851  17.570   4.188  12.447
64458W        W32852  36.042  18.188   2.912
64459W        W32853   0.172  42.560  12.428
64460W        W32854   6.584   3.442   3.299
64461W        W32855   8.128  32.410   2.586
64462W        W32856  10.217   2.733   4.608
64463W        W32857  36.117   2.995  12.610
64464W        W32858   8.225  14.129  12.958
64465W        W32859  28.568   0.269   3.227
64466W        W32860  40.803  22.601  12.191
64467W        W32861  35.346  40.968  12.455
64468W        W32862  11.172   0.212  12.876
64469W        W32863  44.057  43.891   4.641
64470W        W32864  40.696   1.616  13.986
64471W        W32865  24.660  24.685   1.998
64472W        W32866  22.868   1.494  13.542
64473W        W32867  17.112  27.656  11.874
64474W        W32868  25.713  17.167  10.621
64475W        W32869   1.994  38.018   3.289
64476W        W32870  14.133  29.647  11.062
64477W        W32871  43.886  19.547   2.843
64478W        W32872  12.305  26.676   4.674
64479W        W32873  25.298  22.240  14.067
64480W        W32874  24.572  12.862   2.529
64481W        W32875  32.385  18.921  10.835
64482W        W32876   2.802   5.405   3.866
64483W        W32877  26.649   0.102  10.138
64484W        W32878  29.410  34.753  14.394
64485W        W32879  32.895  23.077   2.217
64486W        W32880  38.016   5.175   4.488
64487W        W32881   5.800   3.406   0.839
64488W        W32882  23.666  15.035   2.682
64489W        W32883  23.809  39.581   1.284
64490W        W32884  20.039  44.974  13.964
64491W        W32885  35.819  28.678  13.664
64492W        W32886  31.536   4.953  11.071
64493W        W32887  13.959  32.583  12.390
64494W        W32888  39.053  17.709  12.019
64495W        W32889  29.737  12.598   4.593
64496W        W32890  44.282  41.302   2.440
64497W        W32891   9.923  20.009  14.748
64498W        W32892  27.942  26.308   5.027
64499W        W32893  31.599   6.234   0.906
64500W        W32894  37.471   3.495  13.120
64501W        W32895   0.307  38.347   2.183
64502W        W32896  36.185   5.402   3.839
64503W        W32897  15.762   0.574   0.414
64504W        W32898  13.343   2.334   4.909
64505W        W32899  39.966  37.802   1.746
64506W        W32900  18.536  28.409  13.725
64507W        W32901  37.262  19.228   3.711
64508W        W32902  13.836  19.699  12.405
64509W        W32903  20.680  18.998   2.110
64510W        W32904  18.250  41.102  10.247
64511W        W32905  17.068  40.897  10.008
64512W        W32906  36.531  41.014  12.405
64513W        W32907  27.470  23.637   4.514
64514W        W32908  39.290  14.832   3.851
64515W        W32909  19.482  40.979   2.352
64516W        W32910  19.224  28.913   5.639
64517W        W32911  23.003   6.501  10.128
64518W        W32912   1.883   9.086   2.863
64519W        W32913   2.845  33.678  11.229
64520W        W32914  43.703  15.175   4.510
64521W        W32915   3.898  39.553  12.353
64522W        W32916  34.123  18.141  12.407
64523W        W32917  32.308  31.493   3.399
64524W        W32918  34.025   3.927  14.548
64525W        W32919   8.875   1.928   4.842
64526W        W32920   0.244  13.263   1.396
64527W        W32921  43.211  12.638  12.374
64528W        W32922  41.354  13.451  13.051
64529W        W32923  18.903  34.115   4.215
64530W        W32924   3.010   8.778   2.155
64531W        W32925  43.850  18.809  11.549
64532W        W32926  42.606  39.856  12.505
64533W        W32927   4.500  28.683   4.514
64534W        W32928  15.550  34.113  11.976
64535W        W32929  37.091  43.720  10.389
64536W        W32930  30.844  43.717  11.036
64537W        W32931  40.622  39.859  13.905
64538W        W32932  14.647  30.558   4.132
64539W        W32933  21.968  15.811   4.185
64540W        W32934   6.584   5.349   1.854
64541W        W32935  34.454  11.500   4.036
64542W        W32936   1.572  40.872   0.925
64543W        W32937  24.021  31.727  10.485
64544W        W32938  44.188   6.490   0.459
64545W        W32939  19.026   6.236   4.581
64546W        W32940  13.602  38.885  11.580
64547W        W32941  44.894  17.559   2.202
64548W        W32942  29.372  29.158  11.612
64549W        W32943   6.976  42.354   0.809
64550W        W32944  21.706   9.840  14.447
64551W        W32945  31.623   5.803   0.222
64552W        W32946  11.018  39.315  14.937
64553W        W32947   8.882  20.620  13.852
64554W        W32948  44.320  27.658   1.573
64555W        W32949  10.152   8.351   0.407
64556W        W32950  19.141   3.026  13.351
64557W        W32951   9.622  38.612  13.308
64558W        W32952  43.387  31.064   4.085
64559W        W32953  31.118  24.583   1.398
64560W        W32954  37.539  36.051   0.223
64561W        W32955  12.144  19.581  12.004
64562W        W32956  11.075  27.032  14.937
64563W        W32957   1.761  41.171   3.232
64564W        W32958  33.014  14.400   0.996
64565W        W32959   3.307  30.511   1.172
64566W        W32960   5.266   1.815   0.408
64567W        W32961  15.446  15.840  13.509
64568W        W32962  35.083  35.513   4.025
64569W        W32963  25.983  39.837  10.755
64570W        W32964  33.314  42.011  10.199
64571W        W32965  19.660  39.106  14.853
64572W        W32966  36.589  20.708   0.705
64573W        W32967  33.322  19.726  10.703
64574W        W32968  13.839   5.378  14.215
64575W        W32969  24.566   1.289   4.535
64576W        W32970  15.356  12.443   3.712
64577W        W32971  38.551   4.920  10.592
64578W        W32972   4.129   3.306  14.021
64579W        W32973   7.075  41.979   1.695
64580W        W32974  44.342  11.597  14.902
64581W        W32975   4.391  32.861  12.915
64582W        W32976   9.134  33.502   3.632
64583W        W32977  40.203   0.358   1.775
64584W        W32978  33.017  40.413  11.215
64585W        W32979  14.074  24.799   0.017
64586W        W32980  21.245  41.569   1.822
64587W        W32981  17.985  31.785  10.707
64588W        W32982   8.872  38.592  10.772
64589W        W32983   4.417  44.518   2.358
64590W        W32984  27.223  11.914   4.572
64591W        W32985  35.643  37.316   4.858
64592W        W32986  42.528  42.496  13.003
64593W        W32987  44.521   9.566   1.883
64594W        W32988  36.690   4.834   4.552
64595W        W32989  13.253  13.614   0.500
64596W        W32990  27.131   2.777   3.037
64597W        W32991  37.107  14.133  13.985
64598W        W32992  32.552   5.126  12.180
64599W        W32993   9.205   9.932  12.475
64600W        W32994  16.650  38.571   3.496
64601W        W32995   6.142   2.381   1.330
64602W        W32996  31.150  19.219   3.842
64603W        W32997   4.512  39.104  14.271
64604W        W32998  38.298  13.135  13.406
64605W        W32999  13.351  17.417  14.745
64606W        W33000   3.449  16.247  10.477
64607W        W33001  41.782  12.669   4.636
64608W        W33002  42.386  22.673   3.617
64609W        W33003  29.239  30.426   2.227
64610W        W33004   4.957  11.054   0.169
64611W        W33005  23.716  43.428   1.404
64612W        W33006  21.120  15.786   0.361
64613W        W33007  21.132   1.762   2.997
64614W        W33008  41.645  15.226  11.391
64615W        W33009  12.641  10.998   3.768
64616W        W33010  40.278  33.266   1.377
64617W        W33011   8.713  26.158   2.269
64618W        W33012   4.450  18.374   1.154
64619W        W33013  43.277  23.550   2.175
64620W        W33014  27.582   5.480   2.629
64621W        W33015  23.261   9.582   4.607
64622W        W33016   5.999  24.607   3.383
64623W        W33017  20.664  23.173   2.387
64624W        W33018   1.732  24.356   4.213
64625W        W33019  26.589  43.063   4.113
64626W        W33020  25.599   1.740   2.906
64627W        W33021  32.154  38.004   1.276
64628W        W33022  36.576   9.158   0.822
64629W        W33023  23.071   1.124   4.467
64630W        W33024  42.540  17.527  13.496
64631W        W33025  37.534   8.289   2.811
64632W        W33026  19.793  41.729   3.318
64633W        W33027   1.468  22.651  14.440
64634W        W33028   4.426   1.961   2.752
64635W        W33029  28.897  39.481  12.036
64636W        W33030  17.742  29.384   3.125
64637W        W33031  33.873  28.212  13.371
64638W        W33032  13.646  30.869   3.028
64639W        W33033  35.022  39.093   4.533
64640W        W33034  41.077   5.966  10.666
64641W        W33035  25.331  14.258  11.609
64642W        W33036  25.444  15.614   0.397
64643W        W33037  29.668  26.558   2.784
64644W        W33038  31.170   0.884   0.584
64645W        W33039   3.839  13.644  11.891
64646W        W33040  31.598  34.306   3.302
64647W        W33041  13.863  35.164  11.005
64648W        W33042  16.689  20.843  14.649
64649W        W33043   2.972   2.350   1.291
64650W        W33044   0.499  33.991  12.578
64651W        W33045  26.396  43.324   2.759
64652W        W33046  18.705  43.044   2.271
64653W        W33047  15.284  16.129   4.009
64654W        W33048  14.832   8.387  11.856
64655W        W33049  33.110   3.227   4.375
64656W        W33050  33.917   5.616   3.607
64657W        W33051   8.320   5.654   3.119
64658W        W33052  25.777  10.440  11.101
64659W        W33053   4.809  13.038  14.544
64660W        W33054  27.005  32.372   0.291
64661W        W33055   7.175  13.217  10.638
64662W        W33056  37.558  29.852   0.490
64663W        W33057  11.093  10.437   2.726
64664W        W33058   9.831  24.185   2.695
64665W        W33059  38.845   8.879   3.831
64666W        W33060  19.067  12.754  14.441
64667W        W33061  26.035  11.481  14.494
64668W        W33062  18.100  40.609   4.514
64669W        W33063  30.129   2.533   2.230
64670W        W33064   0.324  33.352   2.199
64671W        W33065  29.711  27.509   1.878
64672W        W33066  31.546  32.509   0.844
64673W        W33067  24.305  43.830  10.715
64674W        W33068  38.990   6.701  14.731
64675W        W33069  28.117  20.545  10.631
64676W        W33070  22.197  22.614   0.751
64677W        W33071  21.837  25.064  12.010
64678W        W33072   8.821  25.571   1.686
64679W        W33073  44.759  39.858   1.569
64680W        W33074  20.485  34.613  10.992
64681W        W33075   9.539  22.999   4.139
64682W        W33076   5.364  22.791   0.318
64683W        W33077  33.693  24.395  12.470
64684W        W33078  36.633   2.278   3.675
64685W        W33079   9.106  22.074  14.640
64686W        W33080  24.129  14.776   3.962
64687W        W33081  34.580  41.981   0.960
64688W        W33082  26.243  26.093   2.251
64689W        W33083  12.717  30.086   0.766
64690W        W33084  41.578  28.435  10.711
64691W        W33085  20.510   8.812  13.468
64692W        W33086  34.074   3.163  11.942
64693W        W33087  29.281  20.321   2.222
64694W        W33088  40.894   1.335  11.645
64695W        W33089  37.291  14.010   3.887
64696W        W33090  11.905  16.084  14.056
64697W        W33091  22.414  11.898   4.455
64698W        W33092  20.176  11.226  10.501
64699W        W33093   8.812  35.278  13.955
64700W        W33094  23.721  33.971  13.303
64701W        W33095  39.048  27.006   1.838
64702W        W33096  37.753  17.232   2.248
64703W        W33097  27.466  29.140   1.193
64704W        W33098  18.018   1.397  12.091
64705W        W33099  14.236  26.084  11.532
64706W        W33100  40.587   8.381  13.371
64707W        W33101  43.976  41.767   3.761
64708W        W33102   7.898  10.664  13.912
64709W        W33103  10.931  42.289  13.501
64710W        W33104  17.029   4.493   0.964
64711W        W33105  19.104  10.748   4.488
64712W        W33106  34.855  24.720   3.351
64713W        W33107  19.544   4.268  14.371
64714W        W33108  29.477  44.520   0.312
64715W        W33109  37.318   1.174   5.206
64716W        W33110  19.652  13.904  12.431
64717W        W33111   3.700  22.059   0.797
64718W        W33112  10.025  11.609   1.290
64719W        W33113  38.274  26.135  11.137
64720W        W33114  13.688  35.896  13.899
64721W        W33115  38.105  34.119   4.189
64722W        W33116  23.608   9.482   3.090
64723W        W33117   3.401  27.805  12.090
64724W        W33118   8.171  34.718   2.968
64725W        W33119  28.506  32.707  11.257
64726W        W33120   8.432  15.706   1.942
64727W        W33121  41.838  39.768  10.920
64728W        W33122   7.299  39.224  12.099
64729W        W33123  16.314   9.697  12.611
64730W        W33124  17.004  16.164   2.672
64731W        W33125  36.272  42.855   4.643
64732W        W33126  32.140  10.961   1.648
64733W        W33127   0.429  42.218   0.046
64734W        W33128  13.830  30.352   0.511
64735W        W33129   7.063  30.700   4.110
64736W        W33130  29.686   2.855  10.653
64737W        W33131  25.698  26.038   0.858
64738W        W33132  11.673   8.287  10.663
64739W        W33133   4.919   8.674   2.399
64740W        W33134  24.521  27.413   1.341
64741W        W33135  12.663  26.369   3.887
64742W        W33136  13.077   8.401   4.598
64743W        W33137  42.288  15.222   4.924
64744W        W33138  31.336  37.324   3.693
64745W        W33139  17.128  10.431   3.682
64746W        W33140  10.207  35.122  12.106
64747W        W33141  34.611  28.232   2.193
64748W        W33142   5.052  41.897   2.584
64749W        W33143  17.734  36.578  10.999
64750W        W33144  27.136  35.088   4.338
64751W        W33145  31.149  37.175   5.033
64752W        W33146  12.638  21.010  13.802
64753W        W33147  13.019   1.486  10.336
64754W        W33148  12.652  17.158  11.830
64755W        W33149   1.951   2.040  11.451
64756W        W33150  22.635  40.373   3.168
64757W        W33151   0.282  44.721  13.785
64758W        W33152  17.656  43.737   3.685
64759W        W33153  31.019  15.848  12.590
64760W        W33154  12.016  30.993   0.124
64761W        W33155  14.234  40.886  13.870
64762W        W33156  10.117  36.474   4.603
64763W        W33157   1.026  11.401  13.346
64764W        W33158  18.332  16.184   2.337
64765W        W33159  39.554   8.933  11.192
64766W        W33160  38.382   5.007   4.163
64767W        W33161  21.680  29.558  13.351
64768W        W33162  31.714  34.634  14.355
64769W        W33163   8.947  35.279  12.562
64770W        W33164  26.956  26.527   0.981
64771W        W33165  39.097  43.018  12.041
64772W        W33166  37.834   9.214  12.899
64773W        W33167   7.232  33.132  12.879
64774W        W33168  17.024   4.214  11.555
64775W        W33169  14.930  24.682  10.303
64776W        W33170  19.095  10.770   2.614
64777W        W33171  31.605  28.960  12.464
64778W        W33172  38.314   7.356   1.961
64779W        W33173   0.079  21.462  14.254
64780W        W33174  35.640  26.272   1.031
64781W        W33175  10.501  13.331   5.124
64782W        W33176  24.073  13.360  12.158
64783W        W33177   7.758  43.825   3.328
64784W        W33178  38.408  25.247   2.305
64785W        W33179  24.455   2.295  12.963
64786W        W33180   7.242  11.152  13.020
64787W        W33181  44.657  44.455   3.547
64788W        W33182   2.385  32.192   3.879
64789W        W33183  41.557  25.555   1.366
64790W        W33184   2.969   0.293  14.238
64791W        W33185  25.181  29.779   1.491
64792W        W33186  21.007  11.250   1.436
64793W        W33187   4.757  32.382  14.447
64794W        W33188  32.132  26.155   1.271
64795W        W33189  38.984  44.451   2.214
64796W        W33190  31.538   3.491  10.923
64797W        W33191   8.313  42.249   3.949
64798W        W33192  18.638   0.718   0.538
64799W        W33193  30.261   1.711   2.708
64800W        W33194  30.440  31.971   0.535
64801W        W33195  36.490  37.108  12.980
64802W        W33196  14.664  32.692   3.263
64803W        W33197   8.585  40.713  13.061
64804W        W33198  33.676   0.397   3.922
64805W        W33199  29.042   1.972  12.559
64806W        W33200   9.226  31.194   0.307
64807W        W33201  13.410  11.661  11.534
64808W        W33202  42.484  44.052   2.704
64809W        W33203  29.325  16.169   1.821
64810W        W33204  10.880   9.076  13.434
64811W        W33205  19.827  22.565  13.660
64812W        W33206  25.828   3.197  11.943
64813W        W33207  30.323  23.388   0.323
64814W        W33208   2.405  43.522  11.238
64815W        W33209  33.549  34.907   3.741
64816W        W33210  18.816  20.108  12.450
64817W        W33211  16.307  39.379   1.386
64818W        W33212   2.435  14.343   2.874
64819W        W33213  33.241  37.155  11.416
64820W        W33214   0.582  41.005   4.259
64821W        W33215  28.172  42.473  11.111
64822W        W33216  32.665  39.135  14.964
64823W        W33217  43.524  21.766  14.268
64824W        W33218  22.644  20.966  12.784
64825W        W33219  23.481  15.351   1.110
64826W        W33220  17.982  40.849   2.367
64827W        W33221  10.772  10.870  13.096
64828W        W33222  20.106   0.724   2.426
64829W        W33223  26.527  19.242   1.259
64830W        W33224  26.576  38.994  14.268
64831W        W33225  28.003  18.996  12.871
64832W        W33226  27.910  18.535   4.286
64833W        W33227   0.872  30.141   1.940
64834W        W33228  11.873  13.927  12.161
64835W        W33229   4.244   1.608  11.576
64836W        W33230  39.998  11.274  14.755
64837W        W33231  40.894  18.415  13.118
64838W        W33232  20.056  19.112  10.708
64839W        W33233  25.682  38.402   1.479
64840W        W33234  25.523  43.706  14.955
64841W        W33235   3.402   8.334   3.184
64842W        W33236  33.884  10.430   2.046
64843W        W33237  35.493  17.550  14.257
64844W        W33238   5.739  34.128   3.393
64845W        W33239   0.424  15.645   4.617
64846W        W33240  10.317  10.049  11.111
64847W        W33241  28.527  27.998  14.478
64848W        W33242   2.373  15.282  11.934
64849W        W33243  14.856  38.574   1.850
64850W        W33244   2.992  37.522  11.533
64851W        W33245  18.985  41.786   2.475
64852W        W33246  15.851  26.705  13.994
64853W        W33247   3.905  10.565   4.720
64854W        W33248  21.569  32.335   1.794
64855W        W33249   2.955  15.337   3.182
64856W        W33250  37.512   1.898   2.284
64857W        W33251  23.850   9.369   2.373
64858W        W33252  38.351  44.850   4.571
64859W        W33253  31.107   6.982   1.826
64860W        W33254  14.660  10.416   0.793
64861W        W33255  39.693   0.251   1.792
64862W        W33256  19.804   4.484  14.755
64863W        W33257  27.660  32.959   0.808
64864W        W33258   7.509  20.902  11.100
64865W        W33259  32.592   9.294  13.935
64866W        W33260  23.077   0.856  11.123
64867W        W33261  23.553  15.762   0.762
64868W        W33262  23.712  30.626  12.327
64869W        W33263  30.053  43.373   1.443
64870W        W33264  30.937   0.889   0.061
64871W        W33265  36.522  33.021   4.681
64872W        W33266  29.394  20.456   3.602
64873W        W33267  42.296  14.524   3.758
64874W        W33268  29.636  21.723   1.742
64875W        W33269   2.778  25.984  10.642
64876W        W33270  24.565  43.449  11.612
64877W        W33271   3.185  39.907   2.619
64878W        W33272  37.536  12.136  13.030
64879W        W33273   9.873   0.806  13.092
64880W        W33274  12.874  34.938  14.632
64881W        W33275  32.925  11.798   1.196
64882W        W33276  31.078   0.389  10.671
64883W        W33277  17.856  24.460   1.414
64884W        W33278  34.763  40.407   2.692
64885W        W33279  18.862  21.258  14.573
64886W        W33280  36.437   6.766  11.203
64887W        W33281  32.533  25.743  12.038
64888W        W33282  28.569  30.151  12.025
64889W        W33283  37.828  41.542   3.680
64890W        W33284   0.923  36.879   1.231
64891W        W33285  38.011  26.417   1.177
64892W        W33286  17.992  36.465   3.823
64893W        W33287  10.649  42.144  11.774
64894W        W33288  14.135  28.703  12.058
64895W        W33289  22.819  23.247  13.911
64896W        W33290   0.215  12.616   3.346
64897W        W33291  14.783   7.390  14.793
64898W        W33292  23.986  41.409  12.991
64899W        W33293  14.280  17.248  13.507
64900W        W33294  34.209  36.268  11.038
64901W        W33295  23.403   6.905   2.697
64902W        W33296  20.135  44.507   5.146
64903W        W33297  34.378   5.475   3.362
64904W        W33298  25.545  30.471   3.620
64905W        W33299   7.819  28.688  14.894
64906W        W33300  26.311  28.122  11.082
64907W        W33301  44.735  28.573  10.422
64908W        W33302  23.736  19.588   2.475
64909W        W33303  21.038   6.720  12.136
64910W        W33304  28.078  37.520   2.131
64911W        W33305   1.398  15.371   3.598
64912W        W33306  14.200  32.853   2.161
64913W        W33307  38.415   7.393  14.863
64914W        W33308  25.310  44.659  14.794
64915W        W33309  29.464  40.315   4.551
64916W        W33310  15.586  15.156   4.803
64917W        W33311  36.598   7.331   0.404
64918W        W33312   8.785  42.514  12.070
64919W        W33313  17.198  39.405   2.352
64920W        W33314  43.066   3.333  13.987
64921W        W33315  41.705  35.488   2.782
64922W        W33316   1.409  25.714   1.395
64923W        W33317  11.248  30.442  10.537
64924W        W33318  13.834  17.171   0.674
64925W        W33319  10.395  19.791   3.798
64926W        W33320  18.066  38.587   2.697
64927W        W33321  34.090  13.809   2.843
64928W        W33322   2.812  38.589  12.390
64929W        W33323   0.304   1.964  12.028
64930W        W33324  14.363  12.783   2.267
64931W        W33325  25.228  32.233  13.020
64932W        W33326  19.258  39.739   2.887
64933W        W33327  13.252  41.508   3.837
64934W        W33328  31.022   9.873   3.813
64935W        W33329  20.530  37.240   4.033
64936W        W33330  36.075  34.054  14.668
64937W        W33331  36.338  25.537  10.560
64938W        W33332  14.353  27.600  10.617
64939W        W33333  23.541   1.957   3.964
64940W        W33334  28.566   2.024  11.444
64941W        W33335   8.699  14.898   4.241
64942W        W33336  32.497   0.085  14.444
64943W        W33337  27.216  34.822   0.507
64944W        W33338  43.234   9.441  11.880
64945W        W33339   1.740   6.642  12.181
64946W        W33340   9.147  21.095  12.049
64947W        W33341  29.284  31.676  10.763
64948W        W33342  17.330  37.534   3.707
64949W        W33343  17.065  33.601  11.948
64950W        W33344  12.597  42.942  14.498
64951W        W33345  18.262   5.730  11.765
64952W        W33346  40.878  38.527  13.906
64953W        W33347   3.804  40.271  13.828
64954W        W33348  26.481   8.999   1.758
64955W        W33349   3.194  33.835  14.727
64956W        W33350   1.973  14.161   1.304
64957W        W33351  16.595  11.875   3.326
64958W        W33352  41.219   7.781  10.939
64959W        W33353  32.967  24.451   1.089
64960W        W33354  38.594  25.742   2.312
64961W        W33355  17.215   2.055   3.176
64962W        W33356  12.305   3.429  10.673
64963W        W33357  33.268  30.163  14.789
64964W        W33358   5.729  28.390  13.503
64965W        W33359  32.240   2.485  14.340
64966W        W33360  34.005  19.032   4.644
64967W        W33361  15.156  39.087   4.673
64968W        W33362  25.505  34.591  13.356
64969W        W33363  13.051  14.447  11.998
64970W        W33364  41.943  21.755   0.435
64971W        W33365  32.020  39.454   4.778
64972W        W33366  41.802  37.407   0.754
64973W        W33367  22.292  29.708   3.399
64974W        W33368   5.560  35.407   2.848
64975W        W33369  21.113  34.848   2.407
64976W        W33370  22.261   4.586   0.361
64977W        W33371  28.491  36.903  13.849
64978W        W33372   7.239  20.567   0.396
64979W        W33373  15.694  19.002  13.954
64980W        W33374   3.912   0.320  11.630
64981W        W33375  26.000  35.972   1.217
64982W        W33376  43.903  37.372  13.777
64983W        W33377  12.582  15.856  13.330
64984W        W33378   6.770  35.466  12.361
64985W        W33379  41.513  32.914   0.011
64986W        W33380   6.130  16.641  12.499
64987W        W33381  13.734  38.298  11.806
64988W        W33382  16.797  21.147   2.361
64989W        W33383  11.345  31.548   2.867
64990W        W33384   9.697   6.511   0.302
64991W        W33385  39.652  35.519  12.120
64992W        W33386  10.049  35.035   2.822
64993W        W33387  13.104  12.078  11.567
64994W        W33388   6.982  26.181   1.357
64995W        W33389  26.024  35.141  12.814
64996W        W33390  31.115   3.792  11.490
64997W        W33391  20.378  28.366  14.870
64998W        W33392  11.211  30.827   3.425
64999W        W33393  19.093   1.713  13.036
65000W        W33394  34.348  40.581   2.351
65001W        W33395   6.177  12.874   1.824
65002W        W33396  28.007  42.715   0.030
65003W        W33397  15.881  13.890  12.108
65004W        W33398   2.916  19.033  13.516
65005W        W33399  11.248   0.277   4.218
65006W        W33400  17.867  26.354  12.160
65007W        W33401  12.376  11.844  12.495
65008W        W33402  13.167  16.651   3.594
65009W        W33403  36.004  18.655  10.525
65010W        W33404  14.360  19.549   1.784
65011W        W33405  26.211   1.652  13.004
65012W        W33406  19.630  39.403   3.046
65013W        W33407   7.648  35.314   4.073
65014W        W33408   9.908  17.538  11.371
65015W        W33409  25.539  22.596   1.285
65016W        W33410  15.983  40.966  13.513
65017W        W33411  44.868   0.306   1.333
65018W        W33412   3.248  12.399   3.764
65019W        W33413  14.322  37.331  10.703
65020W        W33414   0.065  25.500  10.441
65021W        W33415   9.234  37.410  14.453
65022W        W33416  41.594  27.600   3.400
65023W        W33417  34.975  18.758   2.264
65024W        W33418  29.834  33.853   0.900
65025W        W33419  13.484  19.796   3.551
65026W        W33420  14.839   9.746  10.159
65027W        W33421  17.234  13.333   4.225
65028W        W33422  11.293   5.945   0.789
65029W        W33423  33.377  25.945  11.487
65030W        W33424  14.795  14.329  13.834
65031W        W33425   1.735  42.368  13.463
65032W        W33426  14.516   1.714   1.820
65033W        W33427  19.300   7.975  12.857
65034W        W33428  12.389  41.210  11.134
65035W        W33429  33.412  12.642  10.701
65036W        W33430  37.346   4.376   2.597
65037W        W33431  14.815  14.063  13.402
65038W        W33432  23.539  35.567  12.002
65039W        W33433  10.375  26.254   1.824
65040W        W33434  26.512  13.249  12.000
65041W        W33435   2.972  37.900   3.173
65042W        W33436   6.416   6.941  12.058
65043W        W33437  16.712  37.963  12.373
65044W        W33438  39.736  31.706   4.475
65045W        W33439  11.664   4.870   2.927
65046W        W33440  24.996   7.850  12.030
65047W        W33441  40.827  13.381   1.278
65048W        W33442  22.573  18.599  11.824
65049W        W33443  35.923  21.147   2.964
65050W        W33444  29.370  30.461  11.125
65051W        W33445  14.512   6.775  11.791
65052W        W33446  29.566   7.379   1.049
65053W        W33447  21.577  26.328   4.401
65054W        W33448  32.093   8.727  11.397
65055W        W33449  36.005  27.208  13.613
65056W        W33450  11.241  32.377   1.283
65057W        W33451  15.753  41.721  10.492
65058W        W33452  23.947   3.752  12.387
65059W        W33453  43.545  26.618  12.925
65060W        W33454  13.016  15.205  14.924
65061W        W33455  38.172  13.921   4.177
65062W        W33456  19.924  10.364   9.903
65063W        W33457  17.767   3.208   0.707
65064W        W33458  24.745  16.104   2.772
65065W        W33459   2.920  32.842   0.736
65066W        W33460  35.536  32.227  11.995
65067W        W33461  19.812  20.278  12.165
65068W        W33462  24.393   1.885   0.441
65069W        W33463   7.688  18.344   3.743
65070W        W33464  36.584  40.186   1.786
65071W        W33465  34.449  34.034   2.692
65072W        W33466  16.148  25.938  14.682
65073W        W33467  13.624  24.644  14.808
65074W        W33468  35.376   1.510  13.344
65075W        W33469  26.185  43.914  14.205
65076W        W33470  36.013  10.612   1.416
65077W        W33471  25.180   4.485  11.397
65078W        W33472  12.535  44.059   2.927
65079W        W33473   9.004   5.794   2.917
65080W        W33474  16.279  39.506  11.704
65081W        W33475   9.725  15.118  13.924
65082W        W33476   9.885  25.303  12.433
65083W        W33477  30.981   5.196   4.444
65084W        W33478  18.124  26.611  13.788
65085W        W33479  27.279   5.139   4.167
65086W        W33480  13.607  14.407  11.140
65087W        W33481   7.895  31.395  12.477
65088W        W33482  23.947  43.783  13.686
65089W        W33483  41.259  18.228   2.290
65090W        W33484  37.647  21.602   4.594
65091W        W33485  32.668   5.608  12.328
65092W        W33486  14.360  41.728  13.969
65093W        W33487  40.106   2.397   0.709
65094W        W33488  21.715  28.678   4.590
65095W        W33489  21.066   8.101  12.503
65096W        W33490   2.322  18.427  10.455
65097W        W33491  17.466  20.996   1.810
65098W        W33492  26.122  33.322   2.178
65099W        W33493  11.442   6.542   2.118
65100W        W33494  44.346  37.530  14.268
65101W        W33495  42.408  23.384  10.427
65102W        W33496   3.747  21.558  12.595
65103W        W33497  40.545  23.189  12.260
65104W        W33498  30.247  28.582   2.457
65105W        W33499  17.193  24.489  11.892
65106W        W33500   7.452   7.337  14.179
65107W        W33501  15.392   3.210  13.986
65108W        W33502  17.091  30.997   4.039
65109W        W33503  35.623  12.546  13.843
65110W        W33504  24.166  40.210  14.320
65111W        W33505  17.223  37.523   2.766
65112W        W33506  18.547  35.724  12.522
65113W        W33507  19.669  39.080  13.069
65114W        W33508   1.821  39.504   3.570
65115W        W33509   9.185  42.048  10.749
65116W        W33510  27.086   1.881   0.840
65117W        W33511  32.465  13.144   2.912
65118W        W33512  26.414  29.225   3.216
65119W        W33513  22.657  16.768   2.769
65120W        W33514  11.427   8.726   0.930
65121W        W33515  30.401  40.923  14.862
65122W        W33516  17.305  11.811  13.016
65123W        W33517  10.029   8.954   1.095
65124W        W33518  39.378  19.574   0.544
65125W        W33519  20.652   0.229   3.677
65126W        W33520  38.208  18.934  12.296
65127W        W33521  33.490  36.938  13.388
65128W        W33522  43.515   8.363   0.285
65129W        W33523  28.891  42.740  10.685
65130W        W33524  42.838  26.271  10.334
65131W        W33525  12.232   7.402   1.625
65132W        W33526  24.089  28.146   2.248
65133W        W33527  29.096   0.016  12.094
65134W        W33528  26.157  40.772  14.281
65135W        W33529  35.095  27.395  12.481
65136W        W33530  21.554  40.072   1.417
65137W        W33531  41.414  35.931  14.568
65138W        W33532  23.228  16.067   1.773
65139W        W33533   5.919  26.209  12.086
65140W        W33534  33.576  13.565  11.237
65141W        W33535  36.066  44.298   4.615
65142W        W33536   5.846  37.344   0.256
65143W        W33537   3.708  33.789  11.225
65144W        W33538  42.828  22.651   0.022
65145W        W33539  20.726  25.636  12.588
65146W        W33540  29.839   5.602  11.957
65147W        W33541   1.861  33.517  10.739
65148W        W33542  29.215  28.109   4.126
65149W        W33543  17.772  40.595   4.134
65150W        W33544  21.273  16.241   3.757
65151W        W33545  21.439  10.310   1.217
65152W        W33546   6.834   8.843   3.707
65153W        W33547  21.067  40.567   2.815
65154W        W33548  41.635  31.285   2.742
65155W        W33549  38.917  17.739   1.394
65156W        W33550  35.492   8.571  11.950
65157W        W33551  11.926  29.627   3.644
65158W        W33552  10.557  10.858   4.195
65159W        W33553  18.155  38.899  13.066
65160W        W33554  10.653  14.736   4.760
65161W        W33555  42.835  35.406  14.624
65162W        W33556  39.393  39.440  13.538
65163W        W33557  44.455  28.765   4.381
65164W        W33558  35.539  20.212   4.318
65165W        W33559  26.038  16.172  12.756
65166W        W33560  23.528  42.389   0.898
65167W        W33561  29.181  14.594   0.409
65168W        W33562   4.173  29.072   3.179
65169W        W33563  15.682  10.787  12.859
65170W        W33564  16.197  24.687  13.447
65171W        W33565  16.860  36.174   2.986
65172W        W33566  14.548  32.499   1.363
65173W        W33567  40.494  20.652   2.184
65174W        W33568  33.501  38.978   3.999
65175W        W33569  10.727  37.849   3.291
65176W        W33570  15.896  43.938   3.128
65177W        W33571  18.593  10.883   4.149
65178W        W33572  44.321  21.758   2.899
65179W        W33573  31.594  24.267   2.292
65180W        W33574  29.941  22.032  12.604
65181W        W33575  41.940  35.706   3.212
65182W        W33576  38.836  11.162  11.147
65183W        W33577  31.337   8.734   3.186
65184W        W33578  25.207  39.947   4.919
65185W        W33579  23.112   5.173   0.299
65186W        W33580  41.790  12.245  13.873
65187W        W33581  20.060   4.760   4.074
65188W        W33582  22.787  33.957  12.124
65189W        W33583  31.296  21.758  14.863
65190W        W33584  34.547  26.024  14.903
65191W        W33585  16.797   5.581  14.533
65192W        W33586  29.469   8.185  11.639
65193W        W33587  19.673  20.717  11.402
65194W        W33588  40.749  21.133   1.596
65195W        W33589  25.478  41.545   2.441
65196W        W33590  13.032  39.206   3.337
65197W        W33591  12.384   5.911   0.917
65198W        W33592   6.169  33.049   4.687
65199W        W33593   5.677  30.330  13.407
65200W        W33594  42.308   9.247   0.183
65201W        W33595   4.267  11.666   0.179
65202W        W33596  24.741  13.641  13.843
65203W        W33597  24.621  41.545   3.764
65204W        W33598  23.830   4.940   1.422
65205W        W33599  28.710  34.141  10.782
65206W        W33600  10.782  13.109   3.030
65207W        W33601  38.146  29.019  11.751
65208W        W33602  25.427  21.295   9.964
65209W        W33603  32.339  17.727  14.608
65210W        W33604  13.886  28.075   2.143
65211W        W33605  42.909  19.777  11.515
65212W        W33606   9.447  34.353   4.943
65213W        W33607  38.949  38.011  14.419
65214W        W33608  39.838  19.131   1.782
65215W        W33609  26.631  42.735   9.484
65216W        W33610  40.857  11.073   4.528
65217W        W33611  34.887  44.921  14.039
65218W        W33612  14.101  38.873   4.247
65219W        W33613   5.402  29.385   0.427
65220W        W33614  39.985  38.831  10.625
65221W        W33615  40.325  17.022   4.755
65222W        W33616  16.886  17.912   3.613
65223W        W33617  13.767  36.333   1.775
65224W        W33618  43.314  15.697  10.988
65225W        W33619   9.828  20.180   4.477
65226W        W33620   3.442  42.715  12.707
65227W        W33621   3.491  17.156  13.813
65228W        W33622  34.893   8.878  13.585
65229W        W33623  25.688   3.791   4.725
65230W        W33624   5.330  33.029   4.361
65231W        W33625  21.672  21.349   0.438
65232W        W33626   5.116  14.254  13.395
65233W        W33627   8.575   1.888   1.321
65234W        W33628   2.270   5.748  14.460
65235W        W33629  41.079  38.564   0.298
65236W        W33630   5.931  12.233   3.300
65237W        W33631  25.752  39.256  12.459
65238W        W33632  21.106  31.580   4.628
65239W        W33633  25.051  42.830  12.611
65240W        W33634  21.275  38.301  11.847
65241W        W33635  24.149  38.804   2.393
65242W        W33636  25.674  17.093   2.174
65243W        W33637   0.272  11.835   3.811
65244W        W33638  10.309  32.836  14.464
65245W        W33639  18.772  37.076   2.344
65246W        W33640  20.484  41.746  11.885
65247W        W33641  11.413  33.950  10.738
65248W        W33642  22.568   8.553   4.851
65249W        W33643  38.935  34.783   0.453
65250W        W33644   9.335   3.658  14.895
65251W        W33645  12.038  21.356  12.504
65252W        W33646  27.048   8.413   4.787
65253W        W33647  37.833  16.820   1.429
65254W        W33648  22.060  21.474   4.590
65255W        W33649  30.077   3.770   3.812
65256W        W33650  36.384  30.657   2.110
65257W        W33651   6.163  18.810  13.300
65258W        W33652  21.539  23.279   1.256
65259W        W33653  15.908  30.166  13.834
65260W        W33654  44.041  36.354   5.036
65261W        W33655   9.270  22.960   0.090
65262W        W33656   2.757   2.847  13.266
65263W        W33657  17.119  43.057  14.876
65264W        W33658  34.585   2.253  14.744
65265W        W33659  35.083   0.423  14.819
65266W        W33660  39.017  32.161   4.189
65267W        W33661   3.385  20.662  14.012
65268W        W33662  32.958  36.566   2.296
65269W        W33663  17.544   4.489  13.352
65270W        W33664  10.564  21.191   3.721
65271W        W33665  12.957   3.393  12.925
65272W        W33666   3.253  43.288  14.703
65273W        W33667  27.648  29.190   4.221
65274W        W33668  35.087  29.204   1.140
65275W        W33669  16.164  13.761   0.950
65276W        W33670  43.190  40.825   3.175
65277W        W33671   5.333  13.657   3.832
65278W        W33672  24.168  42.408  14.730
65279W        W33673  25.330  37.680   3.644
65280W        W33674   1.136  23.065   4.884
65281W        W33675  15.064  20.473  13.842
65282W        W33676  41.873  27.436  11.937
65283W        W33677  23.880  28.840   4.072
65284W        W33678  18.695  30.726  10.154
65285W        W33679  27.380  14.115  11.173
65286W        W33680  17.158  20.574  12.030
65287W        W33681  38.395  35.720  11.932
65288W        W33682  34.878  33.837  12.411
65289W        W33683   9.289  11.487   0.746
65290W        W33684   3.258  41.322   4.639
65291W        W33685  11.057  37.963   0.003
65292W        W33686  27.844  20.352   1.310
65293W        W33687  40.940  40.275  10.725
65294W        W33688   9.390  19.586  11.997
65295W        W33689  40.987  42.130  10.621
65296W        W33690  13.770   2.304  14.153
65297W        W33691   7.384  39.788   1.442
65298W        W33692  41.730  13.734  12.366
65299W        W33693  11.466   1.855   3.127
65300W        W33694  42.512   3.719  14.730
65301W        W33695   2.944  14.114   3.551
65302W        W33696   7.342  19.821  11.973
65303W        W33697  34.636  32.883   0.474
65304W        W33698  16.990  41.085   4.170
65305W        W33699  17.331  23.428   4.307
65306W        W33700  13.015   9.260   3.717
65307W        W33701   3.386  26.439   1.728
65308W        W33702   5.249  39.192   3.591
65309W        W33703  23.627  21.318  10.717
65310W        W33704   8.401   4.347  10.919
65311W        W33705  17.077   7.906  13.439
65312W        W33706  37.936  30.739   9.938
65313W        W33707  13.492  27.214   3.105
65314W        W33708  39.471   5.761   2.386
65315W        W33709  10.254  18.468   2.763
65316W        W33710  26.565  35.075   2.550
65317W        W33711  40.591  19.172   3.365
65318W        W33712  41.688  29.474  10.786
65319W        W33713  21.513  13.259  14.019
65320W        W33714  23.470   6.683   0.877
65321W        W33715  28.868   1.404  13.627
65322W        W33716  41.072  29.888  13.888
65323W        W33717  23.840  20.523  14.930
65324W        W33718  16.594   8.921  11.111
65325W        W33719   8.730  41.027  10.910
65326W        W33720  20.967  36.859  10.385
65327W        W33721  44.685  15.661  12.489
65328W        W33722  30.248  22.451  12.465
65329W        W33723  23.346  36.070  13.497
65330W        W33724  41.787  37.824  13.908
65331W        W33725   8.102   0.493  12.651
65332W        W33726  29.004  13.596   3.287
65333W        W33727  27.150   3.442   4.700
65334W        W33728   7.701  36.877  12.448
65335W        W33729  16.725  39.007   1.817
65336W        W33730  24.298  19.579   4.508
65337W        W33731  38.823  42.331   4.878
65338W        W33732  11.364  42.479   4.612
65339W        W33733  27.202  15.182  10.750
65340W        W33734   4.058  36.040   2.450
65341W        W33735  36.923  31.638  12.655
65342W        W33736  28.380   3.842  12.660
65343W        W33737  21.152  32.179  11.260
65344W        W33738  39.408  32.292   2.377
65345W        W33739  43.329   0.224   3.665
65346W        W33740  21.001   6.002   1.169
65347W        W33741  10.296  40.875  12.661
65348W        W33742  15.477   8.255  11.927
65349W        W33743   3.838  26.075  10.556
65350W        W33744  12.142   9.861   0.825
65351W        W33745  29.865  23.126  11.156
65352W        W33746  41.550  25.500   0.472
65353W        W33747   7.480   4.108  11.066
65354W        W33748  17.373  40.582   4.994
65355W        W33749  17.260  21.555   3.699
65356W        W33750  33.408   9.745   1.746
65357W        W33751   9.244   7.494   2.133
65358W        W33752   2.345  20.360   3.856
65359W        W33753  36.132  17.044  11.610
65360W        W33754  35.506  13.213  13.321
65361W        W33755  39.811  30.632   0.926
65362W        W33756  26.963  12.656  11.602
65363W        W33757  10.908   5.799   4.579
65364W        W33758  16.820  40.859  10.709
65365W        W33759  21.560  39.983  13.721
65366W        W33760   4.285  31.445  11.117
65367W        W33761  13.784  10.136  13.994
65368W        W33762  12.879  28.151  13.510
65369W        W33763  12.567  26.004  11.078
65370W        W33764  40.883  33.650  10.665
65371W        W33765  17.850   9.186   1.199
65372W        W33766   5.721  11.135  13.850
65373W        W33767  37.363   7.285   2.958
65374W        W33768  22.704   6.162   4.638
65375W        W33769  28.898  23.643   1.842
65376W        W33770  24.042   2.966   4.694
65377W        W33771  37.311  16.730   4.528
65378W        W33772  11.619  12.043   1.009
65379W        W33773  13.314  40.580   3.870
65380W        W33774  13.195  43.212  11.215
65381W        W33775  10.227  35.899   1.002
65382W        W33776  13.255  28.554  10.688
65383W        W33777  24.673  10.179   3.719
65384W        W33778   6.857  37.373   2.362
65385W        W33779  21.342  16.244   0.438
65386W        W33780  29.635  13.080   4.850
65387W        W33781   1.545  31.549   1.250
65388W        W33782  33.626  26.005   1.767
65389W        W33783  37.625  19.044  11.572
65390W        W33784  24.847  34.062  11.168
65391W        W33785  39.014  37.244  11.188
65392W        W33786  10.566   8.217   0.691
65393W        W33787  41.717  29.894  11.131
65394W        W33788  44.569  41.172  14.832
65395W        W33789  44.871  37.487  11.620
65396W        W33790  25.056   5.985   4.045
65397W        W33791  11.269  32.991   4.173
65398W        W33792  17.694  43.413  10.609
65399W        W33793  10.819  21.042  11.893
65400W        W33794  17.466  22.102  10.805
65401W        W33795  22.398  44.676  13.534
65402W        W33796   3.139   2.898  12.925
65403W        W33797  34.074  29.470   2.556
65404W        W33798  15.066  11.721  10.647
65405W        W33799   3.805  39.921  13.008
65406W        W33800  41.830   8.954   5.199
65407W        W33801  23.628  29.041  11.001
65408W        W33802  40.169  14.594  14.670
65409W        W33803  43.913   6.205   5.199
65410W        W33804   4.573   7.850   4.531
65411W        W33805  23.504  23.537   1.830
65412W        W33806  20.044  14.560  12.641
65413W        W33807  25.660  41.016  12.988
65414W        W33808  23.404  44.298   3.572
65415W        W33809  26.732  28.446  10.994
65416W        W33810  31.990  43.089  12.869
65417W        W33811  41.891  36.205   3.091
65418W        W33812  29.890  31.004  12.337
65419W        W33813  28.899  43.944   1.330
65420W        W33814  38.951  38.918  14.251
65421W        W33815  24.020  11.867  12.955
65422W        W33816   9.347   5.382   4.092
65423W        W33817  24.045  35.225   4.716
65424W        W33818  10.792  33.645  13.408
65425W        W33819  30.689   3.425   1.641
65426W        W33820  13.442  23.676  10.947
65427W        W33821  14.746  11.874  11.907
65428W        W33822  26.045  14.533   2.242
65429W        W33823  34.742  26.765   0.071
65430W        W33824  31.810  27.354  12.287
65431W        W33825  36.183  16.725   0.678
65432W        W33826  13.446  33.965   2.249
65433W        W33827   4.356  35.382   4.054
65434W        W33828  19.616  43.901   0.728
65435W        W33829  30.549  12.148  11.563
65436W        W33830  39.890  12.723  13.162
65437W        W33831  23.751   9.204   0.061
65438W        W33832  33.946  19.319   5.093
65439W        W33833  27.751  22.713  13.974
65440W        W33834  21.639  39.801   2.940
65441W        W33835  27.838  11.665   1.025
65442W        W33836   5.877  41.334   1.302
65443W        W33837  41.664   7.127   0.349
65444W        W33838   1.363  44.809   3.570
65445W        W33839  25.236  30.193   3.958
65446W        W33840  21.360  36.483   2.509
65447W        W33841  30.463  10.726   0.995
65448W        W33842   9.940  33.995   0.835
65449W        W33843   9.782  43.194  11.587
65450W        W33844   9.626  32.653  14.827
65451W        W33845  19.997  27.525  12.998
65452W        W33846  23.790  10.308  14.427
65453W        W33847   6.907  35.954   3.307
65454W        W33848   3.905   6.321   1.906
65455W        W33849  10.953  26.368   3.395
65456W        W33850  27.959  33.440  10.663
65457W        W33851  15.759  21.139  14.416
65458W        W33852  11.345  19.460   0.319
65459W        W33853  23.457  22.686   1.227
65460W        W33854  27.622  16.177  10.573
65461W        W33855  28.034  10.941   2.501
65462W        W33856  37.350  15.641  12.915
65463W        W33857   6.205  41.990   4.941
65464W        W33858   2.205  31.675  12.516
65465W        W33859  40.136  40.962  11.061
65466W        W33860  23.581  18.596   1.425
65467W        W33861  40.480  27.092  14.125
65468W        W33862   3.702   9.123   2.848
65469W        W33863  10.751  25.457  10.661
65470W        W33864  11.784  18.538  11.554
65471W        W33865  27.548  36.147   4.676
65472W        W33866  34.625  25.041  14.369
65473W        W33867  32.826  40.190   3.430
65474W        W33868   9.720   8.398   4.284
65475W        W33869  35.805  11.409   3.286
65476W        W33870  44.856  38.124   2.406
65477W        W33871  43.333  24.888   3.334
65478W        W33872  36.390  21.739   3.559
65479W        W33873   4.951   0.332  10.173
65480W        W33874  11.155  41.409   2.759
65481W        W33875  35.384   4.881   3.205
65482W        W33876  24.527  39.006   3.686
65483W        W33877   6.268  22.555   1.744
65484W        W33878   8.876  29.035   3.168
65485W        W33879  30.146  14.574  12.058
65486W        W33880   9.642  29.364  12.097
65487W        W33881  41.876  23.559   0.849
65488W        W33882  20.576   8.247  12.445
65489W        W33883   5.601  22.185  12.463
65490W        W33884  14.595  29.226   0.306
65491W        W33885   0.876  28.743  11.330
65492W        W33886  19.984  24.429   4.242
65493W        W33887  34.451   6.727   0.312
65494W        W33888   9.815   0.614  13.965
65495W        W33889  42.859  39.121  12.915
65496W        W33890  20.539   2.713   4.627
65497W        W33891  20.048   1.326  11.359
65498W        W33892  22.581  32.368   3.667
65499W        W33893   4.810  17.492   1.849
65500W        W33894  41.639  28.588  13.970
65501W        W33895  28.672  36.351   3.369
65502W        W33896   3.553   4.847   3.861
65503W        W33897  43.887  10.671  10.890
65504W        W33898  44.281   6.955  12.068
65505W        W33899  15.246   0.474  10.679
65506W        W33900  26.625   1.310  11.512
65507W        W33901  36.487   6.829  13.427
65508W        W33902  19.708  10.224  12.069
65509W        W33903  11.137  21.673  13.852
65510W        W33904  30.154  23.615  13.606
65511W        W33905   2.569  29.122   4.213
65512W        W33906  28.475  10.328  14.087
65513W        W33907  19.058   9.442  14.360
65514W        W33908  17.255  42.401  11.105
65515W        W33909  29.330  37.434  11.503
65516W        W33910  26.227  38.032   4.749
65517W        W33911  27.665  36.776  12.449
65518W        W33912  23.105   2.413  13.342
65519W        W33913  24.455  42.498  13.443
65520W        W33914  24.493  37.277   2.895
65521W        W33915   5.222  32.150  14.343
65522W        W33916  37.543  42.825  11.426
65523W        W33917  26.724   7.241   4.737
65524W        W33918  10.309  33.033  11.393
65525W        W33919  18.178   3.960   0.649
65526W        W33920   9.361  19.198   0.950
65527W        W33921  31.004  30.070   3.361
65528W        W33922   1.439  27.507  13.819
65529W        W33923  17.537  30.896  14.053
65530W        W33924  13.541  16.073   1.352
65531W        W33925  16.808   1.254  11.352
65532W        W33926  21.166   4.600   0.876
65533W        W33927   6.764  42.477  11.947
65534W        W33928   4.624  33.842   0.953
65535W        W33929   5.946   6.983  11.159
65536W        W33930  15.346  33.017  11.191
65537W        W33931   8.701  41.064   3.552
65538W        W33932  11.613  15.499   3.847
65539W        W33933  41.627  24.066   4.753
65540W        W33934   5.216  40.671   1.716
65541W        W33935  30.155  33.618  14.403
65542W        W33936  23.431   9.992  14.726
65543W        W33937  15.395  23.980  14.353
65544W        W33938  30.985   0.235   4.017
65545W        W33939   6.682  30.120  10.765
65546W        W33940  40.953  25.593  10.793
65547W        W33941   1.450   9.050  14.714
65548W        W33942   3.746  29.877   3.210
65549W        W33943  13.746  38.430  14.054
65550W        W33944  37.601  34.405  12.357
65551W        W33945  21.570  28.550  14.556
65552W        W33946  43.737   1.977  11.065
65553W        W33947   3.211  21.540   3.306
65554W        W33948  44.069  11.118   0.294
65555W        W33949  44.072  19.505   0.004
65556W        W33950  30.930   7.213  13.435
65557W        W33951   7.645   3.114  12.917
65558W        W33952  20.450  39.380  12.481
65559W        W33953   0.818   7.157   4.573
65560W        W33954   3.273  43.413   3.698
65561W        W33955  23.591  29.636  12.047
65562W        W33956  21.160  16.787  10.853
65563W        W33957   3.211  37.492   1.465
65564W        W33958  17.101  13.323  12.675
65565W        W33959  29.572  40.373   1.987
65566W        W33960  34.063  23.613  11.962
65567W        W33961   4.401  14.508   0.325
65568W        W33962  17.009  18.618  11.026
65569W        W33963  32.659  13.481  13.089
65570W        W33964   1.349   0.518  12.074
65571W        W33965  14.049   1.406  11.553
65572W        W33966  43.144  27.624   2.810
65573W        W33967   6.989  36.395   4.239
65574W        W33968  12.819  39.454   0.397
65575W        W33969  44.718  35.091   0.926
65576W        W33970  19.233  22.609  12.464
65577W        W33971   5.218   2.716  14.956
65578W        W33972   2.807   3.407  14.939
65579W        W33973  37.378  29.631   3.369
65580W        W33974   8.384  15.071  11.780
65581W        W33975  15.709  19.044   9.967
65582W        W33976   1.894  26.458   1.521
65583W        W33977   7.656  42.335  13.771
65584W        W33978  37.532  43.186  11.032
65585W        W33979  17.583  32.610   1.974
65586W        W33980   6.909  13.194  13.067
65587W        W33981  35.134  22.499   1.294
65588W        W33982  13.238   5.315  12.466
65589W        W33983   0.516  26.365  14.365
65590W        W33984  13.530  31.081  13.989
65591W        W33985  43.985  32.188  13.504
65592W        W33986  44.936  19.006  12.969
65593W        W33987  16.335  20.724  11.521
65594W        W33988  32.013   3.457   2.335
65595W        W33989   5.417  29.839   3.598
65596W        W33990   1.880  21.485  14.762
65597W        W33991   1.928  32.431   3.791
65598W        W33992  35.909  20.965  12.514
65599W        W33993  36.511  10.290   3.206
65600W        W33994  42.868  25.570  14.470
65601W        W33995  17.861  15.738  14.450
65602W        W33996  29.497  28.669  12.451
65603W        W33997  17.814  19.647   1.335
65604W        W33998  38.411  20.401   5.111
65605W        W33999  32.460  18.121   4.213
65606W        W34000  12.776  12.931   3.726
65607W        W34001  36.508  13.097   1.936
65608W        W34002  36.549  41.833   1.455
65609W        W34003  20.369   4.371  12.884
65610W        W34004  39.490  37.415  11.398
65611W        W34005  28.875   5.683  13.376
65612W        W34006  29.889  17.647   3.731
65613W        W34007  23.807  15.360  13.565
65614W        W34008  10.329  31.943  12.560
65615W        W34009   5.663  18.790  10.815
65616W        W34010  12.921  27.926  12.027
65617W        W34011  41.585   7.071   5.128
65618W        W34012  15.254  21.895   0.997
65619W        W34013  11.420  17.194   0.744
65620W        W34014  15.533  37.647   1.261
65621W        W34015  16.051  30.837  11.456
65622W        W34016  41.574  17.562   0.322
65623W        W34017  33.530   8.803  13.153
65624W        W34018   4.263  11.696   2.745
65625W        W34019  11.481  15.573   5.426
65626W        W34020   3.363  12.894  11.986
65627W        W34021  32.148   4.028   2.623
65628W        W34022  39.587   7.231   1.369
65629W        W34023  40.401  19.112  11.680
65630W        W34024  20.654  12.223   5.011
65631W        W34025  38.000  22.322   4.656
65632W        W34026  20.544  24.571  14.741
65633W        W34027   4.926  24.717   4.502
65634W        W34028  16.164  12.429  11.600
65635W        W34029  10.884  20.120  11.387
65636W        W34030  42.118   2.573  11.435
65637W        W34031  44.829  11.239  13.919
65638W        W34032   2.934  35.872  14.876
65639W        W34033  20.163  40.542   0.284
65640W        W34034  15.351  22.112   1.845
65641W        W34035  32.955  39.725  11.599
65642W        W34036   8.219  15.553  13.088
65643W        W34037   6.287   0.855   2.848
65644W        W34038  41.340  26.970  13.997
65645W        W34039  40.079  39.041   2.200
65646W        W34040  41.470  14.110   2.463
65647W        W34041  40.520  17.069  14.818
65648W        W34042  21.244  28.043   1.790
65649W        W34043  23.443  32.939   3.843
65650W        W34044  21.264  37.431   0.284
65651W        W34045  18.056  31.739   2.176
65652W        W34046  15.167  33.122  12.138
65653W        W34047  21.972  11.709   1.777
65654W        W34048  21.523  25.050  11.521
65655W        W34049  25.463   6.308   3.886
65656W        W34050  26.932  43.167   1.539
65657W        W34051  32.021  37.468   1.282
65658W        W34052   6.732  42.720  14.822
65659W        W34053  33.619   8.759  12.650
65660W        W34054  14.072  12.573  12.550
65661W        W34055  15.333   9.766   0.523
65662W        W34056   0.138  14.032   4.319
65663W        W34057   5.284   8.019  12.572
65664W        W34058  27.256   7.409  14.892
65665W        W34059  43.448  30.017  10.745
65666W        W34060  37.102  23.520  13.407
65667W        W34061   5.647  39.761  12.567
65668W        W34062   2.266  19.488  11.212
65669W        W34063  13.222  40.008  13.389
65670W        W34064   2.355  28.028  12.970
65671W        W34065  14.132  43.532   4.105
65672W        W34066  39.901  26.619  12.313
65673W        W34067  14.256  14.651  10.988
65674W        W34068   7.655   1.525   4.254
65675W        W34069  36.038  22.195  12.872
65676W        W34070   9.141  40.087  13.444
65677W        W34071   4.881  41.814   4.342
65678W        W34072  23.879  27.040  10.968
65679W        W34073  19.195  17.639  11.522
65680W        W34074  14.935  43.366  10.739
65681W        W34075   0.528  43.091   3.751
65682W        W34076  31.441  41.407  14.026
65683W        W34077  22.002  19.291  11.098
65684W        W34078  39.477  37.066   0.594
65685W        W34079  38.338  30.693  11.506
65686W        W34080  16.838  32.900   4.150
65687W        W34081  17.995  19.127  11.484
65688W        W34082  18.141  43.831  12.540
65689W        W34083  15.811   8.391   3.170
65690W        W34084  27.941   5.743  10.959
65691W        W34085   3.441  40.340  14.282
65692W        W34086  30.303   3.112  13.583
65693W        W34087  19.816  40.385  13.366
65694W        W34088  13.959  41.822  10.791
65695W        W34089  39.482  37.061   3.369
65696W        W34090  12.570  34.613   2.823
65697W        W34091  27.716  11.166  13.472
65698W        W34092  16.522  13.854   2.744
65699W        W34093  33.458  26.444  11.492
65700W        W34094  38.757  30.647  10.591
65701W        W34095  41.331  35.791   3.785
65702W        W34096  10.717  41.879  12.742
65703W        W34097  20.434  12.729  11.696
65704W        W34098   9.963  32.611  13.994
65705W        W34099  32.942  37.972  14.965
65706W        W34100  39.493  25.774  14.282
65707W        W34101  19.187  19.208   0.263
65708W        W34102  17.508   4.390   3.464
65709W        W34103   9.898  28.128   1.773
65710W        W34104  40.989   2.832  14.351
65711W        W34105  30.917   0.396   0.554
65712W        W34106  26.094  28.543  13.829
65713W        W34107   6.720  13.354   1.943
65714W        W34108  21.204  29.773   2.267
65715W        W34109  40.966  40.793  10.802
65716W        W34110  16.556  21.208   0.576
65717W        W34111  42.338   8.276   2.394
65718W        W34112  38.733  43.410   2.689
65719W        W34113  25.159   7.828   5.123
65720W        W34114   5.254  19.794   4.486
65721W        W34115  16.681  23.012  14.783
65722W        W34116  43.786   7.907   0.343
65723W        W34117  17.677   7.491   4.800
65724W        W34118  31.988  38.472   1.152
65725W        W34119  13.272  39.334  14.762
65726W        W34120   1.299  10.868  10.725
65727W        W34121  32.769  27.345   4.129
65728W        W34122  20.735   9.824  14.391
65729W        W34123  21.177  36.659  13.471
65730W        W34124  32.527   4.937  13.356
65731W        W34125  12.309  29.878  12.100
65732W        W34126  41.571  22.132  13.986
65733W        W34127   0.044  13.089   4.432
65734W        W34128  11.354  24.529   0.753
65735W        W34129  29.265  22.526   0.849
65736W        W34130   5.382  29.594   4.523
65737W        W34131   6.856  26.750   9.788
65738W        W34132   9.562  30.735  13.577
65739W        W34133  17.773  14.570   2.172
65740W        W34134  10.822   7.449   1.687
65741W        W34135  40.989  22.172   2.142
65742W        W34136   1.001  10.166  12.467
65743W        W34137  41.886  13.400   3.207
65744W        W34138  39.428  11.080   4.946
65745W        W34139  37.376  31.022  13.533
65746W        W34140  15.723  21.747  11.149
65747W        W34141  14.745  20.752   3.580
65748W        W34142  19.977  42.784   2.514
65749W        W34143  30.567  18.608  14.211
65750W        W34144  24.256  43.360   5.385
65751W        W34145  10.170  20.630   4.250
65752W        W34146  25.500  38.936   2.801
65753W        W34147  35.571  38.593  11.097
65754W        W34148  23.441   9.751  13.348
65755W        W34149   7.830  44.714   4.826
65756W        W34150  16.028  29.071  11.508
65757W        W34151   3.274  41.944   1.315
65758W        W34152  38.905  37.992   3.186
65759W        W34153  27.492  26.926  14.973
65760W        W34154  26.937  19.548   0.493
65761W        W34155  34.879   7.775   2.323
65762W        W34156  16.993  41.405  10.694
65763W        W34157   3.435  13.656  14.327
65764W        W34158  41.958  22.571  11.292
65765W        W34159  25.149  36.388   3.708
65766W        W34160  11.197  17.537   3.892
65767W        W34161  40.827  42.428  11.031
65768W        W34162  27.052   3.508   2.375
65769W        W34163   7.963  18.396  13.186
65770W        W34164  31.796  40.883  10.388
65771W        W34165   3.482  41.474   2.305
65772W        W34166   3.586   1.762  12.552
65773W        W34167  25.123   4.984  11.565
65774W        W34168  28.486   4.723   1.370
65775W        W34169  24.709  29.247   4.569
65776W        W34170  36.933  30.763  14.427
65777W        W34171  27.226  38.815  14.429
65778W        W34172  44.751  34.595  12.972
65779W        W34173  15.230  22.477   0.231
65780W        W34174  38.296   2.331  12.169
65781W        W34175  39.270   3.037   4.008
65782W        W34176  18.041  40.982   0.557
65783W        W34177  12.728  24.016   3.228
65784W        W34178   9.329  26.834   0.875
65785W        W34179  12.625  38.531  13.572
65786W        W34180  24.853   0.330   0.152
65787W        W34181  25.764  10.353  13.301
65788W        W34182  31.844  30.941   4.865
65789W        W34183  17.409  37.046   3.111
65790W        W34184  38.450  24.266   1.639
65791W        W34185   4.743  26.352   1.345
65792W        W34186  10.471   5.317   0.821
65793W        W34187   2.917  33.184   1.465
65794W        W34188  34.489  29.919  11.655
65795W        W34189  36.980  43.912  11.348
65796W        W34190  23.348   8.687   9.800
65797W        W34191  36.860  42.807  14.829
65798W        W34192  40.976   4.214   4.676
65799W        W34193   2.763  42.646   2.726
65800W        W34194  38.831  14.689   4.621
65801W        W34195  22.551  15.859   1.785
65802W        W34196   1.010  19.305   2.920
65803W        W34197  30.789  18.148  10.286
65804W        W34198  40.968  39.308  12.719
65805W        W34199  30.803   3.350   4.168
65806W        W34200  23.118  23.765   4.066
65807W        W34201  36.626  38.465   2.758
65808W        W34202   0.983  18.566   5.020
65809W        W34203  19.337  23.072  11.743
65810W        W34204  21.401  43.267  14.383
65811W        W34205  22.527  31.189  13.417
65812W        W34206   2.189  33.480  11.965
65813W        W34207  15.209  20.211   3.356
65814W        W34208  26.934  11.744   2.273
65815W        W34209  22.871  34.580  13.282
65816W        W34210  19.845  29.441  11.617
65817W        W34211   8.798  42.767   0.408
65818W        W34212  25.898  33.187   3.959
65819W        W34213  42.520  39.778  13.439
65820W        W34214  10.373  13.142  12.636
65821W        W34215  13.878  42.017  13.091
65822W        W34216   8.449   6.462  11.914
65823W        W34217  15.041  19.370  13.505
65824W        W34218  25.066   6.511   3.142
65825W        W34219  15.234   6.790  13.478
65826W        W34220  13.680  35.602  10.804
65827W        W34221  42.290  31.092   3.259
65828W        W34222  27.462  30.367  11.122
65829W        W34223  21.592  33.470  13.031
65830W        W34224  36.767   7.799  10.493
65831W        W34225  42.852  16.012   4.580
65832W        W34226  35.641   7.446   3.298
65833W        W34227  12.084  10.362   2.728
65834W        W34228  33.554   6.119  14.003
65835W        W34229  24.155  19.655  13.528
65836W        W34230   1.183  42.340  11.828
65837W        W34231  40.996  22.021  12.878
65838W        W34232  22.749  37.518  12.480
65839W        W34233  26.717   3.981  10.348
65840W        W34234  30.576  40.921  13.434
65841W        W34235  43.351   8.658  12.376
65842W        W34236  38.039  31.501   3.770
65843W        W34237  37.866  40.494  14.455
65844W        W34238  12.318  24.940  11.262
65845W        W34239   4.646   7.309   5.030
65846W        W34240  41.302  31.584   1.335
65847W        W34241  44.141  19.228   5.331
65848W        W34242  28.631  42.453  13.357
65849W        W34243  44.314  10.081   0.774
65850W        W34244   2.761   1.855   0.279
65851W        W34245   3.887  33.166  11.759
65852W        W34246  21.839  22.898   3.489
65853W        W34247  27.741  25.472  11.187
65854W        W34248  11.100  18.367  12.174
65855W        W34249  37.585  41.795  14.337
65856W        W34250  16.036  22.282   1.234
65857W        W34251   1.313  34.084   3.233
65858W        W34252  33.848  37.382  11.462
65859W        W34253  40.389   4.732  10.339
65860W        W34254  15.027  29.113  14.334
65861W        W34255   0.424  22.712  14.249
65862W        W34256  38.507  38.110  10.398
65863W        W34257  27.694   2.500  13.130
65864W        W34258   2.497  29.490   2.661
65865W        W34259  35.092  11.851  12.477
65866W        W34260  34.906  23.083  10.676
65867W        W34261  31.387   3.818   4.819
65868W        W34262  30.429  19.261  11.712
65869W        W34263  23.930  11.120   4.028
65870W        W34264  25.990  26.264   3.047
65871W        W34265  10.178   9.308   3.523
65872W        W34266  22.140  16.813  11.959
65873W        W34267  13.058  28.153   4.118
65874W        W34268   5.376  21.524  10.504
65875W        W34269  30.752  33.379  14.987
65876W        W34270  13.336  29.199  11.282
65877W        W34271  21.532  29.408   4.163
65878W        W34272   1.080  27.102  13.923
65879W        W34273  28.898   2.976   2.609
65880W        W34274  39.907   0.950   4.146
65881W        W34275   8.694  28.914  14.339
65882W        W34276   7.825   5.900   4.627
65883W        W34277  41.538  27.435   0.039
65884W        W34278  35.167   7.974   4.101
65885W        W34279  20.347  31.906  10.787
65886W        W34280  14.633  15.174   4.587
65887W        W34281  15.590  44.607  11.153
65888W        W34282  41.391  17.995  12.616
65889W        W34283  21.418  30.587  14.792
65890W        W34284  44.559  28.970  12.538
65891W        W34285  30.407  41.325   0.215
65892W        W34286   7.960  43.809  11.164
65893W        W34287  37.547  11.104  13.525
65894W        W34288  34.915  15.674  11.959
65895W        W34289  41.386  21.740   3.221
65896W        W34290  35.147  41.517  11.158
65897W        W34291  43.563  12.139   4.066
65898W        W34292  25.511  21.799  12.071
65899W        W34293  30.551  33.936  10.992
65900W        W34294   1.945   7.983   2.204
65901W        W34295  41.791  40.464   1.418
65902W        W34296  13.435   1.308  12.597
65903W        W34297  33.512  24.599  10.198
65904W        W34298  18.121  41.031  12.092
65905W        W34299   5.427  11.426   1.443
65906W        W34300  43.256   2.370  10.641
65907W        W34301  13.120   0.369  14.206
65908W        W34302   1.640   3.411   0.938
65909W        W34303   7.258   2.974  13.538
65910W        W34304  21.085  26.661  12.158
65911W        W34305  25.247  19.833  14.739
65912W        W34306  10.235  12.791   1.831
65913W        W34307  31.052  20.863  14.794
65914W        W34308  44.237  11.378  10.755
65915W        W34309  41.324   5.412   1.289
65916W        W34310  36.916  12.710  10.705
65917W        W34311  24.470  34.381  14.978
65918W        W34312  23.107  20.985  14.989
65919W        W34313   4.792  18.290  14.413
65920W        W34314  44.268   1.633  12.058
65921W        W34315   1.259  13.330  14.382
65922W        W34316  14.855  29.795   1.419
65923W        W34317  21.494   8.489   0.771
65924W        W34318  34.917  26.054  10.765
65925W        W34319  18.496  25.144  10.747
65926W        W34320  10.881  25.715  14.407
65927W        W34321  23.059  17.570   1.164
65928W        W34322  36.334  34.832  12.075
65929W        W34323   2.265  24.045   3.450
65930W        W34324  22.137  16.302  11.904
65931W        W34325  29.737  10.619   2.765
65932W        W34326  21.801   6.804  12.435
65933W        W34327  35.427   1.700  11.988
65934W        W34328  40.742  18.191   2.350
65935W        W34329  26.579  15.140   1.747
65936W        W34330  30.278   3.728   1.702
65937W        W34331  34.634   2.211  10.714
65938W        W34332  10.712  12.733   2.080
65939W        W34333  42.906  35.852   5.459
65940W        W34334  18.137  27.613  13.414
65941W        W34335  17.098  33.107   0.493
65942W        W34336   5.973  25.088  12.899
65943W        W34337  33.654   7.751   4.312
65944W        W34338  38.776  42.596  12.063
65945W        W34339   4.521  39.801  11.045
65946W        W34340  28.667  31.095   2.978
65947W        W34341  10.140  41.354  12.535
65948W        W34342  28.125  36.323  10.816
65949W        W34343  17.143   1.857  12.116
65950W        W34344  39.217  26.578  10.717
65951W        W34345   1.280  12.759  12.224
65952W        W34346  15.547   2.907   4.646
65953W        W34347   4.962  39.523  14.911
65954W        W34348  15.828   5.509   3.629
65955W        W34349  26.067  26.248   3.939
65956W        W34350  13.698  32.843  10.640
65957W        W34351  34.886   8.975   1.497
65958W        W34352  27.732  18.955   0.265
65959W        W34353  36.066   4.987   3.139
65960W        W34354  20.246   5.130  10.066
65961W        W34355  35.531  26.300   0.512
65962W        W34356  18.838   6.793  14.463
65963W        W34357  18.529  23.518  12.064
65964W        W34358  37.307  26.825   4.129
65965W        W34359  18.669  29.000   1.936
65966W        W34360   3.670  24.327  11.148
65967W        W34361   2.933  13.153  10.558
65968W        W34362  29.189   9.824   0.282
65969W        W34363  14.931  40.357   1.712
65970W        W34364   8.924  32.364   0.411
65971W        W34365  10.857  15.760   3.237
65972W        W34366   7.796  22.576  13.730
65973W        W34367  35.269   3.334  14.002
65974W        W34368  27.553  40.675   2.113
65975W        W34369   2.236  11.586  14.517
65976W        W34370  20.810   3.771   0.958
65977W        W34371  20.678  18.136   3.643
65978W        W34372  14.938  28.108  11.211
65979W        W34373  22.220  24.729  12.001
65980W        W34374  10.904  19.292   3.195
65981W        W34375  39.944  37.496   2.171
65982W        W34376   2.398  36.026  10.154
65983W        W34377   4.473  30.561  10.906
65984W        W34378  25.087  34.532  12.318
65985W        W34379  13.345  12.889   2.387
65986W        W34380  28.140  32.950  14.345
65987W        W34381  20.524  15.133  14.938
65988W        W34382  13.628  32.353  10.743
65989W        W34383  41.308  12.949  10.823
65990W        W34384  29.633  33.737   1.546
65991W        W34385  42.537  29.920  11.633
65992W        W34386  13.173  35.799   3.786
65993W        W34387  37.430  17.215  13.744
65994W        W34388  31.498  14.691   3.569
65995W        W34389  29.425  26.199   3.398
65996W        W34390  24.988  10.761  13.366
65997W        W34391  37.315   8.403  11.409
65998W        W34392   4.330  27.601  12.162
65999W        W34393  28.344  40.264  11.028
66000W        W34394  24.019  25.681  11.693
66001W        W34395  23.701  23.844   2.192
66002W        W34396  30.146  36.788  12.489
66003W        W34397   5.883  38.496  11.912
66004W        W34398   6.480  16.315   9.817
66005W        W34399  23.640   0.749   2.646
66006W        W34400  34.326  38.228  12.946
66007W        W34401  10.792  19.666  12.143
66008W        W34402  18.160  10.627  12.654
66009W        W34403  43.043  39.949  12.866
66010W        W34404  21.261  31.347  11.828
66011W        W34405  15.663  43.989  13.306
66012W        W34406   2.826  43.391  13.632
66013W        W34407  19.515  10.615   4.199
66014W        W34408  38.334  24.558   0.578
66015W        W34409   3.911  15.042  12.564
66016W        W34410  37.973  33.390  10.735
66017W        W34411  29.649  43.781  13.981
66018W        W34412  17.522  21.632  13.117
66019W        W34413  28.096  21.971  13.858
66020W        W34414   4.792  16.727  13.024
66021W        W34415  27.160  12.694  12.838
66022W        W34416   7.747  40.393   2.614
66023W        W34417  22.772  13.284   0.278
66024W        W34418  32.643  18.584  11.135
66025W        W34419  29.610  40.374  14.537
66026W        W34420  11.260  18.485   3.610
66027W        W34421  21.383  17.179   1.284
66028W        W34422  24.551  19.709  13.897
66029W        W34423  11.348  43.838   4.053
66030W        W34424  27.992  37.970  11.903
66031W        W34425  25.717  44.526  13.386
66032W        W34426  16.722   4.002  14.595
66033W        W34427  25.468  30.522   2.181
66034W        W34428   8.404  20.039   1.248
66035W        W34429   8.998  36.850  11.966
66036W        W34430   4.231  12.386  13.955
66037W        W34431  40.878  35.546   0.183
66038W        W34432  10.231  27.611  14.884
66039W        W34433  16.800   0.876  12.552
66040W        W34434   2.870  37.568  13.182
66041W        W34435  36.548  16.025  12.054
66042W        W34436  21.050  26.466  10.658
66043W        W34437  43.546   3.737   5.051
66044W        W34438  19.609  30.149  11.056
66045W        W34439  35.377  42.051  11.527
66046W        W34440  20.554  22.341  11.792
66047W        W34441  17.707   0.782   4.422
66048W        W34442  10.914  17.186   0.857
66049W        W34443  20.936  44.132  14.880
66050W        W34444  39.675  30.410   5.076
66051W        W34445  24.552   1.516  13.307
66052W        W34446  34.438  25.715  13.743
66053W        W34447  14.629  17.358  11.440
66054W        W34448   5.740   4.798  10.901
66055W        W34449  30.101  10.687  12.168
66056W        W34450   7.695  32.353  12.654
66057W        W34451  15.318  44.686   4.212
66058W        W34452   9.162  42.717  13.028
66059W        W34453   7.301  29.111  12.189
66060W        W34454  29.380   1.972   0.862
66061W        W34455   0.799   8.694   3.879
66062W        W34456   1.882  15.281   2.265
66063W        W34457  39.281   8.457   0.904
66064W        W34458  17.263  20.751  11.497
66065W        W34459  33.021   0.258  10.599
66066W        W34460  31.368   1.237  13.535
66067W        W34461  31.682   4.729  13.853
66068W        W34462  30.757  42.793   4.518
66069W        W34463  25.402  30.006   2.305
66070W        W34464  27.491  39.074  14.057
66071W        W34465  22.500  28.393  12.541
66072W        W34466  24.043  29.888  11.947
66073W        W34467  29.633  34.811   0.240
66074W        W34468  17.465  40.504  11.967
66075W        W34469   1.981  28.347  14.125
66076W        W34470  25.025  41.741   4.086
66077W        W34471  43.752  43.922   3.313
66078W        W34472  13.072   5.636   1.374
66079W        W34473  38.991   2.276  11.115
66080W        W34474  39.741  16.227  11.068
66081W        W34475  33.468  14.709   4.148
66082W        W34476  35.139  39.409   0.778
66083W        W34477  25.135  20.755  11.589
66084W        W34478   9.842  19.778  11.870
66085W        W34479  18.907  25.121  13.582
66086W        W34480  29.890   9.971  13.996
66087W        W34481  19.984  32.163   4.996
66088W        W34482  42.621  34.812  14.489
66089W        W34483   3.639  26.506  14.764
66090W        W34484  34.860  19.720  11.777
66091W        W34485  22.140  40.323   3.355
66092W        W34486  36.880  26.977  12.483
66093W        W34487  36.443  21.782   0.790
66094W        W34488  25.590  39.746   1.668
66095W        W34489   2.529  10.346  11.558
66096W        W34490  22.579  20.690   4.567
66097W        W34491  36.209  19.000   0.743
66098W        W34492  13.861   5.871   1.301
66099W        W34493  21.004   7.552   3.694
66100W        W34494  14.681  24.343   3.248
66101W        W34495  19.645  40.265  10.171
66102W        W34496  33.484  21.444   4.971
66103W        W34497  22.492  18.392  12.525
66104W        W34498   9.204  41.610   2.808
66105W        W34499  23.031  25.718   2.270
66106W        W34500   4.199  11.587  14.691
66107W        W34501  19.137  25.916  12.013
66108W        W34502   9.855  10.026   5.174
66109W        W34503  10.036  34.371   3.914
66110W        W34504  30.101  28.842   3.807
66111W        W34505  36.060  18.068   0.939
66112W        W34506  41.778  28.704   4.526
66113W        W34507  15.326  37.034  14.973
66114W        W34508   6.993  15.277  13.460
66115W        W34509  37.885  12.697   0.637
66116W        W34510  22.902  39.891   3.868
66117W        W34511  37.131  32.236  13.946
66118W        W34512  21.656  32.637   0.539
66119W        W34513   0.768  28.569   4.277
66120W        W34514  18.722   8.865  13.888
66121W        W34515   2.233  19.737   2.383
66122W        W34516  15.608  16.718   1.766
66123W        W34517  19.779  36.521   2.516
66124W        W34518  31.990   9.197  11.614
66125W        W34519  20.116  29.559  13.320
66126W        W34520  13.827  23.033  12.536
66127W        W34521  30.626   7.971   5.099
66128W        W34522  43.440  17.203  10.656
66129W        W34523  27.560  16.209   0.447
66130W        W34524  43.914  28.190  14.895
66131W        W34525  15.871  30.720  12.962
66132W        W34526   6.481  30.819   1.524
66133W        W34527  32.490  10.720   2.165
66134W        W34528   8.291   3.036   5.488
66135W        W34529  27.955  22.667   3.095
66136W        W34530  12.586  44.766   4.275
66137W        W34531  37.110  34.098  14.844
66138W        W34532  30.802  13.909   3.847
66139W        W34533  29.995  42.065  14.264
66140W        W34534  43.429   7.787   4.691
66141W        W34535   7.438  44.423  11.303
66142W        W34536  16.768   2.275   1.316
66143W        W34537   8.951  14.702   2.354
66144W        W34538  35.832  41.191  12.433
66145W        W34539  18.040  27.429  12.943
66146W        W34540  17.313  22.711  10.723
66147W        W34541  44.355  12.463   0.765
66148W        W34542   9.649  43.723  11.452
66149W        W34543  18.844   2.984   2.768
66150W        W34544  25.798  19.557  10.964
66151W        W34545   2.371  20.689  12.402
66152W        W34546  43.348  22.484  14.797
66153W        W34547   6.963  30.018  12.103
66154W        W34548  15.749  43.385  14.737
66155W        W34549  16.313  28.917   0.797
66156W        W34550  43.522  20.047  13.024
66157W        W34551  20.590  19.537  12.931
66158W        W34552  43.798  20.188  11.109
66159W        W34553   0.942  19.632  13.470
66160W        W34554  37.391  35.458   4.704
66161W        W34555   9.367  23.259  11.198
66162W        W34556  40.298  43.483  11.587
66163W        W34557  12.617  27.087  14.912
66164W        W34558   2.749  39.047  12.666
66165W        W34559   3.648  28.743  12.427
66166W        W34560  18.586  28.743  14.225
66167W        W34561  21.623  29.963   2.479
66168W        W34562  17.672  37.183  13.947
66169W        W34563  24.960  27.860   3.799
66170W        W34564  13.616  11.755   3.227
66171W        W34565   4.308  22.125   0.945
66172W        W34566  22.004   8.864   2.219
66173W        W34567  34.388  30.661  13.977
66174W        W34568  39.286  11.368   2.470
66175W        W34569  18.289  13.568   1.939
66176W        W34570  42.510  27.119  12.570
66177W        W34571   5.242  24.529  14.498
66178W        W34572  21.769  38.409  12.386
66179W        W34573  31.030  39.338   2.825
66180W        W34574  28.209  18.582  14.382
66181W        W34575  43.427  17.898   1.288
66182W        W34576  42.930  42.816  10.934
66183W        W34577   5.569  35.966  11.173
66184W        W34578   2.344  43.409   2.288
66185W        W34579  13.697   5.981  12.540
66186W        W34580  18.049  31.893  11.260
66187W        W34581  20.557  11.283   1.937
66188W        W34582  35.091  34.918   3.719
66189W        W34583  40.377   6.874   2.109
66190W        W34584  28.552  21.939   1.352
66191W        W34585  28.649   5.906  14.870
66192W        W34586  12.975  31.019  14.131
66193W        W34587  19.636  42.507  10.520
66194W        W34588  32.689  20.503  13.780
66195W        W34589  35.040  33.802  13.885
66196W        W34590  36.029  24.207  10.709
66197W        W34591  20.230  33.372   3.209
66198W        W34592   4.982  42.713   0.777
66199W        W34593  26.482  19.072  13.387
66200W        W34594  23.732   0.526   2.167
66201W        W34595  35.858   9.091   1.411
66202W        W34596   2.453  18.755  12.804
66203W        W34597   7.867  11.127   1.887
66204W        W34598  32.111  29.449   5.015
66205W        W34599  19.225  40.445  11.220
66206W        W34600  27.428  36.170  13.826
66207W        W34601   9.953   1.259  12.807
66208W        W34602   6.771  18.210   2.441
66209W        W34603  38.026   5.270  14.225
66210W        W34604   8.824  44.256  11.801
66211W        W34605  42.409  21.705  14.848
66212W        W34606  15.995  25.068   4.207
66213W        W34607   9.977  41.473   1.153
66214W        W34608   9.326  35.501  10.692
66215W        W34609   4.354  25.152  13.564
66216W        W34610  37.410  12.830  13.880
66217W        W34611   1.907  42.221  14.966
66218W        W34612   1.191   9.127   1.177
66219W        W34613  28.537  23.409   2.861
66220W        W34614  34.935   1.698   4.772
66221W        W34615  38.854  27.170   0.895
66222W        W34616   8.712  36.354  12.964
66223W        W34617   8.576  34.047   1.916
66224W        W34618  30.178  24.128   2.320
66225W        W34619  25.626  30.922  10.406
66226W        W34620   2.811  32.619   2.310
66227W        W34621  23.511  31.328  11.212
66228W        W34622  14.048  27.849   5.042
66229W        W34623  37.910  12.877   3.062
66230W        W34624   6.200  23.172   2.768
66231W        W34625  16.582  22.051   4.151
66232W        W34626  31.193   3.370  13.987
66233W        W34627  25.194  12.291  10.715
66234W        W34628  31.496   1.496  13.989
66235W        W34629   2.513  43.002   4.593
66236W        W34630   4.109  43.507  12.910
66237W        W34631  15.117  23.894   1.188
66238W        W34632  41.554   2.846  13.319
66239W        W34633  28.864  27.991  11.085
66240W        W34634   3.250  21.127   0.996
66241W        W34635  27.081  40.563   2.739
66242W        W34636  41.043  32.693   4.027
66243W        W34637  34.567  35.606  14.873
66244W        W34638  32.644   7.119   1.990
66245W        W34639  37.572  36.855   3.967
66246W        W34640  26.182  36.051  14.415
66247W        W34641   9.371  20.314  12.994
66248W        W34642   4.833  42.103   4.805
66249W        W34643  44.273  43.934   4.170
66250W        W34644  43.244  20.314  12.487
66251W        W34645  22.726  33.719  10.750
66252W        W34646  20.759   2.846  14.233
66253W        W34647  42.927  17.813   1.825
66254W        W34648   6.867  18.468   4.870
66255W        W34649  42.783  22.183   1.389
66256W        W34650  26.233   0.214   1.864
66257W        W34651  40.998  27.240  12.039
66258W        W34652  35.606  35.603   1.808
66259W        W34653  11.868  20.764   0.317
66260W        W34654  13.026  32.804  14.356
66261W        W34655  21.143   2.027   3.433
66262W        W34656  32.897  12.564  14.335
66263W        W34657  14.925  42.782   0.664
66264W        W34658  21.234   5.844   0.270
66265W        W34659  35.120  26.090   4.419
66266W        W34660  23.068  21.153   2.225
66267W        W34661  11.690  24.923  14.229
66268W        W34662   3.292  39.975  10.745
66269W        W34663  31.425  24.521  12.857
66270W        W34664   4.658   2.246  14.597
66271W        W34665   7.718  12.280   3.912
66272W        W34666  40.288  38.051  12.147
66273W        W34667  20.244  10.145   2.880
66274W        W34668  20.660   4.999   0.270
66275W        W34669  38.828   2.999   3.296
66276W        W34670  38.927  10.149  12.402
66277W        W34671  25.503   4.374  13.792
66278W        W34672  33.815  21.284  13.907
66279W        W34673  39.048  30.143   2.217
66280W        W34674  37.019  40.940  10.886
66281W        W34675  12.062  39.549   4.056
66282W        W34676  26.277  27.964   3.344
66283W        W34677  37.777  18.835  12.040
66284W        W34678  30.923  40.636  13.139
66285W        W34679  20.999  40.505   1.917
66286W        W34680  21.962  26.144   4.672
66287W        W34681  28.441  29.360   4.506
66288W        W34682  37.343  37.771   1.925
66289W        W34683  22.140  37.770  10.759
66290W        W34684  31.698  29.959   2.366
66291W        W34685  20.098  33.821   2.913
66292W        W34686  40.353  10.494  14.431
66293W        W34687  23.860  32.113   3.151
66294W        W34688  17.030  27.593  11.364
66295W        W34689  16.665   9.279   1.415
66296W        W34690  24.983  32.398   0.488
66297W        W34691  19.577  23.632  14.832
66298W        W34692  38.694  37.312  12.518
66299W        W34693   3.058  39.071  10.665
66300W        W34694   1.271  19.230  13.472
66301W        W34695  35.017  29.595   5.002
66302W        W34696  13.110   0.853  11.938
66303W        W34697  34.323  44.429   4.426
66304W        W34698  16.226  12.250   3.420
66305W        W34699  13.161  29.823  13.229
66306W        W34700   2.604  36.006   1.194
66307W        W34701  15.790  41.904   2.243
66308W        W34702  37.400  29.624  13.799
66309W        W34703  34.533  28.758  10.779
66310W        W34704  14.999  30.431  12.385
66311W        W34705  23.571  39.085  12.963
66312W        W34706  38.523   7.678   0.774
66313W        W34707  23.450  19.143  13.702
66314W        W34708  17.552  32.049  10.769
66315W        W34709  19.549  44.316  11.018
66316W        W34710  30.880  25.068   0.713
66317W        W34711  41.990  29.897  10.698
66318W        W34712  16.123   0.523  13.888
66319W        W34713  44.349  11.350  13.549
66320W        W34714  21.318  43.943   0.694
66321W        W34715  37.824  36.467   0.779
66322W        W34716  33.799  33.888  11.327
66323W        W34717   6.634  32.705  14.785
66324W        W34718  20.165  29.725  10.392
66325W        W34719  10.817   5.397   2.413
66326W        W34720   0.478  19.136   1.724
66327W        W34721  13.362  33.192  13.386
66328W        W34722   5.654   5.255  11.514
66329W        W34723  15.173  19.167   4.334
66330W        W34724   8.004   5.088   4.785
66331W        W34725   8.315  23.622   0.603
66332W        W34726  33.997  41.234   0.896
66333W        W34727  15.661  10.005   3.679
66334W        W34728  33.484  30.408  14.100
66335W        W34729  13.105  26.532   4.085
66336W        W34730  20.607  44.566   1.476
66337W        W34731   4.222   2.247   4.068
66338W        W34732  25.668  12.088   3.690
66339W        W34733  44.850   5.423  12.825
66340W        W34734  39.127   5.315  13.961
66341W        W34735  25.778   5.944   3.646
66342W        W34736  32.151  21.211   4.543
66343W        W34737  39.085   0.240  12.691
66344W        W34738   1.868  39.369  13.828
66345W        W34739  42.071  31.507   0.315
66346W        W34740   8.096   7.288  13.350
66347W        W34741  26.665  29.059  12.087
66348W        W34742   6.439  44.634   2.148
66349W        W34743  34.504  11.282   3.571
66350W        W34744  15.187  31.091  10.760
66351W        W34745  44.502  16.047  14.324
66352W        W34746  32.054   7.191  14.472
66353W        W34747   1.011   7.660   2.428
66354W        W34748   0.379  33.569   4.311
66355W        W34749  25.048  32.310   2.234
66356W        W34750   8.076  15.392   1.719
66357W        W34751  23.571  13.687  14.891
66358W        W34752  26.765  28.327   1.807
66359W        W34753  10.152  10.338  13.949
66360W        W34754  42.793  18.991   3.287
66361W        W34755  13.416  37.941   0.833
66362W        W34756   3.922  38.158  12.047
66363W        W34757  23.587  25.932   1.119
66364W        W34758  13.218   6.846  14.309
66365W        W34759  36.326  22.619   2.256
66366W        W34760  29.211  24.631   2.182
66367W        W34761  17.049  41.849  13.492
66368W        W34762   1.865  25.559  10.554
66369W        W34763  19.101  23.754  14.926
66370W        W34764  40.016  23.248   0.349
66371W        W34765  11.573  23.848   2.338
66372W        W34766  21.837  21.789  11.879
66373W        W34767  30.447  32.918   4.530
66374W        W34768  13.291  38.171   0.371
66375W        W34769  31.040  39.464   0.772
66376W        W34770   3.725  12.666   4.526
66377W        W34771   2.704  12.737   1.921
66378W        W34772  25.193   2.188   4.521
66379W        W34773   1.547  14.684   0.463
66380W        W34774   6.350  38.126  13.135
66381W        W34775   0.441  16.107  14.414
66382W        W34776   6.905   5.928   3.667
66383W        W34777   7.661  41.386   1.904
66384W        W34778  31.975  43.015  13.447
66385W        W34779  14.258  41.348   4.220
66386W        W34780  24.617  37.785  11.660
66387W        W34781  34.496  23.556   3.475
66388W        W34782  36.899  31.288  14.116
66389W        W34783   8.095  12.139   1.438
66390W        W34784  31.407  41.551  13.499
66391W        W34785  30.597   1.642   2.269
66392W        W34786   5.020  27.668   1.827
66393W        W34787  38.774  18.187  14.375
66394W        W34788  40.482  22.216  13.765
66395W        W34789  18.649  31.815  14.458
66396W        W34790  34.594   4.073   0.338
66397W        W34791  28.918  44.877  11.622
66398W        W34792   4.821  24.483   5.276
66399W        W34793   8.679  39.985   2.753
66400W        W34794  34.559   2.357   1.779
66401W        W34795  22.691  12.825  14.386
66402W        W34796  22.688  26.070  14.354
66403W        W34797  14.116  10.132   2.721
66404W        W34798  30.643  37.883   0.463
66405W        W34799  24.635  31.386   3.808
66406W        W34800  12.726  34.376  10.777
66407W        W34801  41.757  32.607  14.240
66408W        W34802  21.226  24.917   0.743
66409W        W34803  41.921   7.001  14.897
66410W        W34804  20.680  30.103   2.870
66411W        W34805  41.695   2.539   4.713
66412W        W34806  15.074   1.809  12.174
66413W        W34807  32.457  20.443  14.975
66414W        W34808   0.190  23.598   2.312
66415W        W34809  20.297  38.500   3.136
66416W        W34810  33.064  23.109   0.905
66417W        W34811   2.754  22.578   0.390
66418W        W34812  37.486  37.279   3.611
66419W        W34813   1.611  29.636   3.342
66420W        W34814  20.185  29.883   1.143
66421W        W34815  23.029   2.949   1.756
66422W        W34816  18.479  28.486   2.772
66423W        W34817  32.386  44.677  14.734
66424W        W34818  43.411  40.938   2.310
66425W        W34819  32.124  10.254   4.221
66426W        W34820   8.937  28.870   0.264
66427W        W34821  40.893  18.227   2.856
66428W        W34822  29.025  44.052   3.680
66429W        W34823  25.074  25.001   1.988
66430W        W34824  12.038  38.090   1.866
66431W        W34825  17.504  10.843   3.695
66432W        W34826  28.906  16.270  14.807
66433W        W34827  38.366  16.864  11.146
66434W        W34828  24.017   6.454   3.888
66435W        W34829  31.920  16.391  11.556
66436W        W34830  33.416  36.036  12.844
66437W        W34831  18.923  35.542  10.050
66438W        W34832  43.094  40.062   4.989
66439W        W34833  32.607  40.786  12.054
66440W        W34834  28.939   3.845  14.503
66441W        W34835  42.240  38.611   0.988
66442W        W34836  13.159  20.138   0.446
66443W        W34837   1.746  44.933  10.557
66444W        W34838   8.777  22.140  13.064
66445W        W34839  29.679  14.589  12.862
66446W        W34840  15.063  32.782   3.596
66447W        W34841  14.934  28.190  14.469
66448W        W34842  43.393  25.262  13.020
66449W        W34843   6.793  29.090  12.069
66450W        W34844  14.090  42.042  12.206
66451W        W34845  35.539  23.777   2.111
66452W        W34846  38.996  18.059  14.838
66453W        W34847  15.006  41.297   2.599
66454W        W34848  37.747  24.511  10.765
66455W        W34849  41.571  44.033  13.130
66456W        W34850  20.820   2.756   0.803
66457W        W34851  10.814   1.730  14.009
66458W        W34852  13.224  17.472   4.984
66459W        W34853   6.723   6.140   3.206
66460W        W34854  21.044  22.838  14.962
66461W        W34855  35.463  40.960   2.192
66462W        W34856  25.188   9.171   4.503
66463W        W34857  39.373  27.564  12.982
66464W        W34858  31.644  13.311   4.662
66465W        W34859  15.238  13.911  10.760
66466W        W34860  35.638  17.590   5.069
66467W        W34861  37.837  42.316  13.979
66468W        W34862  31.535  13.747   1.518
66469W        W34863  15.194  44.940  10.362
66470W        W34864  20.594  26.553   3.352
66471W        W34865   5.157  29.310  10.877
66472W        W34866   2.961  10.107   3.667
66473W        W34867   9.192   2.010  13.845
66474W        W34868  30.260  11.890  10.853
66475W        W34869  40.280  38.850   2.669
66476W        W34870  31.549  35.115   4.773
66477W        W34871  19.892   3.885  14.392
66478W        W34872  13.304  33.777  12.569
66479W        W34873  18.707   1.285   2.767
66480W        W34874   2.183  37.404  11.097
66481W        W34875  24.396  41.066   3.716
66482W        W34876  29.518  32.663  12.178
66483W        W34877  15.008  31.869   4.512
66484W        W34878  25.557   3.807   1.842
66485W        W34879  25.554  33.212  10.376
66486W        W34880   5.211   4.867  14.558
66487W        W34881  14.384  34.381   3.339
66488W        W34882  20.267  23.162  11.559
66489W        W34883   9.187  34.302  12.170
66490W        W34884  41.533   0.938   4.190
66491W        W34885  19.456  24.241  11.062
66492W        W34886  13.635  14.094   0.875
66493W        W34887  34.628  42.321  11.069
66494W        W34888  39.041  20.741  14.940
66495W        W34889  34.134  32.154  11.363
66496W        W34890   5.775  26.983   0.268
66497W        W34891  39.998  34.686   3.297
66498W        W34892  31.230   0.487   3.609
66499W        W34893  21.707  42.961  10.506
66500W        W34894  11.556   5.414   4.932
66501W        W34895  10.197   8.866  13.957
66502W        W34896  43.991  29.408   3.313
66503W        W34897  22.716  35.178  12.465
66504W        W34898  26.811  39.482   1.211
66505W        W34899  25.080  29.502  11.157
66506W        W34900  22.869  26.893   3.790
66507W        W34901  30.327  38.925  11.887
66508W        W34902  33.891   9.912   0.398
66509W        W34903  39.020  31.972  11.982
66510W        W34904  32.295   1.416  12.329
66511W        W34905  25.270   1.430  11.648
66512W        W34906  37.425  21.111   0.728
66513W        W34907  11.276  11.715   1.234
66514W        W34908   9.602   1.764   2.667
66515W        W34909  29.299   5.436   3.758
66516W        W34910  34.970  28.554   4.923
66517W        W34911  43.660  28.356   1.877
66518W        W34912  20.755  32.966   3.404
66519W        W34913   0.678  43.955  13.899
66520W        W34914  16.429  14.300   2.215
66521W        W34915  21.104   1.232   2.310
66522W        W34916   0.028  22.070  11.109
66523W        W34917  13.703  34.503  12.920
66524W        W34918  26.498  23.250   4.581
66525W        W34919  11.272  17.598  12.421
66526W        W34920  14.398   8.244   4.121
66527W        W34921  40.735  40.560   4.199
66528W        W34922  11.416  23.052  12.009
66529W        W34923  44.316  34.534   4.339
66530W        W34924  13.452   7.199   3.998
66531W        W34925   5.859  20.560  14.925
66532W        W34926  25.039  32.586   3.236
66533W        W34927  20.879   5.395   3.306
66534W        W34928   8.325  37.853  12.464
66535W        W34929   4.326  30.171   0.792
66536W        W34930  10.250  34.826   2.379
66537W        W34931  44.677  22.126   1.761
66538W        W34932  18.911  44.524   4.983
66539W        W34933   4.933  11.244  11.700
66540W        W34934  19.001  11.289  12.385
66541W        W34935  18.006  16.295   4.517
66542W        W34936  34.054  12.121  13.058
66543W        W34937  15.632  33.394   2.749
66544W        W34938   0.209  26.505   2.277
66545W        W34939  32.018  26.595   3.136
66546W        W34940  10.694  25.613  14.898
66547W        W34941  29.390   0.790  14.962
66548W        W34942  16.534  10.697   3.817
66549W        W34943  41.346  44.942  12.940
66550W        W34944  33.187  25.061  11.012
66551W        W34945  29.538   0.505  14.495
66552W        W34946  21.530  41.820  12.458
66553W        W34947  15.365  32.229  14.374
66554W        W34948  19.478   1.228   4.516
66555W        W34949  44.982   5.404  11.085
66556W        W34950  16.044  24.476   0.036
66557W        W34951  31.190  43.838   1.300
66558W        W34952  25.934   3.075   3.596
66559W        W34953  15.815   8.187   4.603
66560W        W34954  35.365  32.477  12.408
66561W        W34955  38.988   2.161  14.288
66562W        W34956  16.636  10.315   0.197
66563W        W34957  38.451  10.850  11.038
66564W        W34958  34.131   6.746   1.055
66565W        W34959  26.692   0.605   3.733
66566W        W34960   1.457  26.699   4.792
66567W        W34961  36.995  34.572   3.148
66568W        W34962  14.239  29.472  14.090
66569W        W34963  38.797  23.652   4.377
66570W        W34964  37.839  25.916   0.260
66571W        W34965  22.518  25.714   2.245
66572W        W34966  14.844  42.746   4.173
66573W        W34967  28.938  26.476   1.792
66574W        W34968   3.274  28.051  14.771
66575W        W34969  16.286  37.104  13.889
66576W        W34970  39.785  28.129  14.553
66577W        W34971  19.768  34.123   2.567
66578W        W34972  40.951   2.520  13.927
66579W        W34973  33.582  15.814   2.114
66580W        W34974  17.091  40.952   4.743
66581W        W34975  14.789  13.674   2.679
66582W        W34976  42.563   6.450  13.804
66583W        W34977  36.040  21.485   0.942
66584W        W34978   9.176  24.289   3.351
66585W        W34979  35.230  12.853   2.537
66586W        W34980  37.622  41.379  12.953
66587W        W34981   3.372  19.561  14.744
66588W        W34982   5.721   2.701  14.998
66589W        W34983   6.913  37.394   3.390
66590W        W34984  36.118  29.524   1.270
66591W        W34985  11.599   3.753  13.016
66592W        W34986  22.774  14.627   2.196
66593W        W34987  33.651  35.715  14.926
66594W        W34988  20.255   8.201  11.636
66595W        W34989  30.422  28.057  14.734
66596W        W34990  44.634  25.459  11.554
66597W        W34991  12.217  31.971   4.232
66598W        W34992  37.379  35.758  12.037
66599W        W34993  28.406  20.115   2.794
66600W        W34994  33.612  44.795  14.559
66601W        W34995  35.606  35.340   1.329
66602W        W34996   2.232  40.859   3.144
66603W        W34997  17.839  20.098  10.013
66604W        W34998  19.087  15.867  11.040
66605W        W34999  41.881  13.389  14.945
66606W        W35000  34.442  41.353   4.423
66607W        W35001  33.383  37.311   3.033
66608W        W35002  22.460  27.754  11.128
66609W        W35003   7.660   4.858  12.635
66610W        W35004   7.481  39.986  11.897
66611W        W35005   3.381  29.696   2.886
66612W        W35006  29.035  17.082  14.383
66613W        W35007  21.648  17.010  11.985
66614W        W35008   1.925  35.687  11.199
66615W        W35009  30.135  44.726   3.194
66616W        W35010  43.349  10.742   1.351
66617W        W35011  22.185  24.174  11.982
66618W        W35012  15.263   3.852  11.429
66619W        W35013  20.184   2.314  10.263
66620W        W35014  18.811   8.773   1.269
66621W        W35015  33.958  30.343  13.760
66622W        W35016  28.933   1.454   2.741
66623W        W35017  10.257  39.544  11.091
66624W        W35018  24.986  26.116  11.549
66625W        W35019  41.326   2.648   3.419
66626W        W35020  36.419  24.280  13.500
66627W        W35021  11.234  10.342  11.862
66628W        W35022  34.924  44.664  10.765
66629W        W35023  11.898  40.455  12.833
66630W        W35024  32.058  37.241   9.595
66631W        W35025  39.487  10.861  12.539
66632W        W35026  13.289  34.531   4.367
66633W        W35027  10.290  14.939   2.013
66634W        W35028  12.376  20.062  12.005
66635W        W35029   8.810  35.385   4.678
66636W        W35030  16.908  13.677  12.037
66637W        W35031  34.806   2.294  12.980
66638W        W35032  29.860   9.648  11.565
66639W        W35033  21.097   4.983  12.947
66640W        W35034  10.191  44.941   0.719
66641W        W35035   4.416  43.649  12.539
66642W        W35036  42.252  15.652   0.339
66643W        W35037  31.411  23.504   1.790
66644W        W35038  36.375  13.868   4.584
66645W        W35039  20.508  14.633  10.480
66646W        W35040   1.981  13.520   0.869
66647W        W35041  24.765  31.934   2.801
66648W        W35042   0.481  13.389   1.835
66649W        W35043  36.548  23.493   2.247
66650W        W35044   4.722  25.303   4.959
66651W        W35045  37.166  21.162  10.829
66652W        W35046  21.426   4.840   3.877
66653W        W35047  25.015   7.080   0.323
66654W        W35048  31.941   4.108   1.116
66655W        W35049  27.060  38.763   1.880
66656W        W35050  35.172   9.787   3.226
66657W        W35051  19.531   3.290   1.644
66658W        W35052   1.938  33.338   0.242
66659W        W35053  43.051  17.211   5.110
66660W        W35054   4.790   0.798  13.177
66661W        W35055   3.339  16.155   4.042
66662W        W35056   3.394  38.322  13.078
66663W        W35057   4.459   3.966  11.893
66664W        W35058  42.570  27.752  12.962
66665W        W35059  14.262  10.246  11.516
66666W        W35060   9.372   1.809   0.974
66667W        W35061  15.351  19.950   3.921
66668W        W35062  15.562  22.591   1.940
66669W        W35063   4.829   4.021  11.509
66670W        W35064  29.707  26.568   3.650
66671W        W35065  31.071  20.685   1.204
66672W        W35066   9.813   0.278   1.416
66673W        W35067  10.594  13.620   2.079
66674W        W35068  12.368  18.731   4.262
66675W        W35069   8.986  23.519   3.710
66676W        W35070  36.521  18.066   2.703
66677W        W35071   2.138  36.976  10.750
66678W        W35072   6.035   7.286   4.953
66679W        W35073  42.792   5.745   4.739
66680W        W35074   1.309  42.722  14.530
66681W        W35075  22.517   6.714   4.645
66682W        W35076  17.251   7.313   3.137
66683W        W35077  14.327   0.874  12.550
66684W        W35078  26.085  18.179  12.538
66685W        W35079   4.938  38.806  14.350
66686W        W35080  34.751  41.419   3.007
66687W        W35081   2.015  14.026  12.830
66688W        W35082  27.634  17.109   1.969
66689W        W35083  37.457  14.269  10.845
66690W        W35084   2.632   2.466   3.575
66691W        W35085   4.671   3.219  12.819
66692W        W35086  19.722  26.386   0.271
66693W        W35087  28.951   0.737   0.729
66694W        W35088  24.594  23.747  11.669
66695W        W35089  32.961  17.751  12.502
66696W        W35090  22.981   9.263   1.286
66697W        W35091  28.609  36.850  13.368
66698W        W35092  28.062  36.440   5.035
66699W        W35093  17.391  28.507  14.916
66700W        W35094  42.685  32.376  14.499
66701W        W35095   3.770  32.973  10.842
66702W        W35096   5.136   5.311  14.285
66703W        W35097  13.263  28.577  12.540
66704W        W35098  24.927  14.682   2.835
66705W        W35099  34.421  30.517   2.582
66706W        W35100  38.152   5.282   1.335
66707W        W35101  43.448  35.198   1.947
66708W        W35102  10.693  16.288   4.672
66709W        W35103  12.086  27.016   1.904
66710W        W35104  39.368  31.129  12.906
66711W        W35105  30.719  13.560   2.206
66712W        W35106   9.337  15.903  13.937
66713W        W35107  21.279  42.557  11.991
66714W        W35108   8.859   7.322   4.635
66715W        W35109  18.279  24.112  13.746
66716W        W35110  19.360  17.765  11.995
66717W        W35111  15.609  37.002   4.657
66718W        W35112  32.461  20.738   0.954
66719W        W35113   9.929  42.679  11.529
66720W        W35114  36.033  20.554  10.774
66721W        W35115   2.314  16.111  14.682
66722W        W35116  37.943  42.284   0.812
66723W        W35117  15.629  15.585  12.299
66724W        W35118  22.330   0.392   3.675
66725W        W35119   6.627   3.758  11.022
66726W        W35120  42.338  14.223  10.356
66727W        W35121  17.907  12.835  14.046
66728W        W35122  37.249   8.396  14.044
66729W        W35123  33.806  20.201  13.314
66730W        W35124  25.430  27.612  13.374
66731W        W35125  12.947  32.314   1.962
66732W        W35126  12.644  35.403  13.092
66733W        W35127  15.194  30.626   3.978
66734W        W35128  42.064  23.254   1.336
66735W        W35129  36.089  15.630   0.183
66736W        W35130  30.602  10.822   3.270
66737W        W35131  35.053  11.732  11.624
66738W        W35132  19.702  25.152   4.948
66739W        W35133  25.073  10.188  13.842
66740W        W35134   0.286  41.970   4.406
66741W        W35135  29.737   6.349  12.607
66742W        W35136  19.765  24.639   1.945
66743W        W35137  36.468  21.166  11.265
66744W        W35138   5.232  17.677  12.955
66745W        W35139   2.778  20.531  12.104
66746W        W35140  37.349  37.519   2.795
66747W        W35141  32.759  22.622   1.951
66748W        W35142  11.619  35.288  13.412
66749W        W35143  39.069  23.524  13.919
66750W        W35144  14.378  24.300  12.460
66751W        W35145  27.556  40.458  12.101
66752W        W35146  23.660  38.394   0.163
66753W        W35147  11.100  34.642  13.343
66754W        W35148  32.439   0.084  11.621
66755W        W35149  21.811  21.195  14.450
66756W        W35150  11.110  14.323   3.335
66757W        W35151   1.413  41.220  11.180
66758W        W35152  17.503  13.256  12.334
66759W        W35153   8.746  40.843  13.905
66760W        W35154  22.595  39.395   1.847
66761W        W35155   5.327  26.855   2.834
66762W        W35156  19.454  30.323  14.478
66763W        W35157  17.712   5.248   4.514
66764W        W35158  21.605  17.623   4.713
66765W        W35159  23.259  16.212   0.869
66766W        W35160  31.546  10.817   3.758
66767W        W35161  34.294  38.826  11.918
66768W        W35162  21.958   6.927  11.781
66769W        W35163  30.937   0.344  14.075
66770W        W35164  35.872  42.464  13.331
66771W        W35165  20.925  36.303  11.072
66772W        W35166  19.176  18.697   5.589
66773W        W35167  32.562   5.026  10.359
66774W        W35168   2.865   4.649   1.010
66775W        W35169  32.658  29.905   0.807
66776W        W35170  25.724  30.265   2.647
66777W        W35171  27.147   1.571   3.788
66778W        W35172  30.851  16.599   2.692
66779W        W35173  28.919  36.391   4.548
66780W        W35174  36.196  17.626  13.839
66781W        W35175  22.554  21.381  10.538
66782W        W35176  28.564  10.311  12.840
66783W        W35177  19.653  43.385   2.893
66784W        W35178   4.261  14.652  12.517
66785W        W35179  14.675  34.685   5.021
66786W        W35180  40.558  44.796  13.327
66787W        W35181  35.446  20.716   4.283
66788W        W35182  15.671  21.737  12.439
66789W        W35183  44.550  18.171   2.650
66790W        W35184  18.078   2.917   4.043
66791W        W35185   6.208   0.877  10.922
66792W        W35186  36.514   8.659  12.093
66793W        W35187  22.109  26.894  11.977
66794W        W35188   5.900  11.943  11.913
66795W        W35189   3.613  29.297   4.333
66796W        W35190  10.397  33.674  11.175
66797W        W35191  37.341   4.241  13.548
66798W        W35192  22.241  32.208   1.916
66799W        W35193   3.918  29.183   3.911
66800W        W35194  32.316  38.961  10.792
66801W        W35195  38.831  13.694   4.762
66802W        W35196   1.933   9.033  13.761
66803W        W35197  12.372   8.325  11.877
66804W        W35198  42.844  28.235  12.916
66805W        W35199  24.923  24.338  14.823
66806W        W35200  16.704   7.913   4.611
66807W        W35201  18.322  23.699   4.834
66808W        W35202  16.222  32.506   2.776
66809W        W35203   3.696   5.885   3.211
66810W        W35204  17.086  34.025   2.844
66811W        W35205  13.140  38.010   4.584
66812W        W35206  29.558  26.926   0.764
66813W        W35207  21.728   4.227  11.933
66814W        W35208  13.254  34.116  10.798
66815W        W35209  44.806  17.760  10.513
66816W        W35210  16.085  25.595  10.964
66817W        W35211  18.880   4.179  11.079
66818W        W35212  23.155   4.238  12.643
66819W        W35213   8.348  28.381  11.336
66820W        W35214  21.626  26.977   4.596
66821W        W35215   4.434  35.073  11.422
66822W        W35216  21.336   3.169   4.162
66823W        W35217  38.814  29.062   3.427
66824W        W35218  39.371  26.661  14.590
66825W        W35219  34.523  22.546  13.809
66826W        W35220  19.602   6.204  11.717
66827W        W35221  44.128   9.331  11.117
66828W        W35222  35.936  31.681   0.430
66829W        W35223  44.469  43.209  12.466
66830W        W35224  38.891  34.870  12.845
66831W        W35225  17.518  29.429   0.929
66832W        W35226  20.032  14.288  14.755
66833W        W35227  28.659  34.078  14.437
66834W        W35228  35.074   4.027  11.215
66835W        W35229   8.814  27.441   1.361
66836W        W35230   8.810  31.975  14.072
66837W        W35231  25.668   7.490   1.725
66838W        W35232  41.546  35.099   4.209
66839W        W35233  29.367   8.861  14.601
66840W        W35234   2.347  35.799  10.664
66841W        W35235   9.224   6.636   2.619
66842W        W35236  24.098   2.467   4.521
66843W        W35237  18.720  11.612   3.359
66844W        W35238  10.539  24.933  10.563
66845W        W35239  18.285  39.073   2.732
66846W        W35240  34.616  36.038  11.233
66847W        W35241   5.370  40.449   2.803
66848W        W35242  33.330  19.254   2.829
66849W        W35243  34.734  14.376  12.096
66850W        W35244  16.074   8.806  11.170
66851W        W35245  31.185  39.593   3.832
66852W        W35246  37.106  17.298   4.609
66853W        W35247  44.742  26.993  10.467
66854W        W35248   1.054  16.001  11.570
66855W        W35249   7.669  21.272  11.945
66856W        W35250  34.375  40.809  11.235
66857W        W35251  15.291  24.498  14.344
66858W        W35252  26.485  24.640  14.052
66859W        W35253  27.595  28.424   3.643
66860W        W35254   2.653   2.686  12.804
66861W        W35255   3.280  22.530   2.886
66862W        W35256  30.593  37.845  11.374
66863W        W35257  37.087  28.741  12.898
66864W        W35258  37.830  12.220  11.693
66865W        W35259   5.437  29.945   4.894
66866W        W35260  36.760  30.594  12.247
66867W        W35261  28.014  38.928  12.580
66868W        W35262   3.780  13.751   1.198
66869W        W35263  16.534  34.900  12.846
66870W        W35264  13.077  29.947  14.237
66871W        W35265  17.804   8.322  13.005
66872W        W35266   7.490  18.144   1.269
66873W        W35267  43.774   1.723  14.432
66874W        W35268  27.677  29.951  14.869
66875W        W35269   5.880  30.781  11.670
66876W        W35270  26.517  26.019   3.917
66877W        W35271   1.333  19.743   3.110
66878W        W35272  11.920  28.657  14.927
66879W        W35273  31.935  23.962  12.042
66880W        W35274  10.027  17.338  11.918
66881W        W35275  21.554   8.108  12.651
66882W        W35276  16.406  43.449   0.117
66883W        W35277  44.910   3.432   0.201
66884W        W35278  10.395  37.339   2.700
66885W        W35279   2.473   3.298  11.129
66886W        W35280  39.345  10.136   2.199
66887W        W35281  23.086  24.946  10.911
66888W        W35282  19.617   7.150  12.402
66889W        W35283  44.872   3.338   3.687
66890W        W35284  42.291  43.941   2.195
66891W        W35285  19.224   2.592   4.655
66892W        W35286  30.144  31.156   2.440
66893W        W35287  39.060  34.381  14.867
66894W        W35288  17.147  42.125   2.932
66895W        W35289  23.087  41.573  10.795
66896W        W35290  39.400  37.580   0.547
66897W        W35291  20.097   8.825  14.908
66898W        W35292   1.031   8.701   2.935
66899W        W35293   7.343  29.364   2.337
66900W        W35294   0.442  36.878   0.154
66901W        W35295  40.989   5.955   4.460
66902W        W35296   6.979  22.998   0.158
66903W        W35297  32.970  28.136   3.614
66904W        W35298  31.479  35.947  12.761
66905W        W35299  42.152   3.218   5.220
66906W        W35300   1.229  28.227   0.280
66907W        W35301  12.830   6.666   0.283
66908W        W35302  38.619  38.954   1.810
66909W        W35303  42.100  36.153  12.135
66910W        W35304  10.811  25.975  11.928
66911W        W35305  11.879  27.632   4.579
66912W        W35306  41.778  23.534  12.022
66913W        W35307   7.878  16.754   4.577
66914W        W35308  34.819   9.290   4.340
66915W        W35309  10.405  10.185   0.449
66916W        W35310  39.996  12.815   4.059
66917W        W35311   8.799   3.828  11.549
66918W        W35312  22.453  34.273  13.457
66919W        W35313  32.485  23.974  12.464
66920W        W35314  31.536  16.877   4.496
66921W        W35315  10.288  18.115  14.880
66922W        W35316  26.110  44.904  13.147
66923W        W35317  30.897  41.389   4.240
66924W        W35318  38.871  18.092  10.396
66925W        W35319  37.239   0.493  10.685
66926W        W35320  21.128   7.158   0.379
66927W        W35321   6.109  10.086  11.962
66928W        W35322  18.088  39.451   1.870
66929W        W35323  11.585  11.807   3.276
66930W        W35324  30.430  18.294   4.318
66931W        W35325  16.744   2.773   2.772
66932W        W35326  17.428   4.301   1.576
66933W        W35327  31.517  31.537   0.903
66934W        W35328  42.986   7.494  13.022
66935W        W35329  19.836   4.818  12.376
66936W        W35330  43.562  39.848  12.931
66937W        W35331   9.573  20.317   4.051
66938W        W35332  24.908  35.104   1.868
66939W        W35333  13.767   2.251   0.245
66940W        W35334  30.491  32.660   2.733
66941W        W35335   7.876  21.497  11.536
66942W        W35336   4.824   9.834   2.835
66943W        W35337  32.132  38.139   2.192
66944W        W35338  41.554   7.240  12.059
66945W        W35339  44.732  21.891   3.982
66946W        W35340  34.574  13.108  14.249
66947W        W35341   5.941  20.523  11.231
66948W        W35342  36.437  42.776  14.520
66949W        W35343   4.434   9.471   1.349
66950W        W35344  14.712   0.302  11.045
66951W        W35345  33.889  37.609   0.822
66952W        W35346  38.032  21.604  10.729
66953W        W35347   7.902   2.384   3.146
66954W        W35348  37.071  31.126   2.204
66955W        W35349  33.696  32.445   2.304
66956W        W35350  30.824   5.513   4.822
66957W        W35351  12.707  42.417  14.378
66958W        W35352  42.367   1.493  13.050
66959W        W35353  25.872  31.477  14.508
66960W        W35354  25.766  24.009   3.280
66961W        W35355  22.558   4.795  11.738
66962W        W35356   3.346  31.870  13.024
66963W        W35357  24.713  27.793  12.591
66964W        W35358  31.996  27.086   0.308
66965W        W35359   0.231  35.552   4.820
66966W        W35360  38.323   3.152  11.056
66967W        W35361  29.386   0.924  11.251
66968W        W35362  22.815  20.138   1.355
66969W        W35363  33.531  41.526   1.708
66970W        W35364  32.625  14.211   0.692
66971W        W35365  15.513   4.405  13.398
66972W        W35366   8.877  43.515  13.613
66973W        W35367  13.521  21.806  12.965
66974W        W35368  21.056  29.500   0.383
66975W        W35369   3.917   3.282   1.391
66976W        W35370  34.417  24.973   0.821
66977W        W35371  36.617   1.423   1.343
66978W        W35372  36.163  27.099   4.740
66979W        W35373  26.204  41.540   3.711
66980W        W35374  42.811   2.633   4.338
66981W        W35375  39.981   7.816   2.292
66982W        W35376   6.247  21.502   3.183
66983W        W35377  38.038  22.714  11.097
66984W        W35378  22.139  28.987   9.887
66985W        W35379  11.741  20.492  12.614
66986W        W35380  25.622  15.104   3.421
66987W        W35381  17.782  39.872   3.689
66988W        W35382  32.635  19.672  14.232
66989W        W35383   1.798  36.909  12.208
66990W        W35384  18.505  43.899   0.523
66991W        W35385  44.720   8.942  14.418
66992W        W35386   7.481  30.932  13.518
66993W        W35387  36.936  24.299   4.324
66994W        W35388  12.463  22.421   2.116
66995W        W35389   1.709  33.019   4.875
66996W        W35390  15.207  27.304  11.550
66997W        W35391  32.503  28.449   0.939
66998W        W35392  13.761   5.115   4.620
66999W        W35393  34.489  30.184  13.021
67000W        W35394  33.683   2.518  14.131
67001W        W35395  33.453  32.020   1.909
67002W        W35396  19.132  43.395  12.608
67003W        W35397  12.214   1.732  11.383
67004W        W35398  23.052  38.395  12.893
67005W        W35399  34.999   2.809   2.247
67006W        W35400  41.308  42.998  12.378
67007W        W35401  30.439   9.663   3.286
67008W        W35402  37.275  34.581   2.191
67009W        W35403   4.670  36.117   3.884
67010W        W35404  29.445  21.643  12.098
67011W        W35405  44.561   3.189   4.286
67012W        W35406  16.519   6.896   0.867
67013W        W35407  37.610  33.302   1.715
67014W        W35408   6.225  18.139   3.194
67015W        W35409  12.441  42.759   4.256
67016W        W35410  14.708  18.519  10.203
67017W        W35411  35.044   6.333   0.291
67018W        W35412  40.595  13.321   1.764
67019W        W35413  26.578  16.244   1.849
67020W        W35414   7.644  15.728   4.084
67021W        W35415  18.282  33.910  10.799
67022W        W35416  37.972  29.545   0.363
67023W        W35417  26.137  42.675   1.712
67024W        W35418   1.324  43.720  12.370
67025W        W35419   4.676  25.465   0.838
67026W        W35420  19.780   1.522   0.543
67027W        W35421  34.095  28.190  11.563
67028W        W35422  27.049  35.046   0.044
67029W        W35423  36.262  35.203  14.103
67030W        W35424  36.503   9.948  11.058
67031W        W35425  20.319  38.015   4.995
67032W        W35426   2.891  35.195  11.098
67033W        W35427  31.477  20.557  13.904
67034W        W35428  40.143  36.101   4.121
67035W        W35429  32.502  18.872  11.601
67036W        W35430  14.835   0.596  13.904
67037W        W35431  36.287   0.479   1.436
67038W        W35432   8.576  20.508  11.515
67039W        W35433  14.645  40.938   4.801
67040W        W35434  36.268  14.605   0.871
67041W        W35435  13.624  39.960  12.088
67042W        W35436  29.974   2.382  14.874
67043W        W35437  15.590  23.036  10.729
67044W        W35438  43.297  32.165   0.631
67045W        W35439   2.878  38.280  14.950
67046W        W35440   9.792  41.872  11.494
67047W        W35441  43.979  24.844   1.165
67048W        W35442  26.164  24.022  14.788
67049W        W35443  34.859  27.780  14.009
67050W        W35444  15.413  27.915   2.273
67051W        W35445  36.646   8.196   0.370
67052W        W35446  17.145  42.341  10.600
67053W        W35447  26.935  10.345   2.293
67054W        W35448  31.019  23.081  11.988
67055W        W35449   1.820  10.260  11.186
67056W        W35450  33.593  29.684   3.317
67057W        W35451   1.431  39.117  13.763
67058W        W35452  15.788  19.739   3.697
67059W        W35453  23.598  22.329  14.879
67060W        W35454  26.382  32.459   3.806
67061W        W35455  28.714  28.706   2.842
67062W        W35456   3.252  37.550   0.478
67063W        W35457   3.405  10.322   2.851
67064W        W35458  10.795  15.247  10.752
67065W        W35459  35.621   0.695   2.787
67066W        W35460  29.942   7.811   4.092
67067W        W35461  42.189  30.810   4.269
67068W        W35462   2.772   3.978   2.633
67069W        W35463  23.973  37.550   5.056
67070W        W35464   8.588   2.379  12.472
67071W        W35465  38.892  31.792   1.230
67072W        W35466  15.178  11.581  12.042
67073W        W35467  21.634  26.256  10.052
67074W        W35468  17.425  40.448   3.283
67075W        W35469  35.432  29.169   1.948
67076W        W35470  31.995   5.166  10.946
67077W        W35471  29.521  28.531   4.069
67078W        W35472  10.406  25.482  14.372
67079W        W35473   8.137  15.942  12.178
67080W        W35474  40.909  33.235   4.061
67081W        W35475  20.708  11.569  10.400
67082W        W35476  25.473  20.818  13.551
67083W        W35477   8.129  43.224   2.273
67084W        W35478   5.919  33.804  12.003
67085W        W35479  33.312  24.299   2.744
67086W        W35480  16.982  12.091   1.512
67087W        W35481  26.013  43.443   0.759
67088W        W35482  17.024   9.749  13.030
67089W        W35483  20.570  27.370  11.009
67090W        W35484  29.118  30.498   0.334
67091W        W35485   7.140  37.036  11.570
67092W        W35486  24.535  38.991  14.445
67093W        W35487   9.900  33.137  13.065
67094W        W35488  26.455  37.850   3.897
67095W        W35489  19.969  11.191   1.960
67096W        W35490  36.535  18.565  13.363
67097W        W35491  38.842   4.266   2.898
67098W        W35492   6.395   4.311   3.314
67099W        W35493  20.052   9.169  12.486
67100W        W35494   9.864   4.857   2.529
67101W        W35495  24.130  13.894  12.993
67102W        W35496  41.788  40.368  14.629
67103W        W35497  11.586   9.036   2.791
67104W        W35498   1.220  38.307  12.996
67105W        W35499  13.279  23.139   3.047
67106W        W35500  34.593  34.231   2.218
67107W        W35501   7.692   6.803  11.005
67108W        W35502  41.285  21.579  11.757
67109W        W35503  21.541   8.660   1.944
67110W        W35504  16.633   5.641   2.433
67111W        W35505  10.357   0.911   4.660
67112W        W35506  38.302   7.743   1.272
67113W        W35507  34.486  41.401  14.265
67114W        W35508   4.683  21.054   4.780
67115W        W35509   2.513  12.478  13.341
67116W        W35510  18.007   4.917   0.843
67117W        W35511  26.658  16.106   3.328
67118W        W35512  26.368  36.645  12.221
67119W        W35513  32.131  34.103   4.105
67120W        W35514   7.607  42.494   4.644
67121W        W35515  14.335  22.226   2.737
67122W        W35516  29.919  41.024  10.602
67123W        W35517   8.757  15.251  12.574
67124W        W35518  14.191  26.246   1.247
67125W        W35519  12.090  28.261  11.813
67126W        W35520  31.647  29.979  13.941
67127W        W35521  24.757   2.502   1.129
67128W        W35522  21.504  36.422   3.362
67129W        W35523  19.632  34.571   2.849
67130W        W35524  18.850  36.839   1.893
67131W        W35525   0.527  43.893  11.198
67132W        W35526  43.775  35.480  12.617
67133W        W35527  30.275  26.231  14.033
67134W        W35528  21.770  41.482   4.225
67135W        W35529  27.438  31.792  14.055
67136W        W35530  27.071   6.672   3.194
67137W        W35531  19.768  23.764   3.577
67138W        W35532   7.473  38.199   1.491
67139W        W35533  22.771  43.471  14.465
67140W        W35534  13.182   1.211   1.923
67141W        W35535  40.759  16.192  11.061
67142W        W35536  19.633   2.002   1.459
67143W        W35537   3.993  21.634   1.867
67144W        W35538  31.281  44.998  13.947
67145W        W35539  37.454  12.227   4.655
67146W        W35540  27.280  35.695  13.837
67147W        W35541  40.496   9.649   0.884
67148W        W35542  41.287   6.037   1.149
67149W        W35543  10.137  23.144   3.320
67150W        W35544   1.816   0.785   3.215
67151W        W35545  15.805  42.218   4.993
67152W        W35546  25.998  20.309  14.896
67153W        W35547  31.580   5.821   1.515
67154W        W35548  35.545  38.297  13.809
67155W        W35549   9.795  30.236   4.185
67156W        W35550  39.552  26.875   1.883
67157W        W35551  25.947  41.749  10.260
67158W        W35552  18.866  28.423  11.613
67159W        W35553  44.225  18.186   0.939
67160W        W35554  38.011  42.771   0.361
67161W        W35555   6.178  35.080   4.586
67162W        W35556  36.995  32.904   2.725
67163W        W35557  15.241  22.017  12.421
67164W        W35558  43.040  44.944   0.449
67165W        W35559   3.972  32.623  14.880
67166W        W35560  19.946  12.797  12.590
67167W        W35561  14.912  24.136  14.302
67168W        W35562  17.056  16.649   5.368
67169W        W35563  21.724  22.996   4.380
67170W        W35564  13.772  40.640   0.400
67171W        W35565  22.685  31.699  10.688
67172W        W35566  18.695  29.635   2.736
67173W        W35567   8.709  13.145  12.493
67174W        W35568   7.208  16.479  13.800
67175W        W35569   0.764  10.950  14.768
67176W        W35570   0.682   0.280  13.445
67177W        W35571  40.911  39.866   2.831
67178W        W35572   7.902  32.466   1.252
67179W        W35573  39.116  33.964  14.537
67180W        W35574   2.827  27.408   3.248
67181W        W35575  21.065  30.911   0.428
67182W        W35576  33.335  20.449  10.207
67183W        W35577  18.703  35.793  13.697
67184W        W35578  44.544  19.590  13.411
67185W        W35579  26.878  14.989   2.155
67186W        W35580  14.721   5.199   4.582
67187W        W35581  14.246   0.420   1.898
67188W        W35582   5.371  18.686   2.736
67189W        W35583  26.186   2.305   3.048
67190W        W35584  22.759  23.590   0.217
67191W        W35585   9.792  16.528   2.878
67192W        W35586  33.073   7.162   2.333
67193W        W35587   3.308  10.138   4.195
67194W        W35588  14.701   5.215  12.850
67195W        W35589  36.844   6.715  12.902
67196W        W35590  28.885  32.873   3.213
67197W        W35591  12.676  30.189  12.319
67198W        W35592   3.893  25.197  11.176
67199W        W35593  21.982   1.456   0.949
67200W        W35594  38.501  34.776   3.888
67201W        W35595  36.330   4.923   3.642
67202W        W35596   1.046  26.226  13.756
67203W        W35597  18.579   7.031   4.766
67204W        W35598  20.181  25.518   1.617
67205W        W35599   0.091  23.758   4.252
67206W        W35600  24.177  17.173   2.861
67207W        W35601  35.558  19.137   4.455
67208W        W35602  26.542  43.856  11.574
67209W        W35603  38.008   1.184  12.470
67210W        W35604  35.566  23.555  10.730
67211W        W35605  19.633  43.968   0.200
67212W        W35606  42.437  30.824  14.890
67213W        W35607  30.901  38.975  11.226
67214W        W35608  24.084  16.803  14.218
67215W        W35609  10.590  33.485   0.607
67216W        W35610  36.254   2.264   5.039
67217W        W35611  38.031  10.422   3.170
67218W        W35612  42.923   9.228   2.357
67219W        W35613   8.917  19.087  12.696
67220W        W35614  31.201  23.075  10.967
67221W        W35615  33.444   9.938  13.095
67222W        W35616  29.198  41.885   0.868
67223W        W35617  25.155  28.150   2.509
67224W        W35618   2.891   4.684  12.423
67225W        W35619   8.912  36.432  10.663
67226W        W35620  38.501   4.498   4.253
67227W        W35621  17.844  31.111   1.899
67228W        W35622  40.865  12.187   1.906
67229W        W35623  25.474  43.940  11.532
67230W        W35624  24.676  27.429  14.508
67231W        W35625  12.327  30.580   0.022
67232W        W35626  18.536  37.517   2.266
67233W        W35627  34.522  32.566   2.812
67234W        W35628  27.136  19.031  13.060
67235W        W35629  12.856  39.430  13.457
67236W        W35630  25.729   3.916   2.910
67237W        W35631   2.682   6.708   3.825
67238W        W35632   3.970  20.350   2.277
67239W        W35633  24.154   9.726   0.195
67240W        W35634  13.652  19.730   4.608
67241W        W35635  18.569  30.817   1.415
67242W        W35636   6.178  10.271   1.257
67243W        W35637  23.272  33.372   4.085
67244W        W35638  16.626   9.076   9.845
67245W        W35639  15.450  27.114   1.902
67246W        W35640  12.531  38.132   2.039
67247W        W35641  25.529  31.099   4.889
67248W        W35642  11.145  16.117   2.902
67249W        W35643   3.675   1.376  12.110
67250W        W35644   6.494   0.892  11.355
67251W        W35645  34.214  31.516  13.533
67252W        W35646  44.865  24.178  10.685
67253W        W35647  18.706  43.713   3.845
67254W        W35648  39.260  43.297  10.454
67255W        W35649  38.981  43.283  14.910
67256W        W35650   7.453  24.553   3.997
67257W        W35651  16.222  14.236  14.678
67258W        W35652  15.137  28.852   1.875
67259W        W35653  10.135  19.150  13.847
67260W        W35654   7.687  37.502  12.929
67261W        W35655  42.589  18.210   3.801
67262W        W35656   2.560  28.294  10.246
67263W        W35657  32.518  38.418   0.388
67264W        W35658  23.017  30.528   4.109
67265W        W35659  17.975  31.625   0.363
67266W        W35660  44.832  44.473   2.521
67267W        W35661  10.689  16.951  11.173
67268W        W35662   7.985  34.478  11.085
67269W        W35663  12.136   6.974   2.877
67270W        W35664  39.774  29.404  12.922
67271W        W35665  29.676  15.904   0.163
67272W        W35666  35.123  27.500  13.492
67273W        W35667  25.102  16.242   0.459
67274W        W35668   5.910  27.347   2.208
67275W        W35669   7.509   9.476   0.395
67276W        W35670  10.440  22.729  14.492
67277W        W35671   4.674   8.629   1.588
67278W        W35672  11.113  33.907   4.636
67279W        W35673  36.921   8.540   2.701
67280W        W35674  44.924   6.091  14.980
67281W        W35675  41.972  30.444  13.981
67282W        W35676  41.470   7.891   0.994
67283W        W35677  40.591   6.116  14.816
67284W        W35678  10.758  16.551   0.286
67285W        W35679  28.706  42.878   1.721
67286W        W35680  14.730  23.020  12.585
67287W        W35681  17.218   3.868  14.855
67288W        W35682  15.747  33.676   2.319
67289W        W35683  25.128   8.737   5.046
67290W        W35684   8.686  27.676   0.894
67291W        W35685  31.685  22.681   0.513
67292W        W35686  40.941  11.292   0.719
67293W        W35687  27.413  18.437   4.303
67294W        W35688  41.452  25.371   1.849
67295W        W35689  35.897   3.202  10.932
67296W        W35690   0.516  22.942  14.731
67297W        W35691   4.666   0.130   3.753
67298W        W35692  13.535  42.274  12.026
67299W        W35693  44.456  14.266  11.724
67300W        W35694  17.820   8.243  10.715
67301W        W35695  14.491  30.310  12.532
67302W        W35696   3.196   0.482  12.486
67303W        W35697  21.806  34.741   5.039
67304W        W35698  26.081  30.430  10.979
67305W        W35699   4.083  41.891   2.751
67306W        W35700  24.468  28.762  12.426
67307W        W35701  12.265  41.459  12.594
67308W        W35702   9.185   1.515  10.529
67309W        W35703   1.403  27.609   3.176
67310W        W35704  19.620  32.339   1.298
67311W        W35705   0.898  39.618   3.820
67312W        W35706  37.589  38.968   3.180
67313W        W35707  40.051  22.078   2.495
67314W        W35708  19.652  38.886   3.707
67315W        W35709  34.388  29.481  11.416
67316W        W35710  28.358   0.802   2.360
67317W        W35711   8.400   3.401  12.907
67318W        W35712   5.751  14.212  11.898
67319W        W35713  44.876   2.764  13.013
67320W        W35714  12.732  22.178   0.676
67321W        W35715   7.821  39.924   4.520
67322W        W35716  18.569  38.486  11.177
67323W        W35717  29.557  39.459   4.797
67324W        W35718  35.838  13.807   4.623
67325W        W35719  17.484  40.046  14.756
67326W        W35720  44.325  32.523  10.662
67327W        W35721   0.244  23.052  11.145
67328W        W35722  17.801  12.905   3.585
67329W        W35723   9.759  35.970   3.868
67330W        W35724  10.545  34.182  14.313
67331W        W35725   8.389  42.105   0.769
67332W        W35726   7.272  36.614  12.594
67333W        W35727   2.014  23.334   4.387
67334W        W35728  29.495  20.506  13.396
67335W        W35729  33.930  30.728   4.283
67336W        W35730   9.429  41.684   5.049
67337W        W35731  20.354   9.450   1.920
67338W        W35732  31.624  10.107  11.408
67339W        W35733  43.584   2.872  14.268
67340W        W35734  18.677  17.081  11.011
67341W        W35735   3.938  36.885   3.743
67342W        W35736  38.600  24.710   3.286
67343W        W35737  31.069   4.186  13.415
67344W        W35738  23.291  38.067  13.706
67345W        W35739  32.298  25.674  14.876
67346W        W35740  32.415  28.150   3.683
67347W        W35741  43.578  44.793  13.328
67348W        W35742  36.006  42.524   3.004
67349W        W35743  33.399  30.487  11.762
67350W        W35744  15.811  22.742   2.842
67351W        W35745  11.307  29.465   3.739
67352W        W35746  33.610  10.855  14.768
67353W        W35747   4.762  31.103  12.158
67354W        W35748  26.230  29.156   3.684
67355W        W35749  40.685  39.558   5.714
67356W        W35750  24.548   8.897  12.145
67357W        W35751  12.677   9.203  11.185
67358W        W35752  12.914  32.531  13.412
67359W        W35753  20.862  26.160   4.074
67360W        W35754  20.831  32.856   4.432
67361W        W35755  29.114   8.592   3.153
67362W        W35756  28.022  26.959   0.154
67363W        W35757  18.668  17.508   4.175
67364W        W35758  34.842  44.396  11.628
67365W        W35759  17.243   6.082  13.838
67366W        W35760  27.144  18.450  12.944
67367W        W35761  16.804   0.035  12.717
67368W        W35762  44.314  23.945  12.375
67369W        W35763   5.990  24.024   3.722
67370W        W35764   0.843  15.789  13.092
67371W        W35765  32.635  24.516   3.681
67372W        W35766  20.752   1.237  14.942
67373W        W35767  16.939  43.283   2.095
67374W        W35768  23.241  21.541  11.564
67375W        W35769  17.857  43.454  14.951
67376W        W35770   4.374  31.139   3.313
67377W        W35771  41.924  21.748   1.381
67378W        W35772  40.678  20.175   0.385
67379W        W35773  36.412  11.305   1.777
67380W        W35774  24.261   4.451   3.760
67381W        W35775   1.948  14.393   1.786
67382W        W35776   7.748  32.147  11.478
67383W        W35777   2.670  42.952   0.437
67384W        W35778  37.446  38.315  11.162
67385W        W35779   1.379   0.889  12.423
67386W        W35780  19.796   6.231   0.735
67387W        W35781  11.972  25.171   1.870
67388W        W35782  25.704  32.954   4.860
67389W        W35783  23.256  39.253   0.790
67390W        W35784   6.671  38.453   1.768
67391W        W35785   2.461   7.265  13.581
67392W        W35786  24.085  42.677   2.602
67393W        W35787  26.084   2.545  14.792
67394W        W35788  42.980   8.943   4.189
67395W        W35789  19.265  28.440   3.460
67396W        W35790  19.152  24.005   0.370
67397W        W35791   6.384  19.749  14.378
67398W        W35792  24.640  14.020  12.056
67399W        W35793  27.013  25.951  14.222
67400W        W35794   2.593  23.634  11.401
67401W        W35795  19.026  21.223   4.546
67402W        W35796  17.040   1.241  10.342
67403W        W35797  34.520   1.490   2.124
67404W        W35798   4.797  32.235   0.408
67405W        W35799  43.521  35.811   4.052
67406W        W35800   3.275  11.599   0.726
67407W        W35801  37.116  40.017  10.430
67408W        W35802  44.776   9.239  12.069
67409W        W35803  29.601  18.006   0.951
67410W        W35804  23.971  24.968   5.198
67411W        W35805  33.116  26.018   2.442
67412W        W35806   9.815  12.924   4.649
67413W        W35807  37.085  18.490  14.166
67414W        W35808  42.444  28.399  14.543
67415W        W35809  35.900  42.316  10.715
67416W        W35810  39.474  31.351  14.950
67417W        W35811  22.698  33.634   2.658
67418W        W35812   2.337  39.053  13.634
67419W        W35813  27.135  12.370  13.816
67420W        W35814  21.600  19.365  12.403
67421W        W35815   2.220  10.680  14.935
67422W        W35816  38.503  41.817   0.198
67423W        W35817  11.586  23.633  13.175
67424W        W35818  14.382  18.465   0.483
67425W        W35819  44.210  34.596  12.594
67426W        W35820   3.293   4.136   1.373
67427W        W35821  14.292  43.402   0.693
67428W        W35822  34.451  15.730   2.589
67429W        W35823  24.508  12.684   3.507
67430W        W35824  39.088  13.879  10.671
67431W        W35825  39.436  19.042  12.480
67432W        W35826  20.184  17.555  12.318
67433W        W35827  12.409  34.591  11.237
67434W        W35828   5.449  39.287  11.962
67435W        W35829   2.087   0.959   0.910
67436W        W35830  13.183   4.357   0.965
67437W        W35831  13.759  44.362  12.162
67438W        W35832   8.725  20.957   4.118
67439W        W35833  28.913  44.392   0.387
67440W        W35834  38.815   7.805   1.456
67441W        W35835   3.747  20.271   0.394
67442W        W35836  25.487  16.096   1.407
67443W        W35837   8.877  40.104  11.249
67444W        W35838   2.877  25.413   4.534
67445W        W35839  40.941  42.595   4.243
67446W        W35840  31.845  32.298   0.475
67447W        W35841   0.855  37.366  11.562
67448W        W35842  39.524  41.047   4.155
67449W        W35843  13.413  14.645   2.412
67450W        W35844  27.495  21.998  12.939
67451W        W35845  14.099  36.631  11.659
67452W        W35846  43.924  27.046   0.903
67453W        W35847  39.277   5.410  11.988
67454W        W35848   5.708  38.117  11.559
67455W        W35849  28.932   3.335   3.366
67456W        W35850   3.273  23.477   2.638
67457W        W35851   6.551  14.125   4.444
67458W        W35852  40.879  12.723  11.559
67459W        W35853  36.454  24.901   3.062
67460W        W35854  33.661   2.540   2.260
67461W        W35855  29.478  22.777   3.640
67462W        W35856  19.044  35.010  13.075
67463W        W35857  39.989  38.569  13.815
67464W        W35858   3.339  41.269   2.764
67465W        W35859  43.488  42.980   0.313
67466W        W35860  40.800  42.943   3.902
67467W        W35861  34.433  22.006  13.783
67468W        W35862  23.644   2.386  13.365
67469W        W35863  19.569   8.837  14.914
67470W        W35864  10.130   4.997  11.943
67471W        W35865  29.398  32.057  14.442
67472W        W35866  26.845  16.176   3.870
67473W        W35867  42.429  25.775   1.799
67474W        W35868   9.421  38.009  13.975
67475W        W35869   0.624  15.160  14.553
67476W        W35870  43.524   8.420  11.947
67477W        W35871   9.373   6.239  13.469
67478W        W35872  24.262  10.828  13.863
67479W        W35873  38.035   6.694   3.402
67480W        W35874  37.845  16.264   3.963
67481W        W35875  15.752   2.956  13.693
67482W        W35876   2.068  12.244   2.257
67483W        W35877  41.536   2.966   2.480
67484W        W35878  23.566  13.657   0.886
67485W        W35879  30.737  44.899   0.426
67486W        W35880   3.246  32.287  12.182
67487W        W35881   0.051   3.022   2.938
67488W        W35882  35.125   2.514  14.905
67489W        W35883  15.887  24.139   5.020
67490W        W35884  14.638  37.318  14.108
67491W        W35885  14.801  40.080   4.131
67492W        W35886   2.690   7.283   5.015
67493W        W35887  44.683  32.059   0.948
67494W        W35888  22.962  35.323   0.466
67495W        W35889   7.943  13.849  11.813
67496W        W35890  33.312  26.204   1.379
67497W        W35891  18.618  10.949   2.323
67498W        W35892  36.195  32.254   4.228
67499W        W35893  34.530  33.018  14.461
67500W        W35894  22.589  42.024  13.932
67501W        W35895   7.840   3.274   3.651
67502W        W35896  35.165  16.380  14.773
67503W        W35897   0.903  35.340  13.359
67504W        W35898   2.030  36.290  14.797
67505W        W35899  29.963   2.697  11.049
67506W        W35900  15.832  10.451   1.702
67507W        W35901  31.633   3.178  13.716
67508W        W35902  38.481  40.616  12.913
67509W        W35903  20.015  13.681   2.745
67510W        W35904   6.504  29.351   1.367
67511W        W35905  17.144   6.967  14.400
67512W        W35906  38.171   3.216   4.719
67513W        W35907  21.209   9.489   3.215
67514W        W35908  35.168  24.062  12.301
67515W        W35909   2.402  11.082  13.562
67516W        W35910  43.960   4.836  10.359
67517W        W35911  13.317  35.024  13.293
67518W        W35912   6.237  39.411  11.917
67519W        W35913  13.810  12.318  13.359
67520W        W35914   7.160   6.451  11.979
67521W        W35915  30.406  11.457  11.108
67522W        W35916  25.739  41.814   3.686
67523W        W35917   6.138  22.640   2.644
67524W        W35918  24.088  15.689  14.610
67525W        W35919  24.131  39.288   0.809
67526W        W35920  34.656   0.392   3.625
67527W        W35921  43.486  11.504  11.685
67528W        W35922   8.875  31.963  14.614
67529W        W35923  15.466   6.831   3.288
67530W        W35924  32.603  44.224  14.908
67531W        W35925  25.610  13.081   2.589
67532W        W35926  15.198  22.242  12.908
67533W        W35927  23.778  36.516  12.901
67534W        W35928  26.428  14.627   0.796
67535W        W35929  41.027  16.150   2.830
67536W        W35930   8.155  43.871   4.595
67537W        W35931  36.514   2.291  11.648
67538W        W35932   1.436  34.169   0.061
67539W        W35933  14.856   3.278  13.269
67540W        W35934  40.362  29.878  14.959
67541W        W35935  24.539  42.742  10.226
67542W        W35936   6.415  19.781  11.001
67543W        W35937   2.246   4.356   0.438
67544W        W35938   4.238  28.076  11.675
67545W        W35939  41.098  23.936  12.678
67546W        W35940   2.673  15.282  12.913
67547W        W35941   3.887  34.535  10.703
67548W        W35942  29.331  10.187  13.430
67549W        W35943  26.715  30.331   0.928
67550W        W35944   6.896  10.611  12.661
67551W        W35945  25.396   2.450   1.849
67552W        W35946  32.406  38.933   0.398
67553W        W35947  23.776   8.634  12.796
67554W        W35948  38.338   5.667  14.754
67555W        W35949  27.523  23.248  14.784
67556W        W35950  25.211   5.050   0.221
67557W        W35951  32.686  41.390  11.280
67558W        W35952  44.162   4.571   1.794
67559W        W35953  14.504  10.749  11.528
67560W        W35954   0.715  16.510  13.423
67561W        W35955  19.427  17.103  13.813
67562W        W35956   2.812  31.600  11.177
67563W        W35957  37.410  28.961   0.657
67564W        W35958  17.287  23.166   2.241
67565W        W35959   6.211   1.305  11.537
67566W        W35960  38.108   7.915  10.618
67567W        W35961  32.112  30.483  14.475
67568W        W35962   7.205  26.534   4.580
67569W        W35963  25.055  31.731  13.018
67570W        W35964  38.795  10.720   1.798
67571W        W35965  41.384  15.315  10.558
67572W        W35966  15.055  35.321   1.470
67573W        W35967   4.898  21.176  11.118
67574W        W35968  35.588  31.671  11.031
67575W        W35969  37.505  12.730   3.369
67576W        W35970  22.509  26.395   1.170
67577W        W35971   1.690   9.548  14.440
67578W        W35972  20.083  21.673  14.081
67579W        W35973  41.959  10.897  13.472
67580W        W35974  34.429   0.926   1.992
67581W        W35975  31.264  21.000  11.959
67582W        W35976  16.061  11.050   1.230
67583W        W35977   9.482  30.585   2.314
67584W        W35978   6.392  38.921  14.043
67585W        W35979  37.509   3.897  14.841
67586W        W35980  27.965  35.070  14.433
67587W        W35981  35.087   3.520  11.204
67588W        W35982  11.657   8.479   5.067
67589W        W35983  31.378  28.487  11.151
67590W        W35984   1.164  32.152  12.521
67591W        W35985  20.174  15.631  13.842
67592W        W35986  22.638  28.587   0.378
67593W        W35987  34.895   8.681   5.144
67594W        W35988  32.946   7.652   3.127
67595W        W35989  11.904   4.239  11.171
67596W        W35990  43.364  29.993   4.323
67597W        W35991  27.671  23.170   0.447
67598W        W35992  42.808   7.610   4.135
67599W        W35993  36.519   6.834  14.263
67600W        W35994   4.925  38.628  12.974
67601W        W35995  42.592  13.846   4.532
67602W        W35996   5.499  13.092  12.475
67603W        W35997  34.888  22.618   3.067
67604W        W35998   2.151   2.711   2.377
67605W        W35999  27.202   0.507   3.711
67606W        W36000   0.873   7.345   3.587
67607W        W36001  35.700  38.319   0.303
67608W        W36002  40.833   7.355  14.954
67609W        W36003  10.896  13.549   1.568
67610W        W36004  22.334  29.762  14.810
67611W        W36005  23.765   0.349   0.388
67612W        W36006  29.407  44.582  14.383
67613W        W36007  29.925  17.791   1.794
67614W        W36008  18.433  19.626   0.674
67615W        W36009  16.072  21.563   3.278
67616W        W36010  28.051   5.861   3.276
67617W        W36011   9.118  29.126  14.605
67618W        W36012   3.068  35.139  11.865
67619W        W36013   3.679  13.820  14.741
67620W        W36014  22.668  18.811  12.281
67621W        W36015   9.670  13.844   3.144
67622W        W36016  26.657  20.299  13.066
67623W        W36017  38.543  19.160   3.178
67624W        W36018  19.200  41.187   0.307
67625W        W36019   2.289   3.739  14.425
67626W        W36020  34.483   6.959   0.769
67627W        W36021  13.022   9.102   2.744
67628W        W36022   6.907  38.852   4.769
67629W        W36023   0.412  43.221   3.246
67630W        W36024  10.291  23.591  10.652
67631W        W36025  19.161  24.010  12.989
67632W        W36026  14.562  42.043  13.601
67633W        W36027  33.631  23.992   3.134
67634W        W36028  10.980   2.322  13.962
67635W        W36029  29.644  43.271  14.080
67636W        W36030   1.929  37.540  11.547
67637W        W36031  40.120  33.872   1.445
67638W        W36032   7.809  26.215   3.472
67639W        W36033  23.395  25.726   3.120
67640W        W36034  27.882  12.289   2.534
67641W        W36035  38.996  14.076  14.903
67642W        W36036  19.096  27.963   2.141
67643W        W36037  34.873  25.040   0.229
67644W        W36038  10.740  40.796  11.102
67645W        W36039  16.522   0.304  11.099
67646W        W36040   7.142  38.870   4.198
67647W        W36041  27.452   4.791  12.018
67648W        W36042  33.819  32.896   0.756
67649W        W36043   7.322  31.093   0.485
67650W        W36044   6.937   7.300  14.068
67651W        W36045  34.395   7.796  14.467
67652W        W36046   1.705  37.192   4.575
67653W        W36047  15.845  22.196   1.696
67654W        W36048  22.182  42.766  10.396
67655W        W36049  34.391  12.244  12.680
67656W        W36050  44.560  44.279   0.324
67657W        W36051  19.175  15.338  11.141
67658W        W36052   1.310  14.368  11.878
67659W        W36053  35.482   9.682  11.170
67660W        W36054  23.110   0.309  14.071
67661W        W36055  34.907   8.566   0.469
67662W        W36056  41.798  20.315  14.349
67663W        W36057  35.631  26.094   4.357
67664W        W36058  28.495  34.018  13.595
67665W        W36059  30.181   1.462   1.490
67666W        W36060  29.107  24.953  11.431
67667W        W36061  32.431  13.330  13.544
67668W        W36062   0.892  24.700  10.599
67669W        W36063   6.654   5.351  10.289
67670W        W36064  36.982  10.463  13.953
67671W        W36065  18.768  29.155  13.034
67672W        W36066  43.099   3.334  12.115
67673W        W36067  37.393  13.615  14.433
67674W        W36068  44.731  12.926   4.074
67675W        W36069  32.968  25.437  10.750
67676W        W36070   2.736  31.614  13.773
67677W        W36071   2.698   3.200  12.893
67678W        W36072  31.570   5.784   3.282
67679W        W36073  14.679  40.896   2.648
67680W        W36074  14.332  13.286   2.205
67681W        W36075  26.575  21.842  10.260
67682W        W36076  39.848   3.853   2.154
67683W        W36077  22.994  34.616  11.022
67684W        W36078   7.258  19.104  12.797
67685W        W36079  26.221  23.614   3.031
67686W        W36080  17.278   2.268  13.226
67687W        W36081   7.813  25.981  13.975
67688W        W36082  28.482  16.697   2.037
67689W        W36083  22.205  18.664   0.827
67690W        W36084  38.401   4.851   3.329
67691W        W36085  36.849  37.386  11.547
67692W        W36086  40.419  22.771  12.540
67693W        W36087   6.565  11.469   0.398
67694W        W36088   1.508   5.533   3.643
67695W        W36089  35.441  33.947   3.717
67696W        W36090  14.520  43.113   3.242
67697W        W36091  26.003  19.343   4.532
67698W        W36092  25.563  20.021   5.053
67699W        W36093  16.623  21.965  12.325
67700W        W36094  25.532  21.542   2.384
67701W        W36095  17.183  34.565  14.943
67702W        W36096  41.434  40.463  10.749
67703W        W36097   3.336  33.107  12.546
67704W        W36098  18.084   9.288  14.387
67705W        W36099   0.386   7.438   4.675
67706W        W36100  28.970   5.668   1.415
67707W        W36101  35.638   9.977  14.867
67708W        W36102   1.035  27.876  14.925
67709W        W36103   5.912  13.055   4.130
67710W        W36104  17.507  37.561   1.553
67711W        W36105  12.819  22.491   4.363
67712W        W36106  25.557  16.715   0.236
67713W        W36107  20.026  27.671  14.362
67714W        W36108   4.001  33.913   4.576
67715W        W36109   9.768   0.283   2.872
67716W        W36110  28.470   2.509  11.163
67717W        W36111  28.120  31.243   1.160
67718W        W36112  39.405  18.783  13.985
67719W        W36113  34.993  29.015  10.771
67720W        W36114  11.727  30.824  14.723
67721W        W36115  43.760  32.122   4.524
67722W        W36116  32.758  22.985  12.113
67723W        W36117   7.704  13.138   3.618
67724W        W36118  19.583   4.003  13.135
67725W        W36119  22.583  25.607  13.019
67726W        W36120  22.547  18.215   0.672
67727W        W36121  27.581   0.851   5.031
67728W        W36122   7.917  34.758  12.488
67729W        W36123  41.991  35.641  12.132
67730W        W36124  15.779   9.563   4.572
67731W        W36125  36.271  41.462  12.314
67732W        W36126  41.471  20.686   2.593
67733W        W36127  20.876  22.003  10.585
67734W        W36128   5.133   0.291   4.616
67735W        W36129  42.984   1.367   3.818
67736W        W36130  36.984   6.874   0.710
67737W        W36131   7.955   7.462  14.250
67738W        W36132  34.357   1.009  12.454
67739W        W36133  11.918  18.574  10.257
67740W        W36134  14.037  26.557  11.484
67741W        W36135  35.817  27.156   1.051
67742W        W36136  21.294  25.012   2.268
67743W        W36137  23.662  39.268  11.392
67744W        W36138   0.482  36.448  14.830
67745W        W36139   5.301  22.042  10.588
67746W        W36140   6.919  26.667   2.280
67747W        W36141   0.209   7.478  11.421
67748W        W36142  27.702  40.367  13.829
67749W        W36143   1.316  20.732   2.443
67750W        W36144  20.796  43.273   2.297
67751W        W36145  39.351  19.832   4.277
67752W        W36146  20.097  24.680  10.089
67753W        W36147  39.014  31.906   0.243
67754W        W36148  41.922  21.388   4.051
67755W        W36149  38.750  39.177   5.007
67756W        W36150  20.699   8.388  11.505
67757W        W36151  35.612  11.094  12.969
67758W        W36152  31.087  19.268   4.633
67759W        W36153   0.150  44.460   3.388
67760W        W36154   1.098   3.850   0.883
67761W        W36155  11.835  26.980   3.799
67762W        W36156  15.108  26.474   2.656
67763W        W36157   9.115  27.840   0.068
67764W        W36158  18.121   5.807  12.760
67765W        W36159  36.072   4.443   3.294
67766W        W36160  31.844  34.582   4.140
67767W        W36161  44.997  16.294   3.676
67768W        W36162  16.813  36.726  12.894
67769W        W36163  28.901  25.961   1.675
67770W        W36164  32.339  26.684  10.958
67771W        W36165   2.459  19.230   0.721
67772W        W36166  24.994  19.272   2.387
67773W        W36167   0.231  40.685  10.355
67774W        W36168  12.680   1.967   3.365
67775W        W36169   5.414  32.390   2.567
67776W        W36170  13.403  29.248   3.157
67777W        W36171  15.326  18.384  13.297
67778W        W36172  27.727  39.025   2.405
67779W        W36173  24.018  40.896  13.900
67780W        W36174  40.285  19.688   4.603
67781W        W36175  15.654  39.115  14.431
67782W        W36176  22.504  35.922   1.485
67783W        W36177   1.180  20.945  14.078
67784W        W36178  26.975  20.104   4.005
67785W        W36179   7.218  21.893   4.980
67786W        W36180  26.925  42.643  11.157
67787W        W36181   5.292  36.806   1.760
67788W        W36182  11.893  38.019  11.031
67789W        W36183  18.091  33.548   4.531
67790W        W36184  22.289  17.089   3.215
67791W        W36185   6.746  41.050  12.105
67792W        W36186   4.230  23.953  14.495
67793W        W36187  18.183  29.636  13.330
67794W        W36188  33.149  31.537   0.812
67795W        W36189   2.219  22.534   4.592
67796W        W36190  17.787  33.973  10.977
67797W        W36191  43.345  13.766  10.507
67798W        W36192  41.541  17.089  13.988
67799W        W36193  39.996  31.027  14.596
67800W        W36194  30.392  31.359   3.762
67801W        W36195   5.845  31.464   4.555
67802W        W36196  17.977  39.683  13.322
67803W        W36197  22.728   4.267  11.907
67804W        W36198  44.844   8.846  11.556
67805W        W36199  10.998  28.213  14.477
67806W        W36200   5.934  14.630  12.145
67807W        W36201   9.770  30.360   1.890
67808W        W36202  34.161  28.981  13.079
67809W        W36203  20.123   0.048   1.338
67810W        W36204   9.728   4.254  13.871
67811W        W36205  19.177  12.103   2.179
67812W        W36206  44.174  20.264   0.007
67813W        W36207  28.096  42.274   0.246
67814W        W36208   4.485  29.700  10.626
67815W        W36209  18.065  36.834   1.189
67816W        W36210  42.546  10.861   2.724
67817W        W36211   2.300  40.502  13.082
67818W        W36212  12.195  37.317  13.932
67819W        W36213  11.677  26.094  11.370
67820W        W36214   1.317  15.677  12.950
67821W        W36215   6.007  43.490  13.803
67822W        W36216  42.055   6.280  12.949
67823W        W36217  17.130  36.562  14.296
67824W        W36218   4.295  27.108  13.012
67825W        W36219  39.976  17.048   4.169
67826W        W36220  22.546  19.137   1.772
67827W        W36221  36.374  43.528  10.950
67828W        W36222  16.889  28.087  14.965
67829W        W36223   8.226  36.568   1.792
67830W        W36224  28.019  12.275  14.851
67831W        W36225   2.155  32.533   2.885
67832W        W36226  13.450  14.843   4.132
67833W        W36227  16.712  40.197   0.781
67834W        W36228   0.961  25.737  13.503
67835W        W36229  41.416   3.713   0.288
67836W        W36230  21.644  30.942  11.070
67837W        W36231  13.672  14.429  14.696
67838W        W36232  12.270  14.188  13.990
67839W        W36233  25.190  28.084   5.226
67840W        W36234   7.144  21.078  12.897
67841W        W36235  33.125  20.564  10.676
67842W        W36236  33.375  39.542   2.239
67843W        W36237  29.287  42.103   0.337
67844W        W36238   6.608  19.798   3.470
67845W        W36239  11.926  30.699   1.403
67846W        W36240   6.369  41.562   4.652
67847W        W36241   8.254  27.929   2.327
67848W        W36242  42.737  21.283  13.836
67849W        W36243  19.519  20.046   2.795
67850W        W36244   6.631  36.468  12.015
67851W        W36245  22.701  33.285   2.263
67852W        W36246  20.990  26.091  14.973
67853W        W36247  40.636  40.956  11.163
67854W        W36248   2.525  41.865   4.804
67855W        W36249  28.777  20.722   2.842
67856W        W36250  11.265  17.618  10.382
67857W        W36251  31.796  11.253  11.269
67858W        W36252  21.114  20.658  14.475
67859W        W36253   4.364  36.473   3.173
67860W        W36254  32.519   7.427  12.432
67861W        W36255  26.693  26.043   1.981
67862W        W36256  15.812  31.625   0.978
67863W        W36257  18.140   0.222  12.784
67864W        W36258   8.271  39.629   1.064
67865W        W36259   5.746  39.517  13.954
67866W        W36260   2.669  30.611   1.358
67867W        W36261  29.426  37.265   2.953
67868W        W36262  33.926  13.537   0.936
67869W        W36263   4.807  43.138   4.567
67870W        W36264   3.718  21.376  11.582
67871W        W36265  25.287   7.119  13.730
67872W        W36266  30.912   9.742   0.990
67873W        W36267  20.264  19.622   0.844
67874W        W36268  39.489  12.749   2.208
67875W        W36269   1.264  30.696   1.174
67876W        W36270  18.750   4.595   1.161
67877W        W36271   6.641   5.953   1.085
67878W        W36272  32.692  38.899   1.429
67879W        W36273   7.871  11.552   2.216
67880W        W36274   5.633  12.633   4.155
67881W        W36275  39.742  29.624  10.430
67882W        W36276  27.782  30.812   3.156
67883W        W36277  18.274   4.831  13.304
67884W        W36278  40.981  16.221  12.859
67885W        W36279  26.609  31.681  13.896
67886W        W36280   4.893   8.408   4.637
67887W        W36281  32.605  41.797  13.493
67888W        W36282   8.663  34.601   0.774
67889W        W36283   2.477  34.079  10.394
67890W        W36284   3.391  22.072   2.647
67891W        W36285   1.038  33.979  12.631
67892W        W36286  30.864   9.478   1.500
67893W        W36287   8.132   1.751   2.232
67894W        W36288   9.323   3.448  14.012
67895W        W36289  13.629  20.195   2.636
67896W        W36290  25.401  29.109  14.326
67897W        W36291   5.646  38.380   3.724
67898W        W36292   2.627  43.731  12.872
67899W        W36293  12.838  36.893   3.108
67900W        W36294  16.646  36.572  12.161
67901W        W36295  14.617   1.807  12.644
67902W        W36296   1.699  30.615   1.441
67903W        W36297  39.736  15.278  11.469
67904W        W36298  41.525   0.922   1.189
67905W        W36299  42.857  24.095   1.413
67906W        W36300   1.291  25.027  10.632
67907W        W36301  27.950  29.674   2.249
67908W        W36302  19.756  29.359   3.606
67909W        W36303   5.381  12.754   3.704
67910W        W36304  35.451   8.679   4.662
67911W        W36305  19.559  43.743   2.534
67912W        W36306  41.542  33.660   0.485
67913W        W36307  36.425  17.682   2.362
67914W        W36308  10.807  40.295   3.155
67915W        W36309  11.149  17.581  14.951
67916W        W36310  29.318  39.462   0.025
67917W        W36311  29.934  22.217  14.289
67918W        W36312  44.948  22.626  14.470
67919W        W36313   2.551  25.084  11.129
67920W        W36314  21.555   1.666  10.953
67921W        W36315  32.999   0.735  10.829
67922W        W36316   1.969  38.815  12.974
67923W        W36317  28.481  41.476   1.815
67924W        W36318  21.896  21.428   2.283
67925W        W36319   9.138   0.935   1.470
67926W        W36320  43.771  23.448   0.160
67927W        W36321   6.718  30.553   0.722
67928W        W36322  20.341   5.244  11.367
67929W        W36323  22.741  35.086  14.802
67930W        W36324  13.779   2.660   1.771
67931W        W36325  35.554  38.430  14.304
67932W        W36326  23.366  20.358  13.735
67933W        W36327   1.760  40.087  10.665
67934W        W36328  12.823  29.307  12.521
67935W        W36329  22.921  34.763  12.013
67936W        W36330  43.917  15.529   0.571
67937W        W36331  37.682  34.557   0.007
67938W        W36332  27.854  28.983   2.900
67939W        W36333  19.093  28.871   0.278
67940W        W36334  34.560  44.102  12.966
67941W        W36335  16.188  44.903   2.807
67942W        W36336  24.746  37.611  14.556
67943W        W36337  40.157  35.487  10.364
67944W        W36338  28.037  16.312   2.827
67945W        W36339   8.643  20.705   2.254
67946W        W36340  37.000  35.807   2.689
67947W        W36341   3.022  37.883   2.213
67948W        W36342   3.247  17.419  12.996
67949W        W36343   8.229  17.435  12.432
67950W        W36344   6.697   1.797   2.732
67951W        W36345  36.167  38.095   0.224
67952W        W36346  40.956  35.844  10.212
67953W        W36347  34.120   7.964   1.648
67954W        W36348   2.611  19.868   1.425
67955W        W36349  26.226  37.136  13.396
67956W        W36350  42.449   7.899   2.743
67957W        W36351  38.361  39.450  12.528
67958W        W36352  35.788  14.233   4.128
67959W        W36353  20.621  15.314   1.744
67960W        W36354  14.682  10.590   2.156
67961W        W36355   0.817  28.243   2.283
67962W        W36356  41.984   5.689  11.520
67963W        W36357  27.227  19.735   1.748
67964W        W36358  17.345  26.114  13.123
67965W        W36359  24.514   1.873  12.671
67966W        W36360  33.380   6.719  10.803
67967W        W36361   9.873  25.378  11.106
67968W        W36362  40.796  34.632   0.356
67969W        W36363  35.721   8.201  12.857
67970W        W36364  37.611  34.651  13.390
67971W        W36365  36.023  10.840   0.131
67972W        W36366  19.888  10.211   1.506
67973W        W36367   4.891  10.425  11.493
67974W        W36368   0.690  15.495  13.605
67975W        W36369  40.791  29.539   3.205
67976W        W36370  39.279  32.948  13.053
67977W        W36371  37.907  39.394  13.368
67978W        W36372  30.874  36.815  13.457
67979W        W36373  12.332  31.333  12.427
67980W        W36374   8.392  37.070   2.792
67981W        W36375  22.510   2.457  14.942
67982W        W36376  41.316  28.711  11.061
67983W        W36377   6.483  43.516  12.046
67984W        W36378  40.918  24.712  14.188
67985W        W36379  16.407  22.476   3.477
67986W        W36380  22.540  32.386   4.669
67987W        W36381  20.625  33.947   2.239
67988W        W36382  12.077  24.252  14.454
67989W        W36383  12.605   0.322   2.081
67990W        W36384   4.974  19.181  14.292
67991W        W36385   7.306  32.634   2.359
67992W        W36386  34.898  39.556   3.654
67993W        W36387   9.965   1.252  13.324
67994W        W36388   4.045  30.830  13.039
67995W        W36389  29.021  36.100  12.855
67996W        W36390  14.611   3.156  11.948
67997W        W36391   8.899  15.691   0.675
67998W        W36392  17.387  44.919  11.193
67999W        W36393  23.210  15.444  12.145
68000W        W36394  40.367  39.639   1.705
68001W        W36395  18.250   8.910  12.026
68002W        W36396  33.248  31.368  11.632
68003W        W36397  42.567   1.445  14.911
68004W        W36398   4.807  10.238   4.266
68005W        W36399  26.679   6.871  14.015
68006W        W36400   8.929  15.508   2.721
68007W        W36401  38.341   1.597  11.859
68008W        W36402  30.930  18.068   2.240
68009W        W36403  42.430  17.317   1.227
68010W        W36404  42.310  24.172  13.991
68011W        W36405  21.319  43.300   2.331
68012W        W36406  12.724  40.213  12.534
68013W        W36407  12.282  40.017  12.333
68014W        W36408   1.515   0.516   1.778
68015W        W36409  42.567  25.163  11.125
68016W        W36410   2.379  41.782  11.961
68017W        W36411  20.897   3.771  14.542
68018W        W36412   0.044   6.907  14.741
68019W        W36413  26.684  35.627  14.321
68020W        W36414  20.509  40.747  12.019
68021W        W36415  33.402  22.452   4.705
68022W        W36416  40.627  37.422   3.787
68023W        W36417  43.894   7.411   1.185
68024W        W36418  31.449   7.666   1.444
68025W        W36419  28.923  38.408   2.434
68026W        W36420  39.673  42.911  11.622
68027W        W36421  14.143  33.109  10.750
68028W        W36422  13.789  13.260   3.080
68029W        W36423  29.694  32.662   3.370
68030W        W36424  44.300   4.948  11.823
68031W        W36425  11.504  36.843   4.839
68032W        W36426  14.837  24.030  12.519
68033W        W36427  10.658  10.101   4.861
68034W        W36428  38.145  16.494  12.413
68035W        W36429   8.307  12.340  14.037
68036W        W36430  26.636  27.958  13.278
68037W        W36431  32.347  24.595   2.709
68038W        W36432   8.311  11.949  12.522
68039W        W36433  23.811  11.965   3.042
68040W        W36434   8.152  14.267   2.258
68041W        W36435  33.972  24.000   0.275
68042W        W36436  37.338  38.082  12.167
68043W        W36437  42.547  16.053   2.839
68044W        W36438   0.303  38.596   0.777
68045W        W36439   0.443  36.857   5.415
68046W        W36440   3.413  42.579   4.212
68047W        W36441  19.578  10.151  12.567
68048W        W36442  23.577  24.256  13.657
68049W        W36443  27.452  28.722   3.163
68050W        W36444  35.936   1.271  12.966
68051W        W36445   8.754   6.496   1.324
68052W        W36446  14.545   3.731   3.229
68053W        W36447  42.791  27.022   4.689
68054W        W36448   0.814   3.297  13.893
68055W        W36449  17.538  34.634   3.300
68056W        W36450  42.833   3.822  12.997
68057W        W36451   7.788  28.669  13.934
68058W        W36452  23.561  32.491   0.839
68059W        W36453  27.090  43.998  14.316
68060W        W36454  34.971  27.755  12.062
68061W        W36455  40.035  41.575   0.022
68062W        W36456   1.499  29.056  12.100
68063W        W36457  31.004  22.516   3.244
68064W        W36458  33.392  11.418  11.113
68065W        W36459  37.021  42.369   4.464
68066W        W36460   2.326  22.602   2.843
68067W        W36461   8.635  40.098   3.904
68068W        W36462   4.531  16.190  11.968
68069W        W36463  30.298  31.331  11.480
68070W        W36464   6.417   4.908   2.072
68071W        W36465  43.685   6.764  13.508
68072W        W36466  21.048  15.066  10.646
68073W        W36467  42.147   8.759   3.737
68074W        W36468  41.789   0.540  12.446
68075W        W36469  26.116  41.766   3.249
68076W        W36470  26.179  30.432   4.152
68077W        W36471   2.802  17.490   1.696
68078W        W36472  31.321  21.150   1.220
68079W        W36473  37.014  38.135   2.208
68080W        W36474   4.016  35.586  13.339
68081W        W36475  13.426   2.828   3.027
68082W        W36476  16.464   6.086  13.450
68083W        W36477  31.899   6.402   3.709
68084W        W36478  44.744   2.983   4.735
68085W        W36479   6.419  31.020   2.358
68086W        W36480  38.319  33.424   3.688
68087W        W36481  18.849  39.418  13.623
68088W        W36482  30.971  34.511   1.594
68089W        W36483  37.616  27.462   0.301
68090W        W36484  26.224  22.576  11.925
68091W        W36485  30.624  15.347  10.748
68092W        W36486  25.161  33.685   4.330
68093W        W36487  39.891   2.914  13.497
68094W        W36488   9.567   6.185   4.254
68095W        W36489  33.595  34.257   5.050
68096W        W36490  23.088  17.740   2.272
68097W        W36491  13.246  31.987  13.964
68098W        W36492  25.127  22.121  13.585
68099W        W36493  40.890  36.079   1.647
68100W        W36494   1.490  41.899   4.498
68101W        W36495  38.427  22.847   3.136
68102W        W36496   7.941  39.637  14.939
68103W        W36497  44.484  37.796   3.754
68104W        W36498   6.376  12.176  11.955
68105W        W36499  39.522   2.938  13.877
68106W        W36500  22.189   3.383  10.630
68107W        W36501   2.668  23.003   2.021
68108W        W36502  27.453   3.853  14.468
68109W        W36503   1.486  40.022   4.466
68110W        W36504  17.652  14.274   1.727
68111W        W36505  33.125  23.551  11.024
68112W        W36506  40.741  35.003  13.456
68113W        W36507   8.390  13.636   4.667
68114W        W36508  22.123  37.009   3.238
68115W        W36509  15.744  25.482   1.257
68116W        W36510   5.209  17.251  14.257
68117W        W36511  11.863  19.045  14.251
68118W        W36512  33.537  10.608  10.779
68119W        W36513  16.649  31.686   4.440
68120W        W36514  33.963  24.206   3.512
68121W        W36515  42.394  17.766   4.011
68122W        W36516   0.830  20.704   2.207
68123W        W36517  10.821  35.896  10.625
68124W        W36518   2.892  17.996   1.713
68125W        W36519  44.957   2.368  13.358
68126W        W36520  41.189  21.752   3.708
68127W        W36521   6.756   6.621   4.011
68128W        W36522  44.027  28.047  10.824
68129W        W36523  13.602  32.002  12.880
68130W        W36524  37.614  27.443  13.917
68131W        W36525  24.461  35.436  13.040
68132W        W36526  20.247  30.221  14.708
68133W        W36527  20.729  30.809  13.423
68134W        W36528  38.535  40.984   0.627
68135W        W36529  13.080  21.052   0.318
68136W        W36530   9.566  41.357   1.439
68137W        W36531  13.167  24.814   0.461
68138W        W36532  30.871  32.421  12.115
68139W        W36533  44.244  36.008  14.085
68140W        W36534  43.542   3.409  13.057
68141W        W36535  12.680  23.085   4.309
68142W        W36536  18.806  11.948   2.509
68143W        W36537   7.949   6.341   3.727
68144W        W36538  12.339  21.230  14.413
68145W        W36539  30.634   5.437   4.176
68146W        W36540  36.643  43.752  12.137
68147W        W36541  17.579  27.620  12.110
68148W        W36542  10.074  30.506   0.228
68149W        W36543  19.235  26.467   0.402
68150W        W36544  42.622   6.714  14.390
68151W        W36545   6.978  27.265   4.903
68152W        W36546  19.674  36.121   4.707
68153W        W36547  14.259  23.192  13.440
68154W        W36548   7.927   6.920   1.748
68155W        W36549  27.661  31.175  11.560
68156W        W36550  31.479   0.013   1.166
68157W        W36551  30.380  30.353  13.490
68158W        W36552  33.920  23.012  10.732
68159W        W36553  31.191   7.858   3.753
68160W        W36554   8.188  19.792   2.601
68161W        W36555  41.851  26.015  11.463
68162W        W36556   5.498  11.700   4.813
68163W        W36557  15.039  32.030  14.784
68164W        W36558  34.121  27.998   0.302
68165W        W36559  39.462  15.373  13.987
68166W        W36560   9.695  41.426   0.725
68167W        W36561  26.034  32.843   0.258
68168W        W36562  35.621  41.014   4.102
68169W        W36563  37.562   8.710   2.474
68170W        W36564  44.249   7.799   1.338
68171W        W36565  22.305  21.724  13.902
68172W        W36566  40.767  28.949  12.912
68173W        W36567   5.238  31.616   4.710
68174W        W36568   9.828  40.225   1.460
68175W        W36569  31.350  26.615  12.503
68176W        W36570   9.398   1.767   0.449
68177W        W36571  31.694  33.068  13.884
68178W        W36572   0.300  18.744   3.405
68179W        W36573  10.575  21.908  10.768
68180W        W36574   3.882   5.817  13.298
68181W        W36575  22.172  24.766  11.179
68182W        W36576  38.651  28.761   0.391
68183W        W36577  10.692   9.839   3.375
68184W        W36578   9.578  12.268  12.339
68185W        W36579  28.391  29.459  12.365
68186W        W36580   2.959  15.832  13.998
68187W        W36581   9.096  40.712  13.031
68188W        W36582  33.990   6.400   3.261
68189W        W36583  43.701   5.826  10.848
68190W        W36584  27.598  43.019   1.149
68191W        W36585  27.523  10.864  11.142
68192W        W36586   9.484  11.451  11.518
68193W        W36587  14.573   3.652  11.958
68194W        W36588  34.853   6.375   1.223
68195W        W36589   7.808  39.115   3.246
68196W        W36590  42.920  16.675  10.163
68197W        W36591  43.739  10.136  13.531
68198W        W36592  26.744  41.959   0.270
68199W        W36593  17.263  18.832   3.915
68200W        W36594  19.220  17.591  13.764
68201W        W36595  36.553  33.135  12.319
68202W        W36596  11.639   3.809   1.465
68203W        W36597  22.199  44.461   0.886
68204W        W36598  14.051  19.694   4.248
68205W        W36599   9.730   0.762  12.079
68206W        W36600   0.376   7.833   0.492
68207W        W36601   8.112  35.596  14.325
68208W        W36602  37.365  38.150   3.347
68209W        W36603  32.620  33.143   4.132
68210W        W36604  29.502  44.301  13.933
68211W        W36605  42.993  33.052   0.892
68212W        W36606  15.755   7.733   3.762
68213W        W36607  25.782  15.740  12.543
68214W        W36608  28.069   7.458   4.117
68215W        W36609  34.620  23.100   0.882
68216W        W36610  16.119   4.230   0.884
68217W        W36611  29.567   7.343   3.658
68218W        W36612   4.985  41.964  13.978
68219W        W36613  15.023  36.086   3.283
68220W        W36614  42.425   7.672  13.390
68221W        W36615   7.049  14.674   0.129
68222W        W36616   4.321  33.606  12.421
68223W        W36617  21.480  21.133  13.882
68224W        W36618  18.008  42.032   4.996
68225W        W36619   0.332   1.364   0.232
68226W        W36620   2.297   5.329   2.654
68227W        W36621   8.811   9.965  10.337
68228W        W36622  10.217  41.425   0.706
68229W        W36623  40.397  10.178   0.778
68230W        W36624  22.033  41.667  14.780
68231W        W36625  15.661  23.589   4.334
68232W        W36626   3.293  33.141  10.700
68233W        W36627  42.510  10.609  11.610
68234W        W36628  10.558  38.325  13.382
68235W        W36629  34.264  33.164  14.876
68236W        W36630  30.395  34.067   3.872
68237W        W36631  19.699  15.881   2.806
68238W        W36632  10.150  18.189   0.393
68239W        W36633   2.395  39.507  10.606
68240W        W36634  27.102  31.163  10.712
68241W        W36635  33.615  44.529  12.020
68242W        W36636  26.349   6.878  14.438
68243W        W36637  25.753   2.526  13.000
68244W        W36638  14.464  27.476  14.010
68245W        W36639   5.915  22.819  14.528
68246W        W36640  16.380  15.558   2.412
68247W        W36641  12.913  14.583   2.191
68248W        W36642  22.886  28.582  12.837
68249W        W36643  12.748   7.489   3.311
68250W        W36644  11.080  39.147   0.438
68251W        W36645   0.949  22.442   3.820
68252W        W36646  34.323   7.650   3.138
68253W        W36647  10.798  25.577   1.238
68254W        W36648   8.388   0.006   0.965
68255W        W36649  41.868   8.651   1.486
68256W        W36650   1.057  40.546  13.897
68257W        W36651  12.775  25.070   4.687
68258W        W36652   6.699  31.849   3.237
68259W        W36653   3.234  32.858  13.907
68260W        W36654  27.169  20.757   4.560
68261W        W36655   1.574  26.749   4.287
68262W        W36656  26.046   3.411  11.516
68263W        W36657  24.680  22.951  14.857
68264W        W36658  18.556   1.838  14.716
68265W        W36659   2.224  14.950   2.954
68266W        W36660  29.275  18.269  12.800
68267W        W36661  35.068  25.137   3.133
68268W        W36662   5.266   3.928   1.219
68269W        W36663  21.537   8.650  10.553
68270W        W36664  17.190  42.001  14.792
68271W        W36665  29.382   5.029  11.695
68272W        W36666   4.947  35.185  13.208
68273W        W36667  34.843  33.255  10.185
68274W        W36668  42.438  40.045  13.919
68275W        W36669  19.561   9.674  11.185
68276W        W36670  20.732   8.407   3.911
68277W        W36671  40.384   5.874   1.446
68278W        W36672  35.301   2.797  14.504
68279W        W36673  32.604  38.557   3.279
68280W        W36674  44.432  34.106   1.763
68281W        W36675  29.870  31.418   3.299
68282W        W36676  25.189   1.515   5.023
68283W        W36677  18.236  41.354   9.793
68284W        W36678  21.199  26.528   1.755
68285W        W36679  23.505  10.207   4.044
68286W        W36680  26.898   7.314  13.917
68287W        W36681  44.975   7.581  13.511
68288W        W36682  30.501  43.017   4.129
68289W        W36683   6.778  42.922  12.219
68290W        W36684  41.369  14.258   4.936
68291W        W36685  14.559  18.944   3.755
68292W        W36686  27.146  41.070   2.795
68293W        W36687  21.261   7.041   2.320
68294W        W36688  43.045  25.277  12.560
68295W        W36689  29.858  34.636   4.169
68296W        W36690  23.347   9.493  11.906
68297W        W36691  44.635  31.023  12.180
68298W        W36692  21.310  37.835  13.975
68299W        W36693  41.333  28.723   4.221
68300W        W36694  34.680   8.105   0.402
68301W        W36695   4.344  23.052  12.011
68302W        W36696  41.665  21.340  14.436
68303W        W36697  30.178  42.851  11.353
68304W        W36698  40.359   2.243  14.835
68305W        W36699  43.534   3.806   1.950
68306W        W36700   3.212  14.722   1.423
68307W        W36701  14.480   8.843  12.994
68308W        W36702  44.693   7.873  13.999
68309W        W36703  29.559  36.255   2.291
68310W        W36704  19.136   5.619   2.641
68311W        W36705  38.991  29.266   2.559
68312W        W36706  21.297  29.944   0.262
68313W        W36707   8.359  20.495   3.201
68314W        W36708   7.118  23.504  10.579
68315W        W36709  27.680   6.702   1.485
68316W        W36710   7.014  33.969   3.590
68317W        W36711  15.824  24.205   1.711
68318W        W36712   8.855  18.075   0.870
68319W        W36713  11.843  28.110  12.861
68320W        W36714  16.797  37.935   0.173
68321W        W36715  21.401  38.816   1.403
68322W        W36716  38.817  35.073  11.970
68323W        W36717   1.015  20.645   3.788
68324W        W36718  17.597  10.831   1.259
68325W        W36719  38.888  25.474   2.758
68326W        W36720  20.818  35.250   2.106
68327W        W36721   2.691  40.001   2.664
68328W        W36722  19.659   4.857   3.132
68329W        W36723  11.837  44.531   0.459
68330W        W36724  32.309  21.745   0.154
68331W        W36725  43.724   5.266  14.885
68332W        W36726  39.558  17.703   0.554
68333W        W36727  22.558  21.908  10.592
68334W        W36728  19.883  34.101   0.929
68335W        W36729   6.238  24.485   1.176
68336W        W36730  11.030  44.877   1.778
68337W        W36731  24.567   4.190  14.901
68338W        W36732  43.778  17.056  12.830
68339W        W36733  33.194  11.624   0.228
68340W        W36734  23.616  10.834   1.031
68341W        W36735  27.531  21.222   2.719
68342W        W36736  44.387  40.722   2.800
68343W        W36737  18.866  23.133   3.403
68344W        W36738  18.185  25.234  14.924
68345W        W36739   0.272  20.371  11.624
68346W        W36740  43.116  26.712  11.993
68347W        W36741   8.218  14.790   3.099
68348W        W36742  14.513   0.274   4.658
68349W        W36743  22.570  23.769  11.209
68350W        W36744  18.225  42.951   2.426
68351W        W36745   4.213  12.371   3.425
68352W        W36746  22.006  37.493  14.823
68353W        W36747   5.258   5.780   1.741
68354W        W36748  34.535  21.149   2.385
68355W        W36749  30.951  20.960   4.148
68356W        W36750   2.650  42.690  11.057
68357W        W36751  14.212  32.924   3.165
68358W        W36752   8.971  14.284   0.960
68359W        W36753  36.179  38.700   4.093
68360W        W36754  25.564   4.313   2.155
68361W        W36755  16.842  31.438   2.818
68362W        W36756  32.225   5.674   2.385
68363W        W36757   8.881  11.209   4.586
68364W        W36758  42.788  36.537   0.336
68365W        W36759  31.773   3.952  13.497
68366W        W36760   3.454  24.670  13.900
68367W        W36761  24.510   8.232   4.066
68368W        W36762  32.991  34.499   3.176
68369W        W36763  20.240   5.359  13.272
68370W        W36764  43.442  31.026  13.750
68371W        W36765  28.390  35.624  12.018
68372W        W36766  11.128   7.487  13.947
68373W        W36767  22.802   7.263  14.381
68374W        W36768  39.060   8.300  12.674
68375W        W36769  29.385  40.056  12.017
68376W        W36770  32.592  37.002  14.778
68377W        W36771  44.648  25.162   3.083
68378W        W36772  43.046   0.910  12.420
68379W        W36773   8.331  41.957   2.592
68380W        W36774  10.909  14.249  13.577
68381W        W36775  16.659  23.975   2.190
68382W        W36776   8.850   0.920   4.711
68383W        W36777  10.076   5.510  14.739
68384W        W36778  11.399  35.665   3.280
68385W        W36779  31.942  26.178   4.690
68386W        W36780  15.836  19.167  14.983
68387W        W36781  11.586  35.558   2.353
68388W        W36782   1.468  23.959   3.907
68389W        W36783  22.599  26.696  11.981
68390W        W36784  24.076  12.920  10.229
68391W        W36785  15.590  17.207   1.219
68392W        W36786  10.144  44.937  12.099
68393W        W36787  29.414  40.555   0.998
68394W        W36788  14.672  25.676  11.140
68395W        W36789  36.550  18.617  11.464
68396W        W36790  39.463  34.688   3.165
68397W        W36791   8.688  16.802   2.144
68398W        W36792  41.488  35.438  12.850
68399W        W36793   3.012  41.066  13.117
68400W        W36794  44.404  39.012  11.992
68401W        W36795  28.507   9.670  14.226
68402W        W36796   1.726  41.490   4.750
68403W        W36797   9.420  43.453  10.624
68404W        W36798  41.371  39.560   4.096
68405W        W36799  13.810   2.269  11.728
68406W        W36800   0.776   4.819  11.473
68407W        W36801  28.673  33.871   0.263
68408W        W36802  42.913   0.430  12.812
68409W        W36803  14.679   2.366  12.521
68410W        W36804  13.710   2.800   4.407
68411W        W36805  14.818  31.067  11.149
68412W        W36806  20.002  26.467   0.691
68413W        W36807  12.322  39.385   0.157
68414W        W36808  34.092   2.029  14.461
68415W        W36809  36.221  18.444   0.447
68416W        W36810  18.032  23.625  13.816
68417W        W36811   8.780  44.605  11.421
68418W        W36812  23.944  19.819   2.912
68419W        W36813  21.553  10.579  13.286
68420W        W36814   5.818  27.499   1.207
68421W        W36815   0.174  13.306  13.966
68422W        W36816   2.839  14.446  11.660
68423W        W36817  22.724  18.358  13.941
68424W        W36818   7.557  27.583   3.524
68425W        W36819  28.129  39.634   4.318
68426W        W36820  26.572   0.979   4.085
68427W        W36821  22.209  35.639   1.833
68428W        W36822  24.420   5.633  11.077
68429W        W36823   4.536   5.311   1.554
68430W        W36824  23.507   5.876   2.153
68431W        W36825   7.735   4.936  10.651
68432W        W36826  18.730  30.648   3.882
68433W        W36827  24.487   8.841  11.642
68434W        W36828   0.761   5.210   1.016
68435W        W36829  24.361  31.432  14.235
68436W        W36830   1.262  12.074   4.231
68437W        W36831  40.043  25.238  12.776
68438W        W36832  25.369  17.483  12.827
68439W        W36833   6.087  12.436  12.733
68440W        W36834   5.388  27.544  13.399
68441W        W36835  29.928  12.157   4.242
68442W        W36836  37.000  13.023   3.704
68443W        W36837  18.609  10.783  12.877
68444W        W36838  29.769  43.586  12.654
68445W        W36839  44.446  17.518  12.584
68446W        W36840  26.606   8.267  13.338
68447W        W36841  44.401  20.499   2.251
68448W        W36842  16.960  29.654  13.862
68449W        W36843  12.265  28.928   0.862
68450W        W36844  15.506  34.006  11.069
68451W        W36845   6.596  11.905   2.592
68452W        W36846  22.181  43.254  11.186
68453W        W36847  28.438  37.867  11.614
68454W        W36848  33.027   2.256   1.740
68455W        W36849  15.012   3.662  11.006
68456W        W36850   1.349  36.398   2.750
68457W        W36851   8.290  37.763  10.726
68458W        W36852   9.157  13.869  12.415
68459W        W36853  16.967  12.590  11.978
68460W        W36854  27.482  34.960  14.283
68461W        W36855  35.575  26.185  12.918
68462W        W36856  43.281  38.070  12.306
68463W        W36857  20.192  40.032   0.450
68464W        W36858  31.520  16.576  12.387
68465W        W36859   7.384  11.359   4.272
68466W        W36860  35.797  23.941  11.081
68467W        W36861  26.698   9.241  11.947
68468W        W36862  27.109  17.241   1.970
68469W        W36863  33.884  34.073   0.554
68470W        W36864  25.728  26.500  10.788
68471W        W36865  16.682  23.520  10.713
68472W        W36866  34.454   1.668  14.269
68473W        W36867  33.066  42.288   2.218
68474W        W36868   8.721  35.986   3.704
68475W        W36869  38.040  25.140   2.694
68476W        W36870  36.331  15.072  10.768
68477W        W36871   2.914  44.322  11.938
68478W        W36872  43.765  15.406  11.049
68479W        W36873   4.949  43.843  14.791
68480W        W36874   7.676  13.796   1.362
68481W        W36875  21.332   7.652  12.571
68482W        W36876   0.373   4.287   2.402
68483W        W36877   2.970  30.610   3.928
68484W        W36878   9.874  27.522  12.095
68485W        W36879  34.247  30.972   1.651
68486W        W36880  16.186   4.672  12.461
68487W        W36881  31.315  17.270   4.245
68488W        W36882  16.806  15.541  11.052
68489W        W36883  40.190   1.139  13.054
68490W        W36884   8.859   6.306  13.440
68491W        W36885  26.886  34.670   2.721
68492W        W36886  22.668  21.494  12.160
68493W        W36887  38.792  16.993  14.005
68494W        W36888  19.284   7.433   2.246
68495W        W36889  21.337  32.059   4.568
68496W        W36890  16.272  27.024   3.750
68497W        W36891   6.868  39.783   0.830
68498W        W36892  33.052  27.167  13.282
68499W        W36893  21.277   0.740   0.681
68500W        W36894  43.274  33.481   0.810
68501W        W36895  23.770   3.879   3.236
68502W        W36896   0.946   8.589  12.507
68503W        W36897  36.801   0.691  12.889
68504W        W36898  41.343  28.035   2.838
68505W        W36899  31.154   8.490  11.684
68506W        W36900  41.553  34.938   4.697
68507W        W36901   2.109  42.756  12.843
68508W        W36902  27.950  10.438   4.589
68509W        W36903  12.346   3.720   0.863
68510W        W36904  39.006  24.167   3.741
68511W        W36905   7.820  35.022  12.931
68512W        W36906  42.972  24.233  12.472
68513W        W36907  21.546  14.682   0.906
68514W        W36908  29.506  42.999   2.265
68515W        W36909  23.643  31.164   1.043
68516W        W36910  17.745   6.295   4.018
68517W        W36911   8.406  20.717   1.791
68518W        W36912  25.420  23.212   2.822
68519W        W36913  29.768   2.440   3.756
68520W        W36914  42.326  25.203  11.566
68521W        W36915  22.715  24.577   4.936
68522W        W36916  20.466   0.217  12.520
68523W        W36917  33.551  14.820   2.314
68524W        W36918  13.307  39.392   4.927
68525W        W36919  19.787  17.728   2.725
68526W        W36920  38.796  41.885   3.605
68527W        W36921  13.243  10.393  14.019
68528W        W36922  36.913  32.952  11.978
68529W        W36923   9.420  29.899  14.958
68530W        W36924  27.174   1.468   0.041
68531W        W36925   6.270  19.722   4.423
68532W        W36926  31.880  17.128  13.894
68533W        W36927  27.503  20.693  12.137
68534W        W36928  15.624  37.350   2.936
68535W        W36929  16.585  40.390  12.361
68536W        W36930  39.889  27.517  12.953
68537W        W36931  35.371   8.829   2.775
68538W        W36932  19.525   2.469   2.758
68539W        W36933   3.649   0.947   1.397
68540W        W36934  37.845  36.472   0.220
68541W        W36935  21.684   4.470   4.113
68542W        W36936  23.232   7.848   1.080
68543W        W36937  44.377   8.863  11.854
68544W        W36938   3.800   6.465  13.961
68545W        W36939   1.299  31.126   0.289
68546W        W36940  37.183   5.619   1.258
68547W        W36941  14.046  23.231   0.681
68548W        W36942  36.354   6.364  14.420
68549W        W36943  23.448  15.188  10.651
68550W        W36944  22.142  40.027   0.897
68551W        W36945  26.240  12.641  12.029
68552W        W36946   3.266  38.534   4.535
68553W        W36947  11.616   5.790  10.990
68554W        W36948  16.293   9.534   0.571
68555W        W36949  30.028  20.289  14.902
68556W        W36950  44.947  33.148   3.417
68557W        W36951  31.627  27.033  12.669
68558W        W36952   7.629   0.798  12.133
68559W        W36953  14.106   6.137   2.105
68560W        W36954  33.030  34.515  13.112
68561W        W36955  26.116  42.045  13.744
68562W        W36956   0.684  40.985   1.743
68563W        W36957  31.643  38.870   2.316
68564W        W36958  25.110  22.309  10.749
68565W        W36959  34.858  10.190  13.565
68566W        W36960  24.426   0.621  10.925
68567W        W36961  39.497  18.240   1.975
68568W        W36962   8.145  30.917   2.138
68569W        W36963  26.266  29.076   4.580
68570W        W36964   7.932  33.438   1.716
68571W        W36965  28.089   1.795  13.527
68572W        W36966  20.605  25.447  13.158
68573W        W36967   5.196  16.085  12.572
68574W        W36968   6.006  22.547  11.214
68575W        W36969  28.871  41.810   0.408
68576W        W36970  41.432  38.299  11.694
68577W        W36971  39.976   8.040   2.799
68578W        W36972  24.742   7.929  12.497
68579W        W36973  14.397  26.942  10.585
68580W        W36974   1.976  20.014  11.936
68581W        W36975  32.625  29.692   2.847
68582W        W36976  33.760   5.535  11.189
68583W        W36977  26.190  36.405  14.860
68584W        W36978  38.946  34.982   4.100
68585W        W36979   4.797  37.568   2.125
68586W        W36980   7.883  11.213   2.895
68587W        W36981  23.531  42.070  14.413
68588W        W36982  20.285  14.064  13.315
68589W        W36983  10.177   8.406  12.586
68590W        W36984  24.557  35.858  12.787
68591W        W36985  32.011  35.861  14.946
68592W        W36986  27.019  20.088  10.640
68593W        W36987  18.965  39.400   0.288
68594W        W36988  43.335   9.195   0.910
68595W        W36989  14.093   9.322   4.549
68596W        W36990  31.032  16.095  12.115
68597W        W36991  42.304  28.593  12.396
68598W        W36992  26.129  14.548  14.972
68599W        W36993  30.867  31.784   4.548
68600W        W36994   4.855  33.171   3.649
68601W        W36995   7.320  38.694  14.034
68602W        W36996  14.227  25.937  10.663
68603W        W36997  42.524   4.768  10.683
68604W        W36998  14.343  34.475   2.106
68605W        W36999   2.942  26.494  13.988
68606W        W37000  33.096   3.798   0.739
68607W        W37001   6.529  35.055   5.016
68608W        W37002  20.310  30.375   1.275
68609W        W37003  11.418  16.244  14.032
68610W        W37004  22.215  16.784  12.749
68611W        W37005  19.205   0.573   4.882
68612W        W37006  15.055  36.394   2.860
68613W        W37007   0.847   9.338  13.004
68614W        W37008   7.190  36.346   4.950
68615W        W37009  27.691  35.662   3.811
68616W        W37010   5.069  43.190  10.752
68617W        W37011  35.854  40.351   3.621
68618W        W37012   2.245  44.504  11.180
68619W        W37013  34.265  41.324   2.856
68620W        W37014   0.047  21.660   3.565
68621W        W37015  17.750   4.037   1.917
68622W        W37016  34.063  18.567  10.640
68623W        W37017  28.014  40.560  11.920
68624W        W37018  23.283  36.612  12.694
68625W        W37019  15.214  14.790  10.963
68626W        W37020  28.079   6.229   3.700
68627W        W37021   3.714   9.141   3.805
68628W        W37022  18.517  36.825  13.647
68629W        W37023   5.729   0.397  11.445
68630W        W37024  29.924  34.006   2.743
68631W        W37025  15.118  13.671  11.703
68632W        W37026  23.391  39.793   3.147
68633W        W37027  30.577  30.502  14.390
68634W        W37028  27.360  42.873   3.237
68635W        W37029  37.893  31.405  12.982
68636W        W37030  15.263  30.752   3.485
68637W        W37031  22.797  38.449   1.364
68638W        W37032   6.207  17.759   2.828
68639W        W37033   8.899  21.112  11.574
68640W        W37034  34.070  41.619   4.184
68641W        W37035   0.931  13.932   4.992
68642W        W37036  40.337  44.781   1.506
68643W        W37037  29.503  29.055   0.845
68644W        W37038  15.317   2.543   2.172
68645W        W37039  44.306  44.202  12.404
68646W        W37040  39.177  42.892   1.193
68647W        W37041  29.515  13.857   0.781
68648W        W37042   0.452  19.189   1.188
68649W        W37043  29.973  42.304   0.386
68650W        W37044  38.712  27.983  13.245
68651W        W37045   9.275  10.106  10.126
68652W        W37046  32.029  40.171  10.850
68653W        W37047  27.286   8.210   2.609
68654W        W37048  25.974  19.725  11.929
68655W        W37049  42.072  18.103   1.442
68656W        W37050  19.725  20.521   3.194
68657W        W37051   5.816  27.847   4.184
68658W        W37052  13.625  35.975  11.148
68659W        W37053   5.139   7.271  10.991
68660W        W37054   9.402  28.089  12.530
68661W        W37055   6.357  10.285  11.557
68662W        W37056  28.741  15.331  12.984
68663W        W37057  24.524   8.278   4.578
68664W        W37058  44.388  25.577   1.692
68665W        W37059  28.459  40.801  11.166
68666W        W37060   4.953   6.203   1.909
68667W        W37061  25.217   9.035   0.407
68668W        W37062  34.372  34.053  13.098
68669W        W37063  23.929   3.751   3.712
68670W        W37064  28.935  25.985  11.144
68671W        W37065  44.783  26.553  14.026
68672W        W37066   7.511   1.725   3.793
68673W        W37067  40.591   7.205   2.451
68674W        W37068  19.697  36.853  12.638
68675W        W37069  23.509  42.512   2.374
68676W        W37070   2.782   3.634   1.635
68677W        W37071  42.484  29.118  12.657
68678W        W37072  15.507  32.961   3.786
68679W        W37073   7.496  26.148  14.374
68680W        W37074  17.851  42.586  12.416
68681W        W37075  20.006  20.300   1.669
68682W        W37076   5.259  30.602  13.289
68683W        W37077  42.610  34.397   3.529
68684W        W37078   4.873  35.522   1.437
68685W        W37079  28.977  26.504   4.128
68686W        W37080  38.863  44.829  12.486
68687W        W37081  40.981  41.731   2.328
68688W        W37082   4.996  36.814  11.982
68689W        W37083  29.151  18.760   0.710
68690W        W37084   8.746  36.412   0.919
68691W        W37085  43.296  12.392  13.633
68692W        W37086   2.562  16.575   3.149
68693W        W37087   4.427  23.940   4.040
68694W        W37088   4.917  10.146   1.284
68695W        W37089  39.897  26.541  12.811
68696W        W37090  28.518  30.978   2.472
68697W        W37091   8.290  18.471  12.383
68698W        W37092  20.932  20.768   0.805
68699W        W37093  22.583  35.985   1.989
68700W        W37094  17.689  11.788   2.777
68701W        W37095  30.062   2.239  10.745
68702W        W37096  33.587   0.735  14.508
68703W        W37097   6.911  42.716  14.309
68704W        W37098  42.064  12.119   0.925
68705W        W37099  30.510  30.075   4.637
68706W        W37100   8.677  21.743   2.285
68707W        W37101  36.447  18.326   1.186
68708W        W37102  30.451  13.379  14.814
68709W        W37103  14.026   7.084  12.150
68710W        W37104  44.225  26.622   2.506
68711W        W37105  40.562  37.252  11.517
68712W        W37106   6.920   3.214   2.877
68713W        W37107  40.816  38.100   1.194
68714W        W37108  18.349  34.476  14.260
68715W        W37109   6.781  43.430   0.883
68716W        W37110  12.738  27.538  13.982
68717W        W37111  10.952  44.375  14.842
68718W        W37112  21.247  42.994  14.823
68719W        W37113  32.208  18.066  11.920
68720W        W37114  33.365  44.374   1.480
68721W        W37115  23.441  42.913   5.032
68722W        W37116  29.224  24.580   0.429
68723W        W37117  34.612  38.298   4.586
68724W        W37118   0.415  20.481   4.556
68725W        W37119  12.656   6.919   5.448
68726W        W37120  39.395   3.921  11.048
68727W        W37121   3.906  12.702   3.156
68728W        W37122  25.043  41.941   0.874
68729W        W37123   0.350  31.510  14.315
68730W        W37124  25.115  34.413  14.009
68731W        W37125  14.006  25.188   3.085
68732W        W37126  32.026  44.975  10.850
68733W        W37127  21.500  11.197   1.224
68734W        W37128  12.586  32.334  13.822
68735W        W37129   7.293  35.703   1.870
68736W        W37130   8.636   5.123  14.085
68737W        W37131  33.309  19.908   4.628
68738W        W37132  32.155  11.312   4.155
68739W        W37133  17.347  12.161   1.926
68740W        W37134  42.506   4.361   1.392
68741W        W37135   6.906   3.816  14.253
68742W        W37136  21.138  22.048   1.875
68743W        W37137   2.424   0.630   4.066
68744W        W37138  10.601  30.175   3.684
68745W        W37139  17.531  41.759   0.660
68746W        W37140  37.353  25.483   0.519
68747W        W37141  19.079  44.355  11.211
68748W        W37142  21.228  11.469   0.437
68749W        W37143  18.919  40.994   2.325
68750W        W37144  37.519  26.556  11.499
68751W        W37145  15.945  11.081   2.485
68752W        W37146  13.645  34.357   4.047
68753W        W37147  16.168  17.881  12.840
68754W        W37148  36.976  32.429   0.109
68755W        W37149  18.064  23.224   1.693
68756W        W37150   1.385   0.973  14.280
68757W        W37151  26.424  38.352   0.755
68758W        W37152   8.894  30.919   1.756
68759W        W37153  23.781  14.683  11.112
68760W        W37154   3.943   7.536   4.330
68761W        W37155   1.006  27.506   0.305
68762W        W37156  21.496  10.929  12.907
68763W        W37157   9.187  12.901   3.254
68764W        W37158  44.983  39.315   3.708
68765W        W37159   5.400   7.043  14.201
68766W        W37160  29.320  28.181   3.213
68767W        W37161  22.007   0.787  14.271
68768W        W37162   5.711   7.637  11.609
68769W        W37163  28.648  31.850   0.800
68770W        W37164  24.853   7.244  11.429
68771W        W37165  33.658   3.054   2.208
68772W        W37166  19.654   7.617   0.817
68773W        W37167  15.395   3.085   5.130
68774W        W37168  41.028  29.928  11.657
68775W        W37169  38.086  44.310  13.960
68776W        W37170  14.098   8.317   0.274
68777W        W37171  37.946  44.541   3.632
68778W        W37172  16.577   4.205   1.822
68779W        W37173  33.975  21.557   4.563
68780W        W37174  35.934  23.201  13.814
68781W        W37175  24.055  10.095  10.608
68782W        W37176  37.165  11.750  14.373
68783W        W37177   5.204  10.191   2.413
68784W        W37178  26.085  40.184   0.786
68785W        W37179  43.343  44.848   4.030
68786W        W37180  32.463  39.277  12.042
68787W        W37181  37.785  22.664  13.961
68788W        W37182  28.981   2.825   1.403
68789W        W37183  26.978  22.928  13.524
68790W        W37184  41.018  16.333   3.732
68791W        W37185  35.986  13.554   0.279
68792W        W37186  13.875  21.542  14.748
68793W        W37187  12.564  37.809  10.540
68794W        W37188  20.247  28.685  12.542
68795W        W37189  21.143  18.202  14.877
68796W        W37190  16.395  23.165  11.506
68797W        W37191  22.456  39.199  10.248
68798W        W37192  35.769  39.428   3.728
68799W        W37193  40.223   6.133   4.091
68800W        W37194  25.139   7.625  13.803
68801W        W37195  17.200  40.278  11.552
68802W        W37196  41.376  18.256  12.163
68803W        W37197  11.875   7.630  13.977
68804W        W37198  34.906  33.656   4.193
68805W        W37199  36.162  41.438  14.435
68806W        W37200  40.034   5.238  14.749
68807W        W37201  24.442  19.213  11.894
68808W        W37202  37.401  19.707   4.366
68809W        W37203  40.794   4.943  14.083
68810W        W37204   1.027   4.371  11.543
68811W        W37205  35.192   0.342   3.561
68812W        W37206   1.033   8.947   0.032
68813W        W37207   8.230  35.318  12.043
68814W        W37208  16.557  29.735  10.284
68815W        W37209  35.575  28.929  11.504
68816W        W37210  31.020  24.827   1.854
68817W        W37211  44.550  18.966  14.460
68818W        W37212  10.678   7.899  12.474
68819W        W37213  11.567  12.588  11.018
68820W        W37214  20.807  29.689   4.650
68821W        W37215  22.114   4.400   4.436
68822W        W37216  20.245   8.614   4.841
68823W        W37217  28.904  24.757   4.550
68824W        W37218   9.326  38.138  11.587
68825W        W37219   6.061   5.840  12.932
68826W        W37220  11.558  16.542  11.525
68827W        W37221  25.366  11.401  12.464
68828W        W37222  38.529  30.254  11.666
68829W        W37223  39.964  16.355  14.897
68830W        W37224  20.799  26.985   3.575
68831W        W37225  32.306  14.843   4.608
68832W        W37226   2.348  31.493  14.081
68833W        W37227  18.566  22.848   3.086
68834W        W37228  14.879   1.711   5.030
68835W        W37229  27.324  41.547   2.899
68836W        W37230  19.634  28.261   0.568
68837W        W37231  39.091  33.080   4.122
68838W        W37232   8.316  17.943  12.358
68839W        W37233  26.104  24.063   4.621
68840W        W37234  38.943   2.329  13.370
68841W        W37235   6.344  18.234   5.210
68842W        W37236  10.867  43.256   3.205
68843W        W37237  17.955  38.601  12.026
68844W        W37238  39.543  38.828  13.779
68845W        W37239  34.139  29.665   2.086
68846W        W37240  28.971  37.550  13.187
68847W        W37241   7.622   7.880   2.964
68848W        W37242  14.093  38.408   1.247
68849W        W37243   0.325  13.660  13.496
68850W        W37244  38.942   0.505   2.378
68851W        W37245  40.362  10.900   4.682
68852W        W37246  34.133  41.263  12.917
68853W        W37247  18.562  29.513  12.482
68854W        W37248   7.916  43.574  12.048
68855W        W37249  27.374  18.075   1.247
68856W        W37250  39.110  29.312   4.301
68857W        W37251  10.267   3.678   2.223
68858W        W37252   7.699  23.997   3.269
68859W        W37253  36.182  41.864  14.059
68860W        W37254  33.866  39.199   0.489
68861W        W37255  40.182   4.944   3.747
68862W        W37256  42.012  29.018   0.895
68863W        W37257  43.569  12.058   3.097
68864W        W37258  20.114   4.040   2.331
68865W        W37259   1.808  24.915  12.501
68866W        W37260  18.586  18.527  12.634
68867W        W37261   7.008  16.645  12.534
68868W        W37262  30.464  40.190  11.761
68869W        W37263  14.604  31.389  13.846
68870W        W37264   8.399  32.644   1.251
68871W        W37265  26.526   5.276   0.748
68872W        W37266  29.971  38.122  12.159
68873W        W37267  40.526  11.401  14.803
68874W        W37268  25.042   4.190   0.467
68875W        W37269  29.193  12.405   0.996
68876W        W37270  34.415  26.180  10.799
68877W        W37271  42.935  32.879   4.139
68878W        W37272  31.596  40.855   0.367
68879W        W37273   3.780   1.565  10.322
68880W        W37274   2.662  33.562   4.818
68881W        W37275  19.592  43.591  11.528
68882W        W37276   6.389   2.990  14.063
68883W        W37277  12.373  38.954  14.824
68884W        W37278   8.869  14.078   0.071
68885W        W37279  21.484  11.816   0.782
68886W        W37280  25.262  16.240   4.350
68887W        W37281  34.073  27.670  11.612
68888W        W37282   7.870  24.555   3.261
68889W        W37283   3.580   7.477   2.229
68890W        W37284  16.708  19.735  12.954
68891W        W37285  42.487  43.926  13.059
68892W        W37286  18.478  25.010   0.907
68893W        W37287  20.144  31.410  10.845
68894W        W37288   5.534  19.717  11.129
68895W        W37289  26.037   8.078   1.251
68896W        W37290  12.839   9.456   2.404
68897W        W37291  25.730  11.123  11.197
68898W        W37292   8.736  28.361   1.630
68899W        W37293  27.862   3.567   1.770
68900W        W37294  13.351   0.720  13.349
68901W        W37295  41.008  17.211   3.596
68902W        W37296   2.187   2.791   1.220
68903W        W37297  19.356  31.477  13.926
68904W        W37298  24.774   0.697  12.858
68905W        W37299  26.203  11.723   4.458
68906W        W37300  25.054  42.232  14.633
68907W        W37301  38.383  11.180   2.561
68908W        W37302  29.368  39.016   0.362
68909W        W37303   3.976  17.201  12.583
68910W        W37304  40.740   1.239   0.309
68911W        W37305  38.251   2.733   1.998
68912W        W37306  14.133   1.365   1.088
68913W        W37307   6.402  11.860  14.870
68914W        W37308  14.725   3.258   4.757
68915W        W37309  36.330  29.409   4.378
68916W        W37310   6.639  29.332  11.241
68917W        W37311  44.544   8.216   3.720
68918W        W37312   6.854  21.767   1.647
68919W        W37313  30.601  16.118  12.603
68920W        W37314   7.507  34.827   2.001
68921W        W37315  15.238  25.015   0.290
68922W        W37316  16.952  22.090   4.927
68923W        W37317   4.087  42.836  14.421
68924W        W37318  38.202   0.939   3.956
68925W        W37319  10.669  10.257  10.191
68926W        W37320  18.151   9.191   4.426
68927W        W37321  35.044   6.478   4.177
68928W        W37322  25.516  44.833  14.048
68929W        W37323  12.898  38.137  13.281
68930W        W37324   4.913  25.022  12.037
68931W        W37325   3.684   8.088   3.821
68932W        W37326  28.097   0.730  11.050
68933W        W37327   5.859  28.815  11.701
68934W        W37328  33.181  38.338   4.673
68935W        W37329  38.587   4.996  11.734
68936W        W37330  30.675  17.774   1.254
68937W        W37331  10.869  16.885  14.072
68938W        W37332  33.046   7.286   3.841
68939W        W37333  20.106  38.322  12.808
68940W        W37334  10.132  16.538   2.164
68941W        W37335  32.576   2.706  12.606
68942W        W37336  42.717  21.537   2.637
68943W        W37337  23.643  25.167   0.346
68944W        W37338  10.260  27.137   2.158
68945W        W37339  11.535  34.396   0.427
68946W        W37340  11.244  19.709   4.363
68947W        W37341  43.308  38.068   1.346
68948W        W37342  17.315  22.486   3.370
68949W        W37343  16.479  20.699   4.087
68950W        W37344  13.169  33.450   2.878
68951W        W37345  16.906  27.018   1.706
68952W        W37346  39.878  25.384   0.647
68953W        W37347  44.333  23.411  12.396
68954W        W37348  30.496   9.778  12.279
68955W        W37349  36.491  22.514   1.771
68956W        W37350   5.969  36.069   0.004
68957W        W37351  42.362  24.098   2.991
68958W        W37352  39.277  16.185   3.787
68959W        W37353  28.152  23.273   1.389
68960W        W37354   0.331  44.122  10.505
68961W        W37355  19.485  15.169   2.416
68962W        W37356  42.506  37.973  12.440
68963W        W37357   6.925  16.349   2.653
68964W        W37358  12.010  17.974   2.973
68965W        W37359  13.314   9.444  13.813
68966W        W37360  35.844  44.478  14.427
68967W        W37361  10.158  18.237   1.474
68968W        W37362  13.585  37.965   2.758
68969W        W37363  36.842  26.139  11.026
68970W        W37364  14.352   3.855  10.303
68971W        W37365  17.373  30.176   1.357
68972W        W37366   0.357  20.572  12.103
68973W        W37367   2.484   5.760   1.194
68974W        W37368  23.697   6.946   3.109
68975W        W37369   4.294   4.453  14.365
68976W        W37370  29.694  43.306   2.806
68977W        W37371  13.267  11.805  13.429
68978W        W37372  21.654  44.929   0.339
68979W        W37373  34.426   7.323  14.886
68980W        W37374  18.029  41.902   3.084
68981W        W37375  43.261  39.820  14.323
68982W        W37376   8.145   5.241  14.312
68983W        W37377  35.855   1.998  14.117
68984W        W37378  16.826  18.686  13.725
68985W        W37379  36.422  31.499   2.698
68986W        W37380  43.952  28.458   1.194
68987W        W37381  42.296  15.690  12.518
68988W        W37382  25.786  44.032   3.630
68989W        W37383  32.567  15.099   2.806
68990W        W37384  16.670  36.728  14.396
68991W        W37385  43.224  13.346  12.033
68992W        W37386   2.763  27.121  12.157
68993W        W37387  24.518  36.412   4.556
68994W        W37388  41.549  34.946  11.735
68995W        W37389   9.760  29.070  11.133
68996W        W37390  44.134  39.321  14.428
68997W        W37391   8.639  33.121   2.864
68998W        W37392  32.088  27.397  10.710
68999W        W37393  30.946  16.591   1.723
69000W        W37394  41.918  10.251   5.015
69001W        W37395  32.011  12.254  11.657
69002W        W37396  40.349  40.454   3.321
69003W        W37397  28.208  31.155  14.753
69004W        W37398  18.138   1.664  12.947
69005W        W37399  19.324  23.059  13.795
69006W        W37400  26.422  11.777  12.085
69007W        W37401  21.018  37.061   4.313
69008W        W37402  30.245  39.250  12.281
69009W        W37403  37.400  43.715   4.683
69010W        W37404   9.624  39.843  12.958
69011W        W37405  28.946  31.600   3.021
69012W        W37406  16.327  23.572   4.507
69013W        W37407  30.690   3.391   1.122
69014W        W37408  20.468  10.266  14.334
69015W        W37409  40.450  42.394  14.700
69016W        W37410   7.779  13.693  10.505
69017W        W37411  11.429   1.230   2.425
69018W        W37412   3.168  25.099  14.025
69019W        W37413  33.420  33.509   0.179
69020W        W37414  20.254   9.383  12.908
69021W        W37415  12.860  23.703  11.602
69022W        W37416  41.553  37.890   0.808
69023W        W37417  35.891  41.390  12.924
69024W        W37418  39.987  18.138   1.768
69025W        W37419  31.202  26.344   2.705
69026W        W37420   2.805  35.261   3.225
69027W        W37421   5.411   9.328   0.317
69028W        W37422  32.285  24.708   3.998
69029W        W37423   4.424  29.709   2.191
69030W        W37424  35.899  42.961   3.385
69031W        W37425  20.964  29.197  14.957
69032W        W37426  42.036   0.766  10.387
69033W        W37427   2.595  44.419  10.288
69034W        W37428  17.099  37.277  10.739
69035W        W37429  43.385   6.388   1.761
69036W        W37430   8.478  20.809  12.875
69037W        W37431  22.893  13.262   4.571
69038W        W37432  37.102  23.595   2.302
69039W        W37433   2.701  12.710  10.438
69040W        W37434   9.728  32.658   2.685
69041W        W37435  35.069  26.240  12.931
69042W        W37436  29.625   7.070   3.214
69043W        W37437  36.721  31.614   4.949
69044W        W37438  30.146  15.613  12.003
69045W        W37439   0.471  42.952   4.647
69046W        W37440   9.396   4.498   5.883
69047W        W37441  27.429  13.213   2.318
69048W        W37442  23.017   3.745  12.435
69049W        W37443  17.969  17.059  11.506
69050W        W37444  20.500  41.286   3.781
69051W        W37445  12.741   6.275  14.922
69052W        W37446  34.146   2.718  13.977
69053W        W37447  25.543  10.389   0.050
69054W        W37448  14.255   6.220  13.386
69055W        W37449  40.535  20.308  14.905
69056W        W37450  41.848  15.560  10.508
69057W        W37451  11.181  12.853   2.794
69058W        W37452  37.813  41.986   1.397
69059W        W37453  23.702  21.902  12.697
69060W        W37454   1.116   1.865   1.451
69061W        W37455  36.432  10.621  11.630
69062W        W37456   5.911   2.856   2.235
69063W        W37457  12.389  14.197   3.462
69064W        W37458   7.116  21.144   2.928
69065W        W37459   2.206  12.390  12.520
69066W        W37460   5.327  24.240   1.284
69067W        W37461   6.912  26.113   2.850
69068W        W37462  13.573  11.070   0.907
69069W        W37463  12.422  27.001  10.640
69070W        W37464  22.933  26.609  13.389
69071W        W37465  29.058  35.944  10.637
69072W        W37466   9.858   7.361   1.844
69073W        W37467  15.652  27.947   3.367
69074W        W37468  42.220   4.619  14.675
69075W        W37469  24.581   4.897  12.061
69076W        W37470  39.961  44.083   0.381
69077W        W37471  26.943  17.889   3.574
69078W        W37472  40.233  12.211   3.329
69079W        W37473   1.071  20.174  13.934
69080W        W37474  44.838   1.453  13.448
69081W        W37475  27.491  26.993   1.454
69082W        W37476  23.583  16.771  12.535
69083W        W37477  16.246  35.110   4.648
69084W        W37478  15.884  18.078  10.637
69085W        W37479  21.450   0.893   1.963
69086W        W37480  42.991  28.206   3.747
69087W        W37481  30.531   7.407   2.394
69088W        W37482  39.484  20.152   3.536
69089W        W37483  34.656  13.345   0.389
69090W        W37484   2.781  41.454  11.948
69091W        W37485   7.861  26.817  14.884
69092W        W37486   1.548  10.338  10.733
69093W        W37487  33.084   5.765  13.580
69094W        W37488  22.236  36.901   3.748
69095W        W37489  25.051   8.153  14.809
69096W        W37490  44.026   1.712  12.547
69097W        W37491  11.372  38.252  10.998
69098W        W37492  35.579  35.495   4.819
69099W        W37493  33.131   3.808  12.506
69100W        W37494  31.892  25.952  10.783
69101W        W37495  42.232  27.032  11.225
69102W        W37496   7.388  35.337  14.892
69103W        W37497  15.800  14.615  12.226
69104W        W37498   5.882   1.514  10.268
69105W        W37499  15.863  23.255   1.346
69106W        W37500  31.570   6.679   1.626
69107W        W37501  28.883  22.953   2.880
69108W        W37502  13.221  21.720  13.350
69109W        W37503   5.640   9.183  12.981
69110W        W37504  21.643   3.321   1.537
69111W        W37505   1.486  12.114  12.102
69112W        W37506  34.623  44.886  14.476
69113W        W37507  22.716  37.475  14.960
69114W        W37508  33.134  18.818   4.505
69115W        W37509  11.580  28.077   4.559
69116W        W37510  14.491  35.684  11.154
69117W        W37511  22.766  18.066   3.896
69118W        W37512  30.361  25.362  11.972
69119W        W37513  18.801  13.701   3.699
69120W        W37514  18.329   1.978   0.262
69121W        W37515  22.675  37.836  14.292
69122W        W37516  44.751  18.073   3.387
69123W        W37517  27.574  13.860   0.634
69124W        W37518   9.460  21.470   1.660
69125W        W37519  17.208  21.599   0.943
69126W        W37520  13.365  38.471   2.869
69127W        W37521  11.914  25.738  12.500
69128W        W37522  25.200   5.619  13.936
69129W        W37523   9.330  44.584  10.324
69130W        W37524  39.024  20.385   4.843
69131W        W37525  11.521   2.829  12.147
69132W        W37526   6.776  17.121  14.097
69133W        W37527   4.823  18.507  12.417
69134W        W37528  36.770   5.857  12.413
69135W        W37529  18.209  42.961   1.916
69136W        W37530  13.932  41.348  11.015
69137W        W37531   6.462  43.511  12.918
69138W        W37532  26.043  27.612   4.574
69139W        W37533  37.762  39.788   4.142
69140W        W37534  41.291  34.616   4.350
69141W        W37535  27.245  25.570  12.856
69142W        W37536  18.109  14.722  14.950
69143W        W37537  23.682   9.157  11.700
69144W        W37538   0.980  32.655  11.864
69145W        W37539  27.011  36.009  12.509
69146W        W37540  42.284  32.413  10.624
69147W        W37541  20.317  35.018   3.665
69148W        W37542  33.384  26.745   4.011
69149W        W37543  11.570  15.389  11.134
69150W        W37544  37.024  17.788   2.691
69151W        W37545   3.734  26.770   0.216
69152W        W37546  12.309  10.196  12.475
69153W        W37547  42.053  22.486   2.889
69154W        W37548  28.661  41.117  14.705
69155W        W37549  33.873   1.123  11.386
69156W        W37550   7.840  16.296   1.856
69157W        W37551  35.963  18.519  12.749
69158W        W37552  18.606  20.263   5.131
69159W        W37553  41.889  34.478  14.307
69160W        W37554  19.173   7.489  10.182
69161W        W37555   8.638  41.585  11.913
69162W        W37556  29.559  38.977   1.798
69163W        W37557  41.938  41.788   2.148
69164W        W37558  30.742   7.380   1.913
69165W        W37559  21.691  38.580  10.575
69166W        W37560   4.803   3.825   0.191
69167W        W37561  44.809  35.667   2.308
69168W        W37562  31.611  14.313  13.925
69169W        W37563   7.724  29.592  14.414
69170W        W37564  27.345  32.421  12.387
69171W        W37565  17.102  41.754   0.245
69172W        W37566   5.287  42.560  12.876
69173W        W37567  13.320  44.559  11.984
69174W        W37568   9.360  10.648  12.802
69175W        W37569  11.398  21.532  12.877
69176W        W37570  43.829  37.386   0.165
69177W        W37571  10.813  43.461  14.885
69178W        W37572   5.022  30.981  10.298
69179W        W37573  20.562  22.713   0.102
69180W        W37574  40.038   0.464  13.497
69181W        W37575  41.838   9.594   1.322
69182W        W37576  33.962  24.544   0.422
69183W        W37577  34.262   0.196  11.220
69184W        W37578  10.724   2.761   2.767
69185W        W37579  42.421  11.832   3.634
69186W        W37580   1.174  40.121   1.435
69187W        W37581  21.457  35.455   3.350
69188W        W37582  14.217   4.705  14.462
69189W        W37583  32.347  37.272   0.946
69190W        W37584  30.549  41.901   2.232
69191W        W37585  13.546  10.744  11.624
69192W        W37586  11.462  42.310  13.560
69193W        W37587  16.611  30.372  13.359
69194W        W37588   9.158  23.059  12.969
69195W        W37589  26.336  24.094   0.908
69196W        W37590  33.831   1.302   1.305
69197W        W37591   2.846  24.051  14.004
69198W        W37592   9.908  39.949  13.890
69199W        W37593  42.789  42.959  12.010
69200W        W37594   5.921  38.249  11.030
69201W        W37595   4.217  33.458  14.350
69202W        W37596  22.177  36.848  13.712
69203W        W37597  39.873  27.047  11.133
69204W        W37598  21.501   4.884  13.229
69205W        W37599  20.612  16.735   3.610
69206W        W37600  10.750  15.690   3.757
69207W        W37601  13.025  27.391  12.043
69208W        W37602  40.540   3.174   3.942
69209W        W37603  33.194   6.179  12.477
69210W        W37604  29.091  22.554   3.908
69211W        W37605  36.134  23.113  13.347
69212W        W37606  19.738  21.275   3.786
69213W        W37607  10.247  34.424  10.793
69214W        W37608  12.344  25.966   4.416
69215W        W37609  15.800  38.329   3.296
69216W        W37610  24.286  24.571  11.635
69217W        W37611  38.899  14.969   4.168
69218W        W37612  28.633  11.624  12.419
69219W        W37613  38.554  16.897   1.779
69220W        W37614  26.708  16.792   4.534
69221W        W37615  24.054  17.603   4.005
69222W        W37616  34.574   3.207   4.344
69223W        W37617   0.308  22.394   4.273
69224W        W37618  27.651  20.008  14.925
69225W        W37619  17.318  30.128   0.446
69226W        W37620  27.662  39.207  11.613
69227W        W37621  30.011   6.456   4.838
69228W        W37622  34.770  21.803  13.434
69229W        W37623  41.737  34.106  10.679
69230W        W37624  43.713   4.910  14.392
69231W        W37625   2.471  34.377  10.839
69232W        W37626  15.905   6.820  11.325
69233W        W37627  16.375  16.644  10.909
69234W        W37628  22.736  20.416   4.150
69235W        W37629  42.343   4.945  12.112
69236W        W37630  30.967  44.222   2.208
69237W        W37631  23.837  38.162  13.554
69238W        W37632  24.400  30.737  14.726
69239W        W37633  10.783   0.331   4.452
69240W        W37634  19.698  29.175   0.454
69241W        W37635  10.897  18.230   1.764
69242W        W37636   8.172   6.723  11.209
69243W        W37637  32.561  25.653   3.767
69244W        W37638  44.000  32.215   0.444
69245W        W37639  43.009   5.681  13.032
69246W        W37640  34.418  31.536  14.026
69247W        W37641  16.553  20.062  11.236
69248W        W37642  11.902   1.751   0.210
69249W        W37643  32.059  22.980  10.413
69250W        W37644   9.281  42.542  10.495
69251W        W37645   4.245  21.709   4.147
69252W        W37646  20.439  43.554  14.251
69253W        W37647  30.934  39.499  13.790
69254W        W37648  42.282   5.447  12.155
69255W        W37649  15.094  12.165  12.941
69256W        W37650  14.327  22.033  11.506
69257W        W37651  28.767   8.537  11.631
69258W        W37652  32.654  13.198  11.422
69259W        W37653   7.408   1.540  14.263
69260W        W37654  39.524   9.155  14.366
69261W        W37655   0.360  44.968   4.403
69262W        W37656   8.963  35.035   3.255
69263W        W37657  29.009  13.080  13.462
69264W        W37658   2.249  40.484   5.043
69265W        W37659   5.427  19.538   4.050
69266W        W37660  18.834  42.997  13.277
69267W        W37661  44.665  26.517  14.548
69268W        W37662  29.181  42.637   3.865
69269W        W37663  14.738  42.563  14.850
69270W        W37664  36.818  41.461  12.464
69271W        W37665  14.255  30.546   2.442
69272W        W37666  19.934   0.063  12.982
69273W        W37667  22.311  20.070  11.751
69274W        W37668  43.767  28.480   0.713
69275W        W37669  14.769  23.843   3.378
69276W        W37670  19.184  30.391   4.012
69277W        W37671  41.084  39.343   2.841
69278W        W37672   3.743  41.131   3.058
69279W        W37673  16.353  28.714   5.653
69280W        W37674  18.074  43.420  13.814
69281W        W37675  28.240  11.109   3.648
69282W        W37676  24.721  12.093   0.760
69283W        W37677  35.149  31.664  12.704
69284W        W37678   8.849  11.969   1.281
69285W        W37679   5.856  44.239  14.284
69286W        W37680  44.789  25.602   3.308
69287W        W37681   1.775   3.043  10.434
69288W        W37682  17.744   5.280  12.083
69289W        W37683   8.240  11.028  11.178
69290W        W37684  36.084  14.308   4.543
69291W        W37685  43.848  12.876   4.448
69292W        W37686  37.649  40.317  13.981
69293W        W37687   4.718  40.700  12.190
69294W        W37688  17.074  18.097  13.275
69295W        W37689  36.389  10.747  10.770
69296W        W37690  21.554  24.243  11.228
69297W        W37691  25.900  29.607  10.668
69298W        W37692  25.262  34.593   1.221
69299W        W37693   8.686   2.625  13.452
69300W        W37694  44.009  43.473  13.353
69301W        W37695  24.669  14.862  12.442
69302W        W37696  43.787  32.079  11.734
69303W        W37697  19.216  34.893   0.404
69304W        W37698  28.799  24.075  11.291
69305W        W37699  15.561  41.834  12.479
69306W        W37700  44.774  41.806   4.275
69307W        W37701  21.805  19.429  12.883
69308W        W37702  34.043  20.115   3.693
69309W        W37703  21.485   0.406  12.551
69310W        W37704   2.269  43.245  12.931
69311W        W37705  14.147  31.983   4.497
69312W        W37706  15.752  13.258   4.525
69313W        W37707   4.433   2.067   1.730
69314W        W37708  20.404  39.323  13.334
69315W        W37709  22.656  39.926   0.827
69316W        W37710  35.017  32.596   3.105
69317W        W37711  23.824  12.671  14.431
69318W        W37712  41.501   4.876  13.255
69319W        W37713  22.196  29.991   3.827
69320W        W37714  35.781  25.191  14.989
69321W        W37715  36.494  17.653  14.267
69322W        W37716  29.093  19.324   4.012
69323W        W37717  19.593  26.788   3.126
69324W        W37718  10.134  29.426  11.170
69325W        W37719  23.257   1.530  11.883
69326W        W37720  21.511  20.914  11.638
69327W        W37721  17.640  34.078   0.685
69328W        W37722  11.145  37.506   3.330
69329W        W37723  12.661  25.038   3.091
69330W        W37724  13.688   1.449   3.345
69331W        W37725  25.381  33.045  13.997
69332W        W37726  41.921   9.574  13.968
69333W        W37727  18.036   6.469   2.157
69334W        W37728  42.670  29.059   1.421
69335W        W37729   5.402   0.995  14.441
69336W        W37730   7.077  40.954   2.325
69337W        W37731  31.342  17.855  14.428
69338W        W37732  30.584   3.337  10.883
69339W        W37733  29.231   6.250  12.620
69340W        W37734   8.778  31.495   5.048
69341W        W37735  43.802  42.243   3.677
69342W        W37736  28.435   7.479   2.720
69343W        W37737  19.861  42.007  13.664
69344W        W37738  22.926  44.231  10.032
69345W        W37739  31.547   3.524  11.435
69346W        W37740  12.641   8.351   1.355
69347W        W37741  17.284   7.160   0.253
69348W        W37742  23.172  42.462  14.497
69349W        W37743  25.601  19.251   1.328
69350W        W37744   3.995   1.888   0.887
69351W        W37745  39.513  10.954  14.398
69352W        W37746  35.117  10.827  14.664
69353W        W37747   7.454  29.447  11.059
69354W        W37748  40.896  26.007   0.481
69355W        W37749  24.064  38.545   2.860
69356W        W37750  14.915  23.212   2.257
69357W        W37751  13.322  30.892  12.230
69358W        W37752  42.793  25.767  11.195
69359W        W37753  31.570  11.192  10.770
69360W        W37754   6.462   7.832   2.187
69361W        W37755  40.945  37.538  13.887
69362W        W37756  25.458  12.726   3.882
69363W        W37757  15.637  31.572   4.439
69364W        W37758  37.937  14.651  11.440
69365W        W37759  17.961  14.306  10.766
69366W        W37760  12.555  28.747  11.183
69367W        W37761  16.133   9.192   9.750
69368W        W37762  29.171  24.883  14.030
69369W        W37763   8.791  30.002   3.289
69370W        W37764   1.974  28.453   4.681
69371W        W37765   5.201   1.830  11.306
69372W        W37766  14.104  21.782   2.017
69373W        W37767  38.898  23.242  10.480
69374W        W37768  43.541  43.920  10.550
69375W        W37769  26.737  23.616  11.972
69376W        W37770  42.321  23.622   2.251
69377W        W37771  35.316  40.190  11.397
69378W        W37772  38.810  36.323   4.347
69379W        W37773   6.403   1.323  13.510
69380W        W37774   8.526  35.187  11.633
69381W        W37775  28.942   4.608  12.375
69382W        W37776  44.386   9.651   2.755
69383W        W37777   0.909  39.891  13.603
69384W        W37778  12.225   7.331  10.519
69385W        W37779  18.596  38.712   0.975
69386W        W37780  11.290  16.509  13.288
69387W        W37781  36.519   0.934  10.805
69388W        W37782  20.114  28.230   0.325
69389W        W37783  27.066  28.141  13.506
69390W        W37784  32.536   4.932   4.265
69391W        W37785  36.013  23.532   2.225
69392W        W37786   2.026  36.760   1.723
69393W        W37787  29.002  16.371  12.529
69394W        W37788   1.434  18.548  12.950
69395W        W37789  27.383  28.532  13.588
69396W        W37790  30.163   2.122  14.462
69397W        W37791  11.687  16.256  13.575
69398W        W37792  19.202  25.023   0.291
69399W        W37793  15.567  23.618  13.881
69400W        W37794   3.953  23.632  10.611
69401W        W37795  31.642  22.277   4.227
69402W        W37796  13.203  34.556  14.865
69403W        W37797  42.345  26.098   0.742
69404W        W37798  16.526  16.801  10.419
69405W        W37799  40.359  27.972  12.066
69406W        W37800   4.460  14.724  14.848
69407W        W37801  25.474  28.981   2.370
69408W        W37802  40.263  30.889  10.264
69409W        W37803  19.833  38.935  10.935
69410W        W37804  30.491  43.393   4.488
69411W        W37805  19.571  20.675   4.621
69412W        W37806   3.802  22.510  13.910
69413W        W37807  21.105  31.409  12.769
69414W        W37808  34.894  13.727  13.452
69415W        W37809  19.795   8.398  13.134
69416W        W37810  43.631   8.147  11.548
69417W        W37811  34.420  43.983  13.965
69418W        W37812  28.308  42.401   2.721
69419W        W37813  12.782   9.771  10.997
69420W        W37814  30.065  11.619   1.939
69421W        W37815  19.406  12.164  13.288
69422W        W37816  19.508  28.198  13.474
69423W        W37817  20.594  16.985  12.078
69424W        W37818   6.812  20.224   4.102
69425W        W37819  42.486  38.397   0.576
69426W        W37820   8.430  17.816  11.152
69427W        W37821  15.764   6.785  14.453
69428W        W37822   9.414  13.842   4.935
69429W        W37823  19.490  38.392   2.752
69430W        W37824   8.122  21.311  12.895
69431W        W37825  40.363   1.170   4.203
69432W        W37826   5.344  26.705  14.348
69433W        W37827   8.919  11.843  11.026
69434W        W37828  27.049  43.678   1.371
69435W        W37829  22.305  41.644   2.384
69436W        W37830  44.814  26.272   3.718
69437W        W37831   7.383  13.285   4.132
69438W        W37832  23.031  10.703  14.717
69439W        W37833  20.543  31.039  12.980
69440W        W37834  10.851  30.551  11.490
69441W        W37835   6.166   3.176  10.623
69442W        W37836  35.983  24.650  12.497
69443W        W37837  35.968  33.621   1.053
69444W        W37838  12.264  12.856   4.578
69445W        W37839  43.979  31.017   2.176
69446W        W37840  43.224  25.186   3.727
69447W        W37841  18.082  39.910   2.422
69448W        W37842  27.416   8.234  13.724
69449W        W37843   7.671  23.497  13.841
69450W        W37844  28.908  38.706  11.444
69451W        W37845  32.442  28.649  12.047
69452W        W37846  34.389  30.685  12.036
69453W        W37847  35.868  28.905  14.132
69454W        W37848   1.345  39.108  11.910
69455W        W37849   6.205   9.121  14.963
69456W        W37850  44.033  11.227  12.165
69457W        W37851  36.311  41.502   4.146
69458W        W37852  32.306  34.526  14.859
69459W        W37853  24.946   0.326  12.516
69460W        W37854  18.136  25.420  13.632
69461W        W37855   6.968  22.979   3.618
69462W        W37856  35.814  28.777   4.039
69463W        W37857  18.643  32.419   1.651
69464W        W37858   2.913  35.043   0.122
69465W        W37859  23.368  16.216  12.591
69466W        W37860  39.006  16.000   2.684
69467W        W37861   0.848   2.720   3.771
69468W        W37862  14.272   3.319  14.912
69469W        W37863  19.475   1.599   4.143
69470W        W37864  34.404  19.691   4.156
69471W        W37865  11.127  41.867   0.744
69472W        W37866  36.973  36.269  13.860
69473W        W37867  29.604  40.255  11.600
69474W        W37868   1.517   6.264   4.469
69475W        W37869  35.858   2.701  11.079
69476W        W37870   0.296  42.310  11.993
69477W        W37871  40.293  32.095  13.482
69478W        W37872  31.570   9.346   0.510
69479W        W37873  17.466  18.161   0.876
69480W        W37874  41.401  10.606   1.630
69481W        W37875  22.423  21.255   0.219
69482W        W37876  23.534  43.451  11.613
69483W        W37877   4.440  42.066  13.111
69484W        W37878  37.389   6.319  11.781
69485W        W37879  25.010   3.265  12.966
69486W        W37880  30.975  35.867   3.410
69487W        W37881  29.720   6.495  14.469
69488W        W37882  44.589  28.165   2.821
69489W        W37883  40.186  36.551   0.222
69490W        W37884   2.431  32.062   4.918
69491W        W37885  21.667  22.285  10.976
69492W        W37886  24.201  33.923   3.986
69493W        W37887  42.927  31.043  11.408
69494W        W37888   2.965   4.259   4.517
69495W        W37889   7.892  19.523  12.477
69496W        W37890  17.569  26.805  11.502
69497W        W37891  41.473  10.727  13.568
69498W        W37892  20.111  38.888   4.588
69499W        W37893  29.255  21.621   4.941
69500W        W37894  37.424  25.391  11.956
69501W        W37895   1.292  19.167  14.696
69502W        W37896  43.380  34.809  13.393
69503W        W37897  20.179  31.248  14.991
69504W        W37898  32.825  23.112   4.172
69505W        W37899  22.189   8.542  12.089
69506W        W37900  22.341  27.501  12.497
69507W        W37901  25.947  22.747  14.289
69508W        W37902   1.397  28.442  12.808
69509W        W37903  39.738  33.972   2.712
69510W        W37904  33.590  20.758   4.479
69511W        W37905  17.250  33.356  10.718
69512W        W37906  27.510  33.865   1.155
69513W        W37907   3.908   1.380   0.219
69514W        W37908  33.833  21.286   4.130
69515W        W37909  29.115  41.844   2.171
69516W        W37910  16.071   1.764   3.655
69517W        W37911  11.376   5.319  11.167
69518W        W37912  24.477  31.183   0.092
69519W        W37913  22.061   9.343   4.391
69520W        W37914  29.741   6.982  14.253
69521W        W37915  41.261  42.023   1.398
69522W        W37916  33.569  10.194   4.931
69523W        W37917  27.734   8.099  13.313
69524W        W37918  29.327   9.840   2.186
69525W        W37919  37.526  15.238   3.202
69526W        W37920  14.241   1.660   4.143
69527W        W37921  11.158   7.224   1.334
69528W        W37922  15.386  13.765  14.045
69529W        W37923   2.341  13.737   4.087
69530W        W37924   8.149  33.634  11.010
69531W        W37925   4.867  37.112  12.380
69532W        W37926  20.088  11.653  13.720
69533W        W37927  41.003  33.898  11.091
69534W        W37928  28.849   5.893  10.431
69535W        W37929  26.926  30.895  14.549
69536W        W37930  17.470  14.778   3.706
69537W        W37931  44.279  18.120   3.147
69538W        W37932  15.748  40.744   0.779
69539W        W37933  33.493  18.331  11.340
69540W        W37934  41.987   4.634   5.017
69541W        W37935  31.991  22.983   3.238
69542W        W37936   3.744  11.828  14.706
69543W        W37937  15.724  11.283   1.557
69544W        W37938   7.327  15.808   1.466
69545W        W37939  26.094   0.558  14.335
69546W        W37940  15.466  37.000  14.455
69547W        W37941  35.504  34.615  13.024
69548W        W37942  36.330  39.895  14.843
69549W        W37943  15.278  29.194  14.807
69550W        W37944  42.820  38.550  14.454
69551W        W37945  24.823   2.892  14.440
69552W        W37946  44.964  19.225  12.080
69553W        W37947   5.671  40.470   3.371
69554W        W37948  18.506  22.917  13.438
69555W        W37949  25.236  16.736   4.692
69556W        W37950  26.261   4.937   2.184
69557W        W37951  40.396  31.969  14.934
69558W        W37952   4.178  33.403   4.514
69559W        W37953  32.681  11.402   4.239
69560W        W37954  37.666  18.712   4.078
69561W        W37955  28.617  26.228  13.189
69562W        W37956  43.909  15.120  14.758
69563W        W37957   2.602  17.763   1.254
69564W        W37958  44.497  19.273  13.008
69565W        W37959  34.396  29.738  10.495
69566W        W37960  20.184  36.848  11.917
69567W        W37961  22.920  22.486  12.408
69568W        W37962  40.273  31.376   4.328
69569W        W37963   1.031  25.935  11.031
69570W        W37964  41.997  26.865   3.337
69571W        W37965   4.820  26.301   0.791
69572W        W37966  16.346  26.794   1.723
69573W        W37967  26.523  19.713  10.910
69574W        W37968  16.291   3.422   2.143
69575W        W37969  10.911  28.027  12.412
69576W        W37970  26.369  25.163  11.096
69577W        W37971  39.762   0.971   1.438
69578W        W37972  26.997  32.458   4.628
69579W        W37973  43.229  36.903   2.723
69580W        W37974  22.226   5.710  14.302
69581W        W37975  14.493  34.563  12.416
69582W        W37976  14.304  21.555   3.589
69583W        W37977  22.598  18.020  11.039
69584W        W37978  41.979  23.592  10.654
69585W        W37979  40.886  11.816   4.111
69586W        W37980  23.407  18.415   4.562
69587W        W37981  42.167  15.120  11.429
69588W        W37982   4.524  39.827   2.376
69589W        W37983  23.003  13.603   1.586
69590W        W37984   2.160  19.185  13.185
69591W        W37985  11.030   7.239   3.754
69592W        W37986  16.047   0.809  11.608
69593W        W37987   5.543  11.169  10.462
69594W        W37988   6.902  19.241   2.335
69595W        W37989  28.997  15.168  12.553
69596W        W37990  10.160  29.648   3.047
69597W        W37991   8.230   2.352   0.742
69598W        W37992   0.253   0.006   0.669
69599W        W37993  40.526   0.493  12.049
69600W        W37994  21.164  18.133  10.953
69601W        W37995  19.400  12.545   2.338
69602W        W37996  44.827   7.687  12.184
69603W        W37997  38.713  28.476   2.029
69604W        W37998  26.481   2.310   3.464
69605W        W37999  16.384  10.831   0.900
69606W        W38000  11.354   4.919   4.899
69607W        W38001   9.372   4.824  14.004
69608W        W38002  42.038  40.429  13.561
69609W        W38003   8.718  22.603   3.165
69610W        W38004  10.150  44.871  11.080
69611W        W38005  36.381   3.719  12.425
69612W        W38006  10.589  38.935  10.612
69613W        W38007  40.360   7.358  11.610
69614W        W38008  37.972  31.180  12.506
69615W        W38009   1.991  42.829  13.357
69616W        W38010  16.607   6.308  13.004
69617W        W38011  12.505   8.195  10.032
69618W        W38012  44.091   2.166   3.161
69619W        W38013   4.754  21.542  13.843
69620W        W38014  17.498  12.871  13.750
69621W        W38015  36.007   2.815   4.736
69622W        W38016   6.410  38.621  12.947
69623W        W38017  42.991   3.230   0.785
69624W        W38018  29.943   4.227  12.045
69625W        W38019  41.924  32.553   4.440
69626W        W38020  40.342  24.326  12.962
69627W        W38021  11.343  17.281  14.246
69628W        W38022   0.962  15.715   4.530
69629W        W38023   4.819  28.747  14.737
69630W        W38024  14.184  27.860   3.563
69631W        W38025  31.857  32.537  13.856
69632W        W38026  16.663  35.324  10.428
69633W        W38027  41.400   9.477   3.663
69634W        W38028  29.145  40.491  14.334
69635W        W38029   3.899  42.579   2.871
69636W        W38030   3.691  10.230   2.358
69637W        W38031  17.803  42.186   9.748
69638W        W38032  15.032  33.873  11.272
69639W        W38033  24.258  42.005   0.358
69640W        W38034  35.086  28.907   2.264
69641W        W38035  32.654  17.313   3.826
69642W        W38036  37.339  36.670  11.661
69643W        W38037  31.514  14.456   4.052
69644W        W38038  10.315  30.091   4.865
69645W        W38039  28.161  34.434   1.276
69646W        W38040  18.034  30.395  12.402
69647W        W38041  31.771   4.794  10.603
69648W        W38042  21.679   2.392   4.618
69649W        W38043   6.659  43.064  13.084
69650W        W38044   3.731  29.189  11.654
69651W        W38045  42.023  38.787   4.382
69652W        W38046  35.420  40.043  11.908
69653W        W38047  43.552  15.078   3.369
69654W        W38048  19.123  27.231  11.608
69655W        W38049   4.208   9.448   5.010
69656W        W38050   5.660  21.544  13.958
69657W        W38051  42.483   2.222   1.158
69658W        W38052   0.872  23.112   0.977
69659W        W38053  42.944  28.648   1.211
69660W        W38054  43.466   9.158  13.275
69661W        W38055  28.377  37.973  12.652
69662W        W38056  29.095   2.974   1.879
69663W        W38057  31.189   7.201  11.171
69664W        W38058  13.666  15.049  13.494
69665W        W38059  44.393   7.620   2.860
69666W        W38060   6.106  27.642  13.873
69667W        W38061  30.198  19.163   1.185
69668W        W38062  15.093  40.460   3.588
69669W        W38063  38.632  19.252   2.244
69670W        W38064  38.542  43.062   4.039
69671W        W38065  12.406   8.812   1.247
69672W        W38066  26.696   1.048   9.793
69673W        W38067  35.032  43.829  12.601
69674W        W38068   3.360  17.247  14.316
69675W        W38069  41.987  32.927  13.897
69676W        W38070  23.370  20.083   1.332
69677W        W38071  18.448  31.979  10.842
69678W        W38072  44.400   0.452   1.915
69679W        W38073   3.262  13.663  13.491
69680W        W38074   8.463  25.444  12.580
69681W        W38075  15.810  22.233   2.758
69682W        W38076  39.084   9.222   2.140
69683W        W38077  29.442   2.854  13.479
69684W        W38078  32.560  42.385  12.887
69685W        W38079   8.073  31.685  14.802
69686W        W38080  19.581  16.771  13.017
69687W        W38081   9.389  25.602  13.487
69688W        W38082  24.260  39.040   1.402
69689W        W38083  12.865  42.806  12.548
69690W        W38084  28.012  18.751  10.593
69691W        W38085  17.878  38.934   2.997
69692W        W38086  16.561   4.863  13.965
69693W        W38087   7.927  44.860  14.375
69694W        W38088   1.337  15.747  14.399
69695W        W38089   4.182  18.088   0.789
69696W        W38090   6.197  27.077   1.860
69697W        W38091  37.496  28.143   3.720
69698W        W38092  22.254  31.469  14.266
69699W        W38093  42.231  28.808  13.375
69700W        W38094   1.256   3.262   3.334
69701W        W38095   2.032  15.307  12.470
69702W        W38096  34.106  24.645   4.758
69703W        W38097  40.937  15.711  11.127
69704W        W38098  31.280   3.728   4.331
69705W        W38099  16.320  32.102  10.568
69706W        W38100  19.516   0.899   4.105
69707W        W38101   9.259  11.865   3.373
69708W        W38102  42.065  28.485   2.501
69709W        W38103  13.121   7.188   1.744
69710W        W38104  43.901   5.888  13.400
69711W        W38105  33.450   4.958  12.081
69712W        W38106  15.547  14.255  11.959
69713W        W38107  11.096   1.302   4.893
69714W        W38108   2.950  38.499  12.870
69715W        W38109  27.986  20.987   4.846
69716W        W38110  43.396  22.481   2.654
69717W        W38111   8.804  40.015  14.500
69718W        W38112  11.627  39.965  10.604
69719W        W38113  15.145  27.553  11.051
69720W        W38114  43.039  30.610   3.603
69721W        W38115  23.200   7.934  11.243
69722W        W38116  16.592  35.871   4.220
69723W        W38117  18.763  13.008   1.211
69724W        W38118   3.681  26.049   2.631
69725W        W38119  11.151  29.338  13.027
69726W        W38120  24.295  11.150   0.802
69727W        W38121   6.993  11.163   3.281
69728W        W38122  20.267  40.886  12.926
69729W        W38123  11.387  19.221   2.226
69730W        W38124  12.782  34.042   4.026
69731W        W38125  23.040  15.260   3.260
69732W        W38126  40.749  38.236   5.036
69733W        W38127  37.002   8.740   4.656
69734W        W38128  31.583  42.281  14.018
69735W        W38129  33.149  10.317  10.544
69736W        W38130  16.231  34.408   3.290
69737W        W38131  23.579  31.052   0.065
69738W        W38132   4.453  36.362   0.036
69739W        W38133   5.700  39.495   0.353
69740W        W38134   8.566  29.970   0.922
69741W        W38135  21.333   4.458  10.600
69742W        W38136  16.340  28.130  14.701
69743W        W38137   4.244   5.925   1.872
69744W        W38138  37.524  22.669   2.770
69745W        W38139  19.760  30.164   3.254
69746W        W38140   4.004  21.073  12.537
69747W        W38141   2.278  31.637   4.627
69748W        W38142  43.339  20.567  13.959
69749W        W38143   8.206   4.760  10.536
69750W        W38144   1.478  26.733   1.372
69751W        W38145  36.542  27.200   3.775
69752W        W38146  13.381  13.170  13.586
69753W        W38147  19.833   3.428   2.580
69754W        W38148  16.207  44.371   1.943
69755W        W38149  29.568  25.751   3.618
69756W        W38150   5.881  17.639   1.048
69757W        W38151  21.458   3.052   3.126
69758W        W38152  23.047  24.088   0.884
69759W        W38153  37.068  28.784   3.176
69760W        W38154  30.271  28.235   0.200
69761W        W38155  17.299   4.319  11.991
69762W        W38156  31.956   0.456  13.012
69763W        W38157  24.945  17.550   3.752
69764W        W38158  11.537   2.922  13.518
69765W        W38159  30.096  26.137  10.411
69766W        W38160  25.727  22.755   4.563
69767W        W38161  32.475   1.264  14.060
69768W        W38162  13.299   4.754   5.258
69769W        W38163  28.867  20.152   0.679
69770W        W38164  38.408  40.497  11.508
69771W        W38165  10.678   5.819   4.056
69772W        W38166  10.158  39.558  14.566
69773W        W38167  23.717  38.988  13.883
69774W        W38168  34.029  33.854  14.086
69775W        W38169   0.840  42.881  14.416
69776W        W38170   5.232  40.520   1.195
69777W        W38171  24.527  30.994   1.088
69778W        W38172  16.933   3.749  13.862
69779W        W38173  33.157   1.937   0.501
69780W        W38174  39.995  20.783  11.205
69781W        W38175  39.014  10.460   4.222
69782W        W38176  39.902   4.834  11.024
69783W        W38177   2.431  17.302  11.933
69784W        W38178   4.926  42.219  10.565
69785W        W38179  43.310   4.339   4.495
69786W        W38180  37.005   1.349   2.869
69787W        W38181  22.515  42.771   4.669
69788W        W38182  39.374   6.637   3.669
69789W        W38183  34.582   8.124   4.492
69790W        W38184  20.619  17.827  12.458
69791W        W38185  14.654  30.002  12.109
69792W        W38186   3.349  18.736   0.303
69793W        W38187  41.340   2.294   1.668
69794W        W38188  11.205   2.219   4.377
69795W        W38189  34.361  18.278  11.409
69796W        W38190  17.580  44.758  13.063
69797W        W38191  10.673  26.449  10.426
69798W        W38192  37.804  30.092  13.591
69799W        W38193  29.514  32.490  14.234
69800W        W38194  13.627  26.953   1.722
69801W        W38195  33.311   0.492   0.346
69802W        W38196  31.108  40.970   4.820
69803W        W38197  25.936  14.339  12.478
69804W        W38198  27.838   3.987   0.431
69805W        W38199  38.592  34.650  14.943
69806W        W38200   0.849   4.907   4.281
69807W        W38201  38.457  18.849   1.928
69808W        W38202  29.748   2.419   1.415
69809W        W38203  39.602   8.375   1.306
69810W        W38204   0.200   4.330  10.964
69811W        W38205  21.431  37.858   4.257
69812W        W38206  15.221  11.668  12.955
69813W        W38207   2.707  24.758   0.819
69814W        W38208  33.106  21.264   2.397
69815W        W38209   4.754  17.860  13.853
69816W        W38210  12.603  30.161  14.295
69817W        W38211   7.366  31.932   0.760
69818W        W38212  19.482  10.201   1.188
69819W        W38213  19.827  26.152  13.797
69820W        W38214  11.263  28.457   3.632
69821W        W38215  30.145  20.990  10.694
69822W        W38216  44.555  24.687   2.885
69823W        W38217   7.263  43.438   0.698
69824W        W38218  31.467  10.649  12.984
69825W        W38219   3.317  11.889   3.653
69826W        W38220  23.980  20.547   3.290
69827W        W38221  27.010   6.483  11.707
69828W        W38222  33.210  26.735   1.410
69829W        W38223  28.502  41.068   2.122
69830W        W38224   1.890   1.300  12.953
69831W        W38225  33.880  21.230   1.788
69832W        W38226   4.377  42.089  14.801
69833W        W38227  23.485   1.764  11.027
69834W        W38228  43.476  21.653   0.168
69835W        W38229  21.738   1.344  11.992
69836W        W38230   8.149  17.708  13.981
69837W        W38231  13.874  32.051  11.091
69838W        W38232  13.937   0.451  11.707
69839W        W38233  27.067  22.973  14.493
69840W        W38234  18.652  16.483  14.940
69841W        W38235   6.210  31.996   1.804
69842W        W38236  12.066   5.418   5.041
69843W        W38237  21.786  18.802   2.688
69844W        W38238   9.813  20.039  12.921
69845W        W38239  23.309  15.623  11.263
69846W        W38240  21.190   8.390   2.262
69847W        W38241  44.564  19.054   2.394
69848W        W38242   8.208   9.193  12.319
69849W        W38243  12.822  42.096  11.548
69850W        W38244   4.342  42.562   2.089
69851W        W38245  24.628  30.141   0.093
69852W        W38246  33.561  38.312  12.001
69853W        W38247  30.331  22.080  11.208
69854W        W38248  44.685   8.027  13.496
69855W        W38249  13.897  16.271  12.640
69856W        W38250  32.396  28.622  11.094
69857W        W38251  33.512  25.499   3.647
69858W        W38252   3.698  18.061  11.643
69859W        W38253  18.767  12.516  13.076
69860W        W38254  19.941  15.554   1.255
69861W        W38255  34.667  31.592   3.380
69862W        W38256  40.564   0.572   1.394
69863W        W38257  42.530  42.852   3.631
69864W        W38258  38.240  25.618   4.285
69865W        W38259  41.055  17.736   3.674
69866W        W38260  27.263  43.296  11.684
69867W        W38261  25.097  12.167   1.864
69868W        W38262   5.982  18.877   4.059
69869W        W38263  22.028  39.700  13.803
69870W        W38264   8.727  30.965  14.576
69871W        W38265  40.500  10.103  13.590
69872W        W38266  43.482  40.389   1.508
69873W        W38267  29.620  26.587  13.528
69874W        W38268  35.773  30.056  10.794
69875W        W38269  37.465  39.910  14.240
69876W        W38270  22.083  12.613   4.729
69877W        W38271  35.995  39.809  12.579
69878W        W38272   6.893  12.808  12.336
69879W        W38273  41.005  40.379   3.681
69880W        W38274  18.109  22.313   1.022
69881W        W38275  35.630  21.333   0.665
69882W        W38276  12.846  29.463  14.974
69883W        W38277  26.496  12.632  10.691
69884W        W38278  25.914  37.069  12.146
69885W        W38279   1.006  17.612   3.135
69886W        W38280  15.112  34.333  11.058
69887W        W38281  21.488  32.720  14.221
69888W        W38282  38.073  14.335  13.957
69889W        W38283   5.724  18.675  12.435
69890W        W38284  42.555   2.811  13.426
69891W        W38285  30.829  19.118   3.346
69892W        W38286  38.287  20.360  13.810
69893W        W38287  19.505  33.591  13.631
69894W        W38288  34.362  16.273   4.967
69895W        W38289  13.271   5.921   3.694
69896W        W38290  32.596  32.149  13.862
69897W        W38291  11.566  10.584  14.486
69898W        W38292  22.438  39.835  10.719
69899W        W38293   7.858  26.592  11.693
69900W        W38294  26.576  20.047   0.642
69901W        W38295  31.730   3.904  11.739
69902W        W38296   6.643  32.051  10.698
69903W        W38297  42.729  21.682   3.968
69904W        W38298   5.757  34.084  14.839
69905W        W38299  33.672  29.435   4.045
69906W        W38300  39.261  25.181   1.749
69907W        W38301  15.640  38.389   2.308
69908W        W38302  15.583  29.949  11.835
69909W        W38303  42.345  19.774   2.120
69910W        W38304  36.146   8.303   3.076
69911W        W38305  17.784  37.881  13.156
69912W        W38306   8.336  18.734  11.952
69913W        W38307  40.221  40.474   4.188
69914W        W38308  34.767  38.075  13.855
69915W        W38309  33.453   5.272  10.849
69916W        W38310  15.284  34.486   4.729
69917W        W38311  15.110  17.523  11.620
69918W        W38312  28.552  25.298  13.471
69919W        W38313  32.157   4.666  11.526
69920W        W38314  30.044  30.102   4.391
69921W        W38315  23.652  34.501  13.114
69922W        W38316  34.423  37.293   3.210
69923W        W38317   1.207   6.394   2.772
69924W        W38318  19.246  27.446  12.121
69925W        W38319  24.138  37.555   0.178
69926W        W38320   3.821  15.479  14.433
69927W        W38321   2.351  34.481   4.493
69928W        W38322   0.417  29.375  12.103
69929W        W38323  42.198   1.030   2.710
69930W        W38324  15.058  33.687  13.848
69931W        W38325  19.003  11.677   4.643
69932W        W38326  12.238  23.158   2.436
69933W        W38327  33.570  14.516  14.561
69934W        W38328  25.722  31.770   2.729
69935W        W38329  26.166  18.918  13.849
69936W        W38330  19.229  40.968   1.895
69937W        W38331  30.025  15.512  14.320
69938W        W38332  29.300   3.761   2.609
69939W        W38333  36.582   6.067   1.626
69940W        W38334  11.603   1.323  13.764
69941W        W38335  33.615  13.820   4.121
69942W        W38336  10.625  11.811   2.160
69943W        W38337  23.314   2.763   4.159
69944W        W38338  42.775  31.665   2.628
69945W        W38339   7.432  22.174  12.032
69946W        W38340  42.400  17.093  13.740
69947W        W38341  37.963   5.166   3.297
69948W        W38342  37.461  22.290   2.204
69949W        W38343  40.613  33.778   1.558
69950W        W38344  14.748  25.983  11.568
69951W        W38345  21.236  37.082  11.198
69952W        W38346  44.352  14.423   3.756
69953W        W38347  21.707  24.152  11.738
69954W        W38348  10.162  19.461  11.000
69955W        W38349  15.411  33.169  14.452
69956W        W38350   4.359  31.008  13.428
69957W        W38351  41.047  29.924   0.113
69958W        W38352  43.575   5.992   3.382
69959W        W38353  37.407  11.328  12.352
69960W        W38354  34.487  13.342  12.988
69961W        W38355  17.640  35.275   2.484
69962W        W38356  27.109  28.202   0.942
69963W        W38357  22.686  41.858  13.465
69964W        W38358  27.494  28.111  13.871
69965W        W38359  43.496  13.226  11.582
69966W        W38360  21.466  27.720  11.990
69967W        W38361  35.008  18.717  13.591
69968W        W38362   5.316  39.557   4.566
69969W        W38363   4.424  26.465   4.751
69970W        W38364   6.923   4.398  14.927
69971W        W38365   2.052  36.818   3.958
69972W        W38366  23.718  37.920   1.955
69973W        W38367   6.027  40.563   3.812
69974W        W38368   8.256  11.411  13.803
69975W        W38369  34.471  31.008  12.606
69976W        W38370  16.688   7.318  13.959
69977W        W38371  12.147  41.261   4.875
69978W        W38372  39.290  13.628   1.712
69979W        W38373  35.727  29.866   1.258
69980W        W38374  29.201  20.943   0.737
69981W        W38375  27.585  41.124   3.043
69982W        W38376  29.239  28.470  12.855
69983W        W38377  17.275   9.680   3.212
69984W        W38378  18.366  28.347  11.477
69985W        W38379  17.089  23.311   0.105
69986W        W38380  18.068  15.358  12.976
69987W        W38381  27.063  11.408   4.636
69988W        W38382  20.670   2.554   1.926
69989W        W38383   0.975  28.545   1.512
69990W        W38384  29.380  13.928   3.366
69991W        W38385  40.749  28.074   3.264
69992W        W38386  17.963   4.230   3.668
69993W        W38387  39.275   0.733  12.010
69994W        W38388  38.798  33.996   1.824
69995W        W38389  27.438  44.330  14.047
69996W        W38390  13.843  13.874   1.387
69997W        W38391  36.644  15.630  13.872
69998W        W38392   5.298   0.239  14.992
69999W        W38393  12.698  34.580  12.945
70000W        W38394  44.468   8.796   1.536
70001W        W38395   4.915  35.864  10.588
70002W        W38396  38.013  35.599  12.431
70003W        W38397  30.414  29.939   2.514
70004W        W38398  40.259  31.443  11.807
70005W        W38399  33.543   6.128   3.162
70006W        W38400  10.148   1.628  11.875
70007W        W38401  29.909  18.195  10.587
70008W        W38402  11.832  24.653   1.826
70009W        W38403   1.973  24.481  11.590
70010W        W38404  43.650  26.399  13.877
70011W        W38405  39.747   4.370   3.824
70012W        W38406  41.872   3.427   2.810
70013W        W38407  31.875  40.037  11.423
70014W        W38408  30.188  36.825  13.002
70015W        W38409  44.371   8.000  10.702
70016W        W38410  11.266  13.522   1.199
70017W        W38411  16.365  21.037   1.025
70018W        W38412  10.823  38.324  11.575
70019W        W38413  40.032   8.803  14.477
70020W        W38414   0.156  15.940   2.654
70021W        W38415  41.950  20.467  13.038
70022W        W38416  33.830  31.017   2.553
70023W        W38417   5.810  10.257   1.635
70024W        W38418  25.568  29.444   0.803
70025W        W38419  15.621  25.950   4.591
70026W        W38420   1.826   8.248   3.238
70027W        W38421  13.641  17.418   1.086
70028W        W38422   6.287  20.092   4.078
70029W        W38423  40.877  32.430   3.493
70030W        W38424   3.179   9.584  13.572
70031W        W38425  19.282  30.106   3.070
70032W        W38426  33.856  39.347  14.970
70033W        W38427  18.719  42.034  13.286
70034W        W38428  29.223  44.765   3.232
70035W        W38429   5.751  31.405   1.512
70036W        W38430  10.259  40.291   1.777
70037W        W38431  10.558  24.677   4.542
70038W        W38432   0.117  41.907  12.951
70039W        W38433  23.153  20.247  11.202
70040W        W38434  34.845   3.275  11.569
70041W        W38435  29.688  35.952   4.689
70042W        W38436  27.754  20.626   3.703
70043W        W38437  44.758  17.783  14.992
70044W        W38438  36.792   2.039   4.162
70045W        W38439   8.145   0.725  14.370
70046W        W38440  13.763  37.972  10.413
70047W        W38441  33.360   0.751   4.807
70048W        W38442  19.985   3.844  11.433
70049W        W38443  14.581  35.951   0.357
70050W        W38444   6.208   6.981   2.729
70051W        W38445   9.403  24.780  13.974
70052W        W38446   4.311  22.021   0.430
70053W        W38447  11.395   8.753  14.988
70054W        W38448  27.492  19.568   1.256
70055W        W38449  17.929   4.298   1.466
70056W        W38450  42.854  18.630   3.694
70057W        W38451  41.350  34.763   3.846
70058W        W38452  32.309  43.427  13.574
70059W        W38453  22.781  12.615  13.824
70060W        W38454  23.822  14.719  14.969
70061W        W38455  11.695  21.068   3.234
70062W        W38456  11.817  17.975  10.144
70063W        W38457   1.052   8.292  13.843
70064W        W38458  20.282  14.515  10.921
70065W        W38459  18.087  25.734   3.780
70066W        W38460  36.169  11.733   2.913
70067W        W38461  41.570  11.362  12.183
70068W        W38462   9.067  34.033   2.808
70069W        W38463  19.749   6.117  14.451
70070W        W38464  41.412  16.235  14.975
70071W        W38465  32.355   0.884   1.736
70072W        W38466  34.786  27.195  14.737
70073W        W38467  40.793  30.029  14.690
70074W        W38468   0.025   3.964   2.194
70075W        W38469  25.467  23.656  13.015
70076W        W38470  38.397   3.679  11.167
70077W        W38471  41.866  36.436   0.746
70078W        W38472   0.991   8.992  13.455
70079W        W38473  31.125   9.129  13.792
70080W        W38474  21.714  28.257   4.911
70081W        W38475   3.967  11.332  10.666
70082W        W38476  42.046  41.267  14.638
70083W        W38477  24.543  21.531  14.845
70084W        W38478   1.720   7.834   0.798
70085W        W38479  34.499  29.737  10.995
70086W        W38480   4.410  29.137   2.286
70087W        W38481   7.476  43.515  12.966
70088W        W38482   7.755  37.164  14.753
70089W        W38483  42.906  37.467  10.347
70090W        W38484  13.864  20.318  12.974
70091W        W38485  24.959   1.989   4.087
70092W        W38486  23.948  22.794  12.575
70093W        W38487  17.672   1.977  12.084
70094W        W38488  41.996  10.916  14.962
70095W        W38489  22.744  22.092   0.404
70096W        W38490  30.072   8.191   2.410
70097W        W38491  21.185  14.722  14.385
70098W        W38492  18.527  22.345   4.104
70099W        W38493  22.501  21.745   4.755
70100W        W38494  15.266   3.273  14.810
70101W        W38495  34.039  13.096  12.877
70102W        W38496  24.190  19.480  12.258
70103W        W38497   3.673  35.153   2.305
70104W        W38498   3.995   6.664   4.628
70105W        W38499  34.368  44.916  14.010
70106W        W38500  24.246   2.872   4.223
70107W        W38501  42.021  40.483   2.899
70108W        W38502   3.194   2.213   2.718
70109W        W38503  10.934  30.583  13.323
70110W        W38504  13.482   5.322  12.974
70111W        W38505  38.114   0.014   3.771
70112W        W38506  21.143  12.788  11.201
70113W        W38507   8.493  38.369  12.471
70114W        W38508  25.011  27.559  14.133
70115W        W38509  16.786  25.130  10.723
70116W        W38510  30.656   9.407  11.176
70117W        W38511  31.002  19.697  11.534
70118W        W38512  39.364  16.028   4.855
70119W        W38513  24.145   2.724  11.486
70120W        W38514  22.168   5.272   4.121
70121W        W38515  26.488  26.487  10.350
70122W        W38516  16.072  17.621  11.986
70123W        W38517  40.355   1.899   1.324
70124W        W38518  21.617   3.073   2.626
70125W        W38519  14.683  44.955  14.844
70126W        W38520  11.755  13.098   3.169
70127W        W38521  43.495  31.953   2.369
70128W        W38522  13.755  33.950   0.741
70129W        W38523  38.086  11.746  13.437
70130W        W38524  44.220   9.858   3.275
70131W        W38525  42.957  30.626  14.960
70132W        W38526  44.251   9.324  12.072
70133W        W38527  31.840   4.220  13.937
70134W        W38528  43.757  40.342  14.014
70135W        W38529   6.193   1.762  11.165
70136W        W38530   2.163  16.721   3.433
70137W        W38531  16.751  12.164  12.415
70138W        W38532  10.788  27.930  12.967
70139W        W38533  25.273   2.859   2.173
70140W        W38534  39.280  33.912  11.513
70141W        W38535  18.529  19.081   0.457
70142W        W38536  42.152  34.455  14.853
70143W        W38537  13.183  34.672  13.635
70144W        W38538  24.575   0.202   3.078
70145W        W38539  30.478   5.874   4.663
70146W        W38540  38.555  35.541   4.640
70147W        W38541  19.102  29.880   0.367
70148W        W38542  38.863   8.219  13.569
70149W        W38543  21.116  25.043  10.675
70150W        W38544   3.827  11.214  13.490
70151W        W38545  18.632  16.887  13.444
70152W        W38546  12.642  19.331  11.962
70153W        W38547  18.801  26.540  13.169
70154W        W38548  43.993  25.972   0.954
70155W        W38549   1.482  11.244   3.084
70156W        W38550  19.747  20.414  14.576
70157W        W38551  30.966   9.235  14.283
70158W        W38552  18.132  20.974  12.620
70159W        W38553  43.387   6.020  13.967
70160W        W38554  41.856   2.655   3.433
70161W        W38555   8.835  15.627  13.827
70162W        W38556   3.981   3.752   1.666
70163W        W38557  35.045  36.024  11.491
70164W        W38558  33.048  21.883   1.219
70165W        W38559  32.546  33.931   1.377
70166W        W38560  33.078  31.909   0.077
70167W        W38561  40.938   5.253  12.098
70168W        W38562  23.017  30.047   1.797
70169W        W38563  19.992  26.518   3.776
70170W        W38564  15.703  34.464   0.839
70171W        W38565  23.881  29.124  12.949
70172W        W38566  41.378  10.933   3.195
70173W        W38567  40.043  11.391  12.829
70174W        W38568  17.640  28.539  11.163
70175W        W38569   4.912  32.874   1.848
70176W        W38570  13.392  31.947  12.039
70177W        W38571   4.910   6.839  12.607
70178W        W38572  31.921  30.116   1.505
70179W        W38573  25.212  29.927  10.468
70180W        W38574  44.453  39.265   3.673
70181W        W38575  28.190   4.858   5.082
70182W        W38576  19.605   4.412  13.481
70183W        W38577  10.645  11.918   0.786
70184W        W38578  13.591   9.916   1.799
70185W        W38579  24.068  27.040  11.432
70186W        W38580  18.691   7.760  13.899
70187W        W38581  30.489  12.570  13.577
70188W        W38582  28.139   2.125   3.323
70189W        W38583  36.148  22.187   4.187
70190W        W38584   4.972  16.161   1.988
70191W        W38585  32.932  20.495   1.790
70192W        W38586  39.324  23.419   0.955
70193W        W38587   8.103  38.112  11.074
70194W        W38588  17.804  12.428  14.803
70195W        W38589  34.309  14.294   3.753
70196W        W38590  14.761  39.412  13.953
70197W        W38591  10.368  38.206  11.242
70198W        W38592  42.955  11.739   3.664
70199W        W38593  43.350  20.111  14.401
70200W        W38594   8.713  38.152   2.140
70201W        W38595  38.405  43.234  10.673
70202W        W38596  18.323  20.971   1.276
70203W        W38597  41.833  14.837   3.677
70204W        W38598  27.294   5.290  12.011
70205W        W38599  22.325  10.708   1.793
70206W        W38600  14.311  43.393   1.194
70207W        W38601  25.027   6.234   3.591
70208W        W38602  31.430  20.059  13.774
70209W        W38603  17.128  40.509   1.266
70210W        W38604  26.149  25.715   3.729
70211W        W38605  26.308  11.734  14.003
70212W        W38606   1.385   3.972   0.012
70213W        W38607  10.302  24.565  12.121
70214W        W38608  32.855  42.008   0.105
70215W        W38609   5.396  25.800  13.815
70216W        W38610   6.578   9.292   3.820
70217W        W38611   0.115  38.829   3.872
70218W        W38612  31.886  16.128   3.321
70219W        W38613  16.788  41.364   3.736
70220W        W38614  21.332  11.831  11.500
70221W        W38615   0.818   9.716  14.558
70222W        W38616   0.272   8.716  14.049
70223W        W38617  36.127  12.176   1.321
70224W        W38618   5.941  10.392  12.321
70225W        W38619  36.085  27.832  12.496
70226W        W38620   4.199   9.224   3.629
70227W        W38621  11.123  13.629  10.673
70228W        W38622   8.747  25.962  13.891
70229W        W38623  26.197   5.788   5.092
70230W        W38624  18.449  18.203   0.630
70231W        W38625  15.443  30.155  10.139
70232W        W38626  17.690   0.540  13.440
70233W        W38627  43.479  13.651   5.090
70234W        W38628  17.186  24.161  12.838
70235W        W38629  28.384  15.705  12.994
70236W        W38630  36.550  32.137   0.089
70237W        W38631  36.889  15.591  11.939
70238W        W38632  24.279  32.496   4.528
70239W        W38633   4.375  14.129  10.732
70240W        W38634  33.528  31.918  14.362
70241W        W38635  14.668  20.594   0.854
70242W        W38636   1.180  41.492  13.298
70243W        W38637  23.697  33.509   0.881
70244W        W38638  29.047  17.328  10.682
70245W        W38639   6.147  32.094  12.806
70246W        W38640   4.913  23.271   2.580
70247W        W38641   2.899  15.614  10.783
70248W        W38642  30.129  21.325   4.564
70249W        W38643  38.506  27.425   2.880
70250W        W38644   0.666  44.494  12.671
70251W        W38645  40.404  24.603   0.345
70252W        W38646  42.265   3.435   1.903
70253W        W38647   2.153  40.312   3.251
70254W        W38648  38.250  20.804  11.122
70255W        W38649  38.046   1.390   4.103
70256W        W38650   6.307  12.330   0.626
70257W        W38651  18.890  13.153  11.966
70258W        W38652  12.592  23.239  10.643
70259W        W38653  14.682  22.181   4.075
70260W        W38654  21.434  24.262  10.240
70261W        W38655  44.322  15.131  11.671
70262W        W38656  44.860  27.927   2.171
70263W        W38657  28.603  36.925   1.727
70264W        W38658  44.940   4.803   1.878
70265W        W38659  14.177  41.458  13.096
70266W        W38660  16.884  26.955   2.918
70267W        W38661  20.992  26.559   1.282
70268W        W38662  21.606   4.260  14.985
70269W        W38663   2.057   2.935   3.652
70270W        W38664  13.434   4.818  12.914
70271W        W38665  14.118  42.956  12.156
70272W        W38666  36.404  38.821  13.894
70273W        W38667  15.779  28.085   3.849
70274W        W38668  17.678  29.171  12.830
70275W        W38669  29.730  10.052  12.560
70276W        W38670  38.507  32.940   1.381
70277W        W38671  40.883  21.560  12.108
70278W        W38672  42.076  18.120  10.561
70279W        W38673  22.622   0.908   2.915
70280W        W38674  37.349  11.332   2.678
70281W        W38675   6.859  15.088   3.394
70282W        W38676  19.963   1.392  13.348
70283W        W38677  24.588   9.255  10.783
70284W        W38678   6.863   1.347   0.312
70285W        W38679  41.804   3.746   4.178
70286W        W38680   8.693   6.705   3.227
70287W        W38681  25.734  18.094   0.435
70288W        W38682  14.520  26.639  13.663
70289W        W38683  39.484  11.568   4.781
70290W        W38684  36.695  33.624   4.488
70291W        W38685   4.863  32.741   0.412
70292W        W38686  25.634  40.275   4.766
70293W        W38687  20.829  44.090   4.713
70294W        W38688  29.485  15.380   3.355
70295W        W38689  26.650  36.672  10.769
70296W        W38690  30.864   5.763  10.781
70297W        W38691  34.883   8.271   0.888
70298W        W38692  19.212  30.025  11.636
70299W        W38693  30.848   0.109  11.098
70300W        W38694  34.359  39.553   4.145
70301W        W38695  15.560  30.932  11.630
70302W        W38696  42.102  39.985  14.779
70303W        W38697  39.129  42.402   2.406
70304W        W38698   7.786  35.944  11.018
70305W        W38699  24.907  18.271  13.589
70306W        W38700  21.349  26.172   0.778
70307W        W38701  32.079  27.294  12.788
70308W        W38702  16.106  30.518   0.165
70309W        W38703  11.147  44.143  12.741
70310W        W38704  28.547  32.798   2.714
70311W        W38705  27.258   1.853  14.723
70312W        W38706  19.188  23.594  10.723
70313W        W38707  22.151  23.197  14.437
70314W        W38708  10.353  21.496   3.374
70315W        W38709  33.625   5.746  10.725
70316W        W38710  13.157  39.338   2.523
70317W        W38711  12.731   4.258  10.102
70318W        W38712  42.028   7.702   3.610
70319W        W38713  15.421  21.020   0.813
70320W        W38714  41.083  22.767   3.955
70321W        W38715  20.666   3.357   3.651
70322W        W38716   2.693   6.535   0.449
70323W        W38717  19.618  11.823  12.957
70324W        W38718   4.400  13.657  14.961
70325W        W38719  13.884  34.820   4.062
70326W        W38720  11.289  12.199  10.815
70327W        W38721  16.540   0.817  13.865
70328W        W38722  26.013  23.079   3.749
70329W        W38723  34.301   2.240  12.902
70330W        W38724  17.242  17.823   3.203
70331W        W38725  38.246  43.313   2.800
70332W        W38726  27.642   6.297   2.416
70333W        W38727  17.718   9.347  11.275
70334W        W38728   9.054  23.944   1.348
70335W        W38729  38.871  30.437   2.601
70336W        W38730  27.185  28.864  12.779
70337W        W38731   4.152  35.971   3.862
70338W        W38732  43.820   2.981  14.758
70339W        W38733  17.670   4.550   4.872
70340W        W38734  21.996  13.613  13.923
70341W        W38735  28.852  14.706   3.657
70342W        W38736  17.361  36.921  11.720
70343W        W38737  43.351   1.564  12.858
70344W        W38738  29.561  23.832  10.664
70345W        W38739  24.032   0.452  12.114
70346W        W38740  37.286  19.095  10.767
70347W        W38741  41.115  20.001   0.584
70348W        W38742  37.116  22.283   3.319
70349W        W38743  14.654  36.561   1.303
70350W        W38744   9.715  40.583   4.779
70351W        W38745  21.163  28.471   0.359
70352W        W38746  39.316  10.273   1.237
70353W        W38747   4.689  40.357   0.302
70354W        W38748  37.376  16.266   4.169
70355W        W38749  31.965  42.052   1.862
70356W        W38750  26.392   8.013   0.860
70357W        W38751   0.502  39.140   1.722
70358W        W38752  38.955  32.461   3.770
70359W        W38753  36.334   2.894  10.966
70360W        W38754  28.084  25.500  13.411
70361W        W38755  12.151  34.617   0.687
70362W        W38756  40.484  21.832  10.706
70363W        W38757  42.397  24.523   4.960
70364W        W38758  39.311  28.704  11.431
70365W        W38759  39.429  40.580   0.217
70366W        W38760  37.360  29.281  14.766
70367W        W38761  12.598  14.885   1.908
70368W        W38762  31.441  10.726   2.264
70369W        W38763  33.424  10.587   4.093
70370W        W38764  31.837  17.785  14.528
70371W        W38765  24.713  10.623  12.925
70372W        W38766   9.157  29.698  12.953
70373W        W38767  32.068  24.268   4.153
70374W        W38768   9.412  31.857  14.769
70375W        W38769   8.858  32.799   2.452
70376W        W38770   7.651  37.682  13.931
70377W        W38771  19.796  20.444  10.987
70378W        W38772  23.367  15.113  13.503
70379W        W38773  40.240  28.518   2.197
70380W        W38774  39.811  18.217   4.871
70381W        W38775   7.923   0.500  10.715
70382W        W38776   1.936  27.396  13.681
70383W        W38777  14.855  20.902  10.873
70384W        W38778  30.259  36.962   2.643
70385W        W38779  20.199  29.532   3.829
70386W        W38780  40.889  44.037  14.261
70387W        W38781  32.580  36.572   2.814
70388W        W38782  38.778  25.047   1.848
70389W        W38783  14.589  24.710  13.624
70390W        W38784  43.377  19.730   3.802
70391W        W38785   0.267  34.119   2.605
70392W        W38786  10.267  12.777   1.270
70393W        W38787  10.638  31.700  13.529
70394W        W38788  25.818   9.166  14.341
70395W        W38789   4.601  42.553  14.496
70396W        W38790  15.126   4.029  13.448
70397W        W38791   1.415  26.090   3.622
70398W        W38792  43.531  34.265   3.200
70399W        W38793  26.126  29.979  12.452
70400W        W38794  12.590   0.465  11.249
70401W        W38795  25.593  25.358   1.587
70402W        W38796  10.282  28.602  13.972
70403W        W38797  19.976   7.844  14.314
70404W        W38798   9.683   9.910  14.010
70405W        W38799  26.429  36.049   2.127
70406W        W38800  19.838  40.711   3.410
70407W        W38801  12.784   6.186   4.616
70408W        W38802  37.059  30.062   3.361
70409W        W38803  21.206  35.952  12.085
70410W        W38804   1.025  27.970   0.748
70411W        W38805  19.908  31.970   1.500
70412W        W38806  43.954  13.642  10.716
70413W        W38807  24.731  34.631   0.342
70414W        W38808  32.369  38.733   3.727
70415W        W38809  31.837  12.418   0.729
70416W        W38810  20.832  24.725   2.750
70417W        W38811   5.957  29.920  11.840
70418W        W38812  10.576  26.713  14.427
70419W        W38813  44.917   8.620   0.227
70420W        W38814  18.761   4.798  14.200
70421W        W38815  34.981  42.788   3.629
70422W        W38816   4.294  30.854  11.318
70423W        W38817  33.365  17.786  13.576
70424W        W38818   3.206   8.257  14.150
70425W        W38819  42.223  31.825   9.957
70426W        W38820  33.415  32.173   0.382
70427W        W38821   8.782  18.218  14.865
70428W        W38822  13.196  10.882   2.128
70429W        W38823   2.841   0.032   4.076
70430W        W38824  38.803   1.661  10.302
70431W        W38825  19.916  14.400  13.570
70432W        W38826   6.706  29.473  11.747
70433W        W38827  34.263  10.296   0.367
70434W        W38828  42.423   7.063  11.557
70435W        W38829  41.516  40.533   4.586
70436W        W38830  22.690  43.983   4.637
70437W        W38831  40.829  37.528  11.132
70438W        W38832   8.854  20.012  13.028
70439W        W38833  24.823  41.780  14.491
70440W        W38834  26.055  17.743  10.682
70441W        W38835   6.245   3.003  13.075
70442W        W38836  18.312  29.503  14.866
70443W        W38837  10.426  15.812   0.880
70444W        W38838  14.339  26.148   0.239
70445W        W38839  10.847  29.529  11.668
70446W        W38840   3.863   7.868   3.360
70447W        W38841  43.440  14.903   0.191
70448W        W38842  27.970   2.051  12.960
70449W        W38843  15.776   4.954   3.602
70450W        W38844  25.629  36.983   4.026
70451W        W38845  18.836   1.773   1.828
70452W        W38846   7.649  33.524  11.121
70453W        W38847   6.729  11.300   3.766
70454W        W38848  28.926   2.729  11.061
70455W        W38849  27.617  12.756   3.267
70456W        W38850  26.152  20.350   0.824
70457W        W38851  13.012  27.063   0.264
70458W        W38852   1.066  14.574   2.246
70459W        W38853  19.987  10.872   2.363
70460W        W38854  39.395  10.528   3.866
70461W        W38855  29.928  35.901   0.941
70462W        W38856   3.078  26.328   4.100
70463W        W38857  11.426  44.262  14.669
70464W        W38858   4.186  13.020   1.241
70465W        W38859  29.972  44.909   1.783
70466W        W38860  36.986  43.576   0.390
70467W        W38861  24.187  44.780   0.366
70468W        W38862  24.076   0.298  14.440
70469W        W38863  37.923  10.647   2.636
70470W        W38864   5.318   6.314  11.460
70471W        W38865  25.965   6.403  12.837
70472W        W38866  39.730   2.388  12.529
70473W        W38867  18.144  16.445   5.394
70474W        W38868  15.266  41.837   0.320
70475W        W38869  16.185  44.223  12.428
70476W        W38870  14.249  20.316   4.667
70477W        W38871  40.617  30.802  14.025
70478W        W38872  22.785  24.028   3.766
70479W        W38873  35.576  39.431   1.224
70480W        W38874  31.525  34.496   3.764
70481W        W38875   7.564  40.218  11.449
70482W        W38876  28.410   6.643  10.424
70483W        W38877  39.370   6.349   4.107
70484W        W38878  25.799   9.745  13.004
70485W        W38879   2.443   6.754  13.379
70486W        W38880  31.330  43.393   4.062
70487W        W38881  14.710  37.054  12.777
70488W        W38882  35.837   9.018  13.429
70489W        W38883  20.596  10.263  11.284
70490W        W38884  10.345  36.808   2.737
70491W        W38885  21.454  19.156   1.715
70492W        W38886  43.516  25.941   3.255
70493W        W38887  28.560   4.741   2.407
70494W        W38888  22.301  26.502   1.623
70495W        W38889  18.354  40.998   5.083
70496W        W38890  12.192  25.640   2.626
70497W        W38891  34.172  33.375   4.681
70498W        W38892  11.794  18.129  14.409
70499W        W38893   9.286  39.231   0.547
70500W        W38894   5.708  15.999   4.671
70501W        W38895  25.538  28.046  12.679
70502W        W38896  40.296  42.922   0.275
70503W        W38897  37.301   5.087  12.343
70504W        W38898  25.083  27.652  10.857
70505W        W38899  24.518   5.901   2.418
70506W        W38900   7.406  29.001   0.316
70507W        W38901   5.872  10.801  14.802
70508W        W38902   8.546  26.237  14.296
70509W        W38903  20.326  24.655   4.581
70510W        W38904  36.470  39.370  14.843
70511W        W38905  36.981  14.638  11.932
70512W        W38906  34.031  40.930  12.073
70513W        W38907  38.612   1.410   1.803
70514W        W38908  43.087  23.520  13.826
70515W        W38909  41.440  25.629  14.314
70516W        W38910  31.446   0.285  12.456
70517W        W38911   8.055  23.202  12.070
70518W        W38912  11.456  12.854   4.076
70519W        W38913  39.120   2.388   0.466
70520W        W38914  35.755  32.175   0.494
70521W        W38915  29.668  42.026   0.696
70522W        W38916   7.340  33.674  13.988
70523W        W38917   6.954  34.999  12.498
70524W        W38918  44.746  24.532  11.891
70525W        W38919  13.845   8.911   3.645
70526W        W38920  43.953  26.326  11.042
70527W        W38921  34.637  37.131  13.941
70528W        W38922   9.517  21.179  10.194
70529W        W38923  18.323   7.204   1.011
70530W        W38924   0.920   1.029   2.448
70531W        W38925  42.563  18.904  14.414
70532W        W38926  17.100  11.340   4.311
70533W        W38927  20.986  13.298  11.998
70534W        W38928   0.722  41.361   4.698
70535W        W38929  35.932  26.184   0.207
70536W        W38930   1.515  17.696   2.163
70537W        W38931   2.744  11.806   4.312
70538W        W38932   8.895  44.555  14.413
70539W        W38933   8.939  21.302   2.343
70540W        W38934  39.730  22.141   3.520
70541W        W38935  15.600  30.528   2.665
70542W        W38936   3.172  14.375  12.063
70543W        W38937  42.442   4.728   5.250
70544W        W38938  44.311  19.799  12.190
70545W        W38939   2.919   5.474  12.114
70546W        W38940  43.997  11.444  12.996
70547W        W38941   4.980  40.049  11.108
70548W        W38942  10.739  16.637  11.708
70549W        W38943   6.985  37.853  13.884
70550W        W38944   6.854   1.728   1.282
70551W        W38945  31.893  36.216  14.560
70552W        W38946  24.860  29.153  13.974
70553W        W38947  16.809  34.759  10.683
70554W        W38948  17.917  24.147  13.357
70555W        W38949  27.087  32.430   3.262
70556W        W38950  13.063  14.746  14.208
70557W        W38951  42.017  37.982  12.306
70558W        W38952   7.877  30.007  13.038
70559W        W38953  20.133  34.407   0.545
70560W        W38954   8.233   7.866   2.177
70561W        W38955  21.203  37.497   4.566
70562W        W38956  15.293  29.507   1.280
70563W        W38957  14.449   2.384  13.375
70564W        W38958  36.528  20.436   1.674
70565W        W38959  28.488  44.227  12.891
70566W        W38960  44.345   8.071  14.778
70567W        W38961  20.171  27.505   2.163
70568W        W38962  26.625  29.339   2.747
70569W        W38963  20.674  12.465   3.374
70570W        W38964  38.479   6.155   0.473
70571W        W38965  25.573  34.775  12.324
70572W        W38966  13.030  21.205  12.436
70573W        W38967  43.654  20.841   2.243
70574W        W38968  31.054  27.646   1.338
70575W        W38969  19.964  14.454  11.622
70576W        W38970  44.349   2.751  13.018
70577W        W38971  26.529  15.224   3.270
70578W        W38972  35.466  15.603  14.442
70579W        W38973  34.046  38.841   0.101
70580W        W38974   5.759  29.665   1.838
70581W        W38975  20.558  43.995   0.228
70582W        W38976  26.697  26.631   1.451
70583W        W38977   0.866  33.535  11.917
70584W        W38978  10.428  28.481   2.381
70585W        W38979  22.245  21.014  14.761
70586W        W38980  20.574  11.315   2.758
70587W        W38981  36.315   8.377  13.474
70588W        W38982  22.930  13.655  14.309
70589W        W38983   4.625  28.710   3.832
70590W        W38984   4.622   0.715  12.673
70591W        W38985  10.077  40.415  12.487
70592W        W38986  14.033  41.402   0.019
70593W        W38987  27.579  30.938   2.674
70594W        W38988  11.146  11.261  13.379
70595W        W38989  16.278  39.275   2.439
70596W        W38990  15.793  24.978  13.807
70597W        W38991  44.417  31.453  10.798
70598W        W38992   2.928  38.047   3.662
70599W        W38993  25.488  41.756   4.340
70600W        W38994  23.554  19.736   3.750
70601W        W38995   6.347   5.423   5.078
70602W        W38996  27.606   8.872   0.794
70603W        W38997  41.841  36.961   2.637
70604W        W38998  13.223   5.447  10.125
70605W        W38999  10.910   6.425   3.355
70606W        W39000  26.973  16.789   2.787
70607W        W39001  19.875  37.903   0.492
70608W        W39002   1.417  38.065  14.729
70609W        W39003  38.940  19.187  12.483
70610W        W39004  27.432  16.183  14.074
70611W        W39005  23.167   4.364   3.518
70612W        W39006  39.268  41.063  11.616
70613W        W39007   6.763  32.710   3.619
70614W        W39008  11.243  31.834   0.413
70615W        W39009  11.087  38.019  10.608
70616W        W39010  30.737   6.466  11.529
70617W        W39011  16.196  18.290   0.430
70618W        W39012   3.329  33.671   0.746
70619W        W39013  19.506  29.205   2.329
70620W        W39014  33.602  27.733  14.336
70621W        W39015  43.611   0.898   3.162
70622W        W39016  31.234  22.331  12.695
70623W        W39017  38.555   5.848  13.896
70624W        W39018  13.607   0.820  13.833
70625W        W39019  31.747  38.687  14.525
70626W        W39020  43.439  41.425  12.069
70627W        W39021  20.126  20.803  11.147
70628W        W39022  10.648  27.962  14.817
70629W        W39023   6.189  29.621  14.819
70630W        W39024  36.515   2.807  12.368
70631W        W39025   2.132  23.711  13.124
70632W        W39026  30.354  18.532   2.573
70633W        W39027  41.789  10.653  10.461
70634W        W39028  44.522  38.678  13.781
70635W        W39029   1.199  41.551   4.878
70636W        W39030  23.495   1.664  12.736
70637W        W39031  25.004  28.425  13.549
70638W        W39032  38.348  19.292   0.627
70639W        W39033   4.463  19.698  13.621
70640W        W39034  25.635  44.950  14.526
70641W        W39035  14.391  34.326  14.020
70642W        W39036  11.188  10.739   1.217
70643W        W39037  30.642  34.010   1.922
70644W        W39038  33.945  21.789  12.922
70645W        W39039  27.108   6.278  12.169
70646W        W39040  44.131   3.432  14.864
70647W        W39041  23.586  43.594  10.737
70648W        W39042  31.409   9.450  13.521
70649W        W39043  42.827  38.308  11.578
70650W        W39044  13.933  19.273  11.245
70651W        W39045  22.076  27.251   0.818
70652W        W39046  42.288  40.182  11.258
70653W        W39047  16.895  37.011  13.356
70654W        W39048  34.665  24.670   1.573
70655W        W39049  25.858  14.053  10.776
70656W        W39050  39.077   5.178   1.752
70657W        W39051  42.364  35.982   9.772
70658W        W39052  20.712  22.234   3.864
70659W        W39053  32.709  33.971  13.920
70660W        W39054  24.921   7.552   0.534
70661W        W39055   5.338  33.008   3.818
70662W        W39056  33.837  44.402   4.328
70663W        W39057  12.331   3.955  12.001
70664W        W39058  42.780  37.153   2.666
70665W        W39059  24.712  31.410   4.323
70666W        W39060  28.912  37.410   0.952
70667W        W39061  15.960  43.348  11.853
70668W        W39062  22.636  35.510  13.818
70669W        W39063  36.277  41.418   1.305
70670W        W39064   9.202  32.494   1.787
70671W        W39065  24.550  14.089  11.146
70672W        W39066   4.671  12.814   0.923
70673W        W39067  32.409  37.987   3.180
70674W        W39068   9.618   2.656   2.643
70675W        W39069  23.136  34.980  10.635
70676W        W39070  31.533  23.589   3.692
70677W        W39071  18.335  42.462   1.829
70678W        W39072   9.385  42.838   4.069
70679W        W39073  31.186  10.205  12.929
70680W        W39074  31.212  31.642   0.414
70681W        W39075  42.908  16.163   0.913
70682W        W39076  15.139   8.405   0.335
70683W        W39077  37.743  26.173  11.207
70684W        W39078  31.447   7.668   2.358
70685W        W39079  31.656  13.204   2.327
70686W        W39080  12.117  26.056  13.135
70687W        W39081  15.151  41.719   1.335
70688W        W39082  30.824   5.338   0.383
70689W        W39083  13.759  37.614  10.003
70690W        W39084  14.571  11.640  13.241
70691W        W39085   1.902  41.397   1.457
70692W        W39086  28.540  15.291   1.294
70693W        W39087   4.416  43.096  14.797
70694W        W39088  29.235  19.053  12.413
70695W        W39089   3.307  27.257   4.955
70696W        W39090   8.648  11.049  13.120
70697W        W39091  41.123  34.521  10.573
70698W        W39092  33.915  18.338   0.363
70699W        W39093  14.757  17.313   4.118
70700W        W39094  26.141  37.532  11.991
70701W        W39095  40.896  22.943   3.162
70702W        W39096  32.266   4.808   3.799
70703W        W39097  20.682  11.144   3.780
70704W        W39098  41.872  35.356  11.637
70705W        W39099  32.972   4.133   4.211
70706W        W39100  24.425  28.789  13.895
70707W        W39101  17.598   2.671  10.667
70708W        W39102  25.474  31.964  12.614
70709W        W39103   4.004   7.958   1.217
70710W        W39104  41.964   3.034  11.648
70711W        W39105   0.131  26.706  14.387
70712W        W39106  37.542  42.107  11.992
70713W        W39107   6.743  37.344   0.770
70714W        W39108   2.269  19.306   0.247
70715W        W39109   3.379   9.543  11.011
70716W        W39110  23.782  16.225  13.543
70717W        W39111  29.000   8.169   0.978
70718W        W39112  14.703  13.642   1.031
70719W        W39113  38.800  38.457  10.666
70720W        W39114   5.055  33.966   0.704
70721W        W39115  44.958  41.412  13.023
70722W        W39116   5.905  23.063   4.731
70723W        W39117  16.421  41.433  12.079
70724W        W39118   6.140  39.017   2.313
70725W        W39119  26.000  24.529   1.901
70726W        W39120  20.165  44.772  11.661
70727W        W39121   3.033  33.147  12.999
70728W        W39122   8.387   3.507  11.967
70729W        W39123  17.759   4.968  13.365
70730W        W39124  22.401   2.158   1.673
70731W        W39125  29.763   8.684  12.382
70732W        W39126  13.582  15.206   0.756
70733W        W39127  33.912  26.414   0.906
70734W        W39128  10.467   6.770  14.114
70735W        W39129  33.856  24.586  14.510
70736W        W39130  14.462  39.562   2.713
70737W        W39131  21.457   1.837  12.396
70738W        W39132   4.872  40.273   2.711
70739W        W39133  30.538   4.677   3.627
70740W        W39134  18.205   1.802  14.303
70741W        W39135  28.351  41.816   0.226
70742W        W39136   3.562  15.095  14.682
70743W        W39137   3.377  15.811  10.726
70744W        W39138  26.606  33.981  13.883
70745W        W39139  15.839  12.602   0.996
70746W        W39140  27.308   1.366   1.584
70747W        W39141   3.682  24.544  14.406
70748W        W39142  35.373  14.598   3.349
70749W        W39143  12.334   2.252   0.076
70750W        W39144  18.926  11.232   4.304
70751W        W39145   7.427  10.253   4.580
70752W        W39146  41.012  25.163  12.098
70753W        W39147  35.096  24.403   3.692
70754W        W39148  22.979  34.907  14.343
70755W        W39149  15.736  11.033  13.302
70756W        W39150  16.600  28.480   0.861
70757W        W39151  30.688  14.727   0.182
70758W        W39152  36.324  27.443  10.758
70759W        W39153  24.946  15.382  11.609
70760W        W39154  30.678   9.850  13.406
70761W        W39155  11.652   7.850  11.542
70762W        W39156  39.904  34.683   0.280
70763W        W39157  27.946   8.249   0.894
70764W        W39158  27.932  33.291   5.144
70765W        W39159  19.681  17.944   0.883
70766W        W39160  42.312  20.502   4.086
70767W        W39161  40.042  24.323  12.474
70768W        W39162  13.201  21.169   5.043
70769W        W39163   7.926  16.643  10.774
70770W        W39164  15.321  35.364   3.672
70771W        W39165  31.575  21.606   2.639
70772W        W39166   4.198  11.680   2.168
70773W        W39167   2.263   3.648  13.531
70774W        W39168  31.053  38.724  12.252
70775W        W39169  43.956   6.341   1.371
70776W        W39170  26.082  32.109   1.493
70777W        W39171   2.436  16.310  11.136
70778W        W39172  22.465   1.327   1.304
70779W        W39173  15.651  19.517  14.632
70780W        W39174  12.137   2.192   4.524
70781W        W39175  42.028  15.049   1.410
70782W        W39176  35.526  17.085   1.476
70783W        W39177  35.497   4.900  12.297
70784W        W39178   6.446  30.623   0.251
70785W        W39179  40.917  16.077  14.986
70786W        W39180  10.305  23.597   3.523
70787W        W39181  37.310  10.081   2.186
70788W        W39182  18.833   4.478  12.117
70789W        W39183  38.803  19.272  12.995
70790W        W39184   9.586  15.647   3.422
70791W        W39185  33.024  13.652   3.745
70792W        W39186  31.198  14.074   1.789
70793W        W39187  30.193  25.063   4.949
70794W        W39188  39.326  18.225   4.694
70795W        W39189  19.228  37.056  11.008
70796W        W39190  35.982  17.731  13.383
70797W        W39191  21.156  17.330   2.785
70798W        W39192   0.957  13.399  11.979
70799W        W39193  13.895  14.816   2.529
70800W        W39194  28.028  43.604  12.407
70801W        W39195  37.010   2.417  12.395
70802W        W39196  36.942  19.109  14.922
70803W        W39197  26.947   7.852  13.315
70804W        W39198  27.205  35.848  11.959
70805W        W39199   9.951  40.665  14.458
70806W        W39200  33.016  32.687  11.969
70807W        W39201  18.686  40.398   2.817
70808W        W39202   6.910  26.424  12.078
70809W        W39203  17.750  34.037   2.679
70810W        W39204   3.399  36.919   4.151
70811W        W39205  21.167  19.811  11.137
70812W        W39206  36.422   4.753  12.360
70813W        W39207  15.997  40.366   0.098
70814W        W39208   4.037  17.848  14.309
70815W        W39209  35.616  43.925   0.572
70816W        W39210  37.383   4.902  14.910
70817W        W39211  31.566  37.479  13.984
70818W        W39212  36.396  27.914   0.774
70819W        W39213  36.918  28.072  14.351
70820W        W39214  13.843  40.082   4.341
70821W        W39215  10.578  41.438  13.455
70822W        W39216  19.091  31.516   3.312
70823W        W39217  11.934  27.683  12.138
70824W        W39218  26.178  28.042   2.499
70825W        W39219  29.148   9.325  12.019
70826W        W39220   2.286  36.932   0.828
70827W        W39221  30.954  21.624  12.625
70828W        W39222  41.758   2.463  12.456
70829W        W39223  38.023  43.850  11.792
70830W        W39224  36.937  42.096   3.894
70831W        W39225   6.135  32.313  13.433
70832W        W39226  23.419  18.344  13.176
70833W        W39227  17.737   4.806   1.423
70834W        W39228   5.509   4.310  13.541
70835W        W39229  21.010  43.315  12.526
70836W        W39230  30.120  13.405   1.428
70837W        W39231   9.845  27.812  14.418
70838W        W39232  36.553   2.200   4.602
70839W        W39233  33.239  36.287  13.990
70840W        W39234  26.278  44.872  12.237
70841W        W39235   5.301  43.318   4.624
70842W        W39236   9.155  30.048  14.527
70843W        W39237   6.839  32.272  13.061
70844W        W39238   2.869  40.257   2.249
70845W        W39239   7.387  34.437   0.795
70846W        W39240   5.711  31.921  12.583
70847W        W39241  40.557  13.720  14.434
70848W        W39242  22.634  29.956   0.449
70849W        W39243  16.556  12.857  11.665
70850W        W39244   6.334  33.514  12.094
70851W        W39245   5.898   1.549   2.651
70852W        W39246  42.236   9.781  10.649
70853W        W39247  29.417  12.294   2.299
70854W        W39248  37.411  35.567  13.170
70855W        W39249  42.039  15.371  14.681
70856W        W39250   4.288   4.540   2.189
70857W        W39251  33.066  18.139   0.371
70858W        W39252  11.134  17.515  13.401
70859W        W39253   5.200  12.374  13.015
70860W        W39254  38.485  18.223   2.584
70861W        W39255  22.069  26.160  12.610
70862W        W39256  43.537  44.414   0.337
70863W        W39257   1.284   7.432   2.021
70864W        W39258  32.442  44.353   4.445
70865W        W39259  44.150  17.148  14.901
70866W        W39260  21.962   8.387   0.418
70867W        W39261  15.075  28.702  11.729
70868W        W39262  36.419   1.784  13.473
70869W        W39263  36.880   4.409   2.897
70870W        W39264  28.179  27.566   3.760
70871W        W39265   7.132  26.234  11.643
70872W        W39266  38.608  12.740  12.526
70873W        W39267  22.625  24.922   3.722
70874W        W39268   1.638  35.126   3.758
70875W        W39269  29.610   1.362  10.553
70876W        W39270  13.625  24.105   3.516
70877W        W39271   5.175  11.399   4.498
70878W        W39272  26.121  44.472   2.320
70879W        W39273  26.616  24.075  14.055
70880W        W39274  32.427  19.563   4.142
70881W        W39275  21.531  43.229  12.459
70882W        W39276   0.819  27.168  13.469
70883W        W39277  20.281  40.291  11.217
70884W        W39278  25.718   7.154   4.521
70885W        W39279  39.220  25.121   4.987
70886W        W39280   9.887  42.975   4.189
70887W        W39281  22.357  35.145   1.811
70888W        W39282   2.311  42.443   2.157
70889W        W39283   1.309  42.754   4.097
70890W        W39284   7.798  40.559  13.802
70891W        W39285  18.115  39.480   3.649
70892W        W39286  23.345  37.991  12.804
70893W        W39287   4.710  36.033  12.044
70894W        W39288  31.992  32.563   2.266
70895W        W39289  27.476  33.303   3.369
70896W        W39290  25.156  18.119   4.506
70897W        W39291   2.409  21.601   4.539
70898W        W39292  38.554  16.163  10.383
70899W        W39293  13.137  42.128  11.100
70900W        W39294  17.286  13.070  14.979
70901W        W39295  18.932  29.441   5.078
70902W        W39296  42.535  20.019   4.254
70903W        W39297  18.859  40.588   3.264
70904W        W39298  32.431  38.748  12.051
70905W        W39299  36.420  21.167   4.254
70906W        W39300   6.639  41.571  10.946
70907W        W39301  39.804   0.417  10.647
70908W        W39302  35.119  44.758   1.346
70909W        W39303  29.632  32.355   3.786
70910W        W39304  41.734  31.561   4.709
70911W        W39305  19.245  35.889   4.561
70912W        W39306  17.601   8.668   4.132
70913W        W39307  42.680   0.905  12.781
70914W        W39308  34.362  14.593  14.390
70915W        W39309  33.928  25.523  11.049
70916W        W39310  40.294  32.995   0.877
70917W        W39311   1.129  44.854   5.025
70918W        W39312  22.139   9.747  13.232
70919W        W39313  41.602  23.672  11.091
70920W        W39314  26.891   0.450   5.440
70921W        W39315   2.481   5.833  13.125
70922W        W39316   7.153  24.917  14.319
70923W        W39317  44.835  43.369   0.537
70924W        W39318  40.312   0.442   0.431
70925W        W39319  42.075  28.343  11.996
70926W        W39320  13.426  24.968   1.887
70927W        W39321  10.699  17.083   1.741
70928W        W39322  16.763  40.420   2.090
70929W        W39323  38.901  27.591   4.383
70930W        W39324  21.530   6.762   4.915
70931W        W39325  28.408  22.314   2.252
70932W        W39326  30.535  39.370  13.488
70933W        W39327  14.010   2.354   3.289
70934W        W39328  21.224  37.861  10.173
70935W        W39329   4.202   8.335  14.521
70936W        W39330  29.591  17.369  13.328
70937W        W39331  18.010  15.295   2.500
70938W        W39332  34.535  18.940   3.163
70939W        W39333   7.739  33.518   2.457
70940W        W39334  37.769  29.608  13.453
70941W        W39335   8.719  14.629  11.163
70942W        W39336   4.771   6.111  12.990
70943W        W39337  22.101  17.732   4.925
70944W        W39338  36.413  36.196  12.590
70945W        W39339  33.089  44.752   4.135
70946W        W39340  39.472  18.047  12.504
70947W        W39341  34.825  10.726  10.459
70948W        W39342  29.570   6.789  13.794
70949W        W39343  38.203   6.081  10.023
70950W        W39344   3.695  32.475  10.672
70951W        W39345  40.294   6.181  12.563
70952W        W39346  39.306   9.060   2.584
70953W        W39347  42.877  15.372  14.796
70954W        W39348  39.822  40.603   1.474
70955W        W39349  27.961  14.300  13.843
70956W        W39350  41.305  10.767   4.617
70957W        W39351  32.999  42.898   1.417
70958W        W39352  21.501  34.110  11.450
70959W        W39353  13.250  39.604  11.086
70960W        W39354  41.506  19.398   3.420
70961W        W39355  43.086  35.507   4.062
70962W        W39356  36.438  12.368   2.407
70963W        W39357   7.029   2.144  13.443
70964W        W39358  10.714  16.478  12.584
70965W        W39359   4.993  40.300  13.420
70966W        W39360  23.284   3.248   1.412
70967W        W39361  40.854  30.497  12.530
70968W        W39362  40.857  32.030   0.271
70969W        W39363  43.918  27.666   3.077
70970W        W39364   3.501  30.406  11.227
70971W        W39365  20.899  19.139  13.811
70972W        W39366  36.052  36.096   1.178
70973W        W39367  10.620  41.503  14.328
70974W        W39368  38.112   0.229   4.259
70975W        W39369   7.168  27.576   5.331
70976W        W39370  18.627  32.396  13.362
70977W        W39371  21.553   7.867  12.120
70978W        W39372  19.518  18.182   2.871
70979W        W39373  35.834  42.078   1.775
70980W        W39374   4.157  13.862  14.549
70981W        W39375  16.706  44.489  10.469
70982W        W39376  26.539  24.559   3.166
70983W        W39377  32.618  12.681   2.694
70984W        W39378  23.615  16.234  12.005
70985W        W39379   5.944  13.098   0.707
70986W        W39380  41.452  35.528   1.899
70987W        W39381  15.300   9.251   3.157
70988W        W39382  17.860  29.255   0.576
70989W        W39383  29.467  18.877  10.741
70990W        W39384  30.890  27.212   1.064
70991W        W39385  43.801  27.190   4.594
70992W        W39386  19.457   5.440   4.349
70993W        W39387  41.131  32.299   1.733
70994W        W39388  42.922   6.657   1.680
70995W        W39389  12.969  18.283   0.319
70996W        W39390   1.674  30.190   2.639
70997W        W39391  14.224  38.558  11.125
70998W        W39392  34.458   6.903  14.280
70999W        W39393  24.469  37.090  10.740
71000W        W39394   6.417   2.817   1.181
71001W        W39395  18.898   9.252   4.652
71002W        W39396  42.956  37.549  14.533
71003W        W39397  18.151  12.249  10.956
71004W        W39398  17.493  19.752  14.421
71005W        W39399  16.629   5.642   2.936
71006W        W39400  17.366  16.883   1.232
71007W        W39401  10.392  41.977  13.488
71008W        W39402  14.189   8.620  10.875
71009W        W39403  39.882  42.547  13.970
71010W        W39404  21.950  44.878  12.831
71011W        W39405  39.796  18.175  14.386
71012W        W39406   9.570  26.937  14.331
71013W        W39407  43.759  37.909   0.010
71014W        W39408  19.710  38.914   1.801
71015W        W39409  30.258  27.411   2.795
71016W        W39410  18.590   0.562   1.379
71017W        W39411  11.814  41.573   1.231
71018W        W39412  33.142  32.490  10.684
71019W        W39413  12.243  32.050  11.673
71020W        W39414  34.781  35.079   3.337
71021W        W39415  20.239  23.334   0.939
71022W        W39416  24.472  20.747  12.379
71023W        W39417  24.250  18.663  14.982
71024W        W39418   9.234  36.452  12.926
71025W        W39419  40.419  43.817  14.353
71026W        W39420  28.719  12.815   0.310
71027W        W39421  14.820  31.348  12.528
71028W        W39422   7.491  13.121  11.544
71029W        W39423  15.790  32.722   0.044
71030W        W39424  11.861  22.458  14.373
71031W        W39425  18.203  28.683   0.450
71032W        W39426  10.156  37.888   1.850
71033W        W39427  15.243   1.803   0.311
71034W        W39428  29.028  16.755   1.812
71035W        W39429  27.157  31.069   4.450
71036W        W39430  43.157   4.270  12.975
71037W        W39431  29.000   5.375  11.669
71038W        W39432  42.760  32.325  11.559
71039W        W39433  11.186  17.163  13.776
71040W        W39434  38.078  25.938  11.554
71041W        W39435  37.549  22.751  11.240
71042W        W39436  33.079  17.157   0.195
71043W        W39437   0.030  41.451  13.929
71044W        W39438  36.536   6.763   2.746
71045W        W39439  16.344  42.846   1.921
71046W        W39440  33.950   3.405   1.188
71047W        W39441  39.402  11.758   0.481
71048W        W39442   3.723  20.224   1.812
71049W        W39443   1.332  38.398   4.347
71050W        W39444  31.395  26.446  11.986
71051W        W39445   9.249   5.274  12.810
71052W        W39446  19.225  42.422  11.098
71053W        W39447  13.231  26.586   0.244
71054W        W39448  21.514  26.501   3.547
71055W        W39449  33.992   0.828   4.098
71056W        W39450  17.616  27.212  13.854
71057W        W39451  15.826  39.591  12.484
71058W        W39452  35.320   2.291  13.054
71059W        W39453  32.669  31.395  12.143
71060W        W39454  14.387   4.921   5.331
71061W        W39455   7.307  42.402   1.866
71062W        W39456  19.947  33.035   4.809
71063W        W39457   5.235  20.255   2.174
71064W        W39458   2.864  19.050   3.658
71065W        W39459  12.453  11.348  11.195
71066W        W39460  29.515  15.781   0.641
71067W        W39461  44.113  44.375   4.397
71068W        W39462  31.852  36.410   0.407
71069W        W39463  44.011  22.789   2.926
71070W        W39464  18.858  34.447   2.986
71071W        W39465  12.682  10.620  13.546
71072W        W39466  29.011  24.416  10.692
71073W        W39467  38.045   3.698   4.543
71074W        W39468  30.054  23.215   1.903
71075W        W39469   5.036  18.746   2.329
71076W        W39470  19.092  15.250  14.013
71077W        W39471  26.645  13.210   3.187
71078W        W39472  24.983  40.078  10.709
71079W        W39473  11.841   0.921  11.098
71080W        W39474  44.490  41.474  13.954
71081W        W39475  14.136  43.885  14.787
71082W        W39476  13.690  20.559   2.244
71083W        W39477  18.746  20.756   4.152
71084W        W39478  42.759  11.796   3.183
71085W        W39479   6.914   5.585   3.282
71086W        W39480  39.005  42.114  12.103
71087W        W39481  17.918   5.146   9.737
71088W        W39482   5.180  12.653  12.465
71089W        W39483  32.598   7.348   2.499
71090W        W39484  33.925  13.412  12.448
71091W        W39485  33.811   1.831  10.823
71092W        W39486   7.642   5.042   3.479
71093W        W39487  27.943  40.570  11.132
71094W        W39488   6.783  11.279   1.295
71095W        W39489  40.853  38.519   4.124
71096W        W39490  44.414  17.805  13.361
71097W        W39491  43.415  11.573  14.035
71098W        W39492  22.870  26.964   2.634
71099W        W39493   6.945  36.242  11.648
71100W        W39494   2.837  25.258  14.380
71101W        W39495  20.150  14.597  12.088
71102W        W39496   1.272  12.349  12.518
71103W        W39497  16.252  34.532   1.963
71104W        W39498  22.551  14.621   1.707
71105W        W39499  20.050   2.953   1.330
71106W        W39500  14.521  37.507   0.429
71107W        W39501  26.791  15.125   2.664
71108W        W39502   3.814  17.189  11.481
71109W        W39503  32.191  34.566   0.771
71110W        W39504  38.880   7.189   4.653
71111W        W39505   7.936  15.666  11.522
71112W        W39506  29.398  19.618  13.127
71113W        W39507  36.612  40.882  10.552
71114W        W39508  10.960  21.215   2.639
71115W        W39509  40.528  10.865   2.671
71116W        W39510   0.445  23.316   0.728
71117W        W39511  32.716  24.112   0.768
71118W        W39512   3.723  30.069  10.556
71119W        W39513  40.110  25.729  11.176
71120W        W39514  39.149  33.041  14.000
71121W        W39515  20.071  26.722  12.720
71122W        W39516  21.551  35.659  12.959
71123W        W39517  10.155  41.818   1.973
71124W        W39518  44.321  28.880   1.717
71125W        W39519  28.586  20.678  10.819
71126W        W39520  34.112  28.853   0.555
71127W        W39521  13.907  26.406  11.965
71128W        W39522  22.619  37.302   1.321
71129W        W39523  17.543  37.541   3.216
71130W        W39524  30.510  19.262   2.952
71131W        W39525  24.971   8.910   4.082
71132W        W39526  13.115   9.360  11.899
71133W        W39527   7.921  42.928  13.561
71134W        W39528   4.765  28.955  10.862
71135W        W39529  36.578  17.104   4.065
71136W        W39530  18.065  25.064   1.776
71137W        W39531   1.433  40.878   0.428
71138W        W39532   6.688   5.437  14.743
71139W        W39533  43.407   2.571   3.827
71140W        W39534  30.221  14.663   1.154
71141W        W39535  21.115  43.381  13.414
71142W        W39536  29.381  13.982   0.015
71143W        W39537  28.594  24.992  11.249
71144W        W39538  42.763   9.657  11.476
71145W        W39539  27.513  28.028   2.626
71146W        W39540   7.453   9.269  14.519
71147W        W39541  13.630  16.661  12.434
71148W        W39542  28.510   9.769   4.942
71149W        W39543  38.629  16.663   2.789
71150W        W39544  24.073  12.418   3.536
71151W        W39545  24.052  33.459  13.809
71152W        W39546  33.366   8.313  12.587
71153W        W39547  11.773  43.461   3.629
71154W        W39548  29.194  17.580   2.724
71155W        W39549   6.426  28.906   2.775
71156W        W39550  14.034  20.103  14.502
71157W        W39551  11.597  23.602   1.824
71158W        W39552  20.370  36.613   3.162
71159W        W39553  32.824   9.234   2.284
71160W        W39554  19.616  17.432   0.931
71161W        W39555   7.326  40.112   4.656
71162W        W39556   0.823  36.975  11.154
71163W        W39557   3.491  10.022  11.782
71164W        W39558  41.375  27.469  13.316
71165W        W39559   3.292  14.984   3.631
71166W        W39560   1.941   1.804   3.266
71167W        W39561  23.643  13.983   4.531
71168W        W39562  34.001  29.087   4.206
71169W        W39563  37.431  18.949  13.513
71170W        W39564  41.829  21.659  14.890
71171W        W39565  10.861  10.041  10.645
71172W        W39566  18.155  43.852   0.919
71173W        W39567  22.790  15.725  12.976
71174W        W39568  13.187  35.632  11.666
71175W        W39569  10.071   0.948  10.541
71176W        W39570   3.888  23.696  13.938
71177W        W39571  26.152   3.883  12.413
71178W        W39572   6.735   0.582  10.317
71179W        W39573   4.773  15.043  11.577
71180W        W39574  34.809  27.133  11.590
71181W        W39575  42.767  39.051  10.294
71182W        W39576  44.427   1.364   0.919
71183W        W39577  13.348  27.509  10.667
71184W        W39578  11.176  21.577   2.949
71185W        W39579  16.684  33.528   4.456
71186W        W39580  27.471  39.089   1.936
71187W        W39581  23.608  10.400   0.747
71188W        W39582  33.195  10.719  11.173
71189W        W39583  30.486  25.708  12.317
71190W        W39584  20.316  30.448   2.690
71191W        W39585  22.958  37.474   4.243
71192W        W39586  41.676  29.748  10.312
71193W        W39587  13.615  12.295   1.201
71194W        W39588  26.093   5.953  10.618
71195W        W39589  28.629  15.222   3.841
71196W        W39590  22.026  29.610   0.733
71197W        W39591  33.530   3.827   0.426
71198W        W39592  24.998  18.066   0.182
71199W        W39593  28.050  34.570   0.740
71200W        W39594  37.340   6.843   2.699
71201W        W39595  18.992  37.228   4.807
71202W        W39596  37.434   3.412   0.519
71203W        W39597  24.787  12.050  12.640
71204W        W39598   9.792  36.480  11.052
71205W        W39599  31.725  44.237   4.223
71206W        W39600  11.699  24.875   2.259
71207W        W39601  40.422  23.181  13.854
71208W        W39602  13.222  25.126   3.843
71209W        W39603  33.858  13.647   0.446
71210W        W39604  17.162  37.013  14.028
71211W        W39605   1.970   9.755  13.066
71212W        W39606   4.230  23.479  11.069
71213W        W39607   5.929  20.506  13.813
71214W        W39608  30.289  36.618   4.472
71215W        W39609  31.690  22.491   2.652
71216W        W39610  23.757  24.176   3.712
71217W        W39611  28.891  25.481  14.627
71218W        W39612   0.099  14.266  10.663
71219W        W39613  42.097  17.255   0.029
71220W        W39614   3.676  10.550   4.197
71221W        W39615  26.937  40.130  11.630
71222W        W39616   7.327  35.616  14.460
71223W        W39617  38.168   5.271   1.907
71224W        W39618   0.374  23.599  13.805
71225W        W39619  29.932  41.923  14.739
71226W        W39620  22.098  28.453  14.478
71227W        W39621  44.018  29.195   1.443
71228W        W39622  38.830  13.315   3.921
71229W        W39623  20.547   4.927   4.302
71230W        W39624  37.563  35.669  10.426
71231W        W39625  40.436  37.876   1.481
71232W        W39626  33.579  39.539   3.123
71233W        W39627   5.500  28.078  12.832
71234W        W39628   5.691  23.666   0.060
71235W        W39629  37.607   0.859   3.456
71236W        W39630  19.971  23.416  11.210
71237W        W39631  41.977  28.566   3.006
71238W        W39632  16.727  40.556   1.604
71239W        W39633  17.268  15.261  11.246
71240W        W39634   0.551   6.381  12.051
71241W        W39635  35.433  12.208   0.039
71242W        W39636  13.877  40.615  11.584
71243W        W39637   5.597  26.933   4.551
71244W        W39638  11.908   3.380  12.411
71245W        W39639  17.657  42.704  10.926
71246W        W39640  17.506   8.386  12.579
71247W        W39641  10.745  32.914  12.080
71248W        W39642   6.394  12.070  11.215
71249W        W39643  20.206   0.493   1.094
71250W        W39644  24.293  22.664  11.547
71251W        W39645  30.967  17.027   4.552
71252W        W39646  44.931  29.681  13.822
71253W        W39647  27.556   7.654   4.732
71254W        W39648   5.238  13.907   3.104
71255W        W39649  44.041  12.716  12.776
71256W        W39650  16.259  43.533  13.909
71257W        W39651  32.907   1.262  11.519
71258W        W39652  41.361  26.016   2.850
71259W        W39653  23.132  11.921  14.327
71260W        W39654   0.380  32.514   1.396
71261W        W39655  34.251  14.033   5.298
71262W        W39656  42.728  37.672   0.911
71263W        W39657  24.957   8.728   0.774
71264W        W39658  23.468  38.781  14.874
71265W        W39659  18.921  41.494  10.321
71266W        W39660  12.058   2.881   0.679
71267W        W39661  11.282   3.282   3.158
71268W        W39662  13.920  29.438  13.137
71269W        W39663  34.078  21.479  14.337
71270W        W39664  43.987  12.196  11.928
71271W        W39665  30.681   8.731   4.607
71272W        W39666  26.634   9.631  13.852
71273W        W39667  42.894  29.575   4.400
71274W        W39668  14.628  36.798   0.850
71275W        W39669  32.538   8.605   1.760
71276W        W39670  26.638   6.723  14.832
71277W        W39671  19.515  32.292   1.978
71278W        W39672  30.980   2.858   1.684
71279W        W39673  43.500   5.268   4.438
71280W        W39674  33.230  39.986   4.986
71281W        W39675  15.580  39.918   1.446
71282W        W39676  41.443  39.268  13.509
71283W        W39677  29.581  11.209  11.428
71284W        W39678   5.331   9.096  12.371
71285W        W39679  38.001  22.454   1.809
71286W        W39680  20.628  19.639   2.750
71287W        W39681   1.357  26.279   2.729
71288W        W39682  28.408  26.068  11.118
71289W        W39683  38.962  38.999  14.776
71290W        W39684  43.833  24.168  10.637
71291W        W39685   9.905   8.809   2.479
71292W        W39686  40.891  10.343   0.711
71293W        W39687  14.764   7.019  13.559
71294W        W39688  33.414   4.254  13.804
71295W        W39689  28.022  12.434   4.311
71296W        W39690  38.504  43.239   2.250
71297W        W39691  10.163   4.619   3.780
71298W        W39692  37.735   2.093  12.861
71299W        W39693   0.644  37.805  11.742
71300W        W39694  27.838  34.613  11.186
71301W        W39695  37.566  22.641   0.419
71302W        W39696  13.611  27.177   2.591
71303W        W39697  22.081  26.458   0.245
71304W        W39698  13.377   4.391  12.641
71305W        W39699  14.258  22.105  14.291
71306W        W39700   9.687  24.409   3.127
71307W        W39701   5.674  25.134   0.299
71308W        W39702  16.533  12.331  11.963
71309W        W39703  23.993   1.797  12.659
71310W        W39704   9.639   9.769  14.820
71311W        W39705  31.583  20.205   3.781
71312W        W39706   8.957  12.652  14.374
71313W        W39707   5.863  15.226   4.069
71314W        W39708  20.181  13.792   1.370
71315W        W39709  11.536  38.027   1.831
71316W        W39710   0.906  13.648   1.617
71317W        W39711  21.013  16.352   4.778
71318W        W39712  17.083  36.514  12.457
71319W        W39713  19.332  42.089   2.698
71320W        W39714  21.086   4.939  14.021
71321W        W39715   0.289  44.763  12.425
71322W        W39716  25.010  10.871  14.291
71323W        W39717   3.886  28.561   0.420
71324W        W39718  31.878  11.685   3.560
71325W        W39719   4.706  44.239   1.719
71326W        W39720   9.825  30.650  11.542
71327W        W39721  35.615  30.552  14.767
71328W        W39722  11.652  34.367  14.330
71329W        W39723  13.051  33.506   4.381
71330W        W39724   1.940  37.928  11.933
71331W        W39725  29.856  12.358  12.492
71332W        W39726  22.207  44.201  11.676
71333W        W39727  28.332  39.533  14.661
71334W        W39728  17.598  17.304   1.889
71335W        W39729  14.241  20.838   4.693
71336W        W39730   5.367  33.647   0.962
71337W        W39731  14.903  29.013   4.168
71338W        W39732   4.973  29.130   2.313
71339W        W39733  33.144  13.797  11.659
71340W        W39734  41.359  28.938  12.046
71341W        W39735  28.536  39.927  13.802
71342W        W39736   6.224   2.357   4.549
71343W        W39737  23.427  17.652  11.916
71344W        W39738  38.987   3.869  13.403
71345W        W39739  19.919   9.889  10.769
71346W        W39740  37.422   6.963   1.672
71347W        W39741   0.002  17.329   1.471
71348W        W39742   0.988  18.310   3.785
71349W        W39743   6.684  27.209  14.017
71350W        W39744   6.660   9.269  13.614
71351W        W39745   3.944  42.792  12.654
71352W        W39746  13.022  31.859   0.735
71353W        W39747   5.395   1.981  11.756
71354W        W39748  22.429  29.041   1.732
71355W        W39749  26.328   8.593  10.016
71356W        W39750  16.239  21.578  13.740
71357W        W39751  29.101  40.082  12.444
71358W        W39752  10.082  30.018   1.654
71359W        W39753   6.947   2.755   0.986
71360W        W39754  10.436  40.731   3.151
71361W        W39755  10.631   8.048   3.689
71362W        W39756  36.219  11.678   3.420
71363W        W39757  12.141  18.597   0.358
71364W        W39758  13.298  36.544   3.613
71365W        W39759  12.422  16.337   2.341
71366W        W39760   0.808   8.109   0.144
71367W        W39761  13.010  30.475  12.032
71368W        W39762  24.152  19.091   3.116
71369W        W39763   6.015  31.874   2.293
71370W        W39764   7.754  12.456  11.064
71371W        W39765  33.497  12.135  10.645
71372W        W39766  26.104  19.337   0.003
71373W        W39767   4.672  26.997   4.593
71374W        W39768  31.118  32.519  11.670
71375W        W39769  44.254  21.017  10.049
71376W        W39770  34.563   8.476  13.415
71377W        W39771  27.644  31.958  13.626
71378W        W39772  28.276  22.814   2.248
71379W        W39773   5.781  30.872  12.578
71380W        W39774  27.380  36.875   0.879
71381W        W39775  12.025   2.941   4.075
71382W        W39776  28.980   0.249   1.832
71383W        W39777  29.036  11.863  12.887
71384W        W39778  33.070  32.170  12.065
71385W        W39779  18.838  32.047   2.416
71386W        W39780  28.848  38.950  11.981
71387W        W39781  14.121  11.640   0.521
71388W        W39782  10.819   0.467  11.169
71389W        W39783  34.466  25.233  10.617
71390W        W39784  16.668  43.034   0.215
71391W        W39785  34.398  25.099  11.539
71392W        W39786   0.701  28.080   3.204
71393W        W39787  35.945   5.215   2.122
71394W        W39788   1.920   2.607  10.721
71395W        W39789  37.554  21.831   2.423
71396W        W39790   5.253  30.109  14.829
71397W        W39791  42.422  19.828   3.293
71398W        W39792  16.296   0.520   1.494
71399W        W39793  22.772  12.075  14.721
71400W        W39794  27.495  34.589  13.306
71401W        W39795  44.813  11.019   4.639
71402W        W39796  32.305  41.357  14.906
71403W        W39797   3.606   7.051  11.604
71404W        W39798  35.354  41.047  14.866
71405W        W39799   0.017   2.008  14.044
71406W        W39800  19.477  31.448  11.552
71407W        W39801  42.276  30.703   2.887
71408W        W39802  22.755  13.821  11.957
71409W        W39803  11.311   0.431   0.629
71410W        W39804   3.474  32.116  13.458
71411W        W39805   0.252  19.828  11.676
71412W        W39806   4.810  14.146   0.324
71413W        W39807   2.189   9.277   3.271
71414W        W39808  24.720  43.209   1.714
71415W        W39809  17.589  20.511  10.311
71416W        W39810  16.829  29.665   1.820
71417W        W39811  27.911  42.340  10.673
71418W        W39812  28.904   3.256  10.626
71419W        W39813  27.989  40.305  12.905
71420W        W39814  25.013  37.513  13.366
71421W        W39815  35.840  16.841  11.165
71422W        W39816  41.482  33.023   2.796
71423W        W39817  17.603  15.570  13.056
71424W        W39818  44.505  12.896   1.023
71425W        W39819   2.189  19.315  11.690
71426W        W39820   8.705  26.706  14.533
71427W        W39821  37.433  27.698  14.820
71428W        W39822  42.751  33.933  13.478
71429W        W39823  18.323   5.213  14.993
71430W        W39824  39.830  13.651   0.845
71431W        W39825   4.723  13.784   4.390
71432W        W39826  39.065  11.102  13.305
71433W        W39827  25.876  16.993   4.086
71434W        W39828  22.259  24.182   1.667
71435W        W39829   7.484  33.061   1.375
71436W        W39830  14.307  12.105   0.419
71437W        W39831   3.654  41.732  13.477
71438W        W39832   6.156  18.660  10.654
71439W        W39833  29.602  23.523   1.439
71440W        W39834  15.385  17.030   3.055
71441W        W39835  30.554  33.720   2.357
71442W        W39836  12.929   5.305   2.449
71443W        W39837  38.496  22.276   1.881
71444W        W39838  17.185  33.754   3.293
71445W        W39839  43.570  27.011   4.161
71446W        W39840  10.926  27.402  12.932
71447W        W39841  10.152   1.675  11.108
71448W        W39842  22.609  23.542   3.691
71449W        W39843  41.438  40.734   1.731
71450W        W39844  31.957   9.623  12.226
71451W        W39845  43.864  21.091   4.942
71452W        W39846  16.648  13.151  12.542
71453W        W39847   2.429  17.182  13.881
71454W        W39848  10.413  33.161   3.190
71455W        W39849  29.066   3.167  11.911
71456W        W39850  40.462  29.642  14.487
71457W        W39851  13.481  40.133   0.938
71458W        W39852  34.613  37.941   3.177
71459W        W39853  31.092  13.209  13.555
71460W        W39854  21.695  15.725  10.334
71461W        W39855  16.526  42.385   2.087
71462W        W39856  20.545  15.211  13.172
71463W        W39857  22.068   6.219  14.309
71464W        W39858  10.763  32.062   0.429
71465W        W39859  16.267  33.540   3.653
71466W        W39860  26.631  20.460  11.643
71467W        W39861  35.157  44.981  11.107
71468W        W39862  14.026  23.064   1.175
71469W        W39863  35.775  11.930   3.379
71470W        W39864  14.622  25.501   3.900
71471W        W39865  18.191  36.574   2.844
71472W        W39866  29.465   7.236   2.755
71473W        W39867  39.971  11.699   1.183
71474W        W39868  23.549  40.465   0.889
71475W        W39869  13.161   4.487  14.176
71476W        W39870  21.488  39.574   1.693
71477W        W39871  22.595   6.369   0.280
71478W        W39872   8.414  35.820  11.058
71479W        W39873   6.979  23.972  13.127
71480W        W39874  40.537  12.365  12.609
71481W        W39875  41.730   6.993  13.558
71482W        W39876  17.820   3.787  11.511
71483W        W39877  10.704  36.043   1.167
71484W        W39878   3.723   7.834  14.755
71485W        W39879  35.470  29.709  12.912
71486W        W39880  13.516  33.477   4.607
71487W        W39881  43.817  42.001   1.276
71488W        W39882  21.227  30.591  10.685
71489W        W39883  26.226   0.882   1.353
71490W        W39884  21.568  11.433  13.011
71491W        W39885  14.449  15.572   0.510
71492W        W39886   6.135  44.417  10.714
71493W        W39887  39.212   7.629  12.863
71494W        W39888   9.610  12.654  13.981
71495W        W39889  17.599  20.500   1.813
71496W        W39890  40.490  43.340   3.977
71497W        W39891  43.629   5.019   9.985
71498W        W39892  30.743  24.895   1.182
71499W        W39893  40.814  37.153   0.945
71500W        W39894   8.791  36.425  13.539
71501W        W39895   0.632   1.492   1.627
71502W        W39896  23.562  32.584   2.197
71503W        W39897  14.082  17.837  14.384
71504W        W39898  33.117  18.158   0.919
71505W        W39899   4.995  30.216   1.340
71506W        W39900  10.395  19.037  12.512
71507W        W39901  26.448  41.550  10.251
71508W        W39902   1.964  25.041  11.612
71509W        W39903  20.320  26.049  11.125
71510W        W39904  44.675  30.951   0.160
71511W        W39905  19.358  12.093   4.032
71512W        W39906   0.614  44.485   3.163
71513W        W39907  22.208  13.228   2.350
71514W        W39908   5.014  29.425   2.746
71515W        W39909  30.575  32.582   0.732
71516W        W39910  26.570  11.699  10.671
71517W        W39911  44.492  13.393   1.839
71518W        W39912   8.603  13.820   4.234
71519W        W39913  10.262  24.991  11.166
71520W        W39914  21.001  21.639  12.985
71521W        W39915  11.168   0.410   2.716
71522W        W39916  40.561  28.433   3.604
71523W        W39917  19.071  29.457  10.994
71524W        W39918  28.670  36.876  11.690
71525W        W39919  37.846  33.719  13.582
71526W        W39920  36.510  14.683  12.242
71527W        W39921  13.262  21.736   2.275
71528W        W39922  19.218  33.130   4.153
71529W        W39923  17.266  18.950   1.284
71530W        W39924  36.182  26.028   3.487
71531W        W39925  26.667  22.961   1.538
71532W        W39926   8.248  32.345  10.573
71533W        W39927  41.029  17.068  13.478
71534W        W39928   8.132   9.511  11.417
71535W        W39929  19.625  27.105   4.025
71536W        W39930  26.056  26.195  13.914
71537W        W39931  19.735  31.195  11.129
71538W        W39932   6.192   9.593   1.862
71539W        W39933  30.924   9.238  10.757
71540W        W39934  20.654  43.070  11.588
71541W        W39935  18.618  29.899  11.610
71542W        W39936  31.979  36.822   4.575
71543W        W39937  29.751  13.779   2.749
71544W        W39938  20.532   8.909  10.673
71545W        W39939  25.853  24.648  14.840
71546W        W39940  11.734  10.165  10.787
71547W        W39941  10.277  23.810  11.568
71548W        W39942   6.463   7.910  12.010
71549W        W39943  29.112   2.298  11.937
71550W        W39944  15.095  15.902   3.585
71551W        W39945  10.009  36.512   1.216
71552W        W39946  22.863  40.882  14.906
71553W        W39947  19.996  27.319   2.640
71554W        W39948  29.908  19.862   0.722
71555W        W39949  35.770  23.491   1.754
71556W        W39950  44.341  10.236   4.630
71557W        W39951  27.646  40.922  10.628
71558W        W39952  41.863  30.392  10.856
71559W        W39953  23.785  31.624  13.118
71560W        W39954  23.963  44.304  11.950
71561W        W39955  44.229   5.161  10.651
71562W        W39956  41.320   5.331  10.587
71563W        W39957  35.173  12.894  12.047
71564W        W39958  33.914  34.836   0.025
71565W        W39959  14.111  39.907   2.071
71566W        W39960  26.231  24.324   1.364
71567W        W39961  33.120  40.560  13.837
71568W        W39962  11.431  31.069  11.249
71569W        W39963  29.960   6.115  11.854
71570W        W39964   2.991  16.207  11.994
71571W        W39965  17.558  31.050  14.532
71572W        W39966   5.899  18.148   0.942
71573W        W39967  15.492   4.902  11.600
71574W        W39968  37.838   2.675  11.469
71575W        W39969  38.569  35.113   0.215
71576W        W39970  32.654  10.416  11.543
71577W        W39971  42.353  43.328  14.087
71578W        W39972   1.319  14.656  14.851
71579W        W39973   3.353  24.438  12.936
71580W        W39974  23.979  12.820   0.865
71581W        W39975  14.671  35.725  12.921
71582W        W39976  27.218  11.253   0.324
71583W        W39977   9.399  24.874   1.433
71584W        W39978  12.164  32.926  13.979
71585W        W39979  13.125  18.797   0.329
71586W        W39980   4.847  43.736  11.633
71587W        W39981  40.928  35.681   1.224
71588W        W39982   6.952   6.428   3.578
71589W        W39983  36.923  18.043  11.006
71590W        W39984  20.187  41.059   0.274
71591W        W39985  44.581  12.307  11.014
71592W        W39986  40.436  36.982  10.674
71593W        W39987   0.460  41.015   2.244
71594W        W39988  15.416  16.604   4.216
71595W        W39989  41.436  16.713  14.732
71596W        W39990   5.708   1.150   3.630
71597W        W39991  23.915  39.364   4.182
71598W        W39992  38.423  11.520  14.436
71599W        W39993  10.371  23.115   3.773
71600W        W39994  17.988  32.598  11.845
71601W        W39995  37.975   1.273   1.833
71602W        W39996   3.445  16.755   0.972
71603W        W39997  34.554  16.105   0.901
71604W        W39998  42.867  40.298  13.841
71605W        W39999  20.931   1.930  12.513
71606W        W40000   9.707  40.020  10.694
71607W        W40001  30.378  11.835  14.173
71608W        W40002  11.777  42.877  11.279
71609W        W40003  28.192  27.123   4.044
71610W        W40004  14.601  35.523   1.289
71611W        W40005   1.694  21.176  12.546
71612W        W40006  10.905  43.568   4.140
71613W        W40007  19.123  31.482  12.052
71614W        W40008  31.046  27.339   2.714
71615W        W40009  11.628  39.025   4.135
71616W        W40010  30.182   1.033   1.195
71617W        W40011  36.024  35.365   5.046
71618W        W40012   8.879  42.707  12.574
71619W        W40013   6.703  36.209  13.012
71620W        W40014  17.329  28.935   3.346
71621W        W40015  33.465  17.601  12.687
71622W        W40016  24.969  16.308  14.257
71623W        W40017   4.778  16.761  14.908
71624W        W40018  39.289  28.115  14.336
71625W        W40019  28.377  10.897  12.159
71626W        W40020  18.193  20.571  14.442
71627W        W40021  34.650  11.289   4.850
71628W        W40022   9.395  13.485   0.235
71629W        W40023  20.043  29.527  12.813
71630W        W40024  21.450  29.044   3.221
71631W        W40025  40.814  31.006   0.237
71632W        W40026   8.749   4.300   0.257
71633W        W40027  33.057  22.735   4.442
71634W        W40028  35.355  17.769  12.886
71635W        W40029   1.205  29.481  12.105
71636W        W40030  37.106   6.746  14.782
71637W        W40031  25.732  30.547   0.822
71638W        W40032  44.840  21.203   3.702
71639W        W40033  38.182  41.819   1.711
71640W        W40034  40.820   8.215  14.625
71641W        W40035  28.181  23.580  10.245
71642W        W40036  24.305  41.411   3.325
71643W        W40037   1.293  16.105   0.369
71644W        W40038  30.560  22.267  10.781
71645W        W40039   4.809  14.142  12.973
71646W        W40040  11.079  23.711   4.510
71647W        W40041   7.554  20.562  11.716
71648W        W40042  38.865  31.764   2.184
71649W        W40043   0.492   4.039   3.820
71650W        W40044  23.228   6.708  12.582
71651W        W40045  31.881  32.133  10.873
71652W        W40046  28.707  14.326  12.988
71653W        W40047   5.775   3.040  13.379
71654W        W40048  20.796  18.151   2.306
71655W        W40049  39.510  15.110   4.768
71656W        W40050  35.497  38.887   4.472
71657W        W40051  40.399  26.693  12.865
71658W        W40052  38.601  33.085   3.965
71659W        W40053  14.639  19.574  11.105
71660W        W40054  26.531   8.706  12.897
71661W        W40055  17.136  39.152  10.679
71662W        W40056   1.785   4.275  12.869
71663W        W40057  27.924   5.664  14.335
71664W        W40058  26.628  19.779  12.914
71665W        W40059   9.569  30.379  14.418
71666W        W40060  37.344  11.645  12.956
71667W        W40061   9.780  31.314  12.253
71668W        W40062   5.208  42.369   2.449
71669W        W40063  39.072   6.341  13.164
71670W        W40064  23.051  14.012   1.025
71671W        W40065  27.333  32.979  10.712
71672W        W40066   7.244  41.909   2.173
71673W        W40067  12.184  32.992  12.962
71674W        W40068  31.693  37.801  13.581
71675W        W40069  33.645  34.108   4.176
71676W        W40070  44.527   5.117  14.129
71677W        W40071  19.867   4.427  13.025
71678W        W40072  29.274  19.604  14.601
71679W        W40073  11.972  35.490   4.898
71680W        W40074   0.921   9.707  14.034
71681W        W40075  34.059   2.291   2.495
71682W        W40076   0.263   8.685  11.192
71683W        W40077  43.255  24.533  11.267
71684W        W40078  42.998  34.973  11.930
71685W        W40079  15.162  17.705   5.417
71686W        W40080  31.609  40.009   3.193
71687W        W40081  18.292   6.683   2.686
71688W        W40082  39.049   5.243  14.880
71689W        W40083  24.897  31.940  10.713
71690W        W40084  34.418  44.431  13.372
71691W        W40085   1.817  12.317   5.055
71692W        W40086  14.615  28.424  13.002
71693W        W40087   6.681  37.644   0.295
71694W        W40088   8.697   7.297   0.755
71695W        W40089  41.451  37.044   3.223
71696W        W40090  31.411  32.397   0.039
71697W        W40091  38.842  26.301   5.196
71698W        W40092  25.575   9.400   1.605
71699W        W40093  36.776  19.201   1.165
71700W        W40094   7.873  38.182  14.021
71701W        W40095   1.533  31.732  13.862
71702W        W40096  22.163  41.949  11.846
71703W        W40097  27.439  34.781  12.467
71704W        W40098  16.665  13.293   2.821
71705W        W40099   0.210  38.626  11.985
71706W        W40100  20.569  16.247  14.106
71707W        W40101  21.976  16.761   2.909
71708W        W40102  16.061  15.663   2.861
71709W        W40103  15.247  21.994  13.896
71710W        W40104   3.422  21.754  12.985
71711W        W40105  30.015  18.968   0.267
71712W        W40106  41.872  39.209   4.740
71713W        W40107  33.198   1.711   4.456
71714W        W40108  23.140  42.102   0.702
71715W        W40109  13.285  25.935  10.763
71716W        W40110   0.630   1.977   4.960
71717W        W40111  15.286  39.928  11.660
71718W        W40112  21.675   1.389   4.585
71719W        W40113   1.864  33.855  14.343
71720W        W40114  17.810  16.593  11.883
71721W        W40115  14.932  20.020  14.806
71722W        W40116  33.757  17.219   0.921
71723W        W40117  21.134  38.307  14.040
71724W        W40118   2.540  29.784  12.929
71725W        W40119  22.311  19.140   3.431
71726W        W40120  27.401  10.355  11.433
71727W        W40121  31.129  42.403   2.740
71728W        W40122   6.129  22.208  11.593
71729W        W40123  31.674  30.099  11.856
71730W        W40124   4.268   9.516  10.755
71731W        W40125  20.471  35.198  12.882
71732W        W40126  15.313   0.014   1.324
71733W        W40127  11.136  14.272   2.802
71734W        W40128  29.827  37.086   2.374
71735W        W40129   5.707  33.732   3.710
71736W        W40130  27.939  40.360   2.222
71737W        W40131  41.871  26.388   3.218
71738W        W40132  37.351  10.146   0.807
71739W        W40133  33.601  12.346  13.074
71740W        W40134  37.453  31.379   2.424
71741W        W40135   2.119   1.910  14.998
71742W        W40136  22.625   7.393  12.368
71743W        W40137  37.050   8.988  12.517
71744W        W40138  20.679  20.753   0.299
71745W        W40139  16.680   0.327  13.851
71746W        W40140   8.386   6.212  14.435
71747W        W40141   9.000   0.976  13.759
71748W        W40142   5.496  18.975   2.265
71749W        W40143   2.966  17.601  14.896
71750W        W40144  15.217  28.014   0.719
71751W        W40145  27.988  17.197   4.624
71752W        W40146   1.395   3.586  11.886
71753W        W40147  31.577  11.814   2.638
71754W        W40148  22.290   9.709  10.203
71755W        W40149  17.972   3.019  11.493
71756W        W40150  19.174  41.950  14.454
71757W        W40151   6.640  42.673   3.116
71758W        W40152  43.885  30.031  14.631
71759W        W40153  42.192   1.268  10.418
71760W        W40154  37.360  29.623   1.728
71761W        W40155  31.992  34.520   0.293
71762W        W40156  16.702  30.502  14.196
71763W        W40157  36.371  20.668   4.529
71764W        W40158  39.848  44.929  13.982
71765W        W40159  32.673  14.687  11.391
71766W        W40160   1.390  15.196   1.748
71767W        W40161  15.111  23.267  11.550
71768W        W40162  30.548  12.860  14.004
71769W        W40163   9.751  22.279   3.170
71770W        W40164  40.789  32.108  13.915
71771W        W40165   3.772   2.057   2.236
71772W        W40166  25.467  38.967   0.814
71773W        W40167  37.141  42.092  14.377
71774W        W40168  42.318  24.549   2.178
71775W        W40169  30.212  44.791   0.469
71776W        W40170  31.435  22.244   0.397
71777W        W40171  33.536  16.740   0.883
71778W        W40172  34.042  33.539  12.046
71779W        W40173  21.452  44.917  14.106
71780W        W40174  14.138   2.158   4.234
71781W        W40175  26.478   4.213  10.747
71782W        W40176  42.514  42.012   4.292
71783W        W40177  35.166  15.866   4.066
71784W        W40178  13.645  43.481   0.473
71785W        W40179  43.330  15.783   0.343
71786W        W40180  11.811  18.649  13.501
71787W        W40181  10.098  22.344  14.932
71788W        W40182   8.281   0.920   4.057
71789W        W40183  42.791  22.474   0.939
71790W        W40184   2.191  22.978  12.044
71791W        W40185  11.607  16.120   2.660
71792W        W40186   9.423  18.488   9.925
71793W        W40187   7.688  17.051  14.455
71794W        W40188   6.440  42.770  13.457
71795W        W40189  12.770  27.473   4.760
71796W        W40190  19.450  19.694   0.383
71797W        W40191  28.707  41.658  13.844
71798W        W40192  38.967  40.825  12.515
71799W        W40193  19.349  11.336   0.824
71800W        W40194  10.679   2.816  10.679
71801W        W40195  15.125   9.871   3.564
71802W        W40196  20.608  16.357  13.595
71803W        W40197   8.520  19.239   4.135
71804W        W40198   0.349  14.716   0.987
71805W        W40199  28.780  37.835  10.831
71806W        W40200  28.440  43.100  11.956
71807W        W40201  34.894  42.961   2.683
71808W        W40202  39.069  12.856  10.742
71809W        W40203  31.153  42.274   1.434
71810W        W40204   5.830   3.232  12.890
71811W        W40205  41.170  17.243  12.055
71812W        W40206  36.849  37.571  10.664
71813W        W40207  20.731  13.973   1.385
71814W        W40208  14.412   0.294  11.469
71815W        W40209  37.799  16.614  13.736
71816W        W40210   2.417  12.671   3.226
71817W        W40211  31.430  40.796  12.661
71818W        W40212   4.631  25.821  11.511
71819W        W40213   5.080  18.594  11.428
71820W        W40214   5.220  40.536  11.436
71821W        W40215  24.860   0.433   2.280
71822W        W40216   1.283  21.084   3.858
71823W        W40217   2.240  39.572   0.899
71824W        W40218  13.357   7.762  14.497
71825W        W40219  40.931  34.169  13.463
71826W        W40220  10.869  27.763   4.084
71827W        W40221  18.698  28.911   3.950
71828W        W40222  10.594   5.671  10.775
71829W        W40223  15.903  35.434  11.384
71830W        W40224  19.394  27.529   2.980
71831W        W40225  44.822  39.834  11.163
71832W        W40226  31.043  37.573   0.827
71833W        W40227  32.670  11.383  11.614
71834W        W40228   8.066   6.001   0.880
71835W        W40229  19.810   0.305   1.674
71836W        W40230  32.080  36.395  11.233
71837W        W40231  15.225  41.394  12.752
71838W        W40232  33.073  31.979  10.549
71839W        W40233  24.290  38.000  13.343
71840W        W40234  32.372  11.690   1.162
71841W        W40235  19.937  11.568   3.235
71842W        W40236  14.113   6.059   0.015
71843W        W40237  13.122  30.853  10.423
71844W        W40238  44.000   2.209   0.842
71845W        W40239   4.425  40.375  13.409
71846W        W40240   1.424  30.379   2.096
71847W        W40241   3.627  26.438   5.004
71848W        W40242  29.895  15.193   2.682
71849W        W40243  40.020   3.223   0.924
71850W        W40244  43.349  33.890  13.436
71851W        W40245  41.864  41.497   2.733
71852W        W40246  20.309  39.902  12.086
71853W        W40247  24.149  18.721   2.728
71854W        W40248   1.029  24.913  13.076
71855W        W40249   2.051  30.979   0.759
71856W        W40250  39.485  22.188  12.045
71857W        W40251  34.654  21.090   0.904
71858W        W40252  33.926  43.499   0.407
71859W        W40253  27.158  33.840   3.617
71860W        W40254  39.345   7.712   3.071
71861W        W40255  35.305  26.184  13.408
71862W        W40256   2.344   7.577   4.387
71863W        W40257  27.725  17.259  12.124
71864W        W40258   8.475  26.204   4.619
71865W        W40259   1.095  41.415   1.951
71866W        W40260  28.074  29.387   3.144
71867W        W40261  12.516  38.735  12.452
71868W        W40262  42.774   7.487  14.727
71869W        W40263  30.658  33.752   4.218
71870W        W40264  37.862  31.442   1.020
71871W        W40265  33.418  26.053   4.517
71872W        W40266   0.399   5.062   4.086
71873W        W40267  32.449   1.118   2.314
71874W        W40268   3.913  13.027  11.032
71875W        W40269  25.960  42.792  11.942
71876W        W40270  25.632   4.676  11.534
71877W        W40271  44.522  41.463   4.822
71878W        W40272   0.047  43.520   3.450
71879W        W40273  37.651  21.016   3.397
71880W        W40274  14.938  26.444   3.666
71881W        W40275   2.272  22.051  13.523
71882W        W40276  13.466  42.406   2.122
71883W        W40277  10.238   3.043  14.277
71884W        W40278   9.612  42.317  13.842
71885W        W40279  26.600  14.179  14.812
71886W        W40280  20.538   5.658  12.969
71887W        W40281  25.601  34.248  12.485
71888W        W40282  36.051  24.305   2.856
71889W        W40283  40.269   8.718  11.601
71890W        W40284  33.214  12.705  10.176
71891W        W40285  15.782  20.550  14.380
71892W        W40286  42.444  22.566  12.554
71893W        W40287  15.547  19.084   2.184
71894W        W40288  29.679  38.639   0.169
71895W        W40289  10.778  26.626  13.777
71896W        W40290  39.708  37.433   5.006
71897W        W40291  26.079  25.308   2.690
71898W        W40292  12.686  18.760   0.052
71899W        W40293  40.196  21.064   4.348
71900W        W40294  14.862  29.024   0.756
71901W        W40295  34.379  27.693   3.689
71902W        W40296  44.157  20.176   3.192
71903W        W40297   3.284  12.452  14.913
71904W        W40298  28.783  24.110  13.811
71905W        W40299   6.939  13.575   2.363
71906W        W40300  10.612   5.370  13.945
71907W        W40301  32.976  37.629  13.761
71908ION    NA+40302  44.539  36.735   2.922
71909ION    NA+40303  43.260  42.322  13.577
71910ION    NA+40304  31.118  16.535   4.518
71911ION    NA+40305   6.586  29.241  12.883
71912ION    NA+40306  19.085  13.259   3.853
71913ION    NA+40307  30.753  20.638   3.771
71914ION    NA+40308  40.742  28.169   1.504
71915ION    NA+40309  14.159  29.124   1.253
71916ION    NA+40310  11.855  37.214   4.494
71917ION    NA+40311  38.755  25.257  12.079
71918ION    NA+40312  35.724  29.406   4.372
71919ION    NA+40313   6.997   4.412   3.302
71920ION    NA+40314  42.489  25.989   1.272
71921ION    NA+40315  11.700  21.777   1.560
71922ION    NA+40316  32.620  17.578  13.970
71923ION    NA+40317  12.870  33.135   2.448
71924ION    NA+40318  18.219  33.169  13.497
71925ION    NA+40319  32.507   0.832  12.079
71926ION    NA+40320   4.365  24.533   3.865
71927ION    NA+40321  37.472  43.582  13.309
71928ION    NA+40322  23.472  22.815  14.747
71929ION    NA+40323  16.329   9.017  12.855
71930ION    NA+40324  17.140   0.444   2.325
71931ION    NA+40325   7.806   5.319  13.763
71932ION    NA+40326   1.994   6.203  12.061
71933ION    NA+40327  24.773  25.104  14.255
71934ION    NA+40328  20.762   4.694  12.716
71935ION    NA+40329  37.688   9.250   2.026
71936ION    NA+40330  24.056  23.838   4.598
71937ION    NA+40331  12.022   1.605  12.489
71938ION    NA+40332  27.127  27.826   2.334
71939ION    NA+40333  13.103   5.265  13.624
71940ION    NA+40334  26.229  42.040   2.317
71941ION    NA+40335  17.170  44.539   5.088
71942ION    NA+40336  41.114   8.127  11.645
71943ION    NA+40337  41.731  34.103   1.492
71944ION    NA+40338  27.224  23.516  14.296
71945ION    NA+40339  38.515  37.935  14.694
71946ION    NA+40340  18.109  34.281   4.158
71947ION    NA+40341  43.088  40.542   4.750
71948ION    NA+40342  24.115  12.224  10.839
71949ION    NA+40343  27.045  14.608  14.345
71950ION    NA+40344  30.574  35.266  14.782
71951ION    NA+40345  31.518  40.099   0.764
71952ION    NA+40346  27.144  25.630   0.895
71953ION    NA+40347  27.754   9.910   3.708
71954ION    NA+40348  38.043  12.534   1.935
71955ION    NA+40349  28.734  11.740   1.225
71956ION    NA+40350  33.750  35.218   2.804
71957ION    NA+40351  40.394   8.885   4.245
71958ION    NA+40352  30.605  37.590  12.179
71959ION    NA+40353  11.898  12.901   0.962
71960ION    NA+40354  15.222  30.364   0.972
71961ION    NA+40355   1.127  44.285   3.049
71962ION    NA+40356  17.856  26.072  13.057
71963ION    NA+40357  28.895  19.583   4.476
71964ION    NA+40358  37.349  41.050   0.554
71965ION    NA+40359   3.689  14.742   3.312
71966ION    NA+40360   6.148  16.879  12.954
71967ION    NA+40361  13.304  22.289   3.208
71968ION    NA+40362  16.796   1.513  14.309
71969ION    NA+40363  11.854  25.368   2.342
71970ION    NA+40364   8.943  37.317  11.786
71971ION    NA+40365  24.473   1.015  12.598
71972ION    NA+40366  13.132  36.990  11.953
71973ION    NA+40367  16.069  23.137  11.905
71974ION    NA+40368  44.197  40.905   3.259
71975ION    NA+40369  20.701  35.881  14.609
71976ION    NA+40370  15.074  36.105   0.501
71977ION    NA+40371  12.329  29.294   2.363
71978ION    NA+40372  37.429   3.196  11.126
71979ION    NA+40373   4.793  26.931   3.209
71980ION    NA+40374  18.744  29.095  13.800
71981ION    NA+40375  41.029  17.675   0.309
71982ION    NA+40376  43.294  36.856  12.323
71983ION    NA+40377  18.506  15.374  11.753
71984ION    NA+40378  13.634  44.926  13.647
71985ION    NA+40379  44.675  12.863   2.638
71986ION    NA+40380  27.697   5.444  13.873
71987ION    NA+40381   3.537  40.899  14.056
71988ION    NA+40382   7.312  29.052  13.637
71989ION    NA+40383  43.148  43.969   9.872
71990ION    NA+40384  12.679  17.465   3.750
71991ION    NA+40385  43.994  39.062   3.880
71992ION    NA+40386   7.359  37.933   1.973
71993ION    NA+40387  16.434  41.665   4.475
71994ION    NA+40388  32.689  43.657  12.943
71995ION    NA+40389  15.824  34.910  10.508
71996ION    NA+40390  28.033  27.176  12.415
71997ION    NA+40391   3.521  19.989   5.111
71998ION    NA+40392  38.065  31.918  10.605
71999ION    NA+40393  23.230  31.044   9.915
72000ION    NA+40394  41.362   0.126   2.259
72001ION    NA+40395  37.259   7.888  10.235
72002ION    NA+40396  39.722  37.486   2.732
72003ION    NA+40397  27.408   5.666   4.861
72004ION    NA+40398   6.817   3.078  12.098
72005ION    NA+40399  11.333  11.422   3.484
72006ION    NA+40400  19.118  22.237  11.231
72007ION    NA+40401  32.350  32.182  11.081
72008ION    NA+40402   0.826   5.475  14.138
72009ION    NA+40403  42.249  32.836  11.912
72010ION    NA+40404  13.501   2.648  12.556
72011ION    NA+40405  31.691  19.729  11.784
72012ION    NA+40406  25.151  33.527  10.289
72013ION    NA+40407  11.571  19.763   0.683
72014ION    NA+40408  42.557  29.867  13.408
72015ION    NA+40409  41.686  20.010  13.017
72016ION    NA+40410  19.748   0.083  13.567
72017ION    NA+40411  43.868  11.760   3.349
72018ION    NA+40412  21.735   3.823   0.790
72019ION    NA+40413  18.375   3.200  11.980
72020ION    NA+40414  33.149   6.584   0.838
72021ION    NA+40415  40.921   5.761  12.107
72022ION    NA+40416  21.468  21.017   2.352
72023ION    NA+40417  23.160  18.833   3.395
72024ION    NA+40418  23.442  20.725  14.659
72025ION    NA+40419  24.512  31.495   0.931
72026ION    NA+40420  27.100  29.339  11.353
72027ION    NA+40421  22.336  21.820  11.933
72028ION    NA+40422  35.634  18.015  10.971
72029ION    NA+40423   1.952  16.174   1.986
72030ION    NA+40424  13.394  37.631  14.804
72031ION    NA+40425   7.409  35.287  12.122
72032ION    NA+40426  31.604   3.996  12.409
72033ION    NA+40427  33.219  36.037  10.720
72034ION    NA+40428  42.489   7.177  12.054
72035ION    NA+40429   2.005   1.782  13.120
72036ION    NA+40430  44.054  25.850  11.161
72037ION    NA+40431  10.504  31.545  11.316
72038ION    NA+40432   6.283  32.437   2.828
72039ION    NA+40433   7.789  24.227  13.481
72040ION    NA+40434  29.755   4.489   4.794
72041ION    NA+40435   9.258  20.679   2.771
72042ION    NA+40436  43.761  20.722  13.337
72043ION    NA+40437   3.750  23.900   4.036
72044ION    NA+40438  17.534  14.144  13.036
72045ION    NA+40439   8.933  19.259  11.506
72046ION    NA+40440  43.570  25.976  12.485
72047ION    NA+40441  26.642   4.700  10.745
72048ION    NA+40442  20.146  22.892   4.189
72049ION    NA+40443  34.679   5.183  13.834
72050ION    NA+40444  43.664  22.449   1.566
72051ION    NA+40445  26.249  35.911   2.615
72052ION    NA+40446  12.348  17.509  13.265
72053ION    NA+40447  10.694  34.050   2.039
72054ION    NA+40448  17.785  29.009  11.019
72055ION    NA+40449  39.389  44.656   1.938
72056ION    NA+40450  22.014  35.427  12.957
72057ION    NA+40451  16.612  10.952  13.859
72058ION    NA+40452  26.338  33.338  14.563
72059ION    NA+40453  23.456  30.138  10.662
72060ION    NA+40454   5.683  32.285  11.855
72061ION    NA+40455  36.737  36.738  12.221
72062ION    NA+40456  13.437  23.915   2.751
72063ION    NA+40457   9.764  31.167  12.771
72064ION    NA+40458  19.064   3.977  13.091
72065ION    NA+40459  26.932  11.762  13.192
72066ION    NA+40460   9.378  11.792   0.341
72067ION    NA+40461  12.128  13.657  12.597
72068ION    NA+40462  38.847  22.862  14.758
72069ION    NA+40463  20.114   4.121  14.957
72070ION    NA+40464  31.297  33.412  13.808
72071ION    NA+40465  20.641  19.279   1.241
72072ION    NA+40466  36.977  35.248  13.795
72073ION    NA+40467  21.818  37.661   2.903
72074ION    NA+40468  44.909  30.622  12.964
72075ION    NA+40469   4.545  11.418   3.979
72076ION    NA+40470   9.191  32.409   0.839
72077ION    NA+40471   3.007  34.157   1.687
72078ION    NA+40472  16.002   9.684   9.707
72079ION    NA+40473  35.947  31.380   1.441
72080ION    NA+40474  42.986   3.041   4.685
72081ION    NA+40475  36.593  29.258   1.242
72082ION    NA+40476  26.682   9.299   0.227
72083ION    NA+40477  32.646  23.037  12.827
72084ION    NA+40478  19.392   9.938  10.792
72085ION    NA+40479  31.225  35.407  11.194
72086ION    NA+40480  20.515  11.717  14.912
72087ION    NA+40481   2.689  24.459   0.403
72088ION    NA+40482  18.949   8.321   4.306
72089ION    NA+40483  17.834   9.335  14.837
72090ION    NA+40484  41.951  29.662  11.661
72091ION    NA+40485  37.529  12.277  11.271
72092ION    NA+40486  37.581  12.726  12.508
72093ION    NA+40487  39.038  40.220   0.273
72094ION    NA+40488  17.746   5.675  10.540
72095ION    NA+40489   9.700  25.739  13.892
72096ION    NA+40490  32.318   1.352   1.401
72097ION    NA+40491  23.479  22.526  12.459
72098ION    NA+40492  16.647  44.545   2.144
72099ION    NA+40493  42.310  16.715  12.678
72100ION    NA+40494  33.750  21.795   4.169
72101ION    NA+40495  20.658  24.543   0.239
72102ION    NA+40496  23.916  43.288   4.219
72103ION    NA+40497  37.494  25.612  14.581
72104ION    NA+40498  20.336  28.560   1.951
72105ION    NA+40499  21.609   6.008   2.298
72106ION    NA+40500  42.890  28.637   0.664
72107ION    NA+40501  17.998   3.879  13.685
72108ION    NA+40502  15.761  29.125  13.859
72109ION    NA+40503  19.349  28.234  11.744
72110ION    NA+40504   3.437   5.312   0.849
72111ION    NA+40505  27.201  12.401   3.310
72112ION    NA+40506  28.674   8.730   3.946
72113ION    NA+40507   4.292  17.327  14.366
72114ION    NA+40508  30.768  41.538   3.033
72115ION    NA+40509   2.001  41.471  14.369
72116ION    NA+40510  39.015  18.640   3.767
72117ION    NA+40511  27.269   5.410   3.308
72118ION    NA+40512   3.074  30.810   4.800
72119ION    NA+40513  22.248   4.671  14.425
72120ION    NA+40514   7.366  12.973   0.315
72121ION    NA+40515  23.733  31.398  13.569
72122ION    NA+40516  43.008   5.115   1.874
72123ION    NA+40517   7.809   3.775   1.518
72124ION    NA+40518  24.095  38.863  12.365
72125ION    NA+40519  37.663  36.873   2.214
72126ION    NA+40520  24.233   6.245  12.753
72127ION    NA+40521  43.884  44.052  14.777
72128ION    NA+40522  43.403  42.494   0.164
72129ION    NA+40523  21.561  43.008   0.895
72130ION    NA+40524  37.846  29.604   3.105
72131ION    NA+40525  29.066  12.251  13.949
72132ION    NA+40526   1.446  34.614  13.506
72133ION    NA+40527  13.245  22.224   2.123
72134ION    NA+40528  12.359  21.535  11.213
72135ION    NA+40529  42.917   0.642   1.871
72136ION    NA+40530  40.249  16.470  11.875
72137ION    NA+40531   0.708  35.763   3.205
72138ION    NA+40532  28.229  11.308   0.188
72139ION    NA+40533  41.195  11.100   1.758
72140ION    NA+40534  23.563   1.780   4.603
72141ION    NA+40535   2.180  26.803   2.730
72142ION    NA+40536  43.467  30.190   1.828
72143ION    NA+40537   6.177  28.986  13.759
72144ION    NA+40538  31.081  19.264  13.984
72145ION    NA+40539  35.503  38.304  14.811
72146ION    NA+40540  30.944  39.243  12.394
72147ION    NA+40541  29.404  39.050   3.306
72148ION    NA+40542  20.558  42.855   4.449
72149ION    NA+40543  37.854  38.340   2.115
72150ION    NA+40544   7.852  18.230  12.350
72151ION    NA+40545  34.882  44.138  13.458
72152ION    NA+40546  32.308  11.608   3.261
72153ION    NA+40547  40.507   3.351   4.739
72154ION    NA+40548  39.063  24.790   4.117
72155ION    NA+40549  12.750  30.677  13.485
72156ION    NA+40550  18.081   4.053   4.395
72157ION    NA+40551  35.663  42.479   4.248
72158ION    NA+40552  38.503  35.218  11.595
72159ION    NA+40553  22.953  36.426  13.636
72160ION    NA+40554   8.961  21.398   3.935
72161ION    NA+40555  33.993  22.206   2.484
72162ION    NA+40556  39.376  31.908   1.436
72163ION    NA+40557  18.868  31.803   4.637
72164ION    NA+40558  15.515   4.184   2.084
72165ION    NA+40559  35.354  19.710  12.677
72166ION    NA+40560   2.890  33.343   1.971
72167ION    NA+40561  23.748  29.689  11.561
72168ION    NA+40562  13.892   4.143   4.261
72169ION    NA+40563  44.808  19.433   4.191
72170ION    NA+40564  39.260  32.886  12.149
72171ION    NA+40565  36.850  42.137   2.532
72172ION    NA+40566  10.365   4.317   4.144
72173ION    NA+40567   9.476  15.515   4.286
72174ION    NA+40568   0.702  17.984   3.417
72175ION    NA+40569  31.264   4.749   4.444
72176ION    NA+40570  36.296  30.489   0.718
72177ION    NA+40571  25.126  30.419  12.459
72178ION    NA+40572  24.581  24.701   0.639
72179ION    NA+40573  33.265  10.373  14.026
72180ION    NA+40574  18.678  10.061   4.469
72181ION    NA+40575  42.370  29.397   1.053
72182ION    NA+40576   4.656   3.784  13.419
72183ION    NA+40577   7.278  13.861   2.611
72184ION    NA+40578   1.540  44.274  11.639
72185ION    NA+40579  11.335  44.597  13.576
72186ION    NA+40580  23.623   8.872  13.764
72187ION    NA+40581  32.307  19.510   1.479
72188ION    NA+40582  25.096  14.126   1.989
72189ION    NA+40583  30.865  18.987   4.262
72190ION    NA+40584  29.453   9.361  13.291
72191ION    NA+40585  25.543  23.735   3.695
72192ION    NA+40586  34.217  23.073   1.836
72193ION    NA+40587  19.602  30.082   4.135
72194ION    NA+40588  14.340  22.599   3.366
72195ION    NA+40589   3.512   9.465   1.530
72196ION    NA+40590  36.683  13.914  11.052
72197ION    NA+40591  29.407  43.358  14.998
72198ION    NA+40592  38.018   1.713  13.452
72199ION    NA+40593  17.635  13.138  13.316
72200ION    NA+40594   6.413  15.261  10.725
72201ION    NA+40595  26.503  17.712  13.181
72202ION    NA+40596   6.395  20.242  14.502
72203ION    NA+40597  22.936  43.442   3.062
72204ION    NA+40598   1.786  22.349   0.540
72205ION    NA+40599   4.499   8.787  11.892
72206ION    NA+40600  11.393  25.057   0.907
72207ION    NA+40601   4.756  27.993  11.684
72208ION    NA+40602   5.580   1.520   5.149
72209ION    NA+40603  16.440  20.181  12.985
72210ION    NA+40604  41.117   8.305  10.660
72211ION    NA+40605  33.990  35.204   1.945
72212ION    NA+40606   8.928  40.128   3.385
72213ION    NA+40607  25.176   8.861  11.088
72214ION    NA+40608  10.188   4.501  10.792
72215ION    NA+40609  30.158   6.547   2.493
72216ION    NA+40610  37.496  43.287  12.349
72217ION    NA+40611  40.243  36.869  11.684
72218ION    NA+40612  32.058  14.133  11.977
72219ION    NA+40613   4.818  44.897   0.198
72220ION    NA+40614  13.295   9.235   2.262
72221ION    NA+40615  37.794  18.800   1.095
72222ION    NA+40616   0.208  11.237  11.531
72223ION    NA+40617  42.483  32.453  14.024
72224ION    NA+40618  27.256  37.012   2.148
72225ION    NA+40619  43.789  40.170   2.929
72226ION    NA+40620  17.687  29.587   2.655
72227ION    NA+40621  35.347  27.039   0.840
72228ION    NA+40622  15.682   2.750   3.743
72229ION    NA+40623  27.454  28.215  11.556
72230ION    NA+40624  26.195  41.607  11.486
72231ION    NA+40625  21.778  10.942  11.787
72232ION    NA+40626   3.398  21.079   3.187
72233ION    NA+40627  30.054  44.032   2.087
72234ION    NA+40628  24.041  32.245   1.732
72235ION    NA+40629  26.651  26.078  13.073
72236ION    NA+40630  22.552   8.885   2.879
72237ION    NA+40631  31.414  38.774   4.594
72238ION    NA+40632  13.491   9.243  12.629
72239ION    NA+40633   8.868  18.513   1.167
72240ION    NA+40634  18.985  43.040   2.722
72241ION    NA+40635  29.196  20.082   3.256
72242ION    NA+40636  16.848  25.586   0.021
72243ION    NA+40637  25.597  44.970  11.645
72244ION    NA+40638   6.946  30.853  11.940
72245ION    NA+40639  26.465   7.688   2.472
72246ION    NA+40640  24.066  10.942   2.795
72247ION    NA+40641  41.323  13.487  11.082
72248ION    NA+40642  40.363   4.363   1.505
72249ION    NA+40643  21.550  33.301  14.093
72250ION    NA+40644  11.859  38.629   0.270
72251ION    NA+40645  14.595   1.309   3.338
72252ION    NA+40646  24.133  35.608   4.386
72253ION    NA+40647  43.778   2.366  10.718
72254ION    NA+40648   8.218  12.220   1.924
72255ION    NA+40649   1.501  13.096   4.103
72256ION    NA+40650   0.121  13.676  11.639
72257ION    NA+40651  43.796  16.977  11.513
72258ION    NA+40652   5.089   4.808  10.061
72259ION    NA+40653  31.101  24.138  12.716
72260ION    NA+40654  30.057   1.646   3.208
72261ION    NA+40655  18.010  24.000  14.164
72262ION    NA+40656  11.474   6.011   1.939
72263ION    NA+40657  11.122   0.904   0.952
72264ION    NA+40658  31.566  41.441   1.123
72265ION    NA+40659  32.559  11.436   0.226
72266ION    NA+40660  44.985  14.498  11.630
72267ION    NA+40661   3.837  16.169   1.157
72268ION    NA+40662  18.956  36.822   3.517
72269ION    NA+40663  24.505   9.284   1.457
72270ION    NA+40664  17.175   3.754  14.325
72271ION    NA+40665  33.306  24.502   1.739
72272ION    NA+40666  25.831   7.796  10.630
72273ION    NA+40667  33.507  38.199  11.492
72274ION    NA+40668  11.460  16.859  10.411
72275ION    NA+40669  18.286   4.575   0.555
72276ION    NA+40670  10.645  38.237   2.479
72277ION    NA+40671  36.347  29.382  11.802
72278ION    NA+40672   1.795   1.471   4.766
72279ION    NA+40673  33.867   2.984  14.321
72280ION    NA+40674  41.732  26.116  14.508
72281ION    NA+40675  27.743  23.965   1.260
72282ION    NA+40676  19.265   2.721  12.957
72283ION    NA+40677   6.920   0.444  10.789
72284ION    NA+40678  24.397  38.709   4.970
72285ION    NA+40679  33.093  29.708  13.241
72286ION    NA+40680  27.198  13.584   0.862
72287ION    NA+40681  35.293  14.776   2.406
72288ION    NA+40682  23.863  28.916   3.028
72289ION    NA+40683  36.123  20.830  12.052
72290ION    NA+40684   6.217  13.673   0.797
72291ION    NA+40685  42.379  40.995  11.003
72292ION    NA+40686  13.822   7.455   1.185
72293ION    NA+40687  34.923  40.575   1.739
72294ION    NA+40688  43.424  10.684   4.837
72295ION    NA+40689   1.019  12.607   1.802
72296ION    NA+40690  17.630  43.814   1.354
72297ION    NA+40691  31.939   7.325  13.522
72298ION    NA+40692  32.637  12.653  11.230
72299ION    NA+40693  14.198   0.365  14.635
72300ION    NA+40694  39.129  29.074   2.088
72301ION    NA+40695  10.062  12.697   2.813
72302ION    NA+40696  11.059  23.718   1.619
72303ION    NA+40697  16.355   2.943  11.166
72304ION    NA+40698  28.496  28.371  14.891
72305ION    NA+40699  39.595  16.873  12.342
72306ION    NA+40700  20.213   3.877   1.790
72307ION    NA+40701  18.252  22.767  10.659
72308ION    NA+40702  33.223  34.064  12.966
72309ION    NA+40703  18.459  28.235   3.231
72310ION    NA+40704  12.693  31.610   3.103
72311ION    NA+40705  12.513  15.251  10.728
72312ION    NA+40706  26.613  41.531  13.010
72313ION    NA+40707   4.703  18.208  13.455
72314ION    NA+40708  31.587  44.257  13.747
72315ION    NA+40709  16.010   1.845  11.865
72316ION    NA+40710  12.316  12.152   1.095
72317ION    NA+40711  24.178  16.210  14.502
72318ION    NA+40712  37.370   4.434   3.111
72319ION    NA+40713   7.411  33.022  12.372
72320ION    NA+40714  11.069  21.468   4.596
72321ION    NA+40715  29.604  37.390  11.930
72322ION    NA+40716  37.138   7.260   4.443
72323ION    NA+40717  28.374   4.202   3.354
72324ION    NA+40718   6.145  31.031   1.916
72325ION    NA+40719  15.489   3.957   0.383
72326ION    NA+40720  39.327  24.831  10.194
72327ION    NA+40721  42.003  34.706   3.199
72328ION    NA+40722  13.586  35.830   3.218
72329ION    NA+40723  29.934   4.720   2.285
72330ION    NA+40724  41.346  13.781   1.635
72331ION    NA+40725  24.638   7.582  11.759
72332ION    NA+40726  37.120  44.884  11.717
72333ION    NA+40727  13.399   3.463  12.688
72334ION    NA+40728  14.207  24.384  12.944
72335ION    NA+40729  14.247   4.194  13.536
72336ION    NA+40730  17.784  14.831   1.725
72337ION    NA+40731  12.707   0.519   2.545
72338ION    NA+40732  27.919  28.230   1.355
72339ION    NA+40733   6.453   6.899  14.334
72340ION    NA+40734   4.939  35.229  14.585
72341ION    NA+40735  34.108   1.424  11.783
72342ION    NA+40736  35.930  28.075  14.254
72343ION    NA+40737   1.419  27.576  10.949
72344ION    NA+40738  14.312  44.046  12.755
72345ION    NA+40739  36.994  27.813  10.794
72346ION    NA+40740  27.124   2.448   5.115
72347ION    NA+40741  40.214   8.441  12.966
72348ION    NA+40742  38.440  36.677   3.567
72349ION    NA+40743  35.002   4.937  11.141
72350ION    NA+40744  17.759  37.252   5.136
72351ION    NA+40745  20.958  37.632   1.971
72352ION    NA+40746  11.940  37.639   0.394
72353ION    NA+40747  31.787  11.591   0.047
72354ION    NA+40748  37.943  12.078   4.831
72355ION    NA+40749  25.596  34.441  10.676
72356ION    NA+40750   2.672  21.155  11.634
72357ION    NA+40751  35.453  24.450   0.182
72358ION    NA+40752  23.584  35.675   1.691
72359ION    NA+40753  17.880  40.753   4.957
72360ION    NA+40754  28.944  23.493   3.589
72361ION    NA+40755  10.459  11.866   1.259
72362ION    NA+40756  36.595  39.815   3.741
72363ION    NA+40757  13.043  29.944   3.632
72364ION    NA+40758  23.287  44.025  10.763
72365ION    NA+40759   0.747  32.824   2.809
72366ION    NA+40760  29.554  38.784  12.543
72367ION    NA+40761  42.260  28.103  14.967
72368ION    NA+40762  27.545  22.117   1.880
72369ION    NA+40763  19.962   2.931  13.859
72370ION    NA+40764  22.794  35.535  10.990
72371ION    NA+40765  17.295  11.975   0.753
72372ION    NA+40766  33.330  41.436  14.861
72373ION    NA+40767  32.071  36.723  10.346
72374ION    NA+40768  16.164   7.752  14.757
72375ION    NA+40769  26.172  23.489   2.428
72376ION    NA+40770  43.925  36.661   1.395
72377ION    NA+40771  30.359  34.291  14.717
72378ION    NA+40772  14.484  34.989   0.397
72379ION    NA+40773   5.543  13.585   3.371
72380ION    NA+40774  37.038  35.660   5.040
72381ION    NA+40775  24.624  24.048  12.446
72382ION    NA+40776  43.120  37.904  14.106
72383ION    NA+40777  16.176  12.225   0.830
72384ION    NA+40778  41.036  15.925  10.669
72385ION    NA+40779  22.432  39.292  14.013
72386ION    NA+40780  32.807  30.329   4.128
72387ION    NA+40781  34.081  37.666   3.132
72388ION    NA+40782  42.335  34.178  13.684
72389ION    NA+40783  27.770  22.815   4.387
72390ION    NA+40784  14.209  26.810   2.647
72391ION    NA+40785  33.973  10.246   2.887
72392ION    NA+40786  17.060  16.350  11.998
72393ION    NA+40787  35.606  17.866   0.081
72394ION    NA+40788  20.423  44.313   3.929
72395ION    NA+40789  13.392   6.664   1.054
72396ION    NA+40790  10.367  37.615  13.837
72397ION    NA+40791   2.755  42.889   3.210
72398ION    NA+40792  15.717  30.032   0.169
72399ION    NA+40793  19.354  29.401  14.530
72400ION    NA+40794  34.051  11.469  14.157
72401ION    NA+40795  17.538  35.961   1.385
72402ION    NA+40796  30.028  20.631  13.974
72403ION    NA+40797  18.572   2.251   0.728
72404ION    NA+40798  14.184  43.727   2.381
72405ION    NA+40799  43.473  14.896  13.704
72406ION    NA+40800  22.119  30.173  11.213
72407ION    NA+40801   6.951  26.063  10.744
72408ION    NA+40802  36.747  37.345  14.396
72409ION    NA+40803  21.523  22.497  14.216
72410ION    NA+40804  29.871   2.414   5.274
72411ION    NA+40805  18.533  35.690  14.713
72412ION    NA+40806  30.729   2.465  10.838
72413ION    NA+40807  39.054  30.638  11.026
72414ION    NA+40808  10.295   4.713   1.437
72415ION    NA+40809  34.118  25.196   2.805
72416ION    NA+40810   7.771  12.232   4.428
72417ION    NA+40811  30.819  35.938   5.297
72418ION    NA+40812   3.927  10.673  12.223
72419ION    NA+40813  42.590  13.847  12.036
72420ION    NA+40814  11.334  14.787  11.329
72421ION    NA+40815  35.440   7.574   0.497
72422ION    NA+40816  43.958  42.971  13.173
72423ION    NA+40817   4.326  41.841   3.291
72424ION    NA+40818   8.439  21.167   2.375
72425ION    NA+40819   7.708  30.316   0.539
72426ION    NA+40820  12.754  13.015  12.152
72427ION    NA+40821  22.862  21.152  11.407
72428ION    NA+40822  16.902   6.705  12.367
72429ION    NA+40823  17.675  10.247   2.688
72430ION    NA+40824   5.668   6.562   1.558
72431ION    NA+40825  29.273   2.379   1.193
72432ION    NA+40826  34.275  23.377   5.001
72433ION    NA+40827   3.360  22.797  13.926
72434ION    NA+40828  18.229   8.343  11.991
72435ION    NA+40829  14.036  38.975   2.591
72436ION    NA+40830   1.385  17.731  14.993
72437ION    NA+40831  43.027  34.519  14.513
72438ION    NA+40832  36.152   2.289   1.396
72439ION    NA+40833  13.339   0.719   1.441
72440ION    NA+40834  16.236  43.329   2.645
72441ION    NA+40835  42.403   7.240  14.991
72442ION    NA+40836   1.337   6.911   2.063
72443ION    NA+40837  22.561  25.516  10.483
72444ION    NA+40838  22.066  10.010  12.817
72445ION    NA+40839   1.039  15.089  12.390
72446ION    NA+40840  35.285  39.301  12.545
72447ION    NA+40841  30.522  34.096  12.540
72448ION    NA+40842  25.018  12.696  11.521
72449ION    NA+40843  44.303  17.219   0.708
72450ION    NA+40844  23.666  42.592  14.362
72451ION    NA+40845  22.483  38.553   1.754
72452ION    NA+40846  15.734   3.516   1.320
72453ION    NA+40847   8.384  41.733  14.841
72454ION    NA+40848   9.798  44.052   0.919
72455ION    NA+40849  22.090  32.657  12.311
72456ION    NA+40850  29.741   4.248  12.521
72457ION    NA+40851  38.111   4.036   1.657
72458ION    NA+40852  40.405  22.202   3.962
72459ION    NA+40853  28.286  34.509   2.389
72460ION    NA+40854  22.714  22.030   1.337
72461ION    NA+40855  14.224  21.546   0.552
72462ION    NA+40856   1.724  15.990  14.000
72463ION    NA+40857  12.564  24.521   2.160
72464ION    NA+40858  34.075  26.042   4.122
72465ION    NA+40859  32.180  21.715   3.795
72466ION    NA+40860  42.561  28.551  11.960
72467ION    NA+40861   9.634   9.219  12.783
72468ION    NA+40862  32.473  39.790   2.772
72469ION    NA+40863   1.254   8.253  14.881
72470ION    NA+40864  41.938  19.018  13.866
72471ION    NA+40865  37.916  26.686   0.724
72472ION    NA+40866  15.673   0.470  11.462
72473ION    NA+40867   7.321  26.611   9.994
72474ION    NA+40868   9.678  28.238  11.213
72475ION    NA+40869  14.518  12.523   1.831
72476ION    NA+40870  27.684   9.141   0.325
72477ION    NA+40871  21.375   1.670  13.813
72478ION    NA+40872  30.587  41.622   1.224
72479ION    NA+40873   9.980  28.764   2.357
72480ION    NA+40874  28.327  14.533   5.196
72481ION    NA+40875  36.996  43.042   2.132
72482ION    NA+40876  35.111  39.917  10.531
72483ION    NA+40877  27.364   7.683   2.581
72484ION    NA+40878   8.504   0.827   3.118
72485ION    NA+40879  34.258  24.751   1.920
72486ION    NA+40880   8.254  18.606   3.961
72487ION    NA+40881   4.381  42.817   2.518
72488ION    NA+40882  21.543  30.421   4.232
72489ION    NA+40883   0.796  14.285  11.743
72490ION    NA+40884  22.867  35.971   4.399
72491ION    NA+40885  43.857  32.628   4.476
72492ION    NA+40886  17.608  13.860   3.305
72493ION    NA+40887  26.562   9.208  12.899
72494ION    NA+40888   5.375  43.086  14.904
72495ION    NA+40889  39.744  17.525   1.023
72496ION    NA+40890  16.625  31.900   2.687
72497ION    NA+40891  13.532  23.932  13.530
72498ION    NA+40892  18.831  30.292   5.436
72499ION    NA+40893   4.165  17.088   5.271
72500ION    NA+40894   2.112   0.421  14.900
72501ION    NA+40895  15.778  35.032   4.419
72502ION    NA+40896  25.596  43.964   4.140
72503ION    NA+40897  15.029   6.343  14.264
72504ION    NA+40898  32.147  22.585  12.623
72505ION    NA+40899   9.150   8.346   3.706
72506ION    NA+40900   6.709  33.210   3.520
72507ION    NA+40901  39.334  39.735  11.143
72508ION    NA+40902   1.261  19.496  13.965
72509ION    NA+40903  34.544   7.905  13.383
72510ION    NA+40904  11.654  20.782   1.363
72511ION    NA+40905  43.808   3.403  14.452
72512ION    NA+40906   1.284  38.853  12.354
72513ION    NA+40907  16.695  37.301   3.462
72514ION    NA+40908   1.130  44.651   0.843
72515ION    NA+40909  38.331   8.946   1.135
72516ION    NA+40910  11.300   1.914  13.853
72517ION    NA+40911  26.678  17.659  11.593
72518ION    NA+40912  15.869  23.797   0.130
72519ION    NA+40913  20.474  25.983  14.930
72520ION    NA+40914  27.954  18.455   1.517
72521ION    NA+40915  42.083  33.551   5.301
72522ION    NA+40916  31.153  15.439  13.518
72523ION    NA+40917  30.479   3.756   4.662
72524ION    NA+40918  32.445   4.389   0.361
72525ION    NA+40919  14.710  35.644  13.865
72526ION    NA+40920  14.388  17.948   0.421
72527ION    NA+40921  41.058   3.506  12.977
72528ION    NA+40922  21.046  34.003   4.720
72529ION    NA+40923   4.690   6.968  11.206
72530ION    NA+40924  44.492  17.266   4.496
72531ION    NA+40925  18.526  42.130  10.313
72532ION    NA+40926  14.308   9.464  12.016
72533ION    NA+40927  16.479  29.630  11.138
72534ION    NA+40928  21.642  11.730   0.284
72535ION    NA+40929   5.397   6.371  10.953
72536ION    NA+40930  13.725  19.663   0.174
72537ION    NA+40931  44.857  44.460  13.676
72538ION    NA+40932  36.837  27.513   2.426
72539ION    NA+40933  39.612  20.978   4.641
72540ION    NA+40934  15.904   0.354   4.879
72541ION    NA+40935  29.971   0.535   0.888
72542ION    NA+40936  24.975  29.579   3.493
72543ION    NA+40937   3.875  12.048   0.165
72544ION    NA+40938  22.618  27.794   9.929
72545ION    NA+40939  31.455  29.949  10.880
72546ION    NA+40940   3.688  38.351  14.250
72547ION    NA+40941  19.681  21.530   4.236
72548ION    NA+40942  33.327   3.897  10.865
72549ION    NA+40943  42.513   9.505   4.635
72550ION    NA+40944   3.347   2.604  13.893
72551ION    NA+40945   2.758  16.975   0.551
72552ION    NA+40946  15.481  30.043  11.337
72553ION    NA+40947   2.384  20.336  11.366
72554ION    NA+40948  31.497  28.437   1.414
72555ION    NA+40949  14.716  37.777   2.697
72556ION    NA+40950   3.314  20.039  10.582
72557ION    NA+40951  39.200  43.198   2.597
72558ION    NA+40952  31.676   8.040  11.689
72559ION    NA+40953   1.394  14.563  13.036
72560ION    NA+40954  36.517   4.672  11.867
72561ION    NA+40955  23.070  36.607   1.897
72562ION    NA+40956  27.528  24.563  10.783
72563ION    NA+40957  40.998  31.119   2.092
72564ION    NA+40958   0.649  24.397   0.826
72565ION    NA+40959  25.238   0.099   1.106
72566ION    NA+40960  32.068   0.806   3.492
72567ION    NA+40961  32.012  22.561  10.712
72568ION    NA+40962  36.592  33.295  13.264
72569ION    NA+40963  28.992  44.994  12.953
72570ION    NA+40964  44.492  33.309   1.756
72571ION    NA+40965  33.413  43.417   3.160
72572ION    NA+40966  20.648  13.353   2.109
72573ION    NA+40967  14.129  23.540   2.011
72574ION    NA+40968  16.696   6.021  11.122
72575ION    NA+40969   1.493  38.780  13.362
72576ION    NA+40970   5.361  15.798  10.712
72577ION    NA+40971   2.710  35.196  13.058
72578ION    NA+40972  31.525  33.037   1.702
72579ION    NA+40973  10.187  15.532  12.438
72580ION    NA+40974  25.793   7.979   1.915
72581ION    NA+40975  34.779  41.042   4.200
72582ION    NA+40976  16.002  24.105   3.711
72583ION    NA+40977   1.558  21.821   5.084
72584ION    NA+40978  28.435  17.159   3.865
72585ION    NA+40979  10.660   8.967  11.878
72586ION    NA+40980   8.732  29.699   1.347
72587ION    NA+40981   9.697   2.428   0.435
72588ION    NA+40982  29.012  31.486  11.170
72589ION    NA+40983  19.017  34.946   3.100
72590ION    NA+40984  14.653   6.914   1.594
72591ION    NA+40985  11.776   7.937  13.579
72592ION    NA+40986  15.706  13.998   1.638
72593ION    NA+40987  39.239  13.154  11.138
72594ION    NA+40988  38.545   2.813   0.017
72595ION    NA+40989   6.930  34.447   3.129
72596ION    NA+40990  32.324  32.492  13.557
72597ION    NA+40991   5.626   2.129   3.679
72598ION    NA+40992   1.110  12.242   3.761
72599ION    NA+40993   1.635   8.813  13.378
72600ION    NA+40994  27.940  17.188   1.161
72601ION    NA+40995   8.629   6.373  14.003
72602ION    NA+40996  34.009  12.296   2.935
72603ION    NA+40997  10.250  17.779   0.713
72604ION    NA+40998   0.298  11.581   0.779
72605ION    NA+40999   4.964  14.850   1.226
72606ION    NA+41000   9.635  27.444   3.863
72607ION    NA+41001  17.305  27.651   3.412
72608ION    NA+41002  34.682  21.997   1.787
72609ION    NA+41003  25.327  32.912   4.509
72610ION    NA+41004  35.897   2.745  14.430
72611ION    NA+41005  40.240  35.330   0.598
72612ION    NA+41006  27.566  17.118  10.735
72613ION    NA+41007  15.273   8.873  12.539
72614ION    NA+41008  18.237  24.948   0.372
72615ION    NA+41009  38.672  26.671   4.627
72616ION    NA+41010  26.199  26.766   1.304
72617ION    NA+41011  28.439   9.764   0.382
72618ION    NA+41012  12.942  23.201   2.194
72619ION    NA+41013  39.438  36.778   1.583
72620ION    NA+41014   1.266  33.559   3.293
72621ION    NA+41015  11.136   1.335   3.975
72622ION    NA+41016   6.903  44.446   3.342
72623ION    NA+41017  25.548  11.572   3.636
72624ION    NA+41018  31.329  12.097   2.146
72625ION    NA+41019  10.008   1.041  13.779
72626ION    NA+41020  13.070   3.223   2.376
72627ION    NA+41021  24.704  30.830   3.262
72628ION    NA+41022  22.209   9.793   4.587
72629ION    NA+41023   4.735   7.538  13.771
72630ION    NA+41024   4.728  25.143  10.970
72631ION    NA+41025  18.876   0.227  12.057
72632ION    NA+41026  35.382   5.428   3.342
72633ION    NA+41027  30.713  32.674   1.750
72634ION    NA+41028  28.073   0.977   2.767
72635ION    NA+41029   6.559  14.207   2.009
72636ION    NA+41030  23.947  29.434  13.361
72637ION    NA+41031  41.084  12.325   3.660
72638ION    NA+41032  14.621  36.475  12.190
72639ION    NA+41033  12.742  37.306   4.951
72640ION    NA+41034   2.531  36.864  13.389
72641ION    NA+41035  38.960  42.557   0.631
72642ION    NA+41036  22.692   8.297  11.352
72643ION    NA+41037  17.881  41.674   3.553
72644ION    NA+41038  14.414  43.806  13.606
72645ION    NA+41039  18.120  29.071  14.581
72646ION    NA+41040  22.186  12.489   2.400
72647ION    NA+41041  21.554  38.592   2.650
72648ION    NA+41042   6.239  28.369  12.539
72649ION    NA+41043  17.878  36.565   9.599
72650ION    NA+41044  23.373  33.467  12.539
72651ION    NA+41045  19.542  43.003  10.701
72652ION    NA+41046   3.453   8.805   2.428
72653ION    NA+41047  34.025  13.249   3.208
72654ION    NA+41048  14.050   4.851   4.949
72655ION    NA+41049  25.644   4.030   3.406
72656ION    NA+41050  22.288  31.766  11.902
72657ION    NA+41051  20.576  40.330   0.063
72658ION    NA+41052  12.012  28.839  11.684
72659ION    NA+41053   1.831   3.444   1.794
72660ION    NA+41054   0.142  44.592   0.984
72661ION    NA+41055  22.181  27.917   1.273
72662ION    NA+41056  39.344  26.154  13.340
72663ION    NA+41057  24.530   4.340  10.760
72664ION    NA+41058  10.268  42.949  10.651
72665ION    NA+41059  38.309  22.205   0.989
72666ION    NA+41060  31.151  27.414  11.612
72667ION    NA+41061  33.374  22.100  12.641
72668ION    NA+41062  28.885  26.997   1.902
72669ION    NA+41063   5.135  38.168  13.044
72670ION    NA+41064  22.211  42.420   1.623
72671ION    NA+41065  44.330  24.220  11.901
72672ION    NA+41066  11.271  37.500  11.484
72673ION    NA+41067  32.397  18.621   1.417
72674ION    NA+41068  42.103  26.056   4.370
72675ION    NA+41069  11.937  17.250   0.790
72676ION    NA+41070  41.829  15.183   4.127
72677ION    NA+41071  26.791  29.775  10.662
72678ION    NA+41072  25.872  22.300  14.676
72679ION    NA+41073  34.228  44.628  11.219
72680ION    NA+41074  22.357  18.119   3.569
72681ION    NA+41075  43.719  35.059   3.369
72682ION    NA+41076   2.514  12.215  12.148
72683ION    NA+41077  44.373  36.911   2.106
72684ION    NA+41078   1.257  20.468  10.790
72685ION    NA+41079  31.486  25.190   2.052
72686ION    NA+41080  16.181   4.569  10.740
72687ION    NA+41081   4.971  40.674  10.284
72688ION    NA+41082  17.640  18.591   0.660
72689ION    NA+41083  35.035  20.595  13.094
72690ION    NA+41084   4.775  25.916  14.984
72691ION    NA+41085   2.090   1.923  11.942
72692ION    NA+41086  11.845  26.028   3.128
72693ION    NA+41087  35.791  19.469   2.181
72694ION    NA+41088   6.581  16.766   3.398
72695ION    NA+41089  14.972  32.802   4.118
72696ION    NA+41090  35.717  20.263  11.500
72697ION    NA+41091  29.488   0.979   3.697
72698ION    NA+41092   5.446  42.149  13.831
72699ION    NA+41093  21.251  42.053  12.064
72700ION    NA+41094  20.153  43.452  14.664
72701ION    NA+41095  37.035   8.517  12.362
72702ION    NA+41096  38.424  35.682   3.763
72703ION    NA+41097  41.745  13.367   0.748
72704ION    NA+41098   4.179   1.432  12.062
72705ION    NA+41099  14.881  37.677   4.572
72706ION    NA+41100  14.169  44.061   4.122
72707ION    NA+41101   0.483  18.027  11.173
72708ION    NA+41102  33.093  38.399  14.718
72709ION    NA+41103  22.626  30.378   9.902
72710ION    NA+41104  16.092  41.248  11.498
72711ION    NA+41105  32.235  16.871   4.495
72712ION    NA+41106  18.470  12.905  12.763
72713ION    NA+41107  31.772  22.221   1.923
72714ION    NA+41108   3.264  21.975  12.526
72715ION    NA+41109  39.023  42.385  14.743
72716ION    NA+41110  28.142  20.688  13.351
72717ION    NA+41111  38.894  43.952  10.558
72718ION    NA+41112  29.016   4.731   3.234
72719ION    NA+41113   6.807   1.426   3.208
72720ION    NA+41114  29.212   6.873   4.531
72721ION    NA+41115  39.492  35.427   2.404
72722ION    NA+41116  16.507  27.276   1.887
72723ION    NA+41117  39.487  23.283   0.480
72724ION    NA+41118  23.707  14.317  12.196
72725ION    NA+41119   9.610   8.871   0.818
72726ION    NA+41120  16.894  27.737   0.384
72727ION    NA+41121  44.024  14.871  13.168
72728ION    NA+41122  16.761  33.843  14.138
72729ION    NA+41123  43.253   4.431   3.367
72730ION    NA+41124   1.613  12.846  12.625
72731ION    NA+41125  43.877   8.356   2.548
72732ION    NA+41126   8.372  26.989   5.099
72733ION    NA+41127   8.870  25.138  12.496
72734ION    NA+41128  32.963   0.910  13.335
72735ION    NA+41129  33.532  34.310   3.250
72736ION    NA+41130  43.875   8.438  13.108
72737ION    NA+41131   8.834  26.017  12.972
72738ION    NA+41132  22.605  25.917   4.600
72739ION    NA+41133   2.722  16.073   0.029
72740ION    NA+41134  11.297  41.523  14.817
72741ION    NA+41135   7.376  25.658   0.530
72742ION    NA+41136  42.563  24.524   2.647
72743ION    NA+41137  16.947  38.181  10.785
72744ION    NA+41138  30.169  14.990   0.370
72745ION    NA+41139  26.931  14.447  11.773
72746ION    NA+41140  24.925  20.272   1.474
72747ION    NA+41141  11.724  44.681  14.566
72748ION    NA+41142  10.120  10.693  14.331
72749ION    NA+41143  31.857   6.224   3.222
72750ION    NA+41144  41.875  33.619   2.354
72751ION    NA+41145   3.144  44.569   2.911
72752ION    NA+41146  16.232  36.359  13.180
72753ION    NA+41147  23.844  19.562   3.365
72754ION    NA+41148  19.114  39.057  13.349
72755ION    NA+41149  43.507   0.071   2.083
72756ION    NA+41150  23.096   0.065   0.633
72757ION    NA+41151  22.387  19.258   2.923
72758ION    NA+41152  25.191  17.318  13.685
72759ION    NA+41153  41.953  37.551  12.576
72760ION    NA+41154   7.071   2.914   0.049
72761ION    NA+41155   3.630  16.817  12.728
72762ION    NA+41156  38.448   2.911  11.989
72763ION    NA+41157  33.529  38.769  13.442
72764ION    NA+41158  27.306  14.916  13.109
72765ION    NA+41159  40.287  14.526   2.894
72766ION    NA+41160  41.521  19.382  12.061
72767ION    NA+41161  18.595  23.876  12.481
72768ION    NA+41162  39.181  23.332   4.238
72769ION    NA+41163  44.735  34.254  11.582
72770ION    NA+41164  40.350  29.308  11.204
72771ION    NA+41165   5.525  13.418   2.385
72772ION    NA+41166  39.296  19.663   3.360
72773ION    NA+41167   3.841  20.270   0.934
72774ION    NA+41168  30.233  19.445  14.533
72775ION    NA+41169  25.515  34.728  11.630
72776ION    NA+41170   2.891  32.910   3.768
72777ION    NA+41171  23.208   3.553  14.161
72778ION    NA+41172  37.209  37.843  11.009
72779ION    NA+41173  17.674  18.284  14.158
72780ION    NA+41174  41.744  37.255   2.211
72781ION    NA+41175  10.333  41.015   0.401
72782ION    NA+41176  27.506  34.477   1.764
72783ION    NA+41177  26.703  16.662  10.210
72784ION    NA+41178  43.913   0.334   1.207
72785ION    NA+41179  23.107  35.580  13.544
72786ION    NA+41180  39.893  38.759   4.427
72787ION    NA+41181  43.815  37.779   3.093
72788ION    NA+41182  31.587  13.166  13.362
72789ION    NA+41183  36.052  34.808   1.937
72790ION    NA+41184   5.355  30.626  11.054
72791ION    NA+41185  32.095  32.883   3.158
72792ION    NA+41186  26.636  34.265  14.335
72793ION    NA+41187   4.290  35.857  13.711
72794ION    NA+41188  10.303  30.919   3.729
72795ION    NA+41189  39.559  38.004  10.753
72796ION    NA+41190  13.152  34.398   3.833
72797ION    NA+41191  28.820   3.851   3.427
72798ION    NA+41192   0.857  20.470  11.984
72799ION    NA+41193  20.318   9.618  12.404
72800ION    NA+41194  24.612   9.496  11.628
72801ION    NA+41195  22.536   0.049  14.487
72802ION    NA+41196  21.660   2.635  13.250
72803ION    NA+41197  33.232  23.249   1.825
72804ION    NA+41198  20.608  36.541  10.624
72805ION    NA+41199  15.380  17.235   4.365
72806ION    NA+41200   3.097  39.768  12.639
72807ION    NA+41201  43.094  10.546  12.885
72808ION    NA+41202  24.789   8.309  14.378
72809ION    NA+41203  44.889  34.998   1.865
72810ION    NA+41204  13.707   7.429   4.825
72811ION    NA+41205  30.612  32.869  13.805
72812ION    NA+41206  27.058  11.428   0.830
72813ION    NA+41207  16.814  31.262  11.140
72814ION    NA+41208  19.761  30.739  14.385
72815ION    NA+41209  42.551   2.836   3.808
72816ION    NA+41210  23.232  15.341   2.771
72817ION    NA+41211  13.264  17.829  13.022
72818ION    NA+41212  23.790  44.910   5.087
72819ION    NA+41213  22.914  40.389  12.047
72820ION    NA+41214  24.412  37.799   3.109
72821ION    NA+41215  20.815  38.688   0.531
72822ION    NA+41216   7.556  13.759  14.905
72823ION    NA+41217  44.828   5.892   0.764
72824ION    NA+41218   9.201  16.949  12.515
72825ION    NA+41219   2.698  25.664  14.129
72826ION    NA+41220  33.531   6.429  12.730
72827ION    NA+41221   1.258   7.234  11.601
72828ION    NA+41222   9.554  18.531  12.493
72829ION    NA+41223  29.109  27.850  13.950
72830ION    NA+41224  20.784  44.117  11.517
72831ION    NA+41225  14.539  30.340   1.528
72832ION    NA+41226   8.431  18.511   2.981
72833ION    NA+41227  14.472  41.109  12.514
72834ION    NA+41228  39.158  43.282   1.542
72835ION    NA+41229  11.546  12.244   1.469
72836ION    NA+41230   1.974  11.774  10.329
72837ION    NA+41231  21.594  36.177   0.581
72838ION    NA+41232   4.309  42.541  11.742
72839ION    NA+41233  28.685   4.044   2.587
72840ION    NA+41234   7.057   7.426  11.384
72841ION    NA+41235   8.651  21.991   3.335
72842ION    NA+41236  11.031  11.855  13.053
72843ION    NA+41237  38.523  36.364   2.174
72844ION    NA+41238   8.930   5.140   0.887
72845ION    NA+41239  26.550  39.498  14.397
72846ION    NA+41240  22.078  36.656   1.781
72847ION    NA+41241   1.100  35.968   0.304
72848ION    NA+41242  29.387  29.774  13.007
72849ION    NA+41243  11.326  32.010  14.528
72850ION    NA+41244   2.432  40.295   3.684
72851ION    NA+41245  15.664   1.475  14.946
72852ION    NA+41246   3.595  25.141  12.220
72853ION    NA+41247  26.302  14.090   0.212
72854ION    NA+41248  36.871  38.859  13.656
72855ION    NA+41249   2.572  34.749   3.654
72856ION    NA+41250  40.602  32.314   3.924
72857ION    NA+41251  34.838   3.461   3.101
72858ION    NA+41252  43.035  16.429  12.205
72859ION    NA+41253  42.548  23.811   4.563
72860ION    NA+41254  35.864  11.927   0.662
72861ION    NA+41255   0.953  38.698   2.889
72862ION    NA+41256  21.405  34.350  13.550
72863ION    NA+41257  12.661  42.802   1.528
72864ION    NA+41258  16.840  13.041   2.359
72865ION    NA+41259  25.650  22.188  13.677
72866ION    NA+41260  31.454  16.983  14.825
72867ION    NA+41261   5.995  42.814   1.747
72868ION    NA+41262   8.155  12.216  11.758
72869ION    NA+41263  29.698   9.130  14.233
72870ION    NA+41264  23.405   1.159  14.879
72871ION    NA+41265  17.191  30.192   5.127
72872ION    NA+41266  15.341  28.292   3.732
72873ION    NA+41267  44.305  15.900  11.178
72874ION    NA+41268  37.931  18.878  10.825
72875ION    NA+41269  28.975  15.777   1.793
72876ION    NA+41270  17.626  22.270  14.347
72877ION    NA+41271   4.971   1.463   1.628
72878ION    NA+41272  12.096   5.607  10.963
72879ION    NA+41273  15.411  18.944  14.744
72880ION    NA+41274  18.329  15.747  14.241
72881ION    NA+41275   2.375   1.078  12.444
72882ION    NA+41276  31.770   8.768   4.350
72883ION    NA+41277  17.942  20.401   2.415
72884ION    NA+41278  12.318  32.869   1.560
72885ION    NA+41279  30.167  18.634  11.208
72886ION    NA+41280  20.078   3.726  12.401
72887ION    NA+41281   7.369  41.351   1.435
72888ION    NA+41282  15.095  27.392   3.751
72889ION    NA+41283  43.062  30.596   0.463
72890ION    NA+41284   9.971   0.369  12.307
72891ION    NA+41285  24.680  27.606  11.669
72892ION    NA+41286  16.234  20.319   4.337
72893ION    NA+41287  25.782  20.748   3.771
72894ION    NA+41288  25.895  40.713  13.792
72895ION    NA+41289  28.087  21.636   1.192
72896ION    NA+41290  30.922  13.840  12.509
72897ION    NA+41291  11.390  16.684  13.756
72898ION    NA+41292  32.613   5.675   1.435
72899ION    NA+41293  30.385  39.306   1.226
72900ION    NA+41294  43.176   1.236   2.859
72901ION    NA+41295  13.631  38.583   3.296
72902ION    NA+41296   2.866  13.371  14.881
72903ION    NA+41297  35.359  25.575   1.908
72904ION    NA+41298  42.121  33.297  13.558
72905ION    NA+41299  37.433  36.400   3.781
72906ION    NA+41300   1.955  23.880   4.064
72907ION    NA+41301  24.235  43.841  12.843
72908ION    NA+41302  40.923  13.508   0.771
72909ION    NA+41303  37.115  23.683   1.417
72910ION    NA+41304  40.969  11.849  11.559
72911ION    NA+41305  10.609   3.606  10.940
72912ION    NA+41306  31.163  29.053   3.738
72913ION    NA+41307   6.179  23.641   3.113
72914ION    NA+41308  32.992  25.151   1.189
72915ION    NA+41309  25.079  34.114   1.925
72916ION    NA+41310  15.421   4.603   3.492
72917ION    NA+41311   2.498  20.075  13.831
72918ION    NA+41312   5.800   0.720   2.469
72919ION    NA+41313  19.715  19.831  11.867
72920ION    NA+41314  41.056  44.138   4.160
72921ION    NA+41315  19.749  14.620   3.569
72922ION    NA+41316  28.221   0.224  11.242
72923ION    NA+41317  42.831  26.539   5.288
72924ION    NA+41318  18.627  28.278  13.235
72925ION    NA+41319  16.077  44.217  11.901
72926ION    NA+41320  12.190  27.877   0.753
72927ION    NA+41321   0.149  11.536   3.396
72928ION    NA+41322  17.951  24.752   2.726
72929ION    NA+41323   6.918  43.122   3.225
72930ION    NA+41324   3.077  25.728  13.205
72931ION    NA+41325  38.283  11.327  12.682
72932ION    NA+41326   2.817  14.145   0.712
72933ION    NA+41327   7.424  37.827  14.768
72934ION    NA+41328   4.360  18.541   2.863
72935ION    NA+41329  28.745   6.141  14.407
72936ION    NA+41330  44.488  18.537   1.312
72937ION    NA+41331  38.922  35.899  12.352
72938ION    NA+41332  22.106  18.774   0.028
72939ION    NA+41333  31.008   1.234   3.122
72940ION    NA+41334  26.151  32.692  11.252
72941ION    NA+41335  26.717  15.555  13.605
72942ION    NA+41336  39.363   2.340   3.600
72943ION    NA+41337  26.190  27.559   2.738
72944ION    NA+41338  35.799  16.272   0.642
72945ION    NA+41339   5.995  19.496  13.555
72946ION    NA+41340  35.438   2.398  11.560
72947ION    NA+41341   5.106  10.200  13.990
72948ION    NA+41342  20.723  11.931  13.844
72949ION    NA+41343  24.214  22.507   4.340
72950ION    NA+41344  22.541   2.208   2.754
72951ION    NA+41345  16.080  40.397  10.667
72952ION    NA+41346   7.787   6.369  13.463
72953ION    NA+41347  19.277  39.662   0.619
72954ION    NA+41348  14.950   0.595   4.704
72955ION    NA+41349  22.206   7.810  14.001
72956ION    NA+41350   5.745  36.787  12.510
72957ION    NA+41351  22.776  10.444  13.464
72958ION    NA+41352  19.267  19.723  10.979
72959ION    NA+41353  29.862  36.841   1.520
72960ION    NA+41354  40.571  44.764   0.259
72961ION    NA+41355  36.914   3.779   1.014
72962ION    NA+41356  14.041  40.526  10.742
72963ION    NA+41357   0.334  31.467   3.999
72964ION    NA+41358  41.040  31.066   1.051
72965ION    NA+41359  35.575  30.531  10.789
72966ION    NA+41360  12.046  14.331  11.864
72967ION    NA+41361  20.758  29.167   0.660
72968ION    NA+41362  44.776   3.835   1.230
72969ION    NA+41363  38.324   4.330   2.796
72970ION    NA+41364  21.749  16.263   3.546
72971ION    NA+41365  20.264  32.393   4.147
72972ION    NA+41366   7.853  23.137  10.688
72973ION    NA+41367  11.964   2.128  11.591
72974ION    NA+41368  12.494  42.887  12.085
72975ION    NA+41369  43.053  40.877   0.270
72976ION    NA+41370  35.488  27.631   2.239
72977ION    NA+41371  18.516   5.674  12.238
72978ION    NA+41372  31.397  17.808  13.562
72979ION    NA+41373  31.052  27.969   0.364
72980ION    NA+41374  21.080  36.615   1.722
72981ION    NA+41375   1.140  17.242   0.607
72982ION    NA+41376  43.930  31.636  13.353
72983ION    NA+41377   7.571  21.256   1.887
72984ION    NA+41378   8.417  11.237   2.912
72985ION    NA+41379  29.111  18.152  12.310
72986ION    NA+41380  24.602  18.521  13.950
72987ION    NA+41381  32.094  24.297  13.616
72988ION    NA+41382   3.561  29.359  13.987
72989ION    NA+41383  18.980  37.205  11.463
72990ION    NA+41384  14.884  43.020  14.623
72991ION    NA+41385   5.784  24.539  12.227
72992ION    NA+41386   0.497  10.336  12.438
72993ION    NA+41387  10.516  39.594   4.908
72994ION    NA+41388   1.139  19.602   0.817
72995ION    NA+41389  34.926  37.130  13.385
72996ION    NA+41390   7.484   8.357   2.754
72997ION    NA+41391  13.078  32.493  14.804
72998ION    NA+41392  13.427  43.136   1.721
72999ION    NA+41393  32.993  22.600  11.564
73000ION    NA+41394  41.363  37.078  13.559
73001ION    NA+41395   4.785   0.299   1.505
73002ION    NA+41396  44.974  15.568  12.056
73003ION    NA+41397  36.257  19.422  14.365
73004ION    NA+41398  26.546   8.249   4.900
73005ION    NA+41399  15.740  17.059  12.362
73006ION    NA+41400  28.113  22.065  14.759
73007ION    NA+41401  25.499  14.370   0.737
73008ION    NA+41402  20.207   5.325  13.770
73009ION    NA+41403  18.339   2.948   0.031
73010ION    NA+41404  21.483  17.831  12.378
73011ION    NA+41405  35.859  13.855   1.292
73012ION    NA+41406   6.336  35.053   1.855
73013ION    NA+41407   7.834  36.313   3.753
73014ION    NA+41408  39.442  20.264  14.295
73015ION    NA+41409  20.562  34.631  13.730
73016ION    NA+41410  39.339   0.645   1.802
73017ION    NA+41411   4.546  39.957  14.883
73018ION    NA+41412  41.838  43.106  10.729
73019ION    NA+41413   1.658  24.008  12.442
73020ION    NA+41414  33.053  15.045   4.193
73021ION    NA+41415  14.826  33.787   2.313
73022ION    NA+41416  36.050   4.697  10.583
73023ION    NA+41417  27.284  33.030  13.648
73024ION    NA+41418  34.021  19.091   3.753
73025ION    NA+41419  29.771  33.305   4.080
73026ION    NA+41420  40.187  32.951  14.825
73027ION    NA+41421  42.851   9.778  12.821
73028ION    NA+41422  11.129   4.772  14.334
73029ION    NA+41423  31.848   3.389  11.825
73030ION    NA+41424  24.356  26.153   0.113
73031ION    NA+41425  19.272   9.246  11.953
73032ION    NA+41426  34.054  25.902   0.879
73033ION    NA+41427  41.051  31.399  12.813
73034ION    NA+41428  25.688  33.574  11.166
73035ION    NA+41429  22.261   3.455  13.726
73036ION    NA+41430   2.021  12.284   3.236
73037ION    NA+41431  23.846  26.193   2.199
73038ION    NA+41432  23.851  39.963  12.202
73039ION    NA+41433  12.009  15.017   9.864
73040ION    NA+41434  38.680   0.052  12.948
73041ION    NA+41435  29.216  29.082   0.399
73042ION    NA+41436  31.594  43.109   1.239
73043ION    NA+41437  41.537  15.025  12.557
73044ION    NA+41438   0.000   6.069   3.189
73045ION    NA+41439   8.473  23.678  11.256
73046ION    NA+41440  25.875   6.114   9.891
73047ION    NA+41441  26.749  27.907  10.918
73048ION    NA+41442  15.458  31.874  13.391
73049ION    NA+41443   2.060  25.196   3.582
73050ION    NA+41444  20.573  30.463  12.373
73051ION    NA+41445  41.519  25.883   1.780
73052ION    NA+41446   6.393   4.907   3.861
73053ION    NA+41447   4.713  37.202  11.770
73054ION    NA+41448  43.578  29.198   1.775
73055ION    NA+41449   4.011   3.051  14.493
73056ION    NA+41450  34.732   7.316  14.434
73057ION    NA+41451  41.507  27.209   2.390
73058ION    NA+41452  38.443  12.098   4.087
73059ION    NA+41453  34.173   8.802   2.274
73060ION    NA+41454   0.469  25.241   4.174
73061ION    NA+41455  44.122  34.370  10.800
73062ION    NA+41456  19.232  31.739   2.852
73063ION    NA+41457   4.724  15.911   0.699
73064ION    NA+41458  11.589  19.784  13.052
73065ION    NA+41459  24.562  41.349  12.944
73066ION    NA+41460  37.336  39.836  14.990
73067ION    NA+41461  29.600   7.945   4.497
73068ION    NA+41462  21.884  12.415   5.175
73069ION    NA+41463  25.617  20.934   1.185
73070ION    NA+41464  15.206  10.766   2.183
73071ION    NA+41465  19.009   4.244  11.704
73072ION    NA+41466   4.661  26.303  12.288
73073ION    NA+41467  11.004   0.529  13.429
73074ION    NA+41468  35.152  34.931  12.810
73075ION    NA+41469  42.384  34.780   0.503
73076ION    NA+41470   6.082  30.062  12.314
73077ION    NA+41471  34.563  14.757  12.551
73078ION    NA+41472  32.606  11.300   1.909
73079ION    NA+41473  41.946   1.860  11.853
73080ION    NA+41474  25.181  30.677   4.127
73081ION    NA+41475  39.432  22.111  14.441
73082ION    NA+41476  23.437  25.522  13.944
73083ION    NA+41477  36.922   0.096  12.674
73084ION    NA+41478   4.370  13.342   2.690
73085ION    NA+41479  27.416  18.648  12.513
73086ION    NA+41480  41.036  27.309   1.514
73087ION    NA+41481   1.505   4.875  13.154
73088ION    NA+41482  33.926  38.443   1.147
73089ION    NA+41483   0.646   2.840  10.715
73090ION    NA+41484  43.979   5.995   4.438
73091ION    NA+41485  33.527   8.848  13.986
73092ION    NA+41486  12.984  40.545  11.679
73093ION    NA+41487  21.318  43.796  14.348
73094ION    NA+41488  26.733  35.396  14.790
73095ION    NA+41489  14.657   5.884  14.954
73096ION    NA+41490   0.723  37.736   2.738
73097ION    NA+41491   5.170  31.777  14.747
73098ION    NA+41492   0.232  43.480  14.641
73099ION    NA+41493   5.373  26.938  12.591
73100ION    NA+41494  16.215  20.941  10.148
73101ION    NA+41495   5.403  42.065  14.725
73102ION    NA+41496   5.847  41.253   3.988
73103ION    NA+41497  40.963   5.746  11.108
73104ION    NA+41498  14.141   6.280   4.009
73105ION    NA+41499   1.671  22.752   4.736
73106ION    NA+41500  20.847  30.467   1.267
73107ION    NA+41501  33.258  24.973   2.626
73108ION    NA+41502  38.158   9.184   3.302
73109ION    NA+41503  36.049  43.359   2.198
73110ION    NA+41504  18.377   7.601   5.484
73111ION    NA+41505  21.472   5.325  10.667
73112ION    NA+41506  32.787  41.136   3.033
73113ION    NA+41507   1.255  40.494   3.186
73114ION    NA+41508   7.967  34.254   4.817
73115ION    NA+41509  27.962  20.605   0.385
73116ION    NA+41510   5.104  30.202   3.181
73117ION    NA+41511  39.287  43.575  12.936
73118ION    NA+41512  15.596  30.769  10.852
73119ION    NA+41513   7.326   5.303  11.625
73120ION    NA+41514  35.613  20.296   1.853
73121ION    NA+41515  17.568  24.507  13.535
73122ION    NA+41516  15.073  39.891  13.483
73123ION    NA+41517  35.446  29.705   2.146
73124ION    NA+41518  28.689  13.291   3.526
73125ION    NA+41519  27.018  17.750   2.721
73126ION    NA+41520  34.053  16.626  11.611
73127ION    NA+41521  21.649  17.377  14.911
73128ION    NA+41522   6.693  28.038  10.563
73129ION    NA+41523  43.498  12.002  11.750
73130ION    NA+41524  10.356   2.798   3.140
73131ION    NA+41525  23.089  24.010   2.720
73132ION    NA+41526  25.883  25.748  12.429
73133ION    NA+41527  42.386  19.012   4.720
73134ION    NA+41528  22.095  24.015   2.829
73135ION    NA+41529  13.714   6.194  13.868
73136ION    NA+41530   7.036  39.612  12.561
73137ION    NA+41531  13.356  42.551  12.464
73138ION    NA+41532   4.478  23.915   1.616
73139ION    NA+41533   0.372  16.775  11.477
73140ION    NA+41534  32.230   6.914   2.912
73141ION    NA+41535  33.350  17.009   5.117
73142ION    NA+41536   4.360  42.021  13.974
73143ION    NA+41537  16.739   5.193  11.497
73144ION    NA+41538  44.380  28.079   3.698
73145ION    NA+41539   1.268   0.490   0.180
73146ION    NA+41540  29.891   4.545  14.180
73147ION    NA+41541  26.786  38.815   4.108
73148ION    NA+41542  35.408  36.901  12.522
73149ION    NA+41543   3.150  27.524  10.142
73150ION    NA+41544  24.883  14.400   4.299
73151ION    NA+41545   2.209  12.744  10.262
73152ION    NA+41546  39.228  33.764   3.633
73153ION    NA+41547  16.750  42.588   2.856
73154ION    NA+41548   9.218  26.495  12.164
73155ION    NA+41549  17.562  29.741  11.663
73156ION    NA+41550  36.502   9.624  11.998
73157ION    NA+41551  37.650   1.222  14.826
73158ION    NA+41552   8.883  44.496  12.326
73159ION    NA+41553  21.540  29.156  14.853
73160ION    NA+41554   4.156  28.136   1.779
73161ION    NA+41555  10.179  44.072  12.617
73162ION    NA+41556  30.141  24.728   1.658
73163ION    NA+41557  28.523  40.642  14.870
73164ION    NA+41558  34.032  41.908   0.040
73165ION    NA+41559   6.184  42.194  11.932
73166ION    NA+41560  19.074   3.708   1.500
73167ION    NA+41561  10.075  35.957   4.762
73168ION    NA+41562  41.253  12.959   0.243
73169ION    NA+41563  23.285  12.125   0.716
73170ION    NA+41564  25.913  42.332   0.451
73171ION    NA+41565  32.429  24.034   3.405
73172ION    NA+41566  20.126  41.571  13.359
73173ION    NA+41567   8.201   5.529  12.055
73174ION    NA+41568   6.051   4.834  13.197
73175ION    NA+41569  22.822  26.467   1.576
73176ION    NA+41570  17.671  16.342   3.080
73177ION    NA+41571  38.440  37.414   0.545
73178ION    NA+41572  32.248   9.786  10.539
73179ION    NA+41573  29.656  39.261  11.670
73180ION    NA+41574   6.802   5.298  10.773
73181ION    NA+41575   6.741   2.385   0.651
73182ION    NA+41576  35.798  17.180   4.647
73183ION    NA+41577   7.740   3.559  14.469
73184ION    NA+41578  18.978  30.394   4.882
73185ION    NA+41579  25.641  10.736   1.430
73186ION    NA+41580  35.952  21.144   2.450
73187ION    NA+41581  32.479  30.050   1.695
73188ION    NA+41582  38.956  15.101   3.369
73189ION    NA+41583  21.503  11.071   2.137
73190ION    NA+41584  26.166  27.754  10.259
73191ION    NA+41585   6.652  21.201  12.882
73192ION    NA+41586  37.309  38.875   4.469
73193ION    NA+41587  14.201  17.517  12.864
73194ION    NA+41588   4.980  12.581  11.576
73195ION    NA+41589  24.905  27.075   2.673
73196ION    NA+41590  25.552  35.450   0.957
73197ION    NA+41591  30.696  27.525  13.099
73198ION    NA+41592  16.575  32.531   1.458
73199ION    NA+41593  42.047  34.887  12.488
73200ION    NA+41594  28.291   0.961   1.188
73201ION    NA+41595  13.303  36.603   0.371
73202ION    NA+41596  35.084  13.510  11.449
73203ION    NA+41597   6.446  24.384   1.651
73204ION    NA+41598  38.967  37.268   4.623
73205ION    NA+41599  22.974   1.992   3.823
73206ION    NA+41600  17.405   5.408   3.229
73207ION    NA+41601  43.666  26.423   0.974
73208ION    NA+41602  13.718  12.223   2.146
73209ION    NA+41603  31.658  15.955  11.549
73210ION    NA+41604  11.605  16.430   1.927
73211ION    NA+41605  12.023   9.209   0.664
73212ION    NA+41606  12.028  42.965  14.738
73213ION    NA+41607  18.019  32.888   0.134
73214ION    NA+41608   0.435   3.426   2.140
73215ION    NA+41609  16.174  38.987   2.878
73216ION    NA+41610  44.164  35.699  13.449
73217ION    NA+41611  12.800   7.665  10.952
73218ION    NA+41612  21.410  32.801  13.331
73219ION    NA+41613  12.942  27.069  13.910
73220ION    NA+41614  28.618   1.507  10.798
73221ION    NA+41615   3.315   3.530   9.922
73222ION    NA+41616  40.213   2.684   4.220
73223ION    NA+41617   7.600  17.065  11.691
73224ION    NA+41618   8.435  16.908   3.909
73225ION    NA+41619  13.400  35.928  13.003
73226ION    NA+41620  36.858  26.300   1.937
73227ION    NA+41621  12.199  35.489  14.520
73228ION    NA+41622  30.710   6.731  13.364
73229ION    NA+41623   6.459   2.679   3.634
73230ION    NA+41624   8.440  28.067   4.307
73231ION    NA+41625  10.646  12.052  14.709
73232ION    NA+41626  18.164  32.456   1.416
73233ION    NA+41627  16.368   5.602   0.633
73234ION    NA+41628  42.354  28.204  13.100
73235ION    NA+41629  21.101  33.862   1.989
73236ION    NA+41630  24.170  44.129  13.997
73237ION    NA+41631  42.012  34.857  10.404
73238ION    NA+41632  18.240  43.577  11.033
73239ION    NA+41633  35.167  22.758   1.764
73240ION    NA+41634  25.932  36.856  14.885
73241ION    NA+41635  15.957  28.530  13.196
73242ION    NA+41636   5.420  18.377  11.736
73243ION    NA+41637  29.200  16.627  13.855
73244ION    NA+41638  19.423  28.541   1.545
73245ION    NA+41639  20.669  39.512  14.049
73246ION    NA+41640  15.404  14.075  14.911
73247ION    NA+41641  43.301  32.637   1.954
73248ION    NA+41642  10.374  22.643   3.991
73249ION    NA+41643  14.885   2.789   1.070
73250ION    NA+41644   9.095  33.114  11.501
73251ION    NA+41645  21.857  12.846  13.940
73252ION    NA+41646  11.640  26.017  12.888
73253ION    NA+41647  28.305  26.102   9.947
73254ION    NA+41648   1.212   4.911   4.643
73255ION    NA+41649  27.086  33.594  14.875
73256ION    NA+41650  33.194   1.301   0.922
73257ION    NA+41651   8.589  19.033  13.093
73258ION    NA+41652  42.816  35.474  11.199
73259ION    NA+41653  14.702   2.831   3.558
73260ION    NA+41654  35.865  41.803  11.569
73261ION    NA+41655  21.759  26.306  14.389
73262ION    NA+41656  21.214  33.099   3.590
73263ION    NA+41657  15.415  14.716  14.267
73264ION    NA+41658  17.814  32.122   4.545
73265ION    NA+41659  41.910   2.121   3.528
73266ION    NA+41660  28.363   9.336  14.620
73267ION    NA+41661  23.049  42.151  13.673
73268ION    NA+41662   3.802  30.888  13.901
73269ION    NA+41663   9.647  31.321  11.124
73270ION    NA+41664  38.614  29.902   1.233
73271ION    NA+41665  36.428   6.911   3.231
73272ION    NA+41666  30.485   6.503  11.082
73273ION    NA+41667  16.637   8.456   3.051
73274ION    NA+41668  14.959  34.066   9.808
73275ION    NA+41669  35.515  25.679   3.292
73276ION    NA+41670  29.930   1.743  10.755
73277ION    NA+41671  23.325   4.261   2.549
73278ION    NA+41672  18.691  39.549  11.059
73279ION    NA+41673   1.952  18.231  10.939
73280ION    NA+41674  43.940  29.042  11.020
73281ION    NA+41675  17.513  36.539  12.770
73282ION    NA+41676   3.636  35.874   1.966
73283ION    NA+41677  13.580  35.576   0.407
73284ION    NA+41678   5.401   9.431  11.981
73285ION    NA+41679  21.521   6.190   3.720
73286ION    NA+41680   2.597  14.896   4.610
73287ION    NA+41681   0.331   7.397  11.939
73288ION    NA+41682   4.481  21.886  12.967
73289ION    NA+41683  27.660  12.124   0.787
73290ION    NA+41684  22.063  42.798  11.872
73291ION    NA+41685  23.469  16.695   0.747
73292ION    NA+41686  44.712   9.082   1.894
73293ION    NA+41687  28.639  32.098   1.274
73294ION    NA+41688  30.681  27.729   2.780
73295ION    NA+41689  39.061   8.361  14.649
73296ION    NA+41690  34.564  23.962   0.698
73297ION    NA+41691  31.927  39.154   5.190
73298ION    NA+41692  31.620  28.640  10.727
73299ION    NA+41693  43.810  38.652   1.600
73300ION    NA+41694  24.475  11.797   0.370
73301ION    NA+41695   5.608   0.804  12.709
73302ION    NA+41696  42.274   1.212  12.574
73303ION    NA+41697   6.157  31.740  12.402
73304ION    NA+41698  34.458   3.369  13.221
73305ION    NA+41699  31.769   4.982   1.638
73306ION    NA+41700   1.270  29.951   2.403
73307ION    NA+41701  25.549  27.235   4.779
73308ION    NA+41702   5.387  43.816   1.438
73309ION    NA+41703  26.975  32.606   0.763
73310ION    NA+41704   8.136  44.437  14.766
73311ION    NA+41705  33.476  37.400  10.892
73312ION    NA+41706  14.064  27.267  14.882
73313ION    NA+41707   7.852  30.971  13.101
73314ION    NA+41708  12.364  27.366  10.989
73315ION    NA+41709  15.214   7.743   1.587
73316ION    NA+41710   7.558  29.929   4.704
73317ION    NA+41711  24.780  39.171  12.766
73318ION    NA+41712  21.293  28.374   1.241
73319ION    NA+41713   5.161  26.627   4.088
73320ION    NA+41714  14.980  19.286  11.689
73321ION    NA+41715  43.756  35.998  10.412
73322ION    NA+41716  22.235  26.139   2.375
73323ION    NA+41717  39.363   7.753   2.215
73324ION    NA+41718  27.256  11.929  14.123
73325ION    NA+41719  25.270  34.163   4.079
73326ION    NA+41720  33.568  11.124  10.748
73327ION    NA+41721   4.919  35.000   5.385
73328ION    NA+41722  30.036  14.356   3.732
73329ION    NA+41723  31.972  11.035   0.633
73330ION    NA+41724  41.338  33.781  14.760
73331ION    NA+41725  34.657  44.100   4.153
73332ION    NA+41726  24.528  10.823  11.992
73333ION    NA+41727  34.403  25.168   3.763
73334ION    NA+41728   4.734  18.546   1.936
73335ION    NA+41729  33.414  12.227  13.897
73336ION    NA+41730   8.832  43.450  12.204
73337ION    NA+41731  30.083   6.114   0.864
73338ION    NA+41732  34.495  21.946  10.923
73339ION    NA+41733  42.958  12.795  13.872
73340ION    NA+41734   0.714  34.400  11.445
73341ION    NA+41735  37.193  16.761   1.741
73342ION    NA+41736  34.211  12.790   2.486
73343ION    NA+41737  34.984  17.400  10.919
73344ION    NA+41738  15.177  24.828   4.890
73345ION    NA+41739  39.408  14.655  11.989
73346ION    NA+41740   0.018   2.591   2.666
73347ION    NA+41741  36.847  21.429  12.518
73348ION    NA+41742  23.802  44.558  13.171
73349ION    NA+41743  12.918  21.926  11.791
73350ION    NA+41744  33.647  15.891   0.704
73351ION    NA+41745  16.166  15.588   3.765
73352ION    NA+41746  29.623  32.611  12.744
73353ION    NA+41747   3.920  15.931  11.540
73354ION    NA+41748  35.441   9.618  14.561
73355ION    NA+41749   3.205  39.629  14.869
73356ION    NA+41750   4.847   6.202   2.846
73357ION    NA+41751  16.013   2.289   2.919
73358ION    NA+41752  36.929  29.510  13.581
73359ION    NA+41753  18.986  36.934  10.501
73360ION    NA+41754  32.363  29.155   2.830
73361ION    NA+41755  34.977  34.785  11.124
73362ION    NA+41756  18.863  13.734  12.793
73363ION    NA+41757  30.492  31.500  13.990
73364ION    NA+41758  32.295  25.044   2.959
73365ION    NA+41759  26.506   4.968  12.894
73366ION    NA+41760   8.609  34.546   2.669
73367ION    NA+41761  11.345  44.865   2.227
73368ION    NA+41762  32.935  24.997  13.802
73369ION    NA+41763  22.773   0.992  13.122
73370ION    NA+41764  42.873  16.127   1.444
73371ION    NA+41765   8.188  17.639   3.421
73372ION    NA+41766  42.961  18.134  13.453
73373ION    NA+41767  42.506   7.956  12.502
73374ION    NA+41768  40.392  21.689  12.069
73375ION    NA+41769  29.904   5.122   1.370
73376ION    NA+41770  25.386  26.073   4.683
73377ION    NA+41771  19.624   0.066  11.297
73378ION    NA+41772  23.850  44.640   1.302
73379ION    NA+41773  41.550  18.520  12.568
73380ION    NA+41774  18.461  42.147   4.216
73381ION    NA+41775  43.301  12.548   3.109
73382ION    NA+41776  24.275  30.252  13.833
73383ION    NA+41777   5.485   2.052  13.376
73384ION    NA+41778  37.864  44.930  12.383
73385ION    NA+41779   3.249  15.404   0.893
73386ION    NA+41780  14.594  23.721  14.307
73387ION    NA+41781   4.685  26.442   2.343
73388ION    NA+41782  41.260  23.843  13.784
73389ION    NA+41783  42.538  29.924   4.342
73390ION    NA+41784  15.355  27.932  14.320
73391ION    NA+41785   1.946  19.561   2.799
73392ION    NA+41786  37.433  37.606  12.015
73393ION    NA+41787  15.833  32.343  14.652
73394ION    NA+41788  31.105  27.164  14.517
73395ION    NA+41789  10.686   3.815  12.538
73396ION    NA+41790  30.194  22.019   3.486
73397ION    NA+41791  24.871  16.758  11.612
73398ION    NA+41792  40.448  10.320   4.054
73399ION    NA+41793   6.595  30.256   1.960
73400ION    NA+41794  17.511  37.236  10.428
73401ION    NA+41795  13.896  13.127  13.602
73402ION    NA+41796  38.212  24.845   4.435
73403ION    NA+41797  13.998  33.666   4.678
73404ION    NA+41798  15.148  14.662   1.580
73405ION    NA+41799  31.704   2.085   4.658
73406ION    NA+41800  30.360  37.687   2.682
73407ION    NA+41801  28.454  35.613   2.200
73408ION    NA+41802  13.699  37.112   1.404
73409ION    NA+41803  13.598  16.073  13.558
73410ION    NA+41804  18.183  31.380  12.850
73411ION    NA+41805  34.896  37.331  11.112
73412ION    NA+41806  12.711  37.323   3.949
73413ION    NA+41807   8.549  38.049   0.940
73414ION    NA+41808   7.265  20.016   2.164
73415ION    NA+41809  12.009  42.436   0.632
73416ION    NA+41810  12.785  35.566  11.333
73417ION    NA+41811  10.310  33.952   4.326
73418ION    NA+41812  42.200  23.008  12.736
73419ION    NA+41813  23.166  42.187   1.807
73420ION    NA+41814  27.004  15.730  12.292
73421ION    NA+41815  33.646  11.474   3.136
73422ION    NA+41816   9.831  12.259  10.693
73423ION    NA+41817   0.426   3.505   3.744
73424ION    NA+41818  33.578   3.629  12.711
73425ION    NA+41819  20.022  14.936  10.695
73426ION    NA+41820  34.237  44.249  10.009
73427ION    NA+41821  43.312   6.754  10.618
73428ION    NA+41822  14.219  24.550   2.395
73429ION    NA+41823  11.205   4.274   3.602
73430ION    NA+41824  11.347  34.682  12.418
73431ION    NA+41825  17.823  17.164   4.145
73432ION    NA+41826  29.898   6.156  14.833
73433ION    NA+41827  25.132   7.667   0.087
73434ION    NA+41828  30.515  18.751  12.405
73435ION    NA+41829  22.070  17.574   0.860
73436ION    NA+41830   2.111   7.175  11.081
73437ION    NA+41831  35.357   8.863  13.829
73438ION    NA+41832  17.285  35.547  12.967
73439ION    NA+41833  15.604  34.062  14.906
73440ION    NA+41834  26.171  19.742  11.301
73441ION    NA+41835  10.652  39.152  13.444
73442ION    NA+41836   1.398  23.509  14.276
73443ION    NA+41837  30.385  29.831  14.466
73444ION    NA+41838  33.548  11.372  11.965
73445ION    NA+41839  14.301   0.634  13.877
73446ION    NA+41840  27.252   5.952   3.654
73447ION    NA+41841  28.113  42.528  13.514
73448ION    NA+41842   1.054  10.260  10.754
73449ION    NA+41843  38.855  11.641  13.923
73450ION    NA+41844  24.336  26.087  11.060
73451ION    NA+41845  41.408  27.930  13.527
73452ION    NA+41846   1.816  18.791   1.729
73453ION    NA+41847  36.226  36.139   5.198
73454ION    NA+41848  40.463  40.205  12.510
73455ION    NA+41849   8.664  36.187   0.452
73456ION    NA+41850  34.639  29.556   1.197
73457ION    NA+41851  17.114  27.660   2.431
73458ION    NA+41852  17.698   1.387  12.928
73459ION    NA+41853  14.633  32.766   2.427
73460ION    NA+41854  24.248  20.581  10.666
73461ION    NA+41855  17.543   4.762  13.803
73462ION    NA+41856  36.911  22.570  13.280
73463ION    NA+41857  20.165   5.996   4.862
73464ION    NA+41858  25.747  14.025   3.961
73465ION    NA+41859  14.262  22.879  13.880
73466ION    NA+41860   9.906  41.902   3.968
73467ION    NA+41861  41.147  34.803  11.005
73468ION    NA+41862  12.495  35.753  13.435
73469ION    NA+41863  36.248  23.406   2.690
73470ION    NA+41864  31.454  15.553  14.905
73471ION    NA+41865   6.018  37.702  13.095
73472ION    NA+41866   4.532   6.280  13.470
73473ION    NA+41867   9.593  38.357   0.977
73474ION    NA+41868   1.727  22.997   1.494
73475ION    NA+41869  15.905   0.783  14.265
73476ION    NA+41870   8.913   2.901   3.108
73477ION    NA+41871  29.495   5.359   5.212
73478ION    NA+41872  30.949  14.482  13.312
73479ION    NA+41873   3.921  32.598  13.032
73480ION    NA+41874   9.609   3.191   2.603
73481ION    NA+41875  41.213  17.122  12.537
73482ION    NA+41876   8.770   4.643   3.531
73483ION    NA+41877  40.064  25.116   5.190
73484ION    NA+41878  44.210  36.310   2.160
73485ION    NA+41879  38.718  28.516   1.494
73486ION    NA+41880   1.561  15.903   0.769
73487ION    NA+41881  17.318   5.681   1.253
73488ION    NA+41882  33.854   7.789  14.509
73489ION    NA+41883  18.355  26.907   3.403
73490ION    NA+41884  16.224   5.493   4.108
73491ION    NA+41885  26.672  32.008  14.760
73492ION    NA+41886   0.786  32.047   1.284
73493ION    NA+41887   4.919  33.244   0.302
73494ION    NA+41888  23.914  15.003  11.608
73495ION    NA+41889   5.549  40.265  12.664
73496ION    NA+41890  11.214  22.991   2.357
73497ION    NA+41891  32.747  17.231   0.979
73498ION    NA+41892  28.868  42.878  14.305
73499ION    NA+41893  36.299   7.047   0.077
73500ION    NA+41894   7.946  11.599  12.564
73501ION    NA+41895   3.808   9.623   2.879
73502ION    NA+41896   1.259   2.825   4.665
73503ION    NA+41897  18.891  12.213   4.169
73504ION    NA+41898  19.862  29.494   0.961
73505ION    NA+41899  31.312  10.758   1.331
73506ION    NA+41900  31.115   1.253  11.030
73507ION    NA+41901  35.051   7.613   2.791
73508ION    NA+41902   5.956   1.290   1.654
73509ION    NA+41903  44.017  18.364  11.880
73510ION    NA+41904  32.647   8.659  10.800
73511ION    NA+41905  23.992  23.549  13.216
73512ION    NA+41906  21.712   3.381   3.846
73513ION    NA+41907   8.634   7.280  14.017
73514ION    NA+41908  13.140  40.794   1.407
73515ION    NA+41909  39.823  31.937   3.602
73516ION    NA+41910   1.350  37.508  14.466
73517ION    NA+41911  42.853  40.035   1.707
73518ION    NA+41912  38.065  14.370   3.955
73519ION    NA+41913  15.044  22.724   2.667
73520ION    NA+41914  36.931  17.265  12.568
73521ION    NA+41915  38.677   9.137  14.920
73522ION    NA+41916  41.504  41.216  12.023
73523ION    NA+41917  33.138  24.927  12.772
73524ION    NA+41918  12.201  39.847   2.782
73525ION    NA+41919  38.928  28.800   4.274
73526ION    NA+41920  35.004  34.632   2.362
73527ION    NA+41921   5.984  30.035   0.928
73528ION    NA+41922  31.953  10.649   2.294
73529ION    NA+41923  31.490  31.339   4.714
73530ION    NA+41924  44.292  25.454   4.626
73531ION    NA+41925  18.149  16.232  13.110
73532ION    NA+41926  31.866  20.898   4.836
73533ION    NA+41927  34.154  24.262  11.551
73534ION    NA+41928  32.109  20.030   5.270
73535ION    NA+41929  25.857  11.359  14.957
73536ION    NA+41930   0.989  26.996   0.781
73537ION    NA+41931   2.492   6.513  10.387
73538ION    NA+41932  30.152   9.582   2.070
73539ION    NA+41933  21.448  27.193   2.486
73540ION    NA+41934  21.258   3.423  11.522
73541ION    NA+41935  13.403  44.071  14.173
73542ION    NA+41936  24.458  20.636  13.280
73543ION    NA+41937   0.026  34.777  13.486
73544ION    NA+41938   5.154  23.701  12.012
73545ION    NA+41939  21.347   6.261   4.986
73546ION    NA+41940   4.198   7.165  11.828
73547ION    NA+41941  13.296   9.889  11.184
73548ION    NA+41942  35.098  25.919  14.936
73549ION    NA+41943   1.909  17.805   0.675
73550ION    NA+41944  26.513  14.961  12.276
73551ION    NA+41945  36.694  30.848  12.848
73552ION    NA+41946  40.809  28.176   0.472
73553ION    NA+41947  27.221  26.903  12.981
73554ION    NA+41948  12.200   3.282   2.470
73555ION    NA+41949   8.989  13.631   1.512
73556ION    NA+41950   5.056  10.275   9.712
73557ION    NA+41951  15.554  41.214   4.189
73558ION    NA+41952  36.894  33.829   0.244
73559ION    NA+41953  23.121  23.550   3.608
73560ION    NA+41954   6.945  22.275   2.292
73561ION    NA+41955   9.751  28.822  14.717
73562ION    NA+41956  23.333  34.720  13.453
73563ION    NA+41957  13.835  23.589  11.866
73564ION    NA+41958   6.321  17.437   0.230
73565ION    NA+41959  30.184  39.300   5.024
73566ION    NA+41960  26.187  16.882  11.199
73567ION    NA+41961  35.162  25.227   4.501
73568ION    NA+41962  43.037  20.120  13.979
73569ION    NA+41963  10.419   1.175  12.311
73570ION    NA+41964  38.855   3.811  12.866
73571ION    NA+41965  10.802   0.393   3.930
73572ION    NA+41966  11.149  19.179  11.105
73573ION    NA+41967   2.847  24.159   3.692
73574ION    NA+41968  17.939  40.322   1.693
73575ION    NA+41969  17.978  36.304  11.916
73576ION    NA+41970  18.640  23.879   2.931
73577ION    NA+41971  42.282  40.370   4.151
73578ION    NA+41972  44.474  35.210  11.223
73579ION    NA+41973  36.446  26.509  12.503
73580ION    NA+41974  41.427  26.322   5.252
73581ION    NA+41975  26.919  29.397   0.331
73582ION    NA+41976  18.624  42.777   0.904
73583ION    NA+41977   6.410  25.456   0.173
73584ION    NA+41978   5.706  31.343  13.548
73585ION    NA+41979   9.672  13.472   1.044
73586ION    NA+41980  11.270   3.881   1.825
73587ION    NA+41981  40.798  28.197  12.360
73588ION    NA+41982  25.240  38.336   3.280
73589ION    NA+41983  11.101  12.469   3.638
73590ION    NA+41984  17.543  20.102  12.885
73591ION    NA+41985  32.007  41.771   4.129
73592ION    NA+41986  43.413  22.485   3.625
73593ION    NA+41987  23.577  41.072  11.257
73594ION    NA+41988   9.592  23.071   3.264
73595ION    NA+41989  26.044  17.633   2.420
73596ION    NA+41990  43.413   3.689   2.716
73597ION    NA+41991  27.538  17.164   4.354
73598ION    NA+41992   1.280  15.086   3.166
73599ION    NA+41993   8.825  13.704  13.707
73600ION    NA+41994  37.145   6.334   0.727
73601ION    NA+41995  27.562  14.418  12.421
73602ION    NA+41996  13.861   0.643  12.548
73603ION    NA+41997   8.429  25.654   5.258
73604ION    NA+41998  22.968  29.079   2.611
73605ION    NA+41999  35.341  23.354   2.714
73606ION    NA+42000   5.146  40.578   3.240
73607ION    NA+42001  23.550   8.220   3.941
73608ION    NA+42002  27.435   0.264   4.138
73609ION    NA+42003  35.960  39.632  13.969
73610ION    NA+42004   9.337  25.612   2.874
73611ION    NA+42005  32.056  29.465   9.649
73612ION    NA+42006  44.588   6.944  12.672
73613ION    NA+42007  15.068  16.848   3.933
73614ION    NA+42008  22.926  29.072  13.081
73615ION    NA+42009  40.292   0.920   1.640
73616ION    NA+42010  42.157  10.486  12.953
73617ION    NA+42011  36.652  16.457   2.345
73618ION    NA+42012  24.715   7.803   3.800
73619ION    NA+42013  14.229   8.478  12.675
73620ION    NA+42014  29.422  36.324  14.227
73621ION    NA+42015  34.022   1.280   2.230
73622ION    NA+42016  27.684  30.117  11.666
73623ION    NA+42017  28.267  25.616   0.265
73624ION    NA+42018  23.514  18.774  12.852
73625ION    NA+42019   8.732  21.590  10.889
73626ION    NA+42020  35.056  21.565   3.911
73627ION    NA+42021  18.930  32.359  10.724
73628ION    NA+42022   0.454  34.982   3.559
73629ION    NA+42023  23.186  19.621  12.650
73630ION    NA+42024   1.986  36.677  11.439
73631ION    NA+42025  25.043  39.002  14.863
73632ION    NA+42026  34.116  36.861  12.863
73633ION    NA+42027   3.573  27.699   1.627
73634ION    NA+42028  23.005  13.415  11.031
73635ION    NA+42029   5.235   1.288  14.018
73636ION    NA+42030  11.339  10.470  11.377
73637ION    NA+42031  35.040  15.190  11.906
73638ION    NA+42032  42.503  29.880  14.793
73639ION    NA+42033  36.800  28.872  10.859
73640ION    NA+42034  25.734  13.140  10.735
73641ION    NA+42035  16.195   7.672   4.051
73642ION    NA+42036   3.861  43.957  10.532
73643ION    NA+42037  20.866   2.020  14.655
73644ION    NA+42038   1.853  23.464  11.626
73645ION    NA+42039  27.054  35.293   1.382
73646ION    NA+42040  10.256   7.078   4.013
73647ION    NA+42041  22.607  22.596  12.992
73648ION    NA+42042   4.346  30.966   0.300
73649ION    NA+42043  32.560  41.451   1.515
73650ION    NA+42044  21.629  15.543  12.962
73651ION    NA+42045   0.764  21.317  12.519
73652ION    NA+42046  32.273   5.707  13.478
73653ION    NA+42047  33.365   2.807  13.350
73654ION    NA+42048  20.122  25.634   3.880
73655ION    NA+42049  18.292   5.457   3.086
73656ION    NA+42050  27.826  37.174   9.642
73657ION    NA+42051  38.134  37.228  12.882
73658ION    NA+42052  42.933  31.120  10.890
73659ION    NA+42053  15.285  21.062   4.561
73660ION    NA+42054  28.315  13.457   2.717
73661ION    NA+42055  22.379  18.602   2.267
73662ION    NA+42056  24.209  18.157  12.839
73663ION    NA+42057  34.780  37.619   2.551
73664ION    NA+42058  39.393   4.410  10.922
73665ION    NA+42059   4.744  20.468   2.329
73666ION    NA+42060  28.056  38.111   4.440
73667ION    NA+42061  21.882  44.504  14.235
73668ION    NA+42062  34.558  43.233   4.457
73669ION    NA+42063   1.740  28.830   2.065
73670ION    NA+42064  34.281  34.752  13.330
73671ION    NA+42065   4.978  13.710   1.371
73672ION    NA+42066   9.164  10.974  13.153
73673ION    NA+42067  19.332  28.398   2.953
73674ION    NA+42068  29.952  20.052   4.695
73675ION    NA+42069  13.114  11.185   3.729
73676ION    NA+42070  11.742   9.227  11.676
73677ION    NA+42071  29.408  43.948  12.646
73678ION    NA+42072  44.947  37.128  10.879
73679ION    NA+42073  43.994   6.560  11.965
73680ION    NA+42074  19.877  44.753   1.761
73681ION    NA+42075  37.106  15.578  12.445
73682ION    NA+42076  31.621   9.551  11.408
73683ION    NA+42077  37.263   3.580   1.929
73684ION    NA+42078  41.444  30.193   3.081
73685ION    NA+42079  35.721   8.170   3.435
73686ION    NA+42080   6.407   9.627  11.964
73687ION    NA+42081  27.276  19.744  10.905
73688ION    NA+42082  44.108   0.966   4.125
73689ION    NA+42083  30.119  16.021  14.372
73690ION    NA+42084  44.010  23.456   1.157
73691ION    NA+42085  16.791  25.699  13.426
73692ION    NA+42086  43.768   8.058  14.033
73693ION    NA+42087  11.195  27.142  12.020
73694ION    NA+42088  37.468   9.581  12.864
73695ION    NA+42089  32.653  22.132   1.458
73696ION    NA+42090  20.772   0.234  11.180
73697ION    NA+42091  27.586  18.357  10.780
73698ION    NA+42092  39.311  12.645  14.761
73699ION    NA+42093  37.037   5.757   2.179
73700ION    NA+42094  39.848  42.829   4.449
73701ION    NA+42095   4.748   0.091   4.907
73702ION    NA+42096  37.622  25.065  12.903
73703ION    NA+42097   8.152  33.898  12.135
73704ION    NA+42098  26.271  37.991  10.762
73705ION    NA+42099   0.442  16.965   4.573
73706ION    NA+42100  40.501  24.185   2.637
73707ION    NA+42101  39.791  31.849  11.559
73708ION    NA+42102  12.904  40.276  10.818
73709ION    NA+42103  28.340   4.625  14.930
73710ION    NA+42104  43.866  32.832  10.662
73711ION    NA+42105  18.039  18.483   3.523
73712ION    NA+42106   5.318   8.625  11.318
73713ION    NA+42107  44.278   8.888  10.840
73714ION    NA+42108  30.191  31.801  10.482
73715ION    NA+42109  17.375  39.892   4.893
73716ION    NA+42110  36.274   3.671   3.065
73717ION    NA+42111  14.592  33.179   3.426
73718ION    NA+42112  35.560  10.196   0.715
73719ION    NA+42113  29.759  17.101   4.868
73720ION    NA+42114  14.797  39.347  12.361
73721ION    NA+42115  27.740  44.057   3.728
73722ION    NA+42116  38.102  10.161   2.029
73723ION    NA+42117  31.955  39.204   3.846
73724ION    NA+42118  16.187  43.756   0.783
73725ION    NA+42119  22.622   6.977   4.149
73726ION    NA+42120  38.688  18.226  10.877
73727ION    NA+42121  22.747  18.188  12.111
73728ION    NA+42122  33.016  34.875  12.360
73729ION    NA+42123  35.303  40.375   4.730
73730ION    NA+42124  15.397  43.928  11.554
73731ION    NA+42125   2.461   9.414   0.425
73732ION    NA+42126   0.407  13.131  12.609
73733ION    NA+42127  38.323  44.086   0.144
73734ION    NA+42128  13.039   8.796   4.019
73735ION    NA+42129  40.572   3.875  14.264
73736ION    CL-42130  21.785  23.238   0.225
73737ION    CL-42131  18.451   4.676   0.151
73738ION    CL-42132  33.793  14.077  14.828
73739ION    CL-42133  20.591  44.043   4.251
73740ION    CL-42134   1.223  14.865  12.742
73741ION    CL-42135  38.817  24.815  12.113
73742ION    CL-42136  20.108  39.364   2.837
73743ION    CL-42137  21.579  25.889  14.355
73744ION    CL-42138   2.754  43.024  14.097
73745ION    CL-42139   2.400   4.854  12.310
73746ION    CL-42140  29.881   4.613  14.622
73747ION    CL-42141  41.491  41.646  11.872
73748ION    CL-42142  41.500  27.146  12.220
73749ION    CL-42143  40.911  31.172  12.456
73750ION    CL-42144  13.031   6.376  11.053
73751ION    CL-42145  33.871  11.854   3.012
73752ION    CL-42146  18.080  41.304   3.712
73753ION    CL-42147  40.016   2.474   2.108
73754ION    CL-42148  26.065  34.044   2.772
73755ION    CL-42149  24.826  13.109   3.354
73756ION    CL-42150  31.684  12.828   0.995
73757ION    CL-42151   3.835  36.334   2.852
73758ION    CL-42152  26.020  19.016   3.280
73759ION    CL-42153  27.765  10.433  11.779
73760ION    CL-42154   5.344  13.230  14.360
73761ION    CL-42155  28.284  39.636  14.131
73762ION    CL-42156   7.774  27.928  12.875
73763ION    CL-42157  14.232  16.443   2.633
73764ION    CL-42158  24.549  32.684   0.580
73765ION    CL-42159  22.769   6.745   3.796
73766ION    CL-42160  35.848  20.620  11.755
73767ION    CL-42161  36.388  34.861   0.909
73768ION    CL-42162  10.677  15.597   1.287
73769ION    CL-42163  36.000  18.284  10.901
73770ION    CL-42164  26.099   7.833   2.220
73771ION    CL-42165  43.813  27.594   1.648
73772ION    CL-42166   7.710  31.353  13.285
73773ION    CL-42167  28.229  43.418   9.885
73774ION    CL-42168  25.014  44.470   0.254
73775ION    CL-42169  34.475   1.271  11.993
73776ION    CL-42170  11.882  26.131   0.056
73777ION    CL-42171  19.608  21.440   2.755
73778ION    CL-42172   2.019  25.331   4.031
73779ION    CL-42173  31.556   3.770  10.099
73780ION    CL-42174  34.306  43.088  13.879
73781ION    CL-42175  32.991   0.457  13.284
73782ION    CL-42176   7.481   9.833  12.028
73783ION    CL-42177  21.869  10.522  14.437
73784ION    CL-42178  10.004  36.988  11.155
73785ION    CL-42179  38.788   8.889  12.900
73786ION    CL-42180  37.781   1.754   1.863
73787ION    CL-42181   1.178  37.482  12.423
73788ION    CL-42182  36.311  22.114   2.872
73789ION    CL-42183   5.132  11.532  14.918
73790ION    CL-42184  14.055   0.402  14.184
73791ION    CL-42185  12.833   7.290  13.785
73792ION    CL-42186   9.450  44.300   0.788
73793ION    CL-42187   1.456   2.015   0.586
73794ION    CL-42188   7.258  34.723   3.008
73795ION    CL-42189  20.768  24.442   1.852
73796ION    CL-42190  16.343   5.465   0.204
73797ION    CL-42191  35.257  26.632   1.001
73798ION    CL-42192  42.798  18.097   2.247
73799ION    CL-42193  20.449  14.925  14.093
73800ION    CL-42194  13.152  43.410   3.799
73801ION    CL-42195   3.161  25.271  12.218
73802ION    CL-42196  13.359  19.974  13.087
73803ION    CL-42197  20.921  25.236  12.820
73804ION    CL-42198  27.579  40.841   2.613
73805ION    CL-42199  41.628  35.032  12.563
73806ION    CL-42200  41.777  14.628   2.757
73807ION    CL-42201   6.498  23.332   3.176
73808ION    CL-42202  38.637  18.771  13.035
73809ION    CL-42203  40.229  32.164   3.703
73810ION    CL-42204  12.424   9.131  13.531
73811ION    CL-42205  15.840  32.221   0.084
73812ION    CL-42206  28.218  32.447   0.150
73813ION    CL-42207   7.725  16.337  13.059
73814ION    CL-42208  38.263  30.101  13.773
73815ION    CL-42209   2.024  13.819  11.613
73816ION    CL-42210   7.798  19.143  10.798
73817ION    CL-42211  39.520  43.199  12.997
73818ION    CL-42212  42.931  33.912   4.146
73819ION    CL-42213  25.520  23.320  12.591
73820ION    CL-42214  29.199  26.588   3.679
73821ION    CL-42215   4.526  22.934   2.493
73822ION    CL-42216   3.779  28.988  14.105
73823ION    CL-42217  27.406   6.719   4.949
73824ION    CL-42218  43.716  15.084  12.908
73825ION    CL-42219   2.630  38.520  14.549
73826ION    CL-42220  29.670  44.002  13.016
73827ION    CL-42221  32.741   4.422   0.708
73828ION    CL-42222   4.063  16.178   1.543
73829ION    CL-42223  41.399  12.897  14.031
73830ION    CL-42224  34.087  28.510  12.456
73831ION    CL-42225  15.693  27.640  14.294
73832ION    CL-42226   7.110  14.057   2.242
73833ION    CL-42227  18.670  23.267   4.182
73834ION    CL-42228   4.903  15.011   5.389
73835ION    CL-42229  22.183  12.536  12.052
73836ION    CL-42230   5.265  31.935   0.167
73837ION    CL-42231   3.906  19.492  14.003
73838ION    CL-42232  18.302  26.052  13.055
73839ION    CL-42233  35.370  42.937  14.800
73840ION    CL-42234  43.619  42.534  13.767
73841ION    CL-42235  33.575  17.104  13.585
73842ION    CL-42236  27.049  20.263   4.497
73843ION    CL-42237   3.190  43.571   5.086
73844ION    CL-42238  20.691   6.729  14.635
73845ION    CL-42239  26.438   1.348  12.392
73846ION    CL-42240  41.978  19.159   4.577
73847ION    CL-42241  10.103  28.636  14.500
73848ION    CL-42242  17.852  36.442  13.049
73849ION    CL-42243  35.215  10.260   1.005
73850ION    CL-42244  10.961   9.521  10.656
73851ION    CL-42245  32.520   9.119   1.865
73852ION    CL-42246  14.564   0.966   3.635
73853ION    CL-42247  25.152  34.944   5.083
73854ION    CL-42248  40.366  20.696  13.036
73855ION    CL-42249   5.945  15.552  11.773
73856ION    CL-42250  35.113  15.412  11.516
73857ION    CL-42251  28.151   2.108   4.893
73858ION    CL-42252  17.554  29.040  10.639
73859ION    CL-42253   7.916  28.964   0.339
73860ION    CL-42254  23.677  10.356  11.073
73861ION    CL-42255  32.865  20.126  14.344
73862ION    CL-42256   6.661   7.251  14.514
73863ION    CL-42257  44.555  29.906  10.792
73864ION    CL-42258  39.876  13.275   4.223
73865ION    CL-42259  18.510   7.607  12.941
73866ION    CL-42260  26.209  36.446   3.719
73867ION    CL-42261  31.130  12.022  10.926
73868ION    CL-42262  32.620  30.984  13.887
73869ION    CL-42263   0.691  23.056  11.994
73870ION    CL-42264  38.302  34.035   1.512
73871ION    CL-42265   3.836   0.252   3.342
73872ION    CL-42266  11.780  32.603   3.680
73873ION    CL-42267  32.952   2.208   4.246
73874ION    CL-42268  28.483  11.019  10.737
73875ION    CL-42269  15.283  43.491  11.522
73876ION    CL-42270  23.256  35.468   1.464
73877ION    CL-42271  43.762  26.217   1.357
73878ION    CL-42272  31.147  40.171   0.525
73879ION    CL-42273  41.839  27.226   4.700
73880ION    CL-42274  38.509   8.460  10.341
73881ION    CL-42275   2.246  30.661  13.460
73882ION    CL-42276   9.732   9.196  10.965
73883ION    CL-42277   1.547  17.648   0.425
73884ION    CL-42278  26.222  19.431  13.686
73885ION    CL-42279   4.675  26.996  13.950
73886ION    CL-42280   0.942  41.037   0.272
73887ION    CL-42281  26.940  38.055   1.378
73888ION    CL-42282   9.940  21.662   1.679
73889ION    CL-42283  16.755  29.853  13.403
73890ION    CL-42284  11.346  22.157  13.978
73891ION    CL-42285  25.731  31.125   1.394
73892ION    CL-42286  15.829  36.151   3.619
73893ION    CL-42287  29.679  37.011  11.684
73894ION    CL-42288   5.840  22.700  13.194
73895ION    CL-42289  20.048  11.057   3.388
73896ION    CL-42290   1.118  24.688  13.609
73897ION    CL-42291  19.687  15.227  10.759
73898ION    CL-42292   9.813  23.500  12.498
73899ION    CL-42293  12.015  18.786   5.198
73900ION    CL-42294   0.307  20.032   1.754
73901ION    CL-42295  43.037  14.989  13.636
73902ION    CL-42296  42.538  35.040   4.498
73903ION    CL-42297  28.408  10.184   0.548
73904ION    CL-42298   5.003   4.396   0.842
73905ION    CL-42299   7.530  13.361   0.129
73906ION    CL-42300  29.709   8.791   4.914
73907ION    CL-42301  29.277  37.320  14.029
73908ION    CL-42302  24.449  10.826  14.389
73909ION    CL-42303  10.232   0.745  12.287
73910ION    CL-42304  13.828  15.052  12.677
73911ION    CL-42305  14.823  17.930   0.561
73912ION    CL-42306  14.315  29.050   3.324
73913ION    CL-42307   6.946   2.756   0.457
73914ION    CL-42308  43.690  38.191   2.975
73915ION    CL-42309  25.695  18.622  13.425
73916ION    CL-42310  24.211  25.777   0.309
73917ION    CL-42311   7.525  29.474   4.751
73918ION    CL-42312  27.672  33.288  11.120
73919ION    CL-42313  19.635  31.926   2.806
73920ION    CL-42314  22.382  23.818   4.605
73921ION    CL-42315  17.794  42.917  12.802
73922ION    CL-42316  12.891   8.046  10.745
73923ION    CL-42317  39.410  41.429   1.415
73924ION    CL-42318   1.635  15.633  13.748
73925ION    CL-42319  17.690  20.707  14.309
73926ION    CL-42320   6.047  40.256  14.881
73927ION    CL-42321  23.698   9.877   4.525
73928ION    CL-42322  17.048  34.046  14.416
73929ION    CL-42323  32.609  33.567  14.259
73930ION    CL-42324  23.161  16.739  11.081
73931ION    CL-42325  16.586  35.644  12.137
73932ION    CL-42326  33.488   2.390  13.240
73933ION    CL-42327  16.855  16.704  12.179
73934ION    CL-42328  41.963  25.857   4.768
73935ION    CL-42329  36.848  16.003   4.669
73936ION    CL-42330  25.059  39.255  11.012
73937ION    CL-42331  38.702  43.874   0.027
73938ION    CL-42332  36.589  27.222   2.655
73939ION    CL-42333  40.330  19.699  12.963
73940ION    CL-42334  27.064  24.194   0.377
73941ION    CL-42335  34.662  21.686   4.077
73942ION    CL-42336  27.294  16.062  12.388
73943ION    CL-42337  38.593   5.303   1.067
73944ION    CL-42338  44.579  30.217   5.046
73945ION    CL-42339  26.269  28.568   1.769
73946ION    CL-42340  25.708  13.840   3.555
73947ION    CL-42341  22.030  36.481  14.091
73948ION    CL-42342   3.606   9.565   1.105
73949ION    CL-42343   8.939  38.751  14.891
73950ION    CL-42344  20.641  13.800   2.085
73951ION    CL-42345  33.813  20.612   2.227
73952ION    CL-42346  15.486   8.168  10.762
73953ION    CL-42347  34.597  19.761   1.941
73954ION    CL-42348  24.000   4.152  12.031
73955ION    CL-42349  13.965  41.057   5.129
73956ION    CL-42350   2.466  25.039   3.392
73957ION    CL-42351  38.457  38.627   3.611
73958ION    CL-42352  44.216  42.985   1.422
73959ION    CL-42353  25.929  17.796   3.677
73960ION    CL-42354  12.684  35.829  11.677
73961ION    CL-42355  21.506  26.522  13.051
73962ION    CL-42356   0.699  14.861  10.233
73963ION    CL-42357  37.967  22.150  13.893
73964ION    CL-42358   2.921  21.479  13.934
73965ION    CL-42359  43.375  16.831   3.753
73966ION    CL-42360   4.054  42.979   2.255
73967ION    CL-42361  11.073  26.628  10.159
73968ION    CL-42362   1.242  38.949   2.658
73969ION    CL-42363   1.875   3.879   1.883
73970ION    CL-42364  27.327  10.042   3.723
73971ION    CL-42365  33.097  15.076   3.743
73972ION    CL-42366   0.464  11.219   3.392
73973ION    CL-42367  39.163  39.959  14.932
73974ION    CL-42368  27.109  23.523  12.684
73975ION    CL-42369  38.919  40.319   4.633
73976ION    CL-42370   5.343  10.413  11.259
73977ION    CL-42371  36.559   6.298   4.908
73978ION    CL-42372  25.952  40.331  13.546
73979ION    CL-42373   7.480  35.194  10.722
73980ION    CL-42374   3.296  17.303  11.526
73981ION    CL-42375  24.526  30.198   5.036
73982ION    CL-42376  16.778  41.559   4.207
73983ION    CL-42377  43.562  42.712  14.811
73984ION    CL-42378  13.412  35.278   0.118
73985ION    CL-42379   9.871  39.993   2.603
73986ION    CL-42380  37.805  37.851  12.055
73987ION    CL-42381  20.789  33.837   0.346
73988ION    CL-42382  12.653  31.037  13.727
73989ION    CL-42383   4.016  31.924   1.074
73990ION    CL-42384  20.401  34.666  12.082
73991ION    CL-42385  32.167   4.183   0.066
73992ION    CL-42386   0.921  39.908  10.245
73993ION    CL-42387   5.773   4.012   1.353
73994ION    CL-42388  15.813  16.558   2.210
73995ION    CL-42389  13.914  13.671   4.520
73996ION    CL-42390  22.883  35.976  13.658
73997ION    CL-42391   8.216   3.763   1.340
73998ION    CL-42392  19.915  11.684   2.564
73999ION    CL-42393  32.468  22.598  12.938
74000ION    CL-42394  39.638  43.125   2.549
74001ION    CL-42395  24.322  12.788  14.492
74002ION    CL-42396  33.198  41.087   3.207
74003ION    CL-42397  36.390  11.731  10.736
74004ION    CL-42398  32.511  26.142   3.685
74005ION    CL-42399  34.470   2.668   1.382
74006ION    CL-42400   1.904  39.986  14.445
74007ION    CL-42401  12.043  13.287   0.769
74008ION    CL-42402  17.987  41.095   4.696
74009ION    CL-42403  14.890  41.216  12.398
74010ION    CL-42404  40.182  20.943  10.732
74011ION    CL-42405   0.021  31.142   4.010
74012ION    CL-42406  23.459  28.281   0.335
74013ION    CL-42407  29.979  20.732  13.541
74014ION    CL-42408  34.890   4.987  13.490
74015ION    CL-42409  37.966   9.724  10.311
74016ION    CL-42410  22.786  26.189   4.298
74017ION    CL-42411  43.091   0.151  11.295
74018ION    CL-42412  39.504  28.633  14.337
74019ION    CL-42413  30.333  20.493   3.863
74020ION    CL-42414  41.067  20.636   3.400
74021ION    CL-42415   4.318  21.511   0.340
74022ION    CL-42416  18.014  12.820   1.131
74023ION    CL-42417  16.395  10.259   4.062
74024ION    CL-42418  12.653  38.677   5.086
74025ION    CL-42419  19.035   9.026   3.112
74026ION    CL-42420  19.570   9.331  14.212
74027ION    CL-42421  34.822  42.345  13.305
74028ION    CL-42422  36.769  13.316   0.300
74029ION    CL-42423  42.009  22.964  13.138
74030ION    CL-42424  30.012   9.128   2.002
74031ION    CL-42425   5.846  18.891   1.388
74032ION    CL-42426   3.672  44.542   1.269
74033ION    CL-42427  30.288  32.839   1.771
74034ION    CL-42428  35.127  41.030   3.921
74035ION    CL-42429   8.612  32.037  13.547
74036ION    CL-42430  13.361   3.019  12.782
74037ION    CL-42431   3.243  27.420   1.791
74038ION    CL-42432  11.779  20.127   0.500
74039ION    CL-42433   8.669  18.157   1.368
74040ION    CL-42434  15.301   4.917  14.466
74041ION    CL-42435  10.155  30.827   0.630
74042ION    CL-42436  16.838  35.356   5.117
74043ION    CL-42437   9.355  13.736   1.241
74044ION    CL-42438   9.326  37.389  12.008
74045ION    CL-42439   5.779  38.809   2.647
74046ION    CL-42440  34.561  22.375  11.029
74047ION    CL-42441   0.043  13.373   4.012
74048ION    CL-42442  39.369  17.043  12.699
74049ION    CL-42443  27.002  41.254  10.775
74050ION    CL-42444  33.308  26.294  12.365
74051ION    CL-42445  17.722   3.021   4.952
74052ION    CL-42446  41.327  40.187  14.448
74053ION    CL-42447   1.634  43.623  13.043
74054ION    CL-42448  30.103  33.014   4.141
74055ION    CL-42449  28.882  26.002  14.137
74056ION    CL-42450  20.685   5.106  12.556
74057ION    CL-42451   0.866  18.248   0.847
74058ION    CL-42452  18.332  14.560  13.950
74059ION    CL-42453  11.365  11.395   3.034
74060ION    CL-42454   0.417  29.184   4.144
74061ION    CL-42455  20.658  15.849  13.772
74062ION    CL-42456  31.173  20.803   3.700
74063ION    CL-42457  37.014  16.499   2.068
74064ION    CL-42458  32.950  36.006  11.074
74065ION    CL-42459  20.366  29.413  13.786
74066ION    CL-42460  24.748  39.634  12.771
74067ION    CL-42461  16.484  44.065  12.031
74068ION    CL-42462  26.755  30.148  10.372
74069ION    CL-42463  27.895  12.507   0.703
74070ION    CL-42464  18.759  24.044   3.330
74071ION    CL-42465   5.371  27.021   4.079
74072ION    CL-42466   9.453   5.588  11.573
74073ION    CL-42467  20.079  44.547   1.416
74074ION    CL-42468  31.303  28.840   1.393
74075ION    CL-42469  17.656  22.782   2.744
74076ION    CL-42470  29.412  35.111   4.341
74077ION    CL-42471   3.649  22.052   3.660
74078ION    CL-42472  38.632  19.974  11.719
74079ION    CL-42473   4.881  20.619  11.751
74080ION    CL-42474  26.650  42.663   1.401
74081ION    CL-42475  26.511  43.957   0.066
74082ION    CL-42476  40.050  14.267   3.169
74083ION    CL-42477  34.888  24.512  14.404
74084ION    CL-42478  22.831  21.652  13.899
74085ION    CL-42479   5.679  11.326   3.709
74086ION    CL-42480   0.263   2.790  14.826
74087ION    CL-42481  12.976  43.058   1.735
74088ION    CL-42482  23.803  14.681  11.937
74089ION    CL-42483   9.729  28.785   1.986
74090ION    CL-42484  38.142   1.401  13.157
74091ION    CL-42485   8.330  10.198  12.411
74092ION    CL-42486  22.234  23.223   1.754
74093ION    CL-42487   6.062   0.766  12.716
74094ION    CL-42488  26.695   6.864   1.752
74095ION    CL-42489   9.528  26.028   4.758
74096ION    CL-42490  25.584  43.570   3.932
74097ION    CL-42491   0.694  16.584  14.373
74098ION    CL-42492   9.329   7.775  14.776
74099ION    CL-42493  26.744  33.602  14.559
74100ION    CL-42494   9.459  43.047   3.253
74101ION    CL-42495  18.745  16.699  11.500
74102ION    CL-42496  44.358  19.359   4.214
74103ION    CL-42497   4.751   2.575  11.546
74104ION    CL-42498  41.476   3.339  10.936
74105ION    CL-42499  39.859  44.754  13.128
74106ION    CL-42500  13.642  29.653  10.710
74107ION    CL-42501  38.236  12.362   1.569
74108ION    CL-42502  27.167  32.613  13.791
74109ION    CL-42503  42.462  38.967  12.596
74110ION    CL-42504   4.861  30.423   2.873
74111ION    CL-42505  16.080  12.112  12.009
74112ION    CL-42506  35.655  28.400  14.110
74113ION    CL-42507  44.818  36.280   0.531
74114ION    CL-42508  26.931  19.140   4.963
74115ION    CL-42509   5.568  20.557   4.186
74116ION    CL-42510   4.212   6.575  10.361
74117ION    CL-42511  39.120   7.827   2.593
74118ION    CL-42512  31.900  19.388  11.585
74119ION    CL-42513  43.149  10.099  12.715
74120ION    CL-42514   5.537   6.979   1.688
74121ION    CL-42515  22.679  22.673   2.460
74122ION    CL-42516   8.495   3.825   0.318
74123ION    CL-42517  44.829  39.546  13.026
74124ION    CL-42518  44.833  42.239  12.646
74125ION    CL-42519  35.348  17.658  10.839
74126ION    CL-42520  16.720   5.610  11.313
74127ION    CL-42521  17.293  28.079   2.361
74128ION    CL-42522  22.828  35.671   4.750
74129ION    CL-42523  41.631  37.683   2.146
74130ION    CL-42524   3.217   1.027   3.210
74131ION    CL-42525   9.985  31.151  14.699
74132ION    CL-42526   5.639  15.268  12.682
74133ION    CL-42527  44.769  31.900   0.062
74134ION    CL-42528  34.844  40.344  14.355
74135ION    CL-42529  40.153   4.728   5.012
74136ION    CL-42530  44.411  36.605   2.466
74137ION    CL-42531  18.077  18.975   9.705
74138ION    CL-42532  29.064  29.471  12.947
74139ION    CL-42533  42.411  20.785   3.645
74140ION    CL-42534   5.158   0.843  12.766
74141ION    CL-42535  16.948  44.863   0.353
74142ION    CL-42536   0.173  44.164   0.859
74143ION    CL-42537  21.341  32.506  12.990
74144ION    CL-42538  39.905  28.168   0.955
74145ION    CL-42539  33.197  31.792   3.288
74146ION    CL-42540  15.028  16.947   4.375
74147ION    CL-42541   1.454   7.440   0.579
74148ION    CL-42542  42.512   7.598  12.224
74149ION    CL-42543  40.046  38.351   4.517
74150ION    CL-42544   8.999   2.216  13.393
74151ION    CL-42545  23.994  34.606  12.362
74152ION    CL-42546  22.019  39.369  14.192
74153ION    CL-42547  43.391  25.411   3.257
74154ION    CL-42548  22.431  31.433  11.645
74155ION    CL-42549  14.827  13.174   0.835
74156ION    CL-42550  23.959  22.763   4.081
74157ION    CL-42551  28.109  32.483  14.120
74158ION    CL-42552  31.170  32.753   1.714
74159ION    CL-42553  17.523   2.834   2.311
74160ION    CL-42554  20.251   8.983  11.127
74161ION    CL-42555  22.179  28.332  11.620
74162ION    CL-42556  37.215  33.847   0.572
74163ION    CL-42557  10.136  29.945  14.383
74164ION    CL-42558  25.946  41.126  13.979
74165ION    CL-42559  13.611  42.785  12.181
74166ION    CL-42560  13.794  42.387   2.977
74167ION    CL-42561  33.961  32.567   1.157
74168ION    CL-42562  32.882   2.616   5.156
74169ION    CL-42563  35.630   5.675  11.950
74170ION    CL-42564  24.297  35.948   4.630
74171ION    CL-42565  11.719  15.126  12.787
74172ION    CL-42566  23.834  14.590   4.926
74173ION    CL-42567  44.917  42.042  14.954
74174ION    CL-42568   3.858  10.062   2.824
74175ION    CL-42569   9.437   1.585   4.080
74176ION    CL-42570  30.606  18.098  14.729
74177ION    CL-42571   9.585   1.104  13.915
74178ION    CL-42572  19.210  26.428  12.871
74179ION    CL-42573  26.695  15.383  12.343
74180ION    CL-42574   5.889   4.963   0.775
74181ION    CL-42575  20.382  25.701   0.263
74182ION    CL-42576  35.655  19.864   1.997
74183ION    CL-42577  16.513  32.145   3.043
74184ION    CL-42578  34.243  20.837   4.404
74185ION    CL-42579  42.890  42.075  13.466
74186ION    CL-42580  24.705  23.712  12.164
74187ION    CL-42581   4.132   4.476   0.357
74188ION    CL-42582   8.279  36.982   1.460
74189ION    CL-42583  20.854   1.731  11.543
74190ION    CL-42584  39.574  27.660   3.150
74191ION    CL-42585   1.804  26.899   2.509
74192ION    CL-42586  15.407   0.385   3.182
74193ION    CL-42587  42.515   9.161   4.341
74194ION    CL-42588   6.710   0.841  10.853
74195ION    CL-42589   9.325  44.273   3.732
74196ION    CL-42590   1.661  23.126  14.237
74197ION    CL-42591  24.942  13.809   2.267
74198ION    CL-42592  24.412  23.664   4.386
74199ION    CL-42593  26.289  31.226   3.218
74200ION    CL-42594   9.918  21.784  11.994
74201ION    CL-42595  31.035  33.051  13.718
74202ION    CL-42596  14.452   0.423   0.014
74203ION    CL-42597  26.726   2.423   9.915
74204ION    CL-42598   2.563  20.761  11.438
74205ION    CL-42599  21.462  33.108   0.471
74206ION    CL-42600  15.919  21.478   2.381
74207ION    CL-42601  24.376  42.114   5.370
74208ION    CL-42602   4.016  24.229   3.876
74209ION    CL-42603  44.866  30.179  12.988
74210ION    CL-42604  43.504   5.370   2.863
74211ION    CL-42605  37.411  23.987  12.383
74212ION    CL-42606  31.895  32.036  12.540
74213ION    CL-42607   8.599   6.825  14.032
74214ION    CL-42608  17.287   0.241  10.754
74215ION    CL-42609  11.132  36.502   3.693
74216ION    CL-42610  39.073   6.266   0.000
74217ION    CL-42611  38.175   7.172   5.104
74218ION    CL-42612  21.929  26.657  14.625
74219ION    CL-42613   7.588  20.121   5.148
74220ION    CL-42614  39.438   4.748  11.212
74221ION    CL-42615  20.513  31.857  13.318
74222ION    CL-42616  24.251   7.755  11.615
74223ION    CL-42617  16.888  27.389   2.106
74224ION    CL-42618  23.900  26.509   9.803
74225ION    CL-42619   2.996  19.503  12.080
74226ION    CL-42620  39.125  26.646   4.639
74227ION    CL-42621  23.231   1.076   0.284
74228ION    CL-42622  20.241   1.886   4.432
74229ION    CL-42623  17.223  38.440   4.577
74230ION    CL-42624  30.892  44.380  14.688
74231ION    CL-42625   7.683  23.177  13.034
74232ION    CL-42626  23.325   9.160  13.595
74233ION    CL-42627  23.897   5.951  12.863
74234ION    CL-42628   1.397  44.842  12.660
74235ION    CL-42629  14.347  43.837  13.157
74236ION    CL-42630  35.523  28.994   4.390
74237ION    CL-42631  27.556  22.701  12.178
74238ION    CL-42632  15.829  23.669   0.566
74239ION    CL-42633  37.010  30.912  13.171
74240ION    CL-42634  17.845   5.522   3.237
74241ION    CL-42635  32.585  12.767  14.711
74242ION    CL-42636   4.826  31.796  14.450
74243ION    CL-42637   8.361   6.565   1.672
74244ION    CL-42638  34.288  31.724   2.238
74245ION    CL-42639   4.775  34.983   9.913
74246ION    CL-42640   3.133   2.509  10.224
74247ION    CL-42641  31.451  42.286   2.303
74248ION    CL-42642  16.523  42.972   2.757
74249ION    CL-42643   9.861  10.958  14.079
74250ION    CL-42644  26.426  27.114  14.077
74251ION    CL-42645  29.917  30.940   0.316
74252ION    CL-42646  15.329  36.897  13.468
74253ION    CL-42647  23.102  33.822  12.530
74254ION    CL-42648  44.754  40.583  14.078
74255ION    CL-42649  41.305  13.287   0.584
74256ION    CL-42650  23.465  24.877   0.773
74257ION    CL-42651  17.483  17.934  11.608
74258ION    CL-42652   6.397  38.421  10.876
74259ION    CL-42653  23.549  22.284  13.609
74260ION    CL-42654  18.462  42.517   0.564
74261ION    CL-42655   4.424  18.161   3.089
74262ION    CL-42656   5.771  17.093  13.061
74263ION    CL-42657  25.197  27.523   4.800
74264ION    CL-42658  37.353  35.091  13.612
74265ION    CL-42659  30.417  39.955   2.851
74266ION    CL-42660  39.595  38.457  13.007
74267ION    CL-42661  20.714  31.888  11.187
74268ION    CL-42662  13.450  12.306  11.040
74269ION    CL-42663  30.860   1.754  14.747
74270ION    CL-42664  35.845  16.326  11.156
74271ION    CL-42665   0.987  20.014   0.894
74272ION    CL-42666  22.108   0.635   4.053
74273ION    CL-42667   5.736   4.527  13.113
74274ION    CL-42668   8.887  39.584   0.442
74275ION    CL-42669  37.324  17.459  12.431
74276ION    CL-42670  32.814  23.369  13.122
74277ION    CL-42671  16.797   1.461   4.936
74278ION    CL-42672  17.842  19.966   2.374
74279ION    CL-42673   3.023   2.852   3.232
74280ION    CL-42674  44.118  40.281  14.850
74281ION    CL-42675   3.366  10.027  10.778
74282ION    CL-42676  33.620  44.379  14.931
74283ION    CL-42677  20.421  36.996   0.511
74284ION    CL-42678   8.835  21.642   3.566
74285ION    CL-42679  17.739  23.131   4.520
74286ION    CL-42680  18.635  36.669   3.247
74287ION    CL-42681  12.638   6.207  11.958
74288ION    CL-42682  31.658   3.609  12.175
74289ION    CL-42683  39.737  27.446  12.462
74290ION    CL-42684  29.462  16.270   0.466
74291ION    CL-42685  12.378  13.968   1.420
74292ION    CL-42686  28.590   8.071  13.603
74293ION    CL-42687  16.000   1.264  10.655
74294ION    CL-42688   8.324  34.823   2.464
74295ION    CL-42689   4.150  18.246  11.498
74296ION    CL-42690  23.047  15.628   0.909
74297ION    CL-42691   6.383  30.653   1.990
74298ION    CL-42692  18.751   9.103   0.745
74299ION    CL-42693   6.298   2.493  13.939
74300ION    CL-42694  26.590  34.272  10.488
74301ION    CL-42695  15.327  14.238   1.547
74302ION    CL-42696   5.476  28.143  14.242
74303ION    CL-42697   6.873  15.130   1.386
74304ION    CL-42698  35.954  23.538   4.997
74305ION    CL-42699  29.554  23.005  14.510
74306ION    CL-42700  11.343  19.399   0.843
74307ION    CL-42701  35.982  31.955  12.157
74308ION    CL-42702  25.615  23.581  11.574
74309ION    CL-42703  21.158  19.397   5.052
74310ION    CL-42704   8.571   1.187   4.382
74311ION    CL-42705  21.989  35.757  13.255
74312ION    CL-42706  31.710  34.485  10.997
74313ION    CL-42707   6.427  26.066  12.075
74314ION    CL-42708  38.980   1.088   4.164
74315ION    CL-42709  28.047  23.832   0.956
74316ION    CL-42710  26.016  23.117  10.699
74317ION    CL-42711  30.253  27.474   1.893
74318ION    CL-42712   0.352   1.745  11.187
74319ION    CL-42713   5.801   6.136   1.470
74320ION    CL-42714  39.986   7.293  12.894
74321ION    CL-42715  32.803   4.071   3.194
74322ION    CL-42716   2.198  28.729   2.096
74323ION    CL-42717  21.545  27.528  12.996
74324ION    CL-42718  18.864  42.954   1.251
74325ION    CL-42719   8.066  32.614  12.133
74326ION    CL-42720  12.620  21.671  11.562
74327ION    CL-42721  25.965  44.680   0.562
74328ION    CL-42722  44.870  14.401   4.536
74329ION    CL-42723   6.783   2.645  12.209
74330ION    CL-42724  43.045  18.155   4.063
74331ION    CL-42725   2.551  31.153  12.060
74332ION    CL-42726  22.468  18.992  10.404
74333ION    CL-42727  38.527  43.682  11.568
74334ION    CL-42728  42.941   4.773   2.157
74335ION    CL-42729   8.145  37.893   0.830
74336ION    CL-42730   8.718  19.456  13.023
74337ION    CL-42731  32.669  33.938   2.346
74338ION    CL-42732  32.822  39.817   3.061
74339ION    CL-42733  24.616  41.015  12.656
74340ION    CL-42734  15.131  24.925  12.480
74341ION    CL-42735   7.582  16.914   9.870
74342ION    CL-42736  36.025   3.378  12.272
74343ION    CL-42737  38.420  37.581  12.870
74344ION    CL-42738   0.806  25.767  10.573
74345ION    CL-42739  41.751   2.138  11.561
74346ION    CL-42740  27.053  43.076   4.348
74347ION    CL-42741  36.514  41.133   9.948
74348ION    CL-42742  43.786  17.643  13.991
74349ION    CL-42743   9.249   3.036   2.835
74350ION    CL-42744  43.670   2.621  10.358
74351ION    CL-42745  28.748  24.701  14.264
74352ION    CL-42746  39.317  36.604  14.825
74353ION    CL-42747  17.254  33.846  11.511
74354ION    CL-42748  24.559   6.550  12.640
74355ION    CL-42749  10.489   7.233   3.663
74356ION    CL-42750  19.147   3.859  11.889
74357ION    CL-42751  20.273  43.306   2.242
74358ION    CL-42752  40.359   1.738   2.719
74359ION    CL-42753  28.561  13.373   3.094
74360ION    CL-42754  24.219  42.210   2.764
74361ION    CL-42755   0.036  22.085   1.318
74362ION    CL-42756  37.993  29.965   2.886
74363ION    CL-42757   2.246  43.885  14.130
74364ION    CL-42758  35.538  32.970  11.530
74365ION    CL-42759   8.315  17.271   3.661
74366ION    CL-42760  21.641  37.596   9.930
74367ION    CL-42761   1.770  22.325   4.874
74368ION    CL-42762  17.950  40.335   3.500
74369ION    CL-42763  15.476  17.056   3.954
74370ION    CL-42764  24.633  18.024  12.743
74371ION    CL-42765  21.677   1.404  14.006
74372ION    CL-42766  36.373  28.320  12.522
74373ION    CL-42767  35.037  30.659  11.728
74374ION    CL-42768  30.665  42.218  14.588
74375ION    CL-42769  35.738  41.944  13.295
74376ION    CL-42770  38.835  28.603  12.447
74377ION    CL-42771  11.031  12.702   3.264
74378ION    CL-42772  35.117  33.009   3.847
74379ION    CL-42773  19.099  13.558   0.890
74380ION    CL-42774  17.620  39.901  14.282
74381ION    CL-42775  38.704  11.259  14.102
74382ION    CL-42776  27.322  14.468  12.020
74383ION    CL-42777  29.932  17.962   0.564
74384ION    CL-42778  26.404  27.785  10.657
74385ION    CL-42779  40.859  27.729   1.522
74386ION    CL-42780  32.413   5.422  13.162
74387ION    CL-42781  21.331  22.594  14.607
74388ION    CL-42782  38.814  37.039  11.687
74389ION    CL-42783  23.948  44.181  12.962
74390ION    CL-42784   0.405  31.069  10.532
74391ION    CL-42785  32.883   1.639  11.162
74392ION    CL-42786  39.798  35.860  13.411
74393ION    CL-42787  12.090  37.336   0.687
74394ION    CL-42788   1.627  13.908   0.998
74395ION    CL-42789   7.833  32.656  10.143
74396ION    CL-42790   3.939  38.490  14.603
74397ION    CL-42791  37.374  37.545  10.720
74398ION    CL-42792  39.858   6.443  13.428
74399ION    CL-42793   6.014  25.186  13.834
74400ION    CL-42794   0.838  22.343   5.283
74401ION    CL-42795  23.542   1.327   4.594
74402ION    CL-42796  42.264   4.431  10.981
74403ION    CL-42797   1.541  28.871   2.490
74404ION    CL-42798  30.320   6.160   2.650
74405ION    CL-42799  34.535  15.291   4.357
74406ION    CL-42800  23.075   4.384   2.908
74407ION    CL-42801  12.374   8.943   0.744
74408ION    CL-42802  33.796  33.359  14.829
74409ION    CL-42803  37.331  19.525  12.410
74410ION    CL-42804   2.650  28.228   3.908
74411ION    CL-42805  15.107   8.168   1.677
74412ION    CL-42806  44.927  15.501   2.389
74413ION    CL-42807  27.501  14.596  12.850
74414ION    CL-42808   9.667  32.500   2.192
74415ION    CL-42809  43.471   6.420   1.194
74416ION    CL-42810   0.557  25.607  11.661
74417ION    CL-42811  21.576  23.274  11.491
74418ION    CL-42812  23.009   9.115   4.584
74419ION    CL-42813   7.417  27.705  11.615
74420ION    CL-42814  14.087  44.405  10.733
74421ION    CL-42815  16.150  29.464   3.783
74422ION    CL-42816  31.291   0.310   4.453
74423ION    CL-42817  19.060  28.724   1.729
74424ION    CL-42818  33.608   4.274   3.752
74425ION    CL-42819  22.969  31.962  14.326
74426ION    CL-42820  26.911  30.455   3.694
74427ION    CL-42821  15.728  24.022  14.760
74428ION    CL-42822   0.741   4.464   1.840
74429ION    CL-42823   8.678  33.823  14.294
74430ION    CL-42824  26.146  33.516  12.078
74431ION    CL-42825  40.564  12.520   9.570
74432ION    CL-42826  12.036  32.730   1.876
74433ION    CL-42827  37.060  17.984   0.075
74434ION    CL-42828  37.716  28.267   4.163
74435ION    CL-42829   8.752  19.126   4.972
74436ION    CL-42830  33.572  24.107  10.745
74437ION    CL-42831   2.435   6.249  12.124
74438ION    CL-42832  17.723  13.531   3.601
74439ION    CL-42833  18.674   2.924  11.754
74440ION    CL-42834   2.459  24.286   0.748
74441ION    CL-42835   1.201   3.368   0.660
74442ION    CL-42836  19.645  44.684  13.746
74443ION    CL-42837  19.384  37.019  11.496
74444ION    CL-42838  37.013   7.177   4.880
74445ION    CL-42839   4.690  26.336  14.837
74446ION    CL-42840   6.118  11.517   1.670
74447ION    CL-42841  17.983   7.599   5.194
74448ION    CL-42842   5.328  16.702   3.552
74449ION    CL-42843   0.734  23.319  14.465
74450ION    CL-42844  18.736  40.964  10.371
74451ION    CL-42845   0.944  36.295   0.039
74452ION    CL-42846  38.884   1.026   3.170
74453ION    CL-42847   9.390  29.714  13.421
74454ION    CL-42848   9.449  20.070   3.599
74455ION    CL-42849   4.619  21.656  13.322
74456ION    CL-42850  26.276  34.007   1.725
74457ION    CL-42851  39.999  16.183  13.511
74458ION    CL-42852  23.101   4.370   0.215
74459ION    CL-42853  33.199   6.749  12.749
74460ION    CL-42854  21.254  34.147   3.258
74461ION    CL-42855  20.303  12.081  13.882
74462ION    CL-42856  11.810  18.766  12.005
74463ION    CL-42857  26.795  23.631  14.357
74464ION    CL-42858   7.009  42.764   3.476
74465ION    CL-42859  13.139  17.122  12.008
74466ION    CL-42860  22.236  11.740  10.664
74467ION    CL-42861  34.564  12.397   0.334
74468ION    CL-42862   6.521   4.888   4.316
74469ION    CL-42863   6.707  11.792  10.775
74470ION    CL-42864  10.683   5.880  12.191
74471ION    CL-42865   2.651  26.187   4.849
74472ION    CL-42866  35.942  29.794   4.276
74473ION    CL-42867  31.984   6.671   3.212
74474ION    CL-42868  16.448   1.986  11.876
74475ION    CL-42869  34.905  38.970   3.697
74476ION    CL-42870  13.526   0.349   1.633
74477ION    CL-42871  39.478   5.536   2.846
74478ION    CL-42872  39.774   8.511  12.931
74479ION    CL-42873  23.159   1.166  13.269
74480ION    CL-42874  21.087  17.632   1.640
74481ION    CL-42875  37.336  41.036   0.109
74482ION    CL-42876  16.745  23.732  13.363
74483ION    CL-42877  42.735  12.415  10.648
74484ION    CL-42878  33.438  43.578  14.357
74485ION    CL-42879  42.471  21.209  14.738
74486ION    CL-42880  25.603  44.406   2.372
74487ION    CL-42881  14.244  40.546  14.953
74488ION    CL-42882  43.976   4.527   1.301
74489ION    CL-42883  15.848   4.462   3.497
74490ION    CL-42884   0.364  14.580   1.499
74491ION    CL-42885  34.922  20.924  13.374
74492ION    CL-42886  31.616  42.808   0.910
74493ION    CL-42887  30.150   9.878   1.700
74494ION    CL-42888  12.773  36.140   2.553
74495ION    CL-42889  13.169  40.879  11.924
74496ION    CL-42890  44.747   7.322   0.967
74497ION    CL-42891  43.372  17.746  10.782
74498ION    CL-42892   4.055  16.692  12.679
74499ION    CL-42893   7.634  35.638  12.300
74500ION    CL-42894   2.980  44.244   3.170
74501ION    CL-42895   2.763   9.194  10.292
74502ION    CL-42896  40.753  20.182   2.232
74503ION    CL-42897  38.987   7.616  11.080
74504ION    CL-42898  13.935  15.986  12.224
74505ION    CL-42899  20.619  21.255  12.383
74506ION    CL-42900   4.263  10.985  10.002
74507ION    CL-42901  27.185  13.221  12.923
74508ION    CL-42902  23.828   8.492   1.272
74509ION    CL-42903  23.317  19.193  12.751
74510ION    CL-42904  27.184  21.043   2.337
74511ION    CL-42905  15.152   5.458  12.039
74512ION    CL-42906  34.783  11.791  12.046
74513ION    CL-42907   6.405  24.019  14.020
74514ION    CL-42908  35.626   1.602   3.159
74515ION    CL-42909  36.639   8.415  12.556
74516ION    CL-42910  23.737  34.042   3.068
74517ION    CL-42911  35.794  23.395   2.698
74518ION    CL-42912  18.705   0.243   2.723
74519ION    CL-42913  34.127   9.355  12.059
74520ION    CL-42914  32.158  39.759   2.441
74521ION    CL-42915  14.049  31.404  11.169
74522ION    CL-42916  39.099   2.700   3.644
74523ION    CL-42917   5.777  21.831  11.648
74524ION    CL-42918   0.444  26.119   0.990
74525ION    CL-42919  28.179  15.591  14.403
74526ION    CL-42920  27.604   3.206   2.945
74527ION    CL-42921  10.285  34.925  10.885
74528ION    CL-42922   5.195  39.052  10.779
74529ION    CL-42923  44.313   6.163   4.706
74530ION    CL-42924  11.108  18.450   0.515
74531ION    CL-42925  20.334  27.165  13.144
74532ION    CL-42926  14.581  42.494  10.576
74533ION    CL-42927  38.890  40.770   1.958
74534ION    CL-42928  14.624   1.565   2.966
74535ION    CL-42929  39.900  35.046   0.665
74536ION    CL-42930  30.965  13.943   0.906
74537ION    CL-42931  30.172  15.369   0.610
74538ION    CL-42932  16.804   7.629  10.787
74539ION    CL-42933   5.856  22.240   1.689
74540ION    CL-42934   7.663  24.230   2.356
74541ION    CL-42935  40.185  32.791   2.330
74542ION    CL-42936  15.540  17.756   9.842
74543ION    CL-42937  34.854  24.970   4.736
74544ION    CL-42938  27.797  39.862   4.626
74545ION    CL-42939   4.950  25.520   0.123
74546ION    CL-42940  11.425  42.691   3.331
74547ION    CL-42941  27.489  10.055  12.663
74548ION    CL-42942   6.667   1.965   0.804
74549ION    CL-42943  24.682   2.982   0.982
74550ION    CL-42944  25.540  32.621   0.448
74551ION    CL-42945  31.295  12.946   9.884
74552ION    CL-42946  14.842  30.270   1.198
74553ION    CL-42947  17.275  30.554   0.976
74554ION    CL-42948   9.412  38.743   0.816
74555ION    CL-42949  44.751  44.259  14.058
74556ION    CL-42950   1.167  12.292   1.520
74557ION    CL-42951   4.919  37.347   0.305
74558ION    CL-42952  34.546  42.777   4.431
74559ION    CL-42953  40.835   0.435   3.244
74560ION    CL-42954  23.944   2.329  12.938
74561ION    CL-42955  10.584   7.264   4.787
74562ION    CL-42956  22.556  10.822   3.322
74563ION    CL-42957  12.095   6.029  11.112
74564ION    CL-42958  36.983  13.772  11.350
74565ION    CL-42959  15.640  37.915  11.956
74566ION    CL-42960  19.813  37.937  13.923
74567ION    CL-42961  34.684  16.640  13.390
74568ION    CL-42962  18.322  19.599   1.181
74569ION    CL-42963  28.185   2.361   2.847
74570ION    CL-42964  35.842  16.542   1.011
74571ION    CL-42965   3.366   4.022   4.273
74572ION    CL-42966  35.423  30.959   3.418
74573ION    CL-42967  14.666  30.704   2.744
74574ION    CL-42968  13.959  44.316   3.822
74575ION    CL-42969  36.454  31.572  14.352
74576ION    CL-42970  42.848  24.208   2.777
74577ION    CL-42971   4.921  43.659   4.919
74578ION    CL-42972  21.773   1.813  12.838
74579ION    CL-42973  25.533  30.778   2.732
74580ION    CL-42974  12.091  43.009  12.239
74581ION    CL-42975   2.257  30.989   1.788
74582ION    CL-42976   5.398  13.260  10.328
74583ION    CL-42977   4.818  40.265   1.664
74584ION    CL-42978  24.084  19.814   3.647
74585ION    CL-42979  23.985  23.994   9.880
74586ION    CL-42980  32.059  37.559  13.848
74587ION    CL-42981  19.675  34.651  10.942
74588ION    CL-42982   3.601  38.535   3.241
74589ION    CL-42983  10.054  27.296   3.833
74590ION    CL-42984  35.344  35.598  13.883
74591ION    CL-42985   6.630   2.832   3.251
74592ION    CL-42986  28.579   3.955   3.021
74593ION    CL-42987  14.863  17.300   5.296
74594ION    CL-42988   3.657  39.530   3.148
74595ION    CL-42989   9.287   7.407   3.148
74596ION    CL-42990  26.786  19.495   1.869
74597ION    CL-42991   8.825   5.061   3.381
74598ION    CL-42992   7.957   9.821  14.656
74599ION    CL-42993  21.217  40.049   3.636
74600ION    CL-42994   7.341   3.383   3.692
74601ION    CL-42995  30.204  32.868  14.010
74602ION    CL-42996  41.759  15.197  10.901
74603ION    CL-42997   8.237  43.343  13.484
74604ION    CL-42998  12.138   0.576  13.883
74605ION    CL-42999  42.317   5.439  14.337
74606ION    CL-43000   4.035   7.289  12.241
74607ION    CL-43001  31.839   5.940   2.868
74608ION    CL-43002   7.455  36.414   3.968
74609ION    CL-43003   5.943   5.009   3.775
74610ION    CL-43004  39.392   4.692   2.279
74611ION    CL-43005  32.615  31.654   0.277
74612ION    CL-43006  24.109  39.076   5.034
74613ION    CL-43007  13.199  44.128  14.568
74614ION    CL-43008  17.701  35.955  11.891
74615ION    CL-43009  17.740   7.417   0.380
74616ION    CL-43010  39.402  15.014   3.319
74617ION    CL-43011  17.397  27.089  12.359
74618ION    CL-43012   2.996  23.039  14.020
74619ION    CL-43013   2.289   6.042  14.881
74620ION    CL-43014  17.059  19.973  11.210
74621ION    CL-43015  27.063  10.831   2.209
74622ION    CL-43016   0.107  26.299  12.227
74623ION    CL-43017  39.591  30.344   3.235
74624ION    CL-43018   9.597   1.873   2.126
74625ION    CL-43019   8.975  40.508   3.153
74626ION    CL-43020  19.133  40.754  13.837
74627ION    CL-43021  37.919  31.862   1.340
74628ION    CL-43022  32.494   3.000  14.598
74629ION    CL-43023  11.427  34.539   4.564
74630ION    CL-43024  13.177  20.406  10.275
74631ION    CL-43025  20.021   6.537   0.352
74632ION    CL-43026  33.782   5.347   1.942
74633ION    CL-43027  26.014  22.187   3.761
74634ION    CL-43028  40.530  21.887   4.264
74635ION    CL-43029  14.270  39.014   2.201
74636ION    CL-43030  42.370   8.428  11.151
74637ION    CL-43031  35.889  37.918  13.850
74638ION    CL-43032  17.993   3.427  11.866
74639ION    CL-43033  35.924  12.314   0.448
74640ION    CL-43034   6.889   9.169  11.202
74641ION    CL-43035  27.850   0.915  14.941
74642ION    CL-43036  41.419  40.855  12.288
74643ION    CL-43037  39.007   6.770   2.681
74644ION    CL-43038  34.791  22.051   0.415
74645ION    CL-43039  26.175  12.737  14.770
74646ION    CL-43040   2.823  33.781   1.863
74647ION    CL-43041  17.514  14.116   2.942
74648ION    CL-43042  33.279  16.830  14.666
74649ION    CL-43043  29.942  31.989   4.117
74650ION    CL-43044  12.283  14.318  14.520
74651ION    CL-43045  34.641  29.942   0.973
74652ION    CL-43046   7.920  42.878  12.657
74653ION    CL-43047  40.884   2.778   3.212
74654ION    CL-43048  28.360   9.160  14.204
74655ION    CL-43049   4.731  37.287  11.330
74656ION    CL-43050  26.903  29.421  10.952
74657ION    CL-43051   7.913  37.151  11.990
74658ION    CL-43052   4.610  11.749   3.684
74659ION    CL-43053  15.674  19.589   2.217
74660ION    CL-43054  38.435  28.250   1.257
74661ION    CL-43055  35.307  18.238  11.620
74662ION    CL-43056   5.914  12.033  13.454
74663ION    CL-43057  39.593  23.580  13.958
74664ION    CL-43058  22.140  25.783   3.409
74665ION    CL-43059  43.813  23.315   4.544
74666ION    CL-43060  31.981  23.956  13.345
74667ION    CL-43061  31.273   5.009   4.076
74668ION    CL-43062  38.088   1.146  14.885
74669ION    CL-43063  12.580  19.526  11.149
74670ION    CL-43064  27.931  18.667   1.115
74671ION    CL-43065  44.921   8.792   2.160
74672ION    CL-43066  26.935   5.658   3.496
74673ION    CL-43067   5.905   4.857   1.872
74674ION    CL-43068  30.975  22.158  13.461
74675ION    CL-43069  13.598   7.061   1.145
74676ION    CL-43070   4.316  11.164   1.851
74677ION    CL-43071  36.486  29.308  12.223
74678ION    CL-43072  37.776  18.694   2.389
74679ION    CL-43073  29.650  35.407  10.297
74680ION    CL-43074  33.152  33.970   1.420
74681ION    CL-43075  39.722  39.578  10.988
74682ION    CL-43076   6.418  41.476  13.097
74683ION    CL-43077  34.090  44.873  13.569
74684ION    CL-43078  31.602  36.798   1.180
74685ION    CL-43079   2.860  37.503   1.867
74686ION    CL-43080  12.644   3.211   2.544
74687ION    CL-43081  12.045  12.706   3.309
74688ION    CL-43082  13.636  36.272   3.182
74689ION    CL-43083  31.980  22.474   2.227
74690ION    CL-43084  29.316  19.739   4.434
74691ION    CL-43085   4.707   7.403  14.197
74692ION    CL-43086  16.142   8.964  13.987
74693ION    CL-43087  23.495  37.293   4.895
74694ION    CL-43088   7.612   8.784   2.759
74695ION    CL-43089   1.530  16.280   1.878
74696ION    CL-43090  38.656  19.038  12.072
74697ION    CL-43091  16.443   8.584  12.848
74698ION    CL-43092  27.610  23.634  11.822
74699ION    CL-43093  35.370  27.944   2.533
74700ION    CL-43094  29.848   1.511  11.132
74701ION    CL-43095  32.913  38.011   0.870
74702ION    CL-43096  24.689  23.252   2.161
74703ION    CL-43097   8.252  38.631   4.091
74704ION    CL-43098  43.607  25.888  11.158
74705ION    CL-43099  16.293  20.798  10.595
74706ION    CL-43100  34.425  37.633   2.836
74707ION    CL-43101  15.194  18.083   1.623
74708ION    CL-43102   5.740  36.394  13.433
74709ION    CL-43103   0.812  16.971   0.454
74710ION    CL-43104  42.177  35.172   0.428
74711ION    CL-43105  19.313  39.544   1.048
74712ION    CL-43106   8.633   8.007  13.076
74713ION    CL-43107  13.683  19.342   3.363
74714ION    CL-43108  26.543  14.629  11.953
74715ION    CL-43109  43.435  39.186   2.783
74716ION    CL-43110   3.508  40.604   4.179
74717ION    CL-43111  26.138  19.018  14.593
74718ION    CL-43112  18.618  21.698  13.013
74719ION    CL-43113  24.502   1.520   1.257
74720ION    CL-43114  33.305   6.999   0.773
74721ION    CL-43115   8.769  32.576  14.929
74722ION    CL-43116  38.030  17.122  14.473
74723ION    CL-43117  14.452  34.633   0.667
74724ION    CL-43118  10.630  38.072   2.062
74725ION    CL-43119  22.202   1.069  10.355
74726ION    CL-43120  16.891   6.392  12.048
74727ION    CL-43121  18.766   5.323  12.118
74728ION    CL-43122  18.002  31.202  12.484
74729ION    CL-43123  39.528  24.723   1.754
74730ION    CL-43124  29.236  26.185  12.071
74731ION    CL-43125  32.336  28.181  11.329
74732ION    CL-43126  35.761  24.676  10.651
74733ION    CL-43127  44.419  26.965   2.178
74734ION    CL-43128  35.181  10.772  12.314
74735ION    CL-43129  25.868  16.175   4.516
74736ION    CL-43130  28.960  27.372   0.454
74737ION    CL-43131  23.112  42.069  13.239
74738ION    CL-43132  39.109  12.344  12.973
74739ION    CL-43133  43.097  11.806  11.799
74740ION    CL-43134   6.100  42.061  12.351
74741ION    CL-43135  19.267  12.934  11.133
74742ION    CL-43136   5.401  27.949   0.220
74743ION    CL-43137  21.494  35.332  14.923
74744ION    CL-43138  28.009  38.674  14.872
74745ION    CL-43139   3.427   5.840  14.214
74746ION    CL-43140  11.751  17.479   0.455
74747ION    CL-43141   7.645  16.092   2.303
74748ION    CL-43142   4.913   1.880   1.777
74749ION    CL-43143  19.265   8.581   4.961
74750ION    CL-43144  29.884  12.620   1.769
74751ION    CL-43145  15.435  30.392  11.050
74752ION    CL-43146  28.209  24.853  12.403
74753ION    CL-43147   0.759   3.625   4.015
74754ION    CL-43148  12.926  40.335  11.267
74755ION    CL-43149  25.941  33.194  14.734
74756ION    CL-43150  10.924   7.202   0.261
74757ION    CL-43151  26.786  21.789  11.652
74758ION    CL-43152  16.715  13.135   3.671
74759ION    CL-43153  33.466  43.427  11.806
74760ION    CL-43154  35.924  17.637   4.647
74761ION    CL-43155  16.649  42.011   0.372
74762ION    CL-43156  19.042   1.295   4.231
74763ION    CL-43157  38.018  33.899   3.744
74764ION    CL-43158  39.587  12.866  14.489
74765ION    CL-43159  28.271   9.432   0.077
74766ION    CL-43160  11.701  22.730  11.686
74767ION    CL-43161   6.274  25.254  14.797
74768ION    CL-43162  38.048   6.217  10.531
74769ION    CL-43163  10.072  31.359  11.280
74770ION    CL-43164  29.177  32.624  10.594
74771ION    CL-43165   0.980  29.235  11.236
74772ION    CL-43166  33.276  38.565  11.595
74773ION    CL-43167  31.134   2.520  11.022
74774ION    CL-43168  23.298  35.172  13.432
74775ION    CL-43169  18.276  12.561   2.061
74776ION    CL-43170  33.678  23.506  13.627
74777ION    CL-43171   1.652  25.163   3.362
74778ION    CL-43172  23.055  14.244   4.403
74779ION    CL-43173  28.130  38.119  13.418
74780ION    CL-43174  20.897  21.795   0.901
74781ION    CL-43175  38.476  32.846  14.552
74782ION    CL-43176  37.267   5.663   3.673
74783ION    CL-43177  10.714   2.223   4.464
74784ION    CL-43178  12.206   9.135   5.033
74785ION    CL-43179  33.679  25.116   2.725
74786ION    CL-43180  20.996  34.497  13.696
74787ION    CL-43181  13.221   1.065   1.167
74788ION    CL-43182  43.672  15.890   3.587
74789ION    CL-43183  39.861  16.637  12.039
74790ION    CL-43184  13.662  28.616   2.350
74791ION    CL-43185  28.052  18.227   1.901
74792ION    CL-43186  25.653  22.539  14.984
74793ION    CL-43187  33.427  15.002  14.731
74794ION    CL-43188  29.868  20.511   4.748
74795ION    CL-43189  36.049   4.270  13.810
74796ION    CL-43190  28.640  15.156  10.959
74797ION    CL-43191  27.449  33.912   0.605
74798ION    CL-43192  21.321  43.725  12.459
74799ION    CL-43193   2.059  34.014  10.718
74800ION    CL-43194   3.851  12.703   3.658
74801ION    CL-43195  12.663  20.702  12.528
74802ION    CL-43196  11.832  37.231   4.989
74803ION    CL-43197   2.901  35.062   4.932
74804ION    CL-43198  30.215  31.719  10.029
74805ION    CL-43199  29.484  31.222  12.934
74806ION    CL-43200  15.248  14.684  11.962
74807ION    CL-43201   2.307  25.286  10.713
74808ION    CL-43202  31.623  17.636  13.208
74809ION    CL-43203   3.202  17.618   2.623
74810ION    CL-43204   2.387  43.168  10.319
74811ION    CL-43205  23.967  13.730  14.185
74812ION    CL-43206  18.863  30.131   2.705
74813ION    CL-43207   9.946   3.934  13.526
74814ION    CL-43208  24.520  15.556   0.825
74815ION    CL-43209  15.878  27.165  12.529
74816ION    CL-43210  10.045  11.566   2.968
74817ION    CL-43211   9.880  43.877   2.600
74818ION    CL-43212  32.695  26.116  11.039
74819ION    CL-43213  35.429  40.138   0.213
74820ION    CL-43214   0.327  26.945  13.479
74821ION    CL-43215  43.417  19.556  10.764
74822ION    CL-43216   1.453  23.966  14.214
74823ION    CL-43217  38.460  43.975  14.061
74824ION    CL-43218  43.027   0.868  10.600
74825ION    CL-43219   6.704   4.694   3.507
74826ION    CL-43220  32.309  19.057   1.520
74827ION    CL-43221  33.025  19.270   3.241
74828ION    CL-43222  18.577  13.594  14.352
74829ION    CL-43223  15.013  22.096   1.439
74830ION    CL-43224  36.576   2.468  10.763
74831ION    CL-43225  18.439   2.808  14.618
74832ION    CL-43226  44.634  14.676  11.403
74833ION    CL-43227   8.916   7.393   1.593
74834ION    CL-43228  26.119  24.761  14.398
74835ION    CL-43229  18.612  24.728   0.473
74836ION    CL-43230  14.788  11.648   3.570
74837ION    CL-43231  27.303  33.482  13.576
74838ION    CL-43232   0.409  18.723  15.000
74839ION    CL-43233  11.139  26.133   4.822
74840ION    CL-43234  24.575  23.111  10.796
74841ION    CL-43235  41.310  44.336   3.848
74842ION    CL-43236  11.143  19.238  13.910
74843ION    CL-43237  37.243  30.520   3.244
74844ION    CL-43238  21.695  27.493   2.266
74845ION    CL-43239  25.866  19.462  11.469
74846ION    CL-43240   8.923  10.599  13.110
74847ION    CL-43241  34.546  20.597   0.331
74848ION    CL-43242  36.568  29.439   9.929
74849ION    CL-43243  14.918  29.517  13.230
74850ION    CL-43244  31.170  37.912   0.417
74851ION    CL-43245   7.994  16.867  11.770
74852ION    CL-43246  11.331   7.462   4.153
74853ION    CL-43247  11.861  11.623   5.081
74854ION    CL-43248   2.268  19.914  11.495
74855ION    CL-43249  22.315  21.380  11.837
74856ION    CL-43250   3.826   1.097  12.965
74857ION    CL-43251   0.496  35.393   3.369
74858ION    CL-43252  24.940  42.861  10.745
74859ION    CL-43253  42.044  16.234   3.739
74860ION    CL-43254   4.348  36.295  13.596
74861ION    CL-43255  34.886  14.653  13.965
74862ION    CL-43256  23.722  14.535   3.628
74863ION    CL-43257  26.608  34.174  11.483
74864ION    CL-43258  12.694  11.991   0.896
74865ION    CL-43259  44.963  20.560  12.903
74866ION    CL-43260  33.069  42.295  14.267
74867ION    CL-43261   0.718  18.429   3.319
74868ION    CL-43262  40.427   3.022   4.430
74869ION    CL-43263   5.053   6.667  10.919
74870ION    CL-43264  39.671   7.723   1.879
74871ION    CL-43265  32.876  44.285  11.646
74872ION    CL-43266   4.684   5.495  11.644
74873ION    CL-43267  38.376  12.047   4.552
74874ION    CL-43268   9.770  25.112  11.919
74875ION    CL-43269  18.328  23.768  14.389
74876ION    CL-43270  19.326   7.772  12.387
74877ION    CL-43271  35.986  26.728   5.056
74878ION    CL-43272  24.909  11.694   0.382
74879ION    CL-43273   7.291   0.406   4.634
74880ION    CL-43274  25.999  35.820   2.256
74881ION    CL-43275  28.460   6.730   2.119
74882ION    CL-43276  22.452  15.298   3.742
74883ION    CL-43277  14.462  27.089   2.887
74884ION    CL-43278  21.182  33.696  11.468
74885ION    CL-43279   2.478  39.557   1.789
74886ION    CL-43280  21.060  23.008  10.639
74887ION    CL-43281   0.918  30.971  11.692
74888ION    CL-43282  37.439   2.982  10.735
74889ION    CL-43283  22.351  18.939   2.599
74890ION    CL-43284  11.840   6.885  11.567
74891ION    CL-43285  27.293  13.305  14.512
74892ION    CL-43286  41.320  41.915  13.827
74893ION    CL-43287   6.598  16.245   0.894
74894ION    CL-43288  29.190  35.234  13.862
74895ION    CL-43289  34.630  30.383  14.724
74896ION    CL-43290  31.627   5.468  11.158
74897ION    CL-43291   5.132  11.279  10.146
74898ION    CL-43292  41.418   5.818   3.582
74899ION    CL-43293  31.295  18.070  13.920
74900ION    CL-43294   7.848   2.632  12.908
74901ION    CL-43295   2.503  35.192   3.668
74902ION    CL-43296  40.797  11.573  12.929
74903ION    CL-43297  11.312  11.444   3.936
74904ION    CL-43298  22.219  19.028  13.598
74905ION    CL-43299  29.844   4.606  12.772
74906ION    CL-43300   1.390  13.839  14.594
74907ION    CL-43301  34.135  19.670  13.799
74908ION    CL-43302  29.991  12.830  12.615
74909ION    CL-43303   7.115  35.984  11.215
74910ION    CL-43304  41.248  32.392  12.388
74911ION    CL-43305  25.113  43.529  13.910
74912ION    CL-43306   6.597  16.329   3.502
74913ION    CL-43307  30.605  31.114   2.225
74914ION    CL-43308   2.258  25.820  11.557
74915ION    CL-43309   1.942  40.613   0.246
74916ION    CL-43310   9.167  27.502  13.863
74917ION    CL-43311   3.424   2.471   2.351
74918ION    CL-43312  21.189   8.749   3.287
74919ION    CL-43313  30.968  39.387  12.814
74920ION    CL-43314  28.472  12.170  10.733
74921ION    CL-43315  25.807   6.530   1.436
74922ION    CL-43316  29.892  32.800  13.063
74923ION    CL-43317   6.363  37.730   2.932
74924ION    CL-43318  43.056  30.961   0.718
74925ION    CL-43319  34.902  15.422   0.716
74926ION    CL-43320  35.708  16.431  14.863
74927ION    CL-43321  43.485  36.905   3.979
74928ION    CL-43322  18.725  27.094   3.573
74929ION    CL-43323  15.680   5.217   0.910
74930ION    CL-43324  30.390  24.673  11.711
74931ION    CL-43325  20.890  10.134   1.324
74932ION    CL-43326  19.969  40.858   2.210
74933ION    CL-43327   7.344   2.798  10.757
74934ION    CL-43328  30.423  42.509  13.663
74935ION    CL-43329  29.382  42.365   1.016
74936ION    CL-43330  32.897  39.355   1.400
74937ION    CL-43331   2.122  22.789   1.517
74938ION    CL-43332  19.849   8.252   2.057
74939ION    CL-43333  38.777  32.372   4.613
74940ION    CL-43334  38.119  11.296  13.098
74941ION    CL-43335  22.179   3.928   2.113
74942ION    CL-43336  27.554  39.325  10.754
74943ION    CL-43337  41.882  29.444  11.279
74944ION    CL-43338  24.644   9.541   1.095
74945ION    CL-43339  31.885  31.930   0.902
74946ION    CL-43340  17.067  12.700   2.541
74947ION    CL-43341   4.490  28.006  14.337
74948ION    CL-43342  26.585   1.999  13.137
74949ION    CL-43343   3.787  28.102   1.507
74950ION    CL-43344  16.696  21.098  12.447
74951ION    CL-43345  24.053  14.627  10.650
74952ION    CL-43346  38.808   7.359  12.496
74953ION    CL-43347  43.040  42.998   3.639
74954ION    CL-43348  21.858  11.345   2.154
74955ION    CL-43349   0.707  13.674   0.684
74956ION    CL-43350   6.477   8.757   1.757
74957ION    CL-43351  13.796  27.565  11.652
74958ION    CL-43352  21.518  10.635  11.587
74959ION    CL-43353  14.357  20.625  11.720
74960ION    CL-43354  16.758  39.451  11.878
74961ION    CL-43355   3.224  26.217  11.374
74962ION    CL-43356  32.169  19.282   3.757
74963ION    CL-43357  13.138  32.289  14.409
74964ION    CL-43358  30.695   5.339   3.257
74965ION    CL-43359  37.329  28.598   1.919
74966ION    CL-43360  14.335  27.537   3.932
74967ION    CL-43361   2.155  40.515  10.642
74968ION    CL-43362  33.109  24.733  12.372
74969ION    CL-43363  27.984  25.858   2.856
74970ION    CL-43364  43.759  12.504   3.131
74971ION    CL-43365  24.945  30.920  14.340
74972ION    CL-43366   9.197  12.883   4.889
74973ION    CL-43367  32.794  15.054   4.578
74974ION    CL-43368  28.982  32.978  14.346
74975ION    CL-43369  43.775  41.752  10.787
74976ION    CL-43370  40.170  22.433   3.649
74977ION    CL-43371  44.155  36.619   1.803
74978ION    CL-43372  40.105   5.282   5.021
74979ION    CL-43373  34.099   8.726  14.900
74980ION    CL-43374   6.402  39.863   1.545
74981ION    CL-43375  26.911   7.640   2.599
74982ION    CL-43376  42.906   1.549   3.033
74983ION    CL-43377  41.217  28.262   0.307
74984ION    CL-43378  17.464  22.567  14.639
74985ION    CL-43379   7.150   0.064  10.692
74986ION    CL-43380  27.586   5.667   3.515
74987ION    CL-43381  33.890   3.913   0.049
74988ION    CL-43382  13.982   6.475  11.347
74989ION    CL-43383  29.156  12.574  13.640
74990ION    CL-43384  33.067   1.360  13.334
74991ION    CL-43385  32.602  17.435   0.607
74992ION    CL-43386  11.535   0.853  11.520
74993ION    CL-43387  34.921  23.060  12.629
74994ION    CL-43388  34.094  12.827   2.948
74995ION    CL-43389  34.151  22.999   4.746
74996ION    CL-43390   5.996  17.260  14.978
74997ION    CL-43391   3.859  11.038   5.132
74998ION    CL-43392  13.786  38.857   2.968
74999ION    CL-43393  16.305  14.114  13.715
75000ION    CL-43394   5.217  10.440   1.942
75001ION    CL-43395  17.277  11.322   3.802
75002ION    CL-43396  42.745  41.100  12.800
75003ION    CL-43397  15.328  41.318   2.183
75004ION    CL-43398   5.306  14.130  11.135
75005ION    CL-43399   9.998  13.722  13.441
75006ION    CL-43400  32.076   2.360   4.704
75007ION    CL-43401  27.696  11.858   1.831
75008ION    CL-43402  31.108  38.386  10.831
75009ION    CL-43403  34.223  12.402   2.253
75010ION    CL-43404  25.575  41.988  14.366
75011ION    CL-43405  29.905  34.348   2.349
75012ION    CL-43406  24.802  38.886  13.433
75013ION    CL-43407   3.419  38.290  13.887
75014ION    CL-43408  10.537   1.611  12.248
75015ION    CL-43409  15.862  28.810  13.545
75016ION    CL-43410   8.847  38.742  12.123
75017ION    CL-43411  44.432  36.992   4.310
75018ION    CL-43412  35.943  10.166   0.469
75019ION    CL-43413  14.957  43.032  14.183
75020ION    CL-43414  33.116  33.405  11.668
75021ION    CL-43415  30.197   9.796   2.487
75022ION    CL-43416  24.940   4.214   2.951
75023ION    CL-43417  31.540  21.940   0.826
75024ION    CL-43418  15.624   1.816  12.109
75025ION    CL-43419  41.110  32.665   2.688
75026ION    CL-43420  17.152  27.421   3.045
75027ION    CL-43421   8.721  15.370   0.315
75028ION    CL-43422  17.566   5.323   1.356
75029ION    CL-43423  33.578  42.446  10.348
75030ION    CL-43424  18.641  13.323  12.827
75031ION    CL-43425  33.918  39.470  11.201
75032ION    CL-43426  38.980  28.804   1.753
75033ION    CL-43427  37.062  17.250   4.087
75034ION    CL-43428  19.125   8.288  10.783
75035ION    CL-43429  12.273   7.263   0.165
75036ION    CL-43430  10.588  29.301  12.068
75037ION    CL-43431   4.256   1.244   5.026
75038ION    CL-43432  30.664  39.059   2.403
75039ION    CL-43433  11.085  28.779  14.621
75040ION    CL-43434  42.709  40.846  14.988
75041ION    CL-43435   2.915  25.470   1.322
75042ION    CL-43436   9.959   7.734  10.864
75043ION    CL-43437  39.028  36.333  12.364
75044ION    CL-43438  38.998   6.681  11.438
75045ION    CL-43439  42.620  42.013   3.807
75046ION    CL-43440   8.216  12.186  14.518
75047ION    CL-43441  22.834  39.255  13.799
75048ION    CL-43442  43.042  21.788   0.471
75049ION    CL-43443  43.578  15.223   2.847
75050ION    CL-43444  14.179  36.421  12.144
75051ION    CL-43445  11.232  38.397  11.993
75052ION    CL-43446  10.830  13.811   4.862
75053ION    CL-43447  11.688  32.954   0.965
75054ION    CL-43448  11.728  16.523   2.348
75055ION    CL-43449  30.780  35.332  11.173
75056ION    CL-43450  34.971  22.349   1.785
75057ION    CL-43451   6.185  38.898  11.728
75058ION    CL-43452   4.374  10.245   0.327
75059ION    CL-43453  14.875   6.078  14.601
75060ION    CL-43454  17.858   3.889   4.768
75061ION    CL-43455  41.489  16.287  13.479
75062ION    CL-43456  22.776  21.191  10.969
75063ION    CL-43457  21.454  12.219   3.275
75064ION    CL-43458  43.907  35.122   0.223
75065ION    CL-43459  30.896  12.018   0.925
75066ION    CL-43460  37.484   3.528   4.123
75067ION    CL-43461  20.105  12.979   3.298
75068ION    CL-43462  19.542  41.984   1.756
75069ION    CL-43463  20.591  15.997   0.100
75070ION    CL-43464  38.081  37.964  14.589
75071ION    CL-43465  13.532  12.819   3.268
75072ION    CL-43466  42.854  12.467   3.051
75073ION    CL-43467   0.617  17.541   3.485
75074ION    CL-43468   9.782  20.579  12.876
75075ION    CL-43469  29.335  32.332  12.531
75076ION    CL-43470   4.644  24.849   4.044
75077ION    CL-43471  31.437  11.797   3.863
75078ION    CL-43472   1.140  15.255  14.531
75079ION    CL-43473   0.605  30.693   1.171
75080ION    CL-43474   5.671  12.326   3.742
75081ION    CL-43475  35.374  44.450  11.636
75082ION    CL-43476  38.013  20.774  14.869
75083ION    CL-43477  42.205   7.030   0.331
75084ION    CL-43478  28.631  34.619  11.090
75085ION    CL-43479  18.725   5.576   2.989
75086ION    CL-43480  29.951  22.437  13.769
75087ION    CL-43481  25.300  32.606   4.856
75088ION    CL-43482  13.301  40.060   3.130
75089ION    CL-43483   4.661  16.318   0.530
75090ION    CL-43484  40.562   7.759   0.718
75091ION    CL-43485   5.884  33.316  13.566
75092ION    CL-43486  26.467  44.823   2.090
75093ION    CL-43487  40.256  26.206  12.607
75094ION    CL-43488  37.762  32.350   4.665
75095ION    CL-43489  10.494  39.362  11.522
75096ION    CL-43490  20.653   7.933   3.658
75097ION    CL-43491  38.955  42.481   0.180
75098ION    CL-43492  19.516  15.145   0.001
75099ION    CL-43493  30.582  29.420  14.450
75100ION    CL-43494  33.373  33.885  13.345
75101ION    CL-43495  24.786   8.686   1.482
75102ION    CL-43496  26.754  20.517   1.604
75103ION    CL-43497  19.573  33.162  11.915
75104ION    CL-43498  21.711  32.157   0.291
75105ION    CL-43499  43.951  40.562   3.091
75106ION    CL-43500  31.154  41.391   2.861
75107ION    CL-43501  32.105  11.357   0.308
75108ION    CL-43502  36.945  27.910  14.858
75109ION    CL-43503  21.076  40.377  12.459
75110ION    CL-43504   1.492  19.238  14.243
75111ION    CL-43505  12.695   4.208   0.359
75112ION    CL-43506  36.605   6.998  14.755
75113ION    CL-43507  44.588  32.984   2.047
75114ION    CL-43508   1.544  28.993   1.660
75115ION    CL-43509  33.703  41.597   0.094
75116ION    CL-43510  19.755  34.002  12.460
75117ION    CL-43511  23.126   0.785  10.613
75118ION    CL-43512  36.349  30.750  12.566
75119ION    CL-43513   3.997  35.610   2.049
75120ION    CL-43514  41.437  12.518  13.107
75121ION    CL-43515  43.709  29.519  12.684
75122ION    CL-43516  24.153   6.185   2.925
75123ION    CL-43517  35.169   2.093  11.743
75124ION    CL-43518  41.656  43.363   0.996
75125ION    CL-43519  17.971  19.971  12.862
75126ION    CL-43520  23.915  32.670   1.805
75127ION    CL-43521   2.591   0.311  11.707
75128ION    CL-43522  21.782   6.058  13.003
75129ION    CL-43523  35.965  28.033  11.655
75130ION    CL-43524  19.312  23.026   2.232
75131ION    CL-43525   6.908   7.424   0.966
75132ION    CL-43526   6.190  40.383  11.684
75133ION    CL-43527   9.579  41.606   4.035
75134ION    CL-43528  26.091  43.364  14.296
75135ION    CL-43529  41.308  21.024   2.224
75136ION    CL-43530  17.040   3.357   4.547
75137ION    CL-43531  30.581  12.144  14.534
75138ION    CL-43532   1.664   0.488  14.948
75139ION    CL-43533  28.171  15.773  11.694
75140ION    CL-43534  11.224  41.425  11.791
75141ION    CL-43535  18.781  17.344  12.629
75142ION    CL-43536   5.916  31.991  12.109
75143ION    CL-43537  38.777  14.257   1.253
75144ION    CL-43538  34.933   1.486  12.879
75145ION    CL-43539   6.469  37.372   1.996
75146ION    CL-43540  11.764  31.875   2.317
75147ION    CL-43541  17.457  16.699   3.245
75148ION    CL-43542  18.910  23.909   5.076
75149ION    CL-43543  43.631  39.036   1.456
75150ION    CL-43544  11.307  35.046   1.875
75151ION    CL-43545  11.382  39.779  12.407
75152ION    CL-43546  40.687  43.415   0.751
75153ION    CL-43547  38.291   2.583  11.728
75154ION    CL-43548  14.133  12.371   2.023
75155ION    CL-43549  16.487  37.132   3.100
75156ION    CL-43550  24.379  27.289  11.762
75157ION    CL-43551   4.565  37.400   9.922
75158ION    CL-43552   6.908  14.825  12.285
75159ION    CL-43553  25.888  38.533  11.973
75160ION    CL-43554   2.190   0.683  12.544
75161ION    CL-43555  18.981  35.257   3.419
75162ION    CL-43556  28.980  11.932  14.260
75163ION    CL-43557  40.728  34.715  10.870
75164ION    CL-43558  24.200  10.059  13.609
75165ION    CL-43559  34.308   7.743  13.039
75166ION    CL-43560   8.388  28.462   4.101
75167ION    CL-43561   4.221  29.605   3.117
75168ION    CL-43562  28.686   4.522   0.195
75169ION    CL-43563  28.881  12.072  12.431
75170ION    CL-43564  15.278  27.830   3.770
75171ION    CL-43565  15.484  28.722   3.708
75172ION    CL-43566  29.596  41.018   1.323
75173ION    CL-43567  34.618   4.690  12.475
75174ION    CL-43568  33.040  41.329  14.527
75175ION    CL-43569  31.382  15.307  14.538
75176ION    CL-43570  12.268  16.623  12.207
75177ION    CL-43571  19.181  14.034  12.670
75178ION    CL-43572  19.404   9.328   4.543
75179ION    CL-43573  17.843   7.380   2.227
75180ION    CL-43574  11.596   0.102  14.645
75181ION    CL-43575   0.181   6.419   4.560
75182ION    CL-43576  24.164   9.243  10.012
75183ION    CL-43577  37.409   8.746  12.233
75184ION    CL-43578  24.217   9.451   1.783
75185ION    CL-43579  35.861  15.818   0.639
75186ION    CL-43580  19.058  31.863  12.634
75187ION    CL-43581  16.591  21.532   3.206
75188ION    CL-43582  10.436   0.899   1.727
75189ION    CL-43583   0.149  27.175   2.829
75190ION    CL-43584  14.829  35.920   2.682
75191ION    CL-43585   4.198   9.747  10.300
75192ION    CL-43586   9.374  19.268  11.578
75193ION    CL-43587  10.830  31.854  11.250
75194ION    CL-43588   4.016  18.072   1.310
75195ION    CL-43589  19.232  15.443   4.319
75196ION    CL-43590  13.820  18.324   4.111
75197ION    CL-43591   9.266  30.921   1.264
75198ION    CL-43592  16.604  33.843   1.538
75199ION    CL-43593  43.474  22.640  11.341
75200ION    CL-43594  36.018  42.455   0.391
75201ION    CL-43595   9.690  27.793  11.175
75202ION    CL-43596   3.079  13.960  11.557
75203ION    CL-43597  30.428  23.295  13.964
75204ION    CL-43598  21.478  33.068  13.707
75205ION    CL-43599  23.162  12.287  13.336
75206ION    CL-43600   0.343  14.162  11.706
75207ION    CL-43601  35.190  35.021  12.376
75208ION    CL-43602  22.895  36.328   4.118
75209ION    CL-43603  30.543  38.004   4.352
75210ION    CL-43604   0.075  37.142  11.307
75211ION    CL-43605  11.349  14.564  13.550
75212ION    CL-43606  37.638  40.440  12.629
75213ION    CL-43607  14.522  37.811   5.346
75214ION    CL-43608  23.199  23.985   2.289
75215ION    CL-43609  28.143  20.495  11.540
75216ION    CL-43610  29.561  37.838  11.995
75217ION    CL-43611   1.167  27.155  12.529
75218ION    CL-43612  40.279  19.166   0.819
75219ION    CL-43613   1.984  42.947  12.357
75220ION    CL-43614  41.562  39.447   1.506
75221ION    CL-43615  41.218  11.462   1.495
75222ION    CL-43616  22.047  43.204  11.685
75223ION    CL-43617  22.261  23.181  12.213
75224ION    CL-43618  28.182  28.349  14.576
75225ION    CL-43619   5.462  42.043  14.272
75226ION    CL-43620   8.931  18.961   1.211
75227ION    CL-43621  34.603  11.469   0.804
75228ION    CL-43622   8.666   6.086   3.994
75229ION    CL-43623  19.562  44.101   2.146
75230ION    CL-43624  38.050  39.578  12.922
75231ION    CL-43625  34.387  25.233  13.908
75232ION    CL-43626   9.662  37.961   1.193
75233ION    CL-43627  43.826   0.683   0.944
75234ION    CL-43628  27.888  23.075   4.042
75235ION    CL-43629   5.689  17.218   4.331
75236ION    CL-43630  22.202  18.959  14.631
75237ION    CL-43631   9.282  27.125   1.815
75238ION    CL-43632  30.390   0.693   0.901
75239ION    CL-43633  35.995  37.892   3.725
75240ION    CL-43634  22.640  23.264   0.744
75241ION    CL-43635  34.761  30.912   2.580
75242ION    CL-43636  15.877  43.607   2.661
75243ION    CL-43637  21.741   0.281   4.913
75244ION    CL-43638  24.976  24.557   0.787
75245ION    CL-43639  31.547  39.211   3.666
75246ION    CL-43640  16.049   5.872   3.948
75247ION    CL-43641   5.916  40.096  12.857
75248ION    CL-43642   6.548  11.759   3.945
75249ION    CL-43643   4.005  41.404   5.150
75250ION    CL-43644  27.381   4.364  13.960
75251ION    CL-43645  32.275  12.645   2.222
75252ION    CL-43646  33.686  12.284   1.251
75253ION    CL-43647   3.131  40.783  14.194
75254ION    CL-43648   3.014  27.424  10.570
75255ION    CL-43649  36.735   6.395  13.475
75256ION    CL-43650  44.224   6.178  11.927
75257ION    CL-43651  10.923   6.713  13.857
75258ION    CL-43652   4.264   8.825   0.244
75259ION    CL-43653  33.147  24.796   1.428
75260ION    CL-43654  17.186  27.933   3.755
75261ION    CL-43655  28.610  44.442   1.892
75262ION    CL-43656   9.705  22.279  11.033
75263ION    CL-43657  35.915  12.128  13.801
75264ION    CL-43658   5.698  29.351   4.205
75265ION    CL-43659  32.658  43.359  12.598
75266ION    CL-43660   7.919  42.588   3.851
75267ION    CL-43661  40.098  30.882   4.462
75268ION    CL-43662  26.564   4.525  12.939
75269ION    CL-43663   1.307  42.808   0.372
75270ION    CL-43664  26.485  17.671  13.627
75271ION    CL-43665  19.811   9.607   3.357
75272ION    CL-43666   4.930  22.035  11.157
75273ION    CL-43667   7.498  36.259   9.870
75274ION    CL-43668  42.220  33.738  13.624
75275ION    CL-43669  31.676  35.467  11.182
75276ION    CL-43670  10.973  34.133  13.252
75277ION    CL-43671  20.193  44.482   3.576
75278ION    CL-43672  33.831  17.284   3.385
75279ION    CL-43673  16.178  10.574   1.328
75280ION    CL-43674  28.004   0.226  11.633
75281ION    CL-43675  37.275  25.126  11.515
75282ION    CL-43676  15.106  26.935   3.726
75283ION    CL-43677  31.833  25.437  14.808
75284ION    CL-43678   8.751  30.527   3.283
75285ION    CL-43679  17.030  34.799  11.719
75286ION    CL-43680  43.725  33.446  12.463
75287ION    CL-43681  42.562  36.282  11.907
75288ION    CL-43682   0.377   8.098   0.939
75289ION    CL-43683  12.330  28.891  11.996
75290ION    CL-43684  10.398  35.535  11.670
75291ION    CL-43685  11.843   5.875  12.471
75292ION    CL-43686  39.378  12.229   0.724
75293ION    CL-43687  11.694   3.284  11.425
75294ION    CL-43688   7.981  44.007   2.331
75295ION    CL-43689  33.637   5.985  12.664
75296ION    CL-43690  38.065  31.098  11.663
75297ION    CL-43691  36.074  16.121  13.785
75298ION    CL-43692   4.340  29.387   4.118
75299ION    CL-43693  42.652  16.561  12.416
75300ION    CL-43694  26.762   7.788  14.115
75301ION    CL-43695  19.767  28.318   2.840
75302ION    CL-43696  22.337  18.235   2.002
75303ION    CL-43697   1.141  34.339  11.328
75304ION    CL-43698  37.608  11.764  14.894
75305ION    CL-43699  28.743  40.888   0.170
75306ION    CL-43700  32.973  18.232   4.235
75307ION    CL-43701  13.535   2.318   1.365
75308ION    CL-43702  41.042  12.644   3.348
75309ION    CL-43703  13.911  39.877   1.052
75310ION    CL-43704  38.358  20.085  10.464
75311ION    CL-43705  23.474   4.229   2.121
75312ION    CL-43706  38.025  34.079  12.412
75313ION    CL-43707   4.071   3.372   2.805
75314ION    CL-43708  15.147   3.150  12.602
75315ION    CL-43709   7.120   9.957   2.861
75316ION    CL-43710  14.441   2.772   1.121
75317ION    CL-43711  27.043   6.395  10.710
75318ION    CL-43712   0.292   3.779   2.586
75319ION    CL-43713  27.373  21.764   1.659
75320ION    CL-43714  43.011  37.899  13.674
75321ION    CL-43715  24.537  38.889  12.469
75322ION    CL-43716   7.867  22.764   4.739
75323ION    CL-43717  38.499  15.057   3.353
75324ION    CL-43718  40.426  40.609  12.324
75325ION    CL-43719   8.392  32.641   4.037
75326ION    CL-43720   9.061  38.378  13.831
75327ION    CL-43721  33.297  32.439  14.410
75328ION    CL-43722  41.903   9.319   0.486
75329ION    CL-43723   5.138  32.032   5.106
75330ION    CL-43724  34.087  39.577   3.226
75331ION    CL-43725  14.158  33.047   0.234
75332ION    CL-43726  42.025  42.035   0.812
75333ION    CL-43727  43.840  36.343  10.682
75334ION    CL-43728  26.123  38.163  10.366
75335ION    CL-43729  21.049  27.423   0.269
75336ION    CL-43730  26.923  38.597   3.739
75337ION    CL-43731  30.005  22.228   3.143
75338ION    CL-43732   9.442  16.576  12.537
75339ION    CL-43733  32.352  22.972  12.461
75340ION    CL-43734   4.016  24.969  12.200
75341ION    CL-43735  36.553  33.723  14.955
75342ION    CL-43736   1.508  30.781   4.846
75343ION    CL-43737   6.863  44.572  12.039
75344ION    CL-43738  40.039   7.372   3.567
75345ION    CL-43739  15.722  14.675  11.082
75346ION    CL-43740  29.329  23.970  14.641
75347ION    CL-43741   0.054  16.821  11.788
75348ION    CL-43742   3.021  34.668  12.056
75349ION    CL-43743  10.041  12.533   3.227
75350ION    CL-43744  39.321  31.208   2.627
75351ION    CL-43745  32.595  34.993   3.870
75352ION    CL-43746  39.441  31.692   3.512
75353ION    CL-43747  29.097  43.892  12.314
75354ION    CL-43748  13.872  24.228   4.501
75355ION    CL-43749  31.014  44.875  10.681
75356ION    CL-43750   4.331   7.249  11.130
75357ION    CL-43751  28.516   8.758   1.958
75358ION    CL-43752  22.670  33.221  13.479
75359ION    CL-43753  18.180  44.871   1.484
75360ION    CL-43754  39.613  19.264  11.889
75361ION    CL-43755  26.551   1.806  11.378
75362ION    CL-43756   7.011  34.927  13.948
75363ION    CL-43757  36.965  28.891  10.436
75364ION    CL-43758  30.358   0.696  14.481
75365ION    CL-43759  43.142   0.244   1.866
75366ION    CL-43760  34.341   9.217   2.270
75367ION    CL-43761  16.240  19.490  13.860
75368ION    CL-43762  34.024  35.097  11.910
75369ION    CL-43763  19.697  13.213   4.799
75370ION    CL-43764   9.669  29.256   4.223
75371ION    CL-43765  36.412  34.675   2.167
75372ION    CL-43766   2.439  41.461  14.455
75373ION    CL-43767  19.631  17.001   3.650
75374ION    CL-43768  23.916  15.405  11.384
75375ION    CL-43769  34.599  43.671   4.292
75376ION    CL-43770  30.425  10.456  10.516
75377ION    CL-43771  23.186  27.013  13.003
75378ION    CL-43772   7.492  27.602  14.312
75379ION    CL-43773   9.367  28.824  14.963
75380ION    CL-43774  31.225  20.670   2.298
75381ION    CL-43775   7.679  25.087   1.762
75382ION    CL-43776  20.941   9.801  10.652
75383ION    CL-43777  15.658  44.275  11.710
75384ION    CL-43778  43.181  26.818  11.114
75385ION    CL-43779  36.585  33.413  13.695
75386ION    CL-43780  11.368  25.100  12.187
75387ION    CL-43781  43.697  34.474  10.711
75388ION    CL-43782  33.864  21.344   0.255
75389ION    CL-43783  24.355   5.908   5.195
75390ION    CL-43784   2.335  20.281  14.195
75391ION    CL-43785  44.337  17.549  10.535
75392ION    CL-43786  28.901  38.716  10.906
75393ION    CL-43787  13.832  31.052  13.351
75394ION    CL-43788  42.043  16.126   2.745
75395ION    CL-43789   5.960   8.408   4.256
75396ION    CL-43790   8.658  13.354   1.658
75397ION    CL-43791  18.882  28.390   3.096
75398ION    CL-43792  36.921  14.766   4.036
75399ION    CL-43793  17.244  12.402  11.575
75400ION    CL-43794  16.599  35.046   2.757
75401ION    CL-43795  26.187  43.792  11.127
75402ION    CL-43796   4.601   6.976  11.678
75403ION    CL-43797  41.545  30.579   3.284
75404ION    CL-43798   9.481  28.614  13.321
75405ION    CL-43799  38.616  24.845   4.218
75406ION    CL-43800  14.717  33.062   3.846
75407ION    CL-43801  36.049  31.751   3.310
75408ION    CL-43802  16.142  31.619   4.571
75409ION    CL-43803   4.211   3.916  10.852
75410ION    CL-43804   7.636  18.760   0.912
75411ION    CL-43805   7.236   1.923  11.229
75412ION    CL-43806  24.249   5.411  11.509
75413ION    CL-43807  34.829  15.015  12.288
75414ION    CL-43808  17.801  32.110   3.158
75415ION    CL-43809  18.716  37.504   0.260
75416ION    CL-43810   9.320  23.421   3.313
75417ION    CL-43811  30.091  23.207   4.098
75418ION    CL-43812  11.478  29.818  13.813
75419ION    CL-43813  21.883  12.788   2.538
75420ION    CL-43814  44.586  36.933   3.324
75421ION    CL-43815   0.492  23.978   0.793
75422ION    CL-43816   8.018  11.162  12.503
75423ION    CL-43817  31.125  25.677   0.972
75424ION    CL-43818  31.385  18.650   0.622
75425ION    CL-43819  26.580  24.782   4.836
75426ION    CL-43820   1.463  30.364   0.779
75427ION    CL-43821  15.169  20.702   4.320
75428ION    CL-43822  32.130  43.914   4.246
75429ION    CL-43823   7.639   4.902   2.695
75430ION    CL-43824  27.423  40.784  14.011
75431ION    CL-43825   0.697  29.486  14.411
75432ION    CL-43826  35.159  13.436  11.882
75433ION    CL-43827  38.248  36.155   1.889
75434ION    CL-43828  33.614  39.773  14.040
75435ION    CL-43829  16.820  37.360   3.893
75436ION    CL-43830  11.418  34.881  12.023
75437ION    CL-43831  28.820   4.333   3.348
75438ION    CL-43832  16.699  11.248  13.537
75439ION    CL-43833  29.637   8.196   2.697
75440ION    CL-43834   1.214   5.878   0.922
75441ION    CL-43835   0.153  43.510   0.080
75442ION    CL-43836  22.178  44.766  14.486
75443ION    CL-43837  23.829  18.427  12.886
75444ION    CL-43838   3.832  40.859  13.096
75445ION    CL-43839  12.636  32.025   2.944
75446ION    CL-43840   5.534  41.324   4.301
75447ION    CL-43841  15.104  19.178  11.271
75448ION    CL-43842  19.741  31.517   0.726
75449ION    CL-43843  39.087  22.896   4.202
75450ION    CL-43844  33.954  35.224   2.399
75451ION    CL-43845   2.975  22.579   1.995
75452ION    CL-43846  13.489  15.232   1.285
75453ION    CL-43847  27.741  19.724   4.978
75454ION    CL-43848  16.795   6.194  14.688
75455ION    CL-43849  31.349   4.844   1.711
75456ION    CL-43850  32.638  34.024   4.112
75457ION    CL-43851  38.167   6.675  12.037
75458ION    CL-43852   4.179  27.714   1.941
75459ION    CL-43853  21.510  20.726  11.154
75460ION    CL-43854  17.771  24.240  13.842
75461ION    CL-43855  42.268   8.142   3.195
75462ION    CL-43856  15.416  14.414  14.607
75463ION    CL-43857  42.359  36.914  14.066
75464ION    CL-43858  38.843   8.723  14.826
75465ION    CL-43859  31.795  44.335  13.361
75466ION    CL-43860  33.539  16.391   3.937
75467ION    CL-43861  14.720  11.700  11.412
75468ION    CL-43862  43.906  14.770  13.605
75469ION    CL-43863   1.447   7.070   1.659
75470ION    CL-43864  17.089  20.872   4.461
75471ION    CL-43865  32.467   9.520  10.235
75472ION    CL-43866  14.953  18.560   9.752
75473ION    CL-43867  42.084   4.658   1.305
75474ION    CL-43868  15.765  19.837  10.912
75475ION    CL-43869  30.174  30.217  14.576
75476ION    CL-43870  20.366  21.554   0.068
75477ION    CL-43871  44.896  22.820   1.997
75478ION    CL-43872  24.034   0.374  10.715
75479ION    CL-43873  32.790  43.951  13.278
75480ION    CL-43874  24.533  36.005  14.782
75481ION    CL-43875  17.147  38.546   2.722
75482ION    CL-43876  16.025   7.012   0.794
75483ION    CL-43877   6.289   9.528   2.506
75484ION    CL-43878  26.618  32.853   0.861
75485ION    CL-43879   3.316   7.790  12.861
75486ION    CL-43880  11.922  33.606  10.277
75487ION    CL-43881  27.341  11.785   0.834
75488ION    CL-43882   1.664  41.973  12.614
75489ION    CL-43883  44.022  36.118  13.380
75490ION    CL-43884  26.031  10.954  14.880
75491ION    CL-43885   6.832   7.586  11.032
75492ION    CL-43886  44.616   2.458   2.522
75493ION    CL-43887   2.497  32.027  12.839
75494ION    CL-43888  16.392  18.112   0.879
75495ION    CL-43889  13.496  23.620   3.748
75496ION    CL-43890   4.034  35.510  13.853
75497ION    CL-43891   5.112  35.357  14.193
75498ION    CL-43892  33.670  36.067  13.294
75499ION    CL-43893  24.373  32.957  12.306
75500ION    CL-43894   5.586  24.068  11.172
75501ION    CL-43895   7.139  31.244  12.052
75502ION    CL-43896   3.712  11.023  12.049
75503ION    CL-43897  20.410  12.015   3.416
75504ION    CL-43898  36.787  16.865  12.735
75505ION    CL-43899  38.251  34.444   0.311
75506ION    CL-43900  13.522  23.132  14.989
75507ION    CL-43901  18.237   4.732   2.769
75508ION    CL-43902  33.520   0.046   1.987
75509ION    CL-43903  38.125  26.881   0.381
75510ION    CL-43904  15.609  16.765   0.885
75511ION    CL-43905  31.418  24.206   5.002
75512ION    CL-43906  17.495   6.203   0.402
75513ION    CL-43907  12.727  29.679  11.240
75514ION    CL-43908  37.526  25.837  10.858
75515ION    CL-43909  38.550   8.872  11.298
75516ION    CL-43910  13.939  17.993   0.354
75517ION    CL-43911  15.568  36.628   1.280
75518ION    CL-43912   6.632  38.502   3.577
75519ION    CL-43913  24.463  37.045  13.869
75520ION    CL-43914   2.030  27.832   1.648
75521ION    CL-43915  42.025  24.003  12.002
75522ION    CL-43916  18.044  28.040   3.252
75523ION    CL-43917   5.677  27.173   0.787
75524ION    CL-43918   7.312  37.810  13.480
75525ION    CL-43919  22.286  32.781  11.928
75526ION    CL-43920   9.303  23.110   5.317
75527ION    CL-43921  30.153  18.400   4.745
75528ION    CL-43922  42.604  10.555  12.918
75529ION    CL-43923  19.974  32.975  13.799
75530ION    CL-43924  26.628   5.620  13.881
75531ION    CL-43925  24.508  22.071   3.612
75532ION    CL-43926  15.674   8.879   3.159
75533ION    CL-43927  26.243  14.332   2.733
75534ION    CL-43928  37.821  36.918  12.990
75535ION    CL-43929  24.317  44.212   3.897
75536ION    CL-43930  35.235  40.505  12.637
75537ION    CL-43931  12.158  17.332  12.903
75538ION    CL-43932  31.953   0.593   0.731
75539ION    CL-43933   8.635  12.365   1.844
75540ION    CL-43934   1.737  18.610  11.046
75541ION    CL-43935  34.957  18.964  14.867
75542ION    CL-43936  19.330  21.274   4.133
75543ION    CL-43937  28.743   3.631   3.823
75544ION    CL-43938  42.405   5.142   3.123
75545ION    CL-43939   8.503  28.465  13.468
75546ION    CL-43940   0.260  19.499   4.162
75547ION    CL-43941   0.006   0.322  14.277
75548ION    CL-43942  17.829  18.134   3.338
75549ION    CL-43943  36.806  18.618  12.851
75550ION    CL-43944  43.428  10.781  13.107
75551ION    CL-43945  16.213   4.387  10.327
75552ION    CL-43946  21.603  44.131  14.223
75553ION    CL-43947  10.940  27.995   1.749
75554ION    CL-43948   4.997  44.786  12.482
75555ION    CL-43949  31.095  38.095  13.338
75556ION    CL-43950  44.381  22.865  10.287
75557ION    CL-43951  23.403  32.952  11.407
75558ION    CL-43952  18.791  12.170   4.613
75559ION    CL-43953  33.135  26.522   4.641
75560ION    CL-43954  26.025  17.900   2.061
75561ION    CL-43955  32.705  40.169  13.906
75562ION    CL-43956  20.124  16.570   5.316
75563ION    CL-43957  11.910  12.409   1.217
  45.00000  45.00000  15.00000
